5 	0.00391112967796254 	-3.46944695195361e-18 	-0.0203377227907275 	-0.000104668223315987 	1.36781473007303e-16
5 	0.0118766651674912 	-6.93889390390723e-18 	-0.0558057168342831 	-0.000366868144917394 	-3.04650522040067e-16
5 	0.0201340015485759 	-6.93889390390723e-18 	-0.0825557890904278 	-0.00076208214604249 	-7.47771488610239e-17
5 	0.0286938283423949 	-6.93889390390723e-18 	-0.0992070728438994 	-0.00124680333199524 	8.73133904555669e-21
5 	0.0375672266585909 	-1.38777878078145e-17 	-0.106491539563238 	-0.00174698093294517 	8.79987969044912e-21
5 	0.0467656835403032 	-2.42861286636753e-17 	-0.107993980159265 	-0.0022347663652527 	-5.57198729674988e-21
5 	0.0563011068347007 	-3.46944695195361e-17 	-0.106857142323521 	-0.00271817257992619 	-6.91325950757126e-22
5 	0.0661858406082649 	-3.46944695195361e-17 	-0.104593229658807 	-0.00320638063437281 	3.44287191381654e-17
5 	0.0764326811267816 	-3.12250225675825e-17 	-0.101780374216181 	-0.00370297174553506 	7.83351948952058e-17
5 	0.0870548934207259 	-3.12250225675825e-17 	-0.0986417894898841 	-0.00420984381247122 	-5.15119355395947e-17
5 	0.0980662284574839 	-3.12250225675825e-17 	-0.0952696865126745 	-0.00472879612442858 	-2.90871624786724e-17
5 	0.109480940942647 	-3.12250225675825e-17 	-0.091702960507863 	-0.00526153176095516 	-2.60318162435372e-22
5 	0.121313807773416 	-3.12250225675825e-17 	-0.0879561157214642 	-0.00580955817798344 	-2.55268511905553e-22
5 	0.13358014716801 	-3.81639164714898e-17 	-0.0840311544447734 	-0.00637419813264388 	-1.03385038443798e-21
5 	0.146295838495838 	-3.81639164714898e-17 	-0.0799229019667598 	-0.00695662811559862 	-2.18040859887087e-21
5 	0.159477342834115 	-3.46944695195361e-17 	-0.0756215455640441 	-0.00755790634605712 	-8.98697451737009e-22
5 	0.173141724277517 	-2.77555756156289e-17 	-0.0711138852205074 	-0.00817898861865242 	1.73845641542413e-21
5 	0.18730667202848 	-1.73472347597681e-17 	-0.066383941370499 	-0.00882073579787163 	2.23102631110165e-21
5 	0.201990523296728 	-2.08166817117217e-17 	-0.061413217978169 	-0.00948391517071507 	2.46221802586312e-22
5 	0.217212287037675 	-2.77555756156289e-17 	-0.0561807671769531 	-0.0101691967972502 	-6.10121333386135e-22
5 	0.232991668560441 	-3.46944695195361e-17 	-0.0506631306960702 	-0.010877145558244 	-2.28940301692655e-22
5 	0.249349095037321 	-4.16333634234434e-17 	-0.0448341983840203 	-0.0116082093201875 	-9.40187128023657e-23
5 	0.266305741947753 	-4.5102810375397e-17 	-0.0386650062803513 	-0.0123627034250698 	1.37285082794973e-22
5 	0.283883560490998 	-4.85722573273506e-17 	-0.0321234873863791 	-0.0131407915569501 	9.57452858889796e-22
5 	0.30210530600303 	-4.85722573273506e-17 	-0.0251741835701339 	-0.0139424628470971 	5.36756560017703e-22
4.99999999999999 	0.320994567414413 	-5.20417042793042e-17 	-0.0177779249765886 	-0.0147675048344181 	-2.23236426131671e-22
4.99999999999999 	0.340575797787321 	-6.24500451351651e-17 	-0.00989148301061298 	-0.0156154729686914 	-7.99311726799119e-22
4.99999999999999 	0.350726380773491 	-6.85215773010839e-17 	-0.00574259933250268 	-0.0160528681119034 	-1.20117473173265e-21
5 	0.361059777574914 	-6.50521303491303e-17 	-0.00139204456919631 	-0.0164934197996542 	-4.26193874401017e-22
5 	0.381921238654768 	-6.24500451351651e-17 	0.00753972184012757 	-0.01737682644161 	7.46531365315417e-22
5 	0.403737460312803 	-6.24500451351651e-17 	0.0171958972757342 	-0.0182879331019706 	5.99654619187817e-23
5 	0.426352782500347 	-6.24500451351651e-17 	0.0275624297147398 	-0.0192170794420454 	1.05575427405107e-22
5 	0.449796471605112 	-5.55111512312578e-17 	0.0387086988358673 	-0.0201618903460302 	8.35171173222787e-22
5 	0.474098865585394 	-5.20417042793042e-17 	0.0507104130730403 	-0.0211193348633951 	-1.57310980628284e-17
5 	0.499291413181954 	-6.24500451351651e-17 	0.0636498821982085 	-0.0220859853320736 	-3.16179204367759e-17
5 	0.525406714562858 	-6.93889390390723e-17 	0.0776163137944094 	-0.0230588893665259 	3.37683582378393e-17
5 	0.552478563453479 	-6.59194920871187e-17 	0.0927092912148288 	-0.0240315905196972 	1.45559461242866e-17
5 	0.580541990805747 	-6.24500451351651e-17 	0.109103775994985 	-0.0249862734055673 	2.21287723447081e-23
5 	0.609633310062684 	-6.93889390390723e-17 	0.127185275405545 	-0.0258977478345286 	2.66405972998695e-21
5 	0.639790164076284 	-8.32667268468867e-17 	0.147426804688338 	-0.0267401738874702 	-2.14638793317229e-22
5 	0.671051573738892 	-8.67361737988404e-17 	0.170062959906873 	-0.0274834268917481 	2.70644190925141e-21
5 	0.703457988390393 	-8.67361737988404e-17 	0.195054419121945 	-0.0281141687716153 	6.50110443209398e-21
5 	0.737051338065788 	-7.63278329429795e-17 	0.222225458456698 	-0.028625886796828 	-6.3675061650048e-22
5 	0.771875087650011 	-6.24500451351651e-17 	0.251375375651005 	-0.0290062611957943 	7.8256621670092e-22
5 	0.807974293009291 	-6.59194920871187e-17 	0.28231911625663 	-0.0292369800072439 	6.53155835322309e-21
4.99999999999999 	0.845395659170797 	-7.28583859910259e-17 	0.314866381459047 	-0.0292983381906411 	-4.50240300782882e-21
4.99999999999999 	0.884187600624921 	-8.32667268468867e-17 	0.348776647686719 	-0.0291740423265167 	-2.69226798532057e-21
4.99999999999999 	0.924400303827172 	-9.36750677027476e-17 	0.3837242143471 	-0.0288547678421576 	6.25928994209066e-21
4.99999999999999 	0.966085791979409 	-1.04083408558608e-16 	0.419289236235889 	-0.0283400932479961 	8.66827345987506e-21
4.99999999999999 	1.009297992173 	-1.04083408558608e-16 	0.454974741962469 	-0.0276389781177802 	-9.66148905428629e-21
4.99999999999999 	1.05409280497942 	-9.36750677027476e-17 	0.490242258260925 	-0.0267692266591162 	-4.81531880356727e-21
5 	1.10052817657679 	-8.67361737988404e-17 	0.524558615866518 	-0.0257563540937239 	-1.5418203633432e-20
5 	1.14866417350412 	-8.84708972748172e-17 	0.557448762645979 	-0.0246319773032553 	-1.3735989426087e-21
4.99999999999999 	1.19856306013805 	-9.62771529167128e-17 	0.588548782687149 	-0.0234314691330658 	-1.15935011063127e-20
4.99999999999999 	1.25028937899049 	-1.02348685082632e-16 	0.617648384836371 	-0.0221905316176079 	1.63104385899321e-23
4.99999999999999 	1.30391003392871 	-1.04083408558608e-16 	0.644707791261637 	-0.0209409605413277 	1.30495897971466e-20
4.99999999999999 	1.3594943764233 	-1.00613961606655e-16 	0.669838421252037 	-0.0197068999397735 	-1.86658445909678e-21
4.99999999999999 	1.41711429493286 	-9.93129189996722e-17 	0.693251914289122 	-0.0185032216564964 	1.1025739634748e-21
4.99999999999999 	1.47684430753811 	-9.6710833785707e-17 	0.715197718711972 	-0.0173366761876204 	1.01004560588438e-20
4.99999999999999 	1.53876165794225 	-8.90672084696842e-17 	0.735912814530029 	-0.0162089266090249 	-1.07156805132212e-20
4.99999999999999 	1.60294641495791 	-8.73324849937074e-17 	0.755592647410623 	-0.0151194962390298 	1.07910263500053e-20
4.99999999999999 	1.66948157560584 	-9.0205620750794e-17 	0.774383244863502 	-0.0140673936683219 	-5.48255683992057e-22
4.99999999999999 	1.73845317195409 	-9.36750677027476e-17 	0.792429907219915 	-0.0130542904669415 	1.67629736791948e-20
4.99999999999999 	1.80995038183128 	-9.71445146547012e-17 	0.809828589743929 	-0.0120810671269794 	4.84283308497151e-22
4.99999999999999 	1.88406564355184 	-9.71445146547012e-17 	0.826646515024356 	-0.0111464428075669 	8.32286479301406e-23
4.99999999999999 	1.96089477479579 	-1.00613961606655e-16 	0.842908581103071 	-0.0102643762404926 	-1.83718968474618e-23
4.99999999999999 	2.04004996790234 	-1.04083408558608e-16 	0.85849537203484 	-0.00941660151807535 	-2.11605814131144e-23
4.99999999999999 	2.11873460271874 	-1.04083408558608e-16 	0.872908629029863 	-0.0086525214772466 	0
4.99999999999999 	2.19463865000284 	-1.04083408558608e-16 	0.885824618515543 	-0.00797842701671797 	0
4.99999999999999 	2.26786037121375 	-1.04083408558608e-16 	0.897333208068217 	-0.00738354048829778 	0
4.99999999999999 	2.33849455540975 	-1.04083408558608e-16 	0.907553584672675 	-0.00685822563125651 	0
4.99999999999999 	2.40663264195736 	-1.04083408558608e-16 	0.916636528925656 	-0.00637349270206578 	0
4.99999999999999 	2.47236283890404 	-1.04083408558608e-16 	0.924753805023348 	-0.00592134463366437 	0
4.99999999999999 	2.5357702371677 	-1.04083408558608e-16 	0.932019650172793 	-0.00549321297735004 	0
4.99999999999999 	2.59693692069107 	-1.04083408558608e-16 	0.938503202554619 	-0.00509793727891233 	0
4.99999999999999 	2.65594207270333 	-1.04083408558608e-16 	0.944273088350245 	-0.00473561985872532 	0
4.99999999999999 	2.71286207822658 	-1.04083408558608e-16 	0.94939397761555 	-0.00440413037890077 	0
4.99999999999999 	2.76777062295999 	-1.07552855510562e-16 	0.953923111378939 	-0.00410068925032706 	0
4.99999999999999 	2.82073878866949 	-1.07552855510562e-16 	0.957909766338164 	-0.00382246399073575 	0
4.99999999999999 	2.87183514520654 	-1.04083408558608e-16 	0.961395787672593 	-0.00356681386487678 	0
4.99999999999999 	2.92112583927513 	-1.04083408558608e-16 	0.964416369545125 	-0.00333136087482738 	0
4.99999999999999 	2.96867468006189 	-1.04083408558608e-16 	0.967000785054552 	-0.00311399083728589 	0
