5 	0.00391112967796255 	1.38777878078145e-17 	0.1908281204667 	2.94048303307253e-05 	818.960268707071 	3.635001315405e-06 	3.58255768998224e-38
5 	0.0118766651674912 	1.38777878078145e-17 	0.190824618051621 	0.000305759907943146 	256.887670754124 	3.91584115129896e-05 	0
5 	0.020134001548576 	1.38777878078145e-17 	0.19081580396898 	0.00139983641147363 	62.7284835202279 	0.000125871920370665 	0
5 	0.0286938283423949 	1.73472347597681e-17 	0.190793987729917 	0.00354355311415101 	25.6860973978165 	0.000101892077290543 	0
5 	0.0375672266585907 	2.08166817117217e-17 	0.190749509626738 	0.00601059941752211 	13.9150203669649 	3.55606725747185e-05 	0
5 	0.046765683540303 	1.90819582357449e-17 	0.190678996001694 	0.00823130185384541 	9.13987355149825 	8.83887814518328e-05 	0
5 	0.0563011068347006 	2.08166817117217e-17 	0.190587092980535 	0.0101316519643617 	6.78687829529342 	0.000208410757289611 	0
5 	0.0661858406082648 	2.25514051876985e-17 	0.190480085510338 	0.0117897979881758 	5.43329748838769 	0.000344037180239221 	0
5 	0.0764326811267815 	2.25514051876985e-17 	0.190362180876528 	0.0132784409601494 	4.5657233617451 	0.000482855265760175 	0
5 	0.0870548934207257 	2.08166817117217e-17 	0.190235939932881 	0.014647319854959 	3.96703483212992 	0.00062416248636946 	0
5 	0.0980662284574839 	1.73472347597681e-17 	0.190103265027114 	0.0159298014103347 	3.53203950690762 	0.000769247121759279 	0
5 	0.109480940942647 	1.38777878078145e-17 	0.189965773202312 	0.0171489754149485 	3.20411321713338 	0.000919555317721688 	0
5 	0.121313807773416 	1.73472347597681e-17 	0.189824884580367 	0.0183214495986174 	2.95021585401693 	0.00107643770013524 	0
5 	0.13358014716801 	2.42861286636753e-17 	0.189681871363202 	0.019459613130874 	2.74982300834954 	0.00124116766238479 	0
5 	0.146295838495838 	2.60208521396521e-17 	0.18953789878494 	0.0205730102382301 	2.58953846497792 	0.00141499081420842 	0
5 	0.159477342834115 	2.60208521396521e-17 	0.189394051014693 	0.0216691986235412 	2.46026464844775 	0.00159916814104386 	0
5 	0.173141724277517 	2.60208521396521e-17 	0.189251344873555 	0.0227543012673526 	2.35562121566997 	0.00179500981007406 	0
5 	0.18730667202848 	2.42861286636753e-17 	0.189110736602668 	0.0238333689636144 	2.27101445150853 	0.00200390107317759 	0
5 	0.201990523296728 	2.25514051876985e-17 	0.18897312469873 	0.024910621294894 	2.2030653278216 	0.00222732189630871 	0
5 	0.217212287037676 	2.25514051876985e-17 	0.188839350344721 	0.025989606146039 	2.14924468297059 	0.00246686139344524 	0
5 	0.232991668560441 	2.08166817117217e-17 	0.188710196428398 	0.0270733020218731 	2.10763286020316 	0.00272422745513687 	0
5 	0.249349095037321 	1.90819582357449e-17 	0.188586385902895 	0.0281641780425117 	2.07675671467083 	0.00300125133796889 	0
5 	0.266305741947753 	1.73472347597681e-17 	0.188468580103719 	0.0292642207259452 	2.05547612175789 	0.00329988644083257 	0
5 	0.283883560490998 	1.90819582357449e-17 	0.188357377593717 	0.0303749330107323 	2.04290292486315 	0.00362219999234209 	0
5 	0.302105306003029 	2.08166817117217e-17 	0.188253313872014 	0.0314973085796579 	2.03834154613806 	0.00397035562771063 	0
5 	0.320994567414413 	2.25514051876985e-17 	0.188156861395527 	0.0326317846988559 	2.04124424950392 	0.00434658302445142 	0
5 	0.34057579778732 	2.42861286636753e-17 	0.188068432178473 	0.0337781861022367 	2.05117635826045 	0.00475313515620541 	0
5 	0.3608743459712 	2.42861286636753e-17 	0.187988384304385 	0.0349356509805227 	2.0677881696314 	0.00519222926751217 	0
5 	0.38191648941809 	2.77555756156289e-17 	0.187917022568066 	0.0361025048806743 	2.09079123371425 	0.00566596053225169 	0
5 	0.403729468200046 	2.77555756156289e-17 	0.187854616048818 	0.0372761135134211 	2.11993726701637 	0.00617618779231435 	0
5 	0.426341520272733 	2.42861286636753e-17 	0.187801447497439 	0.0384527154810484 	2.15499833221543 	0.00672438566954227 	0
5 	0.449781918030829 	2.25514051876985e-17 	0.187757755330714 	0.0396272369922921 	2.19574712257543 	0.00731150180934378 	0
5 	0.474081006202548 	1.73472347597681e-17 	0.187723099756461 	0.0407930826794723 	2.24193620473491 	0.00793787915477048 	0
5 	0.499270241132363 	1.21430643318376e-17 	0.187695990692565 	0.0419418989434325 	2.29327484858217 	0.00860360259180764 	0
5 	0.525382231502763 	8.67361737988404e-18 	0.187681279032763 	0.0430633459575585 	2.34940429345745 	0.00933457267493559 	0
5 	0.552450780547767 	6.93889390390723e-18 	0.187706514048379 	0.0441462785997312 	2.4099705432128 	0.0102325801716765 	0
5 	0.580510929812849 	8.67361737988404e-18 	0.187796147750873 	0.0451832814955044 	2.47482164171972 	0.0112171060287859 	0
5 	0.60959900451791 	1.04083408558608e-17 	0.18792392653596 	0.0461569307874412 	2.54252313572646 	0.012310233073852 	0
5 	0.639752660582032 	8.67361737988404e-18 	0.188045246923746 	0.0470167923821522 	2.60885825490204 	0.0133569581163387 	0
5 	0.671010933370886 	6.93889390390723e-18 	0.188144439103519 	0.0476978514005272 	2.66813211103606 	0.0142306741057738 	0
5 	0.7034142882299 	8.67361737988404e-18 	0.188226329352886 	0.0481405301414724 	2.71487218863666 	0.0148825410037052 	0
5 	0.737004672868605 	1.04083408558608e-17 	0.188299526811755 	0.0482990266706712 	2.74482245758611 	0.0153080879225098 	0
5 	0.771825571663975 	1.04083408558608e-17 	0.188369229066004 	0.0481412876532317 	2.75525463884675 	0.0155112886373661 	0
5 	0.807922061953053 	8.67361737988404e-18 	0.188436050646816 	0.0476467694355576 	2.74485352317268 	0.015485260388786 	0
5 	0.845340872387742 	5.20417042793042e-18 	0.188497264405902 	0.0468060701521421 	2.71334799892249 	0.0152130132077771 	0
5 	0.884130443427309 	3.46944695195361e-18 	0.188548614274498 	0.045623276610431 	2.66109743114807 	0.0146800532291128 	0
5 	0.924340990046897 	5.20417042793042e-18 	0.188585721942202 	0.0441196425212914 	2.58885194795771 	0.0138883891978156 	0
5 	0.966024566743241 	6.93889390390723e-18 	0.188604788617284 	0.0423363487597406 	2.49775350363932 	0.0128648538918987 	0
5 	1.00923513492173 	5.20417042793042e-18 	0.188602754547916 	0.0403343988737879 	2.38950230666861 	0.0116613603776929 	0
5 	1.05402863275205 	3.46944695195361e-18 	0.188577217517048 	0.0381907001261873 	2.26657066042605 	0.0103481845243078 	0
5 	1.10046304758287 	3.46944695195361e-18 	0.188526346792968 	0.0359925052059995 	2.13279846591148 	0.00900374053713779 	0
5 	1.14859849100923 	0 	0.188448801031447 	0.0338343078956606 	1.99492568018404 	0.00770602046334468 	0
5 	1.19849727668994 	-1.73472347597681e-18 	0.188343574099945 	0.0317937717394518 	1.85914799071389 	0.00652022305223786 	0
5 	1.25022400101563 	-1.73472347597681e-18 	0.188209804160866 	0.0299120094538069 	1.72792242100181 	0.0054876175601454 	0
5 	1.30384562673185 	-1.73472347597681e-18 	0.188046848900475 	0.0282026746390274 	1.60250051921082 	0.00462343900306934 	0
5 	1.35943156962565 	-1.73472347597681e-18 	0.187859941704358 	0.0266591720985684 	1.48390567563164 	0.00391946823909979 	0
5 	1.41705378838762 	-3.46944695195361e-18 	0.187668019019478 	0.0252598265545045 	1.37277771582376 	0.00334627288456552 	0
5 	1.47678687776592 	-1.73472347597681e-18 	0.187474208344048 	0.0239750313238957 	1.26930986811205 	0.0028462705109596 	0
5 	1.53870816513277 	-3.46944695195361e-18 	0.187261682740653 	0.0227779552025849 	1.17286434837022 	0.00241354200190602 	0
5 	1.60289781058851 	-6.93889390390723e-18 	0.187027295836847 	0.021639905218263 	1.08141736117875 	0.00203615456800393 	0
5 	1.66943891073266 	-5.20417042793042e-18 	0.186773228235596 	0.0205354585347292 	0.994906024672739 	0.00171344317899368 	0
5 	1.73841760623657 	-6.93889390390723e-18 	0.186499539851853 	0.0194490656182016 	0.917128746025096 	0.00143986934094701 	0
5 	1.80992319335659 	-1.38777878078145e-17 	0.186205224119053 	0.0183669010949822 	0.850715940337563 	0.0012050258686722 	0
5 	1.88404823953248 	-1.56125112837913e-17 	0.185889400399656 	0.0172727913730808 	0.794605100082532 	0.000998439701427216 	0
5 	1.96088870322037 	-6.93889390390723e-18 	0.18556319183608 	0.0161886484668858 	0.748284688551943 	0.000818035549318225 	0
5 	2.02025965173184 	0 	0.185296765282074 	0.0153127608076059 	0.717665918463722 	0.000686914233007995 	0
5 	2.06006301192217 	-3.46944695195361e-18 	0.185103224001313 	0.0146877570065162 	0.698800953958702 	0.0005999888883355 	0
5 	2.09845978584128 	-6.93889390390723e-18 	0.184924398766564 	0.014123937297141 	0.684026605983656 	0.000525682475897318 	0
5 	2.13549967996945 	-6.93889390390723e-18 	0.184749928067134 	0.0135852312750698 	0.671975663000032 	0.000457843283620677 	0
5 	2.17123064424048 	-6.93889390390723e-18 	0.184579808061201 	0.0130714566928198 	0.662541029953632 	0.000396011419065077 	0
5 	2.20569893411515 	-6.93889390390723e-18 	0.184414056723022 	0.0125823504984686 	0.655652023522143 	0.000339821284035989 	0
5 	2.23894917046122 	-6.93889390390723e-18 	0.184252708179553 	0.0121175577583155 	0.65126796029962 	0.000288963505477281 	0
5 	2.27102439731725 	-6.93889390390723e-18 	0.184095805251045 	0.0116766403313722 	0.649374784696059 	0.000243173880961257 	0
5 	2.30196613761521 	-6.93889390390723e-18 	0.183943401508017 	0.0112590957967092 	0.649983602786461 	0.000202230693886127 	0
5 	2.33181444693391 	-6.93889390390723e-18 	0.183795560844241 	0.0108643805475142 	0.653130443666486 	0.000165954819928772 	0
5 	2.3606079653529 	-6.93889390390723e-18 	0.183652355096588 	0.0104919333937556 	0.658876850144639 	0.000134211335387616 	0
5 	2.3883839674739 	-6.93889390390723e-18 	0.183513860899735 	0.0101411975960806 	0.667311071018425 	0.000106912053436288 	0
5 	2.41517841067461 	-8.67361737988404e-18 	0.1833801560751 	0.00981164023923592 	0.67854973014117 	8.40185810439658e-05 	0
5 	2.44102598165722 	-1.04083408558608e-17 	0.183251315748236 	0.0095027684446425 	0.692739909275643 	6.55456659780894e-05 	0
5 	2.46596014135207 	-1.21430643318376e-17 	0.183127408403245 	0.00921414225358944 	0.710061618123147 	5.15647122583182e-05 	0
4.99999999999999 	2.49001316823443 	-1.56125112837913e-17 	0.183008492054379 	0.00894538417787962 	0.730730645638227 	4.22073883283726e-05 	0
4.99999999999999 	2.51321620011054 	-1.90819582357449e-17 	0.182894610682186 	0.00869618547918798 	0.75500179799388 	3.76692662193153e-05 	0
4.99999999999999 	2.535599274427 	-1.90819582357449e-17 	0.182785791055202 	0.00846630924835455 	0.78317253446529 	3.82134333673832e-05 	0
4.99999999999999 	2.55719136715571 	-1.56125112837913e-17 	0.182682040035322 	0.00825559034484995 	0.815587015938229 	4.41740263271122e-05 	0
5 	2.57802043030465 	-1.38777878078145e-17 	0.182583342443978 	0.00806393224925035 	0.852640583863933 	5.59596595553144e-05 	0
4.99999999999999 	2.59811342810315 	-1.56125112837913e-17 	0.182489659546568 	0.00789130089532853 	0.894784691860769 	7.40567722412776e-05 	0
4.99999999999999 	2.61749637190832 	-1.73472347597681e-17 	0.182400928193672 	0.00773771559430188 	0.942532318760045 	9.90329967954728e-05 	0
4.99999999999999 	2.63619435387806 	-1.73472347597681e-17 	0.182317060638711 	0.00760323724536023 	0.99646390074183 	0.000131540761509541 	0
4.99999999999999 	2.65423157945406 	-1.38777878078145e-17 	0.182237945031971 	0.00748795413827942 	1.05723382999501 	0.000172321463475349 	0
5 	2.67163139869691 	-8.67361737988404e-18 	0.182163446569926 	0.00739196578003998 	1.12557757504888 	0.000222210658898891 	0
5 	2.68841633651388 	-5.20417042793042e-18 	0.182093409256155 	0.00731536529278124 	1.2023194788586 	0.000282144775796762 	0
5 	2.7046081218185 	-1.73472347597681e-18 	0.182027658206883 	0.00725822100421395 	1.28838127928827 	0.000353169809206612 	0
5 	2.72022771565972 	0 	0.181966002411321 	0.0072205578544099 	1.38479136827538 	0.000436452263101927 	0
5 	2.73529533835694 	-1.73472347597681e-18 	0.181908237836781 	0.00720233915718988 	1.49269476040601 	0.000533292223180507 	0
5 	2.74983049567625 	-3.46944695195361e-18 	0.181854150753158 	0.00720344908558108 	1.61336368711981 	0.000645137878540314 	0
5 	2.76385200408156 	-5.20417042793042e-18 	0.18180352114774 	0.00722367603558196 	1.74820869067099 	0.000773600099840223 	0
5 	2.77737801509343 	-6.93889390390723e-18 	0.181756126118356 	0.0072626968300691 	1.89879010123779 	0.000920464919432026 	0
5 	2.79042603878708 	-6.93889390390723e-18 	0.181711743125057 	0.00732006165004435 	2.06682990225819 	0.00108770109152704 	0
5 	2.80301296646003 	-5.20417042793042e-18 	0.181670152780903 	0.00739517972855343 	2.25422431241977 	0.00127745956823989 	0
5 	2.81515509249872 	-5.20417042793042e-18 	0.181631140811393 	0.00748730630532508 	2.46305806314288 	0.00149206213077067 	0
5 	2.82686813547237 	-5.20417042793042e-18 	0.181594501571895 	0.00759553216113095 	2.69562249122528 	0.00173397806622935 	0
5 	2.83816725848142 	-3.46944695195361e-18 	0.181560050737361 	0.00771877818015306 	2.95444137112972 	0.00200579006866398 	0
5 	2.84906708878691 	-3.46944695195361e-18 	0.181527628314729 	0.00785579867856834 	3.24231098089786 	0.00231016495195671 	0
5 	2.85958173674616 	-5.20417042793042e-18 	0.181496960597531 	0.00800519782827987 	3.56236383505845 	0.00265227261902126 	0
5 	2.86972481407933 	-6.93889390390723e-18 	0.181467480953609 	0.00816546438203031 	3.91838744868411 	0.0030481606663653 	0
5 	2.87950945149043 	-8.67361737988404e-18 	0.181439168695535 	0.00833503610232807 	4.31613928088375 	0.00350368179133022 	0
5 	2.88894831566566 	-6.93889390390723e-18 	0.18141233162435 	0.00851204801912223 	4.7628133036328 	0.00403068497406744 	0
5 	2.89805362567106 	-5.20417042793042e-18 	0.181387006319043 	0.00869257546023562 	5.26364793640067 	0.00463011115643087 	0
5 	2.90683716877067 	-8.67361737988404e-18 	0.181363247393977 	0.00887023976671944 	5.82085115851254 	0.00528943859321877 	0
5 	2.91531031568569 	-6.93889390390723e-18 	0.181340942724561 	0.00903740335211418 	6.43528107797584 	0.00599838598969619 	0
5 	2.92348403531448 	-3.46944695195361e-18 	0.181319880344072 	0.00918611923021102 	7.10825596075993 	0.00675096408909342 	0
5 	2.93136890893229 	-1.73472347597681e-18 	0.181299869551687 	0.00930853232818152 	7.84293698678895 	0.00754351602774036 	0
5 	2.93897514388925 	0 	0.181280782178651 	0.00939693389948848 	8.6454840790145 	0.00837354418732055 	0
5 	2.94631258682425 	0 	0.181262549915847 	0.00944362522001294 	9.52624713893098 	0.00923932490922383 	0
5 	2.95339073641193 	1.73472347597681e-18 	0.181245151086002 	0.00944065116634106 	10.5018792436859 	0.0101399518101884 	0
5 	2.96021875565915 	3.46944695195361e-18 	0.181228601029911 	0.009379390030693 	11.5991371153396 	0.011075208599629 	0
5 	2.96680548376697 	3.46944695195361e-18 	0.181212948540971 	0.00925013083752463 	12.8521112601286 	0.0120447888234119 	0
5 	2.97315944757337 	1.73472347597681e-18 	0.181198274358566 	0.00904150340435424 	14.306753944719 	0.0130461814706341 	0
5 	2.97928887259171 	0 	0.181184688097366 	0.00873930263045205 	16.0324459080598 	0.0140695185989192 	0
5 	2.98520169365902 	1.73472347597681e-18 	0.181172321107603 	0.00832519550696246 	18.1329306519402 	0.0150875021962927 	0
5 	2.99090556520806 	1.73472347597681e-18 	0.18116131020647 	0.00777542896682846 	20.7662284375556 	0.0160351359967909 	0
5 	2.99640787117633 	1.73472347597681e-18 	0.181151776284763 	0.00706012438115356 	24.1845624744325 	0.0167757521542216 	0
5 	3.00171573456492 	5.20417042793042e-18 	0.181143832591614 	0.00614449655975239 	28.8203110009175 	0.0170411252913057 	0
5 	3.00683602665962 	3.46944695195361e-18 	0.181137610199173 	0.00499478127029871 	35.4924747997652 	0.0161563257005253 	0
5 	3.01177537592612 	0 	0.181133082107373 	0.0036195158033719 	45.9750417847298 	0.0130861861918434 	0
5 	3.01654017659085 	0 	0.181130035556217 	0.00217616136063105 	64.9528868959605 	0.00791046036208773 	0
5 	3.02113659691864 	0 	0.181128135299071 	0.00099532027947751 	107.88337383503 	0.00301925394316181 	0
5 	3.02557058719784 	1.73472347597681e-18 	0.181126942939083 	0.000317009940970869 	240.657114903762 	0.000638700257063606 	0
5 	3.02984788744324 	3.46944695195361e-18 	0.181126102032927 	6.13610335635045e-05 	947.545638346371 	6.57321084933076e-05 	0
