5 	0.00391112967796255 	1.38777878078145e-17 	-0.0263177222091059 	-3.17969420309188e-05 	-5.14261343747987e-23
5 	0.0118766651674912 	1.38777878078145e-17 	-0.0698388011321454 	-0.000203606946499552 	-5.14170857547557e-23
5 	0.020134001548576 	1.38777878078145e-17 	-0.0989157364768883 	-0.00056501236769594 	-7.56523257377491e-23
5 	0.0286938283423949 	1.73472347597681e-17 	-0.112409670484499 	-0.00109830595013014 	-3.63915782882952e-22
5 	0.0375672266585907 	2.08166817117217e-17 	-0.115439106373075 	-0.00171454674929217 	-7.56285900163705e-23
5 	0.046765683540303 	1.90819582357449e-17 	-0.114076278328084 	-0.00237601530243969 	-9.79435945272134e-24
5 	0.0563011068347006 	2.08166817117217e-17 	-0.111183457652287 	-0.00308205402175642 	-1.95854372112189e-23
5 	0.0661858406082648 	2.25514051876985e-17 	-0.107689385854296 	-0.00383025286550818 	-2.17851005561895e-23
5 	0.0764326811267815 	2.25514051876985e-17 	-0.103886452610257 	-0.00461613488107937 	-4.7928194654049e-23
5 	0.0870548934207257 	2.08166817117217e-17 	-0.0998728683167113 	-0.00543710220229685 	-8.50505510533638e-25
5 	0.0980662284574839 	1.73472347597681e-17 	-0.0956798683986605 	-0.00629222770704031 	3.76893407765058e-25
5 	0.109480940942647 	1.38777878078145e-17 	-0.0913119776885957 	-0.00718135921437416 	1.29833860738013e-23
5 	0.121313807773416 	1.73472347597681e-17 	-0.0867615009839735 	-0.00810468729493257 	1.45623392531417e-23
5 	0.13358014716801 	2.42861286636753e-17 	-0.0820142999434789 	-0.00906259311844979 	-5.45869546530857e-24
5 	0.146295838495838 	2.60208521396521e-17 	-0.0770522496733647 	-0.0100555801502955 	-6.035280104255e-24
5 	0.159477342834115 	2.60208521396521e-17 	-0.0718542980047024 	-0.0110842303395437 	-1.00895661479004e-23
5 	0.173141724277517 	2.60208521396521e-17 	-0.0663968854661933 	-0.0121491727989717 	-4.86266370021542e-23
5 	0.18730667202848 	2.42861286636753e-17 	-0.0606540500197697 	-0.0132510600978374 	-1.00850103015158e-23
5 	0.201990523296728 	2.25514051876985e-17 	-0.0545973645043755 	-0.0143905485223749 	1.79023940801273e-23
5 	0.217212287037676 	2.25514051876985e-17 	-0.0481957780869783 	-0.0155682798873349 	8.63628015139245e-23
5 	0.232991668560441 	2.08166817117217e-17 	-0.041415397789691 	-0.0167848633397879 	1.78936871635995e-23
5 	0.249349095037321 	1.90819582357449e-17 	-0.0342192293547614 	-0.0180408560052698 	0
5 	0.266305741947753 	1.73472347597681e-17 	-0.0265668886151896 	-0.0193367414721192 	1.66663388440805e-23
5 	0.283883560490998 	1.90819582357449e-17 	-0.018414290836501 	-0.0206729050755338 	1.34220963501979e-17
5 	0.302105306003029 	2.08166817117217e-17 	-0.00971332420644525 	-0.0220496048236128 	1.34322957056756e-17
5 	0.320994567414413 	2.25514051876985e-17 	-0.000411514498651817 	-0.0234669370841184 	3.69743045350421e-20
5 	0.34057579778732 	2.42861286636753e-17 	0.00954830747416825 	-0.0249247954372874 	-2.92248293018385e-20
5 	0.3608743459712 	2.42861286636753e-17 	0.0202283303681286 	-0.0264228186810707 	-1.3522368182093e-17
5 	0.38191648941809 	2.77555756156289e-17 	0.0316960596401665 	-0.0279603292214704 	-1.34657259148714e-17
5 	0.403729468200046 	2.77555756156289e-17 	0.044024573620004 	-0.0295362562683335 	-3.35188363695351e-23
5 	0.426341520272733 	2.42861286636753e-17 	0.0572927155709038 	-0.0311490151178881 	3.48635725928054e-23
5 	0.449781918030829 	2.25514051876985e-17 	0.071585188210978 	-0.0327963588770375 	1.68944820397035e-22
5 	0.474081006202548 	1.73472347597681e-17 	0.0869925150371341 	-0.0344755510112057 	3.48421172329654e-23
5 	0.499270241132363 	1.21430643318376e-17 	0.103610860472257 	-0.0361842915503195 	0
5 	0.525382231502763 	8.67361737988404e-18 	0.121543440622412 	-0.0379180370245744 	-3.81557557450025e-23
5 	0.552450780547767 	6.93889390390723e-18 	0.140960050029665 	-0.0396598443281914 	-2.25491190470943e-22
5 	0.580510929812849 	8.67361737988404e-18 	0.162331133287821 	-0.0414005611875361 	-2.33696147659918e-22
5 	0.60959900451791 	1.04083408558608e-17 	0.186230028184847 	-0.0431305563816145 	1.83436003704226e-17
5 	0.639752660582032 	8.67361737988404e-18 	0.212859125074847 	-0.0448181944560228 	1.75301807080961e-17
5 	0.671010933370886 	6.93889390390723e-18 	0.242111804633755 	-0.0464395645192468 	-1.99475096686253e-17
5 	0.7034142882299 	8.67361737988404e-18 	0.273757401907702 	-0.0479758422791427 	-1.91330197527872e-17
5 	0.737004672868605 	1.04083408558608e-17 	0.307566251647008 	-0.0494064966902018 	0
5 	0.771825571663975 	1.04083408558608e-17 	0.343346341098884 	-0.0507077074591289 	-5.15868874036184e-23
5 	0.807922061953053 	8.67361737988404e-18 	0.380912918275213 	-0.0518532037914671 	-2.0925769979369e-22
5 	0.845340872387742 	5.20417042793042e-18 	0.420033545602685 	-0.0528161867343076 	-5.70073206709628e-22
5 	0.884130443427309 	3.46944695195361e-18 	0.460383508347061 	-0.0535717194963266 	-2.12798457021865e-22
5 	0.924340990046897 	5.20417042793042e-18 	0.501528403370274 	-0.0540990024217219 	-5.22761515526661e-22
5 	0.966024566743241 	6.93889390390723e-18 	0.542935342769806 	-0.0543832027119212 	-2.09274658145873e-22
5 	1.00923513492173 	5.20417042793042e-18 	0.584006212901153 	-0.0544168449366321 	-2.0866870702283e-22
5 	1.05402863275205 	3.46944695195361e-18 	0.624124785471609 	-0.0542008742591026 	-7.04604683091782e-22
5 	1.10046304758287 	3.46944695195361e-18 	0.662709935984154 	-0.0537453256464497 	9.34708749153689e-23
5 	1.14859849100923 	0 	0.699269441969431 	-0.0530693336802275 	9.34741133895633e-22
5 	1.19849727668994 	-1.73472347597681e-18 	0.733461169202207 	-0.0521996371442535 	9.97304114285737e-22
5 	1.25022400101563 	-1.73472347597681e-18 	0.765149693910556 	-0.0511667846421133 	1.82302020933293e-22
5 	1.30384562673185 	-1.73472347597681e-18 	0.794411148471751 	-0.0500007745224003 	-1.57745967682544e-22
5 	1.35943156962565 	-1.73472347597681e-18 	0.821480559468925 	-0.0487223364995452 	-7.05112466582981e-22
5 	1.41705378838762 	-3.46944695195361e-18 	0.846676582111173 	-0.0473277872774345 	4.43936289630927e-22
5 	1.47678687776592 	-1.73472347597681e-18 	0.870315729021684 	-0.0458120073842638 	7.20503730285657e-23
5 	1.53870816513277 	-3.46944695195361e-18 	0.892535471308006 	-0.0441804855599243 	-7.15215942332183e-22
5 	1.60289781058851 	-6.93889390390723e-18 	0.913326058464021 	-0.0424630525975946 	2.621946083521e-22
5 	1.66943891073266 	-5.20417042793042e-18 	0.932702574976598 	-0.0406795545207461 	-1.18966437753933e-22
5 	1.73841760623657 	-6.93889390390723e-18 	0.950746018381852 	-0.0388338416114125 	-1.26312991462187e-21
5 	1.80992319335659 	-1.38777878078145e-17 	0.967579916923815 	-0.0369191795045139 	-2.52490247887627e-22
5 	1.88404823953248 	-1.56125112837913e-17 	0.983300137317969 	-0.0349254794961887 	0
5 	1.96088870322037 	-6.93889390390723e-18 	0.99747675427321 	-0.0329185140706853 	0
5 	2.02025965173184 	0 	1.00769098593659 	-0.0313078091933921 	0
5 	2.06006301192217 	-3.46944695195361e-18 	1.01445916845026 	-0.0301517673037331 	0
5 	2.09845978584128 	-6.93889390390723e-18 	1.02020600555283 	-0.0290963860059052 	0
5 	2.13549967996945 	-6.93889390390723e-18 	1.02538787707631 	-0.0280751465099644 	0
5 	2.17123064424048 	-6.93889390390723e-18 	1.03004546963914 	-0.0270872814835366 	0
5 	2.20569893411515 	-6.93889390390723e-18 	1.03421446466216 	-0.026132031453714 	0
5 	2.23894917046122 	-6.93889390390723e-18 	1.03792609931934 	-0.0252086040428505 	0
5 	2.27102439731725 	-6.93889390390723e-18 	1.04120757547903 	-0.0243161644243572 	0
5 	2.30196613761521 	-6.93889390390723e-18 	1.0440823798137 	-0.0234538387732408 	0
5 	2.33181444693391 	-6.93889390390723e-18 	1.04657054116286 	-0.0226207182997926 	0
5 	2.3606079653529 	-6.93889390390723e-18 	1.04868884178016 	-0.0218158640072019 	0
5 	2.3883839674739 	-6.93889390390723e-18 	1.05045099383362 	-0.0210383119334199 	0
5 	2.41517841067461 	-8.67361737988404e-18 	1.05186778895611 	-0.0202870782976463 	0
5 	2.44102598165722 	-1.04083408558608e-17 	1.05294722666185 	-0.0195611642241827 	0
5 	2.46596014135207 	-1.21430643318376e-17 	1.05369462649125 	-0.0188595598950603 	0
4.99999999999999 	2.49001316823443 	-1.56125112837913e-17 	1.05411272836085 	-0.0181812480698752 	0
4.99999999999999 	2.51321620011054 	-1.90819582357449e-17 	1.05420178548998 	-0.0175252069653027 	0
4.99999999999999 	2.535599274427 	-1.90819582357449e-17 	1.05395965425037 	-0.016890412523695 	0
4.99999999999999 	2.55719136715571 	-1.56125112837913e-17 	1.05338188517467 	-0.0162758401262905 	0
5 	2.57802043030465 	-1.38777878078145e-17 	1.05246181902166 	-0.015680465828207 	0
4.99999999999999 	2.59811342810315 	-1.56125112837913e-17 	1.05119069110637 	-0.0151032672146112 	0
4.99999999999999 	2.61749637190832 	-1.73472347597681e-17 	1.04955774597309 	-0.0145432240036725 	0
4.99999999999999 	2.63619435387806 	-1.73472347597681e-17 	1.04755036289108 	-0.0139993185540188 	0
4.99999999999999 	2.65423157945406 	-1.38777878078145e-17 	1.0451541906521 	-0.0134705364727394 	0
5 	2.67163139869691 	-8.67361737988404e-18 	1.04235328793749 	-0.0129558675630227 	0
5 	2.68841633651388 	-5.20417042793042e-18 	1.03913026342635 	-0.0124543073946475 	0
5 	2.7046081218185 	-1.73472347597681e-18 	1.03546640827289 	-0.0119648598198975 	0
5 	2.72022771565972 	0 	1.03134181306652 	-0.0114865407840071 	0
5 	2.73529533835694 	-1.73472347597681e-18 	1.02673546230309 	-0.0110183837838209 	0
5 	2.74983049567625 	-3.46944695195361e-18 	1.02162530191848 	-0.0105594473020141 	0
5 	2.76385200408156 	-5.20417042793042e-18 	1.01598827940462 	-0.0101088244738408 	0
5 	2.77737801509343 	-6.93889390390723e-18 	1.00980036086856 	-0.00966565509574288 	0
5 	2.79042603878708 	-6.93889390390723e-18 	1.00303653413929 	-0.00922913985197102 	0
5 	2.80301296646003 	-5.20417042793042e-18 	0.995670810388835 	-0.00879855661738108 	0
5 	2.81515509249872 	-5.20417042793042e-18 	0.987676237177411 	-0.00837327929408482 	0
5 	2.82686813547237 	-5.20417042793042e-18 	0.979024931692889 	-0.00795279702110067 	0
5 	2.83816725848142 	-3.46944695195361e-18 	0.969688133030014 	-0.00753671414562317 	0
5 	2.84906708878691 	-3.46944695195361e-18 	0.959636256433975 	-0.00712470823291588 	0
5 	2.85958173674616 	-5.20417042793042e-18 	0.948838844946814 	-0.00671670530418887 	0
5 	2.86972481407933 	-6.93889390390723e-18 	0.937254881295701 	-0.00631329352965676 	0
5 	2.87950945149043 	-8.67361737988404e-18 	0.924780046406198 	-0.0059129054917666 	0
5 	2.88894831566566 	-6.93889390390723e-18 	0.911249767549303 	-0.00551347606152936 	0
5 	2.89805362567106 	-5.20417042793042e-18 	0.896539164366103 	-0.00511387211488999 	0
5 	2.90683716877067 	-8.67361737988404e-18 	0.880600785254387 	-0.00471544634724317 	0
5 	2.91531031568569 	-6.93889390390723e-18 	0.86343220258016 	-0.00432041903430772 	0
5 	2.92348403531448 	-3.46944695195361e-18 	0.845044752905223 	-0.00393127780956836 	0
5 	2.93136890893229 	-1.73472347597681e-18 	0.825445830317605 	-0.00355064488367873 	0
5 	2.93897514388925 	0 	0.804629138854217 	-0.0031811435320234 	0
5 	2.94631258682425 	0 	0.782567949386479 	-0.00282528355403139 	0
5 	2.95339073641193 	1.73472347597681e-18 	0.759208013976993 	-0.00248538061471654 	0
5 	2.96021875565915 	3.46944695195361e-18 	0.734458345414602 	-0.00216350448022758 	0
5 	2.96680548376697 	3.46944695195361e-18 	0.708179112757555 	-0.00186144835074284 	0
5 	2.97315944757337 	1.73472347597681e-18 	0.680166061373179 	-0.00158071354841262 	0
5 	2.97928887259171 	0 	0.650129883992143 	-0.00132249789351063 	0
5 	2.98520169365902 	1.73472347597681e-18 	0.617668693505631 	-0.00108768617653507 	0
5 	2.99090556520806 	1.73472347597681e-18 	0.582231746266963 	-0.000876862168547567 	0
5 	2.99640787117633 	1.73472347597681e-18 	0.543072587579363 	-0.000690361348307925 	0
5 	3.00171573456492 	5.20417042793042e-18 	0.499180362232533 	-0.000528155847900675 	0
5 	3.00683602665962 	3.46944695195361e-18 	0.449128868230253 	-0.000389092817147345 	0
5 	3.01177537592612 	0 	0.391139866631239 	-0.000271676839109083 	0
5 	3.01654017659085 	0 	0.324311335185073 	-0.000174831920865292 	0
5 	3.02113659691864 	0 	0.250723073707282 	-9.9833051992742e-05 	0
5 	3.02557058719784 	1.73472347597681e-18 	0.175297867109163 	-4.753393167082e-05 	0
5 	3.02984788744324 	3.46944695195361e-18 	0.102322230397109 	-1.63213832460703e-05 	0
