5 	0.451278172511378 	2.42861286636753e-17 	0.18918512460104 	1.63523234847296e-05 	2250.31070822685 	3.31199392603623e-07 	8.3817116262868e-39
5 	0.457678879734935 	2.42861286636753e-17 	0.189461255563528 	0.000310445106732901 	454.745971006559 	9.10379739480981e-06 	0
5 	0.464311922901196 	3.81639164714898e-17 	0.189727442468367 	0.00189238344728233 	133.81738044254 	3.89910123189457e-05 	0
5 	0.471185657695649 	4.5102810375397e-17 	0.189939475455518 	0.00552064212174288 	57.2352341672823 	5.39575583497068e-05 	0
5 	0.478308734771284 	4.5102810375397e-17 	0.190062609285553 	0.00991089098493047 	30.6831156774938 	0.000257236594375197 	0
5 	0.485690109776152 	4.16333634234434e-17 	0.190072589357849 	0.0137913001968417 	19.5535374279797 	0.000656841592856454 	0
5 	0.493339053695877 	3.81639164714898e-17 	0.189980705914603 	0.017003034667003 	14.0406832295473 	0.00112309453364347 	0
5 	0.501265163519363 	4.16333634234434e-17 	0.189811994678798 	0.0197064649711454 	10.8953650739807 	0.00162598321548764 	0
5 	0.509478373236077 	4.5102810375397e-17 	0.189584367851291 	0.022050253700343 	8.90257896171035 	0.00216124402157508 	0
5 	0.517988965173338 	4.5102810375397e-17 	0.189308214710435 	0.0241351742268885 	7.54187290102397 	0.00272710451959626 	0
5 	0.526807581682222 	4.85722573273506e-17 	0.188990742174999 	0.0260274906722463 	6.56113106015775 	0.00332144083579507 	0
5 	0.535945237180767 	4.85722573273506e-17 	0.188637891874468 	0.0277711555100374 	5.82542759844084 	0.00394130162705304 	0
5 	0.54541333056328 	3.81639164714898e-17 	0.188254788689024 	0.0293964638125045 	5.25665042208687 	0.00458327138256563 	0
5 	0.555223657984643 	3.81639164714898e-17 	0.187845880576817 	0.0309249731995049 	4.80667837260884 	0.00524368980223942 	0
4.99999999999999 	0.565388426028621 	4.5102810375397e-17 	0.187415087566007 	0.0323731695001072 	4.4443553687788 	0.00591879457652268 	0
5 	0.575920265269289 	4.85722573273506e-17 	0.186965968395173 	0.0337532905177467 	4.14867665349296 	0.00660458505348015 	0
5 	0.586832244234754 	4.16333634234434e-17 	0.186501805008011 	0.0350744872978514 	3.90500036781539 	0.0072968006833338 	0
5 	0.598137883782479 	3.81639164714898e-17 	0.186025619023674 	0.0363435957223964 	3.7028352000767 	0.00799087425379899 	0
5 	0.609851171895618 	4.5102810375397e-17 	0.185540214346812 	0.0375656607122675 	3.5344918409204 	0.00868189878118462 	0
4.99999999999999 	0.621986578909806 	4.85722573273506e-17 	0.1850481446754 	0.0387443246189825 	3.39423062685942 	0.00936473725677389 	0
5 	0.634559073180017 	5.20417042793042e-17 	0.184550988426835 	0.0398821133012953 	3.27770598141398 	0.0100344225722361 	0
5 	0.647584137197173 	5.20417042793042e-17 	0.18404835280377 	0.0409806576940333 	3.18159395712042 	0.0106865561101838 	0
4.99999999999999 	0.661077784164252 	4.85722573273506e-17 	0.183543627836845 	0.0420409438229298 	3.1033289116331 	0.0113300062863024 	0
4.99999999999999 	0.675056575041836 	4.85722573273506e-17 	0.183062196174962 	0.0430646070287512 	3.04082497385566 	0.0119879400268203 	0
5 	0.689537636073089 	5.20417042793042e-17 	0.182658865783974 	0.0440566349263878 	2.99215891889554 	0.0127363582179907 	0
5 	0.704538676798298 	6.24500451351651e-17 	0.182361527249353 	0.0450279230308506 	2.95531994513595 	0.0135305192550323 	0
5 	0.720078008569271 	6.24500451351651e-17 	0.182113333618808 	0.0459853859927254 	2.92871251379419 	0.0144521078842521 	0
5 	0.736174563574012 	4.85722573273506e-17 	0.181835432768198 	0.0469205358852544 	2.91126522148361 	0.0154636125356335 	0
5 	0.752847914382304 	4.16333634234434e-17 	0.181490167323012 	0.0478135316749189 	2.90183360002592 	0.0164862073189822 	0
5 	0.770118294023005 	4.5102810375397e-17 	0.181064052725669 	0.0486392974929828 	2.89891821355582 	0.0174544247081817 	0
5 	0.788006616604099 	5.55111512312578e-17 	0.180549096591738 	0.0493720819852387 	2.9006887338476 	0.0183221901990582 	0
5 	0.806534498486793 	5.55111512312578e-17 	0.179938230762319 	0.0499887233742307 	2.90514302701521 	0.0190621168135436 	0
5 	0.825724280025286 	5.55111512312578e-17 	0.179224730442141 	0.0504705384836355 	2.91028936567497 	0.0196615614482629 	0
5 	0.845599047884131 	6.24500451351651e-17 	0.178401823725613 	0.0508039467380066 	2.91428536204036 	0.0201173824780613 	0
5 	0.866182657945528 	6.24500451351651e-17 	0.177462601605361 	0.0509802118736837 	2.91550971478364 	0.0204312409935218 	0
5 	0.880991314719299 	6.59194920871187e-17 	0.176737885940957 	0.0510147846952811 	2.91417001060969 	0.0205742271468421 	0
5 	0.891837376479151 	7.28583859910259e-17 	0.17617612224674 	0.0509823710774274 	2.91154381905834 	0.0206282776075845 	0
5 	0.909579492238144 	7.97972798949331e-17 	0.175211574757061 	0.0508498624809266 	2.90444166473366 	0.0206475666141055 	0
5 	0.932444095076708 	7.97972798949331e-17 	0.173887995022853 	0.0505426282225001 	2.88997876425605 	0.0205529436009252 	0
5 	0.956121046287054 	7.28583859910259e-17 	0.172425470395495 	0.050076254728193 	2.86830766693217 	0.0203222990272634 	0
5 	0.980638399237015 	6.93889390390723e-17 	0.170821085233296 	0.0494550894351317 	2.83865613745373 	0.0199551222207156 	0
5 	1.00602512630618 	6.93889390390723e-17 	0.1690736553013 	0.0486847027747733 	2.80037541619249 	0.0194519482867109 	0
5 	1.03231114630967 	6.93889390390723e-17 	0.167184043465095 	0.0477718534624479 	2.75297132185706 	0.0188156618629856 	0
5 	1.05952735263868 	7.28583859910259e-17 	0.165155456821316 	0.0467246223749039 	2.69615308026512 	0.0180525560854498 	0
5 	1.08770564213827 	7.80625564189563e-17 	0.162993681475486 	0.0455526772644282 	2.62988899971061 	0.0171729945600544 	0
5 	1.11687894474419 	7.45931094670027e-17 	0.160707208716587 	0.0442676114511927 	2.55445599959495 	0.0161916342183513 	0
5 	1.14708125390257 	6.59194920871187e-17 	0.158307220594418 	0.0428832744125078 	2.47047067923428 	0.0151272390786055 	0
5 	1.17834765779779 	6.76542155630955e-17 	0.155807424898287 	0.0414159869026443 	2.37889278471656 	0.01400212844134 	0
5 	1.21071437141629 	6.24500451351651e-17 	0.153223749818113 	0.0398845194486044 	2.28099668587861 	0.012841279888687 	0
5 	1.24421876947604 	5.55111512312578e-17 	0.150573922949062 	0.0383097242565747 	2.17831149044029 	0.0116710933998112 	0
5 	1.27889942025434 	5.63785129692462e-17 	0.14787696803612 	0.0367137559640996 	2.07253426073544 	0.0105178522979414 	0
5 	1.31479612034915 	5.3776427755281e-17 	0.145152657144925 	0.0351188949650898 	1.96542262849215 	0.00940598968994887 	0
5 	1.35194993041236 	5.33427468862868e-17 	0.142420954885369 	0.0335460838595025 	1.85867438611631 	0.0083563552269733 	0
5 	1.3904032118968 	5.45353692760209e-17 	0.13970148031408 	0.0320133809287722 	1.75380700390086 	0.00738474055304391 	0
5 	1.43019966486263 	5.23669649310499e-17 	0.13700928858009 	0.0305352254159744 	1.65209817374765 	0.0065017196737901 	0
5 	1.47138436689259 	4.16333634234434e-17 	0.134358242974093 	0.029121381002609 	1.55451378915689 	0.00571209935467527 	0
5 	1.51400381317015 	3.46944695195361e-17 	0.131774344575874 	0.0277730103350431 	1.46142102868371 	0.00501141289418833 	0
5 	1.55810595777939 	3.81639164714898e-17 	0.129270462767337 	0.0264875624354722 	1.37295818771386 	0.00439292956824162 	0
5 	1.60374025629048 	4.16333634234434e-17 	0.126856700369369 	0.0252583343106194 	1.28904451524252 	0.0038474981806796 	0
5 	1.65095770970041 	3.81639164714898e-17 	0.124540103498023 	0.0240757190935539 	1.20949406985399 	0.00336507685930824 	0
5 	1.69981090980421 	3.12250225675825e-17 	0.122324815099236 	0.0229285497727422 	1.13411285756601 	0.00293557056582572 	0
5 	1.75035408607878 	3.81639164714898e-17 	0.120213567055473 	0.0218055298254291 	1.06278377418149 	0.00254903737487296 	0
5 	1.80264315416783 	4.5102810375397e-17 	0.118210347476424 	0.0206969466699928 	0.995586429500764 	0.00219659522403844 	0
5 	1.85673576606396 	5.20417042793042e-17 	0.116324991213853 	0.0195959628057933 	0.932963098588008 	0.00187497534828989 	0
5 	1.91269136209142 	7.28583859910259e-17 	0.114560226865096 	0.0184942135548009 	0.875683181158675 	0.00158561118197617 	0
5 	1.97057122480134 	8.32667268468867e-17 	0.112942489424645 	0.0174270397867893 	0.826190762416075 	0.00132984075943121 	0
5 	2 	7.97972798949331e-17 	0.112189205597785 	0.016917947604264 	0.804055749928072 	0.00121273317937384 	0
5 	2.02025965173184 	7.97972798949331e-17 	0.111623726603501 	0.0165072970398079 	0.788105520267872 	0.0011277549573787 	0
5 	2.06006301192217 	8.32667268468867e-17 	0.110592774703324 	0.0157409265541124 	0.759756321624422 	0.000975746252400757 	0
5 	2.09845978584128 	8.67361737988404e-17 	0.10971188457001 	0.0150483888531494 	0.736834711577538 	0.0008474069074662 	0
5 	2.13549967996945 	9.0205620750794e-17 	0.108921729851713 	0.0143930867962165 	0.717521997340153 	0.00073046776337322 	0
5 	2.17123064424048 	9.0205620750794e-17 	0.108208507581856 	0.0137738355889508 	0.701560301711585 	0.000624720496547738 	0
5 	2.20569893411515 	9.0205620750794e-17 	0.107563923872012 	0.0131893659432134 	0.688747000630733 	0.000529686416383435 	0
5 	2.23894917046122 	9.0205620750794e-17 	0.10698061920389 	0.0126383569024098 	0.67892814200536 	0.000444705995455566 	0
5 	2.27102439731725 	9.0205620750794e-17 	0.106452043008269 	0.0121194776107011 	0.671994001705703 	0.00036907709112191 	0
5 	2.30196613761521 	9.36750677027476e-17 	0.105972456874108 	0.0116314224366002 	0.667875812793339 	0.000302100817026905 	0
5 	2.33181444693391 	9.71445146547012e-17 	0.105536818612108 	0.0111729387876725 	0.66654349268526 	0.000243121786837963 	0
5 	2.3606079653529 	9.36750677027476e-17 	0.10514067946285 	0.0107428486812355 	0.668004299821577 	0.000191555879655164 	0
5 	2.3883839674739 	9.0205620750794e-17 	0.104780103224192 	0.0103400653891841 	0.672302361497454 	0.000146906773173059 	0
5 	2.41517841067461 	9.0205620750794e-17 	0.104451598351168 	0.0099636062292413 	0.679519000512966 	0.00010877507808448 	0
5 	2.44102598165722 	9.36750677027476e-17 	0.104152060270879 	0.00961260220464855 	0.689773774877699 	7.68632629803749e-05 	0
5 	2.46596014135207 	9.71445146547012e-17 	0.103878722374171 	0.00928630485504287 	0.703226135624331 	5.09785018919914e-05 	0
5 	2.49001316823443 	9.71445146547012e-17 	0.103629114251134 	0.0089840904014943 	0.720077598031876 	3.10347125050014e-05 	0
5 	2.51321620011054 	9.36750677027476e-17 	0.103401025976704 	0.00870546103521729 	0.740574305845555 	1.70543877849791e-05 	0
5 	2.535599274427 	8.67361737988404e-17 	0.103192477481241 	0.00845004300019758 	0.765009843465914 	9.17032767664469e-06 	0
5 	2.55719136715571 	8.32667268468867e-17 	0.103001692210275 	0.0082175809554145 	0.79372811770843 	7.62700978935849e-06 	0
5 	2.57802043030465 	8.32667268468867e-17 	0.102827074404503 	0.00800792798709887 	0.827126092072897 	1.27810678677226e-05 	0
5 	2.59811342810315 	8.32667268468867e-17 	0.102667189428839 	0.00782103060284724 	0.865656119716115 	2.51001666995656e-05 	0
5 	2.61749637190832 	8.32667268468867e-17 	0.102520746656098 	0.00765690811413019 	0.90982759785746 	4.51594878198395e-05 	0
5 	2.63619435387806 	8.32667268468867e-17 	0.102386584474048 	0.00751562604124559 	0.960207671537302 	7.36351045752658e-05 	0
5 	2.65423157945406 	7.97972798949331e-17 	0.102263657039867 	0.00739726358568099 	1.0174207663798 	0.000111293763987271 	0
5 	2.67163139869691 	7.63278329429795e-17 	0.102151022458591 	0.00730187581449857 	1.08214684515712 	0.00015897902646234 	0
5 	2.68841633651388 	7.63278329429795e-17 	0.102047832115269 	0.00722945195165145 	1.1551184716343 	0.000217594323768044 	0
5 	2.7046081218185 	7.97972798949331e-17 	0.10195332094621 	0.00717987197730113 	1.23711702376497 	0.000288084204161398 	0
5 	2.72022771565972 	7.63278329429795e-17 	0.101866798492429 	0.00715286444765263 	1.3289687036036 	0.000371415703751868 	0
5 	2.73529533835694 	6.93889390390723e-17 	0.101787640635709 	0.0071479688814284 	1.43154129946167 	0.000468562239559774 	0
5 	2.74983049567625 	6.93889390390723e-17 	0.101715281970012 	0.00716450604596507 	1.54574290941979 	0.000580492497924524 	0
5 	2.76385200408156 	6.93889390390723e-17 	0.101649208803111 	0.00720155892082729 	1.67252397913437 	0.000708166401615497 	0
5 	2.77737801509343 	6.93889390390723e-17 	0.101588952811011 	0.0072579660481493 	1.81288400913691 	0.000852539414376152 	0
5 	2.79042603878708 	6.93889390390723e-17 	0.101534085378171 	0.00733232756383148 	1.96788415774366 	0.00101457535227668 	0
5 	2.80301296646003 	6.93889390390723e-17 	0.101484212646498 	0.0074230227149649 	2.13866676524657 	0.00119526678149829 	0
5 	2.81515509249872 	6.93889390390723e-17 	0.101438971272475 	0.00752823641036273 	2.32648265526467 	0.00139566127047464 	0
5 	2.82686813547237 	6.93889390390723e-17 	0.101398024927752 	0.00764599157070957 	2.53272705415897 	0.00161689143454945 	0
5 	2.83816725848142 	6.93889390390723e-17 	0.101361061713068 	0.00777418386924712 	2.75898523373895 	0.00186020695351755 	0
5 	2.84906708878691 	6.93889390390723e-17 	0.101327791920062 	0.00791061586882499 	3.00708963864605 	0.00212700761931594 	0
5 	2.85958173674616 	7.28583859910259e-17 	0.101297942335061 	0.00805302843492581 	3.27919140610206 	0.00241887796673785 	0
5 	2.86972481407933 	7.97972798949331e-17 	0.10127124924508 	0.00819912843979674 	3.57785089302724 	0.00273762436634739 	0
5 	2.87950945149043 	8.32667268468867e-17 	0.101247513112033 	0.00834661304074595 	3.90615410384591 	0.00308967559103277 	0
5 	2.88894831566566 	8.32667268468867e-17 	0.101226709922149 	0.00849315873566872 	4.2682206329424 	0.00348279205318939 	0
5 	2.89805362567106 	8.32667268468867e-17 	0.101208823818956 	0.00863637420088051 	4.66975849280406 	0.00392172725352259 	0
5 	2.90683716877067 	7.97972798949331e-17 	0.101193486968073 	0.0087733452510643 	5.11725024027397 	0.00441160992976692 	0
5 	2.91531031568569 	7.63278329429795e-17 	0.101180128631828 	0.00890004423855345 	5.61680957421945 	0.00495156229131441 	0
5 	2.92348403531448 	7.97972798949331e-17 	0.101168402075402 	0.00901159699035319 	6.17476504784782 	0.00553722223498878 	0
5 	2.93136890893229 	8.67361737988404e-17 	0.101158210099418 	0.00910290500442825 	6.79917453265306 	0.00616938839009331 	0
5 	2.93897514388925 	9.0205620750794e-17 	0.101149534497222 	0.0091688484466931 	7.50120377621546 	0.00685315492856076 	0
5 	2.94631258682425 	9.0205620750794e-17 	0.101142367865904 	0.00920418285884425 	8.29654775133372 	0.00759710419652258 	0
5 	2.95339073641193 	8.32667268468867e-17 	0.10113670130897 	0.00920323037973057 	9.20721574366619 	0.00841301148854156 	0
5 	2.96021875565915 	6.93889390390723e-17 	0.101132522494761 	0.00915940294344041 	10.263922346121 	0.00931577798358053 	0
5 	2.96680548376697 	6.59194920871187e-17 	0.101129811583252 	0.00906453728812492 	11.5094755049033 	0.0103230768283409 	0
5 	2.97315944757337 	6.93889390390723e-17 	0.101128532492811 	0.00890796526005686 	13.0040965943713 	0.011453730404139 	0
5 	2.97928887259171 	6.93889390390723e-17 	0.101128619472879 	0.00867521749394777 	14.8338120060654 	0.0127229388109519 	0
5 	2.98520169365902 	6.93889390390723e-17 	0.101129960625476 	0.00834629740080396 	17.1237251386525 	0.0141309699999764 	0
5 	2.99090556520806 	7.28583859910259e-17 	0.101132380513625 	0.00789360949002981 	20.0603323942553 	0.0156369589175298 	0
5 	2.99640787117633 	7.63278329429795e-17 	0.101135633773452 	0.00728031133829941 	23.9324755430154 	0.0171104505482869 	0
5 	3.00171573456492 	7.28583859910259e-17 	0.101139433403203 	0.00646120617959525 	29.2174219951714 	0.0182636825303269 	0
5 	3.00683602665962 	6.93889390390723e-17 	0.10114344740718 	0.00538835620117843 	36.7940890294182 	0.0183520674461317 	0
5 	3.01177537592612 	6.59194920871187e-17 	0.1011472337639 	0.00404967123570301 	48.5542101143129 	0.0160790899417523 	0
5 	3.01654017659085 	6.59194920871187e-17 	0.101150338190724 	0.00257452234604696 	69.5952092982541 	0.0109937298290571 	0
5 	3.02113659691864 	6.93889390390723e-17 	0.101152593245779 	0.00127966456072783 	117.559110214397 	0.00517296274497254 	0
5 	3.02557058719784 	6.59194920871187e-17 	0.101154247045832 	0.000454848408198107 	273.951759347938 	0.00145244252883796 	0
5 	3.02984788744324 	6.24500451351651e-17 	0.101155656093831 	0.000102763966143313 	1216.026555015 	0.000199346255566371 	0
