5 	0.451278172511378 	2.42861286636753e-17 	-0.0131246351872543 	-0.00928989566496258 	2.0207367256408e-15
5 	0.457678879734935 	2.42861286636753e-17 	-0.0301768469711354 	-0.0241158343482934 	-3.02783233201533e-15
5 	0.464311922901196 	3.81639164714898e-17 	-0.0389998407419798 	-0.0325556807175078 	-7.75377180098372e-17
5 	0.471185657695649 	4.5102810375397e-17 	-0.0396627266826387 	-0.0352090795144898 	4.6129621624434e-18
5 	0.478308734771284 	4.5102810375397e-17 	-0.0356422129874434 	-0.0346217186919128 	6.10058707826934e-20
5 	0.485690109776152 	4.16333634234434e-17 	-0.030197134286949 	-0.0331214523415479 	-1.62234043552978e-19
5 	0.493339053695877 	3.81639164714898e-17 	-0.024416485073848 	-0.031549187100212 	5.10662820241212e-20
5 	0.501265163519363 	4.16333634234434e-17 	-0.0185279911364766 	-0.0300806551327517 	8.25430422801544e-19
5 	0.509478373236077 	4.5102810375397e-17 	-0.012558632724062 	-0.0287249071200835 	-6.59663752340609e-19
5 	0.517988965173338 	4.5102810375397e-17 	-0.00649192354997576 	-0.0274638172257605 	-7.36368379192107e-20
5 	0.526807581682222 	4.85722573273506e-17 	-0.000302960396609769 	-0.0262796774911537 	-3.58889505236494e-19
5 	0.535945237180767 	4.85722573273506e-17 	0.00603310410785857 	-0.0251584140314831 	7.70164305676966e-19
5 	0.54541333056328 	3.81639164714898e-17 	0.0125394592565063 	-0.0240890833819688 	-2.55692402444449e-19
5 	0.555223657984643 	3.81639164714898e-17 	0.0192378046655958 	-0.0230631684864521 	2.12277384391695e-19
4.99999999999999 	0.565388426028621 	4.5102810375397e-17 	0.0261487834515894 	-0.0220739862147575 	-2.23744283342743e-19
5 	0.575920265269289 	4.85722573273506e-17 	0.0332924019288749 	-0.0211162494409449 	-1.45792791623025e-20
5 	0.586832244234754 	4.16333634234434e-17 	0.0406884190356189 	-0.0201857257708104 	-1.7771348792911e-20
5 	0.598137883782479 	3.81639164714898e-17 	0.0483566536571331 	-0.0192789786789251 	1.51209707892359e-20
5 	0.609851171895618 	4.5102810375397e-17 	0.0563172313904064 	-0.0183931583014406 	-1.24614250986325e-17
4.99999999999999 	0.621986578909806 	4.85722573273506e-17 	0.0645907841881661 	-0.0175258326836699 	-7.0454072607718e-17
5 	0.634559073180017 	5.20417042793042e-17 	0.0731987129928504 	-0.0166751042997709 	6.44107298771262e-17
5 	0.647584137197173 	5.20417042793042e-17 	0.0821636574826599 	-0.0158402588152938 	1.41366898556081e-17
4.99999999999999 	0.661077784164252 	4.85722573273506e-17 	0.0915105019881021 	-0.0150203599799814 	5.21801129472817e-20
4.99999999999999 	0.675056575041836 	4.85722573273506e-17 	0.101281885197734 	-0.0142059287429344 	1.83014002016871e-20
5 	0.689537636073089 	5.20417042793042e-17 	0.111582925454213 	-0.0133633495363123 	-1.86029034689165e-20
5 	0.704538676798298 	6.24500451351651e-17 	0.122656533107439 	-0.0124358868210355 	-2.20230808425886e-20
5 	0.720078008569271 	6.24500451351651e-17 	0.13479607820788 	-0.0113651174946449 	-4.7476427139483e-20
5 	0.736174563574012 	4.85722573273506e-17 	0.148200216539512 	-0.010108088139178 	2.03840725553612e-21
5 	0.752847914382304 	4.16333634234434e-17 	0.162972646620204 	-0.00865409124013983 	5.45112422295796e-20
5 	0.770118294023005 	4.5102810375397e-17 	0.179148008309221 	-0.00701123729781305 	6.54481916960143e-20
5 	0.788006616604099 	5.55111512312578e-17 	0.196712908031247 	-0.00519699549870797 	-1.27488230201639e-19
5 	0.806534498486793 	5.55111512312578e-17 	0.215626188666129 	-0.00323452399216836 	4.06841497517901e-20
5 	0.825724280025286 	5.55111512312578e-17 	0.235835656021649 	-0.00115021993125092 	7.83419683782303e-20
5 	0.845599047884131 	6.24500451351651e-17 	0.257288792117678 	0.00102815061914687 	-4.07715464437241e-20
5 	0.866182657945528 	6.24500451351651e-17 	0.279937525780091 	0.00327250342653765 	-4.32971512371785e-20
5 	0.880991314719299 	6.59194920871187e-17 	0.296427106212126 	0.00486632184976226 	1.83045753607549e-20
5 	0.891837376479151 	7.28583859910259e-17 	0.308604090466601 	0.00601417641925443 	6.48800000998556e-20
5 	0.909579492238144 	7.97972798949331e-17 	0.32862853729924 	0.00785002843111387 	8.69901197752637e-20
5 	0.932444095076708 	7.97972798949331e-17 	0.354585397147652 	0.0101291810618886 	3.21457599828761e-20
5 	0.956121046287054 	7.28583859910259e-17 	0.381551973975278 	0.0123658486263066 	-1.7491078511943e-19
5 	0.980638399237015 	6.93889390390723e-17 	0.409458803420681 	0.0145341256884997 	-1.1532473135131e-19
5 	1.00602512630618 	6.93889390390723e-17 	0.43821767397447 	0.0166091343557884 	-6.53455511864552e-20
5 	1.03231114630967 	6.93889390390723e-17 	0.467718925787518 	0.0185673526659096 	1.90001897927063e-19
5 	1.05952735263868 	7.28583859910259e-17 	0.497830481827538 	0.0203869636645364 	3.18186166327852e-21
5 	1.08770564213827 	7.80625564189563e-17 	0.52839856487187 	0.0220481882899375 	-3.44829240152108e-20
5 	1.11687894474419 	7.45931094670027e-17 	0.559249941559121 	0.0235335726638342 	1.89218888886914e-20
5 	1.14708125390257 	6.59194920871187e-17 	0.590195561446769 	0.0248282188273507 	1.38120759615685e-19
5 	1.17834765779779 	6.76542155630955e-17 	0.62103556670923 	0.0259199723474454 	9.25611346898842e-21
5 	1.21071437141629 	6.24500451351651e-17 	0.651565723304102 	0.026799598945836 	-1.20096495416031e-19
5 	1.24421876947604 	5.55111512312578e-17 	0.681585260611491 	0.0274609837588746 	-1.3272431392317e-20
5 	1.27889942025434 	5.63785129692462e-17 	0.710905857270929 	0.027901367177799 	-6.93099523829258e-21
5 	1.31479612034915 	5.3776427755281e-17 	0.73936110758783 	0.0281215977059531 	-7.79641865937925e-21
5 	1.35194993041236 	5.33427468862868e-17 	0.766815343957068 	0.0281263498528027 	-7.75377034943639e-21
5 	1.3904032118968 	5.45353692760209e-17 	0.793170330088414 	0.0279242345796666 	-1.52320395239604e-20
5 	1.43019966486263 	5.23669649310499e-17 	0.81835977097201 	0.0275249555611447 	-6.28924827407251e-23
5 	1.47138436689259 	4.16333634234434e-17 	0.842349897479147 	0.0269404492300104 	1.13733213190116e-21
5 	1.51400381317015 	3.46944695195361e-17 	0.865177126457954 	0.0261982003800753 	2.64019993433515e-21
5 	1.55810595777939 	3.81639164714898e-17 	0.886876451834441 	0.0253197760126788 	-1.2825647029278e-20
5 	1.60374025629048 	4.16333634234434e-17 	0.907490897250651 	0.0243275542429987 	-6.04218790074732e-21
5 	1.65095770970041 	3.81639164714898e-17 	0.927061184201159 	0.0232432660750594 	-2.96297234643914e-20
5 	1.69981090980421 	3.12250225675825e-17 	0.945617034460294 	0.0220865086176495 	4.81840589338075e-20
5 	1.75035408607878 	3.81639164714898e-17 	0.963166798151764 	0.0208744708301633 	-1.87884436403631e-20
5 	1.80264315416783 	4.5102810375397e-17 	0.979683076759266 	0.0196247898184525 	1.71773400649079e-21
5 	1.85673576606396 	5.20417042793042e-17 	0.995099616606208 	0.0183656352690204 	-7.59259728776282e-21
5 	1.91269136209142 	7.28583859910259e-17 	1.00938348487901 	0.0171326778266713 	3.68972631157035e-21
5 	1.97057122480134 	8.32667268468867e-17 	1.0221933186071 	0.0159823687987507 	2.44962073993453e-21
5 	2 	7.97972798949331e-17 	1.02809197427818 	0.0154446264411024 	2.24553775510263e-21
5 	2.02025965173184 	7.97972798949331e-17 	1.03259996436427 	0.0150116865112403 	1.1227688775532e-21
5 	2.06006301192217 	8.32667268468867e-17 	1.04082814495642 	0.0142203066760422 	0
5 	2.09845978584128 	8.67361737988404e-17 	1.04791774102941 	0.0135290921938189 	0
5 	2.13549967996945 	9.0205620750794e-17 	1.05433128118135 	0.0128896716029197 	0
5 	2.17123064424048 	9.0205620750794e-17 	1.06011768059951 	0.0122992904151398 	0
5 	2.20569893411515 	9.0205620750794e-17 	1.06532169623861 	0.0117522298909948 	0
5 	2.23894917046122 	9.0205620750794e-17 	1.0699839648848 	0.0112438535770512 	0
5 	2.27102439731725 	9.0205620750794e-17 	1.07414094270259 	0.0107701596605303 	0
5 	2.30196613761521 	9.36750677027476e-17 	1.07782487885123 	0.010327655421711 	0
5 	2.33181444693391 	9.71445146547012e-17 	1.0810638623502 	0.00991329206922759 	0
5 	2.3606079653529 	9.36750677027476e-17 	1.08388193129111 	0.00952439346671583 	0
5 	2.3883839674739 	9.0205620750794e-17 	1.08629921968054 	0.00915859288923781 	0
5 	2.41517841067461 	9.0205620750794e-17 	1.08833211913371 	0.00881378305471881 	0
5 	2.44102598165722 	9.36750677027476e-17 	1.08999343971167 	0.00848807720596819 	0
5 	2.46596014135207 	9.71445146547012e-17 	1.09129256151318 	0.00817977860329886 	0
5 	2.49001316823443 	9.71445146547012e-17 	1.09223557477409 	0.00788735627609128 	0
5 	2.51321620011054 	9.36750677027476e-17 	1.09282541104817 	0.00760942537753776 	0
5 	2.535599274427 	8.67361737988404e-17 	1.09306197175801 	0.0073447309530349 	0
5 	2.55719136715571 	8.32667268468867e-17 	1.09294226321809 	0.00709213431050789 	0
5 	2.57802043030465 	8.32667268468867e-17 	1.09246054920585 	0.00685060145228632 	0
5 	2.59811342810315 	8.32667268468867e-17 	1.09160853316621 	0.00661919320683967 	0
5 	2.61749637190832 	8.32667268468867e-17 	1.09037558188534 	0.00639705680493927 	0
5 	2.63619435387806 	8.32667268468867e-17 	1.08874900056298 	0.00618341869655878 	0
5 	2.65423157945406 	7.97972798949331e-17 	1.08671436526425 	0.00597757841675041 	0
5 	2.67163139869691 	7.63278329429795e-17 	1.08425591255048 	0.00577890329344396 	0
5 	2.68841633651388 	7.63278329429795e-17 	1.08135697787718 	0.00558682375966391 	-1.92674613160237e-16
5 	2.7046081218185 	7.97972798949331e-17 	1.07800046488094 	0.00540082899959756 	-1.84326665566027e-16
5 	2.72022771565972 	7.63278329429795e-17 	1.07416931835154 	0.00522046263530107 	2.09289645679471e-16
5 	2.73529533835694 	6.93889390390723e-17 	1.06984696635178 	0.00504531816075092 	-1.69148276578841e-17
5 	2.74983049567625 	6.93889390390723e-17 	1.06501769349938 	0.0048750338613043 	-2.08858360273423e-16
5 	2.76385200408156 	6.93889390390723e-17 	1.05966690921613 	0.00470928702244353 	2.35779163132183e-16
5 	2.77737801509343 	6.93889390390723e-17 	1.05378128204334 	0.00454778732793302 	2.2678099766253e-16
5 	2.79042603878708 	6.93889390390723e-17 	1.04734872281787 	0.00439026946339429 	0
5 	2.80301296646003 	6.93889390390723e-17 	1.04035821330881 	0.00423648505546668 	0
5 	2.81515509249872 	6.93889390390723e-17 	1.03279948994246 	0.00408619415788429 	0
5 	2.82686813547237 	6.93889390390723e-17 	1.02466260181017 	0.00393915660647703 	0
5 	2.83816725848142 	6.93889390390723e-17 	1.01593736646143 	0.00379512404566965 	0
5 	2.84906708878691 	6.93889390390723e-17 	1.00661274542812 	0.00365383349664677 	0
5 	2.85958173674616 	7.28583859910259e-17 	0.996676154345187 	0.00351499695985435 	0
5 	2.86972481407933 	7.97972798949331e-17 	0.986112710940726 	0.0033782683450314 	0
5 	2.87950945149043 	8.32667268468867e-17 	0.974904411134529 	0.00324329454014959 	0
5 	2.88894831566566 	8.32667268468867e-17 	0.963014096810381 	0.0031098469075801 	0
5 	2.89805362567106 	8.32667268468867e-17 	0.950363105565865 	0.00297770016596101 	0
5 	2.90683716877067 	7.97972798949331e-17 	0.936856387314918 	0.00284657065800316 	0
5 	2.91531031568569 	7.63278329429795e-17 	0.922428692525025 	0.00271611995423679 	0
5 	2.92348403531448 	7.97972798949331e-17 	0.90704332629615 	0.00258566211347796 	0
5 	2.93136890893229 	8.67361737988404e-17 	0.890665923060736 	0.00245422232294584 	0
5 	2.93897514388925 	9.0205620750794e-17 	0.873247102673087 	0.00232084704237847 	0
5 	2.94631258682425 	9.0205620750794e-17 	0.854710829251494 	0.00218468519579798 	0
5 	2.95339073641193 	8.32667268468867e-17 	0.834944576603199 	0.00204501184694927 	0
5 	2.96021875565915 	6.93889390390723e-17 	0.81378837651132 	0.0019012593230443 	0
5 	2.96680548376697 	6.59194920871187e-17 	0.791020443607873 	0.00175306089327084 	0
5 	2.97315944757337 	6.93889390390723e-17 	0.766337360920432 	0.00160030443634559 	0
5 	2.97928887259171 	6.93889390390723e-17 	0.739326835785209 	0.00144319495533925 	0
5 	2.98520169365902 	6.93889390390723e-17 	0.70943100972279 	0.0012823263780362 	0
5 	2.99090556520806 	7.28583859910259e-17 	0.675898134945681 	0.00111874757985698 	-9.02530237049399e-16
5 	2.99640787117633 	7.63278329429795e-17 	0.637724310513621 	0.000954032479636619 	-7.73526497609206e-16
5 	3.00171573456492 	7.28583859910259e-17 	0.593590396940365 	0.000790516734770373 	1.16049167640634e-15
5 	3.00683602665962 	6.93889390390723e-17 	0.541731969324397 	0.0006312155498832 	1.03148793696899e-15
5 	3.01177537592612 	6.59194920871187e-17 	0.479912814788487 	0.000479293755526636 	0
5 	3.01654017659085 	6.59194920871187e-17 	0.406411142139643 	0.000338559251235174 	0
5 	3.02113659691864 	6.93889390390723e-17 	0.322141904914713 	0.000214844866013932 	0
5 	3.02557058719784 	6.59194920871187e-17 	0.231247502270389 	0.000115634323764979 	0
5 	3.02984788744324 	6.24500451351651e-17 	0.138456710174714 	4.69608031018485e-05 	0
