6 	0.00391112967796265 	0 	-0.0149908129898164 	-5.00603197518319e-05 	-2.20865689421509e-17
6 	0.0118766651674913 	-3.46944695195361e-18 	-0.0368601290470487 	-0.000187892793719944 	-9.92432423695639e-17
6 	0.020134001548576 	-6.93889390390723e-18 	-0.0483555884848136 	-0.000516629387153226 	-7.79138283950687e-17
6 	0.0286938283423949 	-6.93889390390723e-18 	-0.0500429328944208 	-0.00101160972532565 	1.02281267028421e-21
6 	0.0375672266585909 	-1.04083408558608e-17 	-0.0468123042359655 	-0.00157233584456027 	4.42512562973489e-21
6 	0.0467656835403032 	-1.73472347597681e-17 	-0.042361296144426 	-0.00216914863050235 	-3.136341700014e-21
6 	0.0563011068347005 	-1.73472347597681e-17 	-0.0377966182431194 	-0.00280664697805485 	-5.28877010759391e-22
6 	0.0661858406082647 	-1.38777878078145e-17 	-0.0332994622178931 	-0.00348277596895709 	-1.25566732963384e-21
6 	0.0764326811267816 	-2.08166817117217e-17 	-0.0288573654866155 	-0.00419310103423179 	-9.21577712425218e-22
6 	0.0870548934207257 	-2.42861286636753e-17 	-0.0244286142283174 	-0.00493512230191705 	2.63801592429785e-24
6 	0.0980662284574838 	-2.08166817117217e-17 	-0.0199722301024992 	-0.00570789791308 	0
6 	0.109480940942647 	-2.08166817117217e-17 	-0.0154520437879261 	-0.00651115843606362 	0
6 	0.121313807773416 	-2.08166817117217e-17 	-0.0108359935413511 	-0.00734491527024966 	-5.29264323183835e-25
6 	0.13358014716801 	-1.73472347597681e-17 	-0.00609480205426498 	-0.0082093266803044 	1.0807331231929e-21
6 	0.146295838495838 	-1.04083408558608e-17 	-0.00120081727760237 	-0.00910463265294322 	1.14907693143564e-21
6 	0.159477342834115 	-1.04083408558608e-17 	0.00387289595485096 	-0.0100311092823754 	9.1946726962189e-22
6 	0.173141724277517 	-1.38777878078145e-17 	0.00915325296420857 	-0.0109890314162246 	-1.76951296216033e-21
6 	0.18730667202848 	-1.38777878078145e-17 	0.0146677246008995 	-0.0119786443146136 	-1.50699776004614e-22
6 	0.201990523296728 	-1.38777878078145e-17 	0.0204448219524431 	-0.0130001403860621 	5.22256638560896e-23
6 	0.217212287037676 	-1.38777878078145e-17 	0.0265145038881225 	-0.0140536336541013 	7.77812253485892e-22
6 	0.232991668560441 	-1.04083408558608e-17 	0.0329085397356633 	-0.0151391331566357 	7.4733122210334e-22
6 	0.249349095037321 	0 	0.0396608440085839 	-0.0162565140067418 	1.52295738217469e-21
6 	0.266305741947753 	3.46944695195361e-18 	0.0468077918266352 	-0.0174054853390418 	5.28868443265586e-22
6 	0.283883560490999 	-3.46944695195361e-18 	0.0543885193678445 	-0.0185855542836292 	-9.35474418635981e-23
6 	0.30210530600303 	-6.93889390390723e-18 	0.0624452102076507 	-0.0197959850902627 	1.42667402656279e-21
6 	0.320994567414414 	-1.04083408558608e-17 	0.0710233652035916 	-0.0210357524931674 	-1.42844059641392e-17
6 	0.340575797787321 	-1.04083408558608e-17 	0.0801720503716564 	-0.0223034883199844 	-1.47437731766564e-17
6 	0.360874345971201 	-3.46944695195361e-18 	0.0899441137188927 	-0.0235974202389915 	1.45725914123605e-17
6 	0.38191648941809 	-6.93889390390723e-18 	0.100396358023552 	-0.0249153017486843 	1.50545377843058e-17
6 	0.403729468200046 	-1.04083408558608e-17 	0.11158965188256 	-0.0262543332971501 	1.54879336093014e-17
6 	0.426341520272733 	-1.04083408558608e-17 	0.123588955592807 	-0.0276110718612403 	1.10409675990771e-16
6 	0.449781918030829 	-2.08166817117217e-17 	0.136463230459473 	-0.0289813095450484 	-1.1128911013032e-16
6 	0.474081006202548 	-2.08166817117217e-17 	0.15028518912093 	-0.0303599017537443 	-1.7068081694975e-17
6 	0.499270241132364 	-1.38777878078145e-17 	0.165130839533838 	-0.0317407433567181 	7.13921241172452e-22
6 	0.525382231502763 	-1.38777878078145e-17 	0.18107880133123 	-0.0331175039286442 	2.47580953265614e-21
6 	0.552450780547767 	-1.04083408558608e-17 	0.198209830594105 	-0.0344832109686238 	2.03853444671199e-21
6 	0.58051092981285 	-3.46944695195361e-18 	0.216649908981914 	-0.0358217675370227 	-1.09368780393683e-23
6 	0.609599004517911 	3.46944695195361e-18 	0.2367424974733 	-0.0371082203550682 	-2.12157645596617e-21
6 	0.639752660582033 	6.93889390390723e-18 	0.258943745019817 	-0.0383190824073858 	-9.38249345797801e-22
6 	0.671010933370887 	1.04083408558608e-17 	0.283470632255119 	-0.0394182741109487 	-4.37879281686133e-22
6 	0.703414288229901 	1.04083408558608e-17 	0.310247733926574 	-0.040386700200924 	-4.54755084350182e-22
6 	0.737004672868606 	3.46944695195361e-18 	0.339049494014733 	-0.0412186078271869 	2.32506526024699e-21
6 	0.771825571663976 	0 	0.369630338460822 	-0.0419081222367521 	1.19207893979733e-21
6 	0.807922061953054 	-3.46944695195361e-18 	0.401775937154242 	-0.0424444354110031 	-3.94675735372145e-21
6 	0.845340872387742 	-1.04083408558608e-17 	0.435289481578983 	-0.0428131583000107 	-5.01538233173374e-21
6 	0.884130443427309 	-1.38777878078145e-17 	0.469949426484757 	-0.0429997988607524 	-1.32039637956949e-21
6 	0.924340990046898 	-1.38777878078145e-17 	0.50547189209494 	-0.0429933665469264 	-3.59493321756995e-21
6 	0.966024566743242 	-6.93889390390723e-18 	0.541495660388307 	-0.0427890855138442 	-2.51683322779988e-23
6 	1.00923513492173 	-6.93889390390723e-18 	0.57759289685426 	-0.0423898053750018 	1.03738604550981e-21
6 	1.05402863275205 	-3.46944695195361e-18 	0.613299398497524 	-0.0418061717570852 	6.89780747806559e-22
6 	1.10046304758287 	6.93889390390723e-18 	0.648154163549441 	-0.041055943594948 	-3.07117104184885e-21
6 	1.14068170193516 	1.21430643318376e-17 	0.676431481418039 	-0.0403174890948943 	-3.20785592045689e-21
6 	1.16518232990006 	1.56125112837913e-17 	0.692862197538796 	-0.0398386069709438 	1.19974306667115e-21
6 	1.19849727668994 	2.08166817117217e-17 	0.71374437999407 	-0.0391542740853493 	3.50507307661738e-21
6 	1.25022400101563 	2.77555756156289e-17 	0.743943083938634 	-0.0380559635505554 	-2.56467340915959e-21
6 	1.30384562673185 	3.12250225675825e-17 	0.772256853734542 	-0.0368904048940622 	-2.67116018940515e-21
6 	1.35943156962565 	4.5102810375397e-17 	0.798733299744228 	-0.0356746259230496 	0
6 	1.41705378838763 	5.20417042793042e-17 	0.823490576421439 	-0.034419649037011 	0
6 	1.47678687776592 	5.20417042793042e-17 	0.846668686853001 	-0.0331318792258474 	1.91770662532054e-21
6 	1.53870816513278 	5.55111512312578e-17 	0.868403433180876 	-0.0318111851507181 	8.00343384091487e-21
6 	1.60289781058851 	5.55111512312578e-17 	0.888819438126131 	-0.0304461546063493 	1.74142095664012e-21
6 	1.66943891073267 	5.55111512312578e-17 	0.908023130121691 	-0.029020372653612 	1.03070401296747e-21
6 	1.73841760623657 	4.85722573273506e-17 	0.926058399658205 	-0.0275308674900595 	-1.09705050784735e-20
6 	1.8099231933566 	4.5102810375397e-17 	0.942926599700139 	-0.0259862047596 	-2.17793921811467e-20
6 	1.88404823953249 	4.68375338513738e-17 	0.958652014395129 	-0.0243959437390573 	-6.42486694442087e-21
6 	1.96088870322038 	5.20417042793042e-17 	0.972846900265215 	-0.0228158140314508 	-2.21213425070754e-20
6 	2.02025965173185 	5.89805981832114e-17 	0.983016751660821 	-0.0215529332504338 	-3.52744632721725e-21
6 	2.06006301192217 	5.89805981832114e-17 	0.989684608377652 	-0.0206698881885972 	0
6 	2.09845978584128 	5.89805981832114e-17 	0.995394519889291 	-0.0198610713413889 	0
6 	2.13549967996946 	5.89805981832114e-17 	1.00054281319086 	-0.0190816964667085 	0
6 	2.17123064424048 	5.89805981832114e-17 	1.00517053607374 	-0.0183312054581843 	0
6 	2.20569893411516 	5.89805981832114e-17 	1.0093131897099 	-0.017608459590876 	0
6 	2.23894917046123 	6.24500451351651e-17 	1.01300144441191 	-0.016912305945771 	0
6 	2.27102439731726 	6.41847686111419e-17 	1.0162616597495 	-0.0162416754825505 	0
6 	2.30196613761522 	6.41847686111419e-17 	1.01911627657542 	-0.0155955450617944 	0
6 	2.33181444693392 	6.24500451351651e-17 	1.02158411983143 	-0.0149729220103013 	0
6 	2.3606079653529 	5.89805981832114e-17 	1.02368063643404 	-0.0143728395098427 	0
6 	2.38838396747391 	5.89805981832114e-17 	1.02541808447415 	-0.0137943529326168 	0
6 	2.41517841067461 	5.89805981832114e-17 	1.0268056850456 	-0.0132365365193501 	0
6 	2.44102598165722 	6.07153216591882e-17 	1.02784974509712 	-0.0126984805878344 	0
6 	2.46596014135208 	6.24500451351651e-17 	1.02855375811092 	-0.012179289106091 	0
6 	2.49001316823444 	6.24500451351651e-17 	1.02891848867572 	-0.0116780774734028 	0
6 	2.51321620011054 	6.24500451351651e-17 	1.02894204682705 	-0.0111939704412292 	0
6 	2.535599274427 	6.24500451351651e-17 	1.02861995815187 	-0.0107261001717847 	0
6 	2.55719136715571 	6.24500451351651e-17 	1.02794523592499 	-0.0102736044877947 	0
6 	2.57802043030466 	6.24500451351651e-17 	1.0269084617999 	-0.00983562542307919 	0
6 	2.59811342810315 	6.41847686111419e-17 	1.02549788166397 	-0.00941130824105921 	0
6 	2.61749637190832 	6.41847686111419e-17 	1.02369952303138 	-0.00899980114464779 	0
6 	2.63619435387806 	6.41847686111419e-17 	1.02149733965478 	-0.00860025595136475 	0
6 	2.65423157945406 	6.07153216591882e-17 	1.01887338779316 	-0.00821183004416343 	0
6 	2.67163139869691 	5.3776427755281e-17 	1.01580803676235 	-0.00783368992112991 	0
6 	2.68841633651388 	5.20417042793042e-17 	1.01228021409729 	-0.00746501664438685 	0
6 	2.70460812181851 	5.20417042793042e-17 	1.00826768306235 	-0.0071050134194888 	0
6 	2.72022771565972 	5.03069808033274e-17 	1.00374734762809 	-0.00675291541466169 	0
6 	2.73529533835695 	4.85722573273506e-17 	0.998695577672468 	-0.00640800175630154 	5.48905490366541e-16
6 	2.74983049567626 	4.85722573273506e-17 	0.993088545264889 	-0.00606960942447204 	2.85262085427935e-15
6 	2.76385200408157 	5.03069808033274e-17 	0.986902561491179 	-0.0057371485269012 	-3.01253994253411e-15
6 	2.77737801509344 	4.85722573273506e-17 	0.98011440225233 	-0.00541011817818966 	-5.70928806917575e-16
6 	2.79042603878708 	4.5102810375397e-17 	0.972701610680109 	-0.00508812226190981 	0
6 	2.80301296646003 	4.5102810375397e-17 	0.96464276349334 	-0.00477088534992094 	0
6 	2.81515509249873 	4.68375338513738e-17 	0.955917689908066 	-0.00445826840879028 	0
6 	2.82686813547238 	5.03069808033274e-17 	0.946507636591921 	-0.00415027111289435 	0
6 	2.83816725848143 	5.20417042793042e-17 	0.936395380018518 	-0.00384700358234573 	0
6 	2.84906708878692 	5.20417042793042e-17 	0.925564788164654 	-0.00354881977511977 	0
6 	2.85958173674617 	5.20417042793042e-17 	0.913981445915447 	-0.00325630974120031 	0
6 	2.86972481407933 	5.03069808033274e-17 	0.901513521012867 	-0.00296862225511327 	0
6 	2.87950945149043 	4.33680868994202e-17 	0.888004837182564 	-0.00268441084288696 	0
6 	2.88894831566567 	3.81639164714898e-17 	0.873415590779731 	-0.00240489772184443 	0
6 	2.89805362567107 	3.81639164714898e-17 	0.857778792770279 	-0.00213183956726775 	0
6 	2.90683716877067 	3.81639164714898e-17 	0.84115204291552 	-0.00186738031761314 	0
6 	2.9153103156857 	3.81639164714898e-17 	0.823592008059029 	-0.00161383656085588 	0
6 	2.92348403531449 	3.64291929955129e-17 	0.805142137738815 	-0.00137340787045257 	0
6 	2.9313689089323 	3.81639164714898e-17 	0.785826643289165 	-0.00114803208625133 	0
6 	2.93897514388925 	4.16333634234434e-17 	0.765646492159799 	-0.000939347179322501 	0
6 	2.94631258682425 	4.16333634234434e-17 	0.744575038602455 	-0.000748687837495281 	0
6 	2.95339073641193 	4.16333634234434e-17 	0.722551956354263 	-0.0005770871054189 	0
6 	2.96021875565916 	4.16333634234434e-17 	0.699474621871793 	-0.000425278150084145 	0
6 	2.96680548376697 	4.16333634234434e-17 	0.675186333227589 	-0.000293696055269651 	0
6 	2.97315944757337 	4.16333634234434e-17 	0.649460560623276 	-0.000182477089818819 	0
6 	2.97928887259171 	3.81639164714898e-17 	0.621979730789987 	-9.145456948246e-05 	0
6 	2.98520169365903 	3.64291929955129e-17 	0.592306911081063 	-2.01602677840034e-05 	0
6 	2.99090556520807 	4.16333634234434e-17 	0.559848628353169 	3.21696892879348e-05 	0
6 	2.99640787117633 	4.5102810375397e-17 	0.52380353388111 	6.67085752415614e-05 	0
6 	3.00171573456492 	4.33680868994202e-17 	0.483060954229693 	8.5500446199392e-05 	0
6 	3.00683602665963 	4.16333634234434e-17 	0.436007584524201 	9.08783320275773e-05 	0
6 	3.01177537592613 	4.16333634234434e-17 	0.380794902459264 	8.56230726978688e-05 	0
6 	3.01654017659085 	4.16333634234434e-17 	0.316632594852458 	7.19856458886041e-05 	0
6 	3.02113659691864 	3.81639164714898e-17 	0.245587327245702 	5.26559641050995e-05 	0
6 	3.02557058719784 	3.46944695195361e-17 	0.172415945369569 	3.16503169971497e-05 	0
6 	3.02984788744324 	3.46944695195361e-17 	0.101122992625892 	1.3688105388539e-05 	0
