/*--------------------------------*- C++ -*----------------------------------*\
  =========                 |
  \\      /  F ield         | OpenFOAM: The Open Source CFD Toolbox
   \\    /   O peration     | Website:  https://openfoam.org
    \\  /    A nd           | Version:  7
     \\/     M anipulation  |
\*---------------------------------------------------------------------------*/
FoamFile
{
    version     2.0;
    format      ascii;
    class       volScalarField;
    location    "20000";
    object      Dk;
}
// * * * * * * * * * * * * * * * * * * * * * * * * * * * * * * * * * * * * * //

dimensions      [0 2 -3 0 0 0 0];

internalField   nonuniform List<scalar> 
15600
(
0.00338786137732566
0.00258530148576035
0.00125988058742448
0.000466653215503384
0.000112667064541411
9.13482017735772e-05
7.41535992505675e-05
3.13632033161943e-05
1.10229444417965e-05
4.50635160917692e-06
2.55731163776137e-06
2.01457621736347e-06
1.91691038562923e-06
2.00214833238605e-06
2.18483365509133e-06
2.45721710210859e-06
2.83024688508116e-06
3.30497012177929e-06
3.88745588728794e-06
4.58399468119787e-06
5.4091137477161e-06
6.3099526626372e-06
7.18303786275262e-06
7.96021241646121e-06
8.52419990046084e-06
8.73392094950648e-06
8.45563316518255e-06
7.61962173962528e-06
6.32817912947589e-06
4.79185788709807e-06
3.2996569552653e-06
2.13721001287329e-06
1.40664169270524e-06
1.0640633315279e-06
1.00673769652482e-06
1.20953357166313e-06
1.57432766803788e-06
2.08190812583412e-06
2.7485768024184e-06
3.64075696078721e-06
4.82503867289876e-06
6.36626505568993e-06
8.32535476756212e-06
1.0758722409178e-05
1.37076713227652e-05
1.71904596403929e-05
2.12018803514993e-05
2.57160980849637e-05
3.06918979260652e-05
3.60795106107858e-05
4.18273738787025e-05
4.78877733732349e-05
5.42208591877765e-05
6.07970836778503e-05
6.75983838078011e-05
7.4618532229613e-05
8.18630420576473e-05
8.93489196294043e-05
9.71044654004975e-05
0.000105169243306144
0.000113594290566211
0.000122442608219513
0.000131789966046824
0.000141726058061949
0.000152356063355248
0.000163802692894647
0.000176208843298469
0.000189741034626042
0.000204593888260543
0.000220996009805647
0.000239217812790647
0.000259582079179346
0.000282478495952206
0.000308384164698463
0.000337893632216136
0.000371765540117143
0.000410999856498756
0.00045697407226522
0.000511711298392964
0.000578476732605187
0.000663225107417095
0.000780067044045402
0.000929766170699166
0.00110357092268391
0.00128780772601629
0.00119045889668767
0.00053441510909884
0.000298798444237255
0.00021371330301097
0.00018358793326167
0.000189043864664142
0.000213829582164634
0.000253931874299214
0.000311336475782517
0.000387650034181145
0.000482990209545622
0.000597755508647658
0.00073316460344467
0.00089221222902711
0.00107832482305866
0.00128414968528327
0.0014887815007436
0.00168525124272296
0.00187310864692973
0.0020543194927918
0.00223338466660392
0.00242100515700494
0.0026350843429912
0.00294533203147834
0.00341642862971526
0.00413673727623459
0.0052837868330082
0.00710272901742828
0.0106135291445741
0.0174379651291245
0.030046732372402
0.0277491717057385
0.0136454912294538
0.00683646457049833
0.0042131816168145
0.0184314075481818
0.0141779214376929
0.00709276626510944
0.00270557476487809
0.000695921077801727
0.000507773866454185
0.000419589060353867
0.000188232623616868
6.81055656063593e-05
2.73054540045852e-05
1.48275254182889e-05
1.12789107290533e-05
1.0551380717184e-05
1.0934716572738e-05
1.18796302640085e-05
1.33149039298199e-05
1.52971526516991e-05
1.78328967546284e-05
2.09534214362082e-05
2.46890332010689e-05
2.91288086039054e-05
3.40303772414207e-05
3.88322527603766e-05
4.31650369207616e-05
4.64154892112693e-05
4.78267598219497e-05
4.66568808414011e-05
4.24399629530808e-05
3.56161153033879e-05
2.7263050218916e-05
1.89402437199614e-05
1.22940427328503e-05
8.02573081750743e-06
5.99637297832563e-06
5.59420064033247e-06
6.65594929031549e-06
8.650361098725e-06
1.14401197032823e-05
1.51066006150052e-05
2.00165726670153e-05
2.65374304607587e-05
3.50273870666662e-05
4.58237411110459e-05
5.92338900923948e-05
7.54911827334408e-05
9.46915198614545e-05
0.000116803064689498
0.000141680048612668
0.000169092770971535
0.000198766008161234
0.0002304166490756
0.000263784707336634
0.000298655110072439
0.000334870693567745
0.000372338329696664
0.000411030586982505
0.00045098505783197
0.000492302952983306
0.00053514803126963
0.000579746495128355
0.000626388216967329
0.000675429490442123
0.000727297463743347
0.000782496417530662
0.000841616141972224
0.000905342789076616
0.00097447276717731
0.00104993050928465
0.00113279131132777
0.00122431092715065
0.00132596438143649
0.00143949760405787
0.00156699741902252
0.00171098882914693
0.00187457573491145
0.002061656779088
0.00227727900444823
0.00252826687059192
0.0028244750374103
0.00318151437384901
0.00362714862522381
0.00422301833482408
0.00490308666426552
0.00558794572702018
0.00603442413977692
0.00527697080731587
0.00268633621634305
0.00157816871433713
0.00115930433446191
0.00101745928740899
0.00106123345123937
0.00120940579206968
0.00144309292302453
0.00177372703124188
0.00220844953657469
0.00274723704335571
0.00339229980742405
0.00415083570736128
0.00503916461953537
0.00607040139941844
0.00718428812534501
0.00827962337813494
0.00933127571175756
0.0103401859829908
0.0113190663493301
0.0122950637982883
0.0133294363437858
0.0145362663299911
0.0162944799377247
0.0189533243777586
0.0230199590206957
0.0294633780230707
0.0397064646219805
0.058932132030844
0.0938627881629776
0.147626195952607
0.136261515408087
0.0735818940333534
0.0385493301822263
0.0234764900129625
0.0451683968345589
0.0348314338047914
0.0184566662875246
0.0071516310251466
0.00188964332491395
0.00122791019360128
0.00103356269275145
0.000492081306690347
0.000184327310642978
7.31855398732426e-05
3.82202491857935e-05
2.80668847496736e-05
2.57904980158915e-05
2.6500379909124e-05
2.86498824424588e-05
3.19905742015184e-05
3.66469302290469e-05
4.26339664400211e-05
5.00195847831625e-05
5.88618913192943e-05
6.93611639849639e-05
8.10498850458788e-05
9.25789603459226e-05
0.000103047118370813
0.000111049516811662
0.000114836959231469
0.000112694586586217
0.000103404367319851
8.77332328149914e-05
6.80420044244133e-05
4.78979426319635e-05
3.13300068328119e-05
2.03385598454652e-05
1.5001044392664e-05
1.37689149825893e-05
1.62223933823656e-05
2.1072174945843e-05
2.79008716006869e-05
3.69159812658195e-05
4.90412583320996e-05
6.52118336232547e-05
8.63146256814319e-05
0.000113173264535783
0.000146663082904071
0.000187312106289165
0.000235323965922448
0.000290563970345295
0.000352604815185833
0.000420815739472144
0.000494469276707444
0.000572840293284125
0.000655282686485002
0.000741279292850472
0.000830468241687112
0.000922652167711663
0.00101779703234474
0.00111602598524895
0.00121761199808161
0.00132297150665979
0.00143266017157885
0.00154737119547503
0.00166793621090472
0.00179532862298238
0.00193066922997964
0.00207523404901956
0.00223046440126857
0.00239797952837244
0.00257959229112599
0.00277732882942636
0.00299345339408909
0.00323049998787805
0.00349131274475684
0.0037790972877267
0.00409748588460709
0.00445062135882853
0.00484327029355722
0.00528099025158925
0.0057704285506845
0.00631998251405331
0.00694130228880131
0.00765252113104793
0.00834345150775772
0.00890386785854214
0.00913630268707501
0.0087188320687648
0.00739490881500832
0.00505015011015817
0.00348864998836968
0.0027849954882437
0.00256517115185268
0.00271515500497799
0.00311477587075059
0.00372481261796583
0.00456957244300548
0.00565903157880018
0.00699081509070337
0.00856821736194844
0.0104069417496025
0.0125395498074987
0.01493706466808
0.0174306598320876
0.0198798448059728
0.0222504590624964
0.0245552522916184
0.0268300551172506
0.0291446928896925
0.0316473401314131
0.0346380412341469
0.0389401010470338
0.0453129275662892
0.0549360524559409
0.0697682547744026
0.0925503015851234
0.13137855286311
0.189753042689057
0.248596768938626
0.225585513526962
0.1529235723128
0.0938388585978379
0.0593684235149888
0.0727450564991492
0.0570730156519287
0.0345831939242869
0.0141905536389304
0.00375836372468333
0.00210814405822722
0.00179603413346533
0.000910025391527004
0.000354993619146289
0.000140786801907771
7.10115842399107e-05
5.02689492979201e-05
4.52834184452744e-05
4.60904676327811e-05
4.9566956456697e-05
5.51252743269085e-05
6.29490320741176e-05
7.30559285998339e-05
8.55395462253193e-05
0.000100456007270604
0.00011805063982118
0.000137685638446401
0.000157055874069177
0.000174570687246416
0.000187955426904127
0.000194430782742206
0.000191307607830968
0.000176729940497145
0.000151567100989977
0.000119354499100842
8.55659966646067e-05
5.68228955418205e-05
3.69411365896341e-05
2.69776777450231e-05
2.44282964763571e-05
2.86442100903749e-05
3.73110200911045e-05
4.96168646193768e-05
6.60775588601625e-05
8.84902417718063e-05
0.000118530595462377
0.000157786956709398
0.000208149013085208
0.000270914708631927
0.000346701665832641
0.00043535738525346
0.000536014739895353
0.000647289087515642
0.000767539578723989
0.000895115799434046
0.00102854076494453
0.00116661759883759
0.00130847130420195
0.00145354636740443
0.00160157993422484
0.00175256513873747
0.00190671341329346
0.00206442026984851
0.00222623605017692
0.00239284163731833
0.00256502825459422
0.00274368032471279
0.00292976031957713
0.00312429471518072
0.0033283602960689
0.00354307016022256
0.00376955870185765
0.00400896455258717
0.00426240953762858
0.0045309703264267
0.00481563660883294
0.00511724540616838
0.00543637471902473
0.00577317015067539
0.00612706622989134
0.00649634809103614
0.00687748585701673
0.00726418301752205
0.00764620520779032
0.00800866312289334
0.00828508780593581
0.00840946064637735
0.00833393660782222
0.00801447346116579
0.00745853717428983
0.00689935819811587
0.00618262585388472
0.00518091689255882
0.00468587637176069
0.00462820106464464
0.00499811082778598
0.00574869654356181
0.00683675346057927
0.00828432788034124
0.0100917241754512
0.0122517233267411
0.0147618302811261
0.0176368444101687
0.0208756775543921
0.0243028170347241
0.0278191964801386
0.03134292955198
0.034857849035878
0.0383999350322146
0.0420317283044066
0.0458660233402709
0.0501305635439105
0.0553083291598316
0.0624575961899905
0.0725319550674113
0.0871273051797825
0.107993432609691
0.137151997322307
0.177709190123704
0.219382169736605
0.230237458152432
0.199541370123475
0.163578610891144
0.129305312143945
0.0936159543966643
0.0850521702934233
0.0671488613200354
0.0502754739281473
0.0239732038354132
0.00670591431158869
0.00309154417735552
0.00261338923683161
0.00141481642125845
0.00057854038594658
0.000231195985996231
0.00011324538396127
7.72191197962888e-05
6.80578356232323e-05
6.85533337766074e-05
7.33118929208729e-05
8.11864106284128e-05
9.23804991499976e-05
0.000106891501735769
0.000124797067896088
0.000146076308445563
0.000170842220577864
0.000198300838099661
0.000225131386087439
0.000248932154859084
0.000266622876487417
0.000274632830186196
0.000269683472905475
0.000249860963157077
0.00021624370855992
0.000173079996858486
0.000126953503642062
8.63261176419398e-05
5.68431382966599e-05
4.14230028755631e-05
3.73401369544202e-05
4.40134611517088e-05
5.78446615386727e-05
7.77378510639986e-05
0.000104993251612601
0.000142357192382372
0.000192393071818389
0.000258064287395689
0.000341275262966467
0.000442513945880136
0.000560687946249861
0.000693377807218099
0.000837415883337239
0.000989532405427551
0.00114684813997211
0.00130712764940321
0.00146882887492107
0.00163102972018902
0.00179330566368633
0.00195560452567062
0.00211813972413016
0.00228130754270876
0.0024456261217584
0.00261169155572167
0.00278014596896284
0.00295165367443914
0.00312688203424567
0.00330648488773732
0.00349108652667188
0.00368126483137326
0.00387753193384821
0.00408031067232318
0.00428990451687815
0.00450645806269309
0.00472990388514125
0.0049598909615872
0.00519568798347093
0.00543605435504997
0.0056790711103315
0.00592192447466857
0.00616063911551349
0.00638976469637739
0.00660203308398925
0.00678801018860283
0.00693567126854044
0.00702824887113484
0.00702792320862628
0.0069331360906552
0.00675119587671083
0.00652136793559282
0.00633247116786242
0.00635384476445401
0.00642750349425557
0.00611767927584159
0.00613209192848004
0.00645167870066425
0.00713314164225935
0.00820673051876265
0.00965346581314638
0.0114699037641014
0.0136444754685628
0.0161731320202474
0.0190425598989069
0.0222471522153485
0.0256363812619443
0.0291632985957254
0.0327996423299435
0.0366023530629077
0.040572468907871
0.0447751712062531
0.0492998783193524
0.0542928019943823
0.0600188865214999
0.0670060934627416
0.076085934650087
0.0879156161240303
0.103736231398451
0.123742506223523
0.147752240195878
0.17271707473741
0.186676714165214
0.173012597426757
0.148806069781779
0.130669188520072
0.126061875227772
0.104646767105056
0.0850178336161692
0.065553561135136
0.0598189088962465
0.0351517344652476
0.0112260336582188
0.00421034729743804
0.00338817786530971
0.0019680959196394
0.000850929233803598
0.000345970821725734
0.000165739386088633
0.000108895373628542
9.37174873456246e-05
9.33264867868532e-05
9.92053571246237e-05
0.0001093521716208
0.000123911380222298
0.00014280623672873
0.00016601114616797
0.000193295490504567
0.000224369763045916
0.000258171863127438
0.000290431984238077
0.000317890549310772
0.000336898245218744
0.000343624169395792
0.000334988884222571
0.000309729387857298
0.000269839715099472
0.000219625091254568
0.000165538045511981
0.000116315337619409
7.8777781524308e-05
5.80210925348793e-05
5.29229967913849e-05
6.36516667957728e-05
8.51252121871788e-05
0.000116468964701388
0.000159636858438488
0.000218375572614137
0.000296278705807624
0.000395112570733954
0.000514099241969312
0.000649980651764482
0.000797931008962035
0.000952886914042895
0.00111064641143335
0.00126835631333845
0.00142446248891009
0.0015783893042833
0.00173018567530455
0.00188024763498408
0.00202913834291615
0.00217748438598548
0.0023259212572034
0.00247506618950064
0.00262550438126989
0.00277778074191143
0.00293239266804039
0.00308978191897138
0.00325032414776908
0.00341431574667225
0.00358195712869274
0.00375333214441024
0.00392838289413121
0.00410687926922402
0.00428838246557105
0.00447220204670067
0.00465734588625975
0.00484246375015449
0.00502578520871608
0.00520505491241331
0.00537747052270687
0.00553963196507468
0.00568751766462833
0.00581651240524252
0.00592153267655237
0.00599735943497334
0.00603957499492587
0.00603338202463448
0.00598041646292939
0.00589265104009629
0.00579579986835105
0.00574026480679547
0.00580160046249305
0.00606198006581339
0.0063970847651809
0.00647536384845614
0.00683667172240299
0.00743362351243629
0.00832815989393644
0.0095493763291372
0.0110953567517719
0.0129369567407951
0.015063655512696
0.0174799600978051
0.0201632055197695
0.0230193929586628
0.026009183809315
0.0290971339318604
0.0323325398212402
0.0358352760958115
0.0396096877060438
0.0437396633980201
0.0483323100952331
0.053553098875383
0.0596692482552085
0.0671328426313055
0.0763777632832092
0.0876162812751793
0.101389942511388
0.116853327842344
0.132905654464306
0.145487183556711
0.147469698593981
0.131740860494401
0.114350953841555
0.101275107110112
0.10734803590164
0.098928105289423
0.0795394984598205
0.0604287424719888
0.0621294149583641
0.0457881764109936
0.0174600492064983
0.00565326024347005
0.00402718238377623
0.00250650730491829
0.00115891151535677
0.000484874621273019
0.000229233641139877
0.000145398192246588
0.000121959007087195
0.000119921512901058
0.000126632058052855
0.000138846416914802
0.000156514110955668
0.000179383795101881
0.000207179606219482
0.000239271696041646
0.00027467176059196
0.00031179561305728
0.000345724253333999
0.000372512529597876
0.000388468079330515
0.000390330178504783
0.000376150193899547
0.000345955055252245
0.000302930312196014
0.000251039999089402
0.000195262487471728
0.000143020881211728
0.000101045652444703
7.67309260670828e-05
7.2379923843703e-05
9.0247641989889e-05
0.000123556282117945
0.000171098561668031
0.000235678316204893
0.000321289003347692
0.000428903802428766
0.000555937215667225
0.000696804945214692
0.000844787155032517
0.000994140060984972
0.00114127763839719
0.00128476933947344
0.00142464069761473
0.00156162275758351
0.00169664483807358
0.00183059046055906
0.0019642176543793
0.00209815726974696
0.00223293513498145
0.00236899514872006
0.00250671484731947
0.002646412577854
0.0027883473625959
0.00293271289036981
0.00307962708235247
0.00322911787817447
0.00338110624729408
0.00353538655442748
0.00369160495534614
0.0038492362926416
0.00400756015304142
0.00416563706365295
0.00432228645861902
0.00447606799094134
0.00462526950684283
0.00476790488479383
0.00490172707213289
0.00502426344818714
0.00513288278059042
0.00522490767175149
0.00529779025634911
0.00534937276820921
0.00537824126552595
0.00538408477040426
0.00536319467601379
0.00532636264244375
0.005290598723221
0.00528393592778132
0.00534981105139047
0.00554011578308562
0.00589063394003902
0.00631640879351249
0.00658535464488783
0.0071060220903933
0.00782251532873089
0.00879203660599518
0.0100105586443482
0.0114924535567956
0.0131968628153861
0.0151198919930104
0.0172669711570634
0.0195739499142924
0.0220087630064228
0.0245444104583532
0.0271683317912548
0.0299599533131068
0.0330349516985306
0.0363986950125927
0.0401356984930561
0.0443514670740944
0.0492054186591346
0.0549371117361403
0.0618901836575697
0.0702433386563019
0.0799823517817476
0.0911271157408747
0.10270367623732
0.113549818184417
0.120343412784678
0.118953168286275
0.105710420327534
0.0924166065750834
0.0817408470638837
0.0886367878527893
0.0874907127107181
0.0718727904120342
0.0558700347179405
0.0587148774174217
0.0543445080456576
0.0251009202691723
0.00772157738204062
0.00450908454300887
0.00294646229347795
0.00147456431361736
0.000643538453005878
0.000303661110362672
0.000186673162535098
0.000152368341671672
0.000147708609470002
0.000154793226509402
0.000168646178015441
0.000188813497233457
0.000214714400058942
0.000245623979060266
0.000280310316939131
0.000316921770897574
0.000353072598283597
0.000383900421462935
0.000405339102615977
0.00041447403306434
0.000409460561506506
0.000389989036967956
0.000357309310024138
0.000314902757681703
0.000266565699746381
0.000214732048945747
0.00016495641974473
0.00012299867334415
9.83064866440144e-05
9.78907907488094e-05
0.000127464052743797
0.000176476016970955
0.000244124424872535
0.000332846021507047
0.000443126959354411
0.000570849321311666
0.000708750605935196
0.000849173859908494
0.000986705962283638
0.00111915964477643
0.00124681146861756
0.00137107417630352
0.00149349643078415
0.00161532940710184
0.00173745502362725
0.00186046397958558
0.00198475320655464
0.00211060160993081
0.00223821561704931
0.00236775201085378
0.0024993246849709
0.00263300156865524
0.00276879524478193
0.00290664968094172
0.00304642463743455
0.00318787855474722
0.00333065107525004
0.00347424571349301
0.00361801377280099
0.00376114066141447
0.00390263588885376
0.00404132839882982
0.00417586941764182
0.00430474474020027
0.00442629973947755
0.00453877994506249
0.00464039142313215
0.00472938639565107
0.00480418076074914
0.0048635136435411
0.00490666247378419
0.00493373234685246
0.00494603537494225
0.00494518468824903
0.00493484035324412
0.00492764306485741
0.00494112031588025
0.00500053343107588
0.00513945456514022
0.00539142877865743
0.00577338073829904
0.00623295944478456
0.00659884449698736
0.00718202261609097
0.00793262856613534
0.0088971108659895
0.0100599714006064
0.0114263759507093
0.0129653648734247
0.0146759672811681
0.0165413101727889
0.0185278970261555
0.0206177213849804
0.022791903422973
0.0250559555058404
0.0274911329640308
0.0301915193422197
0.0331657026075324
0.0364906749138293
0.0402619680799781
0.0446214586271088
0.0497709070250691
0.0559600923950467
0.0632471817004413
0.0715325559758984
0.0805658358017293
0.0895356923651542
0.0973921804093753
0.101571814019898
0.0993917700175606
0.0885761391104236
0.0776323928684601
0.0686408741169972
0.0737550749190344
0.0758664182094049
0.0636701502178139
0.0525971866176056
0.0518160641874432
0.0599328366649802
0.0332341635954628
0.0108640012987375
0.00497188720498217
0.00322579496141424
0.00175583968240881
0.000811176289589545
0.00038722274575664
0.000232219245100065
0.000184278979324212
0.000175785182929282
0.000182561451903771
0.000197326220586473
0.000218940345417258
0.000246308395115945
0.00027807005477193
0.000312286758655604
0.000346452870896105
0.000377292405942719
0.000401130647024274
0.000414597227965564
0.000416205768164397
0.000405713242694424
0.000384001729033044
0.000352691006111545
0.00031457468703216
0.000272480092520974
0.000227996443134139
0.000184086590162444
0.000145754839450311
0.000124432916228011
0.000132230327668881
0.000176790061128847
0.000244094149099931
0.000332702518121903
0.000441472250287711
0.000565750643371276
0.000697328560247799
0.000828196262279378
0.000953583499234778
0.00107264810356921
0.0011870660537798
0.0012991718775094
0.00141088895222408
0.00152345240183892
0.00163754065143354
0.00175348081283964
0.00187141298116051
0.00199138730136261
0.00211341372935756
0.00223748023149677
0.00236355429735909
0.00249157466278053
0.00262143835868066
0.0027529851794856
0.00288598116741169
0.00302010210813929
0.00315491771371186
0.00328987762785753
0.00342430001145193
0.00355736396712877
0.00368810721893031
0.00381543044323321
0.00393810988103869
0.00405482013425292
0.00416416858224512
0.00426474374200886
0.00435517931601365
0.00443423649984482
0.00450090805512156
0.00455454855524835
0.00459503819108901
0.00462299140957134
0.00464003162347072
0.004649188326784
0.00465316871830118
0.00465938555090341
0.00468015023419732
0.00473164313574991
0.00483498248292047
0.0050150606246134
0.00529396641293613
0.00568350177434992
0.00615411215044776
0.00657112752658894
0.00717276093686573
0.00792008118753414
0.00884756829254007
0.0099400070915221
0.0111935979431014
0.0125802095607361
0.0140968757587362
0.0157365809939621
0.0174762304810976
0.019303287077942
0.0212075182031166
0.0232047879944933
0.0253680212223314
0.0277711942716194
0.0304268957549111
0.0334029822781076
0.0367840849817538
0.0406935172532716
0.0452980059524655
0.0507784774915245
0.0571410166829059
0.0642406040785052
0.0717268183637433
0.0789611525161032
0.085014185728463
0.0878758536403415
0.0855936832667267
0.0765597845911272
0.0670242776193252
0.0593527385702689
0.0625079767497553
0.0658602695967251
0.0559059672292704
0.0501338213887877
0.0438601397993762
0.0621573752095791
0.0411436004284366
0.0151828717070518
0.0056922319985862
0.0033688642736927
0.00196242337996505
0.000970564467552198
0.000475484350548403
0.000280741869095713
0.000216662519640192
0.000202919259085036
0.00020844849793046
0.000223081079647308
0.000244674858170744
0.000271477961666446
0.00030144704139573
0.000332076023773715
0.000360597891537231
0.000383832003126584
0.000399590651198277
0.000405875379566659
0.000402514164029334
0.000390198401650346
0.000370060179036369
0.000343303635086584
0.000311673822389586
0.000276952495982545
0.000240166169986941
0.000203462565407121
0.000171561334351463
0.000157230747013096
0.000176475639760739
0.000237598772081948
0.000323148707908026
0.000428321934920864
0.000547245671515145
0.000671711028641478
0.000793564637166707
0.000908497378945711
0.00101663478670071
0.00112063807938548
0.00122346176358466
0.00132720000649566
0.0014329824896676
0.00154126271185181
0.0016521300350956
0.00176551001869701
0.00188127350256123
0.00199928168630687
0.00211939952949859
0.00224149124556587
0.00236540849372928
0.00249097464471005
0.0026179680553343
0.00274610518428425
0.00287502456041745
0.00300427231911775
0.00313328998780215
0.00326140565630942
0.00338782944689571
0.00351165454263303
0.00363186516997943
0.00374735277305763
0.00385694165128839
0.003959425377313
0.00405361473124354
0.00413839838596076
0.00421281703663124
0.00427615218627691
0.00432803165034039
0.00436855467529551
0.00439844204629736
0.00441921966377622
0.00443344980127349
0.00444503099114345
0.00445782077167827
0.00448018885655726
0.00452356276248343
0.00460211087502822
0.004732888383109
0.00493432566723828
0.00522235481264761
0.00560917472700154
0.00607976985700418
0.00652347023061631
0.00712343511135796
0.00785184528717128
0.00873253241294321
0.00975136768003361
0.0109016397598085
0.0121587732470898
0.0135213682532268
0.014985719406593
0.0165356901587358
0.0181633369016571
0.0198652826064907
0.0216622353210815
0.0236166485281877
0.0257873252459431
0.0281903087677109
0.0308850053919338
0.0339464308978577
0.0374815933583292
0.0416284054027711
0.046520143573897
0.0521402695600784
0.0583018479724112
0.0646589109890568
0.0706911662418667
0.0755728522783872
0.0776764728008456
0.0754464980980194
0.0676440967826372
0.0590034765190304
0.0523975720237213
0.0540013318772588
0.0576823016103905
0.0490842078493518
0.0478631799087977
0.0367549674491537
0.0612791874479124
0.0482259243964987
0.0205885143853398
0.00698577880651641
0.00350100441249737
0.00208500193847924
0.00110383712592989
0.000561457689721664
0.00032990614595492
0.000248109810459596
0.000227639886062232
0.000230779293235567
0.000244034226542887
0.000263983354305256
0.000288210018931613
0.000314170626442818
0.000339197050589003
0.000360840976877297
0.000376746051909551
0.000386112198903897
0.000388166336867701
0.000383381847500881
0.00037259328261504
0.00035659479511206
0.000335956806006462
0.000311534652316426
0.000284338682461434
0.00025511388792924
0.00022591707115402
0.000201976866477473
0.000197523637796698
0.00022997913487489
0.000307220919033293
0.00040699374706289
0.000520224860451464
0.000637838660731877
0.000752011096884098
0.000858505947326585
0.000957960383761635
0.00105368697001145
0.00114910751400023
0.00124647314734576
0.00134683414631379
0.00145047443029579
0.00155729624258499
0.00166706067348356
0.00177949945082255
0.00189436036337863
0.00201141462013676
0.00213044971462908
0.00225125450532131
0.00237360246869728
0.00249723412448852
0.00262184026698753
0.00274704630314187
0.00287239848238195
0.00299735267903012
0.00312126647217782
0.00324339564283077
0.00336289606303587
0.00347883213116277
0.00359019296988342
0.0036959173465658
0.00379492812830278
0.00388617695973709
0.00396869924543605
0.00404167974528459
0.00410452866931969
0.0041569685356135
0.00419913287801171
0.00423167869437021
0.00425591645182761
0.00427396354632282
0.00428892963546459
0.00430514010828245
0.00432711820533946
0.00436311399619025
0.00442338667216593
0.00452001252198169
0.00466665119971759
0.00487741578365773
0.0051654043527645
0.00554470161088369
0.00600910833732024
0.00646536334840323
0.00705437428853924
0.00775780383077414
0.00859102736583482
0.0095418548413673
0.0106026179251859
0.0117531275023064
0.0129925968438917
0.0143191260598699
0.0157217301253611
0.0171960780704074
0.0187436279682198
0.0203866536467679
0.0221778649487075
0.0241652119901317
0.0263671970851971
0.0288360475271957
0.0316387633764787
0.034868802464889
0.0386413718993615
0.0430571267260992
0.0480846963864402
0.0535049299523355
0.0590217378480853
0.0641847764987446
0.0682528295346263
0.0698583635917553
0.0676808547578654
0.0605882324727144
0.0526783459562134
0.0469496702044962
0.0474594620686936
0.0510532023676157
0.043366253382038
0.0453848372957771
0.0313967767148521
0.0579514577669211
0.0539695748780191
0.0267518364967893
0.00909448242696672
0.0037872896598781
0.00216071445305938
0.00120357010281141
0.000638041217000939
0.000376614373179041
0.000277019851839789
0.000248546897232456
0.000248120675201287
0.000258816965345361
0.000275776442512412
0.000296055300779
0.000316943614713725
0.000336041509134197
0.000351578523444103
0.000362166678860604
0.000367895301849986
0.000368704851406359
0.000365145466813428
0.000357809162586078
0.000347044923651436
0.000332912184271526
0.000315667017957681
0.000295834840118308
0.00027408351431881
0.000252730618520825
0.000237884936113392
0.000244930410041277
0.000290692534457713
0.000380738771323305
0.000487530604935013
0.000599299379696335
0.000707121142626157
0.00080702976748984
0.000899602336849453
0.000988568100892551
0.00107774863128115
0.00116961408478923
0.00126522953830345
0.00136477723699263
0.00146803144122314
0.00157462733405585
0.00168419000042195
0.00179637649143492
0.00191088358707262
0.00202743720607631
0.0021457772041337
0.0022656395542247
0.00238673907510581
0.0025087526950954
0.00263130428188916
0.00275395123306235
0.00287617355525045
0.00299736611860446
0.00311683488382013
0.00323379817207848
0.00334739393211581
0.00345669399990831
0.00356072632307833
0.00365850580585963
0.00374907414566647
0.00383154879227454
0.00390518058350549
0.00396941966013003
0.00402398896794271
0.00406896497716372
0.00410486603601415
0.00413274951460048
0.00415432025729154
0.00417205401533174
0.00418934044424266
0.0042106480265943
0.00424074656985317
0.00428732667434733
0.00435942013639672
0.00446722687659214
0.00462184000913645
0.00483473116932301
0.00511794522514958
0.00548729203548554
0.00594179024939408
0.00640195166643173
0.00697589514309296
0.00765266033551244
0.00844140484971858
0.00933206567661438
0.0103169386097117
0.0113797375728366
0.0125198938762552
0.0137368088332568
0.0150233832774318
0.0163780349672352
0.0178054045770761
0.0193275503821027
0.0209889685471867
0.0228298712206665
0.024870251198082
0.0271564466749879
0.0297488758448895
0.0327299537665529
0.036197284353465
0.0402285291701258
0.0447746078086624
0.0496076797278598
0.0544828142593309
0.0589919418779207
0.0624583606255681
0.0636815606663874
0.0612370216342529
0.0546130863814704
0.0475266105399226
0.0425297719075711
0.0423233347066332
0.0456292121071304
0.0387042596510248
0.0425604287898774
0.0278838513666524
0.0524304015302926
0.057935873855245
0.0331891425689548
0.0122015972500155
0.00438740327602915
0.00225694610815973
0.00127996634893469
0.000702502344151693
0.000418246947470248
0.000302084816557399
0.000264788221057505
0.000259815746804468
0.000267121000245808
0.000280379128521238
0.000296300575558858
0.00031229551172816
0.00032644619523317
0.000337660908214188
0.000345267793141882
0.000349718018938
0.000351283270524449
0.000350350991589223