/*--------------------------------*- C++ -*----------------------------------*\
  =========                 |
  \\      /  F ield         | OpenFOAM: The Open Source CFD Toolbox
   \\    /   O peration     | Website:  https://openfoam.org
    \\  /    A nd           | Version:  7
     \\/     M anipulation  |
\*---------------------------------------------------------------------------*/
FoamFile
{
    version     2.0;
    format      ascii;
    class       volTensorField;
    location    "20000";
    object      gradU;
}
// * * * * * * * * * * * * * * * * * * * * * * * * * * * * * * * * * * * * * //

dimensions      [0 0 -1 0 0 0 0];

internalField   nonuniform List<tensor> 
15600
(
(0.0598058575327067 -0.0342083015853843 1.24710637213348e-19 22.6768082704622 -0.0792405498415117 1.70552528116984e-21 -8.71836411815729e-21 3.2155016295197e-22 -1.06656024572789e-39)
(1.20963528723679 -0.141181030006356 2.51199693267767e-19 23.9895598586781 -1.27753106170123 1.45159411917816e-18 -9.66804032144572e-18 5.14551470239612e-19 -5.83088391153423e-37)
(2.66487529913382 -0.614521914353318 -3.6096333154554e-19 12.1310051046785 -2.6114602819525 -7.78114531038221e-19 0 0 0)
(-2.69951170357289 1.69948193998638 -1.88236614861028e-19 -3.73849941849324 2.40570974893479 -2.47824641991711e-20 -6.69680722752451e-21 4.59128308451123e-21 5.27109530914114e-43)
(-6.12245873495043 5.67768607352793 5.17328554411869e-17 -6.53427906339709 5.92850304996059 6.15719042303422e-17 7.76425602305302e-21 -5.32311833554676e-21 -6.11129036742694e-43)
(-5.01639085613692 5.82592925067447 2.58044382888738e-17 -4.27902906966044 4.88861303565779 2.09905378489846e-17 -2.16606183818636e-17 2.47368286769124e-17 1.05823969909424e-34)
(-3.54697008770941 4.755300204376 -1.49241406316469e-18 -2.61056765722606 3.46532801637206 3.11974110221645e-20 7.90536177689251e-22 -1.05949748881701e-21 3.23466517168159e-38)
(-2.66127783383098 3.90386109772667 1.45456844502274e-16 -1.77952922239748 2.5941557958185 8.91669153583695e-17 -1.04680129670048e-17 1.52592554529638e-17 5.23751331068056e-34)
(-1.95881252813553 3.05988242562583 9.26295098436615e-17 -1.23447554711274 1.91921771468692 4.53601096100543e-17 -5.71997486268958e-22 8.30933174068612e-22 2.34722753043751e-39)
(-1.48633542011108 2.41452233470571 -1.59345311661772e-16 -0.90099517083407 1.45899558701868 -8.97367256149382e-17 5.66279428304137e-18 -9.17049548044914e-18 5.64414371617716e-34)
(-1.16779507156809 1.94449987852809 -9.47513517060909e-18 -0.692654709319746 1.15118438543841 3.9533717459321e-19 -4.40885338121902e-18 7.32804575714502e-18 7.39104700087204e-37)
(-0.984764032302773 1.65268816572874 -2.49814902747521e-19 -0.580200192677463 0.973423401324378 -1.34547599385986e-19 0 0 0)
(-0.87839048068456 1.46112076316155 -1.29929997944201e-16 -0.522759369767256 0.870167916762181 -6.95715580064884e-17 3.2976726910217e-18 -5.48882532900378e-18 4.42278172270376e-34)
(-0.812938884388119 1.33307186060864 -1.98742698985477e-16 -0.491590800083703 0.80693027469375 -1.19986610323757e-16 -3.05935570207627e-21 4.91784583853888e-21 -5.83587779651471e-37)
(-0.77515052279435 1.25401405698839 1.13273118863191e-17 -0.475785062546425 0.77056323718301 -7.07281571238695e-19 2.91635260955544e-21 -4.68797156698083e-21 5.56309206849071e-37)
(-0.756485701996416 1.20791435587034 1.30543000569983e-17 -0.470755902654619 0.752559833763581 -9.30602658572831e-19 0 0 0)
(-0.747172447325129 1.1783401943027 -2.50998184196273e-17 -0.470863936628865 0.743444450771471 -2.59522768382169e-17 2.83696989939696e-18 -4.47868920192529e-18 1.49192963709827e-34)
(-0.739713162152923 1.15343159926261 -4.98026014703155e-17 -0.471471176991387 0.735961684037437 -2.32906422555782e-17 0 0 0)
(-0.727062430089063 1.12190942490762 -1.37366160490198e-17 -0.468138477858584 0.723044542726605 5.65945424486696e-19 -5.56640223523933e-21 8.45648246406306e-21 9.06834822485294e-41)
(-0.700402974179321 1.07047509738871 1.2171716181608e-16 -0.455247820473128 0.696249304929406 7.90310421871382e-17 5.38511486318944e-21 -8.18107055204012e-21 -8.77300898254857e-41)
(-0.649684817984955 0.983320465264229 -4.65443052569059e-19 -0.42637102354846 0.645653729409407 -1.79155347881647e-19 9.44855775696662e-21 -1.4186082278939e-20 3.44532852698022e-40)
(-0.568399624097023 0.846846647225881 1.48801041883596e-17 -0.379336061364676 0.565520927988035 -2.00739910915676e-18 -9.14441148908239e-21 1.37294365037828e-20 -3.33442442499244e-40)
(-0.457188003411557 0.663160814581459 -3.7702957247868e-17 -0.314433776136204 0.456449947832657 -2.58285565376089e-17 1.8196835677481e-18 -2.64155649504809e-18 1.46217753905351e-34)
(-0.317871283652421 0.441713942662667 7.28191300165624e-19 -0.230285596845944 0.320247175875586 -6.45529779317759e-19 -5.53668537785829e-21 8.26423042371322e-21 2.38017144318464e-36)
(-0.155422237010658 0.198661808204344 1.15191752987452e-16 -0.126115340934118 0.161661211231405 5.39706304185627e-17 2.13737853500398e-22 -9.95268972370286e-22 -7.6158759326005e-36)
(0.020262472282406 -0.041828314701922 -8.96760849129245e-17 -0.00296420865764775 -0.0099131150192997 -5.55178407211446e-17 2.67912515019082e-21 6.93771498082188e-20 3.12594051877517e-34)
(0.193369516137189 -0.248658683945229 -4.83303880235085e-17 0.135297897478154 -0.179357140495024 6.45714517147364e-18 0 0 0)
(0.342647852505147 -0.388984888547044 4.98593451652392e-17 0.281313661357912 -0.326193466317333 2.73232653706611e-17 1.38955957909487e-18 -1.60495944667533e-18 1.42521210647477e-34)
(0.446951230672368 -0.44354142605743 -1.150278087871e-16 0.424019673485556 -0.429942581605629 -1.33913092583934e-16 -1.96597272035987e-18 1.98611992212859e-18 5.99668697031925e-34)
(0.491247823310173 -0.415134043516644 -1.8054051784015e-17 0.54810296668153 -0.4752991825541 5.81625402780901e-19 9.84200408666696e-21 -8.19632486012179e-21 2.37393150050553e-36)
(0.468199874335299 -0.322136119868606 -2.32220186524688e-15 0.637000554973688 -0.454365275069609 3.97668565568474e-16 0 0 0)
(0.386477510932027 -0.200429610829965 4.54530700986607e-16 0.682045382096332 -0.375626623257277 6.25270231375436e-15 3.38555545821805e-16 -1.86289584401983e-16 3.27852344846924e-30)
(0.268190860568707 -0.0889269569822659 4.16479792561468e-15 0.686210268789206 -0.259883021638339 4.83402471925125e-15 3.50080483452677e-16 -1.32153387258788e-16 2.28656306360197e-30)
(0.141602441453822 -0.0163186264444995 2.63561866462402e-15 0.679196535252178 -0.136490462249774 -2.64410573141441e-16 9.4750286653037e-21 -9.95933967887539e-22 2.3122506865979e-36)
(0.0234657687516593 0.00601467497970722 -1.80226063712734e-17 0.683096146318099 -0.020899477452912 -3.55916967836261e-18 -9.42634787750847e-21 9.90817059869484e-22 -2.30037080855428e-36)
(-0.000351423240127496 0.00101898789918854 8.5653294783184e-19 0.670579025194273 0.00197734181765927 7.04117355477057e-19 -9.43954556129397e-21 -5.41843648416877e-23 1.07940799113752e-42)
(-0.00137678727676404 -8.19201601376205e-05 -1.4356160708867e-19 0.645793411428747 0.00292111678367233 -3.04247768234572e-18 9.43954556132375e-21 5.41843648418224e-23 -1.07940813086175e-42)
(-0.00264602963386883 -8.37495011645206e-05 3.12594192470467e-15 0.608625999422681 0.00378089766727128 -2.81901662298206e-16 5.56054435246963e-32 3.44914025196307e-34 1.041316100947e-49)
(-0.00514516441072543 -5.29179226985021e-05 3.2368324179658e-15 0.549084601973122 0.00643544209669457 -8.68580017261465e-15 -2.9914338129935e-16 -3.53277336916933e-18 4.93993682973004e-30)
(-0.00867123582445454 -3.41339086990308e-05 -3.12579835512261e-15 0.452014825854174 0.00983619567653713 -6.8323698294744e-15 -2.5131253992605e-16 -5.42422270253012e-18 3.61621603406096e-30)
(-0.0128676833661472 1.20619724391844e-06 -3.23683241796551e-15 0.312009964669593 0.014157670312365 2.65276027613281e-16 0 0 0)
(-0.0176821877775775 3.96407547034332e-05 -1.45925239930151e-19 0.121746091970028 0.0191220505444503 1.17624589739118e-18 0 0 0)
(-0.0227563713943455 8.01749462525588e-05 3.20735639171179e-22 -0.121146310356835 0.0244908147394087 -3.1123285250433e-18 -1.90432437669945e-22 3.63580101714133e-23 -1.97084702116244e-38)
(-0.0277226461064319 0.000112500084114924 2.90907086710522e-19 -0.415728891853496 0.0298102075820464 1.11798190318982e-18 -3.75243161354509e-21 1.52275821917801e-23 3.93760734305807e-38)
(-0.0321778279992257 0.000133372910807455 -3.20735639176644e-22 -0.756377440608195 0.0346582071752422 7.95312151472889e-19 3.94286405124976e-21 -5.15855923647791e-23 -1.96676032189929e-38)
(-0.0358242654199086 0.000140438381753577 -3.21812724364675e-15 -1.13435877210671 0.0386847802308776 1.85971200705013e-16 0 0 0)
(-0.0384874942524819 0.000134434278027181 -3.25750266249261e-15 -1.53900372975433 0.0416837027518187 6.96512549451754e-15 -8.77814866383454e-16 2.38406128456187e-17 4.09326772590762e-30)
(-0.0401399544461158 0.000118110804376684 3.21798226179974e-15 -1.95943385700992 0.0435998360102502 5.36718708838449e-15 -1.12666165474349e-15 2.49847489862383e-17 2.98051871355721e-30)
(-0.0408689815918616 9.54670673478347e-05 3.25750266249291e-15 -2.38579956045204 0.044510835932016 -1.59866590974097e-16 0 0 0)
(-0.0408376137662304 7.03023770276351e-05 -5.0763957791507e-31 -2.81010641945089 0.0445808150880697 -4.98359282022093e-19 1.28514879693053e-31 -2.03819005649032e-33 2.27851163270211e-50)
(-0.0402407673750843 4.56223189444953e-05 -2.4891276537611e-31 -3.22651905863429 0.0440140105417666 -4.88357885594411e-19 -2.95073988896312e-31 4.02441470090058e-33 -4.46556997487229e-50)
(-0.0392726522754422 2.33764683319699e-05 -3.0001009651531e-15 -3.63130905459806 0.0430171848092445 9.92605569457296e-17 0 0 0)
(-0.0381062605905189 4.58151367967879e-06 -3.0249456838647e-15 -4.02258115836045 0.0417764384534843 4.47183569520589e-15 -2.20941810430476e-15 2.29886705667202e-17 2.51748979904029e-30)
(-0.0368844221716457 -1.04415810757075e-05 3.0001008595431e-15 -4.39991542096361 0.0404464491865448 3.65803047081454e-15 -2.42898609280986e-15 2.22923962636296e-17 1.97339596258173e-30)
(-0.035718603427655 -2.18104576917295e-05 3.02497989810104e-15 -4.76400875362388 0.0391486419319117 -7.44688759372178e-17 -1.20868347288252e-21 -7.38045086262766e-25 1.02362434635516e-34)
(-0.0346921562468417 -2.98826262404275e-05 1.05609909037484e-22 -5.11636262539539 0.037974321382994 1.88615769598938e-19 1.51493480643632e-20 -3.77157846678123e-23 -1.15420338528697e-39)
(-0.0338653333587353 -3.51235732598369e-05 -3.42142362930147e-20 -5.45903228196389 0.0369898719094109 -2.25346523641325e-19 4.99033453650088e-31 -3.3819253118428e-33 2.06573086644756e-50)
(-0.0332804651931149 -3.80343811227925e-05 -4.99922641776045e-31 -5.79443612667982 0.036242171734293 1.12774462254704e-19 2.64838513007452e-31 -1.65678973196044e-33 -5.15607782153415e-51)
(-0.0329664524607632 -3.91204481173357e-05 -2.50181130187521e-31 -6.12521540238909 0.0357632924666287 -1.11369433084842e-19 0 0 0)
(-0.0329422663140961 -3.8886018611475e-05 -8.73914762206284e-21 -6.45413193336389 0.0355741264357297 0 0 0 0)
(-0.0332194316804269 -3.78428065355616e-05 8.70820509609416e-21 -6.78399211776439 0.0356869125438488 7.72443066002551e-21 -5.48746234799313e-21 7.57719019536823e-24 -2.61766391748263e-43)
(-0.033803607771057 -3.65251546000073e-05 8.73914762206394e-21 -7.11758707854986 0.0361067779373639 -7.13319103770143e-21 5.48746234799236e-21 -7.57719019536716e-24 2.61766391748227e-43)
(-0.0346954212060726 -3.55073531863914e-05 -8.70820509660908e-21 -7.45764087037317 0.0368324655291758 1.10665729392441e-19 0 0 0)
(-0.0358906951919048 -3.54213660203221e-05 3.44380222389484e-33 -7.80676041465613 0.0378564030008347 -3.30536338643332e-19 -7.13530320010374e-31 3.46135258460359e-33 -3.02244151879237e-50)
(-0.0373801842692261 -3.69741426482199e-05 5.1647482548047e-31 -8.16738217471988 0.0391642335908466 2.18321589435051e-19 0 0 0)
(-0.0391488902421708 -4.0963719105479e-05 0 -8.54171150282212 0.0407338950562258 2.21210622758926e-19 0 0 0)
(-0.0411749964645836 -4.82938367492025e-05 7.44688151938803e-20 -8.93165114791709 0.0425343007837224 -4.37510448455536e-19 0 0 0)
(-0.0434284016390364 -5.99876828883666e-05 -7.41204622505743e-20 -9.33871551050368 0.0445236226468577 6.24409488382772e-19 6.18697345713909e-20 -4.07422758409794e-23 -2.35758627115814e-41)
(-0.04586876287382 -7.72012364205598e-05 -7.44688151933305e-20 -9.76392672021414 0.0466471102014252 -8.54631216687277e-19 -6.1869734571375e-20 4.0742275840969e-23 2.35758627115753e-41)
(-0.0484428878035735 -0.000101234385138574 7.41204622505796e-20 -10.2076874202416 0.0488343046795265 4.41690420445953e-19 9.32852644864675e-31 -4.46561777146659e-33 -4.01373505966822e-50)
(-0.0510811858508647 -0.000133539675178413 -5.51744644072597e-31 -10.6696231347378 0.0509953910994718 -2.2708170369787e-32 0 0 0)
(-0.0536924332181175 -0.000175750036110088 3.54037347409846e-15 -11.148383108684 0.0530161374431355 1.74853504900955e-16 0 0 0)
(-0.0561556424600367 -0.000229725008663449 7.17138198223702e-15 -11.6413801567426 0.054750302750104 1.4136887880434e-16 6.44208330519042e-15 -3.01581880375694e-17 -1.74375754695055e-31)
(-0.0583087663851812 -0.000297478619392623 9.51138176853533e-17 -12.144440683411 0.0560083422429595 -8.61466315598019e-16 1.33732222575703e-14 -6.17056456932956e-17 9.76061063175789e-31)
(-0.059932047926167 -0.000381170360604358 -7.17138198223766e-15 -12.6513311083316 0.0565412187134359 -1.13491859125606e-15 6.92420479051208e-15 -3.11684893140417e-17 7.49094931826542e-31)
(-0.0607100714993396 -0.000484097104615635 -3.63548729178408e-15 -13.1530798492188 0.056011696134767 -2.2350367349812e-16 -1.20187431706327e-30 5.12495253586942e-33 8.55070260525537e-50)
(-0.0601681544595084 -0.000610377204229401 -1.88525537219769e-19 -13.6368897754795 0.0539414525536466 -1.00734717095317e-18 0 0 0)
(-0.0576542783161144 -0.000757448576627704 1.87559911830814e-19 -14.0845647465931 0.0496566704605044 9.87643927222743e-19 -1.9845800945818e-19 -3.58155342871374e-22 -1.30703368819729e-40)
(-0.0522492515895304 -0.000919969198727975 4.45668994111724e-15 -14.4706993089283 0.0422114913043279 3.48517948945881e-16 1.98458009458181e-19 3.58155342871375e-22 1.3070336881973e-40)
(-0.041910440586742 -0.00113647401573116 4.53882390152745e-15 -14.7586658878072 0.0299346688812026 1.45505401685074e-15 8.19421025967551e-15 -1.63333356849262e-17 -9.93999070776113e-31)
(-0.0227684793454317 -0.00145779519067863 -4.45650141557974e-15 -14.8891903740971 0.00943296692248276 -8.68506276695223e-16 8.12511597786524e-15 -5.48902505307985e-18 6.95067305595898e-31)
(0.00761278409248412 -0.00165699306954962 -4.53901146143961e-15 -14.7713131322967 -0.0243571701012071 -3.92305676257111e-16 0 0 0)
(0.0542489613409132 -0.00146912027772406 2.57513720041808e-19 -14.2952664404767 -0.0764259083768885 2.43765492376343e-20 0 0 0)
(0.158210173922093 -0.00373373914442181 -2.6090753759533e-19 -13.2518021349455 -0.160764964610171 1.38680764374868e-18 1.84496865250502e-19 1.76235270893897e-21 4.59374196435049e-40)
(0.348414757872646 -0.0187210069080158 -3.1631664179551e-18 -11.0766481674332 -0.3464604655456 -1.75560237932048e-18 -1.84496865250458e-19 -1.76235270893855e-21 -4.59374196434939e-40)
(0.683830475529348 -0.00755785685177068 2.05537635640072e-17 -7.44288734826978 -0.754446482594551 -6.80186229161983e-19 -1.55366557361043e-19 -1.72769263592885e-20 4.68648410574755e-36)
(1.13067186927328 0.195087519002684 4.67841083651194e-18 -4.12691525158847 -1.08023653557932 -1.03087423479323e-17 1.56129553227179e-19 1.73617723107955e-20 -4.70949914875378e-36)
(1.27745197121503 0.480864813107233 1.18573865144246e-16 -3.02274080174065 -1.28184541849106 -2.55416194267648e-16 0 0 0)
(1.44041956636335 0.79625471313353 1.72551862906054e-16 -2.4867094609041 -1.45500664724094 -3.10415297187086e-16 9.17916746723655e-18 5.34867213270283e-18 1.15236330943427e-33)
(1.70722476175591 1.21493839477573 -2.49900952676617e-16 -2.35906891701845 -1.73429029957116 2.29522820795123e-16 3.02645881236466e-20 2.13478136407076e-20 -5.65648399828284e-36)
(2.09111699761555 1.79203100894865 -9.03744229123605e-18 -2.42540768213217 -2.12406360609246 5.96438079925738e-17 0 0 0)
(2.5843753138305 2.56268333747219 -1.52598072158606e-16 -2.60314522903241 -2.6217400604361 1.53275607621555e-16 1.19131344327383e-17 1.19844548326389e-17 -6.9927121453657e-34)
(3.19577323529214 3.56023842900368 1.57881182580417e-16 -2.86751896325429 -3.22949069027528 -1.41488561760481e-16 -4.50017491837115e-20 -5.14460986948649e-20 1.17182852205735e-37)
(3.92737775761202 4.78717615864371 9.32224748493175e-17 -3.21523769613899 -3.94699785621068 -4.23584395189706e-17 1.64701540048392e-17 2.02009585621563e-17 2.38515205451801e-34)
(4.72791787578302 6.16367409821588 -2.96614657111724e-16 -3.60797252154393 -4.72453617491773 1.63205338917661e-16 -1.92138499741032e-17 -2.51420440806353e-17 9.21457620581001e-34)
(5.53918290311596 7.59105058108634 -5.98119351191468e-17 -4.00538178310218 -5.50378854061648 4.3916206437347e-17 9.86481067872162e-21 1.62611967529187e-20 -8.61507595386975e-38)
(6.32138813043845 8.98435876307031 2.42359651870722e-16 -4.3896238162125 -6.24773165299893 -1.6532875015172e-16 2.4816423063838e-17 3.5317477874561e-17 9.35279225397258e-34)
(7.04511222676467 10.2698960516366 1.8132375156491e-16 -4.75115430967525 -6.92909978170719 -1.20384260531985e-16 1.17395812845641e-19 1.66006541148213e-19 5.34792927363559e-36)
(7.68679792495374 11.3826734416885 6.73931488947722e-17 -5.08276174250712 -7.5244278840306 7.19349203547345e-18 -1.21751218026112e-19 -1.72165412847152e-19 -5.54633838464716e-36)
(8.20168100510407 12.2395508046342 -4.66474047103577e-16 -5.36019949534037 -7.99458247783625 3.03665481022292e-16 0 0 0)
(8.52635198098942 12.7748540605844 -6.78795238414383e-17 -5.53064310963585 -8.28467461938875 -8.36377214299364e-18 -7.15527373173906e-20 -1.00194390354144e-19 -3.11462753321053e-36)
(8.64652834987355 13.0297849337424 1.80881434819845e-16 -5.55736258254226 -8.37813413571251 -1.42676047222473e-16 7.39588451104067e-20 1.03563632573043e-19 3.21936328282635e-36)
(8.59043186387889 13.0517341076393 -8.96498316338789e-17 -5.46027190461925 -8.30408876750612 5.7868887249315e-17 -3.25832624281976e-17 -4.95532543881928e-17 3.49840634821056e-34)
(8.37409186515128 12.8575803919335 -5.72862141879716e-17 -5.2529616521686 -8.07714578106732 6.50233085844035e-17 -3.17391725023139e-17 -4.87827349986428e-17 3.64096387636843e-34)
(8.00896747198495 12.4541765180991 -2.86063943055911e-16 -4.94766444866652 -7.70817027002068 2.34951393768169e-16 0 0 0)
(7.5028472499419 11.8390025579662 1.13708362381222e-16 -4.5549018528071 -7.20363598835967 -7.17329311328072e-17 2.80293451065722e-17 4.431563119046e-17 4.37888596306538e-34)
(6.85432509463428 10.9972465607658 -1.02770725850387e-18 -4.08103923342737 -6.56475654423337 1.80012012351554e-19 0 0 0)
(6.07889117861299 9.92377560197999 -3.50519539302166e-16 -3.54316518740148 -5.79954088095263 1.7938271994927e-16 0 0 0)
(5.15231618430801 8.524378464991 -1.45838082815346e-16 -2.94731839570256 -4.888008452402 8.63248293418356e-17 -1.88116929850485e-17 -3.11911836844055e-17 5.49431406495093e-34)
(3.93606993193404 6.52814980175637 -2.90963366962962e-16 -2.22741756612081 -3.70443341422346 1.9727220297287e-16 -1.04648164856386e-20 -1.50995384332806e-20 1.20258010939554e-38)
(2.24472893973723 3.72051246992334 -7.95609601285269e-19 -1.23621156563395 -2.06682003991995 -7.02822844973207e-19 -1.52261513403536e-21 -1.90925335485938e-21 6.19024984684696e-37)
(-0.236481333188888 -0.176675174976563 1.2013025057822e-16 0.290930539339167 0.306562756574737 -1.0185912975094e-16 -1.76735512882467e-18 -1.85856314664634e-18 6.19359615935725e-34)
(-3.85663777315108 -5.33714317286734 2.97424132447082e-16 2.7594724861171 3.77000514854997 -2.23963006288084e-16 1.62428533816803e-17 2.21898764389214e-17 -1.31803094207545e-33)
(-9.56126200854975 -12.2087091417698 7.42041063449791e-18 7.2740586888784 9.14788741104857 3.05475221938153e-19 -1.76819951447929e-21 -2.20856597120903e-21 1.59404925288147e-37)
(-17.9645333477299 -19.9650891708955 -4.21587701725409e-16 15.7287262769628 17.0894360563857 3.66814327546944e-16 7.97856051250978e-17 8.66338129769291e-17 1.85733527763648e-33)
(-29.5190324061246 -25.842541959687 7.42761980701759e-17 32.7703483023125 27.7859148051982 -4.19257355349735e-17 -1.45882119434062e-16 -1.23605949125754e-16 1.82887208168049e-34)
(-33.1524129560837 -19.4061949032223 -2.22000237348379e-17 56.715575861582 31.6638998294756 4.53431179139888e-19 0 0 0)
(-19.5051069386369 -6.26974328104384 -7.77499000826303e-18 66.3785305606836 19.0252824276789 2.73174834317433e-17 -1.11274924539672e-16 -3.18707713753242e-17 -4.58168563016121e-35)
(-4.3081871648112 -0.755357536563775 -7.1486867097421e-19 46.9834966626928 4.31125305762894 1.11328431884505e-17 -1.34710570817088e-20 -6.03652327052408e-22 -3.99741549780529e-43)
(-0.617223373865438 -0.074960399260397 1.31674510266875e-21 26.3321452080995 0.440342699227914 1.42842635161744e-20 1.3433983395178e-20 6.01991015916167e-22 3.9864142134814e-43)
(-0.281403138703035 -0.127118640155614 6.5914554805031e-21 26.6163882331373 0.245709892149814 -5.90402075235186e-22 0 0 0)
(0.739501567499268 -0.226064449426355 -3.20795218435879e-19 24.5308220852163 -0.786971270471921 -1.21094397013328e-18 -9.94836774588812e-18 3.21034241883756e-19 4.90802857365036e-37)
(2.53511034550413 -0.386193022463009 -6.19570448472423e-19 16.1997951777352 -2.34099667227147 -2.24645457920082e-18 4.69187869660313e-17 -8.16897310729582e-18 -5.02693995455143e-36)
(-0.407371806351785 1.01079644602426 8.05610231837214e-18 1.88427403755122 0.518848771068215 2.13510926273941e-19 0 0 0)
(-4.35595694165227 4.52287236818239 9.91627618410009e-18 -4.49004829121673 4.53185139702976 1.31944500524869e-18 4.78751260435751e-17 -4.54429698665508e-17 -2.69081844346384e-34)
(-4.21045097562354 4.97896958782865 1.22076641240306e-16 -3.80805153136145 4.32320500437709 1.09334078137889e-16 2.0883091640052e-17 -2.38499624533151e-17 -1.0211943467657e-34)
(-3.11860069144308 4.20519564118145 1.55566469521182e-17 -2.44710004960216 3.20540781604489 -2.55996239243564e-20 -1.29047332089295e-20 1.5877657222135e-20 1.62056649072497e-37)
(-2.39305860773214 3.53192907019258 -2.78551536095184e-17 -1.68624685419665 2.44560934761334 -1.80142612218173e-17 3.00596887564378e-17 -4.37452808415247e-17 -9.03617275129039e-34)
(-1.81153743575202 2.83009965979856 -1.28472997326782e-16 -1.19724718168482 1.84937229145131 -4.33596374699173e-17 -1.57776882902594e-21 2.39181786981131e-21 9.31807941929636e-38)
(-1.39951667744918 2.26750404347492 3.09554744759681e-17 -0.884310646898247 1.42272467307744 1.88265185486133e-17 -1.6449315579438e-17 2.65817952235305e-17 -9.68768955056894e-34)
(-1.11469615854533 1.85030043375763 1.45233149520488e-16 -0.683464823407959 1.13013218118275 6.73926671065825e-17 -4.33728600645525e-18 7.17317974876247e-18 4.3255021967522e-34)
(-0.944558526707614 1.58577666322572 -1.79505511199131e-17 -0.569049535807371 0.955205904729436 6.11757801964537e-19 -1.01539149188619e-20 1.70788867090882e-20 -8.82305290111824e-37)
(-0.84524652536976 1.40970230765865 9.45868196930303e-17 -0.509874960099501 0.852780283282312 6.87729053644173e-17 -3.16559652956731e-18 5.26882121199226e-18 -4.25020257681877e-34)
(-0.784441103662729 1.29120459976658 8.9204314258775e-17 -0.478151547453118 0.789924272186169 4.33117641004065e-17 -5.90671103383142e-18 9.72520325555209e-18 -4.43823304993634e-34)
(-0.748477253214575 1.21726601321994 1.7290627004379e-17 -0.46124010861009 0.752810532721862 -1.10870619795827e-18 -8.27939595249025e-21 1.35661556163839e-20 -8.24639451601856e-37)
(-0.729497623618528 1.17278173394436 -2.00898153189586e-17 -0.45451168941678 0.733266563171419 1.43214335205566e-18 0 0 0)
(-0.719073366993575 1.14261834365935 -1.0304745168481e-16 -0.453210239178053 0.722600050429046 -5.0549129747573e-17 -2.74923946044808e-18 4.34015850532974e-18 -1.47273830129079e-34)
(-0.710216296521517 1.11557310825598 1.73760858137929e-16 -0.453007445376263 0.713870486823711 9.86682401893083e-17 -5.38805661209453e-18 8.44858746880555e-18 4.62297220352778e-34)
(-0.696831093797692 1.08110465694899 1.61167935514953e-16 -0.450202405424645 0.70068275504409 7.41261752823006e-17 -1.55794647478134e-20 2.42947042240388e-20 -1.69597798738875e-36)
(-0.671767395266072 1.02736894182291 3.22515944998538e-18 -0.440480846536698 0.675919464412591 1.9699371214653e-18 5.22297289369764e-18 -7.9991980782238e-18 -4.65400503522602e-34)
(-0.627995891979493 0.941765107017096 -2.10422511773998e-17 -0.41916097574536 0.631673097749721 2.169310512192e-18 -2.90870938747162e-20 4.43971807940066e-20 3.45621918908281e-36)
(-0.560664837153367 0.813567695271859 -2.28964162375876e-17 -0.384623432662746 0.563102116060398 2.80927330436963e-18 0 0 0)
(-0.470124243522386 0.64509695943523 3.61362885084898e-17 -0.337197303703674 0.470335467792388 2.50751241558518e-17 -1.7480456269681e-18 2.53733515177524e-18 -1.43295915180193e-34)
(-0.357900911199756 0.445427983657662 2.23613887328757e-17 -0.276076176847664 0.35492583102983 -2.62880919480919e-18 0 0 0)
(-0.227333342355433 0.229082713030807 -1.29890838846688e-16 -0.200247133363511 0.220469860897015 -5.07126624257446e-17 -5.17068285426964e-21 5.3342114431033e-21 -7.52925026973191e-36)
(-0.0847175648117189 0.0167500791310797 -4.55769897431566e-17 -0.109238902292795 0.0737673302833607 -3.2565980175675e-17 -5.53331740685811e-19 2.14666892971492e-19 -7.57527665686945e-34)
(0.0599313461458919 -0.165821923814246 7.29227862519388e-17 -0.00363243462398211 -0.0743327179993902 -1.01105656083225e-17 -1.0554745624849e-20 1.41117799733089e-20 -3.73507438975796e-36)
(0.192024409230638 -0.29172943209844 2.53148054180417e-17 0.113878441713763 -0.208264046265809 7.43524110445824e-17 -1.32180596174938e-18 1.52678728643036e-18 -1.33894017148623e-34)
(0.294437498134275 -0.344416989835708 -3.19197494877054e-18 0.23739050209316 -0.310854477202978 2.8124720815892e-17 4.84485475618279e-18 -5.21281843677421e-18 -1.04132959921118e-33)
(0.35267834092492 -0.325107114173343 7.58017181453848e-17 0.356978575486444 -0.367681167246211 -1.02857649276462e-17 2.20109359707047e-20 -2.14624632649225e-20 -6.86200626420664e-36)
(0.356329100151698 -0.248532056301936 3.72409074871054e-15 0.458304429280956 -0.368525613007595 -5.53255564575817e-16 -4.27948511309131e-18 3.19764748563654e-18 -1.63276879960005e-35)
(0.305587143918629 -0.14478898869077 1.05947754372561e-14 0.527040192541461 -0.3150752875325 1.10740657653022e-14 -3.43287067720583e-16 1.87495645286211e-16 -3.32195295270636e-30)
(0.215864837989098 -0.0493513062313966 1.97275059379696e-15 0.5547577369928 -0.222168692141067 1.41860486449544e-14 -3.22309518476309e-16 1.20291671136374e-16 -2.05816614120119e-30)
(0.112340802604588 0.0109200781070822 -3.74572264319411e-15 0.555292178768606 -0.117094918613585 3.87156700008517e-16 1.96771395288468e-18 -3.98372744238517e-19 -9.52982400423918e-37)
(0.0136337414204779 0.0190294298565108 1.32274502144486e-17 0.537467264839502 -0.0161270178986283 -2.71297037661811e-18 5.88597081349125e-22 -2.54828448701773e-21 -1.7339981310911e-36)
(-0.007135142224681 0.00332030776751157 -4.30436983330948e-19 0.493587024227218 0.00538349242766459 -1.81859533862756e-18 9.31656330874861e-22 -4.33542269326444e-22 5.62034123406536e-38)
(-0.0103321216263481 0.000405021594121536 2.14470189815857e-19 0.440279978871423 0.0090266352199044 6.59818963451389e-19 4.47721918307788e-20 1.91145433634513e-22 -8.38574089873392e-38)
(-0.0156110726530222 0.000752569211472222 -4.83457154629416e-15 0.366380798351971 0.0141654939495764 4.36664534470703e-16 -2.17115482875779e-20 -1.22015142239782e-22 2.79267053859945e-38)
(-0.0243809893785588 0.00120166965102979 -4.70381586676306e-15 0.262261768904736 0.0233520072075512 -1.70298472474427e-14 2.97605127045172e-16 3.55672009492784e-18 -4.93149996382165e-30)
(-0.0359608727885348 0.00149754304412302 4.83478126290317e-15 0.115813787599736 0.0348058378934344 -1.84174536608078e-14 2.3380020454969e-16 5.08990475676047e-18 -3.32810430541321e-30)
(-0.0492430376822787 0.00175691847453626 4.70382090844075e-15 -0.0777497944454341 0.0481598715236187 -3.88372362368577e-16 1.17941520611504e-20 5.72724373371827e-22 -6.14191500428404e-34)
(-0.0637088605185278 0.0019151207573245 -2.17801160641411e-19 -0.321995858516065 0.0625553071916541 1.17978074158306e-18 2.95430672627353e-21 -1.05219324587031e-21 2.83240221819521e-38)
(-0.0781640961471245 0.00193999588004245 -5.57356019132871e-21 -0.61498968902926 0.076958758943625 -3.9771549436207e-19 -1.61147274625369e-20 2.35769741205592e-21 -5.73758003741279e-38)
(-0.0914797300069714 0.00180752454473759 4.37443170403011e-19 -0.950852809768387 0.0901572100580135 -1.04369768306715e-18 1.31604207362601e-20 -1.30550416618519e-21 2.90517781921658e-38)
(-0.102602741113051 0.00154084168937832 -1.1227379720738e-19 -1.31990087471664 0.101137391758644 2.56693890991705e-19 -3.34680738228886e-32 1.53007001419444e-33 3.50769489418068e-50)
(-0.110892374368676 0.00118328567067198 4.62505614919159e-15 -1.71069358479758 0.109246533080602 -2.66475959297076e-16 2.64909379058614e-20 -9.48607586281823e-22 -3.0196023876556e-34)
(-0.116128111832705 0.000789947237584163 4.42917165013659e-15 -2.11172926933363 0.114282438441456 1.76499001755019e-14 8.67400267890735e-16 -2.35070653472583e-17 -4.03701899993696e-30)
(-0.1184967583376 0.000411705245333613 -4.62486383359326e-15 -2.51298187636364 0.116443641264927 1.8306230150059e-14 1.06767848126232e-15 -2.36275823698328e-17 -2.7915129749567e-30)
(-0.118454786248335 8.58812246252943e-05 -4.42936862368839e-15 -2.90671033691836 0.116203958306763 2.1835516459982e-16 9.13510228895711e-20 -2.05972532303011e-21 -2.89190588353769e-34)
(-0.116592500032156 -0.00016755133660083 -2.84721998424736e-19 -3.28768617862861 0.114166626328253 -4.17743361806082e-21 -4.95422581773338e-20 1.03266610201286e-21 6.39916637675868e-39)
(-0.113513769335142 -0.000343678220353756 1.85192425754462e-19 -3.65297271907872 0.110944636538855 3.91043840262912e-19 -6.45650815404526e-20 9.9928973484651e-22 -9.87669206219865e-41)