/*--------------------------------*- C++ -*----------------------------------*\
  =========                 |
  \\      /  F ield         | OpenFOAM: The Open Source CFD Toolbox
   \\    /   O peration     | Website:  https://openfoam.org
    \\  /    A nd           | Version:  7
     \\/     M anipulation  |
\*---------------------------------------------------------------------------*/
FoamFile
{
    version     2.0;
    format      ascii;
    class       volScalarField;
    location    "20000";
    object      k;
}
// * * * * * * * * * * * * * * * * * * * * * * * * * * * * * * * * * * * * * //

dimensions      [0 2 -2 0 0 0 0];

internalField   nonuniform List<scalar> 
15600
(
1.00726911399017e-05
7.66609648666722e-06
3.48785739917512e-06
1.04076930705352e-06
1.86222101989188e-07
1.2312322447794e-07
9.01365576854225e-08
3.67959277707786e-08
1.3054955277242e-08
5.55949059542284e-09
3.36707752685776e-09
2.88798157009048e-09
3.04121947620077e-09
3.51870343486202e-09
4.22479002545008e-09
5.19429140091039e-09
6.50039668276165e-09
8.1994660248864e-09
1.03602989482549e-08
1.30540017066084e-08
1.63906092989496e-08
2.04151756235266e-08
2.49971034982042e-08
3.00265829629056e-08
3.51467636023916e-08
3.97438277705059e-08
4.29541860078803e-08
4.38096791622953e-08
4.15945939562426e-08
3.61188891317722e-08
2.85293224573267e-08
2.10690437891901e-08
1.55137733077883e-08
1.2608443385949e-08
1.20357673314956e-08
1.43846004706813e-08
1.87229813584481e-08
2.47594753121312e-08
3.26879551688748e-08
4.32983718010948e-08
5.73826598874774e-08
7.57119781228178e-08
9.90108128568895e-08
1.27950085104475e-07
1.63021002459868e-07
2.04440703117006e-07
2.52147261745e-07
3.05833426440891e-07
3.65009041250809e-07
4.29082216048131e-07
4.97439737167165e-07
5.69514152846022e-07
6.44831540740796e-07
7.23040500054901e-07
8.03926212814422e-07
8.87414619137697e-07
9.73571284751193e-07
1.06259846065195e-06
1.15483271521314e-06
1.25074456981182e-06
1.35094099397226e-06
1.45617123913636e-06
1.5673364113587e-06
1.68550321319515e-06
1.81192250632444e-06
1.94805365350161e-06
2.09559607904415e-06
2.25653015338516e-06
2.43317044712094e-06
2.62823569444044e-06
2.84494183797801e-06
3.08712762160851e-06
3.35942746942035e-06
3.66751539981874e-06
4.01846216995299e-06
4.42129006473022e-06
4.88789138867284e-06
5.4346482057186e-06
6.08562073526926e-06
6.87964094181253e-06
7.88752657704416e-06
9.27709079915004e-06
1.10574151970604e-05
1.31244201779712e-05
1.53154902483026e-05
1.42301951237603e-05
6.33530094060503e-06
3.29874843964326e-06
2.10958768427096e-06
1.58960845872942e-06
1.4270229040948e-06
1.40753965005052e-06
1.46207306217067e-06
1.58360619899468e-06
1.76606407694392e-06
1.99357883106608e-06
2.25699948458779e-06
2.55374521844463e-06
2.88907740704336e-06
3.27004388466416e-06
3.65981110132318e-06
3.97105987741638e-06
4.18482850346037e-06
4.3062727663405e-06
4.34713672862707e-06
4.32348897714264e-06
4.25989945795553e-06
4.18591437901031e-06
4.22718255827714e-06
4.50267353941827e-06
5.10744472136153e-06
6.26093212574136e-06
8.33414131343338e-06
1.2895406894934e-05
2.34732600131709e-05
4.95371745255192e-05
6.17132629730346e-05
3.77259357887274e-05
2.02684988486503e-05
1.25265093272425e-05
0.000322957883994745
0.000247047426332415
0.000114176237152273
3.59138467534758e-05
6.92960551147271e-06
4.11536112301375e-06
3.05182471438511e-06
1.31742143920785e-06
4.80353457950296e-07
2.00307243354877e-07
1.1585470762777e-07
9.5725358976438e-08
9.89176471882666e-08
1.1348551272158e-07
1.35659491657494e-07
1.66247633132285e-07
2.07570277383511e-07
2.61457809808084e-07
3.30114874384863e-07
4.15771759633495e-07
5.2199130569327e-07
6.50800524066119e-07
7.98195459103202e-07
9.60954867461009e-07
1.12845934004577e-06
1.28183055513252e-06
1.39391931911703e-06
1.43272469150647e-06
1.37269295265968e-06
1.20367415879475e-06
9.58287276535973e-07
7.08926318886984e-07
5.18010679897537e-07
4.16481019694401e-07
3.93908257495473e-07
4.68413541747989e-07
6.09250709137939e-07
8.05592745800776e-07
1.06333172394645e-06
1.40818628498825e-06
1.86570737750337e-06
2.46075209923099e-06
3.21663308958856e-06
4.15461307371934e-06
5.29084810508548e-06
6.63200944958771e-06
8.17595762424235e-06
9.91266508460615e-06
1.1826235789832e-05
1.38975215202882e-05
1.61067081155293e-05
1.8435470227424e-05
2.08685035902171e-05
2.33944534232599e-05
2.60063629118169e-05
2.87018039682191e-05
3.14828372811471e-05
3.43559139553109e-05
3.73317950636039e-05
4.04255348900766e-05
4.36565551533094e-05
4.70488253019921e-05
5.06311613848641e-05
5.44376568307035e-05
5.85082654590803e-05
6.28895667065331e-05
6.76357582308384e-05
7.28099420891813e-05
7.84858003618449e-05
8.47497968252504e-05
9.1704105281554e-05
9.94705622979234e-05
0.000108196107667909
0.000118060456767744
0.000129287319632182
0.000142161797540832
0.000157059124769698
0.000174495090879028
0.000195224504436297
0.000220458996531766
0.000252379049011426
0.000295738936095108
0.000346652131993321
0.000400888904196765
0.000444098938833312
0.000396228156708666
0.000191170758524977
0.000102595890379277
6.68492138823846e-05
5.1274935960372e-05
4.65646905479554e-05
4.62692113781411e-05
4.83191663776545e-05
5.2544022285905e-05
5.87167294928884e-05
6.63138885383121e-05
7.50585056275065e-05
8.48904183996977e-05
9.59890349255805e-05
0.000108487186881252
0.000120824957233203
0.000130417102793369
0.000136906175382655
0.000140503933339917
0.00014160105184765
0.000140729885262745
0.000138700248132469
0.000136649226396837
0.000138674585200653
0.000148513972868064
0.000169383697613997
0.000208545389963856
0.000279129160160839
0.000431531134815433
0.000769377587939509
0.00150538591152394
0.00184464913048209
0.00117329520922361
0.000640791790725104
0.000402860792189421
0.00226304313459867
0.00174712715409785
0.000824860548260341
0.000275983874165951
5.72937174617002e-05
3.06394921800182e-05
2.30404293763507e-05
1.05123127038799e-05
3.95735356193877e-06
1.63095176177893e-06
9.05549652335492e-07
7.21092560241988e-07
7.31063857858071e-07
8.31347485609311e-07
9.89012754168218e-07
1.20762218332386e-06
1.50372873698746e-06
1.89072412092059e-06
2.38455525846045e-06
3.00101336866886e-06
3.76492961469502e-06
4.69597355022052e-06
5.76600338912151e-06
6.95233623576612e-06
8.18336120677293e-06
9.3286829162202e-06
1.01999513534539e-05
1.05644235966796e-05
1.02185754716967e-05
9.06077860996367e-06
7.29038887017413e-06
5.42176882247875e-06
3.93563323574758e-06
3.12873422901854e-06
2.92470451293728e-06
3.4567242431937e-06
4.4939694957059e-06
5.94266982391169e-06
7.84354097947826e-06
1.03871665883379e-05
1.37599644482044e-05
1.81353991155167e-05
2.3671642484108e-05
3.05395241556652e-05
3.88411712984839e-05
4.86171911688003e-05
5.98434910683724e-05
7.24387397286225e-05
8.62798275111884e-05
0.000101221349277888
0.00011711451550855
0.000133822600629573
0.000151231656698801
0.000169256739229263
0.000187844631074697
0.000206974284766317
0.000226656059534005
0.000246930554735173
0.000267867569154808
0.000289565488821377
0.000312151270742579
0.000335781098849686
0.000360641768121153
0.000386952850982861
0.000414969742258353
0.000444987732644133
0.000477347346146427
0.000512441292259011
0.000550723540405381
0.000592721221694158
0.000639050372014706
0.000690436950007785
0.000747745245163992
0.000812016880145598
0.000884525770586216
0.000966859223140836
0.00106104408549392
0.00116975508556163
0.00129669852795981
0.00144738814772442
0.00163062876397928
0.00183081251170975
0.00203237590390913
0.0021971618717013
0.00223878780708707
0.00192047847544012
0.00111466580711767
0.00067622169410182
0.000470170172755236
0.000375518760583118
0.00034526561868633
0.000345447879912039
0.000362183617542431
0.000394542315322952
0.000440699000236416
0.000496854748744004
0.000561117698400194
0.000633166925552097
0.000714181309229208
0.000802165085326314
0.000884687070414654
0.000947940947404027
0.00099057256143694
0.00101420071194599
0.00102145852922447
0.00101597615384049
0.00100336254157673
0.000992592729691999
0.0010118765198527
0.00108705014914479
0.00124179382538308
0.00152445116774681
0.00202343954391068
0.00303416203600458
0.00502531027022256
0.00854485299655166
0.0101793796615019
0.00738196010322413
0.00422535200527132
0.0027723673071361
0.00700825273907386
0.00565389686402366
0.00286369771662727
0.00106241170339052
0.00024349502241124
0.000116859012933418
8.88020738710418e-05
4.28772086470236e-05
1.67445234199533e-05
6.87408221221175e-06
3.6775000581037e-06
2.81715452443835e-06
2.79595825005644e-06
3.14755102566743e-06
3.72392140222344e-06
4.52824913843862e-06
5.6207609839511e-06
7.05152430863063e-06
8.87949360603423e-06
1.11614037098086e-05
1.39798542434286e-05
1.74227368428223e-05
2.13872394963496e-05
2.57849905559395e-05
3.03640797863991e-05
3.46650622167647e-05
3.80210953781462e-05
3.96216928971206e-05
3.86660072219369e-05
3.4690332830123e-05
2.82722673499519e-05
2.1215891461793e-05
1.53549103537947e-05
1.20869666502587e-05
1.11885289590783e-05
1.31982938348085e-05
1.71801011744675e-05
2.27299292395908e-05
3.00144922492029e-05
3.97659387820626e-05
5.25991569528706e-05
6.90671329934359e-05
8.98554804620872e-05
0.00011543310461158
0.000146047858312263
0.000181700036147419
0.000222146170764641
0.000266944768236382
0.000315527579163088
0.000367277990473987
0.000421599704792907
0.000477967016793915
0.000535954835176742
0.000595251685417739
0.000655660760147325
0.00071709406159289
0.000779563563656916
0.000843172004032255
0.000908104825786852
0.000974623960970834
0.00104306371023683
0.00111382867555251
0.00118739365515882
0.00126430536505626
0.00134518592915002
0.00143073812184044
0.00152175240845573
0.00161911585754899
0.00172382298755172
0.00183698842456758
0.00195986100881294
0.00209383831436534
0.00224047948597177
0.00240151240259801
0.00257882812245107
0.00277445157514751
0.0029904704520045
0.00322889466170787
0.00349144160507237
0.0037795190923961
0.00407195637025858
0.00434546365820932
0.00457047956421284
0.00468444333378165
0.00457228620369302
0.00398911066290081
0.00281763436929267
0.00202078699012299
0.00156793361487337
0.00133964963843825
0.00126128210450908
0.00127414471765869
0.00134125608630268
0.00146055869254969
0.00162540970264129
0.0018230625599367
0.00204728186166274
0.00229676087091895
0.00257038703811228
0.00284759037262548
0.00310318840837575
0.00330140383862523
0.00344101770593868
0.00352638635448478
0.00356441619333357
0.00356528706901887
0.00354604985694306
0.00353822167518505
0.00363111663127766
0.00390839028357343
0.00444886513334136
0.0053766704485353
0.00692332853967385
0.00969574788380027
0.014203474296378
0.0202376851860791
0.0226668111059668
0.0187497004905586
0.0118417637629522
0.00830158336617977
0.0130986063008361
0.0110495571000881
0.00627558071062179
0.00269104945964103
0.000738816062776644
0.000316773794850795
0.000240457491526112
0.000123027254958882
5.00795176628389e-05
2.06364400155459e-05
1.0685648122787e-05
7.86194075885902e-06
7.61823409469236e-06
8.47806305279e-06
9.96837002870372e-06
1.20649058387706e-05
1.49206102757141e-05
1.86663083533903e-05
2.34539369604182e-05
2.94237693035763e-05
3.67524728024187e-05
4.5687755628482e-05
5.59614677919125e-05
6.73120166930612e-05
7.90977209495894e-05
9.01773077503699e-05
9.89109570255819e-05
0.000103410997411744
0.000101656883588739
9.22772354705397e-05
7.63279703792008e-05
5.80479315512177e-05
4.21636461130495e-05
3.29925809415949e-05
3.0410518202175e-05
3.6049531682715e-05
4.70702059343121e-05
6.23019999628855e-05
8.22843710551509e-05
0.000108610940728862
0.00014252209526698
0.000185594219262633
0.000238859992738379
0.000302800913404922
0.000377273134243319
0.000461534211139085
0.000554365915535565
0.000654265397928773
0.000759648058289798
0.000869019296295967
0.000981091374293053
0.00109484406755867
0.0012095400448553
0.00132471089857422
0.0014401280270053
0.00155576882224657
0.00167178445529506
0.00178847233795217
0.00190625425726483
0.00202565990496576
0.00214731501915914
0.00227193304383684
0.00240030927517308
0.00253331639553787
0.00267190038217057
0.00281707571962456
0.00296991875768148
0.00313155787138732
0.00330315882419281
0.00348590317528813
0.00368095701162962
0.00388942609247483
0.00411229192528415
0.00435032071651614
0.00460393282349697
0.0048730138078832
0.00515663425234837
0.00545260085005624
0.00575656672481251
0.0060588054794465
0.00632890375328759
0.00655291914355207
0.00669661493979294
0.00670204801298789
0.00646895426389118
0.005805539280023
0.00464052582872463
0.0037739916222797
0.00324331400382904
0.00297597815307037
0.00290270979322535
0.00297696802320167
0.0031537116415742
0.00343084918776395
0.00379466678131581
0.00422057081962742
0.00469569953622066
0.00521373944773847
0.0057423666488273
0.00627313183967783
0.00676096800440259
0.00715783008279302
0.00746476285477838
0.00768771727031368
0.00783630603848146
0.00792614988794946
0.00798659459345273
0.00807996725856962
0.00836933206521672
0.00901137493052647
0.0101461829747214
0.0119159299323279
0.0146162643736246
0.0187994349015759
0.0244621533317796
0.0305817229633603
0.032706255915296
0.0290974026448609
0.0206417234855822
0.0153378937447339
0.0190291111324337
0.0163796552964781
0.0103733926770026
0.00509359668809942
0.0017621908663295
0.000704474105589891
0.000523889994800839
0.000284398601521214
0.000121344517026974
5.05929305794698e-05
2.55019070727588e-05
1.80050475041463e-05
1.69849663092356e-05
1.86545449660088e-05
2.17786505358014e-05
2.62176935584126e-05
3.22794459109278e-05
4.02348569707907e-05
5.0392219862967e-05
6.30184055727431e-05
7.83741332624601e-05
9.69484131393986e-05
0.00011816646534583
0.000141363138741467
0.000165177422382279
0.000187326425173136
0.000204663864712728
0.000213743618346342
0.000211076262302598
0.000193701279686135
0.000162925232589042
0.000126228961473897
9.29496990133737e-05
7.27740105564038e-05
6.7386129088544e-05
8.08430265775017e-05
0.000105856374255362
0.000139795306770031
0.000183061135584417
0.000238237798954239
0.000307760703893899
0.000393073154031251
0.000494542855554277
0.000611545080890455
0.000742567815548172
0.000885464556289533
0.00103776367075104
0.00119696999594932
0.00136079967186988
0.00152732898386629
0.00169506177847537
0.00186293575647207
0.00203028939546654
0.00219680928916981
0.00236247189322365
0.00252748854635812
0.00269225799067431
0.00285732759006565
0.00302336260161946
0.00319112192116096
0.00336143847646395
0.00353520234548717
0.00371334493040472
0.00389682258862183
0.00408659835824141
0.00428362054969563
0.00448879709035934
0.00470296459533959
0.0049268512138219
0.00516103207123445
0.00540587595555763
0.0056614810514087
0.00592759628154084
0.0062035225910522
0.00648798458974719
0.0067789579607025
0.00707343572290194
0.0073671491848482
0.00765457245737641
0.00791271607648532
0.00813084196529475
0.00829157704849038
0.0083648912095823
0.00830214771901274
0.00801946547554458
0.00736600810765531
0.00630970847212845
0.00552115695589327
0.00505991831399184
0.0048720979041295
0.00489295198543238
0.00508735172265096
0.0054195507335288
0.00588512180029946
0.00646329484263066
0.00712115722072118
0.00783901066925775
0.00857795506560293
0.00933058791122515
0.0100777820540468
0.0107693578138192
0.0113614458199572
0.0118575945477261
0.0122652723366697
0.0125963772866989
0.012870960425847
0.0131278148775816
0.0134529988681892
0.014048495567537
0.015108652575764
0.0167808600478287
0.0191581813649165
0.0225069371673252
0.0271513573929396
0.0327520444549039
0.038066148959312
0.0396702283883989
0.0363065994814276
0.0282706134382805
0.0221529912012465
0.0243621035393383
0.0211313200517854
0.0146421429796606
0.00797822559671511
0.00340268937099036
0.00138257533385162
0.000980612844608985
0.000564864684774477
0.000254396160361732
0.000108271607100177
5.35108166962445e-05
3.62653247561148e-05
3.32029488297364e-05
3.591645753175e-05
4.15867763697024e-05
4.97451620314725e-05
6.09065134722641e-05
7.55370225411919e-05
9.41487543141277e-05
0.00011713728284464
0.000144721005546513
0.000177542198366589
0.000214524917814814
0.000254173638480718
0.000293962703815425
0.000330038081413478
0.000357464792068209
0.000371188742110404
0.00036681141454966
0.000339852061884387
0.000291165907722893
0.000231142541366255
0.000174224470452061
0.000138218385598618
0.000130023151250435
0.000158417560565503
0.000207018264345583
0.000269069485321705
0.0003452268686979
0.000439487670114688
0.000553495684709825
0.000687477914227398
0.000840456777993056
0.00101056356232751
0.00119528469560579
0.00139175347025245
0.00159701699659557
0.00180826859540852
0.00202303054261274
0.00223927874101157
0.00245549958555767
0.0026706854895389
0.00288428583624548
0.00309613532189764
0.00330637705052254
0.00351539146351731
0.00372373578238391
0.0039320946901803
0.00414124071056414
0.00435200190503481
0.00456523444322911
0.00478179779118323
0.00500253075237003
0.00522822692375968
0.00545960855076791
0.0056972981135667
0.00594178723937665
0.00619340275245583
0.00645226982872917
0.00671827203391931
0.00699100782439455
0.00726974227126292
0.00755335152489627
0.00784025543187277
0.00812832970836061
0.00841478149885618
0.00869595270693192
0.00896694417453145
0.00922070440707031
0.00943855245162772
0.00961362084914853
0.00973035036343602
0.00976354666374493
0.00967214683757482
0.0093841542761067
0.00877632596787349
0.00784456899456088
0.00717342798093524
0.0068297084703603
0.00676502254688568
0.00692006034379823
0.00725073037553485
0.00773960184099224
0.00837527747681714
0.00913146577159382
0.00997097766543505
0.0108502476077065
0.011752248768773
0.0126666859124379
0.0135686937886656
0.0144119935703969
0.0151615969542793
0.0158223080585352
0.0164034484471051
0.0169198010747465
0.0173963477974032
0.0178801178981436
0.018472293038704
0.0193825832987589
0.020808483046279
0.022848286595406
0.0255716382955772
0.0291860765699314
0.0338325700342502
0.0390255943588053
0.0435022696722289
0.044627554584915
0.0413683899315254
0.0342113304798885
0.0280275741685194
0.0289804734177721
0.0252673305762353
0.0188513095219133
0.0110951526945745
0.00555208300774241
0.00244844476601382
0.00163408550349228
0.00099548111637375
0.000477202725091717
0.000209461690967267
0.000102417113845969
6.67596546512258e-05
5.91406947537511e-05
6.28513595289588e-05
7.2063199959727e-05
8.553313326182e-05
0.000103974398409605
0.000128052583870856
0.00015845062982943
0.000195576381811776
0.000239307534894034
0.000289924058252297
0.000345687727703435
0.000403708978750966
0.000459947203443488
0.000508946545636392
0.000544371733632752
0.000560259625202789
0.000552064397190488
0.000515838343842039
0.000450501770396702
0.000368033115884041
0.000286552355932464
0.00023361202202147
0.000225640170142533
0.000278238101542225
0.000356840271189876
0.000452038073041467
0.000565751173517304
0.000701222558794623
0.000858905315548208
0.0010380759593961
0.0012371739397936
0.00145401633373245
0.00168587090611054
0.00192959580773499
0.00218186660109902
0.0024394797363027
0.00269963763425957
0.0029601348997817
0.00321941776143848
0.00347654497845486
0.0037310940012689
0.00398305068861759
0.00423270487406162
0.00448056171871667
0.00472727042784517
0.00497356821957175
0.005220236001829
0.00546806226057984
0.00571781221333027
0.00597019993299637
0.00622586188683106
0.00648533087127159
0.00674900982259236
0.00701714539049852
0.00728980141853985
0.00756683265110793
0.00784785906046545
0.00813224094546519
0.00841905464976813
0.0087070679755649
0.00899471321509937
0.00928005396268488
0.00956073877641126
0.00983392943663875
0.0100961793058898
0.0103431858394206
0.0105662690187259
0.0107540341450874
0.0109002317205667
0.0109917998162831
0.0110075015336924
0.0109117530888536
0.0106411283468087
0.010092711427532
0.00928378376735212
0.00873632123248554
0.00851687868188996
0.00857793628552022
0.00886362378393004
0.00932664914203531
0.00994790955658956
0.0107182759260507
0.0116074742526056
0.0125635547574443
0.0135586813172998
0.0145786113213148
0.0156084953192041
0.0166223143832742
0.0175795748645855
0.0184527222237891
0.0192469769371316
0.0199733563110981
0.020649480095755
0.0213050623523238
0.0219942000525947
0.0228275355609483
0.0240106940061676
0.0257248255624881
0.0280069192333471
0.030931581822948
0.0346398952920961
0.0391400251114352
0.0438707980905599
0.0476084548546595
0.0483122278324814
0.045092616282801
0.0387395762433323
0.0328399869110757
0.0328894952354218
0.0288649277698962
0.0228415862825184
0.0142989863490076
0.0079666022034773
0.00397353894001689
0.00248734585650212
0.00158442537499986
0.000814594589856468
0.00037310063687843
0.00018247368397132
0.000114885977402486
9.82099788128937e-05
0.000102229866378767
0.000115827891161477
0.000136157997388894
0.000163973256944787
0.000200018027454028
0.000244946842118736
0.000298861871073498
0.000360917964804294
0.000429933001565511
0.00050372536586058
0.000577707183315091
0.000646516025931228
0.000703776131420972
0.000742750929107227
0.000757548678931259
0.000744080250965977
0.000699264035463185
0.000622794582488201
0.000524260970921132
0.000423817891704296
0.00035885676394305
0.000358283052213338
0.000439210992340761
0.000548999612529445
0.000677854395722462
0.000827555567599054
0.00100053234122302
0.0011968678963177
0.00141591927430533
0.00165632383168937
0.00191584173333161
0.00219127948278877
0.00247874916105657
0.0027741699477199
0.00307379767487493
0.00337458274871391
0.0036743064728519
0.00397154567257641
0.00426554861701243
0.00455608462300054
0.00484330312642086
0.00512761569615839
0.00540960297787542
0.00568994296630958
0.00596935571032291
0.00624855970593307
0.00652823618674115
0.00680899852821808
0.00709136487601182
0.007375732910464
0.00766235624357916
0.00795132240611412
0.00824253273096899
0.00853568461521219
0.00883025671456268
0.0091254975792942
0.00942041793628266
0.00971378642331901
0.0100041278619899
0.0102897221002074
0.0105685999745855
0.0108385307072001
0.0110969926780108
0.0113411224897889
0.0115676881720272
0.0117672784876104
0.0119344829373644
0.0120633989474921
0.0121431828871185
0.0121555946311987
0.0120690467730802
0.0118268337976988
0.0113424141125566
0.0106501158891307
0.0102218105594043
0.0101195201772869
0.0102952415521622
0.010695015399532
0.0112737100354629
0.0120056492264352
0.0128771627834183
0.0138547488644756
0.0148973915635039
0.0159807269340257
0.0170891490013216
0.0182058993549167
0.0193056710355356
0.0203531164340634
0.0213259783818995
0.0222296832150973
0.023076686592327
0.0238871864117253
0.0246951291964591
0.0255605395792594
0.0266001207906136
0.0280117894441505
0.029945465971986
0.032394534442498
0.0354409647349873
0.0391594430922218
0.0434555766230152
0.0477206422379047
0.0508036503478265
0.0511370686951626
0.0479375173655558
0.0422290020798613
0.0367255225305656
0.0361578074164087
0.0320113797140141
0.026459515686129
0.0175006979029262
0.0105006633064626
0.00587185676308351
0.00354423126794825
0.00231139984910622
0.00127697013253696
0.000617370671056958
0.00030585967494747
0.000187288021705185
0.000154222962934874
0.000156689660185264
0.000174973627143744
0.000203236802017676
0.00024185017545604
0.000291329054025269
0.000351905887586674
0.000422893667891668
0.000502211180729196
0.00058689228737616
0.000674307032018104
0.000758809071647531
0.000834489294665673
0.00089499548365995
0.000934000014168774
0.000946149417105531
0.000927884944054648
0.000876835906559826
0.000793438206590894
0.000686828966923159
0.000578120209679871
0.000510786814026413
0.000523759910791532
0.000631889276924759
0.000771273569351929
0.000930866125756202
0.00111255261598525
0.00131875932632046
0.00155017376993272
0.00180665028430712
0.00208672402608181
0.0023873468133281
0.00270414659241055
0.00303216558704038
0.00336666567996751
0.00370368762563368
0.00404027424119934
0.00437444612288543
0.00470505009241538
0.00503157241698973
0.00535396369953706
0.00567249364991326
0.00598763733081637
0.00629998842644789
0.00661019319522575
0.00691889939604822
0.0072267155695711
0.00753417736466036
0.00784171871086248
0.00814964653951649
0.00845811848578191
0.00876712353660217
0.00907646596612732
0.00938575314482793
0.00969438787932766
0.0100015658935101
0.0103062788980013
0.0106073233246801
0.0109033143234159
0.0111927039299962
0.0114738013178163
0.0117447916419849
0.0120037478634055
0.0122486271287319
0.0124772402139051
0.0126871741902917
0.0128705531155017
0.0130246090920508
0.0131444872606897
0.0132211495090443
0.0132386167327733
0.0131684263532873
0.0129596576884433
0.0125396670057295
0.0119564344663534
0.0116390887922735
0.0116429457363162
0.0119195073898331
0.0124159578117691
0.0130876851265791
0.0139069052493527
0.0148562235102587
0.0159044789408879
0.0170164503622533
0.0181696294626771
0.0193478974821218
0.0205339526344789
0.0217037582915889
0.0228260557593908
0.0238823313885299
0.0248782723423515
0.0258275783826505
0.0267528126965644
0.0276917038079053
0.0287092937223732
0.0299262376573245
0.0315305754280223
0.033627126055603
0.0361959360648761
0.0393118699149488
0.0429859869268829
0.0470402826851955
0.0508370970072742
0.0533308333645334
0.0533437010917482
0.0501627929802178
0.0449652192778938
0.0398699390622186
0.0388776366448706
0.0347734170609938
0.0296145780449607
0.0206336956832412
0.0130802951152071
0.00801957015604101
0.00484002452777102
0.00314926325101319
0.00185383371604154
0.000953310607542658
0.000484582550760609
0.000291330197604166
0.000231060872026616
0.000228282188061134
0.000250478110891492
0.00028674490321249
0.000336295196605787
0.000398941219568754
0.000474031621817649
0.000559706076823972
0.000652499503336808
0.000747970586803489
0.000843403312067963
0.000933089225454309
0.00101128908349319
0.00107217432963715
0.00111002602170913
0.00111997430146509
0.0010987909989017
0.00104460551230789
0.000958587258242105
0.000850347831281327
0.000742664541044439
0.000683058594601268
0.000713144368361137
0.000845972421341505
0.00101172825363911
0.00119850140956259
0.00140903970334007
0.00164654322194482
0.00191240974804865
0.00220628910710153
0.00252556826395577
0.00286563393172476
0.00322079383193264
0.00358537199709033
0.00395448685194808
0.00432439063414464
0.00469247415121491
0.00505710330248389
0.00541740420214862
0.00577305982604058
0.00612414025189288
0.00647096969988123
0.00681402504882775
0.00715385885388699
0.00749104023250606
0.00782610841652871
0.00815953512885885
0.0084916932287175
0.00882283009474759
0.00915304502184156
0.00948227052183783
0.00981025786570515
0.0101365674917244
0.0104605650403077
0.0107814237363156
0.0110981336777889
0.0114095183171848
0.0117142579772293
0.0120109196903795
0.0122979919715255
0.0125739221580978
0.0128371524858513
0.0130861486933019
0.0133194111031209
0.0135354508013427
0.0137326884638623
0.0139051003328157
0.0140513530731024
0.0141676906725784
0.0142465227976297
0.014273662328522
0.0142233391256705
0.0140499320960467
0.0136928475682852
0.0132108685215719
0.0129954166936567
0.0130942686955323
0.0134588527526965
0.0140372096266236
0.0147853920375408
0.0156751297192468
0.0166877497294401
0.0177943849386074
0.0189636748679746
0.0201744240203753
0.0214104625571365
0.0226545521203239
0.023883989043785
0.0250707026124469
0.0261989379318276
0.0272747562714008
0.0283129927002304
0.0293384464768671
0.0303922877745121
0.0315438672253009
0.0329161026536389
0.0346820717223252
0.0368977906050228
0.0395519406630113
0.0426956947059218
0.0462795140877367
0.0500558598788692
0.0533818409950799
0.0553756106671224
0.055082992033036
0.0519246970429361
0.0471429243847261
0.0424334357108263
0.0411414428116732
0.0371970730592024
0.0323124071116831
0.0236739620304961
0.0156728297566409
0.0102908249124013
0.00639958296289944
0.00409519791125501
0.00252313084344774
0.00138025372319853
0.000727166474726266
0.000433906348625486
0.000332165287220504
0.00031803466408858
0.000341774104419797
0.000384710885975976
0.000443751087942239
0.000517478448157061
0.000604040144049814
0.000700348223231498
0.000801860790587093
0.00090334588143738
0.00100234422679525
0.00109381266630849
0.00117245025180873
0.0012329725444416
0.00127013350452278
0.00127936033232872
0.00125759529477969
0.00120337539134808
0.00111869624192172
0.00101426077929934
0.000914833811010806
0.000869685180369296
0.000918460022657708
0.00107299371507762
0.00126191700957748
0.00147358772695452
0.00171216743649061
0.0019815389767952
0.00228284813001658
0.00261432633140643
0.0029714592524267
0.00334808537327931
0.00373772583321386
0.00413461401373039
0.00453418142343261
0.00493312592487682
0.0053292550148073
0.00572125635178479
0.00610847246405813
0.00649071050114391
0.00686809163447567
0.00724093552113899
0.00760967223333194
0.00797477464971103
0.00833670554133635
0.00869587513055968
0.00905260619347246
0.00940710489458486
0.00975943642620244
0.0101095052140329
0.0104570399505353
0.0108015840767888
0.0111424925423058
0.0114789357109545
0.0118099111316944
0.012134263620571
0.0124507137279857
0.012757894137151
0.0130543929098082
0.0133388018068412
0.013609766936055
0.0138660373895354
0.0141065047877617
0.0143302220455467
0.014536382027722
0.0147242188343864
0.0148893946986339
0.0150315030919041
0.015147768617473
0.0152317963189265
0.0152709453668202
0.0152419642797535
0.0151042115559577
0.0148075897754068
0.0144193005790338
0.0142969850962716
0.0144808191389836
0.0149226128003066
0.0155712770818082
0.0163839448551089
0.0173327544503486
0.0183988239291504
0.0195552640265856
0.0207735312790397
0.0220335092505468
0.0233192127800077
0.024613724309425
0.0258955708030638
0.0271392109445532
0.0283310420450101
0.0294776031784205
0.0305948304449372
0.0317096971921264
0.0328665581583173
0.0341384419746922
0.0356485024453437
0.0375458848829018
0.0398493572506318
0.0425586643275292
0.0456918509217778
0.0491407595642959
0.0526069777047611
0.0555402129092279
0.0570834850848978
0.0564530868636056
0.0533232101807874
0.0488927900266631
0.0445377131761786
0.0430306565379536
0.0393159249077899
0.0346215233720733
0.0266157550047362
0.0182618362987661
0.0125848055848209
0.00823112647636181
0.00518192618667327
0.00327129478219354
0.00188890353943044
0.00103630504888846
0.000619958182367889
0.000460051187934161
0.000425827977773626
0.000446850774054122
0.000493668068945944
0.000559405171675667
0.000640930670921846