/*--------------------------------*- C++ -*----------------------------------*\
  =========                 |
  \\      /  F ield         | OpenFOAM: The Open Source CFD Toolbox
   \\    /   O peration     | Website:  https://openfoam.org
    \\  /    A nd           | Version:  7
     \\/     M anipulation  |
\*---------------------------------------------------------------------------*/
FoamFile
{
    version     2.0;
    format      ascii;
    class       volScalarField;
    location    "20000";
    object      k_conv;
}
// * * * * * * * * * * * * * * * * * * * * * * * * * * * * * * * * * * * * * //

dimensions      [0 2 -3 0 0 0 0];

internalField   nonuniform List<scalar> 
15600
(
-2.55868300106234e-05
-2.53891446492349e-06
-3.60256261198761e-06
3.43645235988064e-07
-4.04276418198356e-07
-6.26205551056895e-07
-2.53343179714259e-07
-6.95432566364467e-08
-1.56166282961838e-08
-4.23000926415317e-09
-1.29358164632943e-09
-4.12803045248823e-10
-7.33530811379143e-11
-4.82206946211888e-11
-6.6260078798063e-11
-9.08623258698661e-11
-1.20957310409363e-10
-1.56896639493493e-10
-1.96337049480108e-10
-2.36751836696996e-10
-1.90257847290153e-09
-4.90481833824978e-09
-9.37490513380416e-09
-1.55040862735168e-08
-2.27992285942763e-08
-2.98407142498073e-08
-3.3894485177295e-08
-3.26387418401374e-08
-2.58465306589371e-08
-1.54346176736602e-08
-5.73563505262953e-09
-6.20605274113699e-10
-4.35013849533183e-10
-2.10022963733101e-10
-4.01332542286566e-11
1.64598473832718e-10
3.02074561375613e-10
4.1154988994664e-10
5.20792561220739e-10
6.41690555581751e-10
7.3050222688116e-10
7.15226167384342e-10
4.59999274820903e-10
-1.01762904042679e-09
-2.53413573371223e-09
-4.62801883891735e-09
-7.27532997582358e-09
-1.0396105414751e-08
-1.38769827380496e-08
-1.75982902781557e-08
-2.14571196171248e-08
-2.53817197507528e-08
-2.93372254097806e-08
-3.33251241326707e-08
-3.7379545926104e-08
-4.15628346139066e-08
-4.59619444885875e-08
-5.06864246221003e-08
-5.58682288906861e-08
-6.16633913787203e-08
-6.82555148101043e-08
-7.58611174722871e-08
-8.47369660668579e-08
-9.51897089385556e-08
-1.07588288936561e-07
-1.22379879984156e-07
-1.40110424990825e-07
-1.61451328332082e-07
-1.87234496375014e-07
-2.18499040056708e-07
-2.56554614051283e-07
-3.03069444582679e-07
-3.60196289121786e-07
-4.30762290791213e-07
-5.18582253812639e-07
-6.2901290346814e-07
-7.69991137509496e-07
-9.54335459579405e-07
-1.20557037367606e-06
-1.57288387436793e-06
-2.2019229687699e-06
-5.01174062036288e-06
-2.22470841985702e-05
-5.68430486135757e-05
-0.000140004955264656
-0.000190622679775073
-4.05190692702437e-05
-8.63687581670334e-06
-1.96608606593574e-06
3.85627946764369e-08
5.3632153332635e-09
-1.79400636674044e-08
-4.87494136845767e-08
-8.92438791349856e-08
-1.32425629505326e-07
-1.77218767471041e-07
-2.24300814226433e-07
-2.77703971237063e-07
-3.3783049096065e-07
-3.59877568251552e-07
-2.97260109603163e-06
-6.45759827604987e-06
-9.54850508214503e-06
-1.2071176731198e-05
-1.39690158378822e-05
-1.52360108051149e-05
-1.608930808805e-05
-1.60167265016774e-05
-1.67464933504493e-05
-2.02201599767471e-05
-2.79723973743935e-05
-4.7168695004364e-05
-9.30061871912427e-05
-0.000251490754354611
-0.000798839198941565
-0.00256016007434638
-0.00177280230641848
-9.01803384118696e-05
-5.10252108076654e-05
-1.10568087245628e-05
-0.000290243238952964
-0.000206572461312654
-0.000276092304336779
-1.7135810564397e-05
2.93675304577775e-06
-1.24757844560451e-05
-5.64968519087039e-06
-1.53922048364678e-06
-3.59044691269631e-07
-9.74313484386222e-08
-3.11155496809277e-08
-1.13848159914573e-08
-3.92754763497454e-09
-4.28655767930906e-09
-5.75018760940932e-09
-7.80813946952308e-09
-1.04126266572199e-08
-1.36376839481163e-08
-1.74902310299204e-08
-2.21240253037255e-08
-5.68638909454068e-08
-1.22647920692371e-07
-2.18569882834948e-07
-3.49188437000853e-07
-5.0737271155307e-07
-6.70140942589374e-07
-7.83966661154897e-07
-7.8759874601341e-07
-6.69289547030223e-07
-4.56440376082266e-07
-2.3224078920594e-07
-8.01794163901247e-08
-3.83660769947805e-08
-1.93151779255778e-08
-4.23500526797711e-09
1.3890542944586e-08
2.56781613226265e-08
3.44620561415204e-08
4.39724434983634e-08
5.47682000461109e-08
6.35695804538381e-08
4.72695044171525e-08
-2.66670615367318e-08
-1.11459464134046e-07
-2.37021233000532e-07
-4.05085876846624e-07
-6.12876915690137e-07
-8.54069327155367e-07
-1.1204800099018e-06
-1.40389738893781e-06
-1.6975026971161e-06
-1.99668940042914e-06
-2.29933696401487e-06
-2.60572536510737e-06
-2.91828526778213e-06
-3.24133023145628e-06
-3.58085662960739e-06
-3.94445301946683e-06
-4.34133013894823e-06
-4.78247491856812e-06
-5.28092617471253e-06
-5.85217853639873e-06
-6.51472561837758e-06
-7.29076792561355e-06
-8.20712265090706e-06
-9.29639308148206e-06
-1.05984811021965e-05
-1.21625650321525e-05
-1.40497176604226e-05
-1.63364345551328e-05
-1.9119482592285e-05
-2.25227586519938e-05
-2.67073521699683e-05
-3.18870824513193e-05
-3.835447397756e-05
-4.65278718612575e-05
-5.70424095257156e-05
-7.09422728575419e-05
-9.01352271319172e-05
-0.000118548682743627
-0.000166396247699764
-0.000364905687944924
-0.000676376457315501
-0.00112547759253125
-0.00169534169988595
-0.00181389364425442
-0.000570527019902096
-0.00014788550297613
-3.55288926265184e-05
3.005732220178e-06
1.2363091508942e-06
-9.77643068511556e-07
-3.64038703781367e-06
-6.85298004635254e-06
-1.02254168127638e-05
-1.37920597936262e-05
-1.77231115365651e-05
-2.23647695708492e-05
-2.74868581021163e-05
-5.63377815099548e-05
-0.000123593057506859
-0.00018957009072422
-0.000246645439665436
-0.000292751072024434
-0.000327390794625911
-0.000351033600487252
-0.000367407890059935
-0.000373268155937028
-0.000399732328775487
-0.00048240644574076
-0.000656542254785062
-0.00107995353394706
-0.00205895434105808
-0.00505291444349431
-0.013775140432444
-0.0338661276037375
-0.0264936947238507
-0.00490997360158289
-0.00320625858976266
-0.00104331097951514
-0.00307782023139073
-0.00178350928750809
-0.00250365842996938
-0.00047804659504894
4.55635317276437e-05
-6.70125134132546e-05
-3.43233182580022e-05
-9.47139763199928e-06
-2.27680314727107e-06
-6.25105020266684e-07
-2.09114529801187e-07
-8.75968884218682e-08
-4.36574810523281e-08
-4.83974778032576e-08
-6.31782782888823e-08
-8.47921522739434e-08
-1.13263629434005e-07
-1.50130005950853e-07
-1.975194184872e-07
-2.60819354145497e-07
-4.8402174423595e-07
-9.07185770360193e-07
-1.50595444225775e-06
-2.30500797978611e-06
-3.26950483074991e-06
-4.26956477120744e-06
-5.08885529215411e-06
-5.22737025674135e-06
-4.63240513103424e-06
-3.41962303689605e-06
-2.01978963087208e-06
-9.35564313454428e-07
-4.37222646303211e-07
-2.19003465026121e-07
-4.21863917437551e-08
1.65169426965616e-07
3.02323703426294e-07
4.10214550939835e-07
5.44874744537668e-07
7.15422396150176e-07
7.07744129863322e-07
3.09156737213304e-07
-1.48534651503439e-07
-9.20067767663737e-07
-2.04933686453981e-06
-3.54432672250565e-06
-5.37662494491188e-06
-7.49088561798911e-06
-9.818772111839e-06
-1.22927423012619e-05
-1.48561888938693e-05
-1.74690707346303e-05
-2.01097722757824e-05
-2.27745730415142e-05
-2.54760604641353e-05
-2.82414474671661e-05
-3.11113587309134e-05
-3.41393859442679e-05
-3.73925000584946e-05
-4.09523861586033e-05
-4.49177001055789e-05
-4.94073398788038e-05
-5.4564829716003e-05
-6.0564059605172e-05
-6.76167086324111e-05
-7.59818690271869e-05
-8.5978619477414e-05
-9.80026481287063e-05
-0.000112548461430945
-0.000130239577184857
-0.000151870200965671
-0.00017846410542517
-0.000211360164822189
-0.00025234181050517
-0.000303845323073875
-0.000369314753357596
-0.000453843276148272
-0.000565442915155584
-0.000717666449102853
-0.000934443120682577
-0.00135849772821286
-0.00186829464752203
-0.0024021129104638
-0.00283259831010447
-0.00293106306510105
-0.00263401227469935
-0.0013438473846481
-0.000480758325261448
-0.000129604384482491
2.04482772118348e-05
1.87268716628575e-05
-5.10793173509337e-06
-3.38379382032309e-05
-6.8024958460104e-05
-0.000105345713812522
-0.000147225892762537
-0.000195817902636425
-0.000254507965107466
-0.000359791011071397
-0.000648496674427817
-0.000981491427999827
-0.00130107638236553
-0.00157761506985292
-0.0018072239951931
-0.00198980762394859
-0.00212948480904772
-0.0022446913706189
-0.00234322390728499
-0.00257407943304645
-0.00311045611536249
-0.00414187820211757
-0.00663421952026107
-0.0117077377515548
-0.0244442240925784
-0.0512247595411787
-0.0850580790347544
-0.0659684548676796
-0.0238437959945492
-0.0208065961104459
-0.00823363355590306
-0.00804602115546047
-0.00367478037055601
-0.00816545599260851
-0.00299604239311417
0.000374516506019721
-0.000181297530748853
-0.00011475435279106
-3.29495279319692e-05
-8.1220999058341e-06
-2.26465904673578e-06
-7.85374473239231e-07
-3.64201147853202e-07
-2.19963186006316e-07
-2.4076242744019e-07
-3.08244363948241e-07
-4.0982369456549e-07
-5.47650879704364e-07
-7.31830686266942e-07
-9.78415862689735e-07
-1.32313049715139e-06
-2.14892036920706e-06
-3.69090850516338e-06
-5.80074219368115e-06
-8.54037709181529e-06
-1.17913455698251e-05
-1.51610956387653e-05
-1.79880673018244e-05
-1.88612429667085e-05
-1.7164896723047e-05
-1.33518237699243e-05
-8.6100154197726e-06
-4.54118546114208e-06
-2.09418548242908e-06
-1.02852117426223e-06
-1.27098452074262e-07
8.95975756379649e-07
1.57926893524742e-06
2.15800199992801e-06
2.940935775077e-06
3.15880924394962e-06
2.25176319462493e-06
1.22707184857267e-06
-7.85022434821972e-07
-3.97540961032124e-06
-8.4053809549197e-06
-1.39993773959749e-05
-2.05713899683237e-05
-2.78739047964495e-05
-3.56472785117515e-05
-4.36570127924104e-05
-5.17154567066353e-05
-5.96902246469431e-05
-6.75040952639208e-05
-7.51304664801163e-05
-8.25875506676607e-05
-8.99332414525315e-05
-9.72616906633718e-05
-0.00010470221655569
-0.000112420603638442
-0.000120623032057674
-0.000129562509816292
-0.000139548118371648
-0.000150957106460915
-0.000164250333324607
-0.00017999148978585
-0.000198870781736956
-0.000221733874063607
-0.000249617155286435
-0.000283790122034862
-0.000325806374792285
-0.000377563939627031
-0.000441376098394615
-0.000520053887013408
-0.000617002444320821
-0.00073633964363069
-0.000883052669433853
-0.00106325258420685
-0.00128486505461141
-0.00156073147525298
-0.00193551643160942
-0.0023249138353452
-0.00259377545439593
-0.00271342670702529
-0.00255237997879242
-0.0019714718028503
-0.00137150016020375
-0.000977207690016897
-0.000428962851336539
-0.00011405367545769
6.24637466537713e-05
5.42420376847817e-05
-4.69136355768745e-05
-0.000174117498999174
-0.00032514459995725
-0.000494956177977109
-0.000691756615997387
-0.00092283456604693
-0.00120737482134624
-0.00188230218123305
-0.00253448699592308
-0.003242009888688
-0.003918797640984
-0.00452736185692682
-0.00507501308992464
-0.00556878851454961
-0.00602271796271779
-0.00648364281353958
-0.00700577265554839
-0.0078903907484661
-0.00948357730177521
-0.0123801487287619
-0.0184783968279672
-0.028939129715927
-0.0485916624197527
-0.074966342951698
-0.0870284140846047
-0.0699069694005867
-0.0377978576215026
-0.0416041527471761
-0.0193839487456553
-0.0145598852230563
-0.00285996871447802
-0.0117568227355811
-0.00726825902532018
0.000583322792017527
-0.000254215070510712
-0.000265308012816896
-8.22580144381647e-05
-2.08605488478692e-05
-5.94034043367499e-06
-2.11925439795367e-06
-1.06238328513126e-06
-7.24913344269002e-07
-7.88545415713121e-07
-9.97672057530341e-07
-1.31735688517736e-06
-1.75921323642145e-06
-2.36052916021417e-06
-3.18049899216003e-06
-4.33929553441641e-06
-6.54781937400284e-06
-1.05865729652194e-05
-1.58974174792428e-05
-2.25441121271406e-05
-3.01745746610366e-05
-3.78811577593694e-05
-4.41019965117673e-05
-4.67421107816854e-05
-4.32286303341157e-05
-3.48398981526798e-05
-2.38524865382393e-05
-1.36043502638076e-05
-6.11367758936331e-06
-2.91104626293197e-06
3.38629152101108e-08
3.26383265349554e-06
5.41716866924342e-06
7.40026252773954e-06
8.01288451382891e-06
6.69507997072025e-06
5.34435365149734e-06
2.20257323470845e-06
-2.99066619362324e-06
-1.02387799236502e-05
-1.93193086001809e-05
-2.98883924152348e-05
-4.15723776785256e-05
-5.40165819599472e-05
-6.68992062555866e-05
-7.99331377910532e-05
-9.2872552390251e-05
-0.000105524321133009
-0.000117760100788338
-0.000129524022219408
-0.000140835417675075
-0.00015178795649562
-0.000162547553748992
-0.000173351294577517
-0.000184508374431914
-0.000196403983032211
-0.000209505711304972
-0.000224372631573216
-0.000241666002861698
-0.000262161252820041
-0.000286760312106419
-0.000316503481506464
-0.000352579852563099
-0.00039633551842931
-0.000449277753614589
-0.000513074272443856
-0.000589544093223498
-0.00068063580568951
-0.000788385194532771
-0.00091483685963629
-0.00106190242030356
-0.00123108334341114
-0.00142281823427167
-0.00163425210869992
-0.00184905483671422
-0.0021523439886625
-0.00226835046489567
-0.00229844477657746
-0.00218973937192708
-0.001866772048543
-0.00126938956075428
-0.000743743622129653
-0.000527387406969864
-0.000241503514630376
-0.000116612158150377
-5.42135283967208e-05
-0.000111626321815951
-0.000340159470202225
-0.000640329311454949
-0.000999767225344715
-0.00141640520543685
-0.00190164967694845
-0.00245055553567058
-0.00350350508004425
-0.00433530747428418
-0.00518547895201257
-0.00603843917536265
-0.00686996335994691
-0.00765539846826886
-0.00842489349540422
-0.00920537281786318
-0.0100358384309552
-0.0110054325963612
-0.0122192063176258
-0.0139595412709646
-0.0164912830157536
-0.0211186336211802
-0.028886714093288
-0.0400197919017612
-0.0558952425275659
-0.0704015665170555
-0.0697773549188426
-0.0616071085709052
-0.0540740389706256
-0.0488252154549918
-0.0300043496229615
-0.0236429275601659
-0.00553109597520977
-0.0107404083759413
-0.00991025519580096
-0.000519711926587959
0.000142120211166207
-0.000449684597201609
-0.000158467033077737
-4.19146733602546e-05
-1.2378293930272e-05
-4.55712725826018e-06
-2.44587248998669e-06
-1.83676760475968e-06
-2.00436463945623e-06
-2.52010151453131e-06
-3.30987131976413e-06
-4.41133377918905e-06
-5.92182731946496e-06
-7.98985154000911e-06
-1.08830284929189e-05
-1.55885374497339e-05
-2.3981863901784e-05
-3.44579227803759e-05
-4.68910540965447e-05
-6.03772361827242e-05
-7.32000026301902e-05
-8.28937080005636e-05
-8.66536141757245e-05
-8.10678596914871e-05
-6.68049429893074e-05
-4.78189354539735e-05
-2.88614541322085e-05
-1.38239425820679e-05
-5.52736819610356e-06
1.69886621953191e-06
9.27414343661378e-06
1.43058539694691e-05
1.49283289551149e-05
1.36283880890413e-05
1.27882895661647e-05
9.93015955447707e-06
4.86647060110407e-06
-2.39874742997497e-06
-1.1913245196747e-05
-2.38375590838838e-05
-3.83315868678524e-05
-5.53618047197283e-05
-7.45838460311191e-05
-9.53800939413843e-05
-0.00011700342494676
-0.000138741287911321
-0.00016003105681327
-0.00018051249930153
-0.000200029757976405
-0.000218606849924384
-0.000236414519197241
-0.000253739654355689
-0.000270961903377259
-0.000288538135440706
-0.000306994021520008
-0.000326920506978654
-0.000348973963081406
-0.000373877768111475
-0.000402424257089133
-0.000435475772896132
-0.000473963650961343
-0.000518883900571988
-0.000571288417854668
-0.000632268698451631
-0.000702929407956344
-0.000784345254537334
-0.000877492797836108
-0.000983144515720739
-0.00110170595949893
-0.00123297452787152
-0.0013758254815814
-0.00152811741658833
-0.0016890722117053
-0.00189003295395314
-0.00194635342108697
-0.00197211381411659
-0.00193508553617311
-0.00181073546309565
-0.00154881357751689
-0.00111902769861434
-0.000780706858701491
-0.000580218713509975
-0.000446653682380853
-0.000488242441502362
-0.000579275001419547
-0.00072251240761794
-0.00110775697239981
-0.00159251891730372
-0.00216160979920683
-0.00282192666921492
-0.00356680744498293
-0.00477797958181433
-0.00568260076695945
-0.00655975861026167
-0.00739086943563669
-0.00821203438185289
-0.00902859652344075
-0.00982815887395204
-0.0106537008259886
-0.0115475650473978
-0.0125701978324433
-0.0138400989019818
-0.0154614793686617
-0.0175849372683193
-0.020241975597527
-0.0258338365415087
-0.0327036449794241
-0.0416835956887182
-0.0523201089065309
-0.0598106124158027
-0.0568612687172801
-0.0542409849367677
-0.0551813359213308
-0.0502833266160844
-0.0384540367805292
-0.031174653131965
-0.0127141121845978
-0.00656642017814205
-0.0112849054484612
-0.00201874927045992
0.0010282165723381
-0.000522547446000172
-0.000229791079328731
-6.49543005398384e-05
-2.06890460298273e-05
-8.08211055938293e-06
-4.68762762046779e-06
-3.8669650211443e-06
-4.278603225897e-06
-5.36922798127661e-06
-7.01714081401908e-06
-9.31484629101704e-06
-1.2458998998992e-05
-1.67324291480017e-05
-2.2563051779266e-05
-3.08833276283573e-05
-4.52781224777137e-05
-6.19797476444407e-05
-8.03069336656397e-05
-9.84536513082542e-05
-0.00011390150534657
-0.000123872297231296
-0.000125716398064875
-0.000118849216612029
-9.85251273468069e-05
-7.27031194115577e-05
-4.56284259979046e-05
-2.20223547050376e-05
-6.38681876643363e-06
7.81941356299517e-06
2.16689890872521e-05
2.34376418389847e-05
2.21382921949786e-05
2.2707035718497e-05
2.15300343915959e-05
1.82548141270493e-05
1.22204848157481e-05
2.34638565184496e-06
-1.25652522638823e-05
-3.32325471850277e-05
-5.94401526875842e-05
-9.00422815000005e-05
-0.000123351755682542
-0.000157640791831317
-0.000191490859815012
-0.000223935915937601
-0.000254449578344064
-0.000282863251211876
-0.000309268785603282
-0.00033393478980405
-0.000357243426480986
-0.000379647594677363
-0.000401644180189983
-0.000423759088265959
-0.000446540425439009
-0.000470556460290642
-0.000496396585677029
-0.000524673012934042
-0.000556021942086568
-0.000591102975204437
-0.000630595274765697
-0.000675188912715735
-0.000725569940925279
-0.000782396222498501
-0.000846262008303023
-0.000917647087366892
-0.000996846127789323
-0.00108387220214643
-0.00117832257235455
-0.00127917840936313
-0.00138444186810282
-0.00149020986320634
-0.00158764983541024
-0.00170332583334187
-0.00173664492491249
-0.0017517230236588
-0.00173455414469801
-0.00167088835096315
-0.00151725641199681
-0.00125616913008707
-0.00109833096442387
-0.000932699472794993
-0.000930938149348653
-0.00112154217274459
-0.001388078572136
-0.00174489209923289
-0.00215025332298145
-0.00279028863851247
-0.00351155033639341
-0.00431997662200347
-0.00553077727123893
-0.00646961109061315
-0.00733600028906853
-0.00815308027411525
-0.00890906817861973
-0.00966729869823892
-0.0104283630945235
-0.0111907222963458
-0.0120000510613728
-0.0129041226214749
-0.0139694611860683
-0.0153136407218917
-0.0169954515681821
-0.0190513565174378
-0.0217955581313014
-0.0271791876528327
-0.0327659293684715
-0.0396429173254796
-0.0467962400606911
-0.0507607786060489
-0.04797301437814
-0.0486495183704478
-0.055416504067003
-0.0521464157587319
-0.0438459381431503
-0.0357187998620412
-0.0213513837609276
-5.85622520280622e-05
-0.0128037035323322
-0.00404919987227264
0.00298904607166869
-0.00024107896395277
-0.00020870467694022
-6.40374340232772e-05
-2.48876627771734e-05
-1.14634496194022e-05
-7.57078562114336e-06
-7.01801113043516e-06
-7.98583485778938e-06
-1.00437919340505e-05
-1.30539525460183e-05
-1.72055868116993e-05
-2.28122673037504e-05
-3.02915478635832e-05
-4.01330329733494e-05
-5.24663776530402e-05
-7.30704446370664e-05
-9.46658491543382e-05
-0.000115874224158421
-0.000134198688503761
-0.000147107612795816
-0.000152698210953708
-0.000149636630658515
-0.000138721432779312
-0.000121600954445799
-8.83128594833402e-05
-5.5717976647719e-05
-2.48772664682335e-05
-1.27013829954963e-06
2.24386416359887e-05
3.13625091673037e-05
3.12016722576993e-05
3.25356122688577e-05
3.29998254514321e-05
3.10511993145479e-05
2.50734208741188e-05
1.28114314889011e-05
-7.68640309035669e-06
-3.70587306783302e-05
-7.42381115576865e-05
-0.000116880479739761
-0.000162262188540125
-0.000208002573375037
-0.000252385451235337
-0.000294357557284619
-0.000333403114392948
-0.000369396390947987
-0.000402478313529766
-0.00043295988282823
-0.000461252249580107
-0.000487817555925826
-0.000513137132213474
-0.000537692420728929
-0.000561955294030674
-0.000586384855514527
-0.000611428174076739
-0.000637523506018301
-0.000665104257695987
-0.000694602520832443
-0.000726451193873571
-0.000761083381594653
-0.000798927897118521
-0.000840400058799201
-0.000885886275854752
-0.000935722145202607
-0.000990163192950307
-0.00104934790658267
-0.00111325289324477
-0.00118163764332676
-0.00125396928614135
-0.001329284079266
-0.00140572082095811
-0.00148177687083856
-0.00155246295433039
-0.0015948274354416
-0.00163640881297876
-0.00167006673615138
-0.00168322073638164
-0.00163348179048076
-0.00151638900391595
-0.00152165352541023
-0.00141309714187095
-0.00152387394396101
-0.00183510974245842
-0.00224705268283699
-0.00277522459005632
-0.00331076094296993
-0.00393686221412879
-0.00477749018258923
-0.00592796165008852
-0.00685912647473379
-0.00770533870431753
-0.00852375168987326
-0.00927000729515653
-0.00996086138648303
-0.0106653850682993
-0.0113734146528691
-0.0120927420710576
-0.012867777368168
-0.0137464953913837
-0.014792397868414
-0.0161046870923827
-0.0176881693293335
-0.0194950703763851
-0.0226052817983431
-0.0270547412655037
-0.0316370666615781
-0.0368717608525009
-0.0416645926443432
-0.0434559777375946
-0.0412650561905943
-0.0443482760241272
-0.0553232367232144
-0.0535883684095586
-0.0470739711809258
-0.0380283118413553
-0.0288914275715399
0.00575369028287127
-0.0142212744320527
-0.0049601431179303
0.00316352406230164
0.000671933508042818
1.5091108833376e-05
1.50764039848291e-05
-7.90390494353593e-06
-1.04808667886017e-05
-9.9087522094929e-06
-1.10942418925619e-05
-1.32824533319059e-05
-1.68342723097151e-05
-2.17338219241635e-05
-2.83304434794134e-05
-3.70089431908381e-05
-4.8222881707018e-05
-6.2405254206512e-05
-8.05166866445447e-05
-0.000102394918037018
-0.000125144304336699
-0.000144450374419966
-0.000158129538213336
-0.000164673095691378
-0.00016366351473833
-0.000155128538541621
-0.000140442243171552
-0.000121110935971143
-9.62033594731954e-05
-6.04297120620999e-05
-1.85371088689457e-05
1.24289378265677e-05
3.54252061396107e-05
3.83523953168569e-05
4.01660350160431e-05
4.10050312500062e-05
3.93540764967742e-05
3.23459676158968e-05
1.6851451172699e-05
-9.47499168399426e-06
-4.68513748935926e-05
-9.32423498674089e-05
-0.000145403209814501
-0.000200098054642093
-0.000254793450163867
-0.000307741955194327
-0.000357844267697868
-0.00040449316558365
-0.000447460762741642
-0.000486800871561629
-0.000522763035693224
-0.000555716363827621
-0.000586089746947214
-0.000614328239574451
-0.000640864942102245
-0.000666104917102871
-0.000690418312668621
-0.000714140027982232
-0.000737573749453503
-0.00076099900526047
-0.0007846798842403
-0.000808874407638378
-0.000833843784642935
-0.000859860539243885
-0.000887214694175589
-0.000916217709561394
-0.000947203731485989
-0.000980528826817651
-0.00101656925233946
-0.00105572052616967
-0.00109840007811425
-0.00114505709690018
-0.00119619988367163
-0.00125249989883397
-0.00131538680636521
-0.00140115835665441
-0.00144816474581805
-0.00151597453151081
-0.00159792475254147
-0.00168878645674341
-0.00177449430113424
-0.00181389021514165
-0.00181836175235063
-0.00197040330457526
-0.0019282927147943
-0.00212871088804695
-0.0025299364023601
-0.00304610178887738
-0.00368097054499318
-0.00443788622682825
-0.00524504420483565
-0.00612487800328599
-0.00697436584411115
-0.00781464329261106
-0.00863120006603627
-0.00939753073803098
-0.0100862346344103
-0.0107288716502381
-0.0113906576978931
-0.0120545292542403
-0.0127350650925729
-0.0134743068313599
-0.0143180575797002
-0.0153225953857215
-0.0165621212764649
-0.0179922342239421
-0.0195019137173639
-0.0231243351302304
-0.0264967268087642
-0.0302074392096601
-0.0341024072676194
-0.037063974261964
-0.0372355355551335
-0.0357953269804687
-0.0408932143401001
-0.0549225251344338
-0.0542039331537854
-0.0487108913269035
-0.0390945396581115
-0.0341584829762651
0.00709877543639462
-0.0143926071766368
-0.00628068358285576
0.00256764886972101
0.0026026913065629
0.000478399692257655
0.000233825578435443
6.23988724743088e-05
4.81503295860886e-06
-8.58881109867561e-06
-1.50223306122508e-05
-1.97728313979005e-05
-2.55012610692457e-05
-3.26900843741117e-05
-4.19874822863577e-05
-5.3741272471576e-05
-6.82545309406354e-05
-8.56332371775807e-05
-0.000106101457725874
-0.000127185845825551
-0.000147285502030319
-0.00016145703470116
-0.000168611448826603
-0.00016842937554597
-0.00016152953546988
-0.000148618984994751
-0.000131138534730597
-0.000110280254044466
-8.50247611810224e-05
-5.21648323501543e-05
-1.14901232911507e-05
2.22020399642212e-05
4.11956361131108e-05
4.35830717549694e-05
4.45893276912668e-05
4.27636231306631e-05
3.46799904210821e-05
1.65074331583922e-05
-1.42858658127498e-05
-5.74836613742492e-05
-0.000110335225277247
-0.000169101974717155
-0.000230499369031726
-0.000292107295400093
-0.000352201957629668
-0.000409532738052043
-0.000463254157322935
-0.00051289932312046
-0.000558335331410739
-0.000599683646602596
-0.000637233164324947
-0.00067136178134935
-0.000702476941385935
-0.000730974681681481
-0.000757215037482021
-0.000781509735474139
-0.000804119121784908
-0.000825255821973826
-0.000845093332913442
-0.000863778382140411
-0.000881446071250806
-0.000898237016521425
-0.000914315852616782
-0.000929890254852431
-0.00094522979336067
-0.000960684472717277
-0.000976702981809101
-0.000993851601483418
-0.00101283562757447
-0.00103452582625762
-0.00105999310297255
-0.00109055490962532
-0.00112783934822405
-0.00117388354784401
-0.00123127546932657
-0.00131120801263857
-0.00138240619689558
-0.00148172574285008
-0.0016064263328634
-0.00175095560253412
-0.00189952265943813
-0.0020140831792305
-0.00212275798299547
-0.00240579436917789
-0.00243113035009249
-0.00270053465893421
-0.00316644516586958
-0.00375233155640372
-0.00444630370400806
-0.00523417895914956
-0.00606451643129307
-0.0069032060168991
-0.00774100352212732
-0.00856066518543391
-0.00934191802443171
-0.010062854083872
-0.0107076301043502
-0.0113140070351573
-0.0119405183869241
-0.0125675524719868
-0.0132139493821501
-0.0139191928911479
-0.0147256186973017
-0.015680130051242
-0.0168297766462208
-0.0180856281992128
-0.0196351455846784
-0.0232020814493565
-0.0257621278526301
-0.0286820579006911
-0.0313907604026161
-0.0327559180588549
-0.0317108676968242
-0.0321524144706095
-0.0379362659146736
-0.0542428318406997
-0.0541620638050832
-0.049191291190578
-0.0395494084075623
-0.037091478629287
0.00313033424446174
-0.0126886379739233
-0.00825218517344192
0.00117215591467803
0.00421423469098219
0.00115613780765455
0.00060717971342838
0.000223293189779998
5.17951284987134e-05
2.56554801558602e-06
-1.62492740277736e-05
-2.61147868741849e-05
-3.49798960773895e-05
-4.46511096857121e-05
-5.64422319394251e-05
-7.06020287674097e-05
-8.71713043278505e-05
-0.000105842285949017
-0.000126145334060818
-0.00014420814899821
-0.000159991462416937
-0.000168654685385047
-0.000170118235591988
-0.000164732162405615
-0.000153481085675684
-0.000137252065235889
-0.000117435813034316
-9.510776214948e-05
-6.93707520748049e-05
-3.76565062810105e-05
-9.21625232599552e-07
2.53455004322182e-05
4.1537332305621e-05
4.33621663648568e-05
4.18455878163966e-05
3.36648150990359e-05
1.41088931400057e-05
-1.93373872170582e-05
-6.60941568271172e-05
-0.0001228982087725
-0.000185845477199252
-0.000251814838766266
-0.000318643160304334
-0.000384634655775262
-0.000448338243203243
-0.000508587850460268
-0.000564604330173712
-0.00061600382715274
-0.000662732024367224
-0.000704963251070711
-0.000743004671351037
-0.000777219032960578
-0.000807970366972209
-0.00083558910306242
-0.000860352861939194
-0.000882478840675116
-0.000902124990255013
-0.000919397972998536
-0.000934366593192041
-0.00094707981188127
-0.000957588671729291
-0.000965971562871642
-0.000972362244797661
-0.000976979769555249
-0.000980159525425868
-0.000982385137561975
-0.000984321247822066
-0.000986847934178233
-0.000991098722180976
-0.000998504612717783
-0.00101084623190566
-0.00103031458983104
-0.00105957757108038
-0.00110183758878704
-0.00116077305569862
-0.0012478579984581
-0.00134385714786878
-0.00147503044910958
-0.00163957566552758
-0.00183098662111797
-0.00203276001313112
-0.00221157278698668
-0.00241085772595216
-0.00280941087182752
-0.00289937865486009
-0.00322181091664158
-0.00373384631403052
-0.00436460805465392
-0.00509105747073527
-0.00589130888979385
-0.00671400066719329
-0.00753812233524257
-0.00835848647705742
-0.00915274627291938
-0.00989990771908007
-0.0105828217180429
-0.0111932624550669
-0.0117704347743387
-0.0123661171038282
-0.0129610107842167
-0.0135762680370013
-0.0142488061633874
-0.0150165599115976
-0.0159156186383089
-0.0169647228082091
-0.0180313869336768
-0.0200607824007705
-0.0227981743554617
-0.0249025127618692
-0.0270625020753451
-0.0286425245059031
-0.0286291500415296
-0.0289759702453212
-0.0302327711424973
-0.0356515609530624
-0.0533425555606269
-0.0536567493278345
-0.0488914579165435
-0.0396796052242333
-0.0381747569728699
-0.00399649704907198
-0.00793726058961593
-0.0104806461458135
-0.000555955961104873
0.00527248217581898
0.00212840944894121
0.00108892843521008
0.00049132340627628
0.000151239259918828
3.31465492025199e-05
-1.03342778977749e-05
-2.97850873161465e-05
-4.33670706460617e-05
-5.56849237216284e-05
-6.95356987475676e-05
-8.52048710038096e-05
-0.000102540858106783
-0.000120948104910109
-0.000139537330636221
-0.000153980952111076
-0.000165834918087618
-0.000170250352904792
-0.000167698503089628
-0.000158715525870738
-0.000144276659515216
-0.000125274595410451
-0.000103164579025711
-7.92357997553905e-05
-5.31006745014656e-05
-2.32052764631425e-05
8.09823376657207e-06
2.41266002898226e-05
3.67977539186441e-05
3.71115894483349e-05
2.99574125133156e-05
1.10070981215099e-05
-2.32377980626853e-05
-7.16435936497706e-05
-0.000130490216675577
-0.000195688506219479
-0.00026445649876536
-0.000334931999026442
-0.00040553017653133
-0.000474621379381782
-0.000540720873768299
-0.000602704321943893
-0.00065989577943178
-0.000712019046220393
-0.000759094620758281
-0.000801328588525492
-0.000839020752564461