/*--------------------------------*- C++ -*----------------------------------*\
  =========                 |
  \\      /  F ield         | OpenFOAM: The Open Source CFD Toolbox
   \\    /   O peration     | Website:  https://openfoam.org
    \\  /    A nd           | Version:  7
     \\/     M anipulation  |
\*---------------------------------------------------------------------------*/
FoamFile
{
    version     2.0;
    format      ascii;
    class       volScalarField;
    location    "20000";
    object      k_diff;
}
// * * * * * * * * * * * * * * * * * * * * * * * * * * * * * * * * * * * * * //

dimensions      [0 2 -3 0 0 0 0];

internalField   nonuniform List<scalar> 
15600
(
0.00336089284387344
0.00258158632833435
0.00125613857158646
0.00046699054085069
0.000112258744479407
9.07204954412292e-05
7.38997259437633e-05
3.12935352420715e-05
1.10073022906969e-05
4.50211485635622e-06
2.55601529651512e-06
2.01416156200523e-06
1.91683532482774e-06
2.00209825765074e-06
2.18476519105009e-06
2.45712344789425e-06
2.83012226246411e-06
3.30480837682445e-06
3.88725324927639e-06
4.58375011835231e-06
5.40720225908578e-06
6.30503887833001e-06
7.17365544946033e-06
7.94470370756759e-06
8.50139928237235e-06
8.70408018526527e-06
8.42173570206411e-06
7.58697259748267e-06
6.30231367039183e-06
4.77639994321483e-06
3.293900218917e-06
2.1365742088875e-06
1.40619688696806e-06
1.06384635722472e-06
1.00669138495765e-06
1.20969122100986e-06
1.57462138094725e-06
2.08230985411316e-06
2.74908703676857e-06
3.64138916083723e-06
4.82576314449945e-06
6.36697896458066e-06
8.32581297252579e-06
1.07576806673245e-05
1.37050366156994e-05
1.71855489050157e-05
2.11939641746701e-05
2.57044430367268e-05
3.06757944944872e-05
3.60582824935532e-05
4.18003703285637e-05
4.78543495530516e-05
5.41803495340856e-05
6.07487717465454e-05
6.75414701196686e-05
7.45521000764419e-05
8.17860202185334e-05
8.92600403568428e-05
9.70022157088122e-05
0.000105051807301525
0.000113459480262332
0.000122287779840053
0.000131611918259508
0.000141520907825017
0.000152119094116032
0.000163528168680149
0.000175889780740803
0.000189368923090856
0.000204158345942667
0.000220484360643527
0.000238614565106912
0.00025886828125791
0.000281630935333166
0.000307374360895285
0.000336686527265461
0.000370317698541274
0.000409256794541755
0.000454865610912035
0.000509141519915438
0.000575299642712578
0.000659151239463323
0.000772888236463097
0.000905099803028147
0.0010442581463917
0.00114577677723548
0.000998954720570911
0.000493758497920496
0.000290118920438383
0.000211726147627759
0.000183610201125081
0.000189031611896491
0.000213789038522014
0.000253851481497926
0.000311200488335723
0.000387448177496753
0.000482713156003464
0.000597393843888398
0.000732706178821089
0.000891646158387635
0.00107768857834198
0.00128086250323588
0.00148199434846282
0.00167538186389658
0.00186074476918077
0.00204009928353043
0.00221794574867819
0.00240476208427526
0.00261895879636247
0.0029285134982789
0.00339616740260537
0.00410875082034941
0.00523661793063327
0.00700966578571073
0.0103615103840305
0.0166355797911172
0.0274620746485693
0.025907271795825
0.0135074577313557
0.00677347997217822
0.00419981008126267
0.0177836545526144
0.013741584204407
0.00677137322250282
0.00268804236811658
0.000698367204265373
0.000495075351465565
0.000413853300983979
0.000186671146794781
6.77416215113063e-05
2.72067164469263e-05
1.47958884736847e-05
1.12671864683301e-05
1.05471449661231e-05
1.09300972032943e-05
1.1873486125184e-05
1.33065996493646e-05
1.528609263264e-05
1.7818407868936e-05
2.09348306211387e-05
2.46655474702916e-05
2.9070378777017e-05
3.3906108503866e-05
3.86122367462625e-05
4.2814814836611e-05
4.59076192222901e-05
4.71565146456965e-05
4.58727387681452e-05
4.16515286858165e-05
3.49450263083916e-05
2.68041227234208e-05
1.87055179562599e-05
1.2211908294235e-05
7.98601868429789e-06
5.9760860689735e-06
5.58919032769465e-06
6.66910677828933e-06
8.67528778269813e-06
1.14738890283566e-05
1.51500900904736e-05
2.00711734721503e-05
2.66008198319569e-05
3.50728144900478e-05
4.57889476098915e-05
5.90979438651546e-05
7.51947712332415e-05
9.41622379328113e-05
0.00011595793517706
0.000140428484207955
0.000167339282100614
0.000196412087727491
0.000227361604956987
0.000259925435696616
0.0002938849334601
0.000329077412122238
0.000365401604539482
0.000402818721652681
0.000441351190803752
0.000481080626051421
0.000522146061992304
0.000564743048278894
0.000609123946087415
0.000655599596982878
0.000704542504982855
0.000756391679187559
0.000811659383863807
0.000870940169954
0.000934922761097972
0.00100440563982621
0.00108031755428863
0.00116374464815321
0.00125596666812605
0.00135850572787911
0.00147319273501602
0.00160225916506382
0.00174846671057844
0.00191529728455397
0.00210724371240005
0.00233028005835273
0.00259269913178676
0.00290670282152198
0.00329038398478929
0.00367395912056712
0.00403609806396062
0.00427950991331678
0.00417997882249308
0.00335679995003393
0.00208191205375235
0.00141726896607398
0.00111656169823735
0.00101497987775086
0.001056984142727
0.00120205503898415
0.00143144750310814
0.00175632027094886
0.00218412737817614
0.00271495568544963
0.00335105077242633
0.00409952270085129
0.00497721783473204
0.0059744782136588
0.00701760255601013
0.00804636830406195
0.00904310724926648
0.0100102399161867
0.0109602205931744
0.0119189643498372
0.0129433079680184
0.0141500278637604
0.0158865279038242
0.0184666672208795
0.0223623137312389
0.0283828897396825
0.0376366841742474
0.0538067717295737
0.0797134470419429
0.112038925481977
0.106051180245147
0.065370595686727
0.033681423017334
0.0217618771503801
0.0345877399625376
0.0285445353889759
0.0147441635311024
0.00661699927654208
0.00193003078986322
0.0011573671454719
0.000997703256857654
0.000482170352050521
0.000181945393044234
7.25318045870926e-05
3.79998995159537e-05
2.79721564308067e-05
2.57404394612255e-05
2.64450907447464e-05
2.85785650502994e-05
3.18955784651515e-05
3.65204269885559e-05
4.24665318022669e-05
4.9799804591959e-05
5.857357461712e-05
6.88452611849181e-05
8.01087603979162e-05
9.10408008640276e-05
0.000100715882918209
0.00010776289787159
0.000110559374591041
0.00010760252639255
9.81715156191519e-05
8.3087286372671e-05
6.46002517792163e-05
4.58524378458512e-05
3.0371287061366e-05
1.98837322850698e-05
1.476893265504e-05
1.3717542951016e-05
1.63810608536816e-05
2.13699191167818e-05
2.83090208003124e-05
3.74589035283462e-05
4.97413004835103e-05
6.58486604672219e-05
8.63954586296895e-05
0.000112433030988846
0.000144425435179783
0.000182655518194406
0.000227094662335808
0.000277419565647484
0.000333075596772028
0.000393367677861667
0.00045755486201238
0.00052492987531217
0.000594875094581018
0.000666894585290766
0.00074062703430741
0.000815845894514759
0.000892452574774868
0.000970467040397818
0.00105001864171622
0.00113133882427935
0.00121475649372663
0.00130069642867063
0.00138968084510766
0.00148233426915654
0.00157939185008069
0.00168171140448576
0.00179028954114938
0.00190628226642184
0.00203103038893484
0.00216608980739798
0.00231326595954137
0.00247465046837179
0.00265265510494407
0.00285003291790443
0.00306986633070268
0.00331548171782529
0.00359021035718008
0.00389683667187573
0.00423641368263102
0.0046058374422205
0.00499329177563338
0.00526990474485997
0.00545216261231088
0.00548324556580863
0.00526128616835098
0.00462945288871214
0.00360399612056192
0.00307273573110214
0.0026843199257557
0.0024487951019329
0.00242378640677465
0.00257902954230997
0.00294234463813305
0.00349870703012184
0.0042718051304289
0.00527509841224949
0.00650907449399824
0.00797908656224663
0.00970154238869764
0.0116763620423746
0.0137435094367888
0.0158845633066831
0.0180254823807614
0.0201588248353533
0.0222946339537339
0.0244611706626898
0.0267164194347179
0.0291829104387617
0.0321470930456012
0.0362787345123105
0.0421639516364248
0.0507863541096617
0.0631065579776931
0.080632498770926
0.105984343704627
0.135222250180191
0.155238006758709
0.148637352200518
0.116516846079077
0.0594396816969273
0.0401324731165803
0.0355713270401828
0.0326815127043091
0.0184708719098284
0.0101456322697748
0.00411745835690722
0.00190836169129719
0.0016716764157471
0.000873987057959863
0.000346057299260462
0.000138292242891433
7.01369100355974e-05
4.98494302713299e-05
4.50143705477563e-05
4.5797007611149e-05
4.91966047435637e-05
5.46379362913697e-05
6.23013790226546e-05
7.21941875615455e-05
8.4394860829531e-05
9.89277481062148e-05
0.000115661864415958
0.000133732123972846
0.000150990686340189
0.000165788833350035
0.000175967964658494
0.000179130886955614
0.00017323456289901
0.000157820378789673
0.000134367801022411
0.000105963704759386
7.69039723639119e-05
5.22211054989388e-05
3.47900880162003e-05
2.59030390917528e-05
2.42748119829567e-05
2.95304637729169e-05
3.88831271917615e-05
5.17326472042148e-05
6.88154958678146e-05
9.09524297363145e-05
0.000118856221579638
0.000154456742661197
0.000197838669793097
0.000249016174597764
0.000307500405542403
0.000372433458557957
0.000442757254551579
0.000517377778322164
0.000595288519483943
0.000675641822587691
0.000757776511267791
0.000841217942772957
0.000925664752974433
0.00101097212840702
0.00109713661503955
0.00118428461713203
0.00127266506466379
0.00136264600037923
0.00145471463414934
0.00154948017882633
0.00164767882715571
0.00175017986707321
0.00185799186037909
0.00197226713112114
0.00209430225531749
0.0022255312112241
0.0023675065101322
0.00252186171774357
0.0026902464748174
0.00287422143118754
0.0030750963830231
0.00329368830824049
0.00352996747297416
0.00378254757631399
0.00404795584190436
0.00431958578146034
0.00458616370213104
0.00482929132502508
0.00501802976042221
0.00507914885520543
0.00501250034309231
0.00485864446961553
0.00454709812667915
0.00405525177529313
0.00336740613789019
0.00274226341232224
0.00290635882453968
0.00311632115299326
0.00330166072666828
0.00360121758018584
0.00400884684050931
0.00462270033232909
0.00550482533057564
0.00668820546883618
0.00818954470227856
0.0100137617153309
0.0121673020760773
0.0146578429003303
0.0171558130113614
0.0199117148916853
0.022751550349444
0.0256901365582073
0.0287454905141765
0.0319350087437798
0.0353012105221198
0.038927851474246
0.0429796975091343
0.0478688789509373
0.0543326022810809
0.062955739602962
0.0746814358223218
0.0892055973118393
0.107023004397478
0.125710677056673
0.137185094162566
0.133691359735315
0.123368283961682
0.121445351824112
0.0695943806091947
0.0441853005973283
0.0341154672389703
0.0312257196418094
0.0182392310230121
0.0108764105079596
0.00715799564590057
0.00279110239243461
0.00231535808649044
0.00132037793711836
0.000554066600399594
0.000224179688035954
0.000110709245829271
7.59046751417689e-05
6.71120529540165e-05
6.75283966406185e-05
7.20362184345267e-05
7.95236952923768e-05
9.01784659876617e-05
0.000103959478440887
0.000120889013077343
0.000140840343903486
0.000163236851052895
0.000186524505311739
0.00020796788250411
0.00022511434789278
0.000235236870702113
0.000235663562350181
0.000224667922840846
0.00020242316223149
0.000172565953061077
0.000138028386175949
0.000103047442264569
7.2711991452144e-05
5.07030603120042e-05
3.84755990332378e-05
3.73519816236497e-05
4.72040911441983e-05
6.29363908739822e-05
8.3991561912856e-05
0.00010970442932904
0.000140844178291892
0.000179775815717129
0.000225074739887036
0.000275912141357079
0.000331277562187525
0.000390381218509088
0.000452841111559328
0.000518670963012584
0.000588133078966134
0.000661558228207747
0.000739214538915098
0.000821255373257655
0.0009077347534406
0.000998658652738733
0.00109404430526639
0.00119397025899553
0.00129861101838553
0.00140825611580643
0.00152331609106631
0.00164431787492901
0.00177189108253048
0.00190674561409958
0.00204963954251748
0.00220133560966803
0.0023625436244689
0.00253384565276587
0.00271560072877346
0.00290782598446742
0.00311005170930831
0.0033211497191638
0.00353913607680196
0.00376095328727052
0.0039822410628948
0.00419711045006478
0.00439794402677309
0.00457525551156116
0.00471767154500699
0.00481224230670179
0.00484621704193853
0.00481635861232917
0.00461037735274705
0.00445104248649429
0.00420554513136129
0.00387801773997861
0.00346202051940209
0.00294140877373582
0.00251168555786613
0.00272720570832137
0.00305801282952882
0.00345219200507419
0.0039861900301677
0.00465952243835849
0.00549008844268073
0.00660627307814385
0.0080357414646425
0.00978088337505897
0.0118404617606396
0.0142144628673208
0.0164564118575431
0.01914270554318
0.0219632800874754
0.0248879743193754
0.0280034032013922
0.0313512927768097
0.0349706463799041
0.0389261107952245
0.0433216084553954
0.0483242451448377
0.0543356772719947
0.0618559369371951
0.0711894931962088
0.0821228925997289
0.0935468888357495
0.104680747940461
0.110897257457772
0.106924642848656
0.0906723345186118
0.0765599681610288
0.0751856393818078
0.0703265658909106
0.0472985515184902
0.0349401998395867
0.0312919711566818
0.0203647122061978
0.0100822222499648
0.00941327329131409
0.00429682396963009
0.00286800180826013
0.00177719316057672
0.000797809259219835
0.000329988696576005
0.000159774882086498
0.000105618756889131
9.11632280866337e-05
9.05572295193361e-05
9.57882407178473e-05
0.000104934076577613
0.000118089441277643
0.000135078257937766
0.000155737118168878
0.000179603294011384
0.000205444143536862
0.000230345992767478
0.000251686184372
0.000266342840169442
0.000271574032579842
0.0002652897837634
0.000246962007715901
0.000218266551100432
0.000184731330082156
0.000149989205727956
0.00011621023341752
8.68788533049887e-05
6.47711740281891e-05
5.23723075026344e-05
5.42688331925467e-05
7.15312046317763e-05
9.55320599586934e-05
0.000121493270816318
0.000150981132976494
0.000186103442622982
0.00022397298931514
0.000263827290907277
0.000305864530971752
0.000351420416928555
0.000402653416308724
0.000461889392938907
0.000530964881900631
0.000610825169895939
0.000701471839225049
0.000802188211917276
0.000911875115435378
0.0010293566628608
0.00115358624421302
0.0012837488362316
0.00141928480614471
0.00155986619467097
0.00170534852450455
0.00185571233669987
0.00201100104128657
0.00217125721989039
0.00233645734059717
0.00250644379451646
0.00268085370307614
0.00285904451076233
0.00304001756707437
0.00322234260637794
0.00340408766778104
0.00358276065539029
0.0037552710417429
0.0039179209386747
0.00406643653365931
0.00419605099557515
0.00430164958630313
0.00437798739185089
0.00441998427515466
0.00442305874277389
0.00438315969000534
0.00429420060883941
0.00411709931794985
0.00401425930292031
0.00385729702457304
0.00365996961483402
0.00341849174289403
0.00313032209298858
0.00278454459950319
0.00250926431680775
0.0028134318255692
0.00316312429524371
0.00360720918151476
0.00421767964272128
0.00505433272071271
0.00599011310844716
0.00719593676883465
0.0086624459549455
0.0103538928052268
0.0122614537832533
0.0139670436893093
0.0161392966187471
0.018443827103673
0.0208454139869226
0.0233507818385638
0.0260928178412009
0.0291114156372159
0.0324575762404885
0.0362035950632696
0.0404555396989356
0.0453547844886013
0.0512184273585069
0.0582466496064771
0.0664906646832774
0.0739160084662522
0.081096269168561
0.0857741682130363
0.0839858686958577
0.0727764729784287
0.0521513161368622
0.0395711024120776
0.0407144233689292
0.0558778172995502
0.0454558994015866
0.0316452417991423
0.0281546573277185
0.0258196537208776
0.00949927089491606
0.0098956748702217
0.00659644030687315
0.00341219602945957
0.00221496183853233
0.00106756294007744
0.000454662508768335
0.000217340261992773
0.000138510896713379
0.000116224654298786
0.000113663321669798
0.000118951296561345
0.00012899471532931
0.000143626543389792
0.000162399847265714
0.0001847814808914
0.000209781113333011
0.000235538101544881
0.000256863350059204
0.000272605111482003
0.000279453033735038
0.00027548753903541
0.000260060285756941
0.00023435888195924
0.000201668433641176
0.000166423786098882
0.000137794580384396
0.000112283095609719
9.13877195764468e-05
7.57806142343427e-05
6.80647422117593e-05
7.65603851800493e-05
0.000102349772924664
0.000125717067087292
0.000149319902297529
0.000176422427351946
0.000203289858052155
0.000230776196924632
0.000261493275837495
0.000299485396178148
0.000349088072639698
0.000413682805964684
0.000494770591751008
0.000591753395487591
0.000702439708557199
0.000823904501593996
0.000953272385348408
0.00108818250059994
0.00122693646441055
0.00136844151777074
0.00151206758688861
0.00165749207514593
0.0018045659485885
0.00195320797091886
0.00210332333619833
0.00225473957532575
0.00240715367083721
0.0025600864002229
0.00271284188207995
0.00286447239293186
0.00301375000976139
0.00315914766486361
0.003298833319158
0.00343068133108406
0.00355230500834538
0.00366111438323598
0.00375440194133973
0.00382945821293135
0.00388371781980875
0.00391493509659141
0.00392138940463956
0.00390213017178606
0.00385732608772152
0.00378905795843238
0.00370395332404888
0.00357185449145706
0.00348137702709022
0.00336315104116834
0.00321971355815158
0.00304674942292508
0.00285242172086512
0.00262863130899166
0.00243901377770733
0.00283093798371559
0.0032221214896006
0.00369979093305393
0.00431585847039186
0.00510769838484549
0.00613600090789036
0.00723549482635341
0.00850392098634074
0.00989663708530013
0.0110774316025529
0.0126449449160316
0.0143593821754764
0.0161626283553048
0.0180509461432305
0.0200523031903808
0.0223052161506931
0.0248301031585979
0.0276724876235148
0.0308930659158843
0.0345799128112695
0.0388371294010144
0.0438994628484196
0.0497949112069953
0.0560488891821122
0.0605428420588916
0.0644438451255043
0.0649378554811702
0.0586897721847308
0.0438284040582336
0.0227074649165062
0.0142088131296836
0.0175821179518472
0.0363437517975344
0.0359200671822565
0.0250911252193244
0.0216304607400588
0.0318584086952686
0.00975753765626602
0.00775936235445481
0.0100175028681229
0.0042162833698697
0.00265594049827577
0.00136255773044597
0.000597984487401676
0.000283471524630388
0.000174151643711347
0.000141232512263242
0.000135394025883721
0.000139730095919579
0.000149504012998032
0.000164042407256934
0.000182474194069899
0.000203717014380962
0.000226157257355643
0.00024785516216208
0.000260501371682199
0.00026634124093844
0.000262489155169141
0.000248406667515383
0.000225000617433356
0.00019471536299356
0.000161602265290496
0.000129971408161647
0.000103156960463243
9.32699059007213e-05
8.59882065186463e-05
8.27078215375633e-05
8.48955263831054e-05
0.000103394556218571
0.000122790663044951
0.00013964847783643
0.000157572325057245
0.000175068364788232
0.000193694082921253
0.00021829672065939
0.000254633748231462
0.00030785140393231
0.000380818831658628
0.000473235433750458
0.000581940841910954
0.000702259971966666
0.000829557634519838
0.000960240742144622
0.00109203395992624
0.00122377265630466
0.0013550337271847
0.00148579742690348
0.00161620720211136
0.00174642138511894
0.00187652965150286
0.00200650737714225
0.0021361897816115
0.00226525505606197
0.00239321144097405
0.00251938668028651
0.00264292033846889
0.00276276067369335
0.00287766854757216
0.00298623090273222
0.00308688649045021
0.00317796611228314
0.00325774888193504
0.00332453527510635
0.00337673648467552
0.00341297808514992
0.00343221465539723
0.00343384960929216
0.00341785187256188
0.00338486077680411
0.00333629159417938
0.0032746495193793
0.00320189668513917
0.00312116829482458
0.00305099840408443
0.002961750922635
0.00285324852441259
0.00272553319835974
0.00259542825114804
0.00244570486168484
0.00228325887888599
0.00271371478802355
0.00311160674743003
0.00357302739375832
0.00413099398601554
0.00479836083718481
0.00567719012523623
0.0066827918322423
0.0076384712979428
0.00841761570209463
0.00951514617757199
0.0107565924554872
0.0120623827910352
0.0134564963450948
0.0149341112914073
0.0165273080868733
0.0183606319407226
0.0204391275657147
0.0227991505183648
0.0254864449591843
0.0285673396242517
0.0321132971861487
0.0362962265509679
0.0410726840180641
0.0450790856520294
0.047778416977797
0.0491050196698359
0.0465784965907984
0.0371935299105814
0.0200855351354118
0.000616812612002581
-0.0030652582095611
0.00250163202604768
0.0201165828496531
0.024208870183322
0.0175843188093453
0.0146395036476827
0.0344261321382985
0.0108122725216853
0.0062478593340828
0.0108776795931593
0.00563629885169825
0.00317309513139084
0.00170586755322053
0.000766465130817275
0.000359506759892523
0.00021256551215056
0.000165263732102928
0.000154277420087632
0.000156293897040577
0.000164332021335522
0.000176901884341692
0.000192617458146434
0.000209795820654368
0.000226211007765985
0.000238336969116177
0.000242710095424959
0.000238042558381824
0.000224865423096802
0.000203674656897296
0.000176173742153656
0.000145161497996032
0.000114724437890813
8.89441278345197e-05
7.09595254869525e-05
6.30431248301333e-05
6.96997472852023e-05
8.63043642617062e-05
0.000100958570239075
0.000119299680726088
0.000126402892760369
0.000136779998972177
0.000146785567512945
0.000160097856222885
0.000181593791031158
0.000217985201754404
0.000274306726617113
0.000352284710051413
0.000449542519578996
0.000560570228680738
0.000678945837651926
0.000799409357495659
0.000918772764009821
0.0010357301874848
0.00115019230836204
0.00126264263439818
0.00137370797533828
0.00148393366049946
0.00159369351584104
0.00170316959602945
0.00181236083326299
0.00192109901213578
0.00202906313806138
0.00213578957835654
0.00224067860426519
0.00234299921335259
0.00244189469847746
0.00253639134830922
0.00262541277271452
0.00270780193513585
0.00278235264901345
0.00284785171449347
0.00290313203650919
0.00294713600807579
0.00297898744251402
0.00299806837636196
0.00300409544703535
0.0029971873492372
0.00297790863298896
0.00294726047252673
0.00290652938785002
0.00285653319915794
0.00278321869419752
0.00274780035611495
0.00269090844103615
0.00261853441043811
0.00253111641001392
0.00243339900829321
0.00234562059901874
0.00223594934374761
0.00206794473126419
0.00250026150184103
0.00287098635087623
0.00327661144013439
0.00374106081198889
0.00426842864517145
0.00484010021712683
0.00551325543166219
0.0062168201237797
0.00702797219985243
0.00790703439588346
0.00884047012720031
0.00983968561591519
0.0109235691711597
0.0120872172085008
0.0133609395688846
0.0148515783262485
0.0165553706001822
0.0185001182333998
0.0207183602213462
0.0232568916812234
0.0261616671847116
0.0295575238372032
0.0333663269555243
0.0351601730094897
0.0365998910250865
0.0357907636623937
0.030731618297891
0.0187538258671115
0.000302330647093829
-0.0157090973455362
-0.014749205019333
-0.00748725805702325
0.00824621824200953
0.0139356877811135
0.0103848618542338
0.00893088580508411
0.0310882617446656
0.0124465295931443
0.00551483466663487
0.00955696592072124
0.008029584782774
0.00381999995690219
0.00213452633479855
0.000980939650573881
0.000451112929080918
0.000255233520733136
0.000188191987779363
0.000169411719219882
0.000167443063130509
0.000172288541839892
0.00018125602081836
0.000192471797304507
0.000203803543763079
0.000212756948965948
0.000216039934075491
0.000212248480644058
0.000199887185706074
0.000181253440813166
0.000157048853294973
0.000129024027141689
9.98730187713059e-05
7.35639623179602e-05
5.39592419813761e-05
4.38932762676223e-05
4.50732207790271e-05
5.82197852360144e-05
8.23323854952734e-05
0.000104709037594247
0.000118614659675061
0.000118087386796052
0.00012247603028729
0.000131436450524271
0.000150898874565547
0.000186644931434604
0.000243533959504886
0.000322196267441442
0.000418595662408797
0.000525506429358496
0.000635498108785352
0.000743364176454704
0.000846780778895305
0.000945597935666837
0.00104076873025495
0.00113353512605271
0.00122499396536297
0.00131593856043377
0.00140684510663514
0.00149791560095396
0.00158913206248778
0.00168030365038667
0.00177110183624607
0.0018610844324773
0.00194971122414955
0.00203635432706412
0.00212030611765389
0.0022007874287731
0.00227695811282805
0.00234793195589033
0.0024127975177589
0.00247064601337252
0.00252060681331464
0.00256189037724754
0.00259383722914972
0.00261597072769015
0.00262804925606328
0.00263011175021624
0.00262250754035112
0.0026058955942266
0.00258118777595953
0.00254939021116583
0.0025112894868423
0.00245910454416043
0.0024254453490956
0.0023756990212512
0.00231286165501171
0.00223907268605298
0.00216227780820512
0.00210209039561727
0.0020119430236667
0.00182274114672302
0.00223514240793197
0.00256119156861949
0.00289498219456396
0.00325954986624771
0.00366088348908952
0.00409438672089879
0.0045929002041561
0.005147883127645
0.0057491771529299
0.00640092051965302
0.00710240764265219
0.00786552413797817
0.00870579741523535
0.00961907754816546
0.0106325949734299
0.0118364387109284
0.0132221294134534
0.0148100707440813
0.0166216451638912
0.01868674866205
0.0210309507330615
0.0237430194820315
0.0263664760108098
0.0266569350860463
0.0268201977786019
0.0240948575233358
0.0167385572353019
0.00252140430544052
-0.0157551234854342
-0.028564394730086
-0.0223974061292783
-0.0142053253047216
-0.000253821547986703
0.00592198720442654
0.0040338127947024
0.00473129486948787
0.0230163321678323
0.0144796685502283
0.00563320732830572
0.00657977304877659
0.00986787813532547
0.00464078660410962
0.00265286363163688
0.00127187081424546
0.000572048028935224
0.000306766868527834
0.000211725558760133
0.000181366015088491
0.000173497574892742
0.000174047270332317
0.000178539679326028
0.000184658773344338
0.000190022756822659
0.000192195664918641
0.000188501535993062
0.000179342438125214
0.000162716406802064
0.00014187942726241
0.00011724796169523
9.03948048568493e-05
6.39330734133062e-05
4.1838477971845e-05
2.78623346934085e-05
2.44812134206377e-05
3.28257504326725e-05
5.20324407210309e-05
7.91035401488296e-05
9.77578230593424e-05
0.00010847478984777
0.00010369204480695
0.000108470828584855
0.000124912453913002
0.000158813890920229
0.000213749296061131
0.000289856459035243
0.000382036833781194
0.000481937213728693
0.000581509838214836
0.000675748328263667
0.000763137563859371
0.00084451033115664
0.000921656861044757
0.000996400296522267
0.00107018288579513
0.00114397378034175
0.00121831923384722
0.00129343398296602
0.00136928809532388
0.00144567565538042
0.00152226396103248
0.00159862692037429
0.00167426678308294
0.00174862811761548
0.00182110719052968
0.00189105922558695
0.00195780575355176
0.00202064364082379
0.00207885724266987
0.00213173487015197
0.00217859032620862
0.00221878980835102
0.00225178381425751
0.00227714246696539
0.00229459189889872
0.00230404729062306
0.00230563659527641
0.00229970694556711
0.00228680188213614
0.00226759301549185
0.0022427520957513
0.00221282918000959
0.00217064634681308
0.00213820969738299
0.00209247020905598
0.00203602913589444
0.00197263563744867
0.00191159458485249
0.00186959921005798
0.00178737656188866
0.00157047387107141
0.001950808283162
0.00222641940714501
0.0024871318293468
0.00275934796969916
0.00305225925992714
0.0033682172611893
0.003738369511019
0.00414702278507847
0.0045831631872883
0.00505821511353966
0.00557673040521748
0.00614919120283836
0.00678885367660102
0.00749274467426867
0.00828480969106649
0.00924029027243538
0.0103481810505527
0.0116225239033627
0.0130750198990664
0.0147206347365951
0.016568097562148
0.0186782724804017
0.0197550860384893
0.0194065228469361
0.0180752321678834
0.0135562831859665
0.00404562395549112
-0.0116519953967526
-0.0313780560612455
-0.0373587244030976
-0.0275870459377654
-0.018763282758065
-0.00636892282745727
-9.82014490213458e-05
-0.0012677618558382
0.00160969266609923
0.0133893887610978
0.0178860598509138
0.00644553485665953
0.00345338202323914
0.0106054415849135
0.00578667456216364
0.00322527635088034
0.00165300365145398
0.000742727261649019
0.000376283184894413
0.000240345406861322
0.000192900032104285
0.000176754902325928
0.000172235034795876
0.000172078237610602
0.000173393316815185
0.000173635116722625
0.000170591050170441
0.000162282193213846
0.000150220760015223
0.000131527654271791
0.000110113885083661
8.60450583736973e-05
6.07784806772688e-05
3.69658307405213e-05
1.86629033548814e-05
9.51235766233626e-06
1.15281332634849e-05
2.51048126695489e-05
4.78943214172343e-05
7.48751002971898e-05
8.61619609019253e-05
9.5172006746107e-05
9.17981429728788e-05
0.000104064985866972
0.000134125113373049
0.000185213606584235
0.000256589317908788
0.000342893001329729
0.000435143458844684
0.000524717387728921
0.000606619790400241
0.000679840357548978
0.000745910769698654
0.000807255995350775
0.000866161722060286
0.000924366219634505
0.000983009385272506
0.00104272805184008
0.00110377997656814
0.00116615378129263
0.00122965248427134
0.00129395325532082
0.00135864810565393
0.00142327105172591
0.00148731579768298
0.00155024727526784
0.0016115094733332
0.00167053138423441
0.00172673271184502
0.00177953049421925
0.00182834767617
0.00187262456663124
0.00191183378444498
0.00194549892477593
0.00197321662648615
0.00199468058764755
0.00200970536139307
0.00201824595364357
0.00202040795090212
0.00201644198998823
0.00200671486260223
0.00199164836791015
0.00197161784098264
0.0019468383521593
0.00190967711327881
0.00187829352676546
0.00183584715959289
0.00178528040648861
0.00173130216862825
0.00168299417931055
0.001653166496341
0.00157248462213421
0.00132623319897149
0.00166811336343933
0.00189354852432846
0.00208645540101549
0.00227755760337049
0.00247865358081568
0.0026955436904664
0.00295651493822723
0.00324347232779393
0.00354600191683833
0.00387790697617677
0.00424552213583143
0.00465738014713467
0.00512518550899418
0.00564710700299059
0.00624380108881592
0.00697758707522587
0.00783606997768408
0.00882774775020783
0.00995555736777601
0.0112209307115146
0.0126184492655832
0.0141821188672281
0.0136585711364776
0.0128163569552107
0.0100696563221032
0.00381864239465513
-0.00760433261633474
-0.0253144332349239
-0.0392735017470417
-0.0414309005063503
-0.0317415284440065
-0.0218520881499098
-0.0107852581107494
-0.00459111975124374
-0.00549205326631441
-0.000915424816773111
0.00477947531723915
0.0221537666255802
0.00723246926285836
0.0027657190558416
0.00826564634563437
0.00755217134477358
0.00385013638031157
0.0021048387588217
0.000978848089907478
0.000476075950518329
0.000281106077269358
0.000208726637634711
0.00018086624574386
0.000170278095815124
0.000165353747949957