/*--------------------------------*- C++ -*----------------------------------*\
  =========                 |
  \\      /  F ield         | OpenFOAM: The Open Source CFD Toolbox
   \\    /   O peration     | Website:  https://openfoam.org
    \\  /    A nd           | Version:  7
     \\/     M anipulation  |
\*---------------------------------------------------------------------------*/
FoamFile
{
    version     2.0;
    format      ascii;
    class       volScalarField;
    location    "20000";
    object      omega;
}
// * * * * * * * * * * * * * * * * * * * * * * * * * * * * * * * * * * * * * //

dimensions      [0 0 -1 0 0 0 0];

internalField   nonuniform List<scalar> 
15600
(
3737.12483284527
3747.09242362956
4013.54516297485
4981.9260547705
6722.38289284817
8243.61142270336
9140.89578878063
9470.61422170059
9381.66066933326
9006.32397445235
8438.94253287993
7750.80437657576
7003.44202430827
6322.24141473849
5746.06769917012
5256.23422684097
4837.73362561202
4478.5709374899
4169.18030251191
3901.73644682056
3666.81084072719
3434.23864841101
3192.83119398599
2945.61671358385
2694.79526760461
2441.72671706383
2187.24851626575
1932.50590719867
1690.43846208933
1474.1003029732
1285.09378774566
1127.09329186539
1007.45007878406
937.699091312195
929.394370773479
934.281208210129
934.281208210057
934.28120821018
934.28120821008
934.28120821012
934.28120821018
934.281208209993
934.281208210126
934.28120820998
934.281208210151
934.281208210093
934.28120821012
934.281208210205
934.281208210032
934.281208210191
934.281208210093
934.28120821008
934.281208210105
934.281208210081
934.281208210079
934.28120821008
934.28120821018
934.281208210058
934.28120821018
934.281208210131
934.281208210144
934.281208210194
934.281208210058
934.28120821018
934.281208209977
934.281208210128
934.281208210069
934.281208210066
934.281208210052
934.281208210108
934.281208210206
934.281208210029
934.28120821018
934.281208210105
934.281208210135
934.28120821018
934.281208209977
934.281208210129
934.281208209993
934.281208210167
934.281208210082
934.281208210075
934.281208210134
934.281208210132
934.281208210108
929.524926346351
937.279177788624
1006.43706984407
1125.61913087678
1283.2505475972
1471.93670061625
1687.9696754464
1929.77036715413
2184.44091565022
2438.88240423651
2691.92158354252
2942.72458598983
3189.93191363426
3431.36157835163
3663.98352605119
3898.65199089707
4165.64272148204
4474.4996820179
4833.0236909042
5250.76011339078
5739.66657846975
6314.71647759621
6994.58045987241
7741.7785983221
8430.61744886165
8999.36269921386
9376.99713236043
9469.38722739832
9144.96941176066
8254.29309745074
6739.43528498164
4996.07564420119
4018.8948543314
3747.72290820342
3737.12483284612
634.118030093833
637.660803666266
690.235691965108
837.05713950203
1115.85809714814
1370.94453702747
1527.64365811156
1587.55090322543
1575.35767508855
1514.64284717237
1422.04219231867
1309.17482747347
1185.20372104214
1070.59348717289
972.994150350893
889.897643717303
818.847307712656
757.840423352015
705.256902372169
659.791303201556
620.036053095616
581.00030454806
540.556163524239
499.098904206607
457.019264763297
414.569960388538
371.908029408089
329.131721340889
288.290701657152
251.665102217944
219.60758281665
192.686420535086
172.148548904112
159.974556522956
157.797618378937
157.883975426153
157.75955920538
157.787469922198
157.853954851962
157.9381686484
158.042114218065
158.160259113972
158.287459225493
158.415313936983
158.536193555476
158.643923302313
158.735146331384
158.8092353496
158.867842628824
158.914033597099
158.951473595059
158.983804398398
159.014281861188
159.045625763014
159.080013080388
159.119145510323
159.164342218374
159.216629138171
159.276810188168
159.345516173483
159.423231012472
159.510297395371
159.606904314413
159.713057934665
159.828536925235
159.952832399281
160.085071478096
160.223922899407
160.367481351225
160.513125172063
160.657339453701
160.795490176888
160.921523046135
161.02755749896
161.103342045072
161.135396018348
161.105571462516
160.989366383741
160.753672095841
160.348002420213
159.686992835729
158.661644496482
157.15680270246
154.876538626536
150.977971901434
147.97789601128
156.133607523923
170.915305401171
192.689764377219
220.48010361574
253.227985685955
290.427300009179
331.842765789082
375.077454437601
417.910336561494
460.308642881804
502.171203215062
543.29331410885
583.303270402152
621.722310043957
660.669992714123
705.396863924874
757.313108425977
817.706327755336
888.181282839341
970.737805448528
1067.80521490369
1181.96110283265
1305.57287641324
1417.99784235313
1510.04687024283
1569.78232402906
1580.5691529685
1517.3910158057
1355.53710535109
1089.61499744579
820.761418987012
696.820880153082
668.432238229741
647.49385914494
221.768232459495
221.515606495275
248.616654407697
287.924673810079
366.463163391759
445.289579716581
498.429509792387
520.111057229037
517.538096435093
498.587808857877
468.963169829998
432.474681047492
391.978191761593
354.182421615345
321.868475200965
294.339429475345
270.785616873844
250.544610385469
233.072042380007
217.933389263416
204.69960363266
191.771582326151
178.40001913551
164.688234727151
150.779549985935
136.778817025114
122.761573049678
108.755333800333
95.3962419364985
83.4389961311947
73.0001337452197
64.2062025197328
57.4199842176149
53.273387520002
52.3088549883443
52.1444010798745
52.0998812741731
52.1667354300388
52.2949482502099
52.4592405178568
52.6582704391964
52.8828392665364
53.1218194051583
53.3600262315464
53.583492872585
53.7816083079191
53.9488673163061
54.0847520887301
54.1926261729377
54.2781054957481
54.3475940617857
54.4072429056745
54.4623841794676
54.5173264571509
54.5753727093495
54.6389418748793
54.709716345033
54.7887733675419
54.8766819877163
54.9735619934171
55.079107133395
55.1925782275918
55.3127717702794
55.4379694544679
55.5658732483241
55.6935303465826
55.8172517287712
55.932527298326
56.0339389035983
56.1150707116387
56.1684115707394
56.1852372330221
56.1554488446409
56.0673331469606
55.9071878693307
55.6586864818264
55.3018204090813
54.8113648547203
54.1544749375254
53.2860387919703
52.1443104926609
50.6359969466717
48.677936450941
46.2025468438651
43.2715916928329
42.7839491829048
50.3404506027283
57.3225881196226
65.815307109939
75.9000739217218
87.3773330196757
100.184782708552
114.270234383084
128.688419904833
142.678174036256
156.334871361084
169.665678705542
182.625910230335
195.088179141516
206.899288234883
218.91808370561
233.017853185598
249.580225155838
269.015918998948
291.849071690991
318.737718176233
350.458680686524
387.739213990897
427.589514058961
463.158919903436
491.547445611986
508.512733781085
508.212210922643
481.108682119439
419.549645219448
323.257324924723
246.233639888161
230.176102243283
246.761449251959
237.937140749207
115.332371082969
112.160627193236
134.182357320316
148.410279844573
171.500823825458
200.445154217907
224.723747389745
235.822096592821
235.562007179591
227.564604362205
214.552709775491
198.265262428001
179.955868019927
162.703099284088
147.893551217578
135.2626654036
124.43754354784
115.114478015008
107.037568207455
100.003358679821
93.8259979647113
87.8071247349689
81.5937591073013
75.224937489502
68.7784265803282
62.3204428989649
55.9068608063441
49.5603761965087
43.5545074572163
38.2285493660327
33.6277697329791
29.7590844653987
26.7313233200818
24.7996030450109
24.259267451217
24.1144048607844
24.1306431022232
24.2542988128008
24.4613532806222
24.7253035811425
25.0385499035409
25.3838306571785
25.7387395867712
26.0771244035454
26.3765643398712
26.6224728577893
26.8099121928172
26.9422810565343
27.0284377802983
27.079572865195
27.1068280923477
27.119900138321
27.1264835998615
27.1322460549581
27.1410669726516
27.15535803311
27.1763658280382
27.2044172347062
27.2390977458398
27.2793717046042
27.3236559380105
27.3698618202042
27.4154172024709
27.4572794545449
27.4919475932965
27.5154800335191
27.5235217920238
27.5113423024171
27.4738800420074
27.4057876820456
27.3014633134038
27.1550491270832
26.9603734035172
26.7108072971471
26.399011656796
26.0165454328103
25.5533404355112
24.9971439441267
24.3331681442668
23.5440392374132
22.6074453669106
21.5025274575462
20.2603018658103
19.0096664169009
18.1249885895049
19.2171995245866
24.3806803216226
28.4867942697661
33.2063121331628
38.3864965871072
44.0302487085494
50.1312018598237
56.6364083007985
63.0225187312805
68.9858491886156
74.6711946027449
80.1161479170945
85.3223077648292
90.2400959028046
94.828000186296
99.6079330144313
105.486874621433
112.556652371634
120.992398992175
131.022635419441
142.940097583449
157.077955491349
173.685271043018
191.118424845448
206.20013698409
217.601824206607
223.172880034604
220.112489624934
203.650773575614
171.61855000235
126.407440176566
97.813773818481
96.9370215768477
121.32700155556
125.298659929343
72.1469210286171
67.5229289602528
89.0142924994851
98.983290905446
100.850756733178
108.438549582946
120.760047868438
127.778047747884
128.360391843142
124.480980581527
117.754396322563
109.132114610754
99.2616089492859
89.8440721525781
81.7161266750875
74.7681947343324
68.7941023582832
63.6271152353455
59.1215918280352
55.1618685251964
51.6495013958536
48.2261081824342
44.699682551527
41.0909220619551
37.4533724846989
33.8386226766148
30.2947532042184
26.8465926589373
23.6354665622874
20.8405796554164
18.4807021319171
16.5239149661022
14.9795021005778
13.9502753155633
13.6429904892247
13.5657367631129
13.6544646190361
13.8639835193999
14.1775609344155
14.5634184863111
14.9990834331873
15.4497321223437
15.8751883177329
16.237803134746
16.5128802026624
16.692582417595
16.7842586732272
16.8048081704414
16.7745536525021
16.7126790058965
16.6348632350542
16.5526333690195
16.4737154178202
16.4027782948753
16.3422177628252
16.2928201305962
16.2542626168261
16.2254648549952
16.2048219163464
16.1903544903146
16.1798028718887
16.1706882491637
16.1603551248858
16.1460063349606
16.1247359524943
16.09356288587
16.0494645248483
15.9894079268486
15.9103725887366
15.8093603872505
15.6833851361531
15.5294386649643
15.3444335327518
15.1251287243816
14.8680591903021
14.5695022247731
14.2255431674312
13.8323595478555
13.3869748721455
12.8889521851516
12.3383193512525
11.755805888056
11.2016725156559
10.8115673878178
10.8766870012934
12.1605025399674
15.3897873059261
18.0112255084863
21.0076343765822
24.0879855997297
27.304530939819
30.6304582186441
34.0109507296748
37.1463064046085
39.9521991576455
42.5775267307328
45.0591008314466
47.4113796150211
49.6047532503766
51.6546853063201
53.9035934048778
56.8178913310264
60.3910959875817
64.713865611684
69.9023778653663
76.1092540541397
83.4994826771662
92.1429661483327
101.011558306232
108.400791964254
113.601814217999
115.384761711864
112.319503517906
102.081717787835
84.791624221085
62.8598393862176
50.553043418823
49.8972327587347
67.8571003777445
75.8084438498643
49.6419716696666
44.4681458991461
64.0730148744045
76.679574632238
70.7833128050154
66.4064672739502
71.8594000635096
76.8911391387647
77.9167406664339
75.9813712581607
72.2121968786127
67.2005222754375
61.3074760345667
55.5875775146411
50.6129497792867
46.3436696448126
42.6523155750636
39.4368486211962
36.6042277115636
34.080958614445
31.8089306178133
29.5886870561451
27.3091188574139
24.9861261288481
22.6623819513327
20.3817818179741
18.1863990441526
16.1007737657107
14.2044350414096
12.5981552402314
11.2892987020569
10.2384795464146
9.41701471757839
8.85864061928321
8.7263255158846
8.74832093894016
8.93508489802392
9.25710338704036
9.68934703631186
10.1847618720414
10.6965755485782
11.1687598855267
11.5504930169436
11.809443763838
11.9395157101352
11.9571498407808
11.8914508480161
11.773768744141
11.63092651701
11.4825680136614
11.3413478642962
11.2143643795186
11.1048117762426
11.0133688320926
10.939207191675
10.8806568000168
10.8356149388537
10.8017822573062
10.7767889761393
10.7582571455945
10.7438267889944
10.7311655521273
10.7179711010051
10.7019730934675
10.6809368079088
10.6526690099825
10.615025162139
10.5659170603732
10.5033185252139
10.4252699919039
10.3298814722549
10.2153381678931
10.0799159788577
9.92201855884072
9.74025752434085
9.53360619559122
9.30167603053521
9.04519854061193
8.76683697308813
8.47213237572289
8.17247120211587
7.89643514890029
7.69857906116478
7.68243618810118
8.03821994840079
9.14407547211257
11.2649768094823
13.0314149334716
15.012696732229
16.9528236973319
18.9119186552676
20.8564666292757
22.7475943575277
24.4249768593231
25.8960722381254
27.2739068727978
28.5795780027355
29.8172502557932
30.9724246707907
32.080619167782
33.3585761257961
35.0456923095555
37.1160979916171
39.623764286506
42.6333425477721
46.2307716177708
50.5028181355824
55.4464087144889
60.4080209285119
64.4342194983361
67.13332413132
67.7710626404771
65.6121925017728
59.5375118211067
50.0290053299084
38.4537805595014
32.028203653262
30.9937858120191
42.1906640641758
49.6186343368669
36.2765146154995
31.7741849664644
47.1465709513726
63.7682539194151
57.0138868369301
45.4326076614092
45.6311287138907
49.3039871608861
50.6170949937505
49.7590821473419
47.5986092974077
44.5476630988706
40.8126424461729
37.0989052380322
33.833419901212
31.0128242168348
28.5527044341019
26.3864421955853
24.4506222247009
22.6962273317268
21.0882203277734
19.5130832698329
17.9064540927409
16.2842540689249
14.6831959855405
13.1409138145879
11.6919111801264
10.3557695109594
9.17608401544931
8.20749271830068
7.45136410748724
6.87506892050004
6.44415488073896
6.168252085259
6.18521677337408
6.32980064890476
6.6315287852889
7.06544306713858
7.58529591775103
8.12281676535492
8.60999992667055
8.9851325347989
9.21198730473693
9.2884052965326
9.24131357008002
9.11142879820343
8.93867436193182
8.75386605994336
8.57691646649136
8.418607726974
8.28340355903273
8.17192465743412
8.08271436200329
8.01334173387371
7.96103043207119
7.92298311055547
7.89652808813228
7.87916868826881
7.86858361040497
7.86260655199126
7.85919934265056
7.85642740088775
7.85244004914141
7.84545763512555
7.83376532268903
7.81571286200932
7.7897195571187
7.75428419808864
7.70799890711215
7.64956869115997
7.57783745532307
7.49182462081264
7.39077868152949
7.27425673704437
7.14224591879119
6.99534933731294
6.8350734192637
6.66428106615754
6.48791691768487
6.31357957283291
6.15603715466953
6.04134774826884
6.01322462211197
6.14572400664195
6.5596579322035
7.45773213782699
8.94661261524734
10.2002288668521
11.5606400107741
12.8479744721489
14.1168271328325
15.3403069236927
16.4987722924606
17.5076956513649
18.3977911240656
19.2413664452944
20.0445501563073
20.8080866899491
21.5301518996133
22.2475617725508
23.0980098984642
24.2095222541159
25.5607426608154
27.1864911159642
29.1252879643226
31.4276812787105
34.1391682147218
37.2270354235662
40.2671578187183
42.7081972096899
44.315073867969
44.6256882332727
43.2283059173957
39.5225378854521
33.8675654160611
26.9999757417555
23.0093536094109
21.9547252273171
28.7873398827118
34.6843798993841
27.5560218986617
24.5684110420645
34.6070136985384
54.4226730173115
50.2332392568678
35.0407350150579
30.6599252362819
32.8870828276377
34.3335171146243
34.1371599866358
32.9438334147688
31.0688582981143
28.6263389562616
26.1125102812251
23.8668937814938
21.9078426211498
20.1773492237355
18.6307490570945
17.2240105692842
15.9250265714544
14.7147602833831
13.5312291552012
12.3393453010761
11.1559763193238
10.0125992713293
8.93917413041463
7.96002300293844
7.08618516509314
6.33788294916871
5.74180098019256
5.29612048550167
4.98012007390192
4.76929223491782
4.67567673355534
4.8203981236031
5.09012692675353
5.49502057733621
6.00058661307938
6.53695352475121
7.02149812490236
7.3847141494845
7.58615654406883
7.62646609875124
7.54008007103079
7.37607317328436
7.1794625106897
6.98216724469315
6.80243600286721
6.6483383901545
6.52168109619067
6.4209815336792
6.34331312922175
6.28532247948077
6.24372230128218
6.21549492792965
6.19794481603715
6.18868191096776
6.18557748692891
6.18671407857875
6.19033965325996
6.19482968467308
6.19865910434786
6.20038331264218
6.19862792339536
6.19208637889373
6.17952437553576
6.15979041098229
6.13183232988713
6.09471917688842
6.04766983002911
5.99008919366749
5.92161504264852
5.84218045342937
5.75209868877769
5.65218250885777
5.54391530691824
5.42970232971009
5.31325159033864
5.20017959401963
5.09869679979935
5.02297483329834
4.99475406764449
5.04760161944506
5.23335253820154
5.62955001151457
6.35594065386606
7.45979297639364
8.39260513204716
9.3696592696083
10.2752357289348
11.1530892792531
11.9847394604946
12.7624534645633
13.4405580429762
14.0483880967891
14.6290073790069
15.1832997394939
15.7138281635585
16.2247139258058
16.7485404981018
17.3756780403732
18.1795033793003
19.146269461124
20.2996400390507
21.6642355552869
23.2711820574219
25.1434503975553
27.2381047322998
29.2680612712703
30.8964651899902
31.9626712918387
32.1626301549643
31.2395672318577
28.8343123980898
25.1728495550837
20.6723643196084
17.8543234639028
16.9135535249181
21.154099035215
25.6687131030014
21.5097893253573
20.2464800639328
25.2055194156012
46.5711618386772
46.3520676647882
30.3787448326893
22.2096943302269
22.6215552991501
23.9497414388425
24.1572085208342
23.57860519508
22.4589100670291
20.8486371696951
19.1056563839931
17.5127126667674
16.1027159925808
14.8357759671465
13.6825664194781
12.6136236275542
11.6102226807575
10.6657931127851
9.75067703233573
8.84808963619315
7.97399789950597
7.15296813949651
6.40533930828987
5.74443694506503
5.17298632521349
4.69744264253716
4.32963291406937
4.06762339274127
3.90150453841087
3.82121247784537
3.85275713601547
4.1007406125164
4.47241541491003
4.94018055809829
5.45352315943745
5.92739317753654
6.28277368025597
6.47364269498941
6.49908568870057
6.3969207053629
6.22092736290614
6.0191422058995
5.8235997858229
5.65089529806402
5.50694961079704
5.39174691566642
5.30252995677313
5.23561335628832
5.1872637161953
5.15406905571796
5.13304470361473
5.12162298644501
5.11759606629327
5.11904830095704
5.124292419634
5.13181579832518
5.14023836309572
5.14828151573105
5.1547475703495
5.15850809226604
5.15850021128327
5.15373003460595
5.14328216522548
5.12633472633263
5.10217975576556
5.0702484331054
5.03014217610976
4.9816702962372
4.92489651495918
4.86019826525178
4.78834426319553
4.71059973720165
4.62887312877521
4.54592629379246
4.46568469923797
4.39369856863906
4.33792991596723
4.31069796292113
4.32949195512931
4.41953102402095
4.61700885552343
4.97359225966877
5.56759955053034
6.42049575851568
7.14281757120192
7.87560500366724
8.54772582438637
9.19178801424243
9.79664395232071
10.3595655789316
10.8548838421452
11.3052899339417
11.7370144422643
12.1509077453428
12.5507108350511
12.9430074588489
13.3551937791754
13.8488326042596
14.4691521164682
15.2083417576283
16.0830822072149
17.1100961121231
18.3092863416907
19.6909449305217
21.2106294517457
22.665463291143
23.8361456932717
24.6018244188905
24.7551426894905
24.1219483490871
22.4688854609387
19.9293404402348
16.7441565204603
14.5630990350592
13.7569675954232
16.4468266070748
19.9256735608842
17.1796206142927
17.4013886577827
18.4181332886306
39.4634263250254
43.5354512881262
28.7300220917189
17.8450607268433
16.1944396066853
17.0753439459969
17.4677064283054
17.2731480586487
16.6553849662299
15.6096166454282
14.3893249344746
13.2368200811591
12.1960129176422
11.2408830388657
10.3540026462044
9.51791853791793
8.7249677108689
7.97800485740887
7.26675086122978
6.58438354281628
5.94316358110744
5.35942118001375
4.84420075326574
4.40233373093694
4.03158820935987
3.73218952757513
3.50949354644346
3.36322725284493
3.29149654435462
3.29730221575397
3.42022983399718
3.74377725630561
4.17792555258133
4.65534064909686
5.11258544977741
5.46536619833899
5.65945258155509
5.68799771253423
5.58736541836616
5.41324196839887
5.2156369346421
5.02710157560913
4.86341075892051
4.729316533481
4.62380820787172
4.54350355794214
4.48440269566811
4.44268148197678
4.41496993742076
4.39840181642092
4.39056609335227
4.38943027857176
4.39326141237679
4.4005573043112
4.40999038702714
4.42036455294831
4.43058371605744
4.4396304536627
4.44655365725962
4.4504637140316
4.45053427662271
4.44600988918089
4.43621863813008
4.42058929042045
4.39867274503731
4.37016736362708
4.33494887267796
4.29310545365682
4.24497979817104
4.19122130733304
4.13285291657749
4.07135994926905
4.00881177886819
3.94803277832109
3.89284741378582
3.84842372064641
3.8219861979851
3.82379376808044
3.86763384251205
3.97229180077598
4.16343147436183
4.47744577672896
4.97016097834767
5.64992837967359
6.2275495836513
6.79804585605939
7.31932306929306
7.81479281683914
8.27866263057568
8.7100133705288
9.09366235840027
9.44623370524989
9.78511909722044
10.1119228121865
10.4308416275898
10.7492875932575
11.0898536711427
11.4959504451748
11.9973980515004
12.5903297730746
13.2868332250445
14.0988003695099
15.03923887511
16.1110838281651
17.2721506148937
18.3737949777612
19.2641592306587
19.8484256087525
19.9801587761342
19.5342347280995
18.3475070884517
16.4898169380399
14.0931807726536
12.290001820781
11.606117006635
13.3439758166863
16.0751302212301
14.0281183292291
15.2936684124236
13.7901180490502
32.9984444369496
40.9657121407429
28.5253781059448
16.0370601577499
12.352110931099
12.4966376460087
12.8655412598331
12.8737998611242
12.5823683026642
11.9309498297736
11.0798485367627
10.2372792582858
9.45611020685778
8.72194551326824
8.02708115031643
7.36403348972439
6.73363444442448
6.14459347022058
5.59656665287995
5.0866951575724
4.62223673886073
4.2122459097958
3.86124275498218
3.56943379041994
3.33298129715002
3.15027711394536
3.02441319406395
2.95705866148016
2.95195634909386
3.02180497556698
3.2130582997951
3.58317871415637
4.03507925426637
4.46973061084077
4.8229198406601
5.02973494185756
5.07467932994702
4.98792425630992
4.82439233813809
4.63564306188647
4.4555102189848
4.30008946858438
4.17385528198345
4.07546747839173
4.0013248219654
3.94736247342862
3.90979083036312
3.88533838284332
3.87126619302347
3.86530394834803
3.86556267578778
3.87045257015019
3.87861242363961
3.88885356611387
3.90011677286663
3.91144080993697
3.92194086136577
3.93079524453267
3.93723938632344
3.94056589352268
3.94012990029336
3.93535908790349
3.92576769389959
3.91097401637447
3.89072120148419
3.86490095872017
3.83358065126086
3.79703430538142
3.75577894273622
3.71061880225335
3.66270107108967
3.61358881701125
3.56535911988662
3.5207378333241
3.48328662795383
3.45765870217944
3.45013353161799
3.46907212598672
3.52523644321883
3.63268226496088
3.81018185873799
4.08495794179195
4.49926834935189
5.05401066596375
5.52790050763657
5.98597282229808
6.4045444233473
6.80020190332852
7.17063227537927
7.51552733185673
7.82551918014435
8.11279443781943
8.38979795703564
8.65877955699575
8.92402644761879
9.19296624687552
9.48410977068002
9.82903133835449
10.2485969524635
10.7413922818216
11.3163780131708
11.9822914131255
12.7476793248739
13.6111585048518
14.5343002545895
15.4049160780053
16.112054731312
16.5806551134479
16.7034214627844
16.3866191673761
15.5067566871639
14.0873653529283
12.1570231898111
10.6260559469608
10.0465295318107
11.1857158460383
13.3681799407039
11.7119679542135
13.5568723149394
10.7962577162298
27.198872984153
38.2612426983718
28.8842371988957
15.7900609039518
10.2756929293245
9.51513807921301
9.6887991806022
9.7492762688691
9.64402608924632
9.26646604024021
8.68343140954773
8.06642854292772
7.47507846599504
6.90518350905138
6.35679293254449
5.83006900076326
5.33134007066843
4.87170352276193
4.45463281811754
4.07816543143111
3.7453585036712
3.46042132467758
3.22444922232074
3.03594440545601
2.89130761382181
2.78898253293428
2.73152816878695
2.72225137369615
2.76863508959166
2.88923072693937
3.12923464937395
3.51666590798789
3.94264265767403
4.29268064412089
4.51882292097257
4.58886287478938
4.52526925867306
4.3785573771291
4.20149920764027
4.03000134773284
3.88153544617797
3.76113888724194
3.66761963070373
3.59744327250281
3.54660706694286
3.51141429241348
3.48869855962577
3.47583458569888
3.47066473902117
3.47141101250596
3.47659121548967
3.48494944901452
3.49540033040488
3.50698655461043
3.51884746339127
3.53019707962893
3.54031004838324
3.5485141965916
3.55418885891629
3.55676808048286
3.55574801224069
3.55069798447397
3.54127469071532
3.52723902252747
3.50847531336249
3.48501269246539
3.45704882139607
3.42497646896348
3.38941402857475
3.35124200411915
3.31164829295582
3.27218646038754
3.23485257789944
3.20218793572436
3.17741664936479
3.16462873645394
3.16914168576799
3.19769879899313
3.25869996847852
3.36284209299001
3.52442993755455
3.7649140338469
4.11747707967011
4.578577948221
4.97537038856087
5.35259402734359
5.69803428001058
6.02348713765253
6.3287333756324
6.61364306218006
6.87226145942644
7.11368211491646
7.34738871346407
7.57602790196529
7.80378686104827
8.03770393082786
8.29294559422237
8.59312977491753
8.95361474463875
9.37444346307737
9.86239479025079
10.4240372571357
11.0649296226861
11.7812069065715
12.5386377206492
13.2503373903708
13.8320033107165
14.2242387642291
14.3453593505746
14.1223251508868
13.450171957496
12.2507875978749
10.6302561941119
9.35419973967845
8.86205124547241
9.61817221438369
11.3834144027393
9.99397555267426
12.0280434538922
8.94878504943233
21.8877885259909
35.2501205899234
29.3026577391829
16.4708078739028
9.40749125577742
7.66582672893124
7.52915541986056
7.53212735000926
7.49597059510587
7.29592282289516
6.90910766470922
6.46041542005051
6.01215938510964
5.56899329497474
5.1366376531575
4.72038039418992
4.3293002361609
3.97451603097846
3.66028583988856
3.38471640751508
3.14834368361588
2.95280063893232
2.79784893926437
2.68179512965855
2.60192427811888
2.55730936025783
2.55055877407477
2.58613909243033
2.67363868370696
2.83356309886712
3.10275884372494
3.47879323657964
3.84151985152598
4.08314007826145
4.186218864491
4.15254345287271
4.02851584995812
3.86569210193551
3.70306312487853
3.56050418614679
3.44434267695648
3.3539862217103
3.28615908784311
3.23701743490296
3.20297734763541
3.18097582729583
3.16848006592101
3.1634204521072
3.16410148110074
3.16912070928555
3.17729971394147
3.18762972514216
3.19922947024929
3.21131393195712
3.22317191404577
3.23415108606076
3.24364928031774
3.25111105616635
3.25602884970404
3.25794802610185
3.25647526150568
3.25128980449849
3.24215713497839
3.22894459224728
3.2116387081566
3.1903639811291
3.16540323258937
3.13721989487197
3.10648307219246
3.07409691903174
3.04123645331879
3.00939274420501
2.9804311052101
2.9566665837347
2.94096132888731
2.93684910944082
2.94876763197648
2.98214551951999
3.04360209320364
3.14149894429898
3.28721021953217
3.49829184309933
3.80135253410457
4.19024056708144
4.52795621594081
4.84513811521878
5.13656260220896
5.41075844404014
5.66865976854535
5.91017953993923
6.13145787912113
6.33945493234531
6.54174979379103
6.74117225659977
6.94170829439937
7.14982320563385
7.37799181887662
7.64433574634368
7.96063723801366
8.32776324785336
8.75094296322461
9.23519974157284
9.7840584500672
10.3923334904146
11.029931979343
11.627951919555
12.1209759767916
12.4617845383466
12.5855004344126
12.4301050165556
11.8518937055491
10.749676491018
9.38099933656593
8.35236658464591
7.93046227387497
8.43892902940047
9.87516121240849
8.70487736073518
10.6483112923048
7.86221771510568
17.0984192081086
32.0012789854379
29.4694763078127
17.6608642332629
9.38892670492716
6.62595966632904
6.1025984395021
5.98392457607387
5.92882846097326
5.82336969050031
5.57651673470163
5.25499291649387
4.9166298208828
4.57315547733813
4.23400595015095
3.90737315036303
3.60318157852244
3.33150809291569
3.09636832603949
2.89604374620834
2.72999892745353
2.59874226581907
2.50175882449652
2.4377355326047
2.40489635294178
2.40296759789142
2.43467277640912
2.50505093983828
2.62419844878811
2.81090541565815
3.08872575033845
3.42717192510054
3.70106149603147
3.83206009490139
3.83748358638165
3.74193992553022
3.59740768736014
3.44473309070173
3.30752586846396
3.19453484994965
3.10612481710345
3.03950304604577
2.99104659187218
2.95731123741733
2.93532782535835
2.92264209046031
2.91725071704795
2.91751969358063
2.92210427124864
2.92988268246801
2.93990239445885
2.95133883801874
2.9634640609809
2.9756239640748
2.98722246523713
2.99771154828151
3.00658626959864
3.01338397975545
3.01768721669228
3.01912973360699
3.01740517638039
3.01227801030713
3.00359627820297
2.99130579004683
2.97546546313929
2.95626356496866
2.93403489594027
2.90927914240267
2.88268100697324
2.85513324609621
2.8277641334367
2.80197131656626
2.77946430007253
2.76231791703204
2.75303893885561
2.75464722358191
2.77082533783353
2.8059698234924
2.86539109052309
2.95583713482371
3.08669381100755
3.27268450497313
3.53540518716092
3.86727937145195
4.15855733248729
4.42991675055649
4.68024755595235
4.91587208928501
5.13827427075436
5.34738035043258
5.54066460555703
5.72360558518268
5.9024668146724
6.08010949889484
6.26026641213251
6.4487692339645
6.65594413082303
6.89601823380991
7.17833088699796
7.50418238778243
7.87768811983279
8.30274859957953
8.78151031206051
9.30821993581468
9.85661747076571
10.3709269616582
10.8001018142274
11.1058919824658
11.2329325003543
11.1055606714154
10.5246185294897
9.51428322020717
8.35824477820048
7.53899939845668
7.17785406759912
7.52562856451723
8.69502297618544
7.72292534202672
9.40525119692196
7.25709721971224
12.9828883499784
28.6717113861565
29.1879548613139
19.0595413384909
9.99115916625176
6.18592565418849
5.20699230599342
4.93081505262549
4.8032523499992
4.72294602506155
4.567623240197
4.34155717540456
4.08808840474638
3.82327635608114
3.55873668866716
3.30397149440792
3.06871383851985
2.86177479691339
2.68678632759207
2.54241304980025
2.42794534821545
2.34351470080302
2.28874457158055
2.26281617354496
2.26471311344784
2.29461783428855
2.35517690277432
2.45130939843857
2.59201382578716
2.79123938183024
3.05674684861339
3.33646936753615
3.51245017547247
3.55133324037841
3.49531333592622
3.37509752185365
3.23486482078789
3.10345990953514
2.99300590872876
2.90576788047387
2.83955562771578
2.79108202093532
2.75705618016211
2.73460822102266
2.72134901283646
2.71532854218081
2.71495748861965
2.7189330876732
2.72617403571488
2.73576874320825
2.74693440912948