/*--------------------------------*- C++ -*----------------------------------*\
  =========                 |
  \\      /  F ield         | OpenFOAM: The Open Source CFD Toolbox
   \\    /   O peration     | Website:  https://openfoam.org
    \\  /    A nd           | Version:  7
     \\/     M anipulation  |
\*---------------------------------------------------------------------------*/
FoamFile
{
    version     2.0;
    format      ascii;
    class       volScalarField;
    location    "20000";
    object      p;
}
// * * * * * * * * * * * * * * * * * * * * * * * * * * * * * * * * * * * * * //

dimensions      [0 2 -2 0 0 0 0];

internalField   nonuniform List<scalar> 
15600
(
-5.32920800342495e-10
0.00263272300863966
0.00175008889958842
0.0178594788174863
0.0280885935528358
0.0336199762946508
0.0367674471509629
0.0392357972576303
0.0407630335068861
0.041834849771458
0.0425542810753432
0.043097194425551
0.043546363657095
0.0439357024014363
0.0442883865359515
0.0446249733107061
0.0449575530641772
0.0452917617216506
0.04563293333996
0.0459803177237262
0.0463295850236983
0.046661120437135
0.0469554598204757
0.0471928497007567
0.0473560735361527
0.047435514501476
0.0474345632240643
0.047374969152479
0.0472956469929026
0.0472373788173473
0.0472368353346936
0.0473202544059067
0.0474856797918691
0.0477193432686203
0.0479721864663245
0.0482111384469063
0.0484288573952022
0.0486192222595784
0.0487682740218806
0.0488752847217188
0.0489332816115387
0.0489404401149034
0.0488969111611233
0.0488077945584937
0.0486820118053332
0.0485319658234452
0.0483718736597024
0.0482162590409838
0.0480785105242683
0.0479699451756886
0.0478993487193365
0.0478729521924412
0.0478946954926989
0.0479666494212277
0.0480894900669005
0.0482629611161969
0.0484862906245234
0.0487585518484562
0.0490789706051391
0.0494471880696059
0.0498634899348086
0.0503290126037082
0.0508459357120242
0.0514176686667599
0.0520490372906314
0.0527464751685538
0.0535182229343261
0.0543745375933933
0.0553279129045415
0.0563933105925023
0.057588400305732
0.0589338046399281
0.0604533448951087
0.0621742697863406
0.0641274160467488
0.0663472902147792
0.0688721244816734
0.0717432726335286
0.0750026057980478
0.0786912934111561
0.0828541483167224
0.0875092677473011
0.092554888783446
0.0979163092098786
0.103817588860244
0.108508264105804
0.108616494453049
0.108267192218285
0.107527295662046
0.106649084708696
0.105677140401727
0.104677907830185
0.103695253184138
0.102910071397793
0.102576183010553
0.10289468519832
0.104040265273806
0.106140470620793
0.109286836581207
0.113561623740829
0.118899793342168
0.125038829221643
0.131788815115199
0.138975692437723
0.146439967513175
0.154031928491132
0.161619670206806
0.169021759358401
0.176240069628297
0.183112959057777
0.189032781507234
0.19315759939355
0.193544752641494
0.187710911577132
0.168342895844852
0.126857004422259
0.0453685315016782
-0.0256482661048186
-0.0427508150150893
-0.014203670071637
5.6940561497866e-05
0.00274643094533622
0.00179777524786994
0.0173040840628795
0.0275699412832296
0.0332533677702136
0.0365067646020454
0.0390445422867345
0.0406385929516274
0.041752595463098
0.0425020758023844
0.0430617786968612
0.0435211451608018
0.0439174183073286
0.0442744189157723
0.0446131627567473
0.0449465556059859
0.0452806318715225
0.0456210452812148
0.0459676068798395
0.0463172239619466
0.0466516926525664
0.0469519305331394
0.0471982094403696
0.0473727197141199
0.0474644472625467
0.047474553360347
0.047422097559583
0.0473443608579012
0.0472824240893908
0.0472742686570997
0.0473486088078
0.0475054459474359
0.0477317689566268
0.047978206932431
0.0482171239476263
0.0484347097696066
0.0486248696921614
0.0487740844102164
0.0488815305672142
0.0489401507607294
0.0489480774939563
0.0489053811000016
0.0488170801058085
0.0486920268481291
0.0485425748172293
0.0483829195922308
0.0482275879241675
0.0480899863302679
0.0479814561673666
0.0479108074507524
0.0478842923607421
0.047905867898781
0.0479776182881991
0.0481002300890485
0.0482734551376264
0.0484965276493809
0.0487685250620505
0.0490886751296509
0.0494566182367413
0.0498726359051344
0.0503378561943129
0.0508544453100183
0.051425793109638
0.0520566985909258
0.0527535599526916
0.0535245724510787
0.0543799361238147
0.0553320743735203
0.0563958631357177
0.0575888684372656
0.0589315884713752
0.0604476958408038
0.0621642621881293
0.0641119119014115
0.0663248931300391
0.0688411364179631
0.0717016606314146
0.0749478355684738
0.0786199397775849
0.0827621032430425
0.0873928568008869
0.0924081988110521
0.0977222982710315
0.103564325020528
0.108315322641638
0.108517299170502
0.108178658804147
0.107418256633187
0.106520759666129
0.10553454101374
0.104529610605605
0.10355917788051
0.102817995981928
0.102560339984119
0.102981275609851
0.104248864505348
0.106483109802697
0.109770208103818
0.114179216208119
0.119622801557324
0.125835014561429
0.132633589464815
0.139847357959098
0.147319166716029
0.154901592074539
0.162461506794983
0.169825289130813
0.176992418006515
0.183766196524371
0.189505762273719
0.193308244558217
0.193170026714693
0.186411216204934
0.165655465848743
0.122528214666653
0.0420875099769611
-0.0251952329173397
-0.041648578723329
-0.0140371363145947
0.000179687969210459
0.00302933038907302
0.00203942633152554
0.0168341244538858
0.0270773853711796
0.0328876751521261
0.0362399086130981
0.0388471227902275
0.040507948297841
0.041665905656371
0.042446758118088
0.0430244743661885
0.0434947352991034
0.043898369096124
0.0442600133277625
0.0446011571047071
0.0449355206426012
0.0452695495591155
0.0456092230159367
0.0459548398698695
0.0463044884011156
0.0466414079872464
0.0469470280505305
0.0472017331576802
0.0473872334358434
0.0474912186361359
0.0475126311392545
0.0474677184066118
0.0473918235192907
0.0473260878385845
0.0473097795473011
0.0473744399966941
0.0475223877313319
0.0477417912494641
0.0479825388343096
0.0482239414494313
0.0484416757468514
0.0486318807008435
0.048781509758751
0.0488897101896133
0.0489492085168173
0.0489580658199086
0.0489162168795608
0.0488285914980486
0.0487039812375892
0.0485547359427993
0.0483950883865011
0.0482396260018592
0.0481018171310109
0.0479930529803724
0.0479221761976238
0.0478954559384639
0.047916854909789
0.0479884565027133
0.0481109434933107
0.0482840630925364
0.0485070448573667
0.0487789614177449
0.0490990348728081
0.0494668980762108
0.0498828219333469
0.0503479194905844
0.0508643361550046
0.0514354337248252
0.0520659742927065
0.0527623085739053
0.0535325718203044
0.0543868892994681
0.0553375921959721
0.0563994434597783
0.0575898710674706
0.058929204213124
0.0604409074241689
0.0621517944366262
0.0640921652930063
0.0662958476148404
0.0688002213469941
0.0716455878201216
0.0748722494104588
0.0785187024798814
0.0826269769081798
0.0872153468443867
0.0921792588194441
0.0974047550493522
0.103104473251981
0.107917801418608
0.108299561040928
0.108022108560231
0.107262323229933
0.106354986016237
0.105358632958564
0.104350958135172
0.103396559223519
0.102704778260879
0.102529121405074
0.103057939511415
0.104452443641446
0.106824890416833
0.11025520074519
0.114797272090705
0.120341483209313
0.12662225855128
0.133466169287096
0.140704547981309
0.148182468683818
0.155754308665462
0.163286221207091
0.170611591561699
0.177725005278229
0.184392353561223
0.189937506526369
0.193397537217804
0.192701648443167
0.184993003851527
0.162905659108285
0.118586397027269
0.0402825923110612
-0.0225409046934501
-0.0391795526663811
-0.0136907772096375
0.000441363473093338
0.0036032770778735
0.0026282685277339
0.0164914531441507
0.0266126812855623
0.032542528740663
0.0359803004339659
0.0386512466784505
0.0403762744463386
0.041577910618201
0.0423902846391112
0.0429864178636058
0.0434678373109468
0.0438790078936943
0.0442454487437644
0.0445891236638322
0.0449245643756071
0.045258634761576
0.0455976484123392
0.0459423548632623
0.0462919135159549
0.0466309893884467
0.0469416157755746
0.0472043651549628
0.0474005522248878
0.047516663365569
0.0475494360848771
0.0475121784009231
0.0474380134853525
0.0473678399495133
0.047342204777021
0.0473959376798911
0.0475344403649765
0.0477477112597912
0.0479844442514151
0.0482317699273747
0.0484498815461301
0.0486403433219893
0.0487905774555395
0.0488997142936599
0.0489601335406146
0.0489697556180958
0.048928334898432
0.0488407270190817
0.0487157327813884
0.0485658109883094
0.0484053513498589
0.0482490980879785
0.0481106373746484
0.0480014254758105
0.0479303218978585
0.0479035792203966
0.0479251260219996
0.0479970064123117
0.048119866165396
0.0482934209071833
0.0485168741770337
0.0487892765908694
0.0491098298681117
0.0494781454888249
0.0498944693762918
0.0503598834882824
0.0508764936502218
0.0514476112507987
0.0520779347841672
0.0527737356954087
0.0535430515413185
0.0543958882290126
0.055344431876594
0.0564032693275322
0.0575896140186382
0.0589235314126526
0.0604281570292121
0.0621298871656015
0.0640584819979524
0.0662470473504939
0.0687319590279705
0.0715521212449916
0.0747460156491936
0.0783497019066159
0.0823999411611815
0.0869101521595524
0.0917783532672299
0.0968602143340042
0.102342637443068
0.107210630063431
0.10788975537809
0.107736015024731
0.10700948136826
0.106107171279782
0.105107974093242
0.104103735787053
0.103173413269624
0.102540695826609
0.102456477615193
0.103101862776994
0.104630534618007
0.107146490108057
0.110722038293216
0.115393869891904
0.121031629488024
0.127375150530039
0.134260262225305
0.141520494519672
0.149003087114194
0.15656373820987
0.164068221067469
0.171355445660409
0.178411490074724
0.184962413368214
0.190295689247098
0.193388505520231
0.192099809779612
0.183415484448596
0.160052017407675
0.114881700702891
0.0394875444842774
-0.0184241500425033
-0.0353936462581519
-0.0129358988975287
0.00092795991572501
0.00452480051500422
0.00368812575605144
0.0163623550820959
0.026119520356766
0.032197154565338
0.0357175550100642
0.0384492828888839
0.0402384115610116
0.0414850588903797
0.0423303877390014
0.0429460226043874
0.0434392683030433
0.0438584545617938
0.0442300437288669
0.0445764720775976
0.0449131236763047
0.045247305374766
0.045585684237246
0.0459294572414322
0.0462787857853462
0.0466197931533281
0.0469352219849934
0.0472059186482333
0.047412879019593
0.0475414549497455
0.0475861958316457
0.0475572457160306
0.0474851776082668
0.0474102420066336
0.0473740703985773
0.0474151456414217
0.0475429412100282
0.0477503183302722
0.0479845891493217
0.0482410629007989
0.0484597709833387
0.0486508825809512
0.0488020933776208
0.04891245649155
0.0489738397470406
0.0489839217969275
0.0489422212768508
0.0488535746843742
0.0487269541455239
0.048575137456171
0.0484128658520081
0.0482551720097655
0.0481158129814234
0.0480062958349358
0.047935439942889
0.0479094065384817
0.0479320156893477
0.0480052081064173
0.0481295419325442
0.0483046631824283
0.0485297211306329
0.0488037225744262
0.0491258303977531
0.049495617048682
0.0499132846482402
0.0503798626470045
0.0508973922337121
0.0514691049123235
0.0520996009980853
0.0527950322208363
0.0535632910680886
0.0544142081141036
0.0553597571983248
0.0564142665021417
0.0575946308981269
0.0589205178165483
0.0604145566034623
0.0621024888153007
0.0640132166903318
0.066178699483688
0.0686337344362134
0.07141510500922
0.0745587920328299
0.0780973091516686
0.0820597568206119
0.0864531457198585
0.0911834823511172
0.0960913950556147
0.101339633524186
0.106228927953616
0.107252673632681
0.107270183474176
0.106612536688409
0.10573509170676
0.104745987256538
0.103758436988308
0.102869625840026
0.102315512499291
0.102341321057499
0.103119901400888
0.104796208636207
0.107465217756796
0.111189806285938
0.115987978954609
0.121711639971102
0.128111105507403
0.135031536714161
0.142308508580886
0.149791465390447
0.157336994318521
0.164810458572168
0.172053958088521
0.179039424378194
0.185447864590536
0.190527179122079
0.193188312319241
0.191207973940587
0.181410336349542
0.156627668697228
0.110632291332585
0.0385045423624277
-0.0142014731016565
-0.0310192419597402
-0.0116564127689946
0.00164312919516572
0.00571005957691911
0.00521056260062108
0.0165952131539685
0.0255935366249285
0.0318387046301321
0.0354460896488847
0.038238919750607
0.0400928309858354
0.0413862446771893
0.0422663610434413
0.0429028180559037
0.0434086613453097
0.043836426137918
0.0442135894704787
0.0445630301083405
0.0449010345919552
0.0452353803339784
0.0455731027233738
0.0459158409323986
0.0462646827565058
0.0466072334744228
0.0469270500808567
0.0472053476263879
0.0474229062218992
0.0475640692602951
0.0476213492018199
0.0476016398788288
0.0475326464071937
0.0474536113072596
0.0474067447591869
0.0474340871679778
0.0475499500601004
0.0477513832406291
0.0479844247836815
0.0482523616648678
0.0484721004796135
0.0486647115374882
0.0488175002004246
0.0489293625238039
0.0489914333844359
0.0490010183410838
0.048957448421351
0.0488657992598764
0.04873559826122
0.0485803214836477
0.0484153243300665
0.0482560254810896
0.0481163034359089
0.0480075759681455
0.0479384513493453
0.0479148402490954
0.04794032755729
0.0480166606140787
0.0481442515598044
0.0483226415882437
0.0485509052799698
0.0488279931043621
0.0491530194891481
0.0495255076931624
0.0499456031366193
0.0504142657509914
0.0509334500886628
0.0515062801331553
0.0521372241021962
0.0528322729857183
0.0535991249021691
0.0544473758452455
0.0553887158893102
0.0564371278160366
0.0576090821881801
0.0589237192836095
0.0604030049417659
0.0620718356781538
0.0639580306790807
0.0660921472597807
0.0685071335485786
0.0712374314754648
0.0743163824080847
0.0777726561807603
0.0816288675216782
0.0858880251915532
0.0904691602244231
0.0952136183219335
0.100250851999303
0.105096737064298
0.106421655040322
0.10661756516649
0.106054288689345
0.10522431884932
0.104266332960935
0.103317102106988
0.102494684141801
0.10204348937339
0.102199599923302
0.103126981895326
0.104961188139329
0.107787444277704
0.111657961692881
0.11657247327262
0.122369364629352
0.128813610359268
0.13575917148099
0.143043469679456
0.150518102826246
0.158040023490527
0.16547362775136
0.17266071405454
0.179551844439936
0.185776008654913
0.190537021504389
0.192668522965721
0.189849182000019
0.178740824973143
0.152362856016151
0.105655950536496
0.0370846195010675
-0.0103862023139791
-0.026616456925074
-0.00999172947633284
0.00252766425791287
0.00697938188715739
0.00706948847664391
0.01726030123617
0.025114165865498
0.0314668814013088
0.0351610750728224
0.0380185332001207
0.0399392186607376
0.0412813170961033
0.0421981492226847
0.0428568052739492
0.043375988167778
0.0438128738704755
0.0441960503590428
0.0445487681487742
0.0448882588978102
0.0452227948322766
0.0455597835842476
0.045901287611747
0.0462492162369824
0.0465926451145906
0.0469160345619612
0.0472010665994988
0.047428445692929
0.0475817265339612
0.0476517033311761
0.0476422545267398
0.0475779835823266
0.0474967762698633
0.0474407962711663
0.0474548983713224
0.0475583914925465
0.0477539008235747
0.0479863780518534
0.0482666242235952
0.0484881888366655
0.048683508435657
0.0488383176968505
0.048951267443265
0.0490125511506322
0.0490191927423516
0.0489707550146362
0.0488731929979788
0.0487372176042031
0.0485774036101811
0.0484098049094796
0.0482500479373332
0.0481118202605484
0.0480061264861364
0.0479411014552268
0.0479222271411639
0.0479527506143077
0.0480341780179347
0.0481667616329108
0.0483499417280333
0.0485827289286428
0.0488640283749323
0.0491929137184109
0.0495688616940965
0.0499919580607512
0.0504630845992654
0.0509840951189762
0.0515579867464348
0.0521890712182745
0.0528831494265896
0.0536476907246308
0.0544920168893683
0.0554274890613844
0.056467693619208
0.0576286198227135
0.0589288181816027
0.0603895243508772
0.0620347229497326
0.0638910916996139
0.065987755114678
0.0683558573490508
0.0710276795565704
0.0740339592797462
0.0774003651546741
0.0811452288089189
0.0852698378181106
0.0897070961057161
0.0943043447536488
0.0991437326312803
0.103880313885976
0.105449236696525
0.10580838732745
0.105351816650539
0.104588771049629
0.103685628124384
0.102799902995345
0.102070003321777
0.101744402150774
0.102047313885536
0.103133951018277
0.105130168716999
0.108111454985121
0.112119294962314
0.117136532822044
0.1229922134948
0.12946843222289
0.136426703019749
0.14370599277069
0.151159841072151
0.158644929479443
0.166023648399827
0.173133332612552
0.179896097411151
0.185882199414951
0.190247420600506
0.191738370863899
0.187929454008814
0.175354216107192
0.147346940640048
0.100277113115362
0.0355651946856018
-0.00687912013110019
-0.0223951076876346
-0.00813880924768842
0.00352966622070802
0.00820323206218974
0.00912989677747794
0.0182923424619352
0.0247957829352431
0.031103442933818
0.0348620082644813
0.037783818753332
0.0397762355884404
0.0411698336813698
0.0421256156797567
0.0428079833016969
0.0433412302938934
0.0437877425258172
0.0441773765391151
0.0445336386150104
0.0448747314442963
0.0452094407139128
0.0455455360846625
0.0458854679937692
0.0462318324633906
0.0465751297115335
0.046900799007756
0.0471911062623875
0.0474268762084612
0.0475912026960618
0.0476736428950937
0.0476755006234204
0.0476183469681161
0.0475382151296883
0.0474764821083394
0.0474797446030616
0.0475717561559521
0.0477618247042326
0.0479935304632068
0.0482850963586348
0.0485095874534015
0.0487084911971561
0.0488647306984693
0.0489766729773511
0.0490337584480366
0.0490333602297335
0.048976205520312
0.0488700020364847
0.0487271325399687
0.0485632588021011
0.0483947510073824
0.0482369272309195
0.0481028263074798
0.0480027255407572
0.0479441154992272
0.0479319831059134
0.0479692329144585
0.0480571545086453
0.0481958743469985
0.0483847647044794
0.0486227994482298
0.0489088584417518
0.0492419876150332
0.049621624023411
0.0500477953628448
0.0505213025540441
0.0510438924592922
0.0516184263063604
0.0522490479642473
0.0529413548378405
0.0537025723164751
0.0545417310165199
0.0554698444480297
0.0565000821707185
0.0576479302846756
0.0589313271952529
0.0603707580667932
0.0619892826443363
0.0638124409622439
0.0658679623590802
0.0681852959106618
0.0707947441764942
0.0737247247600846
0.0769985719835711
0.0806318693822943
0.0846247127066966
0.0889209954609659
0.0933746380176002
0.0980163261843944
0.102597734636895
0.104369589232231
0.104875384353257
0.104533172810626
0.103853147617379
0.103026186783523
0.102227308023339
0.101612541490375
0.101430399596744
0.101892009585799
0.103144188950854
0.105303300580889
0.108435572297334
0.11257185971019
0.117679681985489
0.123582214151744
0.13007964104812
0.137039347774576
0.144301499883955
0.151721170212118
0.159153960105143
0.166458785097564
0.173464281047918
0.18005864208219
0.185748881450819
0.189640361377123
0.190388358334483
0.185469198383946
0.171348597605551
0.141804753421035
0.0948139546763495
0.0342221456983164
-0.00351062181880457
-0.0183815711707155
-0.00620976276767221
0.00461757921757324
0.00936451286925408
0.0112800656592092
0.0195741577686425
0.0247277960635733
0.0307812257834167
0.0345655346698262
0.0375293252252444
0.0396006558538018
0.041050653829101
0.0420483896427404
0.0427562938794679
0.0433043593063381
0.0437609581994452
0.0441574931327447
0.0445175678610202
0.0448603538886158
0.0451951611783047
0.0455300970887193
0.045867951459914
0.0462118618018521
0.0465536863387522
0.0468799309080517
0.0471736157159967
0.0474159593069171
0.0475900149975875
0.0476846677892015
0.0476991458273467
0.0476520888356208
0.0475772950664876
0.0475143536158696
0.0475105400609566
0.0475933273155472
0.0477791549491261
0.0480084066082268
0.0483091707429317
0.0485372388283322
0.0487390101527146
0.0488941024461132
0.0490008386910665
0.0490487708785709
0.0490367956733668
0.0489678703455595
0.0488519664774742
0.0487029886104648
0.0485370965357933
0.0483702985499963
0.0482170802572658
0.0480895317807443
0.0479970850021482
0.0479465768651117
0.0479425391302143
0.0479875873140583
0.0480828445529807
0.0482283522332192
0.0484234452846331
0.0486670826477866
0.0489581337011849
0.049295626057163
0.0496789624482529
0.0501081148286935
0.050583803273074
0.051107665883075
0.0516824246004628
0.0523120505224038
0.0530019310403095
0.0537590391889314
0.0545921038484193
0.0555117778518479
0.056530798350066
0.0576641305475634
0.0589290821683137
0.0603453714348597
0.061935124388008
0.0637227505695208
0.0657346214302262
0.0679985826858941
0.0705430373407306
0.0733943878480909
0.0765740214159814
0.0800953632086496
0.0839569722207247
0.088110210526712
0.0924167990647761
0.0968609686551346
0.101260652364746
0.103205373507078
0.103843717417824
0.103622334084232
0.103039106314849
0.102306471357599
0.101614235549133
0.10113314027611
0.101108238323144
0.101737282974607
0.103159389884126
0.105481658939909
0.108761290112904
0.113018586309481
0.11820730721358
0.124147606321492
0.130657936748164
0.137609736741523
0.14484406694951
0.152216970972133
0.15958202470627
0.166792888770602
0.173665492303638
0.180050091832331
0.185388368285747
0.188732806530857
0.188648571509481
0.18252920861687
0.166834285445604
0.135888785608939
0.089446065012697
0.033179384595357
-0.000207052684114886
-0.0145551673883682
-0.00424350719872352
0.0057702487810628
0.0105061192394888
0.0133807164934455
0.0210023885695702
0.024953800255523
0.0305352643827476
0.0343109289530265
0.0372555970718832
0.0394074068579305
0.0409215417708869
0.0419657018069108
0.0427015937547273
0.0432653537596299
0.043732447751886
0.0441363139204145
0.0445004694410528
0.0448450126742514
0.0451797805096857
0.0455131867780043
0.0458483137066518
0.0461887165908695
0.0465275538826024
0.0468525214053167
0.0471476373245194
0.0473948550959348
0.0475776314028898
0.0476846896839086
0.0477135763213955
0.0476799747994921
0.047615025937348
0.0475557435543786
0.0475489282674639
0.0476254459688156
0.0478089860587403
0.0480320178559509
0.0483397185128375
0.0485701284279246
0.0487717234038402
0.0489210770647797
0.0490171903921098
0.0490510659957325
0.0490242843073379
0.0489425637187096
0.0488178904107866
0.0486649635257268
0.0484996701350677
0.0483371194920491
0.0481907055245697
0.0480715063363095
0.0479881426699613
0.0479468634613768
0.0479518096411569
0.0480053594218057
0.0481085073823902
0.048261236246995
0.0484628615088284
0.0487123391170597
0.0490085357864717
0.0493504657793544
0.0497375004186886
0.050169557232198
0.0506472753775293
0.0511721827545436
0.0517468590532311
0.0523750978228048
0.053062069494249
0.0538144852407392
0.0546407598053941
0.0555511699156967
0.0565580021043694
0.0576756805391372
0.0589208619607752
0.060312480385256
0.0618717189319905
0.0636218619349925
0.0655879524014439
0.0677963017189177
0.0702734672547163
0.073044020649919
0.0761276147360052
0.0795356771972655
0.0832649081448492
0.0872714549275836
0.0914269355465324
0.0956778106817542
0.0998820070625121
0.101975004642456
0.102733490504469
0.102638234287254
0.102163555826871
0.101540953143596
0.100972089547242
0.100639939419241
0.100783302252341
0.101586756444699
0.103182254791227
0.105667650891703
0.109091252636865
0.113462935948254
0.11872431327499
0.124694974789345
0.131211362338916
0.138147110825767
0.145343941024543
0.152658183508748
0.159940359102724
0.167036891188959
0.173747267889643
0.17988078735331
0.184812857359891
0.187540840993389
0.186545955016676
0.179155038067769
0.161866567795149
0.12974014010551
0.0844769292291212
0.0324952688562575
0.00305440264152593
-0.0108929325514177
-0.00224843975525585
0.00697013321223508
0.0116691895406641
0.0152468666027186
0.0224883354191582
0.0254594199739236
0.0304021057616359
0.0341418971382222
0.0369802187153703
0.0391917529671433
0.0407789557482457
0.0418760824414407
0.0426435402195741
0.0432241909477544
0.0437021544685426
0.0441137572410084
0.0444822635423021
0.0448286103964666
0.0451631589279826
0.0454946049164
0.0458262994028802
0.0461621366546635
0.0464965560515227
0.0468185975235522
0.0471135640058861
0.0473644921884942
0.0475556073315498
0.0476758137284508
0.0477211978972158
0.047704365816207
0.047653390897072
0.0476022176068598
0.0475961768747436
0.0476694976602068
0.0478528684115691
0.0480642292081833
0.0483757674468232
0.0486050553642004
0.0488015080545975
0.0489395494653513
0.0490199362262006
0.0490363506481865
0.0489936180344551
0.0488999686601013
0.0487686235948599
0.0486142607596029
0.0484519507870763
0.048295668013103
0.0481576799192253
0.0480481072315049
0.0479748349296914
0.0479435904657161
0.0479581736263232
0.0480207593626824
0.0481322358702041
0.0482925412486625
0.0485009803241105
0.048756511502388
0.0490580021760775
0.0494044551783868
0.0497952112448213
0.0502301332703981
0.050709778169422
0.0512355609774841
0.0518099148185441
0.0524364493539399
0.0531201093289655
0.0538673326505212
0.0546862056938246
0.0555866121726665
0.0565803690114019
0.0576813394621573
0.0589055105072839
0.0602710173632222
0.0617980940438388
0.0635089065843642
0.0654271949641958
0.0675777879019317
0.0699854734792722
0.0726730861776035
0.0756586442061606
0.0789516930649261
0.0825470459211158
0.086403908279718
0.090405785562412
0.0944706236020232
0.0984738072549138
0.100694117112815
0.101561695024721
0.101596556619849
0.101240389159736
0.100741608178376
0.100310613221916
0.100140199163418
0.100460843677544
0.101444349781432
0.103215767659408
0.105863690712913
0.109427635561804
0.113907292023486
0.119233823277497
0.125228392434863
0.131744734451589
0.13865682414485
0.145806861855101
0.15305066018112
0.160234578450141
0.167195655356963
0.173713448231592
0.179554353402269
0.184026186856988
0.186072154419803
0.184096385883115
0.175361799548206
0.156529482737527
0.123966905986736
0.0804224973647037
0.0321843942218798
0.00628341032306626
-0.00737475412161962
-0.000223804922988388
0.00820219865608894
0.0128775476352093
0.0167152922786978
0.0239638005860436
0.0261993965936897
0.0304122407421985
0.034074193586132
0.0367427472852353
0.0389547532284526
0.0406187429144329
0.0417771428450902
0.0425813841847023
0.0431808092192724
0.0436700619912958
0.0440897780994292
0.0444629139815797
0.0448111164433784
0.0451452659445098
0.045474334176509
0.0458019555668413
0.046132336816672
0.0464612130876953
0.0467791223128365
0.0470729134657921
0.0473269852784911
0.0475265558249702
0.0476608762587484
0.0477246889772933
0.0477274291831471
0.0476938147498532
0.0476544402921443
0.0476524370596371
0.0477254219894991
0.0479096710675781
0.0481039500588584
0.0484147558999325
0.0486377504430038
0.0488231662051323
0.0489445628932137
0.0490054989445051
0.0490029899120416
0.0489449196063013
0.0488412675547216
0.0487056443626525
0.0485521317618643
0.0483947337907857
0.0482462538294846
0.048117890491496
0.0480188863905862
0.04795646036583
0.0479358699553434
0.047960608307141
0.0480326685482346
0.0481528449603761
0.0483210378120503
0.0485365446745707
0.0487983278839566
0.0491052558594904
0.0494563196065434
0.0498508282091825
0.0502885880905028
0.0507700710889718
0.0512965752571805
0.0518703814045512
0.0524949075763552
0.0531748628525999
0.053916399497063
0.0547272607924567
0.0556169207597771
0.056596708938206
0.0576799102009579
0.0588818266976245
0.06021978504234
0.0617130691918074
0.0633827384409428
0.0652512575745407
0.0673420209463254
0.0696781321142587
0.0722807685195552
0.0751663745607183
0.0783427850115405
0.0818031722885579
0.0855087900510382
0.0893564012025202
0.0932440972873802
0.0970463200468852
0.0993758944553123
0.100342929336164
0.100510739904407
0.100281559903243
0.0999187414397284
0.0996383193951736
0.099640470350127
0.100145741405906
0.101313668004284
0.103262568173017
0.106071736831782
0.109771991634168
0.114353232361216
0.119737937378728
0.125750627761393
0.132261228140566
0.139142250628858
0.146236223495559
0.153397511073509
0.160467117169075
0.167270382839333
0.173563706211094
0.179070033827435
0.183027702272217
0.184330213729412
0.181300893195456
0.171174540741817
0.15128098135584
0.119239567736042
0.0773739585985072
0.0322213897528653
0.00948356227819749
-0.00398261180313285
0.00183286865572982
0.0094560580829646
0.0141430283281554
0.0177399260885883
0.0254042557789605
0.0271174755848992
0.0305962860841731
0.034090793630508
0.0365921418522002
0.0387106271541218
0.04043819458596
0.0416658607759139
0.0425137566831148
0.0431350151242953
0.0436362157102001
0.0440644123525426
0.044442473765793
0.0447926170242387
0.0451262356503475
0.0454525930687543
0.0457756601293853
0.0460999685052988
0.0464225716443218
0.0467356172602416
0.0470276775630019
0.0472846888571721
0.0474929612686054
0.0476421534228293
0.0477257715132768
0.0477501004245931
0.0477363813131429
0.0477117412313301
0.0477165725018925
0.0477917181750935
0.0479764711010003
0.0481489958999035
0.0484534456876157
0.0486640392653187
0.0488325665531676
0.0489330354161455
0.0489724924706935
0.0489512318547582
0.0488794920712409
0.0487681149526826
0.0486304598073503
0.0484797101827605
0.0483287396714625
0.0481892298477119
0.048071391429822
0.0479836650498298
0.0479326619581976
0.0479232098063003
0.0479585198238069
0.0480404170017126
0.0481696081582802
0.0483459578395861
0.0485687560862606
0.0488369676781673
0.049149459978608
0.0495052097130792
0.0499034914607462
0.0503440517264348
0.0508272729725105
0.0513543308124866
0.0519273468109105
0.0525495387049016
0.0532253692968168
0.053960692684141
0.054762894855375
0.055641024866654
0.0566059096085819
0.0576702419090552
0.0588486291592218
0.0601575859413963
0.0616154524040247
0.0632422001789682
0.0650590543621368
0.0670880308170478
0.0693506408552761
0.0718664960451654
0.0746505505349843
0.0777091553927555
0.0810342644885427
0.0845886577945668
0.0882830128743393
0.0920032005825486
0.0956083844639388
0.0980315883609028
0.0990898930322169
0.0993925176917259
0.0992975915480579
0.0990814176335337
0.0989626515821084
0.0991464936218571
0.0998422883905895
0.101197875150913
0.103324919228697
0.106293376176596
0.110125492848806
0.114801945189762
0.120238305484286
0.126263846206535
0.132763209804118
0.139605754222443
0.146634184294171
0.153700365004825
0.160638645741627
0.167260183257013
0.173295560824424
0.178424934931237
0.181815638650001
0.182309422112435
0.178140570218026
0.166812467762401
0.146749475095155
0.115172119308578
0.0748169832814228
0.0326565333708443
0.0126509478103125
-0.000700641766136087
0.0039226324831511
0.0107286232131506
0.0154676838805257
0.0184106814400971
0.0268164507989936
0.028147204978798
0.0309742365404457
0.0341745729093601