/*--------------------------------*- C++ -*----------------------------------*\
  =========                 |
  \\      /  F ield         | OpenFOAM: The Open Source CFD Toolbox
   \\    /   O peration     | Website:  https://openfoam.org
    \\  /    A nd           | Version:  7
     \\/     M anipulation  |
\*---------------------------------------------------------------------------*/
FoamFile
{
    version     2.0;
    format      ascii;
    class       surfaceScalarField;
    location    "20000";
    object      phi;
}
// * * * * * * * * * * * * * * * * * * * * * * * * * * * * * * * * * * * * * //

dimensions      [0 3 -1 0 0 0 0];

internalField   nonuniform List<scalar> 
30950
(
3.46831986456887e-05
-2.44279092394718e-06
2.75236360724766e-05
7.15956258504924e-06
-2.92588945012803e-07
2.78162250187685e-05
-1.14488072249241e-05
1.11562182716633e-05
-9.88416144074888e-06
-1.56464580962185e-06
-6.34990629668197e-06
-3.53425516916316e-06
-4.46550841345651e-06
-1.88439789913863e-06
-3.27923288924168e-06
-1.18627553626426e-06
-2.54273248041681e-06
-7.36500418722483e-07
-2.05795336769583e-06
-4.84779120450996e-07
-1.79783082264571e-06
-2.60122552443824e-07
-1.69877482596457e-06
-9.90560044431478e-08
-1.68874881210968e-06
-1.00260223588977e-08
-1.73184458855319e-06
4.30957670268563e-08
-1.8181381517406e-06
8.6293553230578e-08
-1.9347920178836e-06
1.16653856354591e-07
-2.06381009339916e-06
1.29018066697e-07
-2.18763408445813e-06
1.23823983920277e-07
-2.27605456333152e-06
8.8420473872039e-08
-2.29032924973593e-06
1.42746837700954e-08
-2.1824016201714e-06
-1.07927629787873e-07
-1.92872505399513e-06
-2.53676564024236e-07
-1.50588773300343e-06
-4.22837316462862e-07
-8.92081764406555e-07
-6.13805961600464e-07
-8.25396867988051e-08
-8.09542068123691e-07
8.97609514166742e-07
-9.80149189371862e-07
1.98103487920166e-06
-1.08342535237687e-06
3.05979356961303e-06
-1.07875867799014e-06
4.00643847609396e-06
-9.46644895068986e-07
4.6814218079777e-06
-6.7498332110166e-07
4.9898832426243e-06
-3.08461422799948e-07
4.96674775948676e-06
2.31354980972327e-08
4.75025460579738e-06
2.16493172953467e-07
4.62890242328624e-06
1.21352205877341e-07
4.61991031441437e-06
8.99213528608691e-09
4.59035618950175e-06
2.95541495761036e-08
4.4946681396933e-06
9.56880739305467e-08
4.33046723269473e-06
1.64200929624074e-07
3.98706321508826e-06
3.43404039138262e-07
3.41937360631006e-06
5.67689629064155e-07
2.57250952714918e-06
8.46864098172448e-07
1.41023742149775e-06
1.16227212341238e-06
-8.74505412494527e-08
1.49768797943441e-06
-1.91294419077163e-06
1.82549366548457e-06
-4.033507271534e-06
2.12056309656975e-06
-6.39553609151813e-06
2.36202883642199e-06
-8.9340883097524e-06
2.53855223623479e-06
-1.15821135990554e-05
2.64802530981874e-06
-1.42783731987467e-05
2.69625962355044e-06
-1.69724327534543e-05
2.69405958249156e-06
-1.96268325622385e-05
2.65439984074818e-06
-2.22170156383339e-05
2.59018311219602e-06
-2.47299055123078e-05
2.51288991394605e-06
-2.71618837212205e-05
2.43197825237713e-06
-2.95166983819905e-05
2.35481470729005e-06
-3.18035942208686e-05
2.28689588801535e-06
-3.40357813113093e-05
2.23218714175885e-06
-3.62292499708934e-05
2.19346871264964e-06
-3.84018850134825e-05
2.1726350969866e-06
-4.05728122984867e-05
2.17092734034242e-06
-4.27619097121418e-05
2.18909746957472e-06
-4.49894224793274e-05
2.22751282336594e-06
-4.72756333920143e-05
2.28621096883527e-06
-4.96405481213983e-05
2.36491478523428e-06
-5.21035630298796e-05
2.46301496378718e-06
-5.46830878483415e-05
2.57952487299896e-06
-5.73960981788024e-05
2.71301038405093e-06
-6.02575915964299e-05
2.86149347010895e-06
-6.32799152804438e-05
3.02232373524013e-06
-6.64719216673793e-05
3.19200643675216e-06
-6.98378896381531e-05
3.36596801902875e-06
-7.33761089816672e-05
3.53821939008812e-06
-7.70769414410391e-05
3.70083250419924e-06
-8.09200888519628e-05
3.84314745398823e-06
-8.48707493693448e-05
3.95066055870806e-06
-8.88737509646515e-05
4.00300163493006e-06
-9.28434867400441e-05
3.96973581336135e-06
-9.6649212703546e-05
3.80572599987906e-06
-0.000100096970587535
3.44775791886005e-06
-0.000102883404241851
2.78643368781114e-06
-0.000104468033444504
1.58462923494528e-06
-0.00010396073159215
-5.07301821094948e-07
-0.000100207566032395
-3.75316552940355e-06
-9.1057815369726e-05
-9.14975063304021e-06
-6.93561696388016e-05
-2.17016457013524e-05
-3.56595210779198e-05
-3.36966485303858e-05
-2.09076404559259e-05
-1.4751880593973e-05
-1.52057899192201e-05
-5.70185051059261e-06
-1.32763848872046e-05
-1.92940500627412e-06
-1.33388241279808e-05
6.24392662697541e-08
-1.44565266211337e-05
1.11770251803967e-06
-1.61363825360751e-05
1.67985593881555e-06
-1.84066980616779e-05
2.27031554781483e-06
-2.10930670272302e-05
2.68636898517315e-06
-2.37600823266251e-05
2.6670153159656e-06
-2.61422825033858e-05
2.3822001908713e-06
-2.80945232579876e-05
1.9522407675721e-06
-2.95622447965771e-05
1.46772155167035e-06
-3.05226288996205e-05
9.60384116838777e-07
-3.07561041273005e-05
2.33475242022607e-07
-3.00165886842716e-05
-7.3951542881586e-07
-2.84692711750547e-05
-1.54731749599489e-06
-2.63248024195574e-05
-2.14446874402528e-06
-2.3761272901018e-05
-2.56352950928795e-06
-2.09256796204244e-05
-2.83559327380073e-06
-1.79442181182751e-05
-2.98146149781367e-06
-1.48993639946082e-05
-3.04485412143686e-06
-1.1987573406828e-05
-2.91179058696742e-06
-9.15129615962123e-06
-2.83627724722717e-06
-6.09291157548711e-06
-3.05838458477345e-06
-2.49018648723425e-06
-3.6027250893641e-06
2.36554149666181e-06
-4.85572798593454e-06
9.50216826290386e-06
-7.13662677056254e-06
2.22717591319759e-05
-1.27695908784059e-05
4.6346791353113e-05
-2.40750322389328e-05
9.03064821151547e-05
-4.3959690785439e-05
0.000119187223880814
-2.88807417835165e-05
9.6080970525698e-05
2.31062533479043e-05
4.70768225243013e-05
4.90041479971414e-05
1.48364408914346e-05
0.000115247078624845
6.33719139268957e-06
9.14615542824757e-05
3.0945086940978e-05
1.99052629170949e-05
9.93725163665218e-05
-2.28795253940626e-05
5.3941006580085e-05
-2.657775347841e-05
2.13358227025172e-06
-1.85331189525142e-05
-1.15788897066558e-05
-1.30924474711164e-05
-7.32506939591992e-06
-9.78465503628831e-06
-4.49406798452543e-06
-7.67035542982063e-06
-2.85080003557189e-06
-6.28085449291696e-06
-1.87428006643681e-06
-5.50214936375506e-06
-1.0388276900071e-06
-5.19454731220104e-06
-4.06658064709264e-07
-5.1681849771159e-06
-3.63883672153641e-08
-5.30430605525348e-06
1.79216833927532e-07
-5.56319278963032e-06
3.45180274929151e-07
-5.91044358089453e-06
4.63904633834683e-07
-6.29641196902516e-06
5.14986440563092e-07
-6.6687811648539e-06
4.96193165753496e-07
-6.94812499731805e-06
3.67764293337923e-07
-7.0318282747997e-06
9.79779499144522e-08
-6.80406446193999e-06
-3.35691451784572e-07
-6.20114888633413e-06
-8.56592146087294e-07
-5.16412878499305e-06
-1.45985742100597e-06
-3.63296270994487e-06
-2.14497203574035e-06
-1.57911162331621e-06
-2.86339314852435e-06
9.65133161146296e-07
-3.52439396083094e-06
3.87334948152419e-06
-3.99164165171301e-06
6.91197070589241e-06
-4.11737987261523e-06
9.76309066938513e-06
-3.79776482018995e-06
1.20381138981833e-05
-2.95000650392596e-06
1.33990514910115e-05
-1.66939896355528e-06
1.37739302969225e-05
-3.51743251444655e-07
1.34318027453283e-05
5.58620783338836e-07
1.29883026102133e-05
5.64852399890692e-07
1.25513843009066e-05
4.45910502991479e-07
1.20494754992407e-05
5.31463005451109e-07
1.13330035794577e-05
8.12160045891658e-07
1.02773761376003e-05
1.21982842032547e-06
8.59840692994038e-06
2.02237329291443e-06
6.14104896005495e-06
3.02504764224081e-06
2.77255831998555e-06
4.21535477891864e-06
-1.57948570895749e-06
5.51431619089458e-06
-6.91941889954919e-06
6.83762120726353e-06
-1.31680820652738e-05
8.07415686841672e-06
-2.01763057367745e-05
9.12878680708962e-06
-2.77501338084357e-05
9.93585695105385e-06
-3.5680960000303e-05
1.04693784770768e-05
-4.37727017441991e-05
1.07397671103876e-05
-5.18606518421591e-05
1.07842097870043e-05
-5.98205160234955e-05
1.06539238386183e-05
-6.75693662247494e-05
1.04032501259502e-05
-7.50613706754442e-05
1.00821876554098e-05
-8.22810879877133e-05
9.73260732644117e-06
-8.92363217484516e-05
9.38721212005617e-06
-9.59516794639403e-05
9.07017253540794e-06
-0.000102463304675406
8.79852121677277e-06
-0.000108814832273157
8.58371486046591e-06
-0.000115054403669891
8.43304023304436e-06
-0.000121232502583369
8.35073413591142e-06
-0.000127400370090883
8.33879497423604e-06
-0.000133608788503427
8.39751600865913e-06
-0.000139907063641624
8.52578808755844e-06
-0.000146342073037118
8.72122048915379e-06
-0.000152957277555616
8.98011942680313e-06
-0.000159791615207423
9.29735273638819e-06
-0.000166878209455336
9.66611923895838e-06
-0.000174242830290147
1.00776313337477e-05
-0.000181902042481392
1.05207057727147e-05
-0.00018986096015962
1.09812415209744e-05
-0.000198110496207019
1.14415425875185e-05
-0.000206623939019756
1.18794109307779e-05
-0.000215352595794737
1.22668762596092e-05
-0.000224220094543131
1.25683313426286e-05
-0.000233114695387904
1.27377483843433e-05
-0.00024187857064482
1.27145358968821e-05
-0.000250292501755949
1.24169328231865e-05
-0.000258053630124006
1.17308642546895e-05
-0.00026474129893233
1.04933948779516e-05
-0.000269761535168243
8.46799422138671e-06
-0.000272262218723144
5.2871173066342e-06
-0.000270996129030121
3.18539603623422e-07
-0.000264027340254303
-7.47609053713e-06
-0.000248371761314642
-1.94087444111068e-05
-0.00022002739420103
-3.74941176903461e-05
-0.000172616527641464
-6.9112512205129e-05
-0.000110087336287339
-9.62258398259296e-05
-7.55343890652744e-05
-4.93048277541233e-05
-6.05167643458312e-05
-2.07194751651712e-05
-5.4850058168656e-05
-7.59611111882466e-06
-5.45261995006633e-05
-2.61419340517398e-07
-5.70146665403983e-05
3.60616961344868e-06
-6.10140082107846e-05
5.67919765815624e-06
-6.61800959549981e-05
7.43640333396927e-06
-7.18331680243744e-05
8.33944108981513e-06
-7.69860911318886e-05
7.81993845304686e-06
-8.11052432765224e-05
6.50135236047564e-06
-8.39738851158311e-05
4.82088262795282e-06
-8.55317961726643e-05
3.02563262569749e-06
-8.57114489234322e-05
1.14003688044142e-06
-8.41312462741231e-05
-1.34672739949942e-06
-8.04585757270689e-05
-4.41218597360012e-06
-7.50829917040767e-05
-6.92290152229339e-06
-6.84763051644156e-05
-8.7511552922569e-06
-6.10278601142888e-05
-1.00119745725937e-05
-5.3061783507104e-05
-1.08016698979071e-05
-4.48549957750237e-05
-1.11882492495915e-05
-3.66171221153921e-05
-1.12827278025389e-05
-2.86762510482287e-05
-1.08526616764548e-05
-2.0848593653486e-05
-1.06639346645043e-05
-1.24563770893017e-05
-1.14506011714163e-05
-2.63415059328642e-06
-1.34249516076014e-05
1.02623066685091e-05
-1.77521852694839e-05
2.89496916789237e-05
-2.5824011802356e-05
6.03771750970881e-05
-4.41970743164376e-05
0.00011561795184751
-7.9315809005507e-05
0.000206128063277919
-0.000134469802226566
0.000279288336436632
-0.000102041014951926
0.000262126941381791
4.02676483924957e-05
0.000174059661285052
0.00013707142808789
6.48690412461831e-05
0.000211915187712279
3.22788013781845e-05
0.00016900022093798
7.38600537239927e-05
5.94457819374989e-05
0.00020892695535042
-2.31320621285177e-05
0.000136518850644674
-4.11261479715608e-05
2.01276681130455e-05
-3.13575867690616e-05
-2.13474509185497e-05
-2.25244750812129e-05
-1.61581810993609e-05
-1.70272635469041e-05
-9.99127953283042e-06
-1.3434164382109e-05
-6.44389921092876e-06
-1.10457948381879e-05
-4.26264961987245e-06
-9.65486983910165e-06
-2.42975269801562e-06
-9.07174489703121e-06
-9.89783016233228e-07
-8.99544499092996e-06
-1.1268828418198e-07
-9.21027930190364e-06
3.94051132169945e-07
-9.63595943174703e-06
7.70860390176941e-07
-1.02156654731655e-05
1.04361065913385e-06
-1.08683680902479e-05
1.16768904068384e-06
-1.15062760302268e-05
1.13410108877007e-06
-1.20049008971248e-05
8.66389144141559e-07
-1.22031651211412e-05
2.96242159540293e-07
-1.19264483035325e-05
-6.12408281373836e-07
-1.10727089900815e-05
-1.71033146843927e-06
-9.55400548313785e-06
-2.97856093295914e-06
-7.2795176204523e-06
-4.41945989836876e-06
-4.19783088019736e-06
-5.94507988199536e-06
-3.35970381846675e-07
-7.38625444364593e-06
4.15218913177366e-06
-8.47980113911578e-06
8.9566902981975e-06
-8.92188100109741e-06
1.36285674686268e-05
-8.46964194112623e-06
1.75856121234054e-05
-6.90705109925592e-06
2.02417650019363e-05
-4.3255517751682e-06
2.13093235532003e-05
-1.41930173123181e-06
2.10341529107398e-05
8.33791499120092e-07
2.0183761988097e-05
1.41524339462946e-06
1.89743533708816e-05
1.65531919074863e-06
1.75746369621433e-05
1.93117947970229e-06
1.57032465751562e-05
2.68355049589247e-06
1.30616104221987e-05
3.86146463225461e-06
9.21599218713742e-06
5.86799158363998e-06
3.90997864330244e-06
8.33106123840515e-06
-3.03176963738815e-06
1.11571031088029e-05
-1.16626769945969e-05
1.4145223594445e-05
-2.18946534144608e-05
1.70695976715352e-05
-3.35011762132778e-05
1.96806797115284e-05
-4.61567415187728e-05
2.17843521591404e-05
-5.94905855140635e-05
2.326970099754e-05
-7.31411574458557e-05
2.41199504667743e-05
-8.67971739470305e-05
2.43957836776732e-05
-0.000100219581923948
2.42066178390313e-05
-0.000113246303709543
2.36806457084213e-05
-0.000125785230303648
2.29421768129112e-05
-0.000137801393105403
2.20983505578398e-05
-0.000149302797724763
2.12340120532657e-05
-0.000160327546342
2.04119608504498e-05
-0.000170933352817199
1.96759791283593e-05
-0.000181189594464846
1.90547629857102e-05
-0.000191171562567181
1.85656830866208e-05
-0.000200956406858841
1.82178846500958e-05
-0.000210620271917777
1.80145993209265e-05
-0.000220236197675597
1.79547208580142e-05
-0.000229872448165203
1.80337666233781e-05
-0.000239591017231113
1.8244357277096e-05
-0.000249446128781058
1.85763321606703e-05
-0.000259482600200947
1.90165909657075e-05
-0.000269733973400273
1.95487260517229e-05
-0.000280220341590882
2.0152487542179e-05
-0.000290945812866833
2.08031027185632e-05
-0.000301895552412334
2.14704454230225e-05
-0.000313032332465532
2.21180216746678e-05
-0.000324292489424142
2.27016996421282e-05
-0.000335581133089032
2.31680546870598e-05
-0.000346766370577387
2.34521138347145e-05
-0.000357672183831355
2.34741446787408e-05
-0.000368069377867843
2.31349424984731e-05
-0.000377663713119674
2.23088712220357e-05
-0.000386080131857893
2.0833351630673e-05
-0.000392841213633645
1.84919460959965e-05
-0.000397334860213334
1.49870415198799e-05
-0.000398765897844442
9.89903191184107e-06
-0.000396106285049552
2.6275045686511e-06
-0.00038806883318075
-7.71891221036747e-06
-0.000372881511533271
-2.26634121318939e-05
-0.000347936984131786
-4.43532717619262e-05
-0.000310067311325998
-7.53637904474142e-05
-0.000255483460466844
-0.000123696363016437
-0.000188175860928961
-0.000163533439311717
-0.000144603582968193
-9.28771056539953e-05
-0.000122240479545178
-4.30825785203841e-05
-0.00011252753749549
-1.73090530989057e-05
-0.000110599367825108
-2.18958894413369e-06
-0.000112955851387497
5.96265323655059e-06
-0.000117615379574317
1.03387258980279e-05
-0.00012372640909878
1.35474329036236e-05
-0.000130156842726764
1.47698747558023e-05
-0.000135594331297958
1.32574270561864e-05
-0.000139377773467102
1.02847945564123e-05
-0.000141279450302268
6.7225594850075e-06
-0.000141234081734349
2.98026407435601e-06
-0.000139123449194628
-9.70595648792038e-07
-0.000134521943849405
-5.94823274104901e-06
-0.000127170980453571
-1.17631493728633e-05
-0.000117617979898306
-1.64759020878331e-05
-0.00010648646431403
-1.98826708930254e-05
-9.4285255358242e-05
-2.22131835501508e-05
-8.14429813196872e-05
-2.36439439623547e-05
-6.83226354058869e-05
-2.43085951921884e-05
-5.52161203569177e-05
-2.4389242882063e-05
-4.24493312791785e-05
-2.36194507855496e-05
-2.96598122899367e-05
-2.34534536852237e-05
-1.5847759189417e-05
-2.52626543031808e-05
3.59523526425812e-07
-2.96322343542526e-05
2.13317964412358e-05
-3.87244582139637e-05
5.11017957775456e-05
-5.55940111663575e-05
9.80693307628509e-05
-9.11646093246401e-05
0.000173400830595882
-0.00015464730885302
0.000283060383519792
-0.000244129355156806
0.000379383636298638
-0.000198364267736817
0.000388135091850317
3.1516192831711e-05
0.000306198593579506
0.000219007926353159
0.000133210837105983
0.000312188080193174
6.64105055149437e-05
0.000255882651641988
0.000130165482279915
0.000116665493058189
0.000348144113922009
-9.54897076422019e-06
0.000262733314464854
-5.14393605363953e-05
6.20180578863955e-05
-4.40927189539132e-05
-2.86940925109686e-05
-3.25336541705732e-05
-2.77172458985606e-05
-2.48694506185314e-05
-1.76554830993926e-05
-1.97725110695913e-05
-1.15408387708061e-05
-1.63227460562621e-05
-7.71241464307764e-06
-1.4245310650141e-05
-4.50718811342745e-06
-1.33254141501859e-05
-1.90967952611389e-06
-1.31665647885679e-05
-2.71537657336321e-07
-1.34468507609529e-05
6.74337090919061e-07
-1.40342577089853e-05
1.35826732249286e-06
-1.48475286965072e-05
1.85688162923706e-06
-1.57747878251164e-05
2.09494815090892e-06
-1.66937057966634e-05
2.05301904186334e-06
-1.74391577184945e-05
1.61184104837014e-06
-1.78006218031696e-05
6.57706228336801e-07
-1.75542371428104e-05
-8.58792955141286e-07
-1.65664581871669e-05
-2.69811043432754e-06
-1.47285913668155e-05
-4.81642775955062e-06
-1.19280960419665e-05
-7.21995522422786e-06
-8.09363585595711e-06
-9.77954006205003e-06
-3.23806594940255e-06
-1.22418243351386e-05
2.48686380027366e-06
-1.42047308625142e-05
8.7445367645805e-06
-1.51795539266445e-05
1.50247809710483e-05
-1.47498860966176e-05
2.06298540935869e-05
-1.25121241602664e-05
2.47536875549556e-05
-8.44938516705224e-06
2.68171086820366e-05
-3.48272278392102e-06
2.68626167417838e-05
7.8828351587139e-07
2.56092102260255e-05
2.66864998571606e-06
2.33006428078392e-05
3.96388668266208e-06
2.05076491473855e-05
4.72417320868676e-06
1.68072731416708e-05
6.38392656754572e-06
1.17181649008639e-05
8.9505729347225e-06
4.68717233502584e-06
1.28989842076645e-05
-4.6005929725843e-06
1.76188266003831e-05
-1.62960402846434e-05
2.28525504709645e-05
-3.03315242413291e-05
2.81807075970259e-05
-4.64173015424126e-05
3.31553750156834e-05
-6.40871497626063e-05
3.73505279740659e-05
-8.27783507778056e-05
4.04755532182403e-05
-0.000101923933176472
4.24152834437727e-05
-0.000121027150228372
4.32231675716061e-05
-0.000139704604351382
4.30732378601196e-05
-0.00015769779681373
4.21998103678361e-05
-0.000174862307948007
4.08451569161391e-05
-0.000191145589312447
3.92254582573082e-05
-0.000206562114717677
3.75148760487895e-05
-0.000221171000810242
3.58428982364192e-05
-0.000235058181163987
3.42991412987203e-05
-0.000248323314105391
3.29411121673091e-05
-0.000261070700133469
3.18021491134897e-05
-0.000273403215206584
3.0898198260782e-05
-0.000285418321713836
3.02329912589827e-05
-0.000297205397255094
2.98016749637225e-05
-0.000308843817198981
2.95931409027235e-05
-0.000320401396626901
2.95913461508633e-05
-0.000331932929747109
2.97758904951372e-05
-0.000343478663211915
3.01220657211817e-05
-0.000355062610091126
3.06005379381445e-05
-0.000366690661322217
3.11767773732637e-05
-0.000378348486505597
3.181031281296e-05
-0.000389999238990143
3.24538552872193e-05
-0.000401581090288694
3.30522968021932e-05
-0.000413004614938226
3.35415464011844e-05
-0.000424150027001002
3.38471117781668e-05
-0.000434864228507083
3.38822562626424e-05
-0.000444957568848119
3.35454542414939e-05
-0.000454200127912388
3.2716703805037e-05
-0.000462317187344303
3.1252001988794e-05
-0.000468983372247364
2.89750561800358e-05
-0.000473814896004399
2.56648754393918e-05
-0.000476359013441789
2.10360635820784e-05
-0.000476078648852803
1.47066769768848e-05
-0.000472335114499636
6.15549760225099e-06
-0.000464388293060614
-5.31931682895825e-06
-0.000451332933384984
-2.07742718468896e-05
-0.000431942062399637
-4.20542830805287e-05
-0.000404476238376784
-7.18190957502595e-05
-0.000366770327407038
-0.00011306970138465
-0.000316881803007037
-0.000173584887384869
-0.000258366692516156
-0.000222048549767584
-0.000217160338023519
-0.000134083460102382
-0.000193104148568485
-6.71387679228019e-05
-0.000181181533256229
-2.92316683545936e-05
-0.000177270216579814
-6.1009055646725e-06
-0.000178024162590929
6.71659929931122e-06
-0.000181274997772745
1.35895611254892e-05
-0.000185851659119437
1.8124094289575e-05
-0.000190404656758297
1.93228724279767e-05
-0.000193568999232423
1.64217695584678e-05
-0.000194711168750972
1.14269640984479e-05
-0.00019364058292282
5.65197367557883e-06
-0.000190300412817868
-3.59906017259719e-07
-0.000184570399140315
-6.70060931919621e-06
-0.000176106095688447
-1.44125361924497e-05
-0.000164798826120076
-2.30704189475191e-05
-0.000151249269950849
-3.00254582697174e-05
-0.000136084366687204
-3.50475741750539e-05
-0.000119817543214621
-3.84800070459507e-05
-0.000102888042936065
-4.05734442679178e-05
-8.56649265898473e-05
-4.15317115681163e-05
-6.84425342538817e-05
-4.16116352494378e-05
-5.14423475865122e-05
-4.06196374852106e-05
-3.41083569074109e-05
-4.07874443968203e-05
-1.52173751431233e-05
-4.41536360996891e-05
6.95010828146133e-06
-5.17997178103392e-05
3.51772308749144e-05
-6.69515808369819e-05
7.40177479399286e-05
-9.44345282575196e-05
0.000131386327702517
-0.000148533189106808
0.000215723631437114
-0.000238984612598037
0.000327692441367487
-0.000356098165090647
0.000428991343810461
-0.000299663170182869
0.000461489047070696
-9.81510433100189e-07
0.000408626340548771
0.000271870632872034
0.00019551739330072
0.000395575670571511
9.81443901417298e-05
0.000338791066313151
0.000186950086538675
0.000185985901513955
0.000500949278713958
1.9141854114465e-05
0.000429577361863083
-5.50399445184881e-05
0.000136199856520077
-5.58498763591758e-05
-2.78841606800965e-05
-4.28592038786235e-05
-4.0707918394294e-05
-3.32067094696369e-05
-2.73079775234362e-05
-2.66426183275263e-05
-1.81049299247555e-05
-2.21032329468366e-05
-1.22518000346535e-05
-1.92783077511255e-05
-7.33211331943627e-06
-1.7962386941755e-05
-3.22560034641232e-06
-1.76870481649521e-05
-5.46876446742857e-07
-1.80189573518354e-05
1.00624626298079e-06
-1.87625427208514e-05
2.10185267444822e-06
-1.98091646442186e-05
2.90350353366065e-06
-2.10168722853737e-05
3.30265577198261e-06
-2.22301504324354e-05
3.26629716863111e-06
-2.32480117044058e-05
2.62970230081369e-06
-2.38202759278255e-05
1.22997043394577e-06
-2.36853535301035e-05
-9.93715368128426e-07
-2.26873281752245e-05
-3.69613580115886e-06
-2.07065743432489e-05
-6.79718159926447e-06
-1.76197784888296e-05
-1.03067510809234e-05
-1.33423658636022e-05
-1.40569526823509e-05
-7.87045932783844e-06
-1.7713730856624e-05
-1.33400215882837e-06
-2.07411880057744e-05
5.94693362438844e-06
-2.24604896711373e-05
1.34712561424283e-05
-2.22742085631796e-05
2.05200100490757e-05
-1.95608780044237e-05
2.61409974061907e-05
-1.40703724531334e-05
2.94402061920127e-05
-6.78193149306306e-06
3.00907509469276e-05
1.37738840559025e-07
2.85118797323866e-05
4.24752127911091e-06
2.47752459256221e-05
7.70052056663631e-06
1.99843548224971e-05
9.5150643836729e-06
1.36124927338451e-05
1.27557887249867e-05
5.03680297055017e-06
1.75262627619514e-05
-6.33786230711049e-06
2.4273649544769e-05
-2.07879193677402e-05
3.20688837146892e-05
-3.82947548447451e-05
4.03593859953544e-05
-5.85119347501771e-05
4.8397887544524e-05
-8.08126250558813e-05
5.54560653600859e-05
-0.00010440416486668
6.09420678223626e-05
-0.000128468915670189
6.45403040601619e-05
-0.000152288393369447
6.62347611841724e-05
-0.000175317437478325
6.6252211725729e-05
-0.000197204712521839
6.49605129538362e-05
-0.000217773371253215
6.27684691547241e-05
-0.000236982011182097
6.00537969057441e-05
-0.00025488214154956
5.71255886902796e-05
-0.000271581461999658
5.42141965685305e-05
-0.000287216225940423
5.14776622502172e-05
-0.000301932380484381
4.90152959183439e-05
-0.000315873666156984
4.68823979174811e-05
-0.000329174614764201
4.51030977994958e-05
-0.000341956696049662
4.36802796256223e-05
-0.000354326323866328
4.26026191550447e-05
-0.000366373852371564
4.18492035478552e-05
-0.000378173015438209
4.13923040473069e-05
-0.000389780489119581
4.11988199088219e-05
-0.00040123540863446
4.12308100849179e-05
-0.000412558769739214
4.14454268988738e-05
-0.000423752705674136
4.17944739438074e-05
-0.00043479966730912
4.22237390765879e-05
-0.000445661552285579
4.26721978551723e-05
-0.000456278832265748
4.30711353303959e-05
-0.000466569715480031
4.33431800766063e-05
-0.000476429354863481
4.3401185841803e-05
-0.000485729071036742
4.31468280055935e-05
-0.000494315503045998
4.24686883230522e-05
-0.000502009531424672
4.12394826683194e-05
-0.000508604742260898
3.93119146864507e-05
-0.000513865104561681
3.6512364331874e-05
-0.000517521433752099
3.26313854099698e-05
-0.000519266235552006
2.74096772761816e-05
-0.000518746630085333
2.05164581498294e-05
-0.000515555063946692
1.15151108704016e-05
-0.000509217941460854
-1.81624853501718e-07
-0.000499165962798774
-1.537129546307e-05
-0.000484673057421823
-3.52671771980418e-05
-0.000464833353346743
-6.18939871317521e-05
-0.00043848156923696
-9.81708798378558e-05
-0.000404150191745147
-0.000147401078855515
-0.00036110636534022
-0.000216628713768992
-0.000313139401024478
-0.000270015514059798
-0.000278658643858254
-0.000168564217238138
-0.000257488491139673
-8.83089206038922e-05
-0.000246068745740221
-4.06514137122685e-05
-0.000241002803380601
-1.11668478819061e-05
-0.00023958015780427
5.29395376284173e-06
-0.000239979857387803
1.39892607446473e-05
-0.000241117018586162
1.92612555187867e-05
-0.000241774803910007
1.99806577781398e-05
-0.000240843149554412
1.54901152251531e-05
-0.000237862642379163
8.44645694164843e-06
-0.000232717046955745
5.06378266456389e-07
-0.00022537864772878
-7.69830523476622e-06
-0.000215748076927354
-1.63311801165872e-05
-0.000203582983358696
-2.65776297627193e-05
-0.000188898589882088
-3.77548124312655e-05
-0.000172230128589087
-4.66939195749764e-05
-0.000154102758034856
-5.31749447461238e-05
-0.000134956328322533
-5.76264367790139e-05
-0.000115173008119597
-6.03567644947128e-05
-9.50632990054845e-05
-6.16414207084084e-05
-7.48572833668419e-05
-6.18176509158569e-05
-5.45986464592513e-05
-6.0878274421574e-05
-3.35734198501105e-05
-6.18126710350553e-05
-1.04727909369931e-05
-6.72542650414927e-05
1.6567667692769e-05
-7.88401764675491e-05
5.04051729814663e-05
-0.000100789086150423
9.55749071972519e-05
-0.000139604262493687
0.000158965093463284
-0.000211923375386448
0.000247208692028684
-0.000327228211169532
0.000357895187799523
-0.000466784660863218
0.000457597031826017
-0.000399365014211006
0.000501425760672792
-4.48102392820436e-05
0.00047401467505538
0.000299281718487498
0.000242222513141831
0.000457921184456863
0.000123944164992048
0.000409455026792395
0.000235416244200721
0.00025938612790743
0.000651018177594329
6.20926216941115e-05
0.000626870868078164
-4.93051191143229e-05
0.000247597597326995
-6.53816702649145e-05
-1.18076095379757e-05
-5.31488102622309e-05
-5.29407784108721e-05
-4.19236871423742e-05
-3.85331006590816e-05
-3.40078592895083e-05
-2.60207577909228e-05
-2.83888298568233e-05
-1.78708294798262e-05
-2.47679098873949e-05
-1.09530333007301e-05
-2.29964134541288e-05
-4.9970967920969e-06
-2.2566860115247e-05
-9.76429799706652e-07
-2.29338492163323e-05
1.37323534770495e-06
-2.38259698568717e-05
2.99397329626174e-06
-2.51031233387598e-05
4.18065699477151e-06
-2.65940490462281e-05
4.79358145734143e-06
-2.81117565908544e-05
4.78400469076953e-06
-2.94243752860312e-05
3.94232097417431e-06
-3.02519204355513e-05
2.05751556336274e-06
-3.03071313774736e-05
-9.38504443654032e-07
-2.94217297503942e-05
-4.58153744217663e-06
-2.74752707283224e-05
-8.74364063080893e-06
-2.43449633088682e-05
-1.34370585041675e-05
-1.99419221847043e-05
-1.8459993803014e-05
-1.42480767707145e-05
-2.34075762578366e-05
-7.3648136652872e-06
-2.76244510871946e-05
4.33009777154936e-07
-3.02583130768602e-05
8.70829046527889e-06
-3.05494892015894e-05
1.68091148038746e-05
-2.76617022818721e-05
2.37447301822295e-05
-2.10059877610744e-05
2.83552478941803e-05
-1.13924491277094e-05
2.98356537622748e-05
-1.34266694588489e-06
2.80204429797261e-05
6.06273214345091e-06
2.24892390440868e-05
1.32317245825754e-05
1.49689280842088e-05
1.70353754183775e-05
4.96759948831526e-06
2.27571173916146e-05
-8.17172067584997e-06
3.06655829902783e-05
-2.49231179009243e-05
4.10250468268043e-05
-4.5337087366413e-05
5.24828532289406e-05
-6.90230390612402e-05
6.40453377316798e-05
-9.51918605920185e-05
7.45667091113316e-05
-0.000122798360389253
8.30625651899776e-05
-0.000150750643283308
8.88943507477604e-05
-0.00017809788114322
9.18875419519366e-05
-0.000204146804343084
9.22836844179075e-05
-0.000228489763370678
9.05951707902695e-05
-0.000250967113475468
8.74378630992906e-05
-0.000271599156975024
8.34005126988925e-05
-0.000290516907815588
7.89715477947455e-05
-0.000307906919913269
7.45156008398436e-05
-0.0003239738429912
7.02811197012481e-05
-0.000338918110443614
6.6421929759719e-05
-0.000352924297310652
6.30214828441762e-05
-0.000366156075681721
6.0114176348495e-05
-0.000378754811881391
5.7701834059742e-05
-0.000390839923811562
5.57653916165353e-05
-0.000402509912062834
5.42726074668029e-05
-0.000413843493191422
5.31827847363006e-05
-0.000424900570460724
5.24493813755149e-05
-0.000435722949096538
5.20211986023138e-05
-0.000446334794266206
5.1842655310803e-05
-0.000456742874563239
5.1853507250473e-05
-0.000466936650560954
5.19882499942762e-05
-0.000476888268046443
5.21753566128809e-05
-0.000486552504504631
5.23364343620927e-05
-0.000495866697755309
5.23853286276304e-05
-0.000504750657258925
5.22271396245131e-05
-0.000513106523113715
5.17570517385606e-05
-0.000520818497497743
5.08588024292367e-05
-0.000527752328246317
4.94025191088827e-05
-0.000533754376720366
4.72415311772849e-05
-0.000538650058821554
4.42075968202465e-05
-0.000542241408931284
4.0103714471967e-05
-0.00054430347266696
3.46934491738467e-05
-0.000544579208203586
2.76854128389552e-05
-0.000542772687604006
1.87099375744744e-05
-0.000538541039300145
7.28346258899084e-06
-0.00053148365761468
-7.23900651821929e-06
-0.000521100539040461
-2.57544140182306e-05
-0.000506778421332079
-4.95892948888969e-05
-0.000487831276022875
-8.08411324247082e-05
-0.00046346734640486
-0.000122534809440608
-0.000432732561756343
-0.000178135863489301