/*--------------------------------*- C++ -*----------------------------------*\
  =========                 |
  \\      /  F ield         | OpenFOAM: The Open Source CFD Toolbox
   \\    /   O peration     | Website:  https://openfoam.org
    \\  /    A nd           | Version:  7
     \\/     M anipulation  |
\*---------------------------------------------------------------------------*/
FoamFile
{
    version     2.0;
    format      ascii;
    class       volScalarField;
    location    "20000";
    object      Pk_bouss;
}
// * * * * * * * * * * * * * * * * * * * * * * * * * * * * * * * * * * * * * //

dimensions      [0 2 -3 0 0 0 0];

internalField   nonuniform List<scalar> 
15600
(
1.38189585231601e-06
1.17624256114702e-06
1.39451940769807e-07
6.31942536696155e-09
4.04368638127499e-09
1.50113837257576e-09
5.30258961063539e-10
1.24848893584869e-10
2.55650295207938e-11
6.7691681470115e-12
2.77095566566719e-12
1.85734694616465e-12
1.71006351515834e-12
1.85450077101315e-12
2.20198214738268e-12
2.78738730778828e-12
3.65814177937446e-12
4.83829794084758e-12
6.28755853940405e-12
7.79260834125756e-12
8.88678823195368e-12
8.94272706526412e-12
7.4873513853125e-12
4.60649598766106e-12
1.38011988080799e-12
4.80523890672661e-14
2.98191999086323e-12
1.04061941303145e-11
1.89321967488769e-11
2.33256878300275e-11
2.10974967717535e-11
1.51937950260309e-11
9.78813123560962e-12
6.94831554997843e-12
6.1751856641874e-12
6.94456170826009e-12
8.35591960296762e-12
9.81508321003166e-12
1.0551121859979e-11
9.48335127007112e-12
6.02408533502524e-12
1.31174389387951e-12
1.78994027728449e-12
2.41098684648015e-11
1.00570442923027e-10
2.82718404064184e-10
6.40852149111418e-10
1.25895208790055e-09
2.22646238752845e-09
3.62984480318299e-09
5.5464523640017e-09
8.04212561890945e-09
1.11724558118643e-08
1.49868356900764e-08
1.95341699883127e-08
2.48693435095601e-08
3.10599142880531e-08
3.8192859502403e-08
4.63814631236622e-08
5.5772598911091e-08
6.65547563952522e-08
7.89672070455148e-08
9.33107398855274e-08
1.09960415816531e-07
1.29380802617492e-07
1.52144146350073e-07
1.78951898560294e-07
2.10659920832388e-07
2.48307477048602e-07
2.93149712049216e-07
3.46692586268604e-07
4.10727911182278e-07
4.87363671372487e-07
5.79040747211913e-07
6.88521806384098e-07
8.18827631855972e-07
9.73069599486901e-07
1.15412446604451e-06
1.36420644932841e-06
1.60420412108307e-06
1.8719427962109e-06
2.16706556914591e-06
2.41928147939217e-06
2.4697244591995e-06
2.02598798992222e-06
8.81489662306129e-07
1.3753872091182e-07
4.26459720034031e-08
2.10677823009658e-08
1.62934696689861e-08
1.76148685012897e-08
2.26025403999659e-08
3.16423100846178e-08
4.67424103029698e-08
6.94297964914591e-08
9.98334090102634e-08
1.37362484848949e-07
1.80719034933097e-07
2.28238378464439e-07
2.76365218092529e-07
3.14579104476071e-07
3.2955211025744e-07
3.20871905334726e-07
2.92699335561834e-07
2.51191950593284e-07
2.02905903710137e-07
1.5376372492643e-07
1.08819565152181e-07
7.20394339302306e-08
4.10666489841852e-08
1.40588151435122e-08
2.06709587425327e-10
5.70424586734442e-08
5.28001359048207e-07
3.54612459363141e-06
2.44976173056146e-05
6.90975856191894e-05
4.78531514050617e-05
1.19593828481654e-05
2.31472449154405e-06
0.000357509802395115
0.000229764786554081
4.53007424882738e-05
3.96589663153882e-07
4.90627088760279e-07
2.22732509866225e-07
8.6075331392275e-08
2.22565897022857e-08
4.89969571653804e-09
1.30639716480956e-09
5.21480572111149e-10
3.39481835007534e-10
3.08219771304355e-10
3.32814978420301e-10
3.9393727959975e-10
4.96109347967436e-10
6.47342093895144e-10
8.51131602392936e-10
1.10049122825949e-09
1.36158123301039e-09
1.56578659960063e-09
1.6206687604245e-09
1.44600375692006e-09
1.03355330376547e-09
4.97229227169957e-10
1.04234439642189e-10
1.75447269925989e-10
8.35564926229732e-10
1.799474893565e-09
2.48711794090158e-09
2.4849514700902e-09
1.95499281501166e-09
1.3460332175892e-09
9.71712365786455e-10
7.75287695820427e-10
7.33026044406521e-10
7.51441631701108e-10
6.92692081850775e-10
4.82927802363331e-10
1.67356718759121e-10
1.80176617953264e-10
1.84205574177732e-09
8.12642088070968e-09
2.44867543535188e-08
5.93902739513112e-08
1.24196081077937e-07
2.32252656446675e-07
3.97495175644219e-07
6.33009004763528e-07
9.50023240088437e-07
1.35754167225801e-06
1.86258254735881e-06
2.47084001184364e-06
3.18755649532851e-06
4.01844034814556e-06
4.97053559006188e-06
6.05301090921562e-06
7.27787442492709e-06
8.66063963304871e-06
1.02209723854255e-05
1.19833450948058e-05
1.39777152201694e-05
1.62402333169005e-05
1.88139704360226e-05
2.17496352817321e-05
2.51062256275793e-05
2.89515242756683e-05
3.33623033787794e-05
3.84240379177965e-05
4.42298424900983e-05
5.08782281846607e-05
5.84691143064854e-05
6.70973278015152e-05
7.68425766204606e-05
8.77545441615701e-05
9.98316150477565e-05
0.000112992873210623
0.000127044528197012
0.000141640665386265
0.000156262854552445
0.000170368375412432
0.000184153521288862
0.000190612131684829
0.000182958199805547
0.000159103582895739
0.000106277174907483
3.3897125080291e-05
1.30142351907075e-05
7.2137358614721e-06
5.48513546412762e-06
5.48561018162563e-06
6.3731027056033e-06
8.00502514413613e-06
1.05537718181007e-05
1.40967323070559e-05
1.84892879268139e-05
2.35259123959937e-05
2.89482244340528e-05
3.44599126173517e-05
3.95853897652855e-05
4.30924957118292e-05
4.36849661554815e-05
4.15230055828051e-05
3.71949784108589e-05
3.14549465113004e-05
2.50658347693961e-05
1.87204747500442e-05
1.29703018218501e-05
8.21969699956623e-06
4.25070181524649e-06
1.1030287056495e-06
5.34733642671478e-07
1.08260748101939e-05
7.244579431393e-05
0.000374200538146298
0.00172114259639147
0.00371664029684872
0.00330132467579861
0.00166164855080339
0.000671301892299674
0.00750283764265775
0.00450338924748182
0.00120884438765887
5.65852085907363e-05
5.17606764416348e-06
3.5305392195405e-06
1.53612253958268e-06
4.3955815386388e-07
1.05115512155547e-07
2.86309865334799e-08
1.12354791855157e-08
7.13157462477154e-09
6.40113322843039e-09
6.89169802472491e-09
8.13906209493002e-09
1.02034671142154e-08
1.32394255353507e-08
1.73043742551387e-08
2.22604362121821e-08
2.74969086612436e-08
3.18805521228752e-08
3.39383778160251e-08
3.22046241926121e-08
2.62271827190802e-08
1.71139817937449e-08
8.01990558322372e-09
3.20506627324771e-09
5.4816188711099e-09
1.35414224457556e-08
2.21296213453808e-08
2.57150894888431e-08
2.31553684633465e-08
1.76048479886211e-08
1.31082146805174e-08
9.18557998195874e-09
6.50186539720129e-09
4.57942438833222e-09
2.06524259565834e-09
1.95238103868353e-09
1.53801613049516e-08
7.09172208813855e-08
2.2832374280186e-07
5.91698861695309e-07
1.31757994574972e-06
2.60725126364264e-06
4.68497697506867e-06
7.76777998544879e-06
1.20383332020061e-05
1.7629290133827e-05
2.46216733113088e-05
3.30542303237377e-05
4.29385227766e-05
5.42749372699335e-05
6.70666367012535e-05
8.13302154511631e-05
9.71030131346548e-05
0.000114447589404664
0.000133453973878734
0.000154240185855754
0.000176951295189096
0.000201757070023252
0.000228848028918998
0.000258429526611735
0.00029071332209547
0.000325905936771283
0.000364192990764612
0.000405718640646578
0.000450559250397791
0.000498690554721502
0.000549947848873609
0.000603979307013087
0.000660193519373304
0.000717704186011575
0.000775277719882825
0.000831294289257686
0.000883745148575974
0.000930310263002302
0.000968571906548754
0.000996478571736116
0.00101356733776725
0.00102411864413148
0.00102299420758224
0.00101850932741438
0.0010424181337904
0.00115831601548789
0.00115690031107033
0.000633566926045949
0.000323571695953866
0.000206595971901997
0.000161832998320487
0.000154852304347575
0.00016732327033925
0.000192267616709259
0.000229742317525708
0.000278587411695653
0.000334514658017162
0.000393312845926006
0.000450891336136715
0.000503396691578033
0.000545058486120921
0.000564605019571459
0.000553285960262379
0.000514019074389357
0.000453394263041379
0.000379076755995771
0.000298788578242741
0.000219738262650574
0.00014772422956292
8.72870478218041e-05
3.85197539774153e-05
7.82009397710938e-06
2.74771714210796e-05
0.000210064892897282
0.000949984775433936
0.00330603242143604
0.00830068238894872
0.0109797060143039
0.0125629300994188
0.0135925807193634
0.0110023169772025
0.029127709484145
0.0207167222976761
0.00794686597374415
0.00104887920081817
1.54218682418021e-05
1.84848400259666e-05
9.60337928761578e-06
3.08880980544033e-06
8.14222893411396e-07
2.29902006246352e-07
8.9300727360154e-08
5.53182994303741e-08
4.90848767165935e-08
5.26976256878078e-08
6.21072109481124e-08
7.75140280642767e-08
1.00001676069271e-07
1.29909666641509e-07
1.66268649187812e-07
2.05127542144889e-07
2.39853785560231e-07
2.62604716270259e-07
2.64444515669862e-07
2.41476116193496e-07
1.96116408092403e-07
1.38800300723727e-07
8.49781367148626e-08
4.83192581767693e-08
3.44036135555063e-08
3.89707048327546e-08
5.2008795804331e-08
6.06044179718799e-08
5.68629848290669e-08
4.61173723434805e-08
2.63859247058949e-08
9.72187879315225e-09
7.16160884359886e-09
4.22192143386113e-08
2.02998605809423e-07
6.96621104516973e-07
1.9261369219011e-06
4.55728565909229e-06
9.52532049700912e-06
1.79231239382365e-05
3.07958787709297e-05
4.89245487558976e-05
7.26860949931123e-05
0.00010203740433495
0.000136603781138166
0.000175816965057293
0.000219048798641553
0.000265709433774637
0.000315302458961835
0.000367443776051541
0.000421855772425674
0.00047834728422198
0.000536786661940644
0.000597072056502173
0.000659100815272543
0.000722738428271501
0.000787786918056246
0.000853952337932056
0.000920811349260003
0.000987777244747431
0.00105406654210805
0.00111866815519512
0.00118031830208148
0.00123748566020892
0.00128837291747734
0.00133094249310378
0.00136297625479664
0.00138218096417215
0.00138635331976208
0.00137362008679945
0.00134277069692892
0.00129370958830206
0.00122806951476313
0.00115002657951627
0.00106744391356919
0.000993997834157639
0.000947673573564036
0.000957040656402414
0.00107341168907941
0.00140684159176
0.00211965907341495
0.00278559443147461
0.00229905917539567
0.00163563276159574
0.0012701618660504
0.00108944714301025
0.001043505927612
0.00107908247539946
0.00115781052401853
0.00127097769451557
0.00140722316653277
0.00154620485408899
0.00167169348326157
0.00177162652865034
0.00183756218336836
0.00185661495614354
0.00182563603993701
0.00173399514454954
0.00158499645896773
0.00138991300132934
0.00116172908195409
0.000915453732473778
0.000667223067109582
0.000433677410220914
0.000234603003715866
9.26379907500307e-05
6.57204789750225e-05
0.000309438174659268
0.00118986277896506
0.00340685000597372
0.00723073163351975
0.00951768322040047
0.00626611609778287
0.00433540213412147
0.0181067788265429
0.0300467052143125
0.0363768184299872
0.0330631716154316
0.0202794193032605
0.00582853440141664
0.00013124171163599
4.62267040638441e-05
3.27231692315446e-05
1.21804820146495e-05
3.61324353148302e-06
1.07596226642016e-06
4.1688614490139e-07
2.52062390482848e-07
2.20869711092557e-07
2.36391793967017e-07
2.78002127829449e-07
3.45357766158202e-07
4.42818841820886e-07
5.71492641061071e-07
7.27553923609382e-07
8.96666647692674e-07
1.05754758883344e-06
1.18975722274069e-06
1.26608399938319e-06
1.27369343557751e-06
1.21143060292872e-06
1.08811044860227e-06
9.13554623237181e-07
6.95691470212257e-07
4.49126151354384e-07
2.11713089885408e-07
5.35749093051649e-08
9.77578680517967e-09
2.64003452854218e-08
3.63574810626613e-08
2.20180984441763e-08
7.32023158429322e-08
3.25438929270555e-07
1.14655133135531e-06
3.30170626501266e-06
8.20809347323238e-06
1.79616087271637e-05
3.51921190730042e-05
6.23724530125331e-05
0.000100997600702089
0.000150987415629318
0.000210648299598158
0.000277172539189804
0.000347382741509209
0.000418390703176518
0.000487979971135881
0.000554700948515983
0.000617770645627983
0.000676886910850222
0.000732036199415141
0.000783334049052453
0.000830908569579994
0.000874822453897622
0.000915024171497816
0.000951319720544975
0.000983358609169803
0.00101063070835503
0.00103247271230642
0.00104808491193706
0.00105655995107367
0.00105692596529036
0.00104820645787986
0.00102949867545619
0.00100007083061689
0.000959476408359983
0.000907680608918838
0.000845190600278936
0.000773177484430648
0.000693575463933956
0.00060914358571696
0.000523481178768008
0.000441009798879658
0.000366972528705428
0.00030754101940879
0.000270257853671067
0.000265527499876946
0.00030853021694001
0.000429146126543526
0.000683438683587012
0.00119257524574906
0.00212167265041909
0.00309841534586917
0.00317291014534157
0.00281816271948046
0.002563287568542
0.002411274956831
0.00236199268658614
0.00237648240480641
0.00240686321387604
0.00243439485222411
0.00244718665406363
0.00243102033548892
0.0023775412340631
0.00228723501332397
0.00215836797627686
0.00201453928239784
0.00187322855788637
0.00172898622476482
0.00156577739532367
0.00137963107782981
0.00116839446849038
0.000935354888314206
0.000689208577655193
0.000451209671658605
0.000270456204447162
0.000234839661474567
0.000494704952627806
0.00130890282201494
0.00305169970178696
0.00592457384764945
0.00935050351908
0.0125629066904565
0.0106389923262985
0.00140951031651071
0.00691009431974015
0.0273438662852169
0.026434707061012
0.0287304924794351
0.0287137863478341
0.0151592566198627
0.00129304891955983
5.56434810718174e-05
7.04915156884305e-05
3.24357562773715e-05
1.12053157919307e-05
3.60384086762946e-06
1.40738182601456e-06
8.30746426456089e-07
7.17492459906468e-07
7.64892786767847e-07
8.9701432843868e-07
1.10822242610074e-06
1.41060310941829e-06
1.80614864578118e-06
2.28417289468975e-06
2.80916368989383e-06
3.33707747571141e-06
3.84400174771338e-06
4.28787324398378e-06
4.65665247009817e-06
4.94697547438137e-06
5.13438367436567e-06
5.13317053969822e-06
4.8092252580665e-06
4.04052750481279e-06
2.83094409752368e-06
1.50887724937726e-06
5.75030346821007e-07
1.82664790997096e-07
1.21416912424069e-07
3.53029702720778e-07
1.39460496140143e-06
3.89900535364042e-06
9.90402141851574e-06
2.22841119548693e-05
4.50604169132947e-05
8.22358719676421e-05
0.000136151744868379
0.000205835956851974
0.000286646982368125
0.000371440026434598
0.000452665927863496
0.000524319719701364
0.000582947293952185
0.00062761055426726
0.000659197668228273
0.000679569275335755
0.000690859921512871
0.000695039608643878
0.000693705804222301
0.000688029616892077
0.000678785494768361
0.000666416224956615
0.000651106527808757
0.000632853520730401
0.00061153071044814
0.000586946336596274
0.000558898029058796
0.00052722570114856
0.000491863423935382
0.00045288960531611
0.000410573066802058
0.000365410955774382
0.000318153035374925
0.000269806210870522
0.000221613470498372
0.000175003488668412
0.000131511186991902
9.26764867424728e-05
5.99386755169428e-05
3.45589162224962e-05
1.76282254138035e-05
1.02556030671912e-05
1.40866378595182e-05
3.24427332305261e-05
7.27693011706523e-05
0.000151005611685857
0.00029759585838708
0.00056657260384478
0.00106112903267059
0.00189802799345556
0.00277200865180589
0.00300343397089618
0.00286558561843184
0.00274121985026215
0.00263666862080981
0.00255131450710957
0.00245150598650276
0.0023069007999399
0.0021129007133228
0.00188783576036691
0.00165169858480434
0.00141818198941523
0.00119749530621452
0.00100559783808474
0.000860850260782798
0.000769723362206503
0.000713861504760803
0.000670112987993556
0.000628386146195647
0.000581149818311182
0.000527361196035722
0.000474364727645108
0.000452935749711392
0.000546176198227375
0.00088364078943014
0.00164009728196942
0.00305341314012582
0.00544788979455963
0.0091812048934658
0.0148826117296365
0.0227282743214878
0.0205388658477129
0.00537934799896012
0.00118689267235582
0.0150181698407638
0.0167196047994303
0.0195599720358025
0.0297433384600121
0.0250039988234856
0.00554562568716513
8.50365930052368e-05
9.24389899613173e-05
6.17544511509128e-05
2.6394303972613e-05
9.52308440091094e-06
3.8112782891022e-06
2.1996721481288e-06
1.86738932971465e-06
1.97958834043557e-06
2.31153258203173e-06
2.83455857846087e-06
3.57271778428162e-06
4.52494404305296e-06
5.66569017348133e-06
6.92752382270113e-06
8.25032399862825e-06
9.65413284779113e-06
1.11393878337584e-05
1.27525578638488e-05
1.45268872351376e-05
1.63683884126825e-05
1.79190181159296e-05
1.85702284127854e-05
1.76573135865944e-05
1.47202946771203e-05
1.02762741162527e-05
6.00473642573103e-06
3.2426839936168e-06
2.27936548076695e-06
3.63895206294899e-06
9.56685668443813e-06
2.12768537795441e-05
4.39169484006987e-05
8.19629198654037e-05
0.000139529173010657
0.000216382411253516
0.000306664415457988
0.000399665925888561
0.000483133822868814
0.000547224703013723
0.000587066892238724
0.000602973664427979
0.000598849239549409
0.000580077475178459
0.000551881609402156
0.000518472066568089
0.000482831640717988
0.000446852536777943
0.000411598805671377
0.000377568334251852
0.000344905530065631
0.000313557077364338
0.000283379918504755
0.00025421430612366
0.000225933072294817
0.000198475110546089
0.000171867878846602
0.000146241254005263
0.000121833114719971
9.89857691281715e-05
7.81316804436366e-05
5.97669452434809e-05
4.44116379220532e-05
3.25575158880928e-05
2.4605688708318e-05
2.07997153443707e-05
2.11632530162155e-05
2.54562735673469e-05
3.31709209290567e-05
4.35991982284954e-05
5.60223955379087e-05
7.01050279333234e-05
8.66381761634101e-05
0.000108904501929613
0.000145172768287058
0.000211488606414767
0.000336331028900543
0.000566298132720574
0.000980132850742626
0.0016553152077015
0.00235328898802816
0.00255277109502229
0.0024322947530778
0.00228468872525798
0.00211857801953418
0.0019394458945632
0.00172430413713151
0.00146666981705808
0.00118139121506589
0.000903278012447053
0.000658762051720611
0.000459393673707752
0.000313380338810069
0.000228701647760651
0.000208317312685591
0.000240351291891519
0.000301372345933074
0.000377869481425619
0.000463159762344869
0.000554278515627219
0.000656044660582186
0.000786341617562633
0.000995269210544634
0.0013970708463187
0.00213790449600726
0.00340508576087412
0.00549390117779236
0.00896904457037619
0.0148573994128127
0.0243639840923687
0.0350299399332388
0.0295582746585701
0.00874222534250896
0.000146621032959631
0.00772470833335977
0.0110628667586375
0.0128881899189038
0.0267979038701574
0.0317832647679918
0.0132923585268378
0.000693120563940878
5.17223128262404e-05
8.18172374043831e-05
4.79692050333878e-05
2.06663341731512e-05
8.72615334337822e-06
4.9507409215541e-06
4.11782117088836e-06
4.32874943815005e-06
5.01933731280803e-06
6.08820911550107e-06
7.56549776874892e-06
9.42793126304542e-06
1.16154075548523e-05
1.40200158458622e-05
1.66002199914229e-05
1.95007705197845e-05
2.28933216571341e-05
2.69757165855379e-05
3.18686741978874e-05
3.73523326684779e-05
4.25754682262482e-05
4.60704217889776e-05
4.62099249558211e-05
4.18077917356718e-05
3.31492851616648e-05
2.32502381880555e-05
1.54135863925655e-05
1.21408224676336e-05
1.69348754287507e-05
3.60358940170257e-05
6.80292062744814e-05
0.000119087705584906
0.000190777473825296
0.000280484066241138
0.000377626012370394
0.000466928282130776
0.000533636049320722
0.000568828400750586
0.000571686105156594
0.000547990158008836
0.000506552032810169
0.000455936246653593
0.000402703245078373
0.000351063546151217
0.000303288257648442
0.00026032314667657
0.000222325937530854
0.000189048610037725
0.000160078463951004
0.000134977575065651
0.000113357166320386
9.49131586617283e-05
7.94394559173353e-05
6.68284744666968e-05
5.70638419214207e-05
5.02073798401149e-05
4.63809381980554e-05
4.5742866931147e-05
4.84587331425159e-05
5.46661902225245e-05
6.44345671093932e-05
7.77206579343095e-05
9.43233725645572e-05
0.000113841294040096
0.000135638851192393
0.000158829043680905
0.000182284072210392
0.000204691418376527
0.000224683745784745
0.000241086954226469
0.000253362147717172
0.000262361989751104
0.000271553556125987
0.000289014615957674
0.000329483412468246
0.000417805114521733
0.000591779522645491
0.000910544501561908
0.00142933482255561
0.00196846816690619
0.00210614730551048
0.00196336357624782
0.00177388523762138
0.00155458164290414
0.00132352517743676
0.00107202012058506
0.000806721647478907
0.000549403188302711
0.000330389737982307
0.000167037329975653
6.59657234286231e-05
3.15868012106731e-05
6.53997187421111e-05
0.000160982804849651
0.00029843982415832
0.000457472802243005
0.00063383306738073
0.000823747163661338
0.00102902789687426
0.0012617213243279
0.00155292293832554
0.0019756966595528
0.00267942742245151
0.00384818873655601
0.00573267736763426
0.00879360551971716
0.0139419222076855
0.022713690406299
0.0358502557624957
0.0466942697228478
0.0363493750229334
0.0108160058671353
5.0124421840376e-05
0.00458357779618024
0.0080575209668638
0.00906625551553134
0.023143620165809
0.034899287038927
0.0220261604963932
0.00314984647410503
7.52198729151853e-06
6.77911366251898e-05
6.50486348593036e-05
3.68073064724244e-05
1.72351480792694e-05
9.74499414639106e-06
7.92101052067133e-06
8.22531100128244e-06
9.43328089171873e-06
1.12603726625074e-05
1.37080099441762e-05
1.66819832077429e-05
2.00513392513459e-05
2.36704815945095e-05
2.75991960985276e-05
3.21873766692884e-05
3.79437706283671e-05
4.52814208823216e-05
5.44015688397117e-05
6.48664066436694e-05
7.51767236482482e-05
8.28380408422566e-05
8.51883283147401e-05
8.04096418607444e-05
6.87499658131512e-05
5.39571309864588e-05
4.09133678211727e-05
3.59032838330258e-05
4.83558490677197e-05
8.87395570882888e-05
0.000147480177328761
0.000226921973206792
0.000320728461823172
0.000416502813070756
0.000496194806679167
0.000544414546256171
0.000554447422327009
0.000529863247958082
0.000481092635051905
0.000420128011449602
0.000356686178174352
0.000296937724698117
0.000243966247803685
0.000198795400793437
0.000161309656887946
0.000130878538679481
0.000106717128898563
8.80704590680268e-05
7.42950729756636e-05
6.48857196286833e-05
5.94745448787188e-05
5.7817275107523e-05
5.9773437080615e-05
6.52836460219984e-05
7.43449299786988e-05
8.69841116267891e-05
0.000103228974322659
0.000123076989575356
0.000146461708780879
0.00017321747086359
0.000203043693909409
0.000235470614713493
0.000269829073463894
0.000305227706853436
0.000340541923883355
0.000374420764411874
0.000405320865260815
0.000431583060600894
0.000451578065178626
0.000463962344995209
0.000468111829681137
0.000464811475221598
0.00045720380452757
0.00045250274853953
0.000463691217924177
0.000511740386592132
0.000627089253641781
0.000855549839682247
0.00123965527708648
0.00164515362040208
0.00172555776679125
0.0015714300951467
0.00136621288622169
0.00113291836774386
0.00089816887718561
0.000662020425535741
0.000435298139186324
0.000238511249962445
9.45375763591242e-05
1.49032236387453e-05
4.56026260239485e-06
6.6070754344487e-05
0.000197714484933047
0.000388699280459242
0.000616424152814186
0.000865086939871812
0.00113646036605941
0.00142855756692905
0.00174766757262338
0.00211403060432989
0.0025742179102187
0.00322871980107072
0.00427277639374295
0.005956096341137
0.00863020047158671
0.0129629492531286
0.0201801595712125
0.0320580527019967
0.0480558161146464
0.0564735551701622
0.0408802687556883
0.0119174722487416
5.78261866184875e-05
0.00321369138154319
0.00642656703189176
0.00704445296038421
0.0198706519378489
0.0353182355397565
0.0293480807736453
0.00819355542321756
0.000265338671756246
2.72643060692361e-05
6.17227985782172e-05
5.2023775330741e-05
2.91865012390536e-05
1.69195596716142e-05
1.34482103322879e-05
1.37347115100921e-05
1.55041721333091e-05
1.81024475882376e-05
2.14313451037e-05
2.52648779915425e-05
2.93889493766507e-05
3.36858179332391e-05
3.84564787721446e-05
4.43976561767839e-05
5.24179453993975e-05
6.31648911929262e-05
7.68538559922805e-05
9.27450009968892e-05
0.000108657634347736
0.000121120702666857
0.000126576062465151
0.00012277898087711
0.000110068198944733
9.30779532502574e-05
7.77388264925307e-05
7.47237464122068e-05
9.90566098930833e-05
0.000163094448869775
0.000245261997149278
0.000339649100907027
0.000431026784067937
0.00050157353247774
0.000535744820480541
0.000528817465195347
0.000487703919872365
0.000426029701628662
0.000357464317971274
0.000291728573830143
0.000233999800745127
0.000186132095560849
0.000148107215955617
0.000119075649845465
9.79442985554021e-05
8.36595847751116e-05
7.53213768490445e-05
7.22139942767747e-05
7.37996333431865e-05
7.9696468280538e-05
8.96513490109734e-05
0.000103511195080385
0.000121194404130491
0.000142662370180999
0.000167890747352557
0.00019684006511218
0.000229425491740598
0.000265485807991804
0.000304752045890854
0.000346816759329195
0.000391105307018282
0.000436850797339574
0.000483074797475005
0.000528576340666935
0.000571932442865398
0.000611514904703115
0.000645531305602155
0.000672104471793573
0.000689415221459413
0.000695946199579185
0.000690885132291219
0.000674718710992613
0.000649969489532649
0.000622764335334274
0.000604274989589765
0.000612082767003694
0.000671088053564251
0.000818152176255983
0.00108765381975697
0.00138063914502405
0.00141349697943626
0.00126174385515085
0.00106200758775975
0.000839963694609684
0.00062534505115628
0.000422801841625174
0.000244222992435931
0.000107684020719359
3.1187554593126e-05
2.41337472164114e-05
9.13646089142452e-05
0.00023495887031627
0.000451855352679832
0.000729151077073283
0.00104353557376732
0.00138333453388018
0.00175423051095789
0.00215574235616521
0.00259916768306041
0.00311471532299429
0.00376767870592448
0.00469149654476063
0.00613864876054407
0.00844283192646976
0.0120765854995097
0.0179142506243662
0.0274435343572203
0.0423991501191816
0.0594907537402699
0.0640560791539301
0.0434646176460781
0.0123600665209691
9.30905696328429e-05
0.00256902406850219
0.0055009878909229
0.00604040689214004
0.0168689686096159
0.034110878138728
0.0343405298366678
0.0151808978392053
0.00133213592279356
1.6356023080024e-05
3.93183025680385e-05
5.52596382263987e-05
4.12048622456767e-05
2.57048616266445e-05
2.01349931454669e-05
2.01590900168892e-05
2.23018215694968e-05
2.53358400593139e-05
2.90014311667613e-05
3.29491998936989e-05
3.69765440371203e-05
4.11590755046129e-05
4.6194081278584e-05
5.31954394919003e-05
6.34043068908819e-05
7.76322075722803e-05
9.6015642096122e-05
0.000117466317177386
0.000139180647417197
0.000156866281172888
0.000166236525756368
0.000164749726567207
0.000152917400393375
0.000136228132690319
0.000121951703035144
0.000125111311312695
0.000163041670295143
0.000246891033562798
0.000340368501995744
0.000428977222299495
0.000493133670179718
0.000518924428148771
0.00050255535259246
0.000453025367544587
0.0003859043097646
0.000315782872341147
0.000252081700077858
0.000199061975821831
0.000157625914810829
0.000127051601294762
0.000106056129548627
9.33128339879446e-05
8.76546685958661e-05
8.81322591434243e-05
9.40111982113966e-05
0.000104747528734545
0.000119956611556944
0.000139381238766255
0.000162860675812683
0.000190300882879085
0.000221645589960282
0.000256847742526394
0.000295840891661534
0.000338510326614323
0.000384664010432006
0.000434003596148891
0.000486096135951202
0.000540347542275985
0.00059597909645672
0.000652008320299163
0.000707235853410091
0.000760240245134293
0.00080938299915133
0.000852827679158624
0.000888580059696409
0.000914562587220208
0.000928746232848299
0.00092937422834509
0.000915327761363202
0.000886636115924991
0.000845051699171555
0.000795613654025469
0.000747782155395246
0.000716390509191242
0.000722296800563751
0.000796243927910689
0.000967170134552911
0.00116481685611978
0.00115892133049676
0.00101713292643166
0.000833396034329848
0.000633847695324392
0.000447710535195106
0.000282328614825939
0.000150247714671858
6.7982413770541e-05
5.09472850447231e-05
0.000108164863179704
0.000245092279057831
0.000464065518823157
0.000761512298999454
0.00112347474994808
0.00152693878611769
0.00196391164443648
0.0024427487901891
0.00296471832553682
0.00354718448788954
0.00423255005110365
0.00510855250568237
0.0063474682935884
0.00826882904680984
0.0113002334567765
0.0160439933258357
0.0235659913136398
0.0355646812894992
0.0528812094549721
0.0700829424056012
0.0677141879045426
0.0446138322766623
0.0123703987114574
0.00017163666254311
0.00225994675502981
0.00495441122580804
0.00560038821844038
0.0140108905884287
0.0321281349240643
0.0370433913843694
0.0227424980220604
0.00376152404716218
0.000129025057214022
2.4366960024152e-05
4.18900701689519e-05
4.65533256554317e-05
3.34777939746895e-05
2.63401926225624e-05
2.58617886709323e-05
2.79987038722083e-05
3.08970008361465e-05
3.41624932777313e-05
3.74570937704505e-05
4.07676152767704e-05
4.45023256219683e-05
4.97589694231218e-05
5.79649365134943e-05
7.05327017025604e-05
8.83405924713241e-05
0.00011140189444637
0.000138315156996345
0.000165802445904926
0.000188974706611852
0.000202990106141511
0.00020507093078524
0.000195878045936181
0.000181631032305593
0.000171108073125974
0.00018289504611003
0.000232318276449185
0.000326052215575208
0.000413423035450932
0.000476181376112806
0.000498669757497738
0.000478796881985695
0.000426219149333958
0.000357736169319065
0.000288574781376179
0.000228062336588032
0.000179859052394321
0.000144245145436261
0.000120054641064549
0.00010576137204105
9.9928097469621e-05
0.000101348170847749
0.000109061040499433
0.000122328782200166
0.000140602826574123
0.000163490805015647
0.000190725103336428
0.000222133198897495
0.000257609182902816
0.000297086007286006
0.000340508062889788
0.000387803757819498
0.000438857893821299
0.000493483892726787
0.000551396128923042
0.000612182716841653
0.00067527938347342
0.000739945497536017
0.000805243443037474
0.000870022353342498
0.000932907540428257
0.000992297148498655
0.0010463677119427
0.0010930916365173
0.00113027282695928
0.00115561275880026
0.00116682835738212
0.00116185343748711
0.00113916782134345
0.00109824635783855
0.00104005323361702
0.000968576285199969
0.000891760424827311
0.000822305979385244
0.000778210056949024
0.000786068645270634
0.000871306980149593
0.00098769580361887
0.000949780946634382
0.000820397689992021
0.000656182195317789
0.000482701604504258
0.000326723777827825
0.000197549207688308
0.00010860220124825
7.57188767771441e-05
0.000113089825492311
0.000230198517762417
0.000433458341581195
0.000725785066907668
0.0011034349232763
0.00155205300612641