/*--------------------------------*- C++ -*----------------------------------*\
  =========                 |
  \\      /  F ield         | OpenFOAM: The Open Source CFD Toolbox
   \\    /   O peration     | Website:  https://openfoam.org
    \\  /    A nd           | Version:  7
     \\/     M anipulation  |
\*---------------------------------------------------------------------------*/
FoamFile
{
    version     2.0;
    format      ascii;
    class       volSymmTensorField;
    location    "20000";
    object      tauij_B_bouss;
}
// * * * * * * * * * * * * * * * * * * * * * * * * * * * * * * * * * * * * * //

dimensions      [0 2 -2 0 0 0 0];

internalField   nonuniform List<symmTensor> 
15600
(
(6.71480503655093e-06 -6.10287122566365e-08 -3.1263455029236e-28 6.71555458149697e-06 -5.46358652150582e-30 6.71512742660116e-06)
(5.10578145703158e-06 -4.87908897037826e-08 1.92657134368877e-26 5.11595833822571e-06 -4.02249533538645e-27 5.11073099111148e-06)
(2.32060659777739e-06 -1.000807253358e-08 3.13684928321287e-28 2.32977709684978e-06 6.76198326986247e-28 2.32523826611675e-06)
(6.94974109409974e-07 4.25969150253349e-10 4.07233508482937e-29 6.9284105575359e-07 4.21811992917361e-30 6.93846204702348e-07)
(1.24487274239487e-07 2.37291671220253e-11 -1.43330826461676e-27 1.23819607589031e-07 -1.70550507605915e-27 1.24148067992792e-07)
(8.22319951955642e-08 -2.31038714060953e-11 -6.18904073039941e-29 8.19361209833796e-08 -6.8296533216588e-28 8.20821496519598e-08)
(6.01609903919242e-08 -2.11487816318023e-11 1.4708603313279e-29 6.00226966344696e-08 -2.97183978954346e-31 6.00910384569483e-08)
(2.45512980990745e-08 -8.25361063347584e-12 -5.24468548581813e-28 2.45104605035999e-08 -4.05724248565458e-28 2.45306185138524e-08)
(8.70875504979363e-09 -2.54012653001357e-12 -1.28896864167459e-28 8.69796218205555e-09 -6.31215592844037e-29 8.70330351816131e-09)
(3.70816205596353e-09 -9.34281295823919e-13 9.48662864528937e-29 3.70452582433762e-09 6.10541844884777e-29 3.70632706361523e-09)
(2.24565023494932e-09 -4.99477241363367e-13 5.5396118238593e-30 2.24379972261688e-09 -3.08157437966317e-30 2.24471835123851e-09)
(1.92605490097953e-09 -3.99613427178787e-13 9.30820596181168e-32 1.92459564360588e-09 5.01329885838652e-32 1.92532104672699e-09)
(2.02824252660595e-09 -4.07480055578453e-13 5.49896311756212e-29 2.02672391623261e-09 3.25947011339101e-29 2.02747965080051e-09)
(2.346707187604e-09 -4.68334266884823e-13 1.10613837192152e-28 2.34490408050948e-09 6.67769491462979e-29 2.34580228990801e-09)
(2.81766654079079e-09 -5.72192021634081e-13 -8.33053798805951e-30 2.81539357206949e-09 5.23474831893138e-31 2.81652668363338e-09)
(3.46435607552156e-09 -7.28471306528532e-13 -1.29004598358097e-29 3.46137355156555e-09 9.19635841645962e-31 3.46286093394026e-09)
(4.33560571935883e-09 -9.50626196979544e-13 2.99142858762552e-29 4.33159987617294e-09 4.08896739690886e-29 4.33359778850777e-09)
(5.46901924946137e-09 -1.24854811741892e-12 9.1179696471589e-29 5.46361585363087e-09 4.26410193202009e-29 5.4663106832576e-09)
(6.91047942598386e-09 -1.6246029108002e-12 3.41489472908345e-29 6.90327247370297e-09 -1.42737301835378e-30 6.90686596550328e-09)
(8.70735446725168e-09 -2.05835992058164e-12 -4.07245942166099e-28 8.6980089353412e-09 -2.64386018363079e-28 8.70266780440561e-09)
(1.09328810357802e-08 -2.4895586641772e-12 2.03829101952112e-30 1.09213007340071e-08 8.64234338969571e-31 1.09270728659664e-08)
(1.36168748993453e-08 -2.77916350415262e-12 -8.84019098893087e-29 1.36033934907515e-08 1.1851569057771e-29 1.3610117082351e-08)
(1.66718944378223e-08 -2.73023073974531e-12 2.80934960710071e-28 1.66575884497887e-08 2.2289633207775e-28 1.66647356654694e-08)
(2.00242025118766e-08 -2.15522635280397e-12 -7.36648751495269e-30 2.00111930006413e-08 6.4960613460085e-30 2.00177219752704e-08)
(2.34352299120212e-08 -9.46184508332512e-13 -1.5023867942991e-27 2.34269588146718e-08 -7.03896890095137e-28 2.34311757349277e-08)
(2.64952255584369e-08 7.2908500421776e-13 1.45960822327801e-27 2.64962078906006e-08 9.0253105350313e-28 2.64958851803372e-08)
(2.86285290473851e-08 2.22623093429714e-12 9.49134248603408e-28 2.8643168600248e-08 -1.26808368007902e-28 2.86361240052536e-08)
(2.91909172027051e-08 2.44089391944174e-12 -1.16180657761761e-27 2.92212423090646e-08 -5.83030937670372e-28 2.92064527748635e-08)
(2.7707734117262e-08 4.80348376916197e-13 2.87872581365283e-27 2.77508874681617e-08 3.24616895723123e-27 2.77297293041617e-08)
(2.40551859905872e-08 -3.25804816950163e-12 4.42125146570519e-28 2.41025512941219e-08 -1.40503473532843e-29 2.40792594211815e-08)
(1.89987600553158e-08 -6.99004935290742e-12 5.15533157629316e-26 1.90397222930704e-08 -8.82831653722922e-27 1.90195483048845e-08)
(1.40315801464542e-08 -9.0029670548226e-12 -1.48253644868703e-26 1.40600725622836e-08 -1.13401008027018e-25 1.40460291927934e-08)
(1.03342557700234e-08 -9.19759509183982e-12 -6.95248346548713e-26 1.03505194413871e-08 -7.24043478709725e-26 1.03425155385255e-08)
(8.40182090840336e-09 -8.91315632321031e-12 -3.54390534160824e-26 8.40929946664206e-09 3.55531783081068e-27 8.40562892396597e-09)
(8.02323711868682e-09 -8.92406686717254e-12 2.33516962385943e-28 8.02438618908732e-09 4.60788382684574e-29 8.02384488766376e-09)
(9.58974446845147e-09 -1.03402155693151e-11 -1.3042219029917e-29 9.5896727590889e-09 -1.0840063284557e-29 9.58973364712088e-09)
(1.24820427538914e-08 -1.29400485717998e-11 2.68780409545448e-30 1.2481870494026e-08 6.09701211333724e-29 1.24819875722988e-08)
(1.6506457120121e-08 -1.61270361438448e-11 -8.28408847697486e-26 1.65061164788955e-08 7.47070281065846e-27 1.65063168747541e-08)
(2.17923301431653e-08 -1.92091234596432e-11 -1.02781739252381e-25 2.17915197953963e-08 3.04016096320625e-25 2.17919701125832e-08)
(2.88663849210432e-08 -2.09466142257781e-11 1.56508984513857e-25 2.88646695025093e-08 3.16891045831553e-25 2.88655812007299e-08)
(3.82566872333078e-08 -1.91634282500923e-11 1.98803157037374e-25 3.8253367490462e-08 -1.62930003676254e-26 3.82551065916516e-08)
(5.04775179286973e-08 -9.86923278633868e-12 1.182544235726e-29 5.04715528687941e-08 -9.5320234280382e-29 5.04746520818785e-08)
(6.60120318018023e-08 1.28300305851256e-11 -1.38089322412986e-32 6.60020177241066e-08 3.29826367691188e-28 6.60072085712597e-08)
(8.53076499853242e-08 5.69187865820322e-11 -3.93259141197953e-29 8.52918917029975e-08 -1.53110034507606e-28 8.53000567363164e-08)
(1.08691897606133e-07 1.31955630635596e-10 -6.32018496771168e-31 1.08668573413462e-07 -1.38763547342466e-28 1.08680668306579e-07)
(1.36309480308384e-07 2.48191220798681e-10 7.04195043879323e-25 1.36276871964028e-07 -4.06944747443716e-26 1.36293802078004e-07)
(1.68118948790748e-07 4.15315726815456e-10 1.11605476187389e-24 1.68075674993485e-07 -1.88620797562258e-24 1.68098174496667e-07)
(2.039152302857e-07 6.41374612778056e-10 -6.8458590563726e-25 2.03860406477152e-07 -1.76510709461913e-24 2.03888950960594e-07)
(2.43371294576426e-07 9.32057239493054e-10 -1.27265529185427e-24 2.43304581460369e-07 6.24573742752324e-26 2.43339360833873e-07)
(2.86092321233396e-07 1.29054990477564e-09 1.74118524746228e-40 2.86013861924952e-07 2.28878739333573e-28 2.86054810698754e-07)
(3.31669342262219e-07 1.717872610552e-09 2.89635096681558e-40 3.31579622648438e-07 2.60016594702787e-28 3.31626491444777e-07)
(3.79723981124917e-07 2.21353974429605e-09 1.82878553545466e-24 3.79623657525462e-07 -6.05067205710727e-26 3.79676101897348e-07)
(4.29940294946673e-07 2.77634210021766e-09 3.61270550735951e-24 4.29830026467653e-07 -3.10228279844479e-24 4.29887693827197e-07)
(4.82084089766795e-07 3.40510391079541e-09 -4.41985884869353e-25 4.81964396998911e-07 -2.84820294231727e-24 4.82027000036601e-07)
(5.36012278518643e-07 4.09933220903772e-09 -2.60292044863754e-24 5.35883435638156e-07 6.4078653698691e-26 5.35950808542948e-07)
(5.91675649861139e-07 4.85973759181513e-09 -1.44897195843877e-29 5.91537607280376e-07 -1.79118364291974e-28 5.91609746091798e-07)
(6.49118102166198e-07 5.68864194296898e-09 3.56530749964435e-29 6.48970432294176e-07 2.34823201631118e-28 6.49047523167462e-07)
(7.08474676395338e-07 6.590306290787e-09 2.67371355816724e-40 7.08316534186482e-07 -1.28263277629528e-28 7.08398973767963e-07)
(7.69969974194067e-07 7.5712154432933e-09 3.0924024943521e-40 7.69800065268889e-07 1.37659907606943e-28 7.69888476808758e-07)
(8.33917914405437e-07 8.64035264119853e-09 1.1699305666245e-29 8.33734465342303e-07 -0 8.33829713207879e-07)
(9.00723397803981e-07 9.80949215025832e-09 -4.65709185972398e-30 9.00524125027564e-07 -1.11802381111675e-29 9.00627329314839e-07)
(9.70886198736707e-07 1.10935323237078e-08 -2.21736026442114e-29 9.70668274000362e-07 1.11296055485498e-29 9.70780826090907e-07)
(1.04500734996227e-06 1.25108881867954e-08 1.46087567699704e-29 1.04476736170109e-06 -1.85651199705328e-28 1.0448909409058e-06)
(1.12379830702821e-06 1.40839603223761e-08 1.281041614514e-39 1.12353221803943e-06 5.96308751546416e-28 1.12366880879676e-06)
(1.20809332601043e-06 1.58396962759881e-08 -1.0016388556407e-39 1.20779642920412e-06 -4.23407640052829e-28 1.20794833754962e-06)
(1.29886569302108e-06 1.78102609295012e-08 -0 1.29853256858192e-06 -4.61242458985616e-28 1.29870243566774e-06)
(1.39724876402367e-06 2.00338336732678e-08 -1.6703381782701e-28 1.39687324351967e-06 9.81337494822139e-28 1.3970640526961e-06)
(1.50456321717824e-06 2.25555521422993e-08 2.95886679150374e-29 1.50413836351939e-06 -1.50801160297424e-27 1.50435343559011e-06)
(1.6223525456023e-06 2.54286242498256e-08 3.55069680494126e-28 1.62187066308924e-06 2.2256300013919e-27 1.62211363141396e-06)
(1.75242967995923e-06 2.87156310836991e-08 -2.08509004426043e-28 1.75188237709733e-06 -1.24252368420471e-27 1.75215712962696e-06)
(1.89693898248247e-06 3.24900435728908e-08 1.68009525184547e-39 1.89631732398845e-06 6.91477291646481e-41 1.89662789198534e-06)
(2.05843991084351e-06 3.68379709357764e-08 -1.16983887149344e-23 2.0577347206437e-06 -5.77765109660057e-25 2.05808508107234e-06)
(2.24002215454445e-06 4.18601419801141e-08 -4.89504111167948e-23 2.2392245778072e-06 -3.99884152835335e-25 2.2396183129469e-06)
(2.44546804798632e-06 4.76740983813048e-08 -5.286987422188e-23 2.44457054570827e-06 3.62390611623579e-24 2.44501026654583e-06)
(2.67949033067276e-06 5.44166218160941e-08 1.06314050362559e-24 2.67848839803901e-06 5.01548867617591e-24 2.67897477996866e-06)
(2.94810130520661e-06 6.22464854056984e-08 1.72041818912427e-23 2.94699658258767e-06 1.05768430573597e-24 2.94752670982014e-06)
(3.25922382417866e-06 7.13474904274712e-08 9.86311553549227e-28 3.25802984668969e-06 5.27015155505445e-27 3.25859425911523e-06)
(3.62376954559217e-06 8.19333304815127e-08 6.33934688997756e-29 3.62252110507962e-06 -5.74297203189779e-27 3.6230988038124e-06)
(4.05776116132238e-06 9.42636816174705e-08 -2.90308016667399e-23 4.0565305848095e-06 -2.27014117128581e-24 4.05708049017951e-06)
(4.58704451509673e-06 1.08684772560058e-07 -9.37605320101912e-23 4.58598644274716e-06 -1.05941140793599e-23 4.58642729454169e-06)
(5.25873549018992e-06 1.25712025622013e-07 -3.09717188001619e-23 5.25819177859426e-06 7.37857200826987e-24 5.25835105136277e-06)
(6.18457601478223e-06 1.46690508191553e-07 4.50708213930914e-23 6.18521091606311e-06 3.89546032573187e-24 6.18472719943336e-06)
(7.37032603556974e-06 1.69204881430394e-07 -3.04772920232109e-27 7.37341916487084e-06 -2.88501602754581e-28 7.37161013137363e-06)
(8.74516850161521e-06 1.86208628587335e-07 1.07338749952599e-27 8.75413017976444e-06 -1.9506092940633e-26 8.74961345198077e-06)
(1.01989038413941e-05 1.81884230248508e-07 5.48775935103742e-26 1.02216857503409e-05 2.8808138470077e-26 1.02103268322018e-05)
(9.46585908344226e-06 1.14059651358138e-07 -3.12281210959525e-25 9.50989655070322e-06 1.0677537001308e-26 9.48679674917352e-06)
(4.20824898080139e-06 2.65761925825747e-08 -3.26778498918223e-26 4.23813713030643e-06 6.95619774619201e-26 4.22353396040335e-06)
(2.19079154557862e-06 8.33137977774432e-09 -3.88643626459079e-25 2.20756850764379e-06 8.37164883474094e-25 2.19916562642884e-06)
(1.40099264286831e-06 3.16817866620333e-09 -3.40592597450562e-25 1.41184561313753e-06 5.71742943455075e-25 1.40639178951398e-06)
(1.05550937145112e-06 1.41727549577357e-09 3.09523779372417e-25 1.06403562762545e-06 -2.84344590973075e-25 1.05973897248628e-06)
(9.47293982922522e-07 6.14050196026656e-10 8.76167917997386e-27 9.55467105127939e-07 -5.7823872492072e-26 9.51348602729868e-07)
(9.34049723957589e-07 3.37397747812037e-11 1.1731231365971e-25 9.42732123788119e-07 -1.37804661930664e-25 9.38359766700349e-07)
(9.69872877414281e-07 -5.24832636956203e-10 -1.19583154636976e-25 9.79608963596144e-07 1.07236506598196e-25 9.74715374780449e-07)
(1.05004317624186e-06 -1.13957373524093e-09 -7.95214582335173e-26 1.06146020285579e-06 1.60630227835085e-26 1.05573746599645e-06)
(1.17052881183524e-06 -1.8506561604237e-09 2.28700399769261e-25 1.18421839318521e-06 -9.99755563993737e-26 1.17737605129595e-06)
(1.32084815623056e-06 -2.65546866393795e-09 4.42881182534285e-26 1.33720452726075e-06 -3.2535434169884e-26 1.32905255404406e-06)
(1.49496961557852e-06 -3.52405198102742e-09 -2.04917669255363e-25 1.51425004502e-06 9.97155411407451e-26 1.50466632305852e-06)
(1.69121668334721e-06 -4.41810694301246e-09 -1.45255282899489e-25 1.71359119043034e-06 9.62424276162975e-26 1.70249681229642e-06)
(1.913107615139e-06 -5.30428873229285e-09 -5.66399869935827e-26 1.9387221753156e-06 -5.91169296785281e-27 1.92605160469557e-06)
(2.1653895307868e-06 -6.1397057381579e-09 4.16320268429144e-25 2.19429931816997e-06 -2.71016352049688e-25 2.18002925644278e-06)
(2.42386605364722e-06 -6.80041299416109e-09 6.3788228595538e-26 2.45542833821141e-06 7.94544338717611e-27 2.43987406754879e-06)
(2.63088797713836e-06 -7.12337532763804e-09 -1.72502720811672e-25 2.66334681177361e-06 1.35912728733978e-25 2.64737325161092e-06)
(2.77381706391122e-06 -7.10000439553351e-09 1.14319940205347e-25 2.80541866253225e-06 -7.77729352879111e-27 2.78988566897358e-06)
(2.85592571057319e-06 -6.77579185864196e-09 7.93225158276817e-26 2.88524214731313e-06 -1.44705145711847e-26 2.87084851089367e-06)
(2.88482980514489e-06 -6.21468770544161e-09 2.36834105298933e-25 2.9108544359685e-06 -1.9451771005249e-25 2.89809115241804e-06)
(2.87102272282526e-06 -5.48685688908927e-09 -1.06766030324417e-25 2.89317847605728e-06 2.06524878166974e-26 2.88232598476176e-06)
(2.83068513452306e-06 -4.66566439670972e-09 6.93289969386579e-28 2.84879012428863e-06 -1.21435867558345e-28 2.83993297197035e-06)
(2.7833337477664e-06 -3.81848332926809e-09 2.09768804305922e-25 2.79755106926081e-06 -1.07351786299321e-25 2.79060958600688e-06)
(2.81249514804621e-06 -3.04519830319993e-09 8.99024237968415e-26 2.82345962724042e-06 -3.01041914771152e-26 2.81812170551809e-06)
(2.99757796105197e-06 -2.29696025884014e-09 1.55405008110452e-25 3.00573933059656e-06 -1.05352229001502e-25 3.00178235961218e-06)
(3.40241522738104e-06 -1.40992534293511e-09 4.52399671738271e-28 3.40730912905231e-06 3.99959458895255e-28 3.40496314757435e-06)
(4.17427054318463e-06 -7.62872240631736e-11 -7.90297836454968e-26 4.17354537239929e-06 6.92513206844516e-26 4.17395475049424e-06)
(5.56288277159946e-06 2.26864434276321e-09 -2.76062740120285e-25 5.54945813950233e-06 1.77583378632059e-25 5.55609420895558e-06)
(8.62390277991403e-06 6.95839675444624e-09 -1.04610970796804e-26 8.57113888676999e-06 -4.27639147850008e-28 8.59693792995603e-06)
(1.57510137884873e-05 1.20472154968839e-08 9.72004433550338e-25 1.55516433690941e-05 -1.28949941313485e-24 1.56488400087806e-05)
(3.34587331621786e-05 -5.0921766789333e-08 5.26328226872063e-25 3.26163108964707e-05 1.21671499254763e-24 3.30247830170128e-05)
(4.19611955723151e-05 -4.60858442188884e-07 2.74222409811954e-25 4.03599283214798e-05 -5.60093953559568e-27 4.11421753153564e-05)
(2.551681826761e-05 -5.64249708301268e-07 1.11753842652747e-24 2.47934378121191e-05 4.27423594827287e-26 2.51506238591516e-05)
(1.35589317881366e-05 -2.50011809198125e-07 3.93901931949512e-27 1.34657001813697e-05 -6.0205567419866e-26 1.35123325657669e-05)
(8.3551439736264e-06 -8.80117430181111e-08 -4.94431271034577e-29 8.34805423920686e-06 -4.98973982899908e-29 8.35100621816169e-06)
(0.000215591894628145 -1.3491050640919e-05 -3.35704460905148e-27 0.000215054974682674 3.00693239862375e-28 0.000215305255996496)
(0.000164125277513438 -9.41633512210914e-06 3.97855766943482e-24 0.00016530807308067 3.44775634268538e-25 0.00016469828422161)
(7.52787942669542e-05 -2.61582762370876e-06 -7.65864528103899e-24 7.6891969469924e-05 1.72288155396622e-24 7.61174914348488e-05)
(2.39775209895977e-05 -1.24212688454572e-07 -3.45646205543937e-25 2.38980422006176e-05 -9.16066338190092e-27 2.39425645023172e-05)
(4.67383898227725e-06 -2.03841245792416e-10 -3.58891171212668e-25 4.56345038393119e-06 2.7401210050447e-25 4.61973700764847e-06)
(2.76885231287473e-06 -3.51491290688396e-09 -4.29142763227967e-25 2.71761891121807e-06 -2.56609947975199e-25 2.74357408200916e-06)
(2.04701007493259e-06 -3.51220623222157e-09 -3.10522525366544e-26 2.02174270926828e-06 1.94218973101001e-29 2.03454980959007e-06)
(8.82252695696174e-07 -1.53163046071627e-09 -1.82942282993137e-27 8.74222005292951e-07 5.12508572950952e-26 8.78280959471903e-07)
(3.21340376034097e-07 -4.97884605247223e-10 3.9174091942265e-26 3.19107828245726e-07 1.32203646229043e-26 3.2023563863353e-07)
(1.33908326501002e-07 -1.82923424365145e-10 -1.91839858858892e-27 1.33161859588275e-07 -6.00512138823465e-27 1.33538162236585e-07)
(7.74181018022627e-08 -9.50628604530455e-11 -1.14788781665928e-26 7.70523265357079e-08 -6.07492832006438e-27 7.72364717518469e-08)
(6.39550360524019e-08 -7.43419192080186e-11 1.31326611301197e-27 6.36772188680906e-08 -4.59798160624634e-29 6.3816905984292e-08)
(6.60861874523486e-08 -7.51000039199546e-11 -7.63005729551005e-27 6.58027512568788e-08 -6.17955652405093e-27 6.5945098125511e-08)
(7.58233138096692e-08 -8.6185600432986e-11 -8.82974847476813e-27 7.54895406940469e-08 -5.62204749580799e-27 7.56570084810535e-08)
(9.06483736520376e-08 -1.05408742552338e-10 -2.40958744753166e-27 9.02297402249028e-08 1.52689655312202e-28 9.04396611049957e-08)
(1.11104319921853e-07 -1.3418475225277e-10 3.75311056324425e-27 1.10557782720409e-07 -2.67548121142149e-28 1.10831755421523e-07)
(1.3874474192055e-07 -1.74758627316437e-10 2.68184902367474e-26 1.38013839960362e-07 1.17135501185832e-26 1.38380184922341e-07)
(1.74795261150898e-07 -2.28587657417829e-10 -5.80892527789421e-26 1.73812630507621e-07 -3.69557103185448e-26 1.74305206538722e-07)
(2.20728924809504e-07 -2.95311136708564e-10 -7.54317888919644e-26 2.19420635285191e-07 -3.47081652130542e-26 2.20076582923242e-07)
(2.78027810232102e-07 -3.69831331363511e-10 -5.32364526950535e-27 2.76329303039405e-07 3.79937781100947e-27 2.77181173088997e-07)
(3.49051588745914e-07 -4.39966049524484e-10 1.77393803505665e-26 3.46930627368241e-07 -1.8636596425576e-27 3.47994203795514e-07)
(4.35123060032314e-07 -4.8047677207039e-10 2.56471460858337e-26 4.32605511878364e-07 -3.14677380444898e-27 4.3386701604408e-07)
(5.33518694775526e-07 -4.5465045752521e-10 -5.07783301102584e-26 5.30741293566568e-07 -4.07730798781865e-26 5.32130306068801e-07)
(6.42014768560964e-07 -3.260665204747e-10 -4.30541625415979e-26 6.39269844371275e-07 5.06145569562783e-27 6.40636578307339e-07)
(7.53428877111568e-07 -7.12000165201941e-11 3.20735637400768e-25 7.51217470520319e-07 1.25205133665058e-25 7.5230622669718e-07)
(8.55077588765571e-07 2.85971032309783e-10 1.4263275501355e-25 8.5409753328413e-07 1.00028718495592e-25 8.54553703421682e-07)
(9.28830298120954e-07 6.35118591850682e-10 -2.73276616959143e-25 9.29836747339989e-07 3.78417268062426e-26 9.29279546078017e-07)
(9.53478013134938e-07 7.74193092950446e-10 -1.04442569693026e-25 9.56962959232375e-07 -3.30305449069618e-25 9.55149794337648e-07)
(9.12324713395734e-07 5.09605424759177e-10 -7.87016872270323e-27 9.18088895341741e-07 -1.09094767007937e-25 9.15128635106455e-07)
(7.99075830367966e-07 -1.52436130585893e-10 -3.62652837101122e-25 8.05966560289485e-07 4.9297829337168e-26 8.02449439196498e-07)
(6.35748404280004e-07 -9.15370013258542e-10 -1.62318976389661e-23 6.42074406688924e-07 2.4002518334965e-24 6.38858184357315e-07)
(4.70368931118944e-07 -1.40636760018408e-09 -3.77169802248946e-23 4.74935977738817e-07 -4.14332118140854e-23 4.72617545924656e-07)
(3.44041339305546e-07 -1.52081403235719e-09 -4.96632768036797e-24 3.46677504968342e-07 -4.3049082441651e-23 3.45340453265025e-07)
(2.77069072461047e-07 -1.4740885252788e-09 9.74656785619893e-24 2.78263707723106e-07 -1.0068945088228e-24 2.776540131296e-07)
(2.62537437514326e-07 -1.38917586692143e-09 -3.30209908860562e-26 2.62686020350564e-07 6.77871589559516e-27 2.62605504996982e-07)
(3.12318031882568e-07 -1.47423525834047e-09 1.27426555403549e-27 3.12243750778618e-07 5.39673363520877e-27 3.12275694498659e-07)
(4.06246942544158e-07 -1.70187879829554e-09 -1.00116662123276e-27 4.06097419606898e-07 -2.54888913801361e-27 4.06167139425292e-07)
(5.37221236941592e-07 -1.87441992571624e-09 2.46832860640686e-23 5.36917185091826e-07 -2.22941456122601e-24 5.37061830533851e-07)
(7.09216285143192e-07 -1.77473559391712e-09 2.96810027112056e-23 7.08573209591533e-07 1.14692057451691e-22 7.08887815964302e-07)
(9.39432115301886e-07 -1.04595493477046e-09 -4.51917795925706e-23 9.38170194738049e-07 1.64165751302375e-22 9.38790856658831e-07)
(1.2449675590551e-06 8.97105623004861e-10 -5.5529346840172e-23 1.24266785144622e-06 4.58477866319604e-24 1.24380491833558e-06)
(1.64248384075467e-06 4.98000794748094e-09 3.34271611431714e-27 1.63855485356799e-06 -1.83393651856252e-26 1.64050139948733e-06)
(2.14759887764059e-06 1.24580679871593e-08 4.40737782167291e-28 2.14129423024682e-06 8.03424970063222e-27 2.14442205972571e-06)
(2.77454035901693e-06 2.48897398335514e-08 -1.18175669023817e-26 2.76501310830979e-06 2.7406339676763e-26 2.76974204914623e-06)
(3.53408041813726e-06 4.39977933500839e-08 3.74692739798709e-27 3.52048152854922e-06 -8.56667714975285e-27 3.52723207005699e-06)
(4.43061120500893e-06 7.14650030204583e-08 -1.93348671263072e-22 4.41220566782812e-06 1.11398995595495e-23 4.42133963305847e-06)
(5.46260121763649e-06 1.08727971364158e-07 -2.72810077392302e-22 5.43886574457009e-06 -9.07881124423469e-22 5.45063841616157e-06)
(6.62323621556304e-06 1.56831348964304e-07 2.22034864432789e-22 6.59390686968493e-06 -1.14117617737726e-21 6.60844338973743e-06)
(7.90179291117941e-06 2.16371202609189e-07 3.2971856694416e-22 7.86685658174567e-06 -1.62543612411288e-23 7.88415719322131e-06)
(9.28540709307037e-06 2.87532931695628e-07 2.92324384098649e-26 9.24504590089614e-06 2.75019601738795e-28 9.2650143468588e-06)
(1.0760810332653e-05 3.70194119841128e-07 -1.22232866425399e-26 1.07153211535253e-05 -3.97261133901729e-26 1.07378054103529e-05)
(1.23157688707194e-05 4.64057489059999e-07 -4.57312941224478e-22 1.22654788688226e-05 1.51022125280234e-23 1.22903134849494e-05)
(1.39400999802737e-05 5.68782736387947e-07 -7.88217292166311e-22 1.38852928994327e-05 -2.16201419381349e-21 1.39123357268114e-05)
(1.56262825431391e-05 6.84099333604602e-07 2.38807467278333e-22 1.55671420707759e-05 -2.47307096861268e-21 1.55963022821733e-05)
(1.73697474471801e-05 8.09893687073971e-07 6.29105685972059e-22 1.73063178569204e-05 -1.55367074449189e-23 1.73375752745446e-05)
(1.91689577267444e-05 9.46272283804133e-07 1.50355513198683e-26 1.91011185498506e-05 -1.33649746973475e-27 1.91345359788128e-05)
(2.10253769752491e-05 1.09360622071455e-06 5.50087030573602e-27 2.09528274253264e-05 1.53512147953887e-27 2.09885581874314e-05)
(2.29434007604675e-05 1.25256344609778e-06 -1.06100415328623e-26 2.28656499677325e-05 -7.33100345495498e-28 2.29039426368739e-05)
(2.49303014626669e-05 1.4241343602002e-06 1.14464018607441e-26 2.48466615105038e-05 1.14066831546752e-26 2.48878633757359e-05)
(2.69962165405541e-05 1.60965508973632e-06 -8.0165289946137e-27 2.69057963327279e-05 -1.12244845271423e-26 2.69503565933844e-05)
(2.91541979516832e-05 1.81083147774438e-06 -1.52591972948078e-27 2.90558968617115e-05 -1.31583589138453e-26 2.91043701022062e-05)
(3.14203323987258e-05 2.02976565967783e-06 1.63393406336952e-27 3.13128334162956e-05 -1.18120398919006e-26 3.13658835346614e-05)
(3.38139404013924e-05 2.26898627669521e-06 5.44600149314111e-27 3.36957031333794e-05 2.64143151017117e-26 3.37541075899094e-05)
(3.63578627536315e-05 2.53148268569307e-06 2.99093233117169e-26 3.62271172640087e-05 3.58251754259121e-27 3.6291771220469e-05)
(3.90788475326202e-05 2.82074302751573e-06 -6.49871537203057e-26 3.89335907211465e-05 -3.3320961752562e-27 3.90055103060535e-05)
(4.20080571582624e-05 3.14079551348216e-06 1.75807613474725e-26 4.18460543008787e-05 -6.91009432708145e-26 4.19263778043554e-05)
(4.51817249228616e-05 3.49625181743189e-06 6.91368282503165e-26 4.50005202942139e-05 7.70725686051918e-26 4.50905054872256e-05)
(4.86420040909812e-05 3.89235086844165e-06 -3.7347891494481e-26 4.84389465448372e-05 2.12505284364119e-26 4.85399613927875e-05)
(5.24380719030304e-05 4.33500056331593e-06 6.84340994782784e-26 5.22103643067553e-05 -2.22591735331205e-26 5.23238669078966e-05)
(5.66275770876453e-05 4.83081370757163e-06 -1.4038476250623e-25 5.6372363260217e-05 -1.88805148917451e-25 5.64998645501669e-05)
(6.12785606044418e-05 5.38713285069268e-06 4.74091381264468e-26 6.09930711772859e-05 1.92362579136278e-25 6.11360701877027e-05)
(6.64720412604957e-05 6.01203615732027e-06 2.30160974038319e-21 6.61538330422757e-05 1.13672902866374e-22 6.63137081986156e-05)
(7.23055639027289e-05 6.71431409966668e-06 9.21086527071579e-21 7.19529091988562e-05 1.33146413526106e-20 7.21307384452727e-05)
(7.88981885242719e-05 7.50340444611468e-06 9.5929586073866e-21 7.85107070816279e-05 2.88336745181253e-20 7.87069711784962e-05)
(8.63977609582057e-05 8.38927176224323e-06 -6.25397252186728e-22 8.59774557453188e-05 1.56446190563398e-20 8.61915464214543e-05)
(9.49921456736003e-05 9.38224573456044e-06 -3.44985340080115e-21 9.45451361993452e-05 -2.13592711827418e-22 9.47745316938881e-05)
(0.000104927778960025 1.04929409094771e-05 2.83374291364211e-25 0.000104467225944991 1.67032449470418e-26 0.000104706083179798)
(0.000116542301042553 1.17325241841893e-05 -1.07954852858251e-24 0.000116093399877968 -1.15060901881193e-24 0.000116330060586019)
(0.000130328023395108 1.31139157336951e-05 5.37007687388579e-21 0.000129937314227168 4.2112662888566e-22 0.000130149669624198)
(0.000147071780518257 1.46569818955284e-05 1.7140411763565e-20 0.000146825949029603 3.40731911742871e-20 0.000146972664354511)
(0.000168187935588071 1.6409120150781e-05 5.8050832213545e-21 0.000168249511811168 3.87860745503807e-20 0.000168252699340951)
(0.000196774742920973 1.85239942879691e-05 -8.95854801201055e-21 0.000197455190322025 -7.75942735032346e-22 0.000197159290730072)
(0.000230093914729486 2.04827302923489e-05 -0 0.000231995128075547 1.93099673951178e-24 0.00023110142132888)
(0.000264986853850331 2.16555793485608e-05 -1.84476244594549e-38 0.000269279752109699 3.52726638232981e-24 0.00026725926946451)
(0.000291792610829697 2.12281139797064e-05 -7.27013221026686e-24 0.00030012656080373 -7.80323788497584e-24 0.000296065959222208)
(0.000258595442749988 1.58481895187741e-05 5.50097379209992e-23 0.00027015193229843 -1.00397861859642e-23 0.000264152104472444)
(0.000123746844251628 5.30648777305365e-06 5.46963323262334e-23 0.000131052799989698 1.45446197480428e-22 0.000127447172349985)
(6.63445962769067e-05 1.9043771567696e-06 5.93090959287722e-23 7.04362608414415e-05 1.67671430168178e-23 6.83972602528514e-05)
(4.31941989796068e-05 8.07122294260257e-07 -2.73292952595866e-23 4.59153367456174e-05 -1.24612348026601e-25 4.45661425882564e-05)
(3.31140963545452e-05 3.89612004990832e-07 -7.4096180903578e-23 3.52342850829955e-05 3.68833367678527e-23 3.4183290640248e-05)
(3.00488687759251e-05 1.91542130534301e-07 2.78987013098522e-24 3.20206768814867e-05 2.00306492173207e-24 3.10431270319703e-05)
(2.98327944921784e-05 5.47081322682142e-08 -1.79448087237952e-23 3.18450726767422e-05 2.28510466352469e-23 3.08461409187607e-05)
(3.11290529300974e-05 -6.71069927487187e-08 2.98276135708085e-23 3.32841255835229e-05 -1.94480481716783e-23 3.2212777585103e-05)
(3.3824274838042e-05 -1.9113229320558e-07 -2.81395196629144e-23 3.6225877627026e-05 2.10064255082611e-23 3.50293481906033e-05)
(3.77745853438291e-05 -3.26338157501676e-07 1.31390043296596e-23 4.05125444772549e-05 -2.70310414466708e-23 3.91444863285923e-05)
(4.26507916538363e-05 -4.72890608904403e-07 2.99115909671558e-24 4.57748981382289e-05 -3.55441588867597e-24 4.42092590255414e-05)
(4.82807011616808e-05 -6.25800428494989e-07 -2.21250277445499e-23 5.18160736311367e-05 2.86926626491286e-23 5.0039003751671e-05)
(5.46310475086064e-05 -7.79247152967368e-07 1.95068062441993e-23 5.85887691162626e-05 -1.89760960035562e-23 5.65936122664651e-05)
(6.18241267861609e-05 -9.28866912679237e-07 -7.78706732002321e-24 6.62094542296019e-05 -1.02232740549655e-24 6.3992689950387e-05)
(6.99569143922402e-05 -1.06908833906323e-06 -8.31060372599038e-23 7.47586325592232e-05 3.3079118650228e-23 7.23247912541682e-05)
(7.8043193588735e-05 -1.1776730036154e-06 9.12920045297473e-24 8.31396142729385e-05 9.8707280089468e-25 8.05499714888022e-05)
(8.44284974422936e-05 -1.22846327571661e-06 -2.17468010556735e-23 8.95536685590407e-05 7.01150347916878e-24 8.69447351955794e-05)
(8.88667749503172e-05 -1.22127315099373e-06 2.67357165662081e-23 9.37715448888358e-05 -3.65512020642695e-23 9.12707835884368e-05)
(9.14729909406032e-05 -1.16403902105629e-06 9.13528535834532e-23 9.59609095348178e-05 -6.97112071242545e-23 9.36692888932783e-05)
(9.24769612389177e-05 -1.06726477115473e-06 -4.11432806957973e-23 9.64140056559491e-05 2.07011858914053e-23 9.44007012317664e-05)
(9.22035224486569e-05 -9.42568089218487e-07 2.4945609856744e-23 9.55170514968603e-05 -1.18701250602959e-24 9.3819923508497e-05)
(9.11650226567185e-05 -8.0211349472404e-07 -5.92899234995061e-23 9.38392359606383e-05 3.07478699922713e-23 9.24668320883128e-05)