/*--------------------------------*- C++ -*----------------------------------*\
  =========                 |
  \\      /  F ield         | OpenFOAM: The Open Source CFD Toolbox
   \\    /   O peration     | Website:  https://openfoam.org
    \\  /    A nd           | Version:  7
     \\/     M anipulation  |
\*---------------------------------------------------------------------------*/
FoamFile
{
    version     2.0;
    format      ascii;
    class       volVectorField;
    location    "20000";
    object      U;
}
// * * * * * * * * * * * * * * * * * * * * * * * * * * * * * * * * * * * * * //

dimensions      [0 1 -1 0 0 0 0];

internalField   nonuniform List<vector> 
15600
(
(0.0402135454325288 -0.000261759025497803 5.13367407486364e-24)
(0.046632642837673 -0.00293720703746828 1.06027314546123e-20)
(0.0193071074453196 -0.00551775499116631 1.35931811549943e-20)
(-0.0133055794311829 0.00618073412333445 -1.61685073868319e-22)
(-0.0153382827302447 0.0130094856830903 1.39165455668385e-22)
(-0.0094810708105494 0.0105269991884134 -3.68157967680728e-19)
(-0.00591634969916489 0.0076233968475219 4.86201580259781e-23)
(-0.00420133203278866 0.00592257441104561 -4.02943646388823e-19)
(-0.00301191103957933 0.00455138975154518 4.21800836677733e-19)
(-0.0022856068368531 0.00361121178538571 4.40879170323982e-19)
(-0.00182821154651072 0.00297767466040027 7.2883505511701e-22)
(-0.00159973341673178 0.00263347427595066 0)
(-0.00150049550197982 0.0024545924335522 -1.48037067039682e-22)
(-0.00146345688130038 0.00236636514101365 -5.5376071132875e-19)
(-0.00146757265705655 0.00234487125974341 1.13578625957375e-21)
(-0.00150347879786266 0.00237220004574722 0)
(-0.00155468267758451 0.00242301584055999 6.44879471625569e-19)
(-0.00160681596601767 0.00247593744962814 6.74771573959805e-19)
(-0.00164330183812512 0.00250652422442811 -2.76060832537469e-21)
(-0.00164008082360244 0.00248145833865858 2.85161497765411e-21)
(-0.00156603774078579 0.00235726738130031 5.96689398251985e-21)
(-0.00140426618877334 0.00210226606463959 -6.16175345458215e-21)
(-0.00114910967392282 0.00171049937127165 8.32067769048209e-19)
(-0.000789356038047933 0.00118302644201076 -6.72909443967741e-21)
(-0.000319886101840324 0.000537136117122231 9.12870895173994e-19)
(0.000251224282551058 -0.000184366623517945 1.89748796524202e-18)
(0.000896172343639435 -0.000907280785895722 0)
(0.00156560106162128 -0.00153009559998945 -1.07344085627762e-18)
(0.00219339800155913 -0.00195457119595632 1.15230920591449e-18)
(0.00269968652392666 -0.00211266791621905 -9.46286530138386e-21)
(0.00300996729563881 -0.00197633355154499 0)
(0.00310489157097348 -0.0015974405592672 -1.82250256964389e-16)
(0.00302639875560162 -0.00107809044076542 -2.18583896622572e-16)
(0.00293253770236704 -0.00054706783477953 1.51641220443421e-18)
(0.00294801216935739 -7.01370670327209e-05 -8.43898795014068e-20)
(0.00295920331615871 1.7902659011688e-05 1.20994609008674e-20)
(0.00291840567197689 1.58356716888702e-05 -1.21001330029374e-20)
(0.00284316683424744 1.09983773260593e-05 -4.43030368672229e-32)
(0.00269539666039731 8.77721201180002e-06 2.6344421568495e-16)
(0.00240952920035064 6.53842212192929e-06 2.72802235069681e-16)
(0.00196457955025057 5.90038510748823e-06 0)
(0.00132503289990254 6.64008117052512e-06 0)
(0.000474313844843277 9.2413323937721e-06 -1.22986693364378e-20)
(-0.000592888134253033 1.33972751521756e-05 2.70317977374331e-23)
(-0.00186216788893563 1.87229089566286e-05 1.22191595791892e-20)
(-0.00330485534922313 2.46380264385344e-05 0)
(-0.00488145910155349 3.05591424975811e-05 -2.71213532267241e-16)
(-0.00654860513250831 3.5968230409601e-05 -2.74544336043193e-16)
(-0.00826447925042465 4.05135940289782e-05 0)
(-0.00999306813942796 4.40142538007052e-05 2.14073513273693e-32)
(-0.0117062985576283 4.64387217795969e-05 -4.25645062559202e-32)
(-0.0133845848642103 4.78593310151304e-05 0)
(-0.0150162219439571 4.84089049665759e-05 -2.52850362034757e-16)
(-0.0165962040390377 4.82454638173358e-05 -2.54944290270454e-16)
(-0.0181248638223051 4.75288820654039e-05 -8.90086831002477e-24)
(-0.0196065899936985 4.64072649741819e-05 2.88359696356178e-21)
(-0.0210487401746896 4.50103558720483e-05 4.20840793274091e-32)
(-0.0224607812024733 4.3447028529495e-05 2.1085420149835e-32)
(-0.0238536383332882 4.18047947431633e-05 0)
(-0.0252392141740718 4.01499330036031e-05 0)
(-0.0266300328815082 3.85274570807821e-05 -7.36540758387774e-22)
(-0.0280389683905296 3.69605178992287e-05 7.33932903190701e-22)
(-0.0294790218196383 3.54490944952434e-05 0)
(-0.0309631199156938 3.39679362453444e-05 -4.35288172369588e-32)
(-0.0325039117744665 3.24637598928599e-05 0)
(-0.0341135449297791 3.08517326698258e-05 0)
(-0.0358034044202039 2.90113123497879e-05 0)
(-0.0375837990591482 2.67814982850688e-05 6.27627773224336e-21)
(-0.0394635769292526 2.39555133909857e-05 -6.24691833105844e-21)
(-0.0414496467200918 2.02749304044532e-05 4.65013793285342e-32)
(-0.0435463734289045 1.54234168948703e-05 0)
(-0.0457548006084387 9.02012411393337e-06 0)
(-0.0480716048579191 6.11095318289989e-07 2.9838486273023e-16)
(-0.0504876328335002 -1.03412414813168e-05 6.04408502100413e-16)
(-0.0529859036970387 -2.44605864299897e-05 3.06401114021646e-16)
(-0.0555387428433375 -4.24665148622033e-05 -5.28703260232257e-32)
(-0.0581025860140939 -6.52605893577667e-05 0)
(-0.0606097520576135 -9.39094825688886e-05 -1.58890486995799e-20)
(-0.0629617241945778 -0.000129098823153091 1.58076651954305e-20)
(-0.0650133512477425 -0.000171445054758326 3.75596691386782e-16)
(-0.0664939620087305 -0.000224881555020615 3.82550689005325e-16)
(-0.0669322927474957 -0.000294308933680069 0)
(-0.0658523518641909 -0.000364533954186897 0)
(-0.0623601567846092 -0.00041812729793173 2.17034153509444e-20)
(-0.052518300704438 -0.000679215795023659 -2.19894483901831e-20)
(-0.0329755317960982 -0.0019972951854422 -2.45118713671739e-19)
(-0.0155158866573179 -0.0033890681371434 1.703409797735e-18)
(-0.0105900013516324 -0.0044121972988085 0)
(-0.00827069980426317 -0.00508928470556295 3.07039441688264e-18)
(-0.00781763551637373 -0.00621692055144029 2.26613694188009e-20)
(-0.00822392658581351 -0.00780833462858278 -2.6743253536089e-18)
(-0.00910248840986271 -0.00985471279478607 2.4908940913572e-18)
(-0.0103665079627939 -0.0123727041881379 -2.30780243329525e-18)
(-0.0120412377446081 -0.0153647040798704 2.13357959877502e-18)
(-0.0139316471841476 -0.0185753971621398 1.58941889692929e-20)
(-0.0158099799405224 -0.0217040168301283 -1.91986175895548e-18)
(-0.0175593568095304 -0.0245563271885327 -1.25993664931702e-20)
(-0.01911539583565 -0.0270006655546135 -1.8058520192665e-18)
(-0.0204518532086442 -0.0289498571189773 -1.39276351812145e-20)
(-0.0214709235244611 -0.0302628413598869 1.82100975371975e-18)
(-0.021934537456978 -0.0307408331507184 -7.41875897255343e-21)
(-0.0217111501075172 -0.030376016409875 -1.87988384489974e-18)
(-0.0209380508212345 -0.029348825617653 -1.92261859113641e-18)
(-0.0197213694204452 -0.0277737865237701 -1.97191041592451e-18)
(-0.0181527753019051 -0.025743348694811 0)
(-0.016313803875675 -0.0233321056659992 2.01042316828919e-18)
(-0.0142585591300613 -0.0205919014414579 0)
(-0.0120922386423903 -0.0176103437121099 2.00573441452821e-18)
(-0.00989312465009271 -0.0144019983698725 -1.99558578043653e-18)
(-0.00749095897864925 -0.0106830161624898 1.98780055154221e-18)
(-0.00452244449347791 -0.00608048898402615 -9.83529400379353e-22)
(-0.000349475656115213 -2.46154146529477e-05 1.99939305682502e-18)
(0.00589245565364961 0.00814035219731372 -1.98548853163358e-18)
(0.0168991446101219 0.0202901874567065 2.41560949866434e-22)
(0.0372953834856537 0.0381325566025066 -1.79936542753194e-18)
(0.0802503781238877 0.0635970677010543 1.44364191730827e-18)
(0.141106121459611 0.0730674472420337 0)
(0.15495268672086 0.0400037176926018 1.60463394474688e-21)
(0.0921459148672373 0.00604537073167652 -1.05469302056778e-22)
(0.0416029329284726 -5.8596926885155e-05 1.0981389293627e-22)
(0.138934628048345 -0.000357580800221793 0)
(0.142877189042865 -0.00712948422282579 5.541737899958e-22)
(0.0770027310576445 -0.0151614931279995 -2.02941172120535e-20)
(-0.0162120945302957 0.0129075684671448 0)
(-0.0376280501781849 0.035055716830484 5.05137400473719e-19)
(-0.0263022033337872 0.0303492961928682 5.58329271652803e-19)
(-0.0167712816938909 0.0224959511360603 -2.73000366052825e-22)
(-0.011948571191017 0.0176268536434813 1.23391226955947e-18)
(-0.0087163244606987 0.0136877459666197 -7.74636044285804e-23)
(-0.00667906981396279 0.0109097443238344 -1.35852532013571e-18)
(-0.00538294425451921 0.0090101673566529 9.03497661278561e-22)
(-0.00470786290066761 0.00795084630754862 -1.48288286847115e-21)
(-0.00441632879372968 0.0073952904356582 -8.00901656250322e-19)
(-0.00431370618569336 0.00711707996569522 -8.48906818396619e-19)
(-0.0043259088973665 0.00703816049454074 -1.74671085162291e-21)
(-0.00442513821480727 0.00710536877284096 0)
(-0.00456875560498217 0.00724514348658683 -9.93872415931654e-19)
(-0.00471595510628193 0.00739375185998591 -1.02632571337112e-18)
(-0.00482312608592985 0.00748093363236302 -4.19667116692077e-21)
(-0.00483005422016184 0.00741399695896092 1.1302836664581e-18)
(-0.00466247089779121 0.00707444795870306 -9.05908876426396e-21)
(-0.00428090467232194 0.00637228255890039 0)
(-0.00367244786973921 0.00528654772579585 -1.26157078209831e-18)
(-0.00281011474988174 0.00381910997496314 0)
(-0.00167450476128572 0.00201402820342963 -1.08317183041254e-20)
(-0.000269321706274043 -1.86304174236073e-05 -2.9035557557164e-18)
(0.00136427412582447 -0.00208626671237493 1.19762279801619e-20)
(0.00313492253576058 -0.00391604239609889 1.60379873487099e-18)
(0.0048981480266063 -0.0052285589006931 -3.41259351390057e-18)
(0.00645533166035975 -0.00581497295335792 -1.42201398256529e-20)
(0.00758455233314025 -0.00556537319823737 1.93776525466028e-18)
(0.00815250040166937 -0.00458409071256491 2.87708276783763e-16)
(0.00817469194699503 -0.00314402717014303 3.10520995559639e-16)
(0.00799358536422145 -0.00162917476616278 -1.11827956636345e-18)
(0.00786071510006266 -0.000249907971319882 9.08204686183111e-23)
(0.00761375157039402 1.45998553373179e-05 8.50732817981179e-23)
(0.00725957207754029 2.9986810072392e-05 -3.61584575721644e-20)
(0.00674363143114983 4.87087691324546e-05 1.81466910380578e-20)
(0.00594488481370128 9.33644638358919e-05 -4.0717984289887e-16)
(0.00469038519187963 0.000149907438862884 -3.96113941662326e-16)
(0.00291643811420568 0.000219480126155757 -1.84971628315543e-20)
(0.000543380311909511 0.000297866416020655 1.85712762308166e-20)
(-0.00244880675903541 0.000380762116466743 -3.68392984623957e-20)
(-0.00603921295238099 0.000461243266034783 1.81018985806976e-20)
(-0.0101527767944537 0.000532982886356186 -3.22154729066076e-32)
(-0.0146799079241137 0.000591005325929257 8.64675513654345e-21)
(-0.0194915836451911 0.000632633348261861 3.89499334801103e-16)
(-0.0244596426671063 0.000657530772030154 3.73011558676451e-16)
(-0.0294707940719988 0.000667305126077937 1.61958677587961e-20)
(-0.034435318412318 0.000664763263654997 -7.94138236942167e-21)
(-0.0392896372904227 0.000653194781890539 -7.78200957120348e-21)
(-0.0439948861711957 0.000635820385148179 7.65460702287451e-21)
(-0.0485331717346732 0.000615467770773239 3.32112010419719e-16)
(-0.0529030980777887 0.000594437191125038 3.24081705553668e-16)
(-0.0571154768463466 0.000574496842738495 3.6821764211365e-21)
(-0.0611896929111451 0.000556947127500082 1.49371321441955e-23)
(-0.0651508468428243 0.000542710466215293 -3.59988477729971e-21)
(-0.069027618125027 0.000532420224612376 1.797067213483e-21)
(-0.0728507109861205 0.000526496127028425 -1.77467799696914e-21)
(-0.0766517287578609 0.000525201926532767 0)
(-0.0804623351748757 0.00052868568719569 8.86415605228904e-22)
(-0.0843135850531783 0.000537004975505126 -8.75433719218843e-22)
(-0.0882353317975842 0.000550139822432639 1.76460667719371e-21)
(-0.0922556404192003 0.000567995975956892 -5.26711460349411e-21)
(-0.0964001504493608 0.000590400357420946 3.47896644798793e-21)
(-0.100691343748237 0.000617090065344857 3.52500335174577e-21)
(-0.105147678446977 0.000647695712633201 -7.00594059784328e-21)
(-0.109782551184755 0.0006817190342685 3.47949572370826e-21)
(-0.114603044002416 0.000718503702351705 -7.10058083350708e-21)
(-0.119608398964216 0.000757197077824862 6.99461095141883e-21)
(-0.124788140164184 0.000796698626529559 0)
(-0.130119716705723 0.000835586208171266 0)
(-0.135565456151445 0.00087200411338652 -3.13329069202891e-16)
(-0.141068525848937 0.000903493991581048 -6.40904596600648e-16)
(-0.146547489219285 0.000926739540693128 -3.29281928027961e-16)
(-0.151888534550233 0.000937120268912422 1.49010428432776e-20)
(-0.156933638275547 0.000927958074521615 -1.58419399284299e-20)
(-0.161464102196639 0.000889624201743011 3.19959462021581e-20)
(-0.16517885098506 0.000807755701429421 -1.61892111265549e-20)
(-0.167648089430067 0.000656414632468508 -3.72314304360633e-16)
(-0.168214418714384 0.000385690172004681 -4.047536571412e-16)
(-0.165922617236066 -8.03268402082908e-05 0)
(-0.159527345102136 -0.000837332390853696 0)
(-0.146689622011733 -0.00212198039784964 0)
(-0.122560781742894 -0.00478540276369888 0)
(-0.0854784801425562 -0.00993230070554309 2.08357604769695e-19)
(-0.0514273830005782 -0.013985603502955 -1.93848887475526e-18)
(-0.0390286116932874 -0.0165243048284331 -4.24715762947462e-18)
(-0.032948693159131 -0.0189349728220136 -8.35493948119957e-18)
(-0.03149868427566 -0.0225960167288019 3.98311510039682e-18)
(-0.0322817615163284 -0.0275709440707798 3.6987836877315e-18)
(-0.0343162087937289 -0.0337770482182862 -5.35284422603342e-21)
(-0.0372408064827691 -0.04115071841188 2.47131231819859e-20)
(-0.0408884231616595 -0.0495326066019544 -2.98502463091177e-18)
(-0.0447317893634736 -0.0581861072294135 2.79475408716662e-18)
(-0.0482922736590152 -0.0663477351064176 2.69671241968564e-18)
(-0.0513752829120516 -0.0735542335130527 -2.61453652350785e-18)
(-0.053894427484991 -0.0795010807910848 0)
(-0.0557871681764964 -0.0839634306510351 2.03745168648889e-20)
(-0.0568401246929655 -0.0866055444071142 2.59462870033767e-18)
(-0.0566482487942278 -0.0870495034721683 -2.01616000436597e-20)
(-0.0550225800749772 -0.0853814776197613 0)
(-0.0522596659140727 -0.0820454325504435 2.77093669039576e-18)
(-0.0485720500869703 -0.0773079376915276 2.8542724531598e-18)
(-0.0441492043146532 -0.0713880147754054 2.91442709071775e-18)
(-0.0391540520890349 -0.0644565160464497 -2.96119715039661e-18)
(-0.0337155151747402 -0.0566414209940701 6.00567820637988e-21)
(-0.0280281301330627 -0.0481198041052278 -5.7729207806951e-21)
(-0.0221646992518782 -0.038823231358286 3.01666736709478e-18)
(-0.0157093264084757 -0.0279552957536279 0)
(-0.00777653442545673 -0.0145255989515135 -1.50530145434619e-21)
(0.00313057653382242 0.00293664902624533 -3.04447287852783e-18)
(0.019187937347588 0.0261196535530012 6.49280071997033e-21)
(0.0463650088991452 0.0592851772070427 0)
(0.0942897399023694 0.104846650404703 4.9629514844773e-18)
(0.185601642383276 0.161819985565218 -1.83358714766321e-18)
(0.310507798122922 0.179106767671366 -6.4840253608155e-22)
(0.369486962089138 0.110362895381229 2.16595651630096e-19)
(0.278769631997586 0.0280358903454488 8.88566235310379e-20)
(0.166582156016569 0.00356450331458227 0)
(0.256377331205289 0.00177671537258296 0)
(0.245879708428438 -0.00926617780699519 1.00286922057528e-21)
(0.151673273088087 -0.0246046431599525 -3.77126957278899e-21)
(0.0028222233916637 0.0101251259685812 0)
(-0.0526138384323791 0.0506260282533437 -8.7472273222101e-21)
(-0.0422301959680779 0.0476481554846435 5.55657724984626e-19)
(-0.0277906258467174 0.036240787177438 7.51635204410338e-23)
(-0.0199301392909865 0.0287169206669218 -6.34082221591464e-19)
(-0.0146948933632792 0.022588920481822 0)
(-0.0113178010819118 0.0181373898484206 7.02878241096823e-19)
(-0.00913031601930389 0.0150484554965484 7.4219367038596e-19)
(-0.00794892365545204 0.0132876460998632 -1.51931482536972e-21)
(-0.00742493819337593 0.0123590597170046 8.31938133885041e-19)
(-0.00723353534112667 0.0118943852243519 3.8586740659887e-22)
(-0.0072361425052127 0.0117559207341821 0)
(-0.00738385949581699 0.0118550267356233 0)
(-0.0076100605698402 0.0120736462464355 -4.01489916131365e-21)
(-0.00784800874039275 0.0123068419781633 2.13881785721496e-18)
(-0.00802999654679216 0.0124419624440685 1.11827269919152e-18)
(-0.00806535966839396 0.0123356382928874 -9.40219970544183e-21)
(-0.00784425428464629 0.0118107772124732 9.34991280847593e-21)
(-0.00730660097475277 0.0107314662613178 0)
(-0.00643377583336965 0.00906426431827198 1.31003677741826e-18)
(-0.00518865396933428 0.0068148724968894 -1.05885343373087e-20)
(-0.00354082287810622 0.0040496217547674 0)
(-0.00148728277143271 0.000927949275829688 1.51483381704866e-18)
(0.000929930195603828 -0.00227486935890025 -2.47223727326743e-20)
(0.00360146836644367 -0.00516300439175745 1.29932125817521e-20)
(0.00633875566188395 -0.00731610916683273 1.75172775636366e-18)
(0.008871728688421 -0.00840396836932758 -2.89574812177366e-20)
(0.0108634676589358 -0.0082227755266195 -1.9370783737123e-18)
(0.0120422732668144 -0.00687023689336788 0)
(0.0123165915860157 -0.00472984788216366 -2.21287152116006e-18)
(0.0120926828741583 -0.00241585941031858 1.13136442403472e-18)
(0.0116642584189961 -0.00029631749458291 -1.08945287019279e-19)
(0.010927845581949 0.00011258617111447 -1.81974794714785e-20)
(0.010013522089968 0.000165065877916224 0)
(0.00872660748601297 0.000244736210750382 -1.85372404116358e-20)
(0.00687141523192044 0.000393134716788207 1.8617063851284e-20)
(0.00418793822813514 0.000578245930258694 1.88253769421328e-20)
(0.000579801274575667 0.000795835876060182 -1.88638695161432e-20)
(-0.00404482114701649 0.00103156747554716 1.85616429306558e-20)
(-0.00966874708178349 0.00126901551538289 -1.80072534215573e-20)
(-0.0161998966365939 0.00148808033937582 -1.73655979811801e-20)
(-0.0234652594484536 0.00167191589791586 1.67846796459233e-20)
(-0.0312500017583165 0.00180939202873051 0)
(-0.0393283326899472 0.00189673211471835 7.77253220178234e-21)
(-0.0474951867293753 0.00193674163056512 -7.52814027768896e-21)
(-0.0555844710067351 0.00193684939479537 -7.26327300411342e-21)
(-0.0634767121572377 0.00190673203682729 1.31983698103667e-23)
(-0.0710974079882966 0.00185634919568459 6.86242133658406e-21)
(-0.0784104277837891 0.00179466312966829 -6.68687696229152e-21)
(-0.0854094709164972 0.00172903577891103 6.53274154014875e-21)
(-0.0921097767500433 0.00166511222752597 -3.2048616991846e-21)
(-0.0985410865193628 0.00160698512815339 -9.65449615290653e-24)
(-0.104742169427883 0.00155747551234603 3.08597118919028e-21)
(-0.110756796840363 0.00151842777413467 0)
(-0.116630885348467 0.00149096628438166 0)
(-0.122410493496911 0.00147569470164343 -7.45666021419974e-22)
(-0.128140390412883 0.00147283709798067 7.32290863242834e-22)
(-0.133862968385369 0.00148232816379323 0)
(-0.139617325845962 0.00150386206409514 1.45075080712193e-21)
(-0.145438393636741 0.00153690908120201 -1.42474656919293e-21)
(-0.15135601288396 0.00158070727062285 0)
(-0.157393898402822 0.00163423424794403 0)
(-0.163568438895487 0.00169616234956435 2.83108070342047e-21)
(-0.169887296254433 0.00176479858853793 -2.77777097031012e-21)
(-0.176347770495642 0.00183800844102485 5.62536911866808e-21)
(-0.1829348933131 0.00191311968921492 -5.51685175064763e-21)
(-0.189619201127443 0.00198679885506712 5.61990837598076e-21)
(-0.196354115594505 0.00205488696788116 -5.51045257418291e-21)
(-0.203072816633785 0.00211217201540482 0)
(-0.209684423924073 0.00215206036467238 5.70029088429915e-21)
(-0.216069223983197 0.00216609107286995 -5.59394595020949e-21)
(-0.222072571746823 0.00214321344096399 -1.16861081208833e-20)
(-0.227496738264744 0.00206866570053472 1.14892906760955e-20)
(-0.232089474290779 0.0019221193968884 0)
(-0.235528646225299 0.00167464078458633 0)
(-0.237401747268054 0.00128382981112043 0)
(-0.237168956405672 0.000685848427229602 0)
(-0.234105039853905 -0.000218653286583731 0)
(-0.227329360727161 -0.00159209375456604 1.46898743572324e-20)
(-0.215715433302337 -0.00365612702697467 -1.4461171324033e-20)
(-0.197358089946245 -0.00672649243047126 0)
(-0.168812424716385 -0.011773059159636 1.68139773685258e-20)
(-0.129353686099229 -0.0200771024955778 -1.64995266871773e-19)
(-0.0919773250976368 -0.0276529665181689 4.28983382982434e-21)
(-0.0744624857258083 -0.0328795005047507 6.96804460706527e-21)
(-0.0652015276724547 -0.038021770052588 3.57363979664895e-18)
(-0.0622346093237465 -0.0446868125437079 -3.47595456751325e-18)
(-0.0625724013693669 -0.0531356419063875 -3.32351876500701e-18)
(-0.0648220019662239 -0.0632310508418965 -5.49233043590714e-20)
(-0.0683156054628954 -0.0747121735546718 2.24601094340177e-20)
(-0.0726633532932088 -0.087142227855952 -2.11974637488031e-20)
(-0.0771140802900793 -0.0994449379109578 2.58680156441418e-18)
(-0.0810587471111175 -0.110615363444936 -2.49068349219011e-18)
(-0.0842750760049178 -0.120078478037442 -2.41713209267753e-18)
(-0.0866573892672729 -0.127464652698859 0)
(-0.0880921624933658 -0.132482793023952 0)
(-0.088284846866216 -0.134755483457211 -2.42631872224223e-18)
(-0.08678140033065 -0.13397776302836 -9.97157459956683e-21)
(-0.0834212108111272 -0.130401650860775 -2.55742404329021e-18)
(-0.0785860131677205 -0.124586713338708 1.06072077942528e-20)
(-0.0725332247670403 -0.116852540821859 2.72772237046183e-18)
(-0.0654983099136757 -0.107462707025862 -2.80677284329967e-18)
(-0.0576815193931899 -0.0966134062521366 2.88651114674412e-18)
(-0.0492463009392583 -0.0844546280840719 -2.95365271615068e-18)
(-0.0404131221281073 -0.0711373948352873 -2.99321574209115e-18)
(-0.0311480736348781 -0.0564109249960106 -3.02245360489699e-18)
(-0.0207740446780688 -0.0391015695979554 3.0137147394524e-21)
(-0.00797309741643016 -0.0178454254086701 3.05913987240243e-18)
(0.00945085930083592 0.00930003480583044 0)
(0.034683450737019 0.0444393953546778 2.86964330406021e-18)
(0.0756380866226007 0.0920073839553859 0)
(0.143364027106631 0.151842151060368 -2.1198606058283e-18)
(0.258387498039406 0.213986840001462 0)
(0.403747710583694 0.223266367860822 0)
(0.493623065821167 0.147524166984931 0)
(0.431368628557708 0.0501679645725827 -6.9600453705457e-20)
(0.309747200290233 0.0116070224515582 0)
(0.368509535558341 0.00592826138899156 0)
(0.34671990336622 -0.00877865834146456 -5.87287998638264e-21)
(0.237121859995825 -0.0322344642924485 -6.0388574284196e-21)
(0.0437520437649082 0.000204514696195537 8.335380888797e-23)
(-0.0575102655884643 0.0594526054396901 -5.04962488413455e-19)
(-0.0561691399815361 0.0621703218303779 -5.9588492701478e-21)
(-0.0385803774685938 0.048708571985014 0)
(-0.0279300349885963 0.0391029758614424 -1.61140107474485e-22)
(-0.0208186078908403 0.0311858090936454 1.63736423668256e-22)
(-0.0161271966994855 0.0252541160225181 0)
(-0.0130275791706119 0.0210661573564887 0)
(-0.0112940632548853 0.0186286935847162 8.10937069013365e-19)
(-0.0105025084325367 0.0173356149419347 -8.64598035743896e-19)
(-0.0102025633750187 0.0166901535714665 9.15915017447964e-19)
(-0.0101804231892526 0.0164918528978464 0)
(-0.0103624371600946 0.016616521480255 -3.9645531559295e-21)
(-0.0106605881475857 0.016904938960966 4.11692208873792e-21)
(-0.0109834036034968 0.0172125881417898 -2.20749502568887e-18)
(-0.0112421288753637 0.0173878472826363 -1.14908322915638e-18)
(-0.0113219781192434 0.0172445476792663 -1.20357197137026e-18)
(-0.0110863137393428 0.0165617666594925 1.93325035104611e-20)
(-0.0104591530280645 0.0151700009209482 -2.00407143364176e-20)
(-0.00941868478459498 0.0130271141749905 -1.32409912474914e-18)
(-0.00792340889731892 0.0101455083461436 -1.39266415358046e-18)
(-0.00593576803599117 0.00661075163881336 0)
(-0.00344479661011466 0.00261726831646646 0)
(-0.000483981896625334 -0.00150564870891757 -1.26473223867364e-20)
(0.00284238723783114 -0.00528510923153096 1.32942540044436e-20)
(0.00633542986501199 -0.00820134180842486 1.785430537955e-18)
(0.00970312049362107 -0.0098311623256776 0)
(0.0125404684787541 -0.0098786435420187 -1.99390422173022e-18)
(0.0144377105937838 -0.00838723812270996 2.15641617336793e-18)
(0.0151277618926095 -0.00578558383413619 -7.06379777163635e-20)
(0.0149531635861546 -0.0028738521395163 1.19892738083489e-18)
(0.0141390704792995 -0.000179103351621373 1.46925518120039e-19)
(0.0126846280956776 0.000348076354237546 -1.85309415959735e-20)
(0.0109295573887715 0.000475979266426502 1.86028838787387e-20)
(0.00848814620208926 0.000677372640584705 0)
(0.00511406817483039 0.00100803881441318 0)
(0.000486148907550379 0.00141194675334443 -1.89646814835349e-20)
(-0.00549459323530805 0.00187118478302283 3.68518589724948e-20)
(-0.0128798898265465 0.00235169064767581 -3.51732316668924e-20)
(-0.0215565378332128 0.00281541984325486 2.20391392835336e-23)
(-0.0313048569165863 0.00322246579687751 3.16843555605253e-20)
(-0.0418147897108638 0.00354271297156319 -4.23712024874181e-23)
(-0.0527502137480302 0.00376046522415173 -1.42723533304358e-20)
(-0.0637959251424403 0.00387545466539887 -1.35351397347267e-20)
(-0.0746943681469508 0.00389957280657388 1.29595480977883e-20)
(-0.0852600211123102 0.00385184818751319 0)
(-0.0953785139566401 0.00375355707691849 0)
(-0.104995695315158 0.00362470731958915 -5.74306042332879e-21)
(-0.114103244485347 0.00348211932406116 -3.26935385381336e-16)
(-0.122724612571689 0.00333880869079992 -3.21763597729696e-16)
(-0.130903319772022 0.00320417999388894 -2.63046307443851e-21)
(-0.138694083943737 0.0030846063966071 2.56071027704352e-21)
(-0.146156536550471 0.00298410556960865 2.51384010728753e-21)
(-0.15335096992396 0.00290495563836428 -3.6851161312445e-21)
(-0.160335536925889 0.00284818685964527 1.20344253406424e-21)
(-0.167164406295507 0.00281393855068804 -5.95597268768838e-22)
(-0.173886493508033 0.00280169571404712 5.82119267656802e-22)
(-0.180544494800734 0.00281042819052961 0)
(-0.187174038900751 0.00283865511706821 0)
(-0.193802837317617 0.00288445413284032 1.12957046508596e-21)
(-0.200449761362004 0.00294543013648454 -1.10454479985159e-21)
(-0.207123808302446 0.00301865419397759 2.21331262654357e-21)
(-0.213822942945384 0.00310057972659835 3.02353047726244e-23)
(-0.220532817807053 0.00318693999476302 -2.14462065437842e-21)
(-0.22722538462915 0.00327262708278281 2.55764456031247e-16)
(-0.233857411784743 0.00335154822521296 2.50829280035271e-16)
(-0.24036891524433 0.00341644971224165 0)
(-0.246681494538267 0.00345869026736113 0)
(-0.252696533006796 0.00346793375976807 4.28851193655588e-21)
(-0.258293171704491 0.00343171185638304 -4.19006604209498e-21)
(-0.263325912243896 0.00333477923240759 0)
(-0.267621642929818 0.0031581571855588 8.73899928790617e-21)
(-0.270975663085455 0.00287769416166807 -1.73967334534703e-20)
(-0.273145967348658 0.00246174303907753 1.76597136584225e-20)
(-0.273845728659199 0.00186740845045179 -8.81101200947492e-21)
(-0.272734642247295 0.00103572598637999 0)
(-0.269405805916615 -0.000113479918421546 0)
(-0.263379235315417 -0.00169975311839764 0)
(-0.254031497460113 -0.00393334677422308 -1.00120251218755e-20)
(-0.240598298464306 -0.00710719939803148 1.98542764708509e-20)
(-0.221894288735153 -0.0115551200342208 -9.91882962696711e-21)
(-0.195627254613308 -0.0182294737784805 0)
(-0.161433662152517 -0.0288715552739423 0)
(-0.129270583506121 -0.0408323445443454 5.02566472809463e-21)
(-0.111333998213365 -0.0504291891132487 5.0047050715746e-18)
(-0.100980805161772 -0.0595898500607036 2.74094091382588e-18)
(-0.0968038719324062 -0.0698188277259805 2.81619681757062e-18)
(-0.0961442930149475 -0.0816140519048546 -2.67939559394508e-18)
(-0.0976243238262096 -0.0948890220489269 -4.78112605702819e-20)
(-0.100415043114819 -0.109214768419739 0)
(-0.103992166627385 -0.123917466102268 2.2931316402209e-18)
(-0.107541976544727 -0.137801985888034 -4.38478723328029e-18)
(-0.110454624061023 -0.149858581220726 -2.12097148678622e-18)
(-0.112521667489283 -0.159539519534016 2.0927949766617e-18)
(-0.113623988806192 -0.166501115541501 -1.59261387567335e-20)
(-0.113611510686256 -0.170475676231833 1.64374857682965e-20)
(-0.112180776594413 -0.171194232064772 -2.09892563478111e-18)
(-0.108937909437198 -0.168563036283058 0)
(-0.103783429807679 -0.16298199330664 4.35944034416113e-18)
(-0.0970853770306117 -0.154977316122428 -2.2539453579837e-18)
(-0.0890761879414781 -0.14482782634112 -4.72193448604751e-18)
(-0.0799757831864534 -0.132758993297192 2.46947864547364e-18)
(-0.0699681006266303 -0.118922134559065 -2.55145370196286e-18)
(-0.0591969612578847 -0.103416252310163 5.27169509220625e-18)
(-0.0478358186958123 -0.086275807357231 2.69549652252296e-18)
(-0.0356680091184444 -0.0670266352197418 5.51145466707118e-18)
(-0.0217964262081569 -0.0442847852706675 0)
(-0.00462105363548584 -0.0165904625170898 -2.75960946229719e-18)
(0.0184916365979565 0.0180346879452764 -2.64227751664332e-18)
(0.0512404209494962 0.0614066809970487 0)
(0.101851728719635 0.11634277495434 -9.31090651923536e-22)
(0.179953015469912 0.178775031587999 -1.47071267706684e-18)
(0.299801692461624 0.231946601682896 -5.04270929644729e-22)
(0.442172455743465 0.229230859979963 0)
(0.539590765023034 0.15508322156619 7.15407237482859e-20)
(0.520064023797698 0.0632324894923323 0)
(0.426861614493016 0.0203305678339663 0)
(0.448885810332385 0.0101150769203826 -6.60739080803612e-24)
(0.426186752892647 -0.00629558825709944 -6.41125954577219e-21)
(0.321134356189672 -0.0365089826956558 1.76124669129887e-20)
(0.102322575140413 -0.0134932794835243 2.31124218504499e-19)
(-0.0493680028469465 0.0606519525764951 0)
(-0.0668056039881723 0.0734878995926435 -6.4322569096825e-21)
(-0.0487455964622196 0.0596910881013446 3.55165225775379e-22)
(-0.035777788863791 0.0486550175499323 -6.5219697333036e-19)
(-0.0269886162284791 0.0393892420583657 -3.47513218606837e-22)
(-0.0210550869753995 0.0322060748700672 -7.43742613320476e-19)
(-0.0170470293612617 0.0270269066860392 0)
(-0.0147266864005661 0.0239493743116049 -8.39626454957723e-19)
(-0.0136352064095536 0.0223066806561668 0)
(-0.0132081946759252 0.0214894016862438 3.70993188519716e-21)
(-0.0131475013352769 0.0212329809940108 -3.8723707169724e-21)
(-0.013350052105245 0.0213781632218078 0)