/*--------------------------------*- C++ -*----------------------------------*\
  =========                 |
  \\      /  F ield         | OpenFOAM: The Open Source CFD Toolbox
   \\    /   O peration     | Website:  https://openfoam.org
    \\  /    A nd           | Version:  7
     \\/     M anipulation  |
\*---------------------------------------------------------------------------*/
FoamFile
{
    version     2.0;
    format      ascii;
    class       volScalarField;
    location    "7009";
    object      k;
}
// * * * * * * * * * * * * * * * * * * * * * * * * * * * * * * * * * * * * * //

dimensions      [0 2 -2 0 0 0 0];

internalField   nonuniform List<scalar> 
31819
(
6.50876
6.84211
7.41266
8.13941
8.9568
9.81423
10.6743
11.5107
12.3057
13.0487
13.7332
14.3521
14.8967
15.3617
15.7453
16.0466
16.2649
16.3982
16.443
16.394
16.244
15.984
15.6034
15.0903
14.4329
13.6206
12.6476
11.5156
10.238
8.8416
7.35941
5.86309
4.44723
3.20445
2.19608
1.43624
0.89916
0.53921
0.308757
0.167485
0.0848632
0.0392447
0.0159348
0.00530211
0.00126102
0.000157122
4.7127e-06
6.50876
6.84211
7.41266
8.13941
8.9568
9.81423
10.6743
11.5107
12.3057
13.0487
13.7332
14.3522
14.8967
15.3618
15.7453
16.0466
16.2649
16.3982
16.443
16.394
16.244
15.9841
15.6034
15.0904
14.4329
13.6207
12.6476
11.5156
10.238
8.84164
7.35944
5.86312
4.44725
3.20447
2.19609
1.43625
0.899166
0.539214
0.308759
0.167486
0.0848638
0.039245
0.0159349
0.00530215
0.00126103
0.000157123
4.71273e-06
6.50876
6.84212
7.41267
8.13942
8.95681
9.81424
10.6743
11.5107
12.3058
13.0487
13.7332
14.3522
14.8968
15.3618
15.7453
16.0467
16.265
16.3983
16.4431
16.3941
16.2441
15.9841
15.6035
15.0904
14.433
13.6207
12.6477
11.5157
10.238
8.84168
7.35948
5.86315
4.44728
3.20449
2.19611
1.43626
0.899173
0.539217
0.308762
0.167487
0.0848644
0.0392453
0.015935
0.00530219
0.00126103
0.000157124
4.71277e-06
6.50877
6.84212
7.41268
8.13943
8.95683
9.81426
10.6743
11.5107
12.3058
13.0488
13.7333
14.3522
14.8968
15.3618
15.7453
16.0467
16.265
16.3983
16.4431
16.3941
16.2441
15.9842
15.6035
15.0905
14.433
13.6208
12.6477
11.5157
10.2381
8.84172
7.35951
5.86318
4.4473
3.20451
2.19612
1.43627
0.899179
0.539221
0.308764
0.167488
0.084865
0.0392456
0.0159351
0.00530222
0.00126104
0.000157125
4.7128e-06
6.50878
6.84213
7.41269
8.13944
8.95684
9.81428
10.6744
11.5107
12.3058
13.0488
13.7333
14.3523
14.8968
15.3619
15.7454
16.0467
16.2651
16.3984
16.4432
16.3942
16.2442
15.9842
15.6036
15.0905
14.433
13.6208
12.6478
11.5157
10.2381
8.84175
7.35955
5.86321
4.44733
3.20453
2.19613
1.43628
0.899184
0.539224
0.308766
0.167489
0.0848655
0.0392458
0.0159352
0.00530225
0.00126105
0.000157126
4.71283e-06
6.50879
6.84214
7.4127
8.13946
8.95686
9.81429
10.6744
11.5108
12.3058
13.0488
13.7333
14.3523
14.8969
15.3619
15.7454
16.0468
16.2651
16.3984
16.4432
16.3942
16.2442
15.9842
15.6036
15.0906
14.4331
13.6208
12.6478
11.5158
10.2382
8.84179
7.35958
5.86324
4.44735
3.20455
2.19614
1.43629
0.899189
0.539227
0.308767
0.16749
0.084866
0.039246
0.0159353
0.00530228
0.00126106
0.000157127
4.71286e-06
6.50879
6.84215
7.41271
8.13947
8.95688
9.81431
10.6744
11.5108
12.3059
13.0489
13.7334
14.3523
14.8969
15.3619
15.7455
16.0468
16.2651
16.3984
16.4432
16.3942
16.2442
15.9843
15.6037
15.0906
14.4331
13.6209
12.6479
11.5158
10.2382
8.84181
7.3596
5.86326
4.44737
3.20456
2.19615
1.43629
0.899193
0.53923
0.308769
0.167491
0.0848664
0.0392462
0.0159354
0.00530231
0.00126106
0.000157128
4.71288e-06
6.5088
6.84216
7.41272
8.13948
8.95689
9.81433
10.6744
11.5108
12.3059
13.0489
13.7334
14.3523
14.8969
15.362
15.7455
16.0468
16.2652
16.3985
16.4433
16.3943
16.2443
15.9843
15.6037
15.0906
14.4331
13.6209
12.6479
11.5158
10.2382
8.84184
7.35962
5.86328
4.44738
3.20457
2.19616
1.4363
0.899197
0.539232
0.30877
0.167492
0.0848668
0.0392464
0.0159355
0.00530233
0.00126107
0.000157128
4.7129e-06
6.50881
6.84217
7.41273
8.1395
8.9569
9.81435
10.6744
11.5108
12.3059
13.0489
13.7334
14.3524
14.8969
15.362
15.7455
16.0469
16.2652
16.3985
16.4433
16.3943
16.2443
15.9843
15.6037
15.0906
14.4332
13.6209
12.6479
11.5159
10.2382
8.84186
7.35964
5.86329
4.44739
3.20458
2.19617
1.4363
0.8992
0.539234
0.308771
0.167492
0.0848671
0.0392465
0.0159355
0.00530235
0.00126107
0.000157129
4.71292e-06
6.50882
6.84218
7.41274
8.13951
8.95692
9.81436
10.6745
11.5108
12.3059
13.0489
13.7334
14.3524
14.897
15.362
15.7455
16.0469
16.2652
16.3985
16.4433
16.3943
16.2443
15.9844
15.6037
15.0907
14.4332
13.621
12.6479
11.5159
10.2383
8.84188
7.35966
5.86331
4.44741
3.20459
2.19617
1.43631
0.899203
0.539236
0.308772
0.167493
0.0848673
0.0392466
0.0159356
0.00530237
0.00126108
0.000157129
4.71293e-06
6.50882
6.84218
7.41275
8.13952
8.95693
9.81437
10.6745
11.5109
12.3059
13.0489
13.7334
14.3524
14.897
15.362
15.7456
16.0469
16.2652
16.3985
16.4433
16.3943
16.2443
15.9844
15.6038
15.0907
14.4332
13.621
12.6479
11.5159
10.2383
8.84189
7.35967
5.86332
4.44741
3.2046
2.19618
1.43631
0.899205
0.539237
0.308773
0.167493
0.0848675
0.0392467
0.0159356
0.00530238
0.00126108
0.00015713
4.71294e-06
6.50883
6.84219
7.41276
8.13952
8.95694
9.81438
10.6745
11.5109
12.3059
13.049
13.7335
14.3524
14.897
15.362
15.7456
16.0469
16.2652
16.3986
16.4434
16.3943
16.2444
15.9844
15.6038
15.0907
14.4332
13.621
12.648
11.5159
10.2383
8.8419
7.35968
5.86333
4.44742
3.2046
2.19618
1.43631
0.899207
0.539238
0.308773
0.167494
0.0848677
0.0392468
0.0159357
0.00530239
0.00126108
0.00015713
4.71295e-06
6.50883
6.84219
7.41276
8.13953
8.95694
9.81439
10.6745
11.5109
12.306
13.049
13.7335
14.3524
14.897
15.362
15.7456
16.0469
16.2653
16.3986
16.4434
16.3943
16.2444
15.9844
15.6038
15.0907
14.4332
13.621
12.648
11.5159
10.2383
8.84191
7.35969
5.86333
4.44743
3.20461
2.19619
1.43632
0.899208
0.539239
0.308774
0.167494
0.0848678
0.0392469
0.0159357
0.0053024
0.00126108
0.00015713
4.71296e-06
6.50884
6.8422
7.41277
8.13953
8.95695
9.81439
10.6745
11.5109
12.306
13.049
13.7335
14.3524
14.897
15.3621
15.7456
16.0469
16.2653
16.3986
16.4434
16.3944
16.2444
15.9844
15.6038
15.0907
14.4332
13.621
12.648
11.5159
10.2383
8.84192
7.35969
5.86334
4.44743
3.20461
2.19619
1.43632
0.899209
0.539239
0.308774
0.167494
0.0848679
0.0392469
0.0159357
0.0053024
0.00126109
0.00015713
4.71296e-06
6.50884
6.8422
7.41277
8.13953
8.95695
9.8144
10.6745
11.5109
12.306
13.049
13.7335
14.3524
14.897
15.3621
15.7456
16.0469
16.2653
16.3986
16.4434
16.3944
16.2444
15.9844
15.6038
15.0907
14.4332
13.621
12.648
11.5159
10.2383
8.84192
7.35969
5.86334
4.44743
3.20461
2.19619
1.43632
0.899209
0.539239
0.308774
0.167494
0.0848679
0.0392469
0.0159357
0.0053024
0.00126109
0.00015713
4.71296e-06
6.50884
6.8422
7.41277
8.13954
8.95695
9.8144
10.6745
11.5109
12.306
13.049
13.7335
14.3524
14.897
15.3621
15.7456
16.0469
16.2653
16.3986
16.4434
16.3944
16.2444
15.9844
15.6038
15.0907
14.4332
13.621
12.648
11.5159
10.2383
8.84192
7.3597
5.86334
4.44743
3.20461
2.19619
1.43632
0.899209
0.53924
0.308774
0.167494
0.0848679
0.0392469
0.0159357
0.00530241
0.00126109
0.00015713
4.71296e-06
6.50884
6.8422
7.41277
8.13953
8.95695
9.8144
10.6745
11.5109
12.306
13.049
13.7335
14.3524
14.897
15.3621
15.7456
16.0469
16.2653
16.3986
16.4434
16.3944
16.2444
15.9844
15.6038
15.0907
14.4332
13.621
12.648
11.5159
10.2383
8.84192
7.35969
5.86334
4.44743
3.20461
2.19619
1.43632
0.899209
0.539239
0.308774
0.167494
0.0848679
0.0392469
0.0159357
0.0053024
0.00126109
0.00015713
4.71296e-06
6.50883
6.8422
7.41276
8.13953
8.95695
9.8144
10.6745
11.5109
12.306
13.049
13.7335
14.3524
14.897
15.3621
15.7456
16.0469
16.2653
16.3986
16.4434
16.3944
16.2444
15.9844
15.6038
15.0907
14.4332
13.621
12.648
11.5159
10.2383
8.84192
7.35969
5.86334
4.44743
3.20461
2.19619
1.43632
0.899209
0.539239
0.308774
0.167494
0.0848679
0.0392469
0.0159357
0.0053024
0.00126109
0.00015713
4.71296e-06
6.50883
6.84219
7.41276
8.13953
8.95694
9.81439
10.6745
11.5109
12.306
13.049
13.7335
14.3524
14.897
15.3621
15.7456
16.0469
16.2653
16.3986
16.4434
16.3944
16.2444
15.9844
15.6038
15.0907
14.4332
13.621
12.648
11.5159
10.2383
8.84191
7.35969
5.86333
4.44743
3.20461
2.19619
1.43632
0.899208
0.539239
0.308774
0.167494
0.0848678
0.0392469
0.0159357
0.0053024
0.00126108
0.00015713
4.71296e-06
6.50883
6.84219
7.41276
8.13952
8.95694
9.81439
10.6745
11.5109
12.3059
13.049
13.7335
14.3524
14.897
15.362
15.7456
16.0469
16.2652
16.3986
16.4434
16.3943
16.2444
15.9844
15.6038
15.0907
14.4332
13.621
12.648
11.5159
10.2383
8.8419
7.35968
5.86333
4.44742
3.2046
2.19618
1.43631
0.899207
0.539238
0.308773
0.167494
0.0848677
0.0392468
0.0159357
0.00530239
0.00126108
0.00015713
4.71295e-06
6.50882
6.84218
7.41275
8.13952
8.95693
9.81438
10.6745
11.5109
12.3059
13.0489
13.7335
14.3524
14.897
15.362
15.7456
16.0469
16.2652
16.3985
16.4433
16.3943
16.2443
15.9844
15.6038
15.0907
14.4332
13.621
12.6479
11.5159
10.2383
8.8419
7.35968
5.86332
4.44742
3.2046
2.19618
1.43631
0.899206
0.539237
0.308773
0.167493
0.0848676
0.0392468
0.0159356
0.00530238
0.00126108
0.00015713
4.71295e-06
6.50881
6.84218
7.41274
8.13951
8.95693
9.81437
10.6745
11.5109
12.3059
13.0489
13.7335
14.3524
14.897
15.362
15.7456
16.0469
16.2652
16.3985
16.4433
16.3943
16.2443
15.9844
15.6038
15.0907
14.4332
13.621
12.6479
11.5159
10.2383
8.84189
7.35967
5.86332
4.44741
3.2046
2.19618
1.43631
0.899205
0.539237
0.308773
0.167493
0.0848675
0.0392467
0.0159356
0.00530238
0.00126108
0.00015713
4.71294e-06
6.50881
6.84217
7.41274
8.1395
8.95692
9.81436
10.6745
11.5108
12.3059
13.0489
13.7334
14.3524
14.897
15.362
15.7455
16.0469
16.2652
16.3985
16.4433
16.3943
16.2443
15.9844
15.6037
15.0907
14.4332
13.621
12.6479
11.5159
10.2383
8.84188
7.35966
5.86331
4.44741
3.20459
2.19617
1.43631
0.899203
0.539236
0.308772
0.167493
0.0848673
0.0392466
0.0159356
0.00530237
0.00126108
0.000157129
4.71293e-06
6.5088
6.84216
7.41273
8.1395
8.95691
9.81435
10.6744
11.5108
12.3059
13.0489
13.7334
14.3524
14.897
15.362
15.7455
16.0469
16.2652
16.3985
16.4433
16.3943
16.2443
15.9843
15.6037
15.0907
14.4332
13.6209
12.6479
11.5159
10.2382
8.84187
7.35965
5.8633
4.4474
3.20459
2.19617
1.43631
0.899201
0.539235
0.308771
0.167493
0.0848671
0.0392466
0.0159356
0.00530236
0.00126108
0.000157129
4.71292e-06
6.50879
6.84215
7.41272
8.13949
8.9569
9.81434
10.6744
11.5108
12.3059
13.0489
13.7334
14.3524
14.8969
15.362
15.7455
16.0469
16.2652
16.3985
16.4433
16.3943
16.2443
15.9843
15.6037
15.0906
14.4332
13.6209
12.6479
11.5159
10.2382
8.84185
7.35964
5.86329
4.44739
3.20458
2.19617
1.4363
0.899199
0.539233
0.308771
0.167492
0.084867
0.0392465
0.0159355
0.00530234
0.00126107
0.000157129
4.71291e-06
6.50878
6.84214
7.41271
8.13948
8.95689
9.81433
10.6744
11.5108
12.3059
13.0489
13.7334
14.3524
14.8969
15.362
15.7455
16.0469
16.2652
16.3985
16.4433
16.3943
16.2443
15.9843
15.6037
15.0906
14.4331
13.6209
12.6479
11.5158
10.2382
8.84184
7.35962
5.86328
4.44738
3.20457
2.19616
1.4363
0.899197
0.539232
0.30877
0.167492
0.0848668
0.0392464
0.0159355
0.00530233
0.00126107
0.000157128
4.7129e-06
6.50877
6.84213
7.4127
8.13946
8.95687
9.81432
10.6744
11.5108
12.3059
13.0489
13.7334
14.3523
14.8969
15.362
15.7455
16.0468
16.2651
16.3985
16.4433
16.3942
16.2443
15.9843
15.6037
15.0906
14.4331
13.6209
12.6479
11.5158
10.2382
8.84182
7.35961
5.86327
4.44737
3.20457
2.19616
1.4363
0.899195
0.539231
0.308769
0.167491
0.0848665
0.0392463
0.0159354
0.00530232
0.00126107
0.000157128
4.71289e-06
6.50876
6.84212
7.41269
8.13945
8.95686
9.8143
10.6744
11.5108
12.3059
13.0489
13.7334
14.3523
14.8969
15.3619
15.7455
16.0468
16.2651
16.3984
16.4432
16.3942
16.2442
15.9843
15.6037
15.0906
14.4331
13.6209
12.6478
11.5158
10.2382
8.84181
7.3596
5.86325
4.44736
3.20456
2.19615
1.43629
0.899193
0.539229
0.308768
0.167491
0.0848663
0.0392462
0.0159354
0.0053023
0.00126106
0.000157127
4.71287e-06
6.50875
6.84211
7.41268
8.13944
8.95685
9.81429
10.6744
11.5108
12.3058
13.0488
13.7333
14.3523
14.8969
15.3619
15.7454
16.0468
16.2651
16.3984
16.4432
16.3942
16.2442
15.9843
15.6036
15.0906
14.4331
13.6209
12.6478
11.5158
10.2382
8.84179
7.35958
5.86324
4.44735
3.20455
2.19614
1.43629
0.89919
0.539228
0.308768
0.16749
0.0848661
0.0392461
0.0159353
0.00530229
0.00126106
0.000157127
4.71286e-06
6.50874
6.8421
7.41266
8.13943
8.95683
9.81428
10.6744
11.5107
12.3058
13.0488
13.7333
14.3523
14.8969
15.3619
15.7454
16.0468
16.2651
16.3984
16.4432
16.3942
16.2442
15.9842
15.6036
15.0905
14.4331
13.6208
12.6478
11.5158
10.2381
8.84177
7.35956
5.86323
4.44734
3.20454
2.19614
1.43628
0.899187
0.539226
0.308767
0.16749
0.0848658
0.039246
0.0159353
0.00530227
0.00126106
0.000157127
4.71285e-06
6.50873
6.84209
7.41265
8.13941
8.95682
9.81426
10.6743
11.5107
12.3058
13.0488
13.7333
14.3523
14.8968
15.3619
15.7454
16.0467
16.2651
16.3984
16.4432
16.3942
16.2442
15.9842
15.6036
15.0905
14.433
13.6208
12.6478
11.5157
10.2381
8.84176
7.35955
5.86321
4.44733
3.20453
2.19613
1.43628
0.899185
0.539225
0.308766
0.167489
0.0848655
0.0392458
0.0159352
0.00530226
0.00126105
0.000157126
4.71283e-06
6.50872
6.84207
7.41264
8.1394
8.9568
9.81424
10.6743
11.5107
12.3058
13.0488
13.7333
14.3522
14.8968
15.3618
15.7454
16.0467
16.265
16.3983
16.4431
16.3941
16.2441
15.9842
15.6036
15.0905
14.433
13.6208
12.6478
11.5157
10.2381
8.84174
7.35953
5.8632
4.44732
3.20452
2.19613
1.43627
0.899182
0.539223
0.308765
0.167489
0.0848653
0.0392457
0.0159352
0.00530224
0.00126105
0.000157126
4.71282e-06
6.5087
6.84206
7.41262
8.13938
8.95679
9.81423
10.6743
11.5107
12.3058
13.0488
13.7333
14.3522
14.8968
15.3618
15.7453
16.0467
16.265
16.3983
16.4431
16.3941
16.2441
15.9842
15.6035
15.0905
14.433
13.6208
12.6477
11.5157
10.2381
8.84172
7.35951
5.86318
4.4473
3.20451
2.19612
1.43627
0.899179
0.539221
0.308764
0.167488
0.084865
0.0392456
0.0159351
0.00530222
0.00126104
0.000157125
4.7128e-06
6.50869
6.84205
7.41261
8.13937
8.95677
9.81421
10.6743
11.5107
12.3057
13.0487
13.7332
14.3522
14.8968
15.3618
15.7453
16.0467
16.265
16.3983
16.4431
16.3941
16.2441
15.9841
15.6035
15.0904
14.433
13.6207
12.6477
11.5157
10.2381
8.8417
7.35949
5.86317
4.44729
3.2045
2.19611
1.43626
0.899175
0.539219
0.308762
0.167488
0.0848647
0.0392454
0.0159351
0.0053022
0.00126104
0.000157124
4.71278e-06
6.50867
6.84203
7.41259
8.13935
8.95675
9.81419
10.6743
11.5106
12.3057
13.0487
13.7332
14.3522
14.8967
15.3618
15.7453
16.0466
16.265
16.3983
16.4431
16.3941
16.2441
15.9841
15.6035
15.0904
14.4329
13.6207
12.6477
11.5156
10.238
8.84167
7.35947
5.86315
4.44728
3.20449
2.1961
1.43626
0.899172
0.539217
0.308761
0.167487
0.0848644
0.0392453
0.015935
0.00530218
0.00126103
0.000157124
4.71277e-06
6.50866
6.84202
7.41258
8.13933
8.95674
9.81417
10.6743
11.5106
12.3057
13.0487
13.7332
14.3521
14.8967
15.3617
15.7453
16.0466
16.2649
16.3982
16.443
16.394
16.244
15.9841
15.6035
15.0904
14.4329
13.6207
12.6477
11.5156
10.238
8.84165
7.35945
5.86313
4.44726
3.20448
2.1961
1.43625
0.899169
0.539215
0.30876
0.167486
0.084864
0.0392451
0.015935
0.00530216
0.00126103
0.000157123
4.71275e-06
6.50864
6.842
7.41256
8.13932
8.95672
9.81415
10.6742
11.5106
12.3057
13.0487
13.7332
14.3521
14.8967
15.3617
15.7452
16.0466
16.2649
16.3982
16.443
16.394
16.244
15.984
15.6034
15.0904
14.4329
13.6207
12.6476
11.5156
10.238
8.84163
7.35943
5.86311
4.44725
3.20447
2.19609
1.43625
0.899165
0.539213
0.308759
0.167486
0.0848637
0.039245
0.0159349
0.00530214
0.00126102
0.000157123
4.71273e-06
6.50863
6.84198
7.41254
8.1393
8.9567
9.81413
10.6742
11.5106
12.3056
13.0486
13.7331
14.3521
14.8967
15.3617
15.7452
16.0466
16.2649
16.3982
16.443
16.394
16.244
15.984
15.6034
15.0903
14.4329
13.6206
12.6476
11.5156
10.238
8.8416
7.35941
5.8631
4.44723
3.20446
2.19608
1.43624
0.899162
0.539211
0.308758
0.167485
0.0848633
0.0392448
0.0159348
0.00530212
0.00126102
0.000157122
4.71271e-06
6.50861
6.84197
7.41253
8.13928
8.95668
9.81411
10.6742
11.5106
12.3056
13.0486
13.7331
14.3521
14.8966
15.3617
15.7452
16.0465
16.2648
16.3982
16.4429
16.3939
16.2439
15.984
15.6034
15.0903
14.4328
13.6206
12.6476
11.5155
10.2379
8.84158
7.35939
5.86308
4.44722
3.20445
2.19607
1.43624
0.899158
0.539209
0.308756
0.167484
0.084863
0.0392446
0.0159348
0.0053021
0.00126101
0.000157121
4.71269e-06
6.5086
6.84195
7.41251
8.13926
8.95666
9.81409
10.6742
11.5105
12.3056
13.0486
13.7331
14.352
14.8966
15.3616
15.7452
16.0465
16.2648
16.3981
16.4429
16.3939
16.2439
15.984
15.6033
15.0903
14.4328
13.6206
12.6475
11.5155
10.2379
8.84156
7.35937
5.86306
4.4472
3.20443
2.19606
1.43623
0.899154
0.539206
0.308755
0.167484
0.0848626
0.0392445
0.0159347
0.00530207
0.00126101
0.000157121
4.71267e-06
6.50858
6.84193
7.41249
8.13924
8.95664
9.81406
10.6741
11.5105
12.3056
13.0486
13.7331
14.352
14.8966
15.3616
15.7451
16.0465
16.2648
16.3981
16.4429
16.3939
16.2439
15.9839
15.6033
15.0902
14.4328
13.6205
12.6475
11.5155
10.2379
8.84153
7.35934
5.86304
4.44718
3.20442
2.19605
1.43623
0.89915
0.539204
0.308754
0.167483
0.0848623
0.0392443
0.0159346
0.00530205
0.001261
0.00015712
4.71265e-06
6.50856
6.84191
7.41247
8.13922
8.95662
9.81404
10.6741
11.5105
12.3055
13.0485
13.733
14.352
14.8965
15.3616
15.7451
16.0464
16.2647
16.3981
16.4428
16.3938
16.2438
15.9839
15.6033
15.0902
14.4327
13.6205
12.6475
11.5155
10.2379
8.8415
7.35932
5.86302
4.44717
3.20441
2.19604
1.43622
0.899146
0.539201
0.308752
0.167482
0.0848619
0.0392441
0.0159346
0.00530203
0.001261
0.000157119
4.71263e-06
6.50854
6.8419
7.41245
8.1392
8.95659
9.81402
10.6741
11.5105
12.3055
13.0485
13.733
14.3519
14.8965
15.3615
15.7451
16.0464
16.2647
16.398
16.4428
16.3938
16.2438
15.9839
15.6032
15.0902
14.4327
13.6205
12.6474
11.5154
10.2378
8.84148
7.3593
5.863
4.44715
3.2044
2.19603
1.43621
0.899142
0.539199
0.308751
0.167481
0.0848615
0.0392439
0.0159345
0.005302
0.00126099
0.000157118
4.7126e-06
6.50852
6.84188
7.41243
8.13918
8.95657
9.81399
10.6741
11.5104
12.3055
13.0485
13.733
14.3519
14.8965
15.3615
15.745
16.0464
16.2647
16.398
16.4428
16.3938
16.2438
15.9838
15.6032
15.0901
14.4327
13.6204
12.6474
11.5154
10.2378
8.84145
7.35927
5.86297
4.44713
3.20438
2.19602
1.43621
0.899138
0.539196
0.308749
0.167481
0.0848611
0.0392438
0.0159344
0.00530198
0.00126098
0.000157118
4.71258e-06
6.50851
6.84186
7.41241
8.13916
8.95655
9.81397
10.674
11.5104
12.3055
13.0484
13.7329
14.3519
14.8964
15.3615
15.745
16.0463
16.2646
16.398
16.4427
16.3937
16.2437
15.9838
15.6032
15.0901
14.4326
13.6204
12.6474
11.5154
10.2378
8.84142
7.35924
5.86295
4.44711
3.20437
2.19601
1.4362
0.899134
0.539194
0.308748
0.16748
0.0848606
0.0392436
0.0159343
0.00530195
0.00126098
0.000157117
4.71256e-06
6.50849
6.84184
7.41239
8.13913
8.95652
9.81394
10.674
11.5104
12.3054
13.0484
13.7329
14.3518
14.8964
15.3614
15.745
16.0463
16.2646
16.3979
16.4427
16.3937
16.2437
15.9837
15.6031
15.0901
14.4326
13.6204
12.6473
11.5153
10.2377
8.84139
7.35922
5.86293
4.4471
3.20435
2.196
1.43619
0.899129
0.539191
0.308746
0.167479
0.0848602
0.0392434
0.0159342
0.00530192
0.00126097
0.000157116
4.71253e-06
6.50847
6.84182
7.41237
8.13911
8.9565
9.81392
10.674
11.5103
12.3054
13.0484
13.7329
14.3518
14.8964
15.3614
15.7449
16.0463
16.2646
16.3979
16.4427
16.3937
16.2437
15.9837
15.6031
15.09
14.4326
13.6203
12.6473
11.5153
10.2377
8.84136
7.35919
5.8629
4.44708
3.20434
2.19599
1.43619
0.899125
0.539188
0.308745
0.167478
0.0848598
0.0392432
0.0159342
0.00530189
0.00126097
0.000157115
4.71251e-06
6.50845
6.8418
7.41234
8.13909
8.95647
9.81389
10.674
11.5103
12.3054
13.0484
13.7328
14.3518
14.8963
15.3614
15.7449
16.0462
16.2645
16.3978
16.4426
16.3936
16.2436
15.9837
15.603
15.09
14.4325
13.6203
12.6473
11.5153
10.2377
8.84133
7.35916
5.86288
4.44706
3.20432
2.19598
1.43618
0.89912
0.539185
0.308743
0.167477
0.0848593
0.0392429
0.0159341
0.00530187
0.00126096
0.000157114
4.71249e-06
6.50842
6.84177
7.41232
8.13906
8.95645
9.81386
10.6739
11.5103
12.3053
13.0483
13.7328
14.3517
14.8963
15.3613
15.7448
16.0462
16.2645
16.3978
16.4426
16.3936
16.2436
15.9836
15.603
15.0899
14.4325
13.6203
12.6472
11.5152
10.2376
8.8413
7.35913
5.86286
4.44704
3.20431
2.19597
1.43617
0.899115
0.539182
0.308741
0.167476
0.0848588
0.0392427
0.015934
0.00530184
0.00126095
0.000157114
4.71246e-06
6.5084
6.84175
7.4123
8.13904
8.95642
9.81383
10.6739
11.5103
12.3053
13.0483
13.7328
14.3517
14.8963
15.3613
15.7448
16.0461
16.2645
16.3978
16.4425
16.3935
16.2435
15.9836
15.603
15.0899
14.4324
13.6202
12.6472
11.5152
10.2376
8.84126
7.3591
5.86283
4.44702
3.20429
2.19596
1.43616
0.89911
0.539179
0.30874
0.167475
0.0848584
0.0392425
0.0159339
0.00530181
0.00126094
0.000157113
4.71243e-06
6.50838
6.84173
7.41227
8.13901
8.95639
9.8138
10.6739
11.5102
12.3053
13.0482
13.7327
14.3517
14.8962
15.3612
15.7448
16.0461
16.2644
16.3977
16.4425
16.3935
16.2435
15.9835
15.6029
15.0899
14.4324
13.6202
12.6472
11.5151
10.2376
8.84123
7.35907
5.8628
4.44699
3.20428
2.19595
1.43615
0.899105
0.539176
0.308738
0.167474
0.0848579
0.0392423
0.0159338
0.00530178
0.00126094
0.000157112
4.71241e-06
6.50836
6.8417
7.41225
8.13899
8.95636
9.81377
10.6738
11.5102
12.3052
13.0482
13.7327
14.3516
14.8962
15.3612
15.7447
16.0461
16.2644
16.3977
16.4425
16.3934
16.2435
15.9835
15.6029
15.0898
14.4324
13.6201
12.6471
11.5151
10.2375
8.84119
7.35904
5.86278
4.44697
3.20426
2.19594
1.43615
0.8991
0.539173
0.308736
0.167473
0.0848574
0.0392421
0.0159337
0.00530175
0.00126093
0.000157111
4.71238e-06
6.50833
6.84168
7.41222
8.13896
8.95634
9.81374
10.6738
11.5102
12.3052
13.0482
13.7327
14.3516
14.8961
15.3612
15.7447
16.046
16.2643
16.3976
16.4424
16.3934
16.2434
15.9834
15.6028
15.0898
14.4323
13.6201
12.6471
11.5151
10.2375
8.84116
7.35901
5.86275
4.44695
3.20424
2.19592
1.43614
0.899095
0.53917
0.308734
0.167472
0.0848569
0.0392418
0.0159336
0.00530171
0.00126092
0.00015711
4.71235e-06
6.50831
6.84166
7.4122
8.13893
8.95631
9.81371
10.6738
11.5101
12.3052
13.0481
13.7326
14.3515
14.8961
15.3611
15.7446
16.046
16.2643
16.3976
16.4424
16.3934
16.2434
15.9834
15.6028
15.0897
14.4323
13.62
12.647
11.515
10.2374
8.84112
7.35898
5.86272
4.44693
3.20422
2.19591
1.43613
0.899089
0.539167
0.308732
0.167471
0.0848563
0.0392416
0.0159335
0.00530168
0.00126091
0.000157109
4.71232e-06
6.50828
6.84163
7.41217
8.1389
8.95628
9.81368
10.6737
11.5101
12.3051
13.0481
13.7326
14.3515
14.8961
15.3611
15.7446
16.0459
16.2642
16.3975
16.4423
16.3933
16.2433
15.9834
15.6027
15.0897
14.4322
13.62
12.647
11.515
10.2374
8.84108
7.35894
5.86269
4.4469
3.20421
2.1959
1.43612
0.899083
0.539163
0.30873
0.16747
0.0848558
0.0392413
0.0159334
0.00530165
0.00126091
0.000157108
4.71229e-06
6.50826
6.8416
7.41214
8.13887
8.95624
9.81365
10.6737
11.51
12.3051
13.0481
13.7325
14.3515
14.896
15.361
15.7445
16.0459
16.2642
16.3975
16.4423
16.3933
16.2433
15.9833
15.6027
15.0896
14.4322
13.6199
12.6469
11.5149
10.2374
8.84105
7.35891
5.86266
4.44688
3.20419
2.19588
1.43611
0.899078
0.53916
0.308728
0.167469
0.0848552
0.0392411
0.0159333
0.00530161
0.0012609
0.000157107
4.71226e-06
6.50823
6.84158
7.41211
8.13884
8.95621
9.81361
10.6737
11.51
12.305
13.048
13.7325
14.3514
14.896
15.361
15.7445
16.0458
16.2641
16.3974
16.4422
16.3932
16.2432
15.9833
15.6026
15.0896
14.4321
13.6199
12.6469
11.5149
10.2373
8.84101
7.35887
5.86263
4.44685
3.20417
2.19587
1.4361
0.899072
0.539156
0.308726
0.167468
0.0848546
0.0392408
0.0159332
0.00530157
0.00126089
0.000157106
4.71223e-06
6.50821
6.84155
7.41208
8.13881
8.95618
9.81358
10.6736
11.51
12.305
13.048
13.7324
14.3514
14.8959
15.3609
15.7444
16.0458
16.2641
16.3974
16.4422
16.3932
16.2432
15.9832
15.6026
15.0895
14.4321
13.6199
12.6468
11.5148
10.2373
8.84097
7.35884
5.8626
4.44683
3.20415
2.19586
1.43609
0.899066
0.539152
0.308724
0.167467
0.0848541
0.0392405
0.0159331
0.00530154
0.00126088
0.000157105
4.71219e-06
6.50818
6.84152
7.41205
8.13878
8.95614
9.81354
10.6736
11.5099
12.305
13.0479
13.7324
14.3513
14.8959
15.3609
15.7444
16.0457
16.264
16.3973
16.4421
16.3931
16.2431
15.9832
15.6025
15.0895
14.432
13.6198
12.6468
11.5148
10.2372
8.84092
7.3588
5.86257
4.4468
3.20413
2.19584
1.43608
0.899059
0.539149
0.308722
0.167466
0.0848534
0.0392402
0.015933
0.0053015
0.00126087
0.000157104
4.71216e-06
6.50815
6.84149
7.41202
8.13875
8.95611
9.8135
10.6735
11.5099
12.3049
13.0479
13.7323
14.3513
14.8958
15.3608
15.7443
16.0457
16.264
16.3973
16.4421
16.393
16.2431
15.9831
15.6025
15.0894
14.432
13.6197
12.6467
11.5147
10.2372
8.84088
7.35876
5.86253
4.44677
3.20411
2.19583
1.43607
0.899053
0.539145
0.30872
0.167464
0.0848528
0.0392399
0.0159329
0.00530146
0.00126086
0.000157102
4.71212e-06
6.50812
6.84146
7.41199
8.13871
8.95607
9.81346
10.6735
11.5098
12.3049
13.0478
13.7323
14.3512
14.8958
15.3608
15.7443
16.0456
16.2639
16.3972
16.442
16.393
16.243
15.983
15.6024
15.0894
14.4319
13.6197
12.6467
11.5147
10.2371
8.84084
7.35872
5.8625
4.44675
3.20409
2.19581
1.43606
0.899046
0.539141
0.308717
0.167463
0.0848522
0.0392396
0.0159327
0.00530142
0.00126085
0.000157101
4.71209e-06
6.50809
6.84143
7.41196
8.13868
8.95604
9.81342
10.6735
11.5098
12.3048
13.0478
13.7322
14.3512
14.8957
15.3607
15.7442
16.0456
16.2639
16.3972
16.442
16.3929
16.2429
15.983
15.6024
15.0893
14.4319
13.6196
12.6466
11.5146
10.2371
8.84079
7.35868
5.86246
4.44672
3.20406
2.19579
1.43605
0.899039
0.539136
0.308715
0.167462
0.0848515
0.0392393
0.0159326
0.00530138
0.00126084
0.0001571
4.71205e-06
6.50806
6.8414
7.41192
8.13864
8.956
9.81338
10.6734
11.5097
12.3048
13.0477
13.7322
14.3511
14.8957
15.3607
15.7442
16.0455
16.2638
16.3971
16.4419
16.3929
16.2429
15.9829
15.6023
15.0893
14.4318
13.6196
12.6466
11.5146
10.237
8.84074
7.35864
5.86243
4.44669
3.20404
2.19578
1.43604
0.899032
0.539132
0.308712
0.16746
0.0848508
0.039239
0.0159325
0.00530134
0.00126083
0.000157099
4.71201e-06
6.50803
6.84136
7.41189
8.1386
8.95596
9.81334
10.6734
11.5097
12.3047
13.0477
13.7321
14.3511
14.8956
15.3606
15.7441
16.0454
16.2637
16.397
16.4418
16.3928
16.2428
15.9829
15.6023
15.0892
14.4317
13.6195
12.6465
11.5145
10.237
8.8407
7.35859
5.86239
4.44666
3.20402
2.19576
1.43603
0.899025
0.539128
0.30871
0.167459
0.0848501
0.0392387
0.0159324
0.00530129
0.00126082
0.000157097
4.71197e-06
6.50799
6.84133
7.41185
8.13856
8.95592
9.8133
10.6733
11.5097
12.3047
13.0476
13.7321
14.351
14.8955
15.3605
15.7441
16.0454
16.2637
16.397
16.4418
16.3927
16.2428
15.9828
15.6022
15.0891
14.4317
13.6195
12.6465
11.5145
10.2369
8.84065
7.35855
5.86235
4.44662
3.20399
2.19574
1.43602
0.899017
0.539123
0.308707
0.167458
0.0848494
0.0392384
0.0159322
0.00530125
0.00126081
0.000157096
4.71193e-06
6.50796
6.84129
7.41182
8.13853
8.95587
9.81325
10.6733
11.5096
12.3046
13.0476
13.732
14.3509
14.8955
15.3605
15.744
16.0453
16.2636
16.3969
16.4417
16.3927
16.2427
15.9827
15.6021
15.0891
14.4316
13.6194
12.6464
11.5144
10.2369
8.84059
7.3585
5.86231
4.44659
3.20397
2.19573
1.436
0.899009
0.539118
0.308704
0.167456
0.0848487
0.039238
0.0159321
0.0053012
0.0012608
0.000157095
4.71189e-06
6.50792
6.84126
7.41178
8.13848
8.95583
9.81321
10.6732
11.5095
12.3046
13.0475
13.732
14.3509
14.8954
15.3604
15.7439
16.0453
16.2636
16.3969
16.4416
16.3926
16.2426
15.9827
15.6021
15.089
14.4315
13.6193
12.6463
11.5144
10.2368
8.84054
7.35845
5.86227
4.44656
3.20394
2.19571
1.43599
0.899002
0.539114
0.308702
0.167455
0.0848479
0.0392377
0.0159319
0.00530115
0.00126079
0.000157093
4.71185e-06
6.50789
6.84122
7.41174
8.13844
8.95579
9.81316
10.6732
11.5095
12.3045
13.0475
13.7319
14.3508
14.8954
15.3604
15.7439
16.0452
16.2635
16.3968
16.4416
16.3925
16.2426
15.9826
15.602
15.0889
14.4315
13.6193
12.6463
11.5143
10.2368
8.84049
7.3584
5.86223
4.44652
3.20391
2.19569
1.43598
0.898993
0.539109
0.308699
0.167453
0.0848471
0.0392373
0.0159318
0.0053011
0.00126078
0.000157092
4.71181e-06
6.50785
6.84118
7.4117
8.1384
8.95574
9.81311
10.6731
11.5094
12.3044
13.0474
13.7319
14.3508
14.8953
15.3603
15.7438
16.0451
16.2634
16.3967
16.4415
16.3925
16.2425
15.9825
15.6019
15.0889
14.4314
13.6192
12.6462
11.5142
10.2367
8.84043
7.35835
5.86218
4.44649
3.20389
2.19567
1.43597
0.898985
0.539103
0.308696
0.167451
0.0848463
0.0392369
0.0159316
0.00530105
0.00126076
0.00015709
4.71176e-06
6.50781
6.84114
7.41165
8.13835
8.95569
9.81306
10.6731
11.5094
12.3044
13.0473
13.7318
14.3507
14.8952
15.3602
15.7437
16.045
16.2633
16.3966
16.4414
16.3924
16.2424
15.9825
15.6018
15.0888
14.4313
13.6191
12.6461
11.5142
10.2366
8.84037
7.3583
5.86214
4.44645
3.20386
2.19565
1.43595
0.898976
0.539098
0.308693
0.16745
0.0848454
0.0392365
0.0159315
0.005301
0.00126075
0.000157089
4.71171e-06
6.50777
6.8411
7.41161
8.13831
8.95564
9.81301
10.673
11.5093
12.3043
13.0473
13.7317
14.3506
14.8952
15.3601
15.7436
16.045
16.2633
16.3966
16.4413
16.3923
16.2423
15.9824
15.6018
15.0887
14.4313
13.6191
12.6461
11.5141
10.2366
8.84031
7.35825
5.86209
4.44641
3.20383
2.19563
1.43594
0.898967
0.539093
0.30869
0.167448
0.0848445
0.0392361
0.0159313
0.00530094
0.00126074
0.000157087
4.71166e-06
6.50773
6.84106
7.41157
8.13826
8.95559
9.81295
10.673
11.5093
12.3043
13.0472
13.7317
14.3506
14.8951
15.3601
15.7436
16.0449
16.2632
16.3965
16.4413
16.3922
16.2423
15.9823
15.6017
15.0886
14.4312
13.619
12.646
11.514
10.2365
8.84025
7.35819
5.86204
4.44637
3.2038
2.19561
1.43592
0.898958
0.539087
0.308686
0.167446
0.0848436
0.0392357
0.0159311
0.00530089
0.00126073
0.000157085
4.71161e-06
6.50769
6.84101
7.41152
8.13821
8.95554
9.81289
10.6729
11.5092
12.3042
13.0471
13.7316
14.3505
14.895
15.36
15.7435
16.0448
16.2631
16.3964
16.4412
16.3922
16.2422
15.9822
15.6016
15.0886
14.4311
13.6189
12.6459
11.514
10.2364
8.84018
7.35813
5.86199
4.44633
3.20377
2.19558
1.43591
0.898948
0.539081
0.308683
0.167444
0.0848427
0.0392353
0.015931
0.00530083
0.00126071
0.000157084
4.71156e-06
6.50764
6.84097
7.41147
8.13816
8.95548
9.81284
10.6728
11.5091
12.3041
13.0471
13.7315
14.3504
14.8949
15.3599
15.7434
16.0447
16.263
16.3963
16.4411
16.3921
16.2421
15.9821
15.6015
15.0885
14.431
13.6188
12.6458
11.5139
10.2364
8.84012
7.35807
5.86194
4.44629
3.20374
2.19556
1.43589
0.898938
0.539075
0.308679
0.167443
0.0848417
0.0392348
0.0159308
0.00530077
0.0012607
0.000157082
4.71151e-06
6.50759
6.84092
7.41142
8.13811
8.95543
9.81278
10.6728
11.5091
12.3041
13.047
13.7314
14.3503