/*--------------------------------*- C++ -*----------------------------------*\
  =========                 |
  \\      /  F ield         | OpenFOAM: The Open Source CFD Toolbox
   \\    /   O peration     | Website:  https://openfoam.org
    \\  /    A nd           | Version:  7
     \\/     M anipulation  |
\*---------------------------------------------------------------------------*/
FoamFile
{
    version     2.0;
    format      ascii;
    class       volScalarField;
    location    "7009";
    object      nut;
}
// * * * * * * * * * * * * * * * * * * * * * * * * * * * * * * * * * * * * * //

dimensions      [0 2 -1 0 0 0 0];

internalField   nonuniform List<scalar> 
31819
(
0.000317927
0.000312175
0.000302616
0.000290764
0.000277556
0.000263498
0.000248883
0.000233925
0.000218784
0.000202435
0.000185116
0.00016906
0.000154359
0.000140646
0.000127634
0.000115195
0.000103305
9.19928e-05
8.1302e-05
7.12737e-05
6.19409e-05
5.3327e-05
4.54457e-05
3.83013e-05
3.1888e-05
2.61915e-05
2.11943e-05
1.68654e-05
1.31608e-05
9.99668e-06
7.12789e-06
4.82211e-06
3.06875e-06
1.82455e-06
1.00962e-06
5.19472e-07
2.48568e-07
1.10471e-07
4.53598e-08
1.70066e-08
5.70065e-09
1.64889e-09
3.87704e-10
6.6664e-11
6.82365e-12
2.64362e-13
1.29128e-15
0.000317927
0.000312175
0.000302616
0.000290764
0.000277556
0.000263498
0.000248883
0.000233925
0.000218784
0.000202435
0.000185116
0.00016906
0.000154359
0.000140646
0.000127634
0.000115195
0.000103305
9.19927e-05
8.1302e-05
7.12737e-05
6.19409e-05
5.3327e-05
4.54457e-05
3.83013e-05
3.1888e-05
2.61915e-05
2.11943e-05
1.68654e-05
1.31609e-05
9.99671e-06
7.12791e-06
4.82213e-06
3.06876e-06
1.82455e-06
1.00962e-06
5.19475e-07
2.4857e-07
1.10472e-07
4.53602e-08
1.70068e-08
5.70069e-09
1.6489e-09
3.87707e-10
6.66645e-11
6.82369e-12
2.64364e-13
1.29129e-15
0.000317927
0.000312175
0.000302616
0.000290764
0.000277556
0.000263498
0.000248883
0.000233925
0.000218784
0.000202434
0.000185116
0.00016906
0.000154359
0.000140646
0.000127634
0.000115195
0.000103305
9.19928e-05
8.1302e-05
7.12738e-05
6.1941e-05
5.33271e-05
4.54458e-05
3.83014e-05
3.18881e-05
2.61916e-05
2.11944e-05
1.68654e-05
1.31609e-05
9.99675e-06
7.12794e-06
4.82215e-06
3.06878e-06
1.82457e-06
1.00963e-06
5.19479e-07
2.48572e-07
1.10473e-07
4.53605e-08
1.70069e-08
5.70073e-09
1.64892e-09
3.8771e-10
6.6665e-11
6.82374e-12
2.64366e-13
1.2913e-15
0.000317927
0.000312175
0.000302617
0.000290764
0.000277556
0.000263498
0.000248883
0.000233925
0.000218785
0.000202434
0.000185115
0.00016906
0.000154359
0.000140646
0.000127634
0.000115195
0.000103305
9.19929e-05
8.13022e-05
7.12739e-05
6.19411e-05
5.33272e-05
4.54459e-05
3.83014e-05
3.18881e-05
2.61916e-05
2.11944e-05
1.68655e-05
1.31609e-05
9.99679e-06
7.12797e-06
4.82218e-06
3.06879e-06
1.82458e-06
1.00964e-06
5.19482e-07
2.48573e-07
1.10474e-07
4.53608e-08
1.7007e-08
5.70077e-09
1.64893e-09
3.87713e-10
6.66654e-11
6.82379e-12
2.64367e-13
1.29131e-15
0.000317927
0.000312175
0.000302617
0.000290764
0.000277556
0.000263498
0.000248883
0.000233925
0.000218785
0.000202434
0.000185116
0.00016906
0.000154359
0.000140646
0.000127634
0.000115195
0.000103305
9.1993e-05
8.13023e-05
7.1274e-05
6.19412e-05
5.33273e-05
4.5446e-05
3.83015e-05
3.18882e-05
2.61917e-05
2.11945e-05
1.68655e-05
1.3161e-05
9.99682e-06
7.128e-06
4.8222e-06
3.06881e-06
1.82458e-06
1.00964e-06
5.19485e-07
2.48575e-07
1.10474e-07
4.53611e-08
1.70071e-08
5.7008e-09
1.64894e-09
3.87715e-10
6.66658e-11
6.82383e-12
2.64369e-13
1.29132e-15
0.000317927
0.000312175
0.000302617
0.000290765
0.000277556
0.000263498
0.000248884
0.000233925
0.000218785
0.000202435
0.000185116
0.00016906
0.000154359
0.000140646
0.000127635
0.000115195
0.000103305
9.19932e-05
8.13024e-05
7.12741e-05
6.19413e-05
5.33274e-05
4.54461e-05
3.83016e-05
3.18883e-05
2.61917e-05
2.11945e-05
1.68656e-05
1.3161e-05
9.99685e-06
7.12802e-06
4.82221e-06
3.06882e-06
1.82459e-06
1.00965e-06
5.19488e-07
2.48576e-07
1.10475e-07
4.53613e-08
1.70072e-08
5.70083e-09
1.64895e-09
3.87717e-10
6.66662e-11
6.82387e-12
2.6437e-13
1.29132e-15
0.000317927
0.000312175
0.000302617
0.000290765
0.000277557
0.000263498
0.000248884
0.000233926
0.000218785
0.000202435
0.000185116
0.00016906
0.00015436
0.000140646
0.000127635
0.000115195
0.000103305
9.19933e-05
8.13025e-05
7.12742e-05
6.19414e-05
5.33275e-05
4.54462e-05
3.83017e-05
3.18883e-05
2.61918e-05
2.11946e-05
1.68656e-05
1.3161e-05
9.99687e-06
7.12804e-06
4.82223e-06
3.06883e-06
1.8246e-06
1.00965e-06
5.1949e-07
2.48577e-07
1.10475e-07
4.53615e-08
1.70073e-08
5.70086e-09
1.64896e-09
3.87719e-10
6.66665e-11
6.8239e-12
2.64372e-13
1.29133e-15
0.000317927
0.000312175
0.000302617
0.000290765
0.000277557
0.000263499
0.000248884
0.000233926
0.000218785
0.000202435
0.000185116
0.000169061
0.00015436
0.000140647
0.000127635
0.000115195
0.000103305
9.19934e-05
8.13026e-05
7.12743e-05
6.19415e-05
5.33276e-05
4.54462e-05
3.83017e-05
3.18884e-05
2.61918e-05
2.11946e-05
1.68657e-05
1.31611e-05
9.9969e-06
7.12806e-06
4.82224e-06
3.06884e-06
1.82461e-06
1.00965e-06
5.19492e-07
2.48578e-07
1.10476e-07
4.53617e-08
1.70074e-08
5.70088e-09
1.64896e-09
3.87721e-10
6.66668e-11
6.82393e-12
2.64373e-13
1.29134e-15
0.000317927
0.000312175
0.000302617
0.000290765
0.000277557
0.000263499
0.000248884
0.000233926
0.000218785
0.000202435
0.000185116
0.000169061
0.00015436
0.000140647
0.000127635
0.000115195
0.000103305
9.19935e-05
8.13027e-05
7.12744e-05
6.19416e-05
5.33277e-05
4.54463e-05
3.83018e-05
3.18884e-05
2.61919e-05
2.11947e-05
1.68657e-05
1.31611e-05
9.99692e-06
7.12808e-06
4.82225e-06
3.06885e-06
1.82461e-06
1.00966e-06
5.19494e-07
2.48579e-07
1.10476e-07
4.53619e-08
1.70074e-08
5.7009e-09
1.64897e-09
3.87722e-10
6.6667e-11
6.82396e-12
2.64374e-13
1.29134e-15
0.000317927
0.000312175
0.000302617
0.000290765
0.000277557
0.000263499
0.000248884
0.000233926
0.000218786
0.000202435
0.000185116
0.000169061
0.00015436
0.000140647
0.000127635
0.000115195
0.000103306
9.19936e-05
8.13028e-05
7.12745e-05
6.19417e-05
5.33277e-05
4.54464e-05
3.83018e-05
3.18885e-05
2.61919e-05
2.11947e-05
1.68657e-05
1.31611e-05
9.99693e-06
7.12809e-06
4.82226e-06
3.06885e-06
1.82461e-06
1.00966e-06
5.19495e-07
2.4858e-07
1.10477e-07
4.5362e-08
1.70075e-08
5.70092e-09
1.64897e-09
3.87723e-10
6.66672e-11
6.82398e-12
2.64375e-13
1.29134e-15
0.000317928
0.000312176
0.000302618
0.000290765
0.000277557
0.000263499
0.000248884
0.000233926
0.000218786
0.000202435
0.000185116
0.000169061
0.00015436
0.000140647
0.000127635
0.000115196
0.000103306
9.19937e-05
8.13029e-05
7.12745e-05
6.19417e-05
5.33278e-05
4.54464e-05
3.83019e-05
3.18885e-05
2.61919e-05
2.11947e-05
1.68657e-05
1.31611e-05
9.99695e-06
7.1281e-06
4.82227e-06
3.06886e-06
1.82462e-06
1.00966e-06
5.19496e-07
2.4858e-07
1.10477e-07
4.53621e-08
1.70075e-08
5.70093e-09
1.64898e-09
3.87724e-10
6.66674e-11
6.82399e-12
2.64375e-13
1.29135e-15
0.000317928
0.000312176
0.000302618
0.000290765
0.000277557
0.000263499
0.000248885
0.000233926
0.000218786
0.000202435
0.000185116
0.000169061
0.00015436
0.000140647
0.000127635
0.000115196
0.000103306
9.19937e-05
8.13029e-05
7.12746e-05
6.19418e-05
5.33278e-05
4.54464e-05
3.83019e-05
3.18885e-05
2.6192e-05
2.11947e-05
1.68657e-05
1.31611e-05
9.99696e-06
7.12811e-06
4.82228e-06
3.06886e-06
1.82462e-06
1.00966e-06
5.19497e-07
2.48581e-07
1.10477e-07
4.53622e-08
1.70075e-08
5.70094e-09
1.64898e-09
3.87725e-10
6.66675e-11
6.82401e-12
2.64376e-13
1.29135e-15
0.000317928
0.000312176
0.000302618
0.000290765
0.000277557
0.000263499
0.000248885
0.000233926
0.000218786
0.000202435
0.000185116
0.000169061
0.00015436
0.000140647
0.000127635
0.000115196
0.000103306
9.19938e-05
8.1303e-05
7.12746e-05
6.19418e-05
5.33278e-05
4.54465e-05
3.83019e-05
3.18885e-05
2.6192e-05
2.11947e-05
1.68657e-05
1.31611e-05
9.99696e-06
7.12811e-06
4.82228e-06
3.06887e-06
1.82462e-06
1.00967e-06
5.19498e-07
2.48581e-07
1.10477e-07
4.53623e-08
1.70076e-08
5.70095e-09
1.64898e-09
3.87725e-10
6.66676e-11
6.82402e-12
2.64376e-13
1.29135e-15
0.000317928
0.000312176
0.000302618
0.000290766
0.000277558
0.000263499
0.000248885
0.000233926
0.000218786
0.000202435
0.000185116
0.000169061
0.00015436
0.000140647
0.000127635
0.000115196
0.000103306
9.19938e-05
8.1303e-05
7.12747e-05
6.19418e-05
5.33279e-05
4.54465e-05
3.83019e-05
3.18886e-05
2.6192e-05
2.11947e-05
1.68658e-05
1.31612e-05
9.99697e-06
7.12812e-06
4.82228e-06
3.06887e-06
1.82462e-06
1.00967e-06
5.19498e-07
2.48581e-07
1.10477e-07
4.53623e-08
1.70076e-08
5.70096e-09
1.64898e-09
3.87726e-10
6.66677e-11
6.82402e-12
2.64376e-13
1.29135e-15
0.000317928
0.000312176
0.000302618
0.000290766
0.000277558
0.000263499
0.000248885
0.000233926
0.000218786
0.000202435
0.000185116
0.000169061
0.00015436
0.000140647
0.000127635
0.000115196
0.000103306
9.19938e-05
8.1303e-05
7.12747e-05
6.19418e-05
5.33279e-05
4.54465e-05
3.83019e-05
3.18886e-05
2.6192e-05
2.11947e-05
1.68658e-05
1.31612e-05
9.99697e-06
7.12812e-06
4.82229e-06
3.06887e-06
1.82463e-06
1.00967e-06
5.19498e-07
2.48582e-07
1.10477e-07
4.53623e-08
1.70076e-08
5.70096e-09
1.64898e-09
3.87726e-10
6.66677e-11
6.82403e-12
2.64376e-13
1.29135e-15
0.000317928
0.000312176
0.000302618
0.000290766
0.000277558
0.000263499
0.000248885
0.000233926
0.000218786
0.000202435
0.000185116
0.000169061
0.00015436
0.000140647
0.000127635
0.000115196
0.000103306
9.19938e-05
8.1303e-05
7.12747e-05
6.19418e-05
5.33279e-05
4.54465e-05
3.83019e-05
3.18886e-05
2.6192e-05
2.11948e-05
1.68658e-05
1.31612e-05
9.99697e-06
7.12812e-06
4.82229e-06
3.06887e-06
1.82463e-06
1.00967e-06
5.19498e-07
2.48582e-07
1.10477e-07
4.53623e-08
1.70076e-08
5.70096e-09
1.64899e-09
3.87726e-10
6.66677e-11
6.82403e-12
2.64377e-13
1.29135e-15
0.000317928
0.000312176
0.000302618
0.000290765
0.000277558
0.000263499
0.000248885
0.000233926
0.000218786
0.000202435
0.000185116
0.000169061
0.00015436
0.000140647
0.000127635
0.000115196
0.000103306
9.19938e-05
8.1303e-05
7.12747e-05
6.19418e-05
5.33279e-05
4.54465e-05
3.83019e-05
3.18886e-05
2.6192e-05
2.11947e-05
1.68658e-05
1.31612e-05
9.99697e-06
7.12812e-06
4.82229e-06
3.06887e-06
1.82463e-06
1.00967e-06
5.19498e-07
2.48582e-07
1.10477e-07
4.53623e-08
1.70076e-08
5.70096e-09
1.64898e-09
3.87726e-10
6.66677e-11
6.82403e-12
2.64376e-13
1.29135e-15
0.000317928
0.000312176
0.000302618
0.000290765
0.000277557
0.000263499
0.000248885
0.000233926
0.000218786
0.000202435
0.000185116
0.000169061
0.00015436
0.000140647
0.000127635
0.000115196
0.000103306
9.19938e-05
8.1303e-05
7.12747e-05
6.19418e-05
5.33279e-05
4.54465e-05
3.83019e-05
3.18886e-05
2.6192e-05
2.11947e-05
1.68658e-05
1.31612e-05
9.99697e-06
7.12812e-06
4.82228e-06
3.06887e-06
1.82462e-06
1.00967e-06
5.19498e-07
2.48581e-07
1.10477e-07
4.53623e-08
1.70076e-08
5.70096e-09
1.64898e-09
3.87726e-10
6.66677e-11
6.82402e-12
2.64376e-13
1.29135e-15
0.000317928
0.000312175
0.000302617
0.000290765
0.000277557
0.000263499
0.000248885
0.000233926
0.000218786
0.000202435
0.000185116
0.000169061
0.00015436
0.000140647
0.000127635
0.000115196
0.000103306
9.19938e-05
8.1303e-05
7.12746e-05
6.19418e-05
5.33278e-05
4.54465e-05
3.83019e-05
3.18885e-05
2.6192e-05
2.11947e-05
1.68657e-05
1.31611e-05
9.99696e-06
7.12811e-06
4.82228e-06
3.06887e-06
1.82462e-06
1.00967e-06
5.19498e-07
2.48581e-07
1.10477e-07
4.53623e-08
1.70076e-08
5.70095e-09
1.64898e-09
3.87725e-10
6.66676e-11
6.82402e-12
2.64376e-13
1.29135e-15
0.000317927
0.000312175
0.000302617
0.000290765
0.000277557
0.000263499
0.000248884
0.000233926
0.000218786
0.000202435
0.000185116
0.000169061
0.00015436
0.000140647
0.000127635
0.000115196
0.000103306
9.19938e-05
8.1303e-05
7.12746e-05
6.19418e-05
5.33278e-05
4.54464e-05
3.83019e-05
3.18885e-05
2.6192e-05
2.11947e-05
1.68657e-05
1.31611e-05
9.99696e-06
7.12811e-06
4.82228e-06
3.06886e-06
1.82462e-06
1.00966e-06
5.19497e-07
2.48581e-07
1.10477e-07
4.53622e-08
1.70075e-08
5.70095e-09
1.64898e-09
3.87725e-10
6.66676e-11
6.82401e-12
2.64376e-13
1.29135e-15
0.000317927
0.000312175
0.000302617
0.000290765
0.000277557
0.000263499
0.000248884
0.000233926
0.000218786
0.000202435
0.000185116
0.000169061
0.00015436
0.000140647
0.000127635
0.000115196
0.000103306
9.19937e-05
8.13029e-05
7.12746e-05
6.19417e-05
5.33278e-05
4.54464e-05
3.83019e-05
3.18885e-05
2.6192e-05
2.11947e-05
1.68657e-05
1.31611e-05
9.99695e-06
7.1281e-06
4.82227e-06
3.06886e-06
1.82462e-06
1.00966e-06
5.19497e-07
2.48581e-07
1.10477e-07
4.53622e-08
1.70075e-08
5.70094e-09
1.64898e-09
3.87725e-10
6.66675e-11
6.824e-12
2.64375e-13
1.29135e-15
0.000317927
0.000312175
0.000302617
0.000290765
0.000277557
0.000263499
0.000248884
0.000233926
0.000218786
0.000202435
0.000185116
0.000169061
0.00015436
0.000140647
0.000127635
0.000115196
0.000103306
9.19937e-05
8.13029e-05
7.12745e-05
6.19417e-05
5.33278e-05
4.54464e-05
3.83019e-05
3.18885e-05
2.61919e-05
2.11947e-05
1.68657e-05
1.31611e-05
9.99694e-06
7.1281e-06
4.82227e-06
3.06886e-06
1.82462e-06
1.00966e-06
5.19496e-07
2.4858e-07
1.10477e-07
4.53621e-08
1.70075e-08
5.70093e-09
1.64898e-09
3.87724e-10
6.66674e-11
6.82399e-12
2.64375e-13
1.29135e-15
0.000317927
0.000312175
0.000302617
0.000290765
0.000277557
0.000263499
0.000248884
0.000233926
0.000218785
0.000202435
0.000185116
0.000169061
0.00015436
0.000140647
0.000127635
0.000115195
0.000103306
9.19936e-05
8.13028e-05
7.12745e-05
6.19417e-05
5.33277e-05
4.54464e-05
3.83018e-05
3.18885e-05
2.61919e-05
2.11947e-05
1.68657e-05
1.31611e-05
9.99693e-06
7.12809e-06
4.82226e-06
3.06885e-06
1.82461e-06
1.00966e-06
5.19495e-07
2.4858e-07
1.10477e-07
4.5362e-08
1.70075e-08
5.70092e-09
1.64897e-09
3.87723e-10
6.66672e-11
6.82398e-12
2.64375e-13
1.29134e-15
0.000317927
0.000312175
0.000302617
0.000290765
0.000277557
0.000263498
0.000248884
0.000233926
0.000218785
0.000202434
0.000185116
0.00016906
0.00015436
0.000140647
0.000127635
0.000115195
0.000103306
9.19936e-05
8.13028e-05
7.12744e-05
6.19416e-05
5.33277e-05
4.54463e-05
3.83018e-05
3.18884e-05
2.61919e-05
2.11947e-05
1.68657e-05
1.31611e-05
9.99692e-06
7.12808e-06
4.82226e-06
3.06885e-06
1.82461e-06
1.00966e-06
5.19494e-07
2.48579e-07
1.10476e-07
4.53619e-08
1.70074e-08
5.70091e-09
1.64897e-09
3.87722e-10
6.66671e-11
6.82396e-12
2.64374e-13
1.29134e-15
0.000317926
0.000312174
0.000302616
0.000290764
0.000277556
0.000263498
0.000248884
0.000233926
0.000218785
0.000202434
0.000185115
0.00016906
0.00015436
0.000140647
0.000127635
0.000115195
0.000103305
9.19935e-05
8.13027e-05
7.12744e-05
6.19416e-05
5.33276e-05
4.54463e-05
3.83018e-05
3.18884e-05
2.61919e-05
2.11946e-05
1.68657e-05
1.31611e-05
9.99691e-06
7.12807e-06
4.82225e-06
3.06884e-06
1.82461e-06
1.00966e-06
5.19493e-07
2.48579e-07
1.10476e-07
4.53618e-08
1.70074e-08
5.7009e-09
1.64897e-09
3.87722e-10
6.6667e-11
6.82395e-12
2.64373e-13
1.29134e-15
0.000317926
0.000312174
0.000302616
0.000290764
0.000277556
0.000263498
0.000248884
0.000233925
0.000218785
0.000202434
0.000185115
0.00016906
0.00015436
0.000140647
0.000127635
0.000115195
0.000103305
9.19934e-05
8.13026e-05
7.12743e-05
6.19415e-05
5.33276e-05
4.54462e-05
3.83017e-05
3.18884e-05
2.61918e-05
2.11946e-05
1.68657e-05
1.31611e-05
9.9969e-06
7.12806e-06
4.82224e-06
3.06884e-06
1.82461e-06
1.00965e-06
5.19492e-07
2.48578e-07
1.10476e-07
4.53617e-08
1.70074e-08
5.70088e-09
1.64896e-09
3.87721e-10
6.66668e-11
6.82393e-12
2.64373e-13
1.29134e-15
0.000317926
0.000312174
0.000302616
0.000290764
0.000277556
0.000263498
0.000248883
0.000233925
0.000218785
0.000202434
0.000185115
0.00016906
0.000154359
0.000140646
0.000127635
0.000115195
0.000103305
9.19933e-05
8.13026e-05
7.12743e-05
6.19415e-05
5.33275e-05
4.54462e-05
3.83017e-05
3.18884e-05
2.61918e-05
2.11946e-05
1.68656e-05
1.31611e-05
9.99688e-06
7.12805e-06
4.82223e-06
3.06883e-06
1.8246e-06
1.00965e-06
5.19491e-07
2.48578e-07
1.10476e-07
4.53616e-08
1.70073e-08
5.70087e-09
1.64896e-09
3.8772e-10
6.66666e-11
6.82391e-12
2.64372e-13
1.29133e-15
0.000317925
0.000312173
0.000302616
0.000290764
0.000277556
0.000263498
0.000248883
0.000233925
0.000218785
0.000202434
0.000185115
0.00016906
0.000154359
0.000140646
0.000127635
0.000115195
0.000103305
9.19932e-05
8.13025e-05
7.12742e-05
6.19414e-05
5.33275e-05
4.54462e-05
3.83017e-05
3.18883e-05
2.61918e-05
2.11946e-05
1.68656e-05
1.3161e-05
9.99687e-06
7.12804e-06
4.82223e-06
3.06883e-06
1.8246e-06
1.00965e-06
5.19489e-07
2.48577e-07
1.10475e-07
4.53615e-08
1.70073e-08
5.70085e-09
1.64895e-09
3.87719e-10
6.66665e-11
6.8239e-12
2.64371e-13
1.29133e-15
0.000317925
0.000312173
0.000302615
0.000290763
0.000277555
0.000263497
0.000248883
0.000233925
0.000218784
0.000202434
0.000185115
0.00016906
0.000154359
0.000140646
0.000127635
0.000115195
0.000103305
9.19932e-05
8.13024e-05
7.12741e-05
6.19413e-05
5.33274e-05
4.54461e-05
3.83016e-05
3.18883e-05
2.61918e-05
2.11945e-05
1.68656e-05
1.3161e-05
9.99685e-06
7.12803e-06
4.82222e-06
3.06882e-06
1.82459e-06
1.00965e-06
5.19488e-07
2.48576e-07
1.10475e-07
4.53613e-08
1.70072e-08
5.70084e-09
1.64895e-09
3.87717e-10
6.66663e-11
6.82388e-12
2.64371e-13
1.29132e-15
0.000317925
0.000312173
0.000302615
0.000290763
0.000277555
0.000263497
0.000248883
0.000233925
0.000218784
0.000202433
0.000185115
0.00016906
0.000154359
0.000140646
0.000127634
0.000115195
0.000103305
9.19931e-05
8.13023e-05
7.1274e-05
6.19413e-05
5.33274e-05
4.54461e-05
3.83016e-05
3.18882e-05
2.61917e-05
2.11945e-05
1.68656e-05
1.3161e-05
9.99684e-06
7.12801e-06
4.82221e-06
3.06881e-06
1.82459e-06
1.00965e-06
5.19487e-07
2.48576e-07
1.10475e-07
4.53612e-08
1.70072e-08
5.70082e-09
1.64894e-09
3.87716e-10
6.66661e-11
6.82386e-12
2.6437e-13
1.29132e-15
0.000317924
0.000312172
0.000302615
0.000290763
0.000277555
0.000263497
0.000248882
0.000233924
0.000218784
0.000202433
0.000185114
0.000169059
0.000154359
0.000140646
0.000127634
0.000115195
0.000103305
9.1993e-05
8.13022e-05
7.1274e-05
6.19412e-05
5.33273e-05
4.5446e-05
3.83015e-05
3.18882e-05
2.61917e-05
2.11945e-05
1.68655e-05
1.3161e-05
9.99682e-06
7.128e-06
4.8222e-06
3.06881e-06
1.82458e-06
1.00964e-06
5.19485e-07
2.48575e-07
1.10474e-07
4.53611e-08
1.70071e-08
5.7008e-09
1.64894e-09
3.87715e-10
6.66659e-11
6.82383e-12
2.64369e-13
1.29132e-15
0.000317924
0.000312172
0.000302614
0.000290762
0.000277555
0.000263496
0.000248882
0.000233924
0.000218784
0.000202433
0.000185114
0.000169059
0.000154359
0.000140646
0.000127634
0.000115195
0.000103305
9.19929e-05
8.13022e-05
7.12739e-05
6.19411e-05
5.33272e-05
4.54459e-05
3.83015e-05
3.18882e-05
2.61916e-05
2.11945e-05
1.68655e-05
1.3161e-05
9.9968e-06
7.12798e-06
4.82219e-06
3.0688e-06
1.82458e-06
1.00964e-06
5.19484e-07
2.48574e-07
1.10474e-07
4.53609e-08
1.70071e-08
5.70078e-09
1.64893e-09
3.87714e-10
6.66656e-11
6.82381e-12
2.64368e-13
1.29131e-15
0.000317924
0.000312172
0.000302614
0.000290762
0.000277554
0.000263496
0.000248882
0.000233924
0.000218784
0.000202433
0.000185114
0.000169059
0.000154358
0.000140646
0.000127634
0.000115194
0.000103305
9.19928e-05
8.13021e-05
7.12738e-05
6.1941e-05
5.33272e-05
4.54459e-05
3.83014e-05
3.18881e-05
2.61916e-05
2.11944e-05
1.68655e-05
1.31609e-05
9.99678e-06
7.12797e-06
4.82218e-06
3.06879e-06
1.82457e-06
1.00964e-06
5.19482e-07
2.48573e-07
1.10474e-07
4.53608e-08
1.7007e-08
5.70076e-09
1.64893e-09
3.87712e-10
6.66654e-11
6.82379e-12
2.64367e-13
1.29131e-15
0.000317923
0.000312171
0.000302613
0.000290762
0.000277554
0.000263496
0.000248881
0.000233924
0.000218783
0.000202432
0.000185114
0.000169059
0.000154358
0.000140645
0.000127634
0.000115194
0.000103304
9.19926e-05
8.1302e-05
7.12737e-05
6.1941e-05
5.33271e-05
4.54458e-05
3.83014e-05
3.18881e-05
2.61916e-05
2.11944e-05
1.68655e-05
1.31609e-05
9.99676e-06
7.12796e-06
4.82216e-06
3.06878e-06
1.82457e-06
1.00963e-06
5.1948e-07
2.48573e-07
1.10473e-07
4.53606e-08
1.70069e-08
5.70074e-09
1.64892e-09
3.87711e-10
6.66652e-11
6.82376e-12
2.64366e-13
1.2913e-15
0.000317923
0.000312171
0.000302613
0.000290761
0.000277554
0.000263495
0.000248881
0.000233923
0.000218783
0.000202432
0.000185113
0.000169059
0.000154358
0.000140645
0.000127634
0.000115194
0.000103304
9.19925e-05
8.13019e-05
7.12736e-05
6.19409e-05
5.3327e-05
4.54458e-05
3.83013e-05
3.1888e-05
2.61915e-05
2.11944e-05
1.68654e-05
1.31609e-05
9.99674e-06
7.12794e-06
4.82215e-06
3.06878e-06
1.82456e-06
1.00963e-06
5.19478e-07
2.48572e-07
1.10473e-07
4.53604e-08
1.70069e-08
5.70072e-09
1.64892e-09
3.8771e-10
6.66649e-11
6.82374e-12
2.64365e-13
1.2913e-15
0.000317922
0.00031217
0.000302613
0.000290761
0.000277553
0.000263495
0.000248881
0.000233923
0.000218783
0.000202432
0.000185113
0.000169058
0.000154358
0.000140645
0.000127634
0.000115194
0.000103304
9.19924e-05
8.13017e-05
7.12735e-05
6.19408e-05
5.3327e-05
4.54457e-05
3.83013e-05
3.1888e-05
2.61915e-05
2.11943e-05
1.68654e-05
1.31609e-05
9.99672e-06
7.12792e-06
4.82214e-06
3.06877e-06
1.82456e-06
1.00963e-06
5.19477e-07
2.48571e-07
1.10472e-07
4.53603e-08
1.70068e-08
5.7007e-09
1.64891e-09
3.87708e-10
6.66647e-11
6.82371e-12
2.64364e-13
1.29129e-15
0.000317922
0.00031217
0.000302612
0.00029076
0.000277553
0.000263495
0.000248881
0.000233923
0.000218782
0.000202432
0.000185113
0.000169058
0.000154358
0.000140645
0.000127633
0.000115194
0.000103304
9.19923e-05
8.13016e-05
7.12734e-05
6.19407e-05
5.33269e-05
4.54456e-05
3.83012e-05
3.18879e-05
2.61914e-05
2.11943e-05
1.68654e-05
1.31608e-05
9.9967e-06
7.12791e-06
4.82213e-06
3.06876e-06
1.82455e-06
1.00962e-06
5.19475e-07
2.4857e-07
1.10472e-07
4.53601e-08
1.70067e-08
5.70068e-09
1.6489e-09
3.87707e-10
6.66644e-11
6.82369e-12
2.64363e-13
1.29129e-15
0.000317921
0.00031217
0.000302612
0.00029076
0.000277552
0.000263494
0.00024888
0.000233922
0.000218782
0.000202431
0.000185113
0.000169058
0.000154357
0.000140645
0.000127633
0.000115194
0.000103304
9.19922e-05
8.13015e-05
7.12733e-05
6.19406e-05
5.33268e-05
4.54456e-05
3.83011e-05
3.18879e-05
2.61914e-05
2.11943e-05
1.68653e-05
1.31608e-05
9.99668e-06
7.12789e-06
4.82211e-06
3.06875e-06
1.82455e-06
1.00962e-06
5.19473e-07
2.48569e-07
1.10472e-07
4.53599e-08
1.70067e-08
5.70066e-09
1.6489e-09
3.87705e-10
6.66641e-11
6.82366e-12
2.64362e-13
1.29128e-15
0.000317921
0.000312169
0.000302611
0.00029076
0.000277552
0.000263494
0.00024888
0.000233922
0.000218782
0.000202431
0.000185112
0.000169058
0.000154357
0.000140644
0.000127633
0.000115194
0.000103304
9.1992e-05
8.13014e-05
7.12732e-05
6.19405e-05
5.33267e-05
4.54455e-05
3.83011e-05
3.18878e-05
2.61914e-05
2.11942e-05
1.68653e-05
1.31608e-05
9.99666e-06
7.12787e-06
4.8221e-06
3.06874e-06
1.82454e-06
1.00962e-06
5.19471e-07
2.48568e-07
1.10471e-07
4.53597e-08
1.70066e-08
5.70063e-09
1.64889e-09
3.87703e-10
6.66639e-11
6.82363e-12
2.64361e-13
1.29128e-15
0.00031792
0.000312169
0.000302611
0.000290759
0.000277552
0.000263494
0.00024888
0.000233922
0.000218782
0.000202431
0.000185112
0.000169057
0.000154357
0.000140644
0.000127633
0.000115193
0.000103304
9.19919e-05
8.13013e-05
7.12731e-05
6.19404e-05
5.33266e-05
4.54454e-05
3.8301e-05
3.18878e-05
2.61913e-05
2.11942e-05
1.68653e-05
1.31608e-05
9.99663e-06
7.12785e-06
4.82209e-06
3.06873e-06
1.82453e-06
1.00961e-06
5.19469e-07
2.48567e-07
1.10471e-07
4.53595e-08
1.70065e-08
5.70061e-09
1.64888e-09
3.87702e-10
6.66636e-11
6.8236e-12
2.6436e-13
1.29127e-15
0.00031792
0.000312168
0.00030261
0.000290759
0.000277551
0.000263493
0.000248879
0.000233921
0.000218781
0.00020243
0.000185112
0.000169057
0.000154357
0.000140644
0.000127633
0.000115193
0.000103304
9.19918e-05
8.13012e-05
7.1273e-05
6.19403e-05
5.33266e-05
4.54453e-05
3.83009e-05
3.18877e-05
2.61913e-05
2.11941e-05
1.68652e-05
1.31607e-05
9.99661e-06
7.12783e-06
4.82207e-06
3.06872e-06
1.82453e-06
1.00961e-06
5.19467e-07
2.48566e-07
1.1047e-07
4.53593e-08
1.70065e-08
5.70058e-09
1.64887e-09
3.877e-10
6.66633e-11
6.82357e-12
2.64359e-13
1.29127e-15
0.000317919
0.000312168
0.00030261
0.000290758
0.000277551
0.000263493
0.000248879
0.000233921
0.000218781
0.00020243
0.000185112
0.000169057
0.000154357
0.000140644
0.000127632
0.000115193
0.000103303
9.19916e-05
8.1301e-05
7.12729e-05
6.19402e-05
5.33265e-05
4.54453e-05
3.83009e-05
3.18876e-05
2.61912e-05
2.11941e-05
1.68652e-05
1.31607e-05
9.99658e-06
7.12781e-06
4.82206e-06
3.06871e-06
1.82452e-06
1.0096e-06
5.19465e-07
2.48565e-07
1.1047e-07
4.53591e-08
1.70064e-08
5.70056e-09
1.64887e-09
3.87698e-10
6.6663e-11
6.82354e-12
2.64358e-13
1.29126e-15
0.000317919
0.000312167
0.000302609
0.000290758
0.00027755
0.000263492
0.000248878
0.000233921
0.000218781
0.00020243
0.000185111
0.000169057
0.000154356
0.000140644
0.000127632
0.000115193
0.000103303
9.19915e-05
8.13009e-05
7.12728e-05
6.19401e-05
5.33264e-05
4.54452e-05
3.83008e-05
3.18876e-05
2.61912e-05
2.1194e-05
1.68652e-05
1.31607e-05
9.99656e-06
7.12779e-06
4.82204e-06
3.0687e-06
1.82451e-06
1.0096e-06
5.19462e-07
2.48564e-07
1.10469e-07
4.53589e-08
1.70063e-08
5.70053e-09
1.64886e-09
3.87696e-10
6.66626e-11
6.82351e-12
2.64356e-13
1.29125e-15
0.000317918
0.000312167
0.000302609
0.000290757
0.00027755
0.000263492
0.000248878
0.00023392
0.00021878
0.000202429
0.000185111
0.000169056
0.000154356
0.000140643
0.000127632
0.000115193
0.000103303
9.19913e-05
8.13008e-05
7.12726e-05
6.194e-05
5.33263e-05
4.54451e-05
3.83007e-05
3.18875e-05
2.61911e-05
2.1194e-05
1.68651e-05
1.31606e-05
9.99653e-06
7.12777e-06
4.82203e-06
3.06869e-06
1.82451e-06
1.0096e-06
5.1946e-07
2.48563e-07
1.10469e-07
4.53587e-08
1.70062e-08
5.7005e-09
1.64885e-09
3.87695e-10
6.66623e-11
6.82347e-12
2.64355e-13
1.29125e-15
0.000317918
0.000312166
0.000302608
0.000290757
0.000277549
0.000263492
0.000248878
0.00023392
0.00021878
0.000202429
0.000185111
0.000169056
0.000154356
0.000140643
0.000127632
0.000115193
0.000103303
9.19912e-05
8.13006e-05
7.12725e-05
6.19399e-05
5.33262e-05
4.5445e-05
3.83007e-05
3.18875e-05
2.61911e-05
2.1194e-05
1.68651e-05
1.31606e-05
9.99651e-06
7.12775e-06
4.82201e-06
3.06868e-06
1.8245e-06
1.00959e-06
5.19458e-07
2.48561e-07
1.10468e-07
4.53585e-08
1.70061e-08
5.70047e-09
1.64884e-09
3.87693e-10
6.6662e-11
6.82344e-12
2.64354e-13
1.29124e-15
0.000317917
0.000312165
0.000302608
0.000290756
0.000277549
0.000263491
0.000248877
0.00023392
0.00021878
0.000202429
0.00018511
0.000169056
0.000154356
0.000140643
0.000127632
0.000115192
0.000103303
9.1991e-05
8.13005e-05
7.12724e-05
6.19398e-05
5.33261e-05
4.54449e-05
3.83006e-05
3.18874e-05
2.6191e-05
2.11939e-05
1.68651e-05
1.31606e-05
9.99648e-06
7.12773e-06
4.822e-06
3.06867e-06
1.82449e-06
1.00959e-06
5.19455e-07
2.4856e-07
1.10468e-07
4.53583e-08
1.7006e-08
5.70044e-09
1.64884e-09
3.87691e-10
6.66617e-11
6.8234e-12
2.64352e-13
1.29124e-15
0.000317917
0.000312165
0.000302607
0.000290756
0.000277548
0.000263491
0.000248877
0.000233919
0.000218779
0.000202428
0.00018511
0.000169056
0.000154355
0.000140643
0.000127631
0.000115192
0.000103303
9.19908e-05
8.13003e-05
7.12723e-05
6.19397e-05
5.3326e-05
4.54448e-05
3.83005e-05
3.18873e-05
2.61909e-05
2.11939e-05
1.6865e-05
1.31606e-05
9.99645e-06
7.12771e-06
4.82198e-06
3.06865e-06
1.82449e-06
1.00958e-06
5.19453e-07
2.48559e-07
1.10467e-07
4.5358e-08
1.7006e-08
5.70042e-09
1.64883e-09
3.87689e-10
6.66613e-11
6.82337e-12
2.64351e-13
1.29123e-15
0.000317916
0.000312164
0.000302607
0.000290755
0.000277548
0.00026349
0.000248876
0.000233919
0.000218779
0.000202428
0.00018511
0.000169055
0.000154355
0.000140642
0.000127631
0.000115192
0.000103302
9.19907e-05
8.13002e-05
7.12721e-05
6.19396e-05
5.33259e-05
4.54447e-05
3.83004e-05
3.18873e-05
2.61909e-05
2.11938e-05
1.6865e-05
1.31605e-05
9.99642e-06
7.12769e-06
4.82196e-06
3.06864e-06
1.82448e-06
1.00958e-06
5.1945e-07
2.48558e-07
1.10466e-07
4.53578e-08
1.70059e-08
5.70038e-09
1.64882e-09
3.87687e-10
6.6661e-11
6.82333e-12
2.6435e-13
1.29122e-15
0.000317915
0.000312164
0.000302606
0.000290755
0.000277547
0.00026349
0.000248876
0.000233918
0.000218778
0.000202428
0.000185109
0.000169055
0.000154355
0.000140642
0.000127631
0.000115192
0.000103302
9.19905e-05
8.13e-05
7.1272e-05
6.19394e-05
5.33258e-05
4.54446e-05
3.83003e-05
3.18872e-05
2.61908e-05
2.11938e-05
1.68649e-05
1.31605e-05
9.99639e-06
7.12766e-06
4.82195e-06
3.06863e-06
1.82447e-06
1.00957e-06
5.19448e-07
2.48556e-07
1.10466e-07
4.53575e-08
1.70058e-08
5.70035e-09
1.64881e-09
3.87684e-10
6.66606e-11
6.8233e-12
2.64348e-13
1.29121e-15
0.000317915
0.000312163
0.000302606
0.000290754
0.000277547
0.000263489
0.000248875
0.000233918
0.000218778
0.000202427
0.000185109
0.000169055
0.000154355
0.000140642
0.000127631
0.000115191
0.000103302
9.19903e-05
8.12999e-05
7.12718e-05
6.19393e-05
5.33257e-05
4.54445e-05
3.83003e-05
3.18871e-05
2.61908e-05
2.11937e-05
1.68649e-05
1.31604e-05
9.99636e-06
7.12764e-06
4.82193e-06
3.06862e-06
1.82446e-06
1.00957e-06
5.19445e-07
2.48555e-07
1.10465e-07
4.53573e-08
1.70057e-08
5.70032e-09
1.6488e-09
3.87682e-10
6.66602e-11
6.82326e-12
2.64347e-13
1.29121e-15
0.000317914
0.000312162
0.000302605
0.000290754
0.000277546
0.000263489
0.000248875
0.000233917
0.000218778
0.000202427
0.000185109
0.000169054
0.000154354
0.000140642
0.000127631
0.000115191
0.000103302
9.19902e-05
8.12997e-05
7.12717e-05
6.19392e-05
5.33255e-05
4.54444e-05
3.83002e-05
3.1887e-05
2.61907e-05
2.11937e-05
1.68649e-05
1.31604e-05
9.99633e-06
7.12761e-06
4.82191e-06
3.0686e-06
1.82445e-06
1.00956e-06
5.19442e-07
2.48554e-07
1.10465e-07
4.5357e-08
1.70056e-08
5.70029e-09
1.64879e-09
3.8768e-10
6.66598e-11
6.82322e-12
2.64345e-13
1.2912e-15
0.000317913
0.000312162
0.000302604
0.000290753
0.000277546
0.000263488
0.000248874
0.000233917
0.000218777
0.000202426
0.000185108
0.000169054
0.000154354
0.000140641
0.00012763
0.000115191
0.000103302
9.199e-05
8.12996e-05
7.12716e-05
6.19391e-05
5.33254e-05
4.54443e-05
3.83001e-05
3.1887e-05
2.61906e-05
2.11936e-05
1.68648e-05
1.31604e-05
9.9963e-06
7.12759e-06
4.82189e-06
3.06859e-06
1.82444e-06
1.00956e-06
5.1944e-07
2.48552e-07
1.10464e-07
4.53568e-08
1.70055e-08
5.70026e-09
1.64878e-09
3.87678e-10
6.66594e-11
6.82318e-12
2.64344e-13
1.29119e-15
0.000317913
0.000312161
0.000302604
0.000290752
0.000277545
0.000263488
0.000248874
0.000233917
0.000218777
0.000202426
0.000185108
0.000169054
0.000154354
0.000140641
0.00012763
0.000115191
0.000103301