/*--------------------------------*- C++ -*----------------------------------*\
  =========                 |
  \\      /  F ield         | OpenFOAM: The Open Source CFD Toolbox
   \\    /   O peration     | Website:  https://openfoam.org
    \\  /    A nd           | Version:  7
     \\/     M anipulation  |
\*---------------------------------------------------------------------------*/
FoamFile
{
    version     2.0;
    format      ascii;
    class       surfaceScalarField;
    location    "7009";
    object      phi;
}
// * * * * * * * * * * * * * * * * * * * * * * * * * * * * * * * * * * * * * //

dimensions      [0 3 -1 0 0 0 0];

internalField   nonuniform List<scalar> 
62914
(
-1.24641e-22
-2.18196e-22
-1.09753e-22
-3.67469e-23
-1.31953e-22
1.34316e-23
-1.33056e-22
1.13432e-23
-1.35968e-22
5.69045e-24
-1.14165e-22
5.28087e-25
-9.84695e-23
-1.6867e-24
-9.15523e-23
-7.35788e-24
-7.89829e-23
-9.12835e-24
-7.27534e-23
-1.10643e-23
-7.03963e-23
-9.76557e-24
-5.42098e-23
-6.57489e-24
-4.57684e-23
-5.2073e-24
-4.09574e-23
-4.86435e-24
-3.00798e-23
-3.81204e-24
-2.96516e-23
-2.6702e-24
-3.12358e-23
-1.79288e-24
-2.58273e-23
-7.61487e-25
-2.04736e-23
-2.98834e-25
-1.93754e-23
-8.14354e-26
-1.75619e-23
1.39818e-25
-1.77179e-23
2.11199e-25
-1.5637e-23
2.5439e-25
-1.71086e-23
2.27046e-25
-1.53314e-23
2.33746e-25
-1.57234e-23
1.94451e-25
-1.51204e-23
1.72172e-25
-1.65528e-23
1.53373e-25
-1.18987e-23
1.45631e-25
-1.08719e-23
1.13448e-25
-1.04453e-23
7.76806e-26
-1.00056e-23
3.62125e-26
-8.77499e-24
8.83953e-27
-8.56175e-24
-9.19108e-27
-8.0424e-24
-1.61603e-26
-7.48301e-24
-1.89443e-26
-6.27512e-24
-1.91845e-26
-5.97307e-24
-1.97286e-26
-4.89079e-24
-1.93869e-26
-4.7741e-24
-1.95185e-26
-3.81225e-24
-1.91239e-26
-3.22636e-24
-1.89561e-26
-2.38074e-24
-1.87115e-26
-1.62956e-24
-1.87632e-26
-7.1723e-25
-1.94883e-26
-1.22307e-26
-2.13568e-26
-1.45999e-26
4.70647e-23
-3.09796e-22
7.75004e-23
-9.14852e-23
5.26839e-23
1.59967e-23
4.04968e-23
4.22001e-23
1.86705e-23
2.64085e-23
2.44869e-23
1.91194e-23
4.11367e-24
8.75129e-24
3.0599e-24
3.3224e-24
-4.68458e-24
-1.66986e-24
4.80744e-24
6.65231e-26
6.40898e-24
-9.23467e-25
5.4049e-24
-1.11348e-24
-4.55467e-24
-1.0597e-24
1.68797e-24
-4.76545e-25
9.84933e-24
-3.3332e-26
3.49741e-24
2.62918e-26
3.61503e-24
9.26827e-25
-8.90179e-24
1.04546e-24
-1.16802e-23
1.09549e-24
-1.09349e-23
1.1765e-24
-1.52983e-23
1.26168e-24
-1.60905e-23
1.26109e-24
-1.72634e-23
1.19867e-24
-1.54709e-23
1.1677e-24
-1.65628e-23
1.09596e-24
-1.48613e-23
1.01796e-24
-1.30905e-23
9.24706e-25
-1.12853e-23
8.2923e-25
-1.07542e-23
7.43058e-25
-9.5515e-24
6.60484e-25
-1.2895e-23
5.75132e-25
-1.1494e-23
5.04553e-25
-1.09431e-23
4.4472e-25
-8.95785e-24
3.92321e-25
-8.43255e-24
3.45897e-25
-7.5377e-24
3.01903e-25
-7.30007e-24
2.5978e-25
-6.44226e-24
2.19814e-25
-6.37583e-24
1.82642e-25
-5.93326e-24
1.49463e-25
-5.78926e-24
1.20062e-25
-5.08298e-24
9.43036e-26
-4.125e-24
7.14177e-26
-3.07055e-24
5.04332e-26
-1.31771e-24
3.0613e-26
8.50208e-27
1.07974e-26
-1.82743e-27
5.0558e-23
-3.80337e-22
9.5179e-23
-1.43686e-22
1.1109e-22
1.06924e-23
6.90548e-23
3.59553e-23
6.82286e-23
4.21201e-23
5.2632e-23
3.23563e-23
3.34881e-23
2.04868e-23
1.20778e-23
1.37312e-23
3.02101e-23
9.96972e-24
1.59093e-23
1.17774e-23
1.40893e-23
9.95321e-24
5.86219e-24
6.34731e-24
-7.06668e-24
4.87343e-24
-4.46502e-24
4.79436e-24
-7.8268e-24
4.87215e-24
5.0296e-25
4.69457e-24
-1.31881e-23
3.38899e-24
-2.27078e-23
2.83406e-24
-2.20348e-23
2.81111e-24
-1.70436e-23
2.70585e-24
-2.15077e-23
2.38668e-24
-2.19283e-23
2.14377e-24
-1.60321e-23
2.03955e-24
-1.45173e-23
1.92577e-24
-1.44011e-23
1.76266e-24
-1.31687e-23
1.55289e-24
-1.26234e-23
1.37739e-24
-1.11108e-23
1.21911e-24
-1.13932e-23
1.059e-24
-9.96716e-24
8.86552e-25
-9.79816e-24
7.1312e-25
-7.9455e-24
5.60922e-25
-7.59065e-24
4.37004e-25
-5.51502e-24
3.44509e-25
-5.21808e-24
2.74769e-25
-4.18673e-24
2.21125e-25
-3.70121e-24
1.76513e-25
-2.87509e-24
1.37184e-25
-2.08261e-24
1.029e-25
-1.58749e-24
7.31362e-26
-1.07328e-24
4.81522e-26
-4.45355e-25
2.70192e-26
-3.8779e-25
9.07635e-27
-7.75806e-26
-6.57558e-27
-5.42735e-26
-2.16045e-26
-3.03794e-26
-3.7584e-26
-3.095e-26
3.15563e-23
-4.03844e-22
7.59293e-23
-1.70326e-22
7.32618e-23
-4.1584e-24
7.06916e-23
4.69102e-23
5.63836e-23
4.88123e-23
3.65662e-23
3.48484e-23
2.98503e-23
2.92121e-23
1.16795e-23
2.64246e-23
5.09778e-23
2.66123e-23
8.68127e-24
1.81265e-23
-2.05995e-23
1.41636e-23
-2.53172e-23
1.15818e-23
-2.65419e-23
1.03376e-23
-2.03184e-23
8.67372e-24
-2.06305e-23
6.64111e-24
-2.82536e-23
4.91128e-24
-2.67409e-23
4.10008e-24
-2.12907e-23
3.37189e-24
-1.95312e-23
2.73674e-24
-2.09241e-23
2.20662e-24
-2.30462e-23
1.89945e-24
-1.80536e-23
1.71274e-24
-1.42464e-23
1.50582e-24
-1.68894e-23
1.3168e-24
-2.2447e-23
1.19362e-24
-1.7281e-23
1.12799e-24
-1.45745e-23
1.03118e-24
-1.20396e-23
9.39144e-25
-1.31356e-23
8.66496e-25
-1.11414e-23
8.06075e-25
-1.00533e-23
7.28193e-25
-9.73039e-24
6.38605e-25
-9.25011e-24
5.65049e-25
-8.355e-24
5.02526e-25
-8.22738e-24
4.45535e-25
-7.6477e-24
3.90888e-25
-8.09066e-24
3.37323e-25
-7.3487e-24
2.86445e-25
-7.14848e-24
2.39048e-25
-6.4458e-24
1.96879e-25
-6.37653e-24
1.59668e-25
-5.7591e-24
1.27204e-25
-4.64558e-24
9.80209e-26
-3.58736e-24
7.03512e-26
-1.53125e-24
4.29158e-26
2.70778e-26
1.37432e-26
-4.49614e-27
1.57689e-23
-4.10879e-22
4.76324e-23
-1.79167e-22
5.42232e-23
-4.70813e-24
4.52439e-23
4.8379e-23
1.89283e-23
5.78228e-23
2.39128e-23
5.45108e-23
2.15766e-23
4.36128e-23
1.67423e-23
3.54808e-23
1.09249e-23
2.88729e-23
-2.59118e-24
2.3422e-23
-2.06982e-23
1.93862e-23
-1.26449e-23
1.76538e-23
-1.7603e-23
1.54607e-23
-2.00895e-23
1.33044e-23
-2.32045e-23
1.16536e-23
-2.39874e-23
1.01e-23
-2.36062e-23
8.41519e-24
-1.9973e-23
7.08407e-24
-2.21753e-23
5.77543e-24
-2.22486e-23
4.70274e-24
-2.2018e-23
3.77682e-24
-1.97624e-23
2.97535e-24
-1.68853e-23
2.287e-24
-1.52906e-23
1.69573e-24
-1.62209e-23
1.22047e-24
-1.53887e-23
8.51433e-25
-1.37347e-23
5.80162e-25
-1.08134e-23
3.5279e-25
-8.24588e-24
1.63848e-25
-6.14412e-24
-6.94628e-27
-8.5605e-24
-1.55499e-25
-7.04456e-24
-2.53309e-25
-6.06447e-24
-2.99612e-25
-4.87583e-24
-3.05244e-25
-3.88782e-24
-2.83121e-25
-2.5535e-24
-2.49998e-25
-1.76036e-24
-2.15584e-25
-9.42977e-25
-1.85103e-25
-5.02266e-26
-1.5913e-25
5.47488e-25
-1.37521e-25
1.27313e-24
-1.19104e-25
1.90281e-24
-1.03819e-25
1.65907e-24
-9.17704e-26
1.58326e-24
-8.31736e-26
6.36434e-25
-7.94764e-26
-5.04651e-26
-8.20288e-26
-5.44504e-26
8.8709e-24
-4.15004e-22
3.12018e-23
-1.85162e-22
3.71576e-23
-7.64438e-24
2.94789e-23
4.78091e-23
8.44183e-24
5.8936e-23
2.51729e-24
5.51329e-23
7.18423e-24
4.93713e-23
7.36295e-24
3.90849e-23
4.29203e-24
3.21697e-23
8.82766e-25
2.63693e-23
-4.10864e-24
2.15285e-23
-7.23098e-24
1.81413e-23
-9.51491e-24
1.32684e-23
-1.0698e-23
1.14197e-23
-1.18338e-23
8.99579e-24
-1.08539e-23
6.95907e-24
-1.16404e-23
6.34712e-24
-1.13817e-23
5.34997e-24
-1.24816e-23
4.50097e-24
-1.23352e-23
3.6288e-24
-1.32176e-23
2.9067e-24
-1.2937e-23
2.35014e-24
-1.34758e-23
1.89998e-24
-1.25222e-23
1.5568e-24
-1.17461e-23
1.28789e-24
-9.22189e-24
1.09896e-24
-1.01172e-23
9.44773e-25
-9.75386e-24
8.41312e-25
-9.91196e-24
7.70194e-25
-9.21492e-24
7.1096e-25
-8.91513e-24
6.34926e-25
-7.8283e-24
5.62316e-25
-7.93593e-24
5.04244e-25
-7.46541e-24
4.58887e-25
-8.18006e-24
4.18793e-25
-7.71344e-24
3.79964e-25
-7.74016e-24
3.37994e-25
-7.20567e-24
2.95158e-25
-7.27242e-24
2.53146e-25
-6.82514e-24
2.14552e-25
-6.76509e-24
1.79519e-25
-6.5491e-24
1.47848e-25
-5.38258e-24
1.18177e-25
-4.25083e-24
8.86565e-26
-1.81337e-24
5.80162e-26
5.48536e-26
2.38553e-26
-7.58894e-28
4.51488e-24
-4.218e-22
1.74791e-23
-1.89773e-22
2.12494e-23
-1.03956e-23
1.50801e-23
4.58711e-23
-3.25234e-24
5.82618e-23
-3.28938e-24
5.30271e-23
-5.65559e-24
4.06776e-23
1.63493e-24
4.24237e-23
3.26865e-24
3.53531e-23
1.99664e-24
2.91573e-23
2.22519e-24
2.20649e-23
-2.10246e-23
1.6764e-23
-1.47335e-24
1.66427e-23
-1.40399e-23
1.37508e-23
-1.60958e-23
1.14646e-23
5.87235e-24
9.56576e-24
-5.92205e-24
7.0936e-24
-5.40427e-24
6.15371e-24
-1.49813e-23
5.19195e-24
-1.76004e-23
4.44706e-24
-2.00997e-23
3.72462e-24
-2.06537e-23
3.04162e-24
-2.11728e-23
2.59356e-24
-2.13488e-23
2.22999e-24
-1.90609e-23
1.85074e-24
-1.88436e-23
1.48383e-24
-1.8356e-23
1.18489e-24
-1.74142e-23
9.24241e-25
-1.42647e-23
6.84045e-25
-1.25588e-23
4.50614e-25
-1.03162e-23
2.27358e-25
-8.94485e-24
4.15713e-26
-7.50645e-24
-7.92758e-26
-5.9757e-24
-1.45915e-25
-4.3805e-24
-1.72891e-25
-3.22365e-24
-1.76922e-25
-1.97357e-24
-1.70258e-25
-1.11455e-24
-1.60447e-25
-1.23303e-25
-1.48982e-25
8.44613e-25
-1.37238e-25
1.67972e-24
-1.25071e-25
2.06836e-24
-1.13416e-25
1.61239e-24
-1.03148e-25
1.6537e-24
-9.56116e-26
6.7137e-25
-9.35294e-26
-6.65228e-26
-9.9307e-26
-6.72947e-26
5.45623e-24
-4.45579e-22
-8.78016e-25
-1.89779e-22
3.20959e-24
-2.54916e-23
1.44263e-25
3.42745e-23
-1.8684e-23
5.94661e-23
-2.96892e-23
6.39792e-23
1.4647e-23
6.26119e-23
-6.20145e-24
5.10247e-23
-5.93735e-24
4.56358e-23
-4.98283e-24
3.66925e-23
-7.92524e-24
3.15404e-23
1.25119e-23
2.79431e-23
1.27005e-24
2.26141e-23
-8.30051e-24
1.91802e-23
-6.76492e-24
1.64824e-23
-4.41042e-24
1.42731e-23
9.38209e-24
1.20429e-23
5.21924e-24
9.16543e-24
-5.04608e-26
7.51957e-24
-4.18752e-24
6.34872e-24
-8.85296e-24
5.51387e-24
-8.46235e-25
4.88296e-24
8.37753e-25
4.18447e-24
-2.51628e-24
3.57462e-24
-2.78616e-24
3.13213e-24
1.30891e-24
2.76116e-24
2.59155e-24
2.41857e-24
1.4455e-24
2.13147e-24
8.18018e-25
1.9057e-24
-1.99736e-25
1.69331e-24
-1.85082e-24
1.47353e-24
-2.37136e-24
1.28542e-24
-3.39116e-24
1.12441e-24
-4.07178e-24
9.89679e-25
-4.56423e-24
8.73398e-25
-4.77912e-24
7.64348e-25
-5.35862e-24
6.5937e-25
-5.30388e-24
5.60137e-25
-6.06697e-24
4.68466e-25
-6.04897e-24
3.86938e-25
-6.40074e-24
3.1516e-25
-6.17667e-24
2.5215e-25
-4.93851e-24
1.95569e-25
-4.1424e-24
1.42515e-25
-1.76972e-24
9.08625e-26
6.64524e-26
3.69586e-26
-7.88936e-28
2.60192e-23
-4.59323e-22
-3.89028e-23
-2.45626e-22
-1.0009e-23
-2.76913e-23
7.89686e-24
4.25037e-23
-1.41804e-23
5.63816e-23
-1.86944e-23
6.54528e-23
-5.99202e-24
6.29049e-23
-8.35628e-25
5.74252e-23
-2.04543e-23
5.0367e-23
1.22218e-24
4.64314e-23
6.312e-25
3.86636e-23
5.65971e-24
3.12587e-23
9.93447e-25
2.56703e-23
-2.97232e-24
2.13456e-23
2.41781e-24
1.82924e-23
-2.58998e-24
1.56689e-23
-1.01591e-23
1.35695e-23
3.73689e-24
1.17115e-23
3.46603e-24
9.76546e-24
2.44393e-24
8.25082e-24
-2.58983e-25
7.1032e-24
-3.01747e-24
6.20957e-24
-5.81394e-24
5.41668e-24
-4.75736e-24
4.62725e-24
-6.70112e-24
3.93943e-24
-8.18592e-24
3.36804e-24
-9.55226e-24
2.84709e-24
-8.66619e-24
2.35916e-24
-8.67842e-24
1.92561e-24
-8.09612e-24
1.52944e-24
-3.7566e-24
1.15075e-24
-3.48557e-24
8.12542e-25
-2.24919e-24
5.61182e-25
-1.42089e-25
3.85393e-25
5.03338e-25
2.66721e-25
1.48759e-24
1.84689e-25
2.32622e-24
1.23919e-25
2.89736e-24
7.52921e-26
3.63339e-24
3.59719e-26
4.23374e-24
4.46844e-27
4.86159e-24
-1.97398e-26
5.11798e-24
-3.85096e-26
4.21695e-24
-5.3694e-26
3.66775e-24
-6.74306e-26
1.54038e-24
-8.3402e-26
-7.72347e-26
-1.04871e-25
-7.70139e-26
-3.5867e-25
-4.53339e-22
-1.60117e-23
-2.13443e-22
-1.14324e-23
-1.34336e-23
-3.15708e-24
5.54429e-23
2.49413e-24
7.04562e-23
-9.43025e-24
6.76115e-23
-6.2033e-25
6.52696e-23
8.74861e-25
6.02161e-23
-3.48701e-24
5.58591e-23
-3.1436e-24
4.75401e-23
-4.56467e-24
4.18888e-23
-5.23936e-24
3.45916e-23
-5.02808e-24
2.76217e-23
-3.65437e-24
2.22275e-23
-3.7967e-24
1.78804e-23
-3.89074e-24
1.44713e-23
-1.76679e-23
1.19707e-23
-1.40327e-23
1.02774e-23
-1.19061e-23
8.73365e-24
-7.91402e-24
7.36252e-24
-4.69292e-24
6.13213e-24
-5.94914e-24
5.07787e-24
-1.18552e-23
4.2891e-24
-7.22728e-24
3.76383e-24
-3.03974e-24
3.27175e-24
-3.02512e-24
2.82287e-24
-6.36409e-24
2.4626e-24
-4.92431e-24
2.2007e-24
-4.40468e-24
1.97752e-24
-4.49112e-24
1.7665e-24
-6.43218e-24
1.53991e-24
-6.10213e-24
1.33642e-24
-6.65897e-24
1.16566e-24
-5.88927e-24
1.02516e-24
-6.42931e-24
9.01424e-25
-5.96449e-24
7.87526e-25
-6.1554e-24
6.77785e-25
-6.13248e-24
5.73727e-25
-6.47156e-24
4.78029e-25
-6.21891e-24
3.93388e-25
-6.39908e-24
3.19168e-25
-6.22969e-24
2.54482e-25
-5.02922e-24
1.966e-25
-4.18215e-24
1.42408e-25
-1.77857e-24
8.94683e-26
7.38004e-26
3.38444e-26
-3.63313e-27
-8.97828e-24
-4.45147e-22
-8.39812e-24
-2.02923e-22
-8.4566e-24
1.88465e-24
-6.72263e-24
6.84872e-23
-3.18265e-24
8.13434e-23
2.93854e-24
7.38677e-23
6.43139e-24
6.58781e-23
1.19589e-23
5.5038e-23
-2.75227e-24
4.38247e-23
2.50425e-24
3.59167e-23
-1.5578e-23
2.74091e-23
-3.13183e-23
2.26139e-23
-2.82783e-23
2.05584e-23
-2.4644e-23
1.85074e-23
-2.37305e-23
1.65252e-23
-1.56558e-23
1.46581e-23
-1.94134e-23
1.24994e-23
-1.64729e-23
1.06186e-23
-1.56237e-23
9.17214e-24
-1.40172e-23
7.86477e-24
-1.23334e-23
6.81182e-24
-1.06858e-23
5.97089e-24
-9.18392e-24
5.19614e-24
-1.05489e-23
4.46383e-24
-1.14614e-23
3.84391e-24
-1.10046e-23
3.26564e-24
-9.48672e-24
2.73531e-24
-7.54371e-24
2.2568e-24
-5.07657e-24
1.83578e-24
-4.89557e-24
1.42865e-24
-4.534e-24
1.04961e-24
-3.83679e-24
7.26837e-25
-2.49464e-24
4.85658e-25
-1.33269e-24
3.14595e-25
1.39779e-25
2.00889e-25
1.12132e-24
1.24552e-25
1.68558e-24
7.09029e-26
2.19169e-24
3.05528e-26
3.36937e-24
5.16522e-28
3.93398e-24
-2.21734e-26
4.87564e-24
-3.82114e-26
5.03282e-24
-4.98663e-26
4.18918e-24
-5.87578e-26
3.64398e-24
-6.72691e-26
1.55155e-24
-7.89541e-26
-6.72481e-26
-9.71783e-26
-7.10733e-26
-1.75363e-23
-4.29194e-22
3.1639e-24
-1.62417e-22
-7.04836e-24
1.95048e-23
-1.17547e-23
7.91347e-23
-1.75114e-23
9.31033e-23
-7.58026e-25
9.02692e-23
-1.57303e-24
7.54675e-23
-1.73947e-24
6.16755e-23
-4.62164e-24
5.07582e-23
-5.52876e-24
4.14233e-23
-9.07021e-24
3.45424e-23
-1.09917e-23
2.71323e-23
-9.69064e-24
2.07434e-23
-8.80193e-24
1.8298e-23
-9.04534e-24
1.60331e-23
-9.21376e-24
1.30759e-23
-1.13053e-23
1.0595e-23
-7.41921e-24
8.83615e-24
-1.00176e-23
7.36179e-24
-6.68095e-24
6.28561e-24
-2.88052e-24
5.20545e-24
-3.42447e-24
4.19167e-24
-3.33863e-24
3.4582e-24
-2.25474e-24
2.86354e-24
-3.43311e-24
2.37724e-24
-3.19334e-24
2.06215e-24
-2.68723e-24
1.81816e-24
-2.05553e-25
1.62636e-24
-2.79284e-24
1.45955e-24
-2.50215e-24
1.30799e-24
-3.22911e-24
1.14324e-24
-3.07942e-24
9.95387e-25
-3.77729e-24
8.76118e-25
-3.89958e-24
7.80255e-25
-3.53607e-24
6.94817e-25
-3.37347e-24
6.11318e-25
-3.98097e-24
5.28907e-25
-3.9134e-24
4.49975e-25
-4.40131e-24
3.76447e-25
-4.47624e-24
3.11181e-25
-4.85056e-24
2.53905e-25
-4.59792e-24
2.03765e-25
-3.73868e-24
1.58447e-25
-3.06749e-24
1.15296e-25
-1.29509e-24
7.20059e-26
6.64227e-26
2.53842e-26
-5.1827e-27
-8.81223e-24
-4.26943e-22
-7.23202e-24
-1.65876e-22
-1.11443e-23
1.59437e-23
-1.36537e-23
6.9283e-23
-2.17811e-23
9.04771e-23
-2.15108e-23
8.53214e-23
-2.18255e-23
7.75691e-23
-1.93812e-23
6.63841e-23
-1.28988e-23
5.56533e-23
-2.28882e-24
4.53914e-23
-1.33073e-23
3.48177e-23
-1.64267e-23
2.91329e-23
9.5228e-24
2.54677e-23
9.0591e-24
2.03402e-23
-5.25745e-24
1.64167e-23
-1.22414e-23
1.39416e-23
-6.61786e-24
1.20543e-23
-5.11637e-24
9.89821e-24
-2.35448e-24
8.06298e-24
-5.59067e-24
6.41316e-24
-8.32721e-24
5.17594e-24
-5.01545e-24
4.19572e-24
-7.15844e-24
3.32581e-24
-8.75125e-24
2.62044e-24
-4.10007e-24
2.06366e-24
-4.94584e-24
1.56605e-24
-4.45695e-24
1.15608e-24
-4.18202e-24
8.06672e-25
-4.84869e-24
5.24277e-25
-3.57016e-24
2.76341e-25
-2.11279e-24
4.77748e-26
-9.71567e-25
-1.28105e-25
1.96178e-25
-2.31154e-25
6.866e-25
-2.73802e-25
8.77335e-25
-2.73496e-25
1.69425e-24
-2.50813e-25
2.45271e-24
-2.22175e-25
2.92559e-24
-1.95002e-25
3.78931e-24
-1.70885e-25
4.31638e-24
-1.50504e-25
4.96038e-24
-1.32749e-25
5.32593e-24
-1.1784e-25
4.76036e-24
-1.06124e-25
3.82321e-24
-9.85331e-26
1.62685e-24
-9.67793e-26
-6.52468e-26
-1.02871e-25
-6.94967e-26
-7.94926e-24
-4.27513e-22
-1.53034e-23
-1.714e-22
-2.54483e-23
3.41286e-24
-3.33483e-24
7.04553e-23
-2.69003e-23
8.74256e-23
-2.3864e-23
8.51265e-23
-3.04001e-23
7.20455e-23
-2.98632e-23
6.58113e-23
-2.84633e-23
5.94074e-23
-2.52057e-23
4.91147e-23
-2.33102e-23
4.01758e-23
-1.7885e-23
3.02666e-23
-1.14412e-23
2.34835e-23
-8.71109e-24
2.00782e-23
-7.08262e-24
1.69691e-23
-6.05535e-24
1.41034e-23
-6.73537e-24
1.16094e-23
-5.93701e-24
9.60516e-24
-5.81505e-24
7.78937e-24
-5.73184e-24
6.27119e-24
-5.60969e-24
5.0443e-24
-4.01741e-24
4.14217e-24
-4.33093e-24
3.44005e-24
-8.44766e-25
2.8991e-24
1.4787e-24
2.47273e-24
1.51427e-24
2.13223e-24
6.33604e-25
1.86174e-24
-1.08404e-25
1.6465e-24
-1.44917e-24
1.48196e-24
-2.45326e-24
1.32392e-24
-2.50236e-24
1.1578e-24
-2.43709e-24
9.99072e-25
-3.10363e-24
8.66834e-25
-3.64188e-24
7.57081e-25
-4.01503e-24
6.59911e-25
-4.15994e-24
5.70596e-25
-4.35639e-24
4.8494e-25
-4.26492e-24
4.05119e-25
-4.84453e-24
3.32946e-25
-4.84294e-24
2.70885e-25
-5.07735e-24
2.17573e-25
-4.84089e-24
1.7203e-25
-4.30043e-24
1.31632e-25
-3.24957e-24
9.3901e-26
-1.37494e-24
5.62192e-26
6.23362e-26
1.59689e-26
-8.10103e-27
-1.26806e-23
-4.26298e-22
-2.79881e-23
-1.74506e-22
-1.19937e-23
1.3675e-23
2.65754e-24
6.82102e-23
-2.5105e-23
7.0316e-23
-4.09015e-23
6.99673e-23
-2.85797e-23
6.60966e-23
-2.91409e-23
5.85301e-23
-4.59312e-23
5.00257e-23
-3.73783e-23
4.33992e-23
-5.18363e-23
3.60546e-23
-3.49079e-23
3.27276e-23
-8.58478e-24
2.89002e-23
-5.05762e-24
2.37343e-23
-3.88496e-24
1.96935e-23
-5.01196e-24
1.65468e-23
-7.15636e-24
1.39674e-23
-9.19495e-24
1.14899e-23
-1.0283e-23
9.49254e-24
-1.13652e-23
7.93183e-24
-6.20865e-24
6.71395e-24
-5.97997e-24
5.74441e-24
-5.52648e-24
4.87368e-24
-2.93484e-24
4.19073e-24
-3.37646e-24
3.59326e-24
-4.01057e-24
3.03188e-24
-5.12435e-24
2.52994e-24
-4.32274e-24
2.06824e-24
-4.36084e-24
1.66795e-24
-3.47969e-24
1.30721e-24
-3.41271e-24
9.71319e-25
-2.53891e-24
6.95638e-25
-1.6854e-24
4.96499e-25
-1.34502e-24
3.62976e-25
-1.30511e-26
2.78892e-25
5.68738e-25
2.18851e-25
1.64576e-24
1.73413e-25
2.16092e-24
1.33635e-25
3.21536e-24
9.94217e-26
3.32422e-24
6.84817e-26
3.87738e-24
4.2739e-26
3.89354e-24
2.01151e-26
3.64247e-24
3.1963e-28
2.76564e-24
-1.87702e-26
1.17117e-24
-3.90409e-26
-4.89502e-26
-6.31098e-26
-5.11846e-26
-2.07377e-23
-4.21042e-22
-2.1335e-23
-1.48439e-22
-1.53311e-23
2.66743e-23
-1.26146e-23
7.66127e-23
-1.89782e-23
8.54726e-23
-2.9513e-23
7.6356e-23
-2.15368e-23
6.7828e-23
-3.29351e-23
6.09253e-23
-3.92536e-23
5.18585e-23
-3.95561e-23
4.27568e-23
-3.51294e-23
3.43945e-23
-2.82619e-23
2.97428e-23
-2.10549e-23
2.54016e-23
-1.72448e-23
2.11568e-23
-1.62473e-23
1.71948e-23
-1.55647e-23
1.37419e-23
-2.65944e-23
1.09059e-23
-2.65469e-23
9.12328e-24
-2.61446e-23
7.68642e-24
-2.44316e-23
6.5722e-24
-1.52029e-23
5.62739e-24
-1.6887e-23
4.78333e-24
-8.91012e-24
4.16571e-24
-3.38831e-24
3.59232e-24
-4.3028e-24
3.08854e-24
-2.97338e-24
2.6852e-24
-6.71391e-24
2.34436e-24
-5.93771e-24
2.06768e-24
-6.24826e-24
1.82584e-24
-6.56819e-24
1.59569e-24
-6.57589e-24
1.35152e-24
-6.56658e-24
1.12603e-24
-6.90842e-24
9.35269e-25
-6.39995e-24
7.81811e-25
-8.15465e-24
6.54609e-25
-7.76082e-24
5.48729e-25
-8.37657e-24
4.52012e-25
-7.60623e-24
3.67058e-25
-8.55107e-24
2.90691e-25
-7.71027e-24
2.27231e-25
-8.33006e-24
1.72969e-25
-7.291e-24
1.2836e-25
-6.55664e-24
8.95964e-26
-4.66158e-24
5.43068e-26
-1.99154e-24
1.91085e-26
2.02201e-26
-1.92954e-26
-2.97663e-26
-6.08005e-24
-3.85665e-22
-1.91242e-23
-1.23695e-22
-1.89862e-23
3.11032e-23
-9.14948e-24
7.24582e-23
-2.95902e-23
7.02622e-23
-3.08196e-23
7.02992e-23
-1.92987e-23
6.17026e-23
-4.13323e-23
5.00311e-23
-4.59303e-23
4.7347e-23
-5.16695e-23
4.31121e-23
-2.88808e-23
3.8312e-23
-2.73816e-23
3.08864e-23
-2.55828e-23
2.50196e-23
-2.38231e-23
2.02552e-23
-2.2575e-23
1.62546e-23
-2.10082e-23
1.29769e-23
-2.00343e-23
1.04048e-23
-1.81615e-23
8.44141e-24
-1.64878e-23
6.96332e-24
-1.41783e-23
5.7349e-24
-1.23619e-23
4.94088e-24
-1.03534e-23
4.05449e-24
-9.15716e-24
3.33788e-24
-7.99634e-24
2.7514e-24
-1.04817e-23
2.29778e-24
-1.00137e-23
1.94811e-24
-1.22818e-23
1.65184e-24
-1.12212e-23
1.41674e-24
-9.77899e-24
1.22002e-24
-1.00282e-23
1.02914e-24
-9.52694e-24
8.32768e-25
-1.02851e-23
6.60728e-25
-9.38765e-24
5.38529e-25
-8.66467e-24
4.52221e-25
-7.42502e-24
3.91754e-25
-7.69896e-24
3.40744e-25
-6.25243e-24
2.95888e-25
-7.28402e-24
2.50214e-25
-5.89317e-24
2.08901e-25
-6.61236e-24
1.69673e-25
-5.30492e-24
1.35638e-25
-4.5952e-24
1.04163e-25
-3.31146e-24
7.45603e-26
-2.03101e-24
4.47613e-26
-8.83369e-25
1.25655e-26
-1.88383e-27
-2.48998e-26
-3.34804e-26
8.85296e-25
-3.64025e-22
-3.01778e-23
-1.38738e-22
-2.85646e-23
2.99309e-23
-2.64049e-23
7.62196e-23
-1.9886e-23
8.42877e-23
-2.83941e-23
7.70775e-23
-2.92942e-23
6.76675e-23
-2.49534e-23
5.74139e-23
-3.48303e-23
4.59248e-23
-3.96616e-23
4.07357e-23
-3.91938e-23
3.42178e-23
-3.86113e-23
2.81091e-23
-3.78074e-23
2.30689e-23
-3.69452e-23
1.88819e-23
-3.52889e-23
1.55263e-23
-3.18328e-23
1.28522e-23
-2.76276e-23
1.07179e-23
-2.21576e-23
8.4902e-24
-2.39922e-23
7.1575e-24
-1.35517e-23
6.19436e-24
-2.25554e-23
5.19258e-24
-1.90579e-23
4.54432e-24
-1.76728e-23
3.85279e-24
-1.24084e-23
3.2714e-24
-1.05697e-23
2.74447e-24
-8.87786e-24
2.2628e-24
-8.53675e-24
1.86279e-24
-6.90494e-24
1.52927e-24
-5.90889e-24
1.24014e-24
-5.34388e-24
9.65181e-25
-5.2173e-24
7.02206e-25
-4.12225e-24
4.78955e-25
-3.94521e-24
3.14235e-25
-2.63711e-24
2.07366e-25
-2.59575e-24
1.39685e-25
-1.1856e-24
9.70306e-26
-1.41973e-24
6.38632e-26
-3.70057e-25
3.81403e-26
-8.1571e-25
1.59182e-26
-3.53489e-27
-8.92145e-28
-3.12381e-25
-1.41901e-26
-4.29251e-25
-2.43904e-26
-6.20029e-25
-3.36098e-26
-6.82762e-25
-4.43845e-26
-3.12199e-25
-5.97151e-26
-3.2164e-26
-8.31383e-26
-6.48203e-26
-1.55229e-23
-3.21337e-22
-1.11709e-23
-8.1647e-23
-2.04689e-23
4.8549e-23
-2.1434e-23
8.57702e-23
-1.72774e-23
9.16476e-23
-3.0748e-23
8.42011e-23
-3.69021e-23
7.72297e-23
-3.49162e-23
6.43718e-23
-2.93278e-23
5.36699e-23
-3.95192e-23
3.99091e-23
-4.29617e-23
3.0842e-23
-4.37674e-23
2.47672e-23
-4.22203e-23
1.96299e-23
-4.09726e-23
1.7035e-23
-3.76758e-23
1.41494e-23
-3.02298e-23
1.12364e-23
-3.34676e-23
9.2419e-24
-1.71685e-23
7.86341e-24
-1.348e-23
6.15948e-24
-1.16038e-23
4.71909e-24
-1.18357e-23
3.64367e-24
-1.82209e-23
2.88683e-24
-1.64534e-23
2.41619e-24
-1.46136e-23
1.97449e-24
-1.51942e-23
1.62003e-24
-1.31076e-23
1.34103e-24
-1.18299e-23
1.11739e-24
-1.03009e-23
9.33528e-25
-1.1961e-23
7.9383e-25
-1.09533e-23
6.64591e-25
-1.12322e-23
5.29007e-25
-1.06737e-23
4.16381e-25
-9.09884e-24
3.43041e-25
-7.62873e-24
2.96733e-25
-6.38074e-24
2.68177e-25
-6.0111e-24
2.43561e-25
-4.9118e-24
2.19994e-25
-4.76407e-24
1.92596e-25
-3.94773e-24
1.65987e-25
-3.65423e-24
1.39396e-25
-3.19127e-24
1.15301e-25
-2.57589e-24
9.21039e-26
-1.90821e-24
6.91687e-26
-1.18754e-24
4.4945e-26
-5.00232e-25
1.75614e-26
3.81518e-26
-1.54427e-26
-2.56236e-26
-1.00356e-23
-2.88042e-22
-2.1154e-23
-6.83864e-23
-2.11107e-23
5.81893e-23
-1.8122e-23
8.86697e-23
-1.41275e-23
8.85368e-23
-2.57813e-23
7.90536e-23
-5.06759e-23
6.58142e-23
-4.54199e-23
5.59448e-23
-6.05989e-23
4.92418e-23
-5.88715e-23
4.60988e-23
-5.38426e-23
3.90697e-23
-5.41492e-23
3.11761e-23
-3.79899e-23
2.64561e-23
-4.19875e-23
2.20393e-23
-4.24728e-23
1.8644e-23
-3.14771e-23
1.59197e-23
-2.87635e-23
1.24128e-23
-2.71365e-23
9.80317e-24
-2.40673e-23
7.9735e-24
-2.28367e-23
6.52169e-24
-1.6352e-23
5.25871e-24
-1.58898e-23
4.32553e-24
-1.60924e-23
3.58663e-24
-1.39113e-23
3.05941e-24
-1.23028e-23
2.64389e-24
-1.01463e-23
2.24654e-24
-9.38362e-24
1.92095e-24
-6.93814e-24
1.66987e-24
-8.04019e-24
1.44079e-24
-7.37624e-24
1.21981e-24
-6.59051e-24
9.82656e-25
-5.49658e-24
7.70834e-25
-4.83419e-24
6.01042e-25
-3.51838e-24
4.69687e-25
-3.3941e-24
3.64892e-25
-1.80277e-24
2.82697e-25
-1.95322e-24
2.13443e-25
-4.0259e-25
1.57801e-25
-6.4186e-25
1.11619e-25
6.26307e-25
7.64327e-26
1.31238e-25
4.88451e-26
1.85679e-26
2.84805e-26
-3.75099e-25
1.22803e-26
-6.73525e-25
-2.38849e-27
-2.91597e-25
-1.8439e-26
-6.45928e-27
-3.91155e-26
-3.49568e-26
-1.14742e-23
-2.62001e-22
-2.40719e-23
-5.71047e-23
-2.25169e-23
6.04782e-23
-1.95617e-23
8.84864e-23
-1.42999e-23
8.56394e-23
-2.99834e-23
7.81011e-23
-5.06932e-23
7.22153e-23
-4.15795e-23
5.93983e-23
-4.34379e-23
4.65844e-23
-5.52263e-23
3.52453e-23
-6.81105e-23
3.17592e-23
-5.53157e-23
2.85425e-23
-4.49132e-23
2.41272e-23
-4.66236e-23
2.02718e-23
-4.59789e-23
1.68258e-23
-5.32887e-23
1.38267e-23
-4.51513e-23
1.18504e-23
-3.57954e-23
1.01844e-23
-2.88186e-23
8.43259e-24
-2.85961e-23
7.01612e-24
-1.88852e-23
5.99437e-24
-1.79306e-23
5.07449e-24
-1.54116e-23
4.32044e-24
-1.37961e-23
3.66111e-24
-1.53818e-23
3.05207e-24
-1.3013e-23
2.62906e-24
-7.50103e-24
2.27323e-24
-6.75482e-24
1.94289e-24
-6.19515e-24
1.65792e-24
-9.00765e-24
1.39975e-24
-7.74292e-24
1.17753e-24
-6.97015e-24
9.804e-25
-6.00253e-24
8.22635e-25
-6.43035e-24
6.95061e-25
-5.44659e-24
5.92405e-25
-5.21485e-24
5.018e-25
-4.14505e-24
4.21582e-25
-3.96643e-24
3.48253e-25
-3.13402e-24
2.84892e-25
-3.17487e-24
2.30064e-25
-2.41777e-24
1.84188e-25
-1.86147e-24
1.44754e-25
-1.28247e-24
1.10322e-25
-7.17523e-25
7.8963e-26
-3.05983e-25
4.847e-26
3.16165e-26
1.64028e-26
-4.12501e-27
-1.4602e-23
-2.30686e-22
-2.60162e-23
-4.41071e-23
-2.28106e-23
6.47173e-23
-1.79465e-23
9.87296e-23
-7.25307e-24
9.43155e-23
-1.15019e-23
7.61679e-23
-4.92834e-23
5.78435e-23
-4.4139e-23
5.46861e-23
-5.19903e-23
5.29161e-23
-3.26885e-23
4.27281e-23
-4.76166e-23
3.17492e-23
-4.5995e-23
2.68748e-23
-4.199e-23
2.35956e-23
-4.69517e-23
1.95286e-23
-4.87991e-23
1.61806e-23
-4.83542e-23
1.42993e-23
-4.14798e-23
1.17513e-23
-3.97884e-23
9.37788e-24
-3.6821e-23
7.74176e-24
-3.24956e-23
6.33072e-24
-2.84787e-23
5.23988e-24
-2.54377e-23
4.39808e-24
-2.31019e-23
3.66346e-24
-2.40804e-23
3.14121e-24
-1.77088e-23
2.74574e-24
-1.46134e-23
2.32955e-24
-1.22478e-23
1.94957e-24
-1.32094e-23
1.63119e-24
-1.30576e-23
1.37344e-24
-1.15682e-23
1.14053e-24
-1.09404e-23
9.03376e-25
-9.19509e-24
6.92366e-25
-8.28285e-24
5.20221e-25
-6.90659e-24
3.86742e-25
-6.36068e-24
2.82658e-25
-5.05537e-24
2.03015e-25
-5.07837e-24
1.38653e-25
-3.9451e-24
9.02157e-26
-3.89114e-24
5.273e-26
-3.11992e-24
2.72279e-26
-3.23403e-24
9.77278e-27
-3.12899e-24
-9.09074e-28
-2.81709e-24
-8.1951e-27
-2.45705e-24
-1.53211e-26
-1.08815e-24
-2.52021e-26
-3.08296e-26
-4.17032e-26
-3.53664e-26
-2.51341e-23
-2.3056e-22
-2.27497e-23
-2.91505e-23
-6.95537e-24
7.47939e-23
-1.5276e-23
8.82432e-23
-1.1295e-23
7.88292e-23
-2.02818e-23
7.50547e-23
-1.75549e-23
6.83248e-23
-1.04624e-23
6.04073e-23
-4.5526e-23
4.90807e-23
-3.7124e-23
4.43585e-23
-2.91605e-23
3.71724e-23
-2.59916e-23
2.83451e-23
-2.96664e-23
2.21874e-23
-3.47431e-23
1.8491e-23
-2.70009e-23
1.6151e-23
-4.43523e-23
1.33439e-23
-4.44355e-23
1.09492e-23
-4.05141e-23
8.84124e-24
-3.8822e-23
6.8601e-24
-3.04328e-23
5.39094e-24
-2.73274e-23
4.1069e-24
-2.46625e-23
3.02909e-24
-2.01855e-23
2.33932e-24
-1.87465e-23
1.78785e-24
-2.01868e-23
1.32929e-24
-1.87649e-23
1.03113e-24
-1.80772e-23
8.38768e-25
-1.56217e-23
6.85806e-25
-1.36756e-23
5.78971e-25
-1.21578e-23
4.77876e-25
-1.1097e-23
3.70054e-25
-9.80688e-24
2.84972e-25
-8.74587e-24
2.38816e-25
-8.19012e-24
2.18054e-25
-7.39066e-24
2.12144e-25
-7.68461e-24
2.05418e-25
-6.79248e-24
1.95789e-25
-7.47719e-24
1.78772e-25
-6.53818e-24
1.59989e-25
-6.82656e-24
1.38996e-25
-5.84828e-24
1.18952e-25
-4.85169e-24
9.82676e-26
-3.90059e-24
7.63283e-26
-2.18059e-24
5.21866e-26
-9.49596e-25
2.31015e-26
8.47413e-27
-1.36954e-26
-2.68547e-26
-1.38743e-23
-2.27299e-22
-1.61933e-23
-3.81845e-23
-1.19286e-23
6.81119e-23
-2.00558e-23
9.5366e-23
8.96207e-24
1.0069e-22
-3.9501e-24
8.77507e-23
1.676e-25
8.03194e-23
-8.10453e-24
5.89537e-23
-1.74532e-23
4.89689e-23
-2.52261e-23
4.00496e-23
-3.0999e-23
3.34483e-23
-2.60657e-23
2.9014e-23
-2.09132e-23
2.41971e-23
-1.60028e-23
1.97579e-23
-1.93091e-23
1.53022e-23
-3.62153e-23
1.12062e-23
-3.76784e-23
8.6462e-24
-4.25664e-23
6.75824e-24
-4.00448e-23
5.59362e-24
-3.79889e-23
4.57618e-24
-3.94494e-23
3.52819e-24
-2.9641e-23
2.76928e-24
-2.79354e-23
2.1356e-24
-2.80865e-23
1.63318e-24
-2.6138e-23
1.25892e-24
-2.03993e-23
9.89642e-25
-2.10034e-23
7.65349e-25
-1.71719e-23
5.78131e-25
-1.62697e-23
4.09321e-25
-1.45124e-23
2.55405e-25
-1.25649e-23
9.55997e-26
-1.00148e-23
-4.13324e-26
-8.63244e-24
-1.31893e-25
-6.65538e-24
-1.76752e-25
-6.14845e-24
-1.89928e-25
-4.43209e-24
-1.83912e-25
-4.33339e-24
-1.73638e-25
-3.23699e-24
-1.61145e-25
-3.31729e-24
-1.4925e-25
-2.49794e-24
-1.35409e-25
-2.74851e-24
-1.21521e-25
-3.26683e-24
-1.07597e-25
-2.70455e-24
-9.56828e-26
-2.82099e-24
-8.97563e-26
-1.25998e-24
-9.2655e-26
-5.51926e-26
-1.09851e-25
-8.07136e-26
-9.63819e-24
-2.15061e-22
-4.95322e-24
-3.35728e-23
-2.1729e-24
7.5296e-23
1.0984e-24
9.89027e-23
1.00202e-23
9.17505e-23
1.65357e-23
7.73727e-23
-2.18412e-23
5.75665e-23
-5.59839e-24
5.35012e-23
-1.35176e-23
4.30564e-23
-1.63155e-23
3.46561e-23
-1.48176e-23
2.80046e-23
-1.18716e-23
2.28935e-23
-1.20141e-23
1.9156e-23
-1.36355e-23
1.52469e-23
-2.62504e-23
1.18725e-23
-3.15222e-23
9.41473e-24
-3.60005e-23
7.39926e-24
-3.49746e-23
5.85173e-24
-3.67315e-23
4.31263e-24
-4.4459e-23
3.11984e-24
-4.35803e-23
2.37296e-24
-3.62643e-23
1.72426e-24
-3.41565e-23
1.09128e-24
-3.27482e-23
6.58577e-25
-2.7625e-23
3.68052e-25
-2.38083e-23
1.46745e-25
-2.50663e-23
-1.09582e-26
-2.42267e-23
-7.77951e-26
-2.0969e-23
-8.45807e-26
-1.76468e-23
-8.77204e-26
-1.52628e-23
-1.12491e-25
-1.33656e-23
-1.21322e-25
-1.1436e-23
-9.4729e-26
-9.86055e-24
-4.82621e-26
-8.04795e-24
4.19531e-27
-7.18743e-24
4.59983e-26
-6.38298e-24
7.54682e-26
-6.39198e-24
8.9911e-26
-5.41238e-24
9.64094e-26
-5.46097e-24
9.53737e-26
-4.71852e-24
9.12476e-26
-3.27379e-24
8.27202e-26
-2.82831e-24
6.93012e-26
-1.00834e-24
5.07683e-26
-4.03846e-25
2.39459e-26
5.35285e-26
-1.39672e-26
-2.84698e-26
-1.28619e-23
-1.92238e-22
8.42947e-24
8.98353e-24
2.9825e-24
9.07309e-23
1.81229e-24
1.03476e-22
8.5357e-25
9.46113e-23
3.06004e-24
7.34243e-23
-2.16684e-24
6.07199e-23
-3.66746e-24
4.99785e-23
-6.26962e-24
4.06962e-23
-2.15867e-24
3.30847e-23
-1.2441e-24
2.97152e-23
3.6734e-24
2.60589e-23
-1.9416e-24
2.21226e-23
-9.07006e-24
1.85262e-23
-1.56227e-23
1.39326e-23
-2.09052e-23
1.02006e-23
-2.24697e-23
7.40752e-24
-2.46367e-23
5.42938e-24
-2.49491e-23