/*--------------------------------*- C++ -*----------------------------------*\
  =========                 |
  \\      /  F ield         | OpenFOAM: The Open Source CFD Toolbox
   \\    /   O peration     | Website:  https://openfoam.org
    \\  /    A nd           | Version:  7
     \\/     M anipulation  |
\*---------------------------------------------------------------------------*/
FoamFile
{
    version     2.0;
    format      ascii;
    class       volVectorField;
    location    "7009";
    object      U;
}
// * * * * * * * * * * * * * * * * * * * * * * * * * * * * * * * * * * * * * //

dimensions      [0 1 -1 0 0 0 0];

internalField   nonuniform List<vector> 
31819
(
(47.7104 -2.42525e-16 -1.85836e-17)
(47.5349 1.87401e-15 1.12054e-15)
(47.223 2.66328e-15 1.00018e-15)
(46.8026 2.17502e-15 6.95602e-16)
(46.2949 1.49702e-15 4.91297e-16)
(45.7166 1.09734e-15 3.67689e-16)
(45.0805 9.06548e-16 2.94497e-16)
(44.3967 7.50713e-16 2.44442e-16)
(43.673 6.63752e-16 2.21763e-16)
(42.9131 6.78878e-16 2.04828e-16)
(42.1163 7.39366e-16 1.99853e-16)
(41.2841 8.21765e-16 1.90772e-16)
(40.4214 8.53663e-16 1.64069e-16)
(39.5323 7.99394e-16 1.3433e-16)
(38.6189 7.07792e-16 1.1969e-16)
(37.6815 5.6832e-16 1.12342e-16)
(36.719 3.96092e-16 1.13969e-16)
(35.7293 2.56806e-16 1.16748e-16)
(34.7098 1.3064e-16 1.09977e-16)
(33.6571 -2.15569e-17 1.00605e-16)
(32.5675 -1.79976e-16 9.49358e-17)
(31.4367 -3.27678e-16 9.21892e-17)
(30.2605 -4.59237e-16 9.16769e-17)
(29.0345 -5.84173e-16 9.2801e-17)
(27.7546 -6.9448e-16 9.61846e-17)
(26.4174 -7.77265e-16 1.00127e-16)
(25.021 -8.34e-16 1.04687e-16)
(23.5657 -8.63101e-16 1.08687e-16)
(22.0545 -8.64383e-16 1.11821e-16)
(20.4928 -8.45242e-16 1.1317e-16)
(18.8815 -8.16771e-16 1.12301e-16)
(17.2273 -7.78896e-16 1.0925e-16)
(15.5548 -7.27372e-16 1.04248e-16)
(13.8971 -6.7173e-16 9.78171e-17)
(12.2898 -6.15261e-16 9.04443e-17)
(10.7633 -5.55246e-16 8.24227e-17)
(9.33684 -4.93142e-16 7.40849e-17)
(8.0189 -4.31517e-16 6.5703e-17)
(6.80952 -3.72689e-16 5.75856e-17)
(5.70398 -3.17576e-16 4.98352e-17)
(4.69536 -2.65512e-16 4.25251e-17)
(3.77609 -2.16195e-16 3.56052e-17)
(2.93869 -1.70218e-16 2.89992e-17)
(2.1761 -1.27693e-16 2.25187e-17)
(1.48176 -8.85049e-17 1.59134e-17)
(0.849659 -5.06563e-17 8.83474e-18)
(0.274297 -1.77115e-17 2.24007e-18)
(47.7105 7.89425e-16 2.22237e-15)
(47.535 3.85284e-15 5.04512e-15)
(47.2231 4.67075e-15 4.77896e-15)
(46.8027 4.21656e-15 3.88332e-15)
(46.295 3.485e-15 3.10246e-15)
(45.7167 2.88568e-15 2.56591e-15)
(45.0806 2.46054e-15 2.16902e-15)
(44.3968 2.11212e-15 1.85606e-15)
(43.6731 1.85317e-15 1.62848e-15)
(42.9132 1.71508e-15 1.50163e-15)
(42.1164 1.61504e-15 1.38711e-15)
(41.2842 1.48149e-15 1.26614e-15)
(40.4215 1.31305e-15 1.12294e-15)
(39.5324 1.17426e-15 9.7936e-16)
(38.619 1.03695e-15 8.46625e-16)
(37.6816 8.42933e-16 7.35381e-16)
(36.7191 6.04505e-16 6.49052e-16)
(35.7294 3.28514e-16 5.7266e-16)
(34.7099 7.35832e-17 4.98652e-16)
(33.6572 -1.15737e-16 4.36659e-16)
(32.5676 -2.61804e-16 3.89129e-16)
(31.4368 -3.9267e-16 3.50625e-16)
(30.2606 -5.00981e-16 3.19241e-16)
(29.0346 -5.87433e-16 2.97582e-16)
(27.7547 -6.57839e-16 2.82752e-16)
(26.4175 -7.05604e-16 2.71155e-16)
(25.0211 -7.30998e-16 2.61921e-16)
(23.5658 -7.40203e-16 2.5299e-16)
(22.0546 -7.31038e-16 2.43218e-16)
(20.4929 -7.13035e-16 2.31407e-16)
(18.8815 -6.91094e-16 2.17188e-16)
(17.2273 -6.58622e-16 2.00923e-16)
(15.5548 -6.06976e-16 1.82996e-16)
(13.8971 -5.45062e-16 1.6386e-16)
(12.2899 -4.84049e-16 1.44489e-16)
(10.7633 -4.25696e-16 1.25536e-16)
(9.33687 -3.70029e-16 1.0766e-16)
(8.01892 -3.15713e-16 9.1266e-17)
(6.80954 -2.64455e-16 7.66734e-17)
(5.70399 -2.18023e-16 6.39285e-17)
(4.69537 -1.75721e-16 5.29292e-17)
(3.7761 -1.37013e-16 4.34136e-17)
(2.9387 -1.02721e-16 3.50545e-17)
(2.17611 -7.41083e-17 2.73662e-17)
(1.48176 -5.01789e-17 1.971e-17)
(0.849662 -2.8695e-17 1.11558e-17)
(0.274298 -9.7985e-18 2.80651e-18)
(47.7106 6.23518e-16 2.91643e-15)
(47.5351 2.98503e-15 6.25794e-15)
(47.2232 3.93452e-15 6.55274e-15)
(46.8028 3.84065e-15 5.82718e-15)
(46.2951 3.4013e-15 4.98327e-15)
(45.7168 2.98199e-15 4.30614e-15)
(45.0807 2.5613e-15 3.74957e-15)
(44.3969 2.20119e-15 3.31626e-15)
(43.6732 2.07159e-15 2.9965e-15)
(42.9132 1.96017e-15 2.8142e-15)
(42.1165 1.70256e-15 2.59974e-15)
(41.2843 1.40432e-15 2.34678e-15)
(40.4216 1.09676e-15 2.07539e-15)
(39.5325 8.13512e-16 1.83431e-15)
(38.6191 5.92487e-16 1.6229e-15)
(37.6816 4.05776e-16 1.43927e-15)
(36.7191 1.68011e-16 1.27399e-15)
(35.7295 -9.42232e-17 1.13819e-15)
(34.71 -2.77521e-16 1.03677e-15)
(33.6573 -3.77554e-16 9.61173e-16)
(32.5676 -4.67042e-16 9.01103e-16)
(31.4369 -5.59058e-16 8.54225e-16)
(30.2607 -5.91414e-16 8.18975e-16)
(29.0346 -5.94286e-16 7.90433e-16)
(27.7547 -6.16163e-16 7.63245e-16)
(26.4175 -6.37212e-16 7.36391e-16)
(25.0212 -6.50584e-16 7.10339e-16)
(23.5658 -6.64142e-16 6.8483e-16)
(22.0546 -6.70102e-16 6.57812e-16)
(20.4929 -6.64215e-16 6.27626e-16)
(18.8816 -6.47272e-16 5.93229e-16)
(17.2274 -6.19463e-16 5.5478e-16)
(15.5548 -5.81258e-16 5.12211e-16)
(13.8971 -5.35409e-16 4.65999e-16)
(12.2899 -4.86274e-16 4.17711e-16)
(10.7633 -4.37827e-16 3.69246e-16)
(9.33689 -3.90335e-16 3.22326e-16)
(8.01895 -3.44679e-16 2.78182e-16)
(6.80956 -3.00642e-16 2.3759e-16)
(5.70401 -2.59882e-16 2.00831e-16)
(4.69539 -2.21888e-16 1.67801e-16)
(3.77611 -1.84571e-16 1.38034e-16)
(2.93871 -1.47941e-16 1.10861e-16)
(2.17611 -1.12403e-16 8.53848e-17)
(1.48177 -7.84253e-17 6.04339e-17)
(0.849664 -4.49183e-17 3.44196e-17)
(0.274298 -1.59078e-17 9.61817e-18)
(47.7107 3.53254e-16 2.4296e-15)
(47.5352 1.90832e-15 5.98934e-15)
(47.2233 2.72137e-15 6.9028e-15)
(46.8029 2.88905e-15 6.55209e-15)
(46.2952 2.7831e-15 5.90269e-15)
(45.7168 2.57131e-15 5.2296e-15)
(45.0807 2.30811e-15 4.65574e-15)
(44.397 2.09986e-15 4.19344e-15)
(43.6733 2.07007e-15 3.7969e-15)
(42.9133 1.86005e-15 3.39151e-15)
(42.1165 1.32642e-15 3.01844e-15)
(41.2844 7.90911e-16 2.68779e-15)
(40.4217 4.4762e-16 2.40681e-15)
(39.5326 2.98511e-16 2.16731e-15)
(38.6191 1.70985e-16 1.95949e-15)
(37.6817 -2.51158e-17 1.77253e-15)
(36.7192 -2.08602e-16 1.60671e-15)
(35.7296 -3.16714e-16 1.47418e-15)
(34.71 -3.82582e-16 1.37077e-15)
(33.6573 -4.45834e-16 1.28365e-15)
(32.5677 -5.03253e-16 1.20728e-15)
(31.4369 -5.35824e-16 1.14287e-15)
(30.2607 -5.58171e-16 1.08758e-15)
(29.0347 -6.06854e-16 1.03485e-15)
(27.7548 -6.60955e-16 9.85046e-16)
(26.4176 -6.6677e-16 9.37776e-16)
(25.0212 -6.28099e-16 8.91435e-16)
(23.5659 -5.84094e-16 8.45595e-16)
(22.0547 -5.51514e-16 7.99805e-16)
(20.493 -5.20597e-16 7.52952e-16)
(18.8816 -4.82673e-16 7.02955e-16)
(17.2274 -4.42743e-16 6.48698e-16)
(15.5549 -4.05291e-16 5.90973e-16)
(13.8972 -3.67885e-16 5.30923e-16)
(12.2899 -3.30804e-16 4.70213e-16)
(10.7633 -2.94278e-16 4.10921e-16)
(9.33691 -2.60005e-16 3.54872e-16)
(8.01897 -2.24877e-16 3.03329e-16)
(6.80957 -1.8902e-16 2.56919e-16)
(5.70402 -1.53825e-16 2.15733e-16)
(4.6954 -1.21345e-16 1.7944e-16)
(3.77612 -9.26762e-17 1.47371e-16)
(2.93872 -6.80213e-17 1.18581e-16)
(2.17612 -4.84433e-17 9.18606e-17)
(1.48177 -3.27453e-17 6.56591e-17)
(0.849666 -1.89947e-17 3.78551e-17)
(0.274299 -6.40653e-18 1.07443e-17)
(47.7107 1.85998e-16 1.97281e-15)
(47.5353 1.22096e-15 5.61011e-15)
(47.2234 1.86778e-15 6.91473e-15)
(46.8029 2.09994e-15 6.90342e-15)
(46.2953 2.09846e-15 6.42473e-15)
(45.7169 2.031e-15 5.8177e-15)
(45.0808 1.9092e-15 5.21977e-15)
(44.397 1.69607e-15 4.67439e-15)
(43.6733 1.45479e-15 4.1581e-15)
(42.9134 1.19514e-15 3.62286e-15)
(42.1166 9.22714e-16 3.18308e-15)
(41.2844 6.82448e-16 2.84952e-15)
(40.4217 4.69267e-16 2.59373e-15)
(39.5326 2.66537e-16 2.37007e-15)
(38.6192 8.55173e-17 2.15692e-15)
(37.6818 -7.52932e-17 1.96507e-15)
(36.7192 -2.03028e-16 1.80384e-15)
(35.7296 -2.99999e-16 1.66421e-15)
(34.7101 -3.84201e-16 1.53821e-15)
(33.6574 -4.61859e-16 1.42486e-15)
(32.5677 -5.27256e-16 1.324e-15)
(31.437 -5.80965e-16 1.23366e-15)
(30.2608 -6.20913e-16 1.15033e-15)
(29.0347 -6.48856e-16 1.07437e-15)
(27.7548 -6.70514e-16 1.00727e-15)
(26.4176 -6.82426e-16 9.4725e-16)
(25.0212 -6.81882e-16 8.90421e-16)
(23.5659 -6.67245e-16 8.34519e-16)
(22.0547 -6.387e-16 7.79306e-16)
(20.493 -6.09452e-16 7.2394e-16)
(18.8816 -5.93213e-16 6.66807e-16)
(17.2275 -5.71507e-16 6.07282e-16)
(15.5549 -5.31353e-16 5.4599e-16)
(13.8972 -4.82972e-16 4.8378e-16)
(12.2899 -4.32579e-16 4.22349e-16)
(10.7634 -3.83167e-16 3.63532e-16)
(9.33693 -3.371e-16 3.09234e-16)
(8.01898 -2.96192e-16 2.60694e-16)
(6.80959 -2.59773e-16 2.18353e-16)
(5.70403 -2.26858e-16 1.82067e-16)
(4.69541 -1.95396e-16 1.51204e-16)
(3.77613 -1.64312e-16 1.2478e-16)
(2.93873 -1.33254e-16 1.01499e-16)
(2.17612 -1.02176e-16 7.97831e-17)
(1.48177 -7.16463e-17 5.7661e-17)
(0.849668 -4.09187e-17 3.25791e-17)
(0.2743 -1.46201e-17 8.13702e-18)
(47.7108 1.19338e-16 1.86545e-15)
(47.5354 8.52705e-16 5.54177e-15)
(47.2234 1.33642e-15 7.01006e-15)
(46.803 1.54187e-15 7.15086e-15)
(46.2953 1.5997e-15 6.77561e-15)
(45.717 1.55239e-15 6.23117e-15)
(45.0809 1.42552e-15 5.62367e-15)
(44.3971 1.2474e-15 5.04194e-15)
(43.6734 1.05492e-15 4.52868e-15)
(42.9134 8.72067e-16 4.0825e-15)
(42.1167 6.82025e-16 3.69195e-15)
(41.2845 4.9341e-16 3.34241e-15)
(40.4218 3.24549e-16 3.02224e-15)
(39.5327 1.78393e-16 2.74317e-15)
(38.6192 5.44799e-17 2.4885e-15)
(37.6818 -4.46323e-17 2.26812e-15)
(36.7193 -1.27966e-16 2.08048e-15)
(35.7296 -2.01315e-16 1.92119e-15)
(34.7101 -2.65812e-16 1.77554e-15)
(33.6574 -3.2051e-16 1.64394e-15)
(32.5678 -3.66101e-16 1.52618e-15)
(31.437 -4.05094e-16 1.42232e-15)
(30.2608 -4.37458e-16 1.3303e-15)
(29.0348 -4.60849e-16 1.24767e-15)
(27.7548 -4.72021e-16 1.17264e-15)
(26.4177 -4.67154e-16 1.10394e-15)
(25.0213 -4.53521e-16 1.03884e-15)
(23.5659 -4.36444e-16 9.75198e-16)
(22.0547 -4.14494e-16 9.12026e-16)
(20.493 -3.89542e-16 8.47687e-16)
(18.8817 -3.60927e-16 7.81294e-16)
(17.2275 -3.28746e-16 7.1302e-16)
(15.5549 -2.9339e-16 6.42578e-16)
(13.8972 -2.56726e-16 5.70566e-16)
(12.29 -2.2278e-16 4.98936e-16)
(10.7634 -1.87404e-16 4.30075e-16)
(9.33695 -1.48506e-16 3.66068e-16)
(8.019 -1.10315e-16 3.08456e-16)
(6.8096 -7.51062e-17 2.579e-16)
(5.70405 -4.33701e-17 2.14349e-16)
(4.69542 -1.71409e-17 1.77152e-16)
(3.77614 1.94187e-18 1.45258e-16)
(2.93873 1.34067e-17 1.17273e-16)
(2.17613 1.6923e-17 9.15144e-17)
(1.48178 1.4473e-17 6.58743e-17)
(0.84967 8.55552e-18 3.75864e-17)
(0.2743 3.55547e-18 9.94011e-18)
(47.7109 7.4621e-17 2.01614e-15)
(47.5354 5.92285e-16 5.7563e-15)
(47.2235 9.24441e-16 7.26891e-15)
(46.803 1.09482e-15 7.45626e-15)
(46.2954 1.16451e-15 7.12257e-15)
(45.717 1.13333e-15 6.55246e-15)
(45.0809 1.02988e-15 5.94613e-15)
(44.3972 9.11584e-16 5.40783e-15)
(43.6734 8.04025e-16 4.91715e-15)
(42.9135 6.7112e-16 4.45666e-15)
(42.1167 4.92708e-16 4.02911e-15)
(41.2845 3.04521e-16 3.64853e-15)
(40.4218 1.75696e-16 3.31695e-15)
(39.5327 5.50211e-17 3.02099e-15)
(38.6193 -4.17024e-17 2.75019e-15)
(37.6818 -7.82257e-17 2.5073e-15)
(36.7193 -9.94586e-17 2.28932e-15)
(35.7297 -1.72207e-16 2.10588e-15)
(34.7102 -2.88717e-16 1.94173e-15)
(33.6575 -3.82283e-16 1.79375e-15)
(32.5678 -4.45676e-16 1.66057e-15)
(31.4371 -4.88808e-16 1.54277e-15)
(30.2608 -5.26413e-16 1.44085e-15)
(29.0348 -5.58192e-16 1.35086e-15)
(27.7549 -5.77913e-16 1.26649e-15)
(26.4177 -5.92274e-16 1.18856e-15)
(25.0213 -6.12747e-16 1.1165e-15)
(23.566 -6.26715e-16 1.04844e-15)
(22.0548 -6.25333e-16 9.82107e-16)
(20.4931 -6.08815e-16 9.15252e-16)
(18.8817 -5.77431e-16 8.4563e-16)
(17.2275 -5.44714e-16 7.72507e-16)
(15.555 -5.11952e-16 6.96238e-16)
(13.8972 -4.7749e-16 6.17901e-16)
(12.29 -4.39586e-16 5.39779e-16)
(10.7634 -4.008e-16 4.64793e-16)
(9.33697 -3.619e-16 3.95251e-16)
(8.01901 -3.2462e-16 3.32819e-16)
(6.80961 -2.89106e-16 2.78294e-16)
(5.70406 -2.54459e-16 2.3159e-16)
(4.69542 -2.20662e-16 1.91981e-16)
(3.77614 -1.86782e-16 1.5827e-16)
(2.93874 -1.52458e-16 1.28864e-16)
(2.17613 -1.17257e-16 1.01766e-16)
(1.48178 -8.23724e-17 7.44121e-17)
(0.849671 -4.72313e-17 4.3265e-17)
(0.274301 -1.68963e-17 1.17805e-17)
(47.7109 5.70585e-17 2.14208e-15)
(47.5355 3.80129e-16 6.00944e-15)
(47.2235 5.51739e-16 7.54622e-15)
(46.8031 6.98303e-16 7.76323e-15)
(46.2954 7.28883e-16 7.47952e-15)
(45.717 6.85285e-16 6.95963e-15)
(45.081 7.21603e-16 6.39698e-15)
(44.3972 6.94488e-16 5.88865e-15)
(43.6735 5.4193e-16 5.3828e-15)
(42.9135 3.7461e-16 4.89445e-15)
(42.1167 2.60216e-16 4.43752e-15)
(41.2846 2.07655e-16 4.05177e-15)
(40.4219 1.56539e-16 3.70997e-15)
(39.5327 6.68588e-17 3.39557e-15)
(38.6193 -1.87261e-17 3.11673e-15)
(37.6819 -7.84881e-17 2.87194e-15)
(36.7194 -7.65912e-17 2.65091e-15)
(35.7297 -8.62728e-17 2.44804e-15)
(34.7102 -1.5648e-16 2.27922e-15)
(33.6575 -2.23937e-16 2.13552e-15)
(32.5678 -2.65375e-16 2.00946e-15)
(31.4371 -2.6559e-16 1.89596e-15)
(30.2609 -2.57252e-16 1.79242e-15)
(29.0348 -2.88465e-16 1.69701e-15)
(27.7549 -3.15411e-16 1.60843e-15)
(26.4177 -2.87991e-16 1.52363e-15)
(25.0213 -2.42459e-16 1.44116e-15)
(23.566 -2.09313e-16 1.35995e-15)
(22.0548 -1.86549e-16 1.27839e-15)
(20.4931 -1.67688e-16 1.19443e-15)
(18.8817 -1.48187e-16 1.10558e-15)
(17.2275 -1.26648e-16 1.0113e-15)
(15.555 -1.03671e-16 9.12636e-16)
(13.8973 -8.0043e-17 8.11184e-16)
(12.29 -5.55216e-17 7.10103e-16)
(10.7634 -3.0783e-17 6.12741e-16)
(9.33698 -7.33397e-18 5.22202e-16)
(8.01902 1.4838e-17 4.40574e-16)
(6.80962 3.42152e-17 3.68817e-16)
(5.70406 5.01585e-17 3.06841e-16)
(4.69543 6.12382e-17 2.53785e-16)
(3.77615 6.56773e-17 2.08228e-16)
(2.93874 6.29911e-17 1.68315e-16)
(2.17613 5.34757e-17 1.31726e-16)
(1.48178 3.97461e-17 9.55132e-17)
(0.849672 2.33202e-17 5.56316e-17)
(0.274301 8.79385e-18 1.56809e-17)
(47.7109 6.6391e-17 2.13541e-15)
(47.5355 2.07556e-16 6.03052e-15)
(47.2236 2.09503e-16 7.69087e-15)
(46.8031 3.88957e-16 8.0119e-15)
(46.2954 4.78524e-16 7.76644e-15)
(45.7171 4.60285e-16 7.33889e-15)
(45.081 5.00868e-16 6.83939e-15)
(44.3972 4.42223e-16 6.31478e-15)
(43.6735 2.79299e-16 5.82713e-15)
(42.9135 1.5603e-16 5.37705e-15)
(42.1168 1.30382e-16 4.97477e-15)
(41.2846 1.30456e-16 4.60495e-15)
(40.4219 7.8721e-17 4.25894e-15)
(39.5328 2.35489e-17 3.94284e-15)
(38.6193 1.43048e-17 3.66482e-15)
(37.6819 2.03547e-17 3.4182e-15)
(36.7194 -1.20143e-17 3.19473e-15)
(35.7297 -2.75208e-17 2.97842e-15)
(34.7102 -3.45644e-17 2.78389e-15)
(33.6575 -7.88926e-17 2.61353e-15)
(32.5679 -1.38062e-16 2.46428e-15)
(31.4371 -1.98205e-16 2.33086e-15)
(30.2609 -2.53905e-16 2.20504e-15)
(29.0349 -2.94267e-16 2.08638e-15)
(27.7549 -3.25716e-16 1.98059e-15)
(26.4177 -3.57146e-16 1.88225e-15)
(25.0214 -3.85628e-16 1.78568e-15)
(23.566 -4.06314e-16 1.68897e-15)
(22.0548 -4.20339e-16 1.59146e-15)
(20.4931 -4.24112e-16 1.49153e-15)
(18.8817 -4.1526e-16 1.3859e-15)
(17.2275 -3.98346e-16 1.27377e-15)
(15.555 -3.75449e-16 1.15562e-15)
(13.8973 -3.49607e-16 1.03351e-15)
(12.29 -3.22809e-16 9.10933e-16)
(10.7634 -2.98927e-16 7.91959e-16)
(9.33699 -2.75981e-16 6.80281e-16)
(8.01903 -2.55326e-16 5.78468e-16)
(6.80963 -2.36582e-16 4.87713e-16)
(5.70407 -2.18192e-16 4.08078e-16)
(4.69544 -1.98499e-16 3.3868e-16)
(3.77615 -1.75791e-16 2.77961e-16)
(2.93874 -1.49019e-16 2.23859e-16)
(2.17614 -1.17617e-16 1.73793e-16)
(1.48178 -8.36543e-17 1.2451e-16)
(0.849673 -4.80989e-17 7.16943e-17)
(0.274301 -1.74378e-17 2.01001e-17)
(47.711 3.20584e-18 2.13825e-15)
(47.5355 7.80869e-17 6.01922e-15)
(47.2236 1.06172e-16 7.81811e-15)
(46.8032 2.04934e-16 8.23389e-15)
(46.2955 2.82117e-16 8.00568e-15)
(45.7171 3.02682e-16 7.58009e-15)
(45.081 3.1526e-16 7.09392e-15)
(44.3973 3.0261e-16 6.58552e-15)
(43.6735 2.15681e-16 6.11851e-15)
(42.9136 1.37188e-16 5.6761e-15)
(42.1168 1.01279e-16 5.29807e-15)
(41.2846 6.96578e-17 4.908e-15)
(40.4219 4.63858e-17 4.53472e-15)
(39.5328 3.95571e-17 4.18936e-15)
(38.6194 4.40161e-17 3.87951e-15)
(37.6819 2.12294e-17 3.60083e-15)
(36.7194 -4.76711e-17 3.34827e-15)
(35.7298 -1.17853e-16 3.11969e-15)
(34.7102 -1.58565e-16 2.90713e-15)
(33.6575 -1.78798e-16 2.71487e-15)
(32.5679 -1.92055e-16 2.54363e-15)
(31.4371 -2.2234e-16 2.39152e-15)
(30.2609 -2.68486e-16 2.25567e-15)
(29.0349 -2.70948e-16 2.13267e-15)
(27.755 -2.32651e-16 2.01752e-15)
(26.4178 -2.04143e-16 1.90822e-15)
(25.0214 -1.90842e-16 1.80275e-15)
(23.566 -1.74408e-16 1.69972e-15)
(22.0548 -1.46808e-16 1.59739e-15)
(20.4931 -1.19185e-16 1.49356e-15)
(18.8818 -9.64838e-17 1.38463e-15)
(17.2276 -7.58557e-17 1.26925e-15)
(15.555 -5.53468e-17 1.14826e-15)
(13.8973 -3.21148e-17 1.02394e-15)
(12.29 -1.08582e-17 8.99653e-16)
(10.7634 9.10747e-18 7.79711e-16)
(9.337 2.74464e-17 6.67685e-16)
(8.01904 4.37957e-17 5.66024e-16)
(6.80964 5.7981e-17 4.75901e-16)
(5.70408 7.05851e-17 3.9732e-16)
(4.69544 7.92817e-17 3.29274e-16)
(3.77616 8.17532e-17 2.70122e-16)
(2.93875 7.72131e-17 2.17673e-16)
(2.17614 6.52156e-17 1.69249e-16)
(1.48178 4.8249e-17 1.21482e-16)
(0.849674 2.81892e-17 6.99029e-17)
(0.274302 1.05426e-17 1.94005e-17)
(47.711 -6.55337e-17 2.16698e-15)
(47.5355 -1.82038e-17 6.13114e-15)
(47.2236 5.37029e-17 7.99665e-15)
(46.8032 7.97481e-17 8.4162e-15)
(46.2955 1.0966e-16 8.18183e-15)
(45.7171 1.57197e-16 7.69304e-15)
(45.081 2.05886e-16 7.16959e-15)
(44.3973 1.84287e-16 6.63521e-15)
(43.6736 7.11268e-17 6.11815e-15)
(42.9136 4.38005e-17 5.64386e-15)
(42.1168 3.73548e-19 5.20817e-15)
(41.2846 -1.18743e-16 4.80379e-15)
(40.4219 -1.76183e-16 4.4286e-15)
(39.5328 -1.7475e-16 4.08365e-15)
(38.6194 -1.1653e-16 3.76415e-15)
(37.6819 -7.19924e-17 3.46794e-15)
(36.7194 -9.32991e-17 3.20245e-15)
(35.7298 -1.30523e-16 2.9699e-15)
(34.7103 -1.614e-16 2.76461e-15)
(33.6576 -1.86505e-16 2.57836e-15)
(32.5679 -2.06582e-16 2.41007e-15)
(31.4371 -2.26703e-16 2.25984e-15)
(30.2609 -2.48387e-16 2.12693e-15)
(29.0349 -2.79618e-16 2.00883e-15)
(27.755 -3.14662e-16 1.8987e-15)
(26.4178 -3.40554e-16 1.79252e-15)
(25.0214 -3.51252e-16 1.69054e-15)
(23.5661 -3.48229e-16 1.59187e-15)
(22.0548 -3.37522e-16 1.49433e-15)
(20.4932 -3.29963e-16 1.39437e-15)
(18.8818 -3.31878e-16 1.28973e-15)
(17.2276 -3.32491e-16 1.17966e-15)
(15.555 -3.20995e-16 1.06505e-15)
(13.8973 -3.01476e-16 9.47329e-16)
(12.29 -2.78789e-16 8.29929e-16)
(10.7635 -2.56434e-16 7.1683e-16)
(9.33701 -2.37744e-16 6.11537e-16)
(8.01905 -2.205e-16 5.16398e-16)
(6.80964 -2.02308e-16 4.32591e-16)
(5.70408 -1.83764e-16 3.60025e-16)
(4.69545 -1.64656e-16 2.97733e-16)
(3.77616 -1.44227e-16 2.44091e-16)
(2.93875 -1.21424e-16 1.96998e-16)
(2.17614 -9.50267e-17 1.5382e-16)
(1.48179 -6.69929e-17 1.11229e-16)
(0.849675 -3.82253e-17 6.46757e-17)
(0.274302 -1.38395e-17 1.82682e-17)
(47.711 -1.0265e-16 2.20201e-15)
(47.5356 -3.85245e-17 6.36433e-15)
(47.2236 4.92488e-17 8.18311e-15)
(46.8032 -6.21457e-17 8.60168e-15)
(46.2955 -1.36724e-16 8.39527e-15)
(45.7172 -9.11873e-17 7.89301e-15)
(45.0811 -2.00583e-17 7.28775e-15)
(44.3973 -3.00999e-17 6.65997e-15)
(43.6736 -7.40223e-17 6.06838e-15)
(42.9136 -7.55776e-17 5.54769e-15)
(42.1168 -6.18227e-17 5.07799e-15)
(41.2846 -6.76705e-17 4.66555e-15)
(40.4219 -6.11131e-17 4.30205e-15)
(39.5328 -4.79997e-17 4.00054e-15)
(38.6194 -4.83664e-17 3.72038e-15)
(37.682 -5.60105e-17 3.43543e-15)
(36.7194 -6.72801e-17 3.16278e-15)
(35.7298 -8.89386e-17 2.92053e-15)
(34.7103 -1.32607e-16 2.7051e-15)
(33.6576 -1.76451e-16 2.51447e-15)
(32.5679 -1.93737e-16 2.34453e-15)
(31.4372 -2.00057e-16 2.19304e-15)
(30.2609 -2.05792e-16 2.05875e-15)
(29.0349 -2.01021e-16 1.93695e-15)
(27.755 -1.97224e-16 1.82695e-15)
(26.4178 -1.82038e-16 1.72668e-15)
(25.0214 -1.39968e-16 1.63259e-15)
(23.5661 -8.79975e-17 1.54158e-15)
(22.0549 -5.16532e-17 1.45067e-15)
(20.4932 -2.40664e-17 1.35786e-15)
(18.8818 5.20409e-18 1.26036e-15)
(17.2276 3.41313e-17 1.1578e-15)
(15.555 5.64556e-17 1.05034e-15)
(13.8973 7.2668e-17 9.392e-16)
(12.29 8.52913e-17 8.27458e-16)
(10.7635 9.30392e-17 7.18782e-16)
(9.33702 9.58905e-17 6.16866e-16)
(8.01905 9.66541e-17 5.24188e-16)
(6.80965 9.70691e-17 4.41887e-16)
(5.70408 9.64422e-17 3.69933e-16)
(4.69545 9.34623e-17 3.07497e-16)
(3.77616 8.69011e-17 2.531e-16)
(2.93875 7.63661e-17 2.04795e-16)
(2.17614 6.17863e-17 1.60097e-16)
(1.48179 4.48068e-17 1.158e-16)
(0.849675 2.59212e-17 6.75213e-17)
(0.274302 9.53694e-18 1.93246e-17)
(47.711 -4.45957e-17 2.22474e-15)
(47.5356 -4.82108e-17 6.50146e-15)
(47.2236 -3.54196e-17 8.25328e-15)
(46.8032 -1.3155e-16 8.66984e-15)
(46.2955 -2.86256e-16 8.53508e-15)
(45.7172 -3.90109e-16 8.08344e-15)
(45.0811 -4.1082e-16 7.47407e-15)
(44.3973 -4.20239e-16 6.8609e-15)
(43.6736 -3.92166e-16 6.29312e-15)
(42.9136 -2.52539e-16 5.77592e-15)
(42.1168 -1.37872e-16 5.29418e-15)
(41.2847 -1.07808e-16 4.85143e-15)
(40.422 1.23824e-17 4.44378e-15)
(39.5328 1.03625e-16 4.0684e-15)
(38.6194 2.76875e-17 3.72074e-15)
(37.682 -9.49424e-17 3.39785e-15)
(36.7195 -1.48224e-16 3.10529e-15)
(35.7298 -1.5992e-16 2.84264e-15)
(34.7103 -1.77062e-16 2.61046e-15)
(33.6576 -1.99769e-16 2.40367e-15)
(32.5679 -2.27827e-16 2.21857e-15)
(31.4372 -2.4413e-16 2.05319e-15)
(30.261 -2.66234e-16 1.90587e-15)
(29.0349 -2.92136e-16 1.77448e-15)
(27.755 -2.94644e-16 1.65592e-15)
(26.4178 -2.90122e-16 1.54838e-15)
(25.0214 -2.86437e-16 1.44744e-15)
(23.5661 -2.86576e-16 1.34979e-15)
(22.0549 -2.83087e-16 1.25408e-15)
(20.4932 -2.70458e-16 1.15894e-15)
(18.8818 -2.5399e-16 1.06184e-15)
(17.2276 -2.31969e-16 9.62047e-16)
(15.5551 -2.09544e-16 8.60213e-16)
(13.8973 -1.89111e-16 7.57805e-16)
(12.2901 -1.73134e-16 6.574e-16)
(10.7635 -1.57701e-16 5.62083e-16)
(9.33702 -1.41995e-16 4.74559e-16)
(8.01906 -1.30351e-16 3.96707e-16)
(6.80965 -1.21987e-16 3.29179e-16)
(5.70409 -1.15356e-16 2.71697e-16)
(4.69545 -1.08134e-16 2.23224e-16)
(3.77617 -9.87821e-17 1.82213e-16)
(2.93875 -8.58857e-17 1.46681e-16)
(2.17614 -6.88193e-17 1.14228e-16)
(1.48179 -4.88213e-17 8.19533e-17)
(0.849676 -2.71335e-17 4.61876e-17)
(0.274302 -9.87948e-18 1.16565e-17)
(47.711 -1.38398e-17 2.16317e-15)
(47.5356 -5.79768e-17 6.36945e-15)
(47.2237 -9.09397e-17 8.10512e-15)
(46.8032 -1.6919e-16 8.52507e-15)
(46.2955 -3.8503e-16 8.44483e-15)
(45.7172 -6.18544e-16 8.01023e-15)
(45.0811 -6.72897e-16 7.43486e-15)
(44.3973 -6.3523e-16 6.88992e-15)
(43.6736 -5.78982e-16 6.3826e-15)
(42.9136 -5.02663e-16 5.9001e-15)
(42.1169 -4.2223e-16 5.38889e-15)
(41.2847 -3.6074e-16 4.91455e-15)
(40.422 -2.98546e-16 4.48322e-15)
(39.5328 -2.54206e-16 4.0786e-15)
(38.6194 -2.55246e-16 3.70733e-15)
(37.682 -2.5576e-16 3.38341e-15)
(36.7195 -2.38376e-16 3.09994e-15)
(35.7298 -2.24642e-16 2.84249e-15)
(34.7103 -2.38904e-16 2.6106e-15)
(33.6576 -2.75346e-16 2.40132e-15)
(32.5679 -2.85996e-16 2.21629e-15)
(31.4372 -2.7208e-16 2.05426e-15)
(30.261 -2.48745e-16 1.90922e-15)
(29.0349 -2.12253e-16 1.78014e-15)
(27.755 -1.75595e-16 1.66413e-15)
(26.4178 -1.45211e-16 1.55711e-15)
(25.0214 -1.23965e-16 1.45579e-15)
(23.5661 -1.04592e-16 1.35781e-15)
(22.0549 -8.50495e-17 1.26287e-15)
(20.4932 -6.53691e-17 1.16817e-15)
(18.8818 -4.57734e-17 1.07155e-15)
(17.2276 -2.75313e-17 9.72046e-16)
(15.5551 -1.27385e-17 8.70468e-16)
(13.8973 -2.48869e-18 7.6828e-16)
(12.2901 3.98979e-18 6.68212e-16)
(10.7635 8.87723e-18 5.73421e-16)
(9.33702 1.34457e-17 4.86308e-16)
(8.01906 1.84275e-17 4.08526e-16)
(6.80965 2.30711e-17 3.40731e-16)
(5.70409 2.81761e-17 2.82656e-16)
(4.69545 3.23738e-17 2.33267e-16)
(3.77617 3.50535e-17 1.91041e-16)
(2.93875 3.41857e-17 1.54035e-16)
(2.17614 2.91989e-17 1.19936e-16)
(1.48179 2.1331e-17 8.59127e-17)
(0.849676 1.16478e-17 4.8434e-17)
(0.274302 4.41318e-18 1.23499e-17)
(47.7111 -1.28341e-17 2.07207e-15)
(47.5356 -1.13296e-16 6.2026e-15)
(47.2237 -1.35963e-16 7.90916e-15)
(46.8032 -1.19878e-16 8.27155e-15)
(46.2956 -4.15127e-16 8.06128e-15)
(45.7172 -8.27682e-16 7.64496e-15)
(45.0811 -8.99599e-16 7.17352e-15)
(44.3973 -8.25763e-16 6.69705e-15)
(43.6736 -7.7928e-16 6.21737e-15)
(42.9136 -7.78114e-16 5.748e-15)
(42.1169 -7.52652e-16 5.29006e-15)
(41.2847 -6.37769e-16 4.85894e-15)
(40.422 -4.58736e-16 4.46078e-15)
(39.5328 -3.32489e-16 4.09149e-15)
(38.6194 -3.04155e-16 3.75359e-15)
(37.682 -3.04026e-16 3.44939e-15)
(36.7195 -3.14565e-16 3.1679e-15)
(35.7298 -3.33711e-16 2.91084e-15)
(34.7103 -3.6035e-16 2.67394e-15)
(33.6576 -3.7429e-16 2.46393e-15)
(32.5679 -3.60164e-16 2.2807e-15)
(31.4372 -3.47615e-16 2.11925e-15)
(30.261 -3.49327e-16 1.97513e-15)
(29.0349 -3.4362e-16 1.84633e-15)
(27.755 -3.33705e-16 1.73098e-15)
(26.4178 -3.39407e-16 1.62446e-15)
(25.0214 -3.60191e-16 1.52408e-15)
(23.5661 -3.76244e-16 1.42637e-15)
(22.0549 -3.81349e-16 1.33057e-15)
(20.4932 -3.78931e-16 1.23451e-15)
(18.8818 -3.69713e-16 1.1354e-15)
(17.2276 -3.54187e-16 1.03245e-15)
(15.5551 -3.30169e-16 9.2635e-16)
(13.8973 -2.99568e-16 8.18726e-16)
(12.2901 -2.64221e-16 7.12551e-16)
(10.7635 -2.29706e-16 6.11072e-16)
(9.33702 -1.99337e-16 5.17352e-16)
(8.01906 -1.74105e-16 4.33346e-16)
(6.80966 -1.5289e-16 3.59924e-16)
(5.70409 -1.35753e-16 2.96834e-16)
(4.69545 -1.20734e-16 2.43162e-16)
(3.77617 -1.05825e-16 1.97359e-16)
(2.93875 -8.89135e-17 1.57562e-16)
(2.17614 -6.96267e-17 1.21484e-16)
(1.48179 -4.90827e-17 8.64117e-17)
(0.849676 -2.73648e-17 4.89246e-17)
(0.274302 -9.86585e-18 1.29972e-17)
(47.7111 -2.67333e-17 1.98938e-15)
(47.5356 -1.548e-16 6.09782e-15)
(47.2237 -2.12414e-16 7.77015e-15)
(46.8032 -3.26293e-16 8.08796e-15)
(46.2956 -5.75049e-16 7.78864e-15)
(45.7172 -7.9412e-16 7.37766e-15)
(45.0811 -8.37098e-16 6.96724e-15)
(44.3973 -8.39958e-16 6.52771e-15)
(43.6736 -8.5621e-16 6.08205e-15)
(42.9136 -8.42921e-16 5.62378e-15)
(42.1169 -7.90609e-16 5.20144e-15)
(41.2847 -7.08005e-16 4.82867e-15)
(40.422 -6.20903e-16 4.46263e-15)
(39.5328 -5.58852e-16 4.09248e-15)
(38.6194 -5.34263e-16 3.74698e-15)
(37.682 -5.48513e-16 3.43302e-15)
(36.7195 -5.76282e-16 3.1517e-15)
(35.7298 -6.02171e-16 2.90264e-15)
(34.7103 -6.21979e-16 2.68553e-15)
(33.6576 -6.08654e-16 2.49822e-15)
(32.5679 -5.67549e-16 2.33507e-15)
(31.4372 -5.27682e-16 2.19058e-15)
(30.261 -4.77042e-16 2.06339e-15)
(29.0349 -4.01753e-16 1.95061e-15)
(27.755 -3.32785e-16 1.84693e-15)
(26.4178 -2.88534e-16 1.74898e-15)
(25.0214 -2.70461e-16 1.65519e-15)
(23.5661 -2.58313e-16 1.5642e-15)
(22.0549 -2.37338e-16 1.47349e-15)
(20.4932 -2.22806e-16 1.38091e-15)
(18.8818 -2.16259e-16 1.28332e-15)
(17.2276 -2.16911e-16 1.17978e-15)
(15.5551 -2.22607e-16 1.07068e-15)
(13.8973 -2.29494e-16 9.57799e-16)
(12.2901 -2.39509e-16 8.44432e-16)
(10.7635 -2.46447e-16 7.34251e-16)
(9.33703 -2.4592e-16 6.30577e-16)
(8.01906 -2.37315e-16 5.35971e-16)
(6.80966 -2.23877e-16 4.51539e-16)
(5.70409 -2.04507e-16 3.77441e-16)
(4.69545 -1.80869e-16 3.12817e-16)
(3.77617 -1.53986e-16 2.56249e-16)
(2.93875 -1.25472e-16 2.05739e-16)
(2.17614 -9.71585e-17 1.58872e-16)
(1.48179 -6.8547e-17 1.12672e-16)
(0.849676 -4.01528e-17 6.34629e-17)
(0.274302 -1.37945e-17 1.67803e-17)
(47.7111 -9.24635e-18 1.9365e-15)
(47.5356 -1.69302e-16 5.99826e-15)
(47.2237 -2.63408e-16 7.53237e-15)
(46.8032 -4.02213e-16 7.79728e-15)
(46.2956 -6.79722e-16 7.53518e-15)
(45.7172 -8.75594e-16 7.17598e-15)
(45.0811 -8.9914e-16 6.75654e-15)
(44.3973 -9.07385e-16 6.32004e-15)
(43.6736 -9.75546e-16 5.90235e-15)
(42.9136 -1.0122e-15 5.48925e-15)
(42.1169 -8.95952e-16 5.08623e-15)
(41.2847 -7.78728e-16 4.69473e-15)
(40.422 -7.38037e-16 4.31327e-15)
(39.5328 -7.01628e-16 3.94398e-15)
(38.6194 -6.69107e-16 3.5951e-15)
(37.682 -6.40757e-16 3.27405e-15)
(36.7195 -6.13427e-16 2.98925e-15)
(35.7298 -5.85024e-16 2.74198e-15)
(34.7103 -5.54364e-16 2.53187e-15)
(33.6576 -5.23035e-16 2.35437e-15)
(32.5679 -4.93929e-16 2.20172e-15)
(31.4372 -4.66655e-16 2.0641e-15)
(30.261 -4.4068e-16 1.94111e-15)
(29.0349 -4.23909e-16 1.82945e-15)
(27.755 -4.22239e-16 1.72458e-15)
(26.4178 -4.26375e-16 1.62495e-15)
(25.0214 -4.2573e-16 1.52785e-15)
(23.5661 -4.17559e-16 1.43387e-15)
(22.0549 -4.0325e-16 1.34081e-15)
(20.4932 -3.8498e-16 1.24653e-15)
(18.8818 -3.68707e-16 1.14869e-15)
(17.2276 -3.54959e-16 1.04698e-15)
(15.5551 -3.39498e-16 9.42104e-16)
(13.8973 -3.17104e-16 8.35682e-16)
(12.2901 -2.92964e-16 7.30647e-16)
(10.7635 -2.73553e-16 6.30307e-16)
(9.33702 -2.54072e-16 5.3747e-16)
(8.01906 -2.35346e-16 4.53945e-16)
(6.80966 -2.14327e-16 3.80562e-16)
(5.70409 -1.91645e-16 3.17156e-16)
(4.69545 -1.66554e-16 2.62782e-16)
(3.77617 -1.39678e-16 2.1599e-16)
(2.93875 -1.12739e-16 1.74838e-16)
(2.17614 -8.65077e-17 1.3697e-16)
(1.48179 -6.1481e-17 9.93569e-17)
(0.849676 -3.53308e-17 5.79023e-17)
(0.274302 -1.21819e-17 1.63479e-17)
(47.7111 3.83844e-18 1.77679e-15)
(47.5356 -2.60489e-16 5.5496e-15)
(47.2237 -4.43881e-16 7.09243e-15)
(46.8032 -5.75606e-16 7.37606e-15)
(46.2956 -7.17533e-16 7.19105e-15)
(45.7172 -8.12541e-16 6.88036e-15)
(45.0811 -8.74064e-16 6.49126e-15)
(44.3973 -8.91656e-16 6.07494e-15)
(43.6736 -9.38448e-16 5.67763e-15)
(42.9136 -9.78344e-16 5.31823e-15)
(42.1169 -9.72776e-16 4.95459e-15)
(41.2847 -9.49733e-16 4.56334e-15)
(40.422 -9.29553e-16 4.18608e-15)
(39.5328 -9.12658e-16 3.82831e-15)
(38.6194 -8.93108e-16 3.49093e-15)
(37.682 -8.61157e-16 3.18011e-15)
(36.7195 -8.01946e-16 2.90204e-15)
(35.7298 -7.25205e-16 2.65805e-15)
(34.7103 -6.46303e-16 2.45649e-15)
(33.6576 -5.70065e-16 2.28614e-15)
(32.5679 -5.34654e-16 2.13889e-15)
(31.4372 -5.1654e-16 2.00903e-15)
(30.261 -4.74783e-16 1.89216e-15)
(29.0349 -4.2395e-16 1.78741e-15)
(27.755 -3.86617e-16 1.69321e-15)
(26.4178 -3.68824e-16 1.6066e-15)
(25.0214 -3.58682e-16 1.52523e-15)
(23.5661 -3.41764e-16 1.4468e-15)
(22.0549 -3.24563e-16 1.36868e-15)
(20.4932 -3.1014e-16 1.28763e-15)
(18.8818 -2.93402e-16 1.20098e-15)
(17.2276 -2.74218e-16 1.1083e-15)
(15.5551 -2.54928e-16 1.01006e-15)
(13.8973 -2.32261e-16 9.07775e-16)
(12.2901 -2.1031e-16 8.04235e-16)
(10.7635 -1.90479e-16 7.03139e-16)
(9.33702 -1.74155e-16 6.07797e-16)
(8.01906 -1.60353e-16 5.2054e-16)
(6.80965 -1.48824e-16 4.42622e-16)
(5.70409 -1.3759e-16 3.74064e-16)
(4.69545 -1.25164e-16 3.14097e-16)
(3.77617 -1.11005e-16 2.61183e-16)
(2.93875 -9.42592e-17 2.13344e-16)
(2.17614 -7.47219e-17 1.67993e-16)
(1.48179 -5.29376e-17 1.21807e-16)
(0.849676 -3.0649e-17 7.02526e-17)
(0.274302 -1.09077e-17 1.91429e-17)
(47.711 -8.82043e-17 1.67943e-15)
(47.5356 -2.89752e-16 5.25629e-15)
(47.2236 -3.31928e-16 6.73896e-15)
(46.8032 -4.77132e-16 7.08185e-15)
(46.2955 -6.47215e-16 7.01823e-15)