/*--------------------------------*- C++ -*----------------------------------*\
  =========                 |
  \\      /  F ield         | OpenFOAM: The Open Source CFD Toolbox
   \\    /   O peration     | Website:  https://openfoam.org
    \\  /    A nd           | Version:  7
     \\/     M anipulation  |
\*---------------------------------------------------------------------------*/
FoamFile
{
    version     2.0;
    format      ascii;
    class       volScalarField;
    location    "7009";
    object      V;
}
// * * * * * * * * * * * * * * * * * * * * * * * * * * * * * * * * * * * * * //

dimensions      [0 3 0 0 0 0 0];

internalField   nonuniform List<scalar> 
31819
(
8.66722e-12
7.87929e-12
7.163e-12
6.51181e-12
5.91983e-12
5.38166e-12
4.89242e-12
4.44766e-12
4.04332e-12
3.67575e-12
3.34159e-12
3.03781e-12
2.76164e-12
2.51059e-12
2.28235e-12
2.07486e-12
1.88624e-12
1.71476e-12
1.55888e-12
1.41716e-12
1.28833e-12
1.17121e-12
1.06473e-12
9.6794e-13
8.79945e-13
7.9995e-13
7.27227e-13
6.61116e-13
6.01014e-13
5.46377e-13
4.96706e-13
4.51551e-13
4.10501e-13
3.73183e-13
3.39257e-13
3.08415e-13
2.80378e-13
2.54889e-13
2.31717e-13
2.10652e-13
1.91502e-13
1.74092e-13
1.58266e-13
1.43878e-13
1.30798e-13
1.18907e-13
1.08098e-13
8.61119e-12
7.82836e-12
7.11669e-12
6.46972e-12
5.88156e-12
5.34687e-12
4.86079e-12
4.4189e-12
4.01719e-12
3.65199e-12
3.31999e-12
3.01817e-12
2.74379e-12
2.49436e-12
2.2676e-12
2.06145e-12
1.87405e-12
1.70368e-12
1.5488e-12
1.408e-12
1.28e-12
1.16364e-12
1.05785e-12
9.61682e-13
8.74257e-13
7.94779e-13
7.22526e-13
6.56842e-13
5.97129e-13
5.42845e-13
4.93495e-13
4.48632e-13
4.07847e-13
3.7077e-13
3.37064e-13
3.06422e-13
2.78565e-13
2.53241e-13
2.30219e-13
2.0929e-13
1.90264e-13
1.72967e-13
1.57243e-13
1.42948e-13
1.29953e-13
1.18139e-13
1.07399e-13
8.55553e-12
7.77775e-12
7.07068e-12
6.42789e-12
5.84354e-12
5.31231e-12
4.82937e-12
4.39034e-12
3.99122e-12
3.62838e-12
3.29853e-12
2.99866e-12
2.72605e-12
2.47823e-12
2.25294e-12
2.04812e-12
1.86193e-12
1.69267e-12
1.53879e-12
1.3989e-12
1.27172e-12
1.15611e-12
1.05101e-12
9.55465e-13
8.68605e-13
7.89641e-13
7.17855e-13
6.52596e-13
5.93269e-13
5.39335e-13
4.90305e-13
4.45732e-13
4.05211e-13
3.68373e-13
3.34885e-13
3.04441e-13
2.76764e-13
2.51604e-13
2.28731e-13
2.07937e-13
1.89034e-13
1.71849e-13
1.56226e-13
1.42024e-13
1.29113e-13
1.17375e-13
1.06705e-13
8.50022e-12
7.72747e-12
7.02497e-12
6.38634e-12
5.80576e-12
5.27797e-12
4.79815e-12
4.36196e-12
3.96541e-12
3.60492e-12
3.2772e-12
2.97927e-12
2.70843e-12
2.46221e-12
2.23837e-12
2.03488e-12
1.8499e-12
1.68172e-12
1.52884e-12
1.38985e-12
1.2635e-12
1.14864e-12
1.04422e-12
9.49289e-13
8.6299e-13
7.84536e-13
7.13215e-13
6.48377e-13
5.89434e-13
5.35849e-13
4.87135e-13
4.4285e-13
4.02591e-13
3.65992e-13
3.3272e-13
3.02473e-13
2.74975e-13
2.49977e-13
2.27252e-13
2.06593e-13
1.87812e-13
1.70738e-13
1.55216e-13
1.41106e-13
1.28278e-13
1.16616e-13
1.06015e-13
8.44527e-12
7.67752e-12
6.97956e-12
6.34505e-12
5.76823e-12
5.24385e-12
4.76713e-12
4.33376e-12
3.93978e-12
3.58162e-12
3.25602e-12
2.96001e-12
2.69092e-12
2.44629e-12
2.2239e-12
2.02173e-12
1.83794e-12
1.67085e-12
1.51896e-12
1.38087e-12
1.25534e-12
1.14121e-12
1.03747e-12
9.43152e-13
8.57411e-13
7.79464e-13
7.08604e-13
6.44185e-13
5.85623e-13
5.32385e-13
4.83986e-13
4.39987e-13
3.99988e-13
3.63626e-13
3.30569e-13
3.00517e-13
2.73198e-13
2.48361e-13
2.25783e-13
2.05257e-13
1.86598e-13
1.69634e-13
1.54213e-13
1.40194e-13
1.27449e-13
1.15862e-13
1.05329e-13
8.39067e-12
7.62788e-12
6.93444e-12
6.30404e-12
5.73094e-12
5.20995e-12
4.73632e-12
4.30574e-12
3.91431e-12
3.55846e-12
3.23497e-12
2.94088e-12
2.67353e-12
2.43048e-12
2.20953e-12
2.00866e-12
1.82605e-12
1.66005e-12
1.50914e-12
1.37194e-12
1.24722e-12
1.13384e-12
1.03076e-12
9.37055e-13
8.51868e-13
7.74425e-13
7.04023e-13
6.40021e-13
5.81837e-13
5.28943e-13
4.80857e-13
4.37143e-13
3.97403e-13
3.61275e-13
3.28432e-13
2.98575e-13
2.71431e-13
2.46756e-13
2.24323e-13
2.0393e-13
1.85391e-13
1.68538e-13
1.53216e-13
1.39287e-13
1.26625e-13
1.15113e-13
1.04649e-13
8.33643e-12
7.57857e-12
6.88961e-12
6.26328e-12
5.69389e-12
5.17627e-12
4.7057e-12
4.27791e-12
3.88901e-12
3.53546e-12
3.21405e-12
2.92187e-12
2.65624e-12
2.41477e-12
2.19524e-12
1.99567e-12
1.81425e-12
1.64932e-12
1.49938e-12
1.36307e-12
1.23916e-12
1.12651e-12
1.0241e-12
9.30997e-13
8.46361e-13
7.69419e-13
6.99472e-13
6.35884e-13
5.78076e-13
5.25524e-13
4.77749e-13
4.34317e-13
3.94834e-13
3.5894e-13
3.26309e-13
2.96644e-13
2.69677e-13
2.45161e-13
2.22873e-13
2.02612e-13
1.84193e-13
1.67448e-13
1.52225e-13
1.38387e-13
1.25806e-13
1.14369e-13
1.03972e-13
8.28254e-12
7.52958e-12
6.84507e-12
6.22279e-12
5.65708e-12
5.1428e-12
4.67528e-12
4.25025e-12
3.86386e-12
3.5126e-12
3.19328e-12
2.90298e-12
2.63907e-12
2.39916e-12
2.18105e-12
1.98277e-12
1.80252e-12
1.63866e-12
1.48969e-12
1.35426e-12
1.23115e-12
1.11922e-12
1.01748e-12
9.24979e-13
8.4089e-13
7.64445e-13
6.9495e-13
6.31773e-13
5.74339e-13
5.22126e-13
4.7466e-13
4.31509e-13
3.92281e-13
3.56619e-13
3.24199e-13
2.94727e-13
2.67933e-13
2.43576e-13
2.21432e-13
2.01302e-13
1.83002e-13
1.66366e-13
1.51241e-13
1.37492e-13
1.24993e-13
1.1363e-13
1.033e-13
8.22899e-12
7.4809e-12
6.80082e-12
6.18256e-12
5.62051e-12
5.10956e-12
4.64505e-12
4.22278e-12
3.83889e-12
3.4899e-12
3.17263e-12
2.88421e-12
2.62201e-12
2.38365e-12
2.16695e-12
1.96996e-12
1.79087e-12
1.62806e-12
1.48006e-12
1.34551e-12
1.22319e-12
1.11199e-12
1.0109e-12
9.18999e-13
8.35454e-13
7.59503e-13
6.90457e-13
6.27689e-13
5.70626e-13
5.18751e-13
4.71592e-13
4.2872e-13
3.89745e-13
3.54314e-13
3.22104e-13
2.92821e-13
2.66201e-13
2.42001e-13
2.20001e-13
2.00001e-13
1.81819e-13
1.6529e-13
1.50264e-13
1.36603e-13
1.24185e-13
1.12895e-13
1.02632e-13
8.1758e-12
7.43254e-12
6.75686e-12
6.1426e-12
5.58418e-12
5.07653e-12
4.61502e-12
4.19548e-12
3.81407e-12
3.46734e-12
3.15212e-12
2.86557e-12
2.60506e-12
2.36824e-12
2.15294e-12
1.95722e-12
1.77929e-12
1.61754e-12
1.47049e-12
1.33681e-12
1.21528e-12
1.1048e-12
1.00436e-12
9.13058e-13
8.30053e-13
7.54593e-13
6.85994e-13
6.23631e-13
5.66937e-13
5.15397e-13
4.68543e-13
4.25948e-13
3.87226e-13
3.52023e-13
3.20021e-13
2.90928e-13
2.6448e-13
2.40437e-13
2.18579e-13
1.98708e-13
1.80644e-13
1.64221e-13
1.49292e-13
1.3572e-13
1.23382e-13
1.12165e-13
1.01969e-13
8.12294e-12
7.38449e-12
6.71318e-12
6.10289e-12
5.54808e-12
5.04371e-12
4.58519e-12
4.16835e-12
3.78941e-12
3.44492e-12
3.13175e-12
2.84704e-12
2.58822e-12
2.35293e-12
2.13902e-12
1.94457e-12
1.76779e-12
1.60708e-12
1.46098e-12
1.32817e-12
1.20742e-12
1.09766e-12
9.97871e-13
9.07155e-13
8.24687e-13
7.49715e-13
6.81559e-13
6.19599e-13
5.63272e-13
5.12066e-13
4.65514e-13
4.23195e-13
3.84722e-13
3.49748e-13
3.17952e-13
2.89048e-13
2.62771e-13
2.38882e-13
2.17166e-13
1.97423e-13
1.79476e-13
1.6316e-13
1.48327e-13
1.34843e-13
1.22584e-13
1.1144e-13
1.01309e-13
8.07043e-12
7.33676e-12
6.66978e-12
6.06343e-12
5.51221e-12
5.0111e-12
4.55555e-12
4.14141e-12
3.76492e-12
3.42265e-12
3.1115e-12
2.82864e-12
2.57149e-12
2.33772e-12
2.1252e-12
1.932e-12
1.75636e-12
1.59669e-12
1.45154e-12
1.31958e-12
1.19962e-12
1.09056e-12
9.9142e-13
9.01291e-13
8.19355e-13
7.44869e-13
6.77153e-13
6.15594e-13
5.59631e-13
5.08755e-13
4.62505e-13
4.20459e-13
3.82235e-13
3.47487e-13
3.15897e-13
2.87179e-13
2.61072e-13
2.37338e-13
2.15762e-13
1.96147e-13
1.78316e-13
1.62105e-13
1.47368e-13
1.33971e-13
1.21792e-13
1.1072e-13
1.00655e-13
8.01826e-12
7.28933e-12
6.62666e-12
6.02424e-12
5.47658e-12
4.97871e-12
4.5261e-12
4.11463e-12
3.74058e-12
3.40052e-12
3.09139e-12
2.81035e-12
2.55486e-12
2.3226e-12
2.11146e-12
1.91951e-12
1.74501e-12
1.58637e-12
1.44215e-12
1.31105e-12
1.19186e-12
1.08351e-12
9.85011e-13
8.95464e-13
8.14059e-13
7.40053e-13
6.72776e-13
6.11614e-13
5.56013e-13
5.05466e-13
4.59515e-13
4.17741e-13
3.79764e-13
3.4524e-13
3.13855e-13
2.85323e-13
2.59384e-13
2.35804e-13
2.14367e-13
1.94879e-13
1.77163e-13
1.61057e-13
1.46416e-13
1.33105e-13
1.21005e-13
1.10004e-13
1.00004e-13
7.96642e-12
7.2422e-12
6.58382e-12
5.98529e-12
5.44117e-12
4.94652e-12
4.49684e-12
4.08804e-12
3.7164e-12
3.37854e-12
3.0714e-12
2.79218e-12
2.53835e-12
2.30759e-12
2.09781e-12
1.9071e-12
1.73373e-12
1.57611e-12
1.43283e-12
1.30257e-12
1.18416e-12
1.07651e-12
9.78643e-13
8.89676e-13
8.08796e-13
7.35269e-13
6.68426e-13
6.0766e-13
5.52419e-13
5.02199e-13
4.56544e-13
4.1504e-13
3.77309e-13
3.43008e-13
3.11826e-13
2.83478e-13
2.57707e-13
2.34279e-13
2.12981e-13
1.93619e-13
1.76018e-13
1.60016e-13
1.45469e-13
1.32245e-13
1.20222e-13
1.09293e-13
9.93573e-14
7.91492e-12
7.19539e-12
6.54126e-12
5.9466e-12
5.406e-12
4.91455e-12
4.46777e-12
4.06161e-12
3.69237e-12
3.3567e-12
3.05155e-12
2.77413e-12
2.52194e-12
2.29267e-12
2.08425e-12
1.89477e-12
1.72252e-12
1.56593e-12
1.42357e-12
1.29415e-12
1.1765e-12
1.06955e-12
9.72317e-13
8.83924e-13
8.03567e-13
7.30516e-13
6.64105e-13
6.03732e-13
5.48847e-13
4.98952e-13
4.53593e-13
4.12357e-13
3.7487e-13
3.40791e-13
3.0981e-13
2.81645e-13
2.56041e-13
2.32765e-13
2.11604e-13
1.92368e-13
1.7488e-13
1.58982e-13
1.44529e-13
1.3139e-13
1.19445e-13
1.08587e-13
9.8715e-14
7.86376e-12
7.14887e-12
6.49897e-12
5.90816e-12
5.37105e-12
4.88277e-12
4.43889e-12
4.03535e-12
3.6685e-12
3.335e-12
3.03182e-12
2.7562e-12
2.50564e-12
2.27785e-12
2.07077e-12
1.88252e-12
1.71138e-12
1.5558e-12
1.41437e-12
1.28579e-12
1.1689e-12
1.06263e-12
9.66031e-13
8.7821e-13
7.98373e-13
7.25793e-13
6.59812e-13
5.99829e-13
5.45299e-13
4.95727e-13
4.50661e-13
4.09691e-13
3.72447e-13
3.38588e-13
3.07807e-13
2.79825e-13
2.54386e-13
2.3126e-13
2.10236e-13
1.91124e-13
1.73749e-13
1.57954e-13
1.43594e-13
1.3054e-13
1.18673e-13
1.07885e-13
9.80769e-14
7.81292e-12
7.10266e-12
6.45696e-12
5.86996e-12
5.33633e-12
4.85121e-12
4.41019e-12
4.00926e-12
3.64479e-12
3.31344e-12
3.01222e-12
2.73838e-12
2.48944e-12
2.26312e-12
2.05739e-12
1.87035e-12
1.70032e-12
1.54574e-12
1.40522e-12
1.27748e-12
1.16134e-12
1.05576e-12
9.59786e-13
8.72533e-13
7.93211e-13
7.21101e-13
6.55547e-13
5.95952e-13
5.41774e-13
4.92522e-13
4.47747e-13
4.07043e-13
3.70039e-13
3.36399e-13
3.05817e-13
2.78016e-13
2.52742e-13
2.29765e-13
2.08877e-13
1.89889e-13
1.72626e-13
1.56933e-13
1.42666e-13
1.29696e-13
1.17906e-13
1.07187e-13
9.74428e-14
7.76241e-12
7.05674e-12
6.41522e-12
5.83202e-12
5.30183e-12
4.81985e-12
4.38168e-12
3.98335e-12
3.62122e-12
3.29202e-12
2.99275e-12
2.72068e-12
2.47334e-12
2.24849e-12
2.04409e-12
1.85826e-12
1.68933e-12
1.53575e-12
1.39614e-12
1.26922e-12
1.15383e-12
1.04894e-12
9.53581e-13
8.66892e-13
7.88084e-13
7.1644e-13
6.51309e-13
5.92099e-13
5.38272e-13
4.89338e-13
4.44853e-13
4.04412e-13
3.67647e-13
3.34224e-13
3.0384e-13
2.76219e-13
2.51108e-13
2.2828e-13
2.07527e-13
1.88661e-13
1.7151e-13
1.55918e-13
1.41744e-13
1.28858e-13
1.17144e-13
1.06494e-13
9.68129e-14
7.71223e-12
7.01112e-12
6.37375e-12
5.79431e-12
5.26756e-12
4.78869e-12
4.35335e-12
3.95759e-12
3.59781e-12
3.27074e-12
2.9734e-12
2.70309e-12
2.45735e-12
2.23396e-12
2.03087e-12
1.84625e-12
1.67841e-12
1.52582e-12
1.38711e-12
1.26101e-12
1.14637e-12
1.04216e-12
9.47417e-13
8.61288e-13
7.82989e-13
7.11808e-13
6.47098e-13
5.88271e-13
5.34792e-13
4.86175e-13
4.41977e-13
4.01797e-13
3.6527e-13
3.32064e-13
3.01876e-13
2.74433e-13
2.49484e-13
2.26804e-13
2.06185e-13
1.87441e-13
1.70401e-13
1.5491e-13
1.40827e-13
1.28025e-13
1.16386e-13
1.05806e-13
9.61871e-14
7.66238e-12
6.9658e-12
6.33254e-12
5.75686e-12
5.23351e-12
4.75773e-12
4.32521e-12
3.93201e-12
3.57455e-12
3.2496e-12
2.95418e-12
2.68562e-12
2.44147e-12
2.21952e-12
2.01774e-12
1.83431e-12
1.66756e-12
1.51596e-12
1.37815e-12
1.25286e-12
1.13896e-12
1.03542e-12
9.41292e-13
8.5572e-13
7.77927e-13
7.07207e-13
6.42915e-13
5.84468e-13
5.31335e-13
4.83032e-13
4.3912e-13
3.992e-13
3.62909e-13
3.29917e-13
2.99925e-13
2.72659e-13
2.47872e-13
2.25338e-13
2.04853e-13
1.8623e-13
1.693e-13
1.53909e-13
1.39917e-13
1.27197e-13
1.15634e-13
1.05122e-13
9.55652e-14
7.61284e-12
6.92077e-12
6.2916e-12
5.71964e-12
5.19967e-12
4.72698e-12
4.29725e-12
3.90659e-12
3.55145e-12
3.22859e-12
2.93508e-12
2.66825e-12
2.42569e-12
2.20517e-12
2.0047e-12
1.82245e-12
1.65678e-12
1.50616e-12
1.36924e-12
1.24476e-12
1.1316e-12
1.02873e-12
9.35207e-13
8.50188e-13
7.72898e-13
7.02635e-13
6.38759e-13
5.8069e-13
5.279e-13
4.79909e-13
4.36281e-13
3.96619e-13
3.60563e-13
3.27784e-13
2.97986e-13
2.70896e-13
2.46269e-13
2.23881e-13
2.03528e-13
1.85026e-13
1.68205e-13
1.52914e-13
1.39013e-13
1.26375e-13
1.14886e-13
1.04442e-13
9.49474e-14
7.56363e-12
6.87602e-12
6.25093e-12
5.68267e-12
5.16606e-12
4.69642e-12
4.26947e-12
3.88134e-12
3.52849e-12
3.20772e-12
2.91611e-12
2.65101e-12
2.41e-12
2.19091e-12
1.99174e-12
1.81067e-12
1.64607e-12
1.49642e-12
1.36038e-12
1.23671e-12
1.12429e-12
1.02208e-12
9.29161e-13
8.44692e-13
7.67902e-13
6.98093e-13
6.3463e-13
5.76936e-13
5.24487e-13
4.76807e-13
4.33461e-13
3.94055e-13
3.58232e-13
3.25665e-13
2.96059e-13
2.69145e-13
2.44677e-13
2.22434e-13
2.02213e-13
1.8383e-13
1.67118e-13
1.51925e-13
1.38114e-13
1.25558e-13
1.14144e-13
1.03767e-13
9.43336e-14
7.51473e-12
6.83157e-12
6.21052e-12
5.64593e-12
5.13266e-12
4.66606e-12
4.24187e-12
3.85625e-12
3.50568e-12
3.18698e-12
2.89725e-12
2.63387e-12
2.39443e-12
2.17675e-12
1.97886e-12
1.79897e-12
1.63542e-12
1.48675e-12
1.35159e-12
1.22872e-12
1.11702e-12
1.01547e-12
9.23155e-13
8.39231e-13
7.62938e-13
6.9358e-13
6.30527e-13
5.73206e-13
5.21097e-13
4.73724e-13
4.30658e-13
3.91508e-13
3.55916e-13
3.2356e-13
2.94145e-13
2.67405e-13
2.43095e-13
2.20996e-13
2.00905e-13
1.82641e-13
1.66037e-13
1.50943e-13
1.37221e-13
1.24746e-13
1.13406e-13
1.03096e-13
9.37238e-14
7.46615e-12
6.78741e-12
6.17037e-12
5.60943e-12
5.09948e-12
4.63589e-12
4.21445e-12
3.83132e-12
3.48301e-12
3.16638e-12
2.87852e-12
2.61684e-12
2.37895e-12
2.16268e-12
1.96607e-12
1.78734e-12
1.62485e-12
1.47714e-12
1.34285e-12
1.22078e-12
1.1098e-12
1.00891e-12
9.17187e-13
8.33806e-13
7.58006e-13
6.89096e-13
6.26451e-13
5.69501e-13
5.17728e-13
4.70662e-13
4.27874e-13
3.88977e-13
3.53615e-13
3.21468e-13
2.92244e-13
2.65676e-13
2.41524e-13
2.19567e-13
1.99607e-13
1.8146e-13
1.64964e-13
1.49967e-13
1.36334e-13
1.2394e-13
1.12673e-13
1.0243e-13
9.31179e-14
7.41789e-12
6.74353e-12
6.13048e-12
5.57317e-12
5.06652e-12
4.60592e-12
4.1872e-12
3.80655e-12
3.4605e-12
3.14591e-12
2.85992e-12
2.59992e-12
2.36357e-12
2.1487e-12
1.95336e-12
1.77578e-12
1.61435e-12
1.46759e-12
1.33417e-12
1.21288e-12
1.10262e-12
1.00238e-12
9.11257e-13
8.28416e-13
7.53105e-13
6.84641e-13
6.22401e-13
5.65819e-13
5.14381e-13
4.67619e-13
4.25108e-13
3.86462e-13
3.51329e-13
3.1939e-13
2.90355e-13
2.63959e-13
2.39963e-13
2.18148e-13
1.98316e-13
1.80287e-13
1.63898e-13
1.48998e-13
1.35453e-13
1.23139e-13
1.11944e-13
1.01768e-13
9.2516e-14
7.36993e-12
6.69994e-12
6.09085e-12
5.53714e-12
5.03376e-12
4.57615e-12
4.16013e-12
3.78194e-12
3.43813e-12
3.12557e-12
2.84143e-12
2.58312e-12
2.34829e-12
2.13481e-12
1.94073e-12
1.7643e-12
1.60391e-12
1.4581e-12
1.32555e-12
1.20504e-12
1.09549e-12
9.95903e-13
9.05366e-13
8.2306e-13
7.48237e-13
6.80215e-13
6.18377e-13
5.62161e-13
5.11056e-13
4.64596e-13
4.2236e-13
3.83964e-13
3.49058e-13
3.17325e-13
2.88478e-13
2.62252e-13
2.38411e-13
2.16738e-13
1.97034e-13
1.79122e-13
1.62838e-13
1.48035e-13
1.34577e-13
1.22343e-13
1.11221e-13
1.0111e-13
9.19179e-14
7.32229e-12
6.65663e-12
6.05148e-12
5.50134e-12
5.00122e-12
4.54656e-12
4.13324e-12
3.75749e-12
3.4159e-12
3.10537e-12
2.82306e-12
2.56642e-12
2.33311e-12
2.12101e-12
1.92819e-12
1.7529e-12
1.59354e-12
1.44868e-12
1.31698e-12
1.19725e-12
1.08841e-12
9.89465e-13
8.99514e-13
8.1774e-13
7.434e-13
6.75818e-13
6.1438e-13
5.58527e-13
5.07752e-13
4.61593e-13
4.1963e-13
3.81482e-13
3.46801e-13
3.15274e-13
2.86613e-13
2.60557e-13
2.3687e-13
2.15336e-13
1.9576e-13
1.77964e-13
1.61785e-13
1.47078e-13
1.33707e-13
1.21552e-13
1.10502e-13
1.00456e-13
9.13237e-14
7.27495e-12
6.61359e-12
6.01236e-12
5.46578e-12
4.96889e-12
4.51717e-12
4.10652e-12
3.7332e-12
3.39382e-12
3.08529e-12
2.80481e-12
2.54983e-12
2.31802e-12
2.10729e-12
1.91572e-12
1.74157e-12
1.58324e-12
1.43931e-12
1.30846e-12
1.18951e-12
1.08138e-12
9.83068e-13
8.93699e-13
8.12453e-13
7.38594e-13
6.71449e-13
6.10408e-13
5.54917e-13
5.0447e-13
4.58609e-13
4.16917e-13
3.79015e-13
3.4456e-13
3.13236e-13
2.8476e-13
2.58873e-13
2.35339e-13
2.13944e-13
1.94495e-13
1.76814e-13
1.6074e-13
1.46127e-13
1.32843e-13
1.20766e-13
1.09787e-13
9.98066e-14
9.07333e-14
7.22792e-12
6.57084e-12
5.97349e-12
5.43045e-12
4.93677e-12
4.48797e-12
4.07997e-12
3.70907e-12
3.37188e-12
3.06534e-12
2.78668e-12
2.53334e-12
2.30304e-12
2.09367e-12
1.90334e-12
1.73031e-12
1.57301e-12
1.43001e-12
1.30001e-12
1.18182e-12
1.07438e-12
9.76713e-13
8.87921e-13
8.07201e-13
7.33819e-13
6.67108e-13
6.06462e-13
5.51329e-13
5.01208e-13
4.55644e-13
4.14222e-13
3.76565e-13
3.42332e-13
3.11211e-13
2.82919e-13
2.57199e-13
2.33817e-13
2.12561e-13
1.93238e-13
1.7567e-13
1.597e-13
1.45182e-13
1.31984e-13
1.19985e-13
1.09078e-13
9.91614e-14
9.01467e-14
7.1812e-12
6.52836e-12
5.93487e-12
5.39534e-12
4.90485e-12
4.45896e-12
4.0536e-12
3.68509e-12
3.35008e-12
3.04553e-12
2.76866e-12
2.51697e-12
2.28815e-12
2.08014e-12
1.89103e-12
1.71912e-12
1.56284e-12
1.42076e-12
1.2916e-12
1.17418e-12
1.06744e-12
9.70399e-13
8.82181e-13
8.01983e-13
7.29075e-13
6.62796e-13
6.02542e-13
5.47765e-13
4.97968e-13
4.52698e-13
4.11544e-13
3.74131e-13
3.40119e-13
3.09199e-13
2.8109e-13
2.55536e-13
2.32306e-13
2.11187e-13
1.91988e-13
1.74535e-13
1.58668e-13
1.44244e-13
1.31131e-13
1.1921e-13
1.08372e-13
9.85204e-14
8.9564e-14
7.13477e-12
6.48616e-12
5.89651e-12
5.36046e-12
4.87315e-12
4.43013e-12
4.02739e-12
3.66127e-12
3.32842e-12
3.02584e-12
2.75076e-12
2.50069e-12
2.27336e-12
2.06669e-12
1.87881e-12
1.70801e-12
1.55273e-12
1.41158e-12
1.28325e-12
1.16659e-12
1.06054e-12
9.64126e-13
8.76478e-13
7.96798e-13
7.24362e-13
6.58511e-13
5.98646e-13
5.44224e-13
4.94749e-13
4.49772e-13
4.08884e-13
3.71712e-13
3.3792e-13
3.072e-13
2.79273e-13
2.53884e-13
2.30804e-13
2.09822e-13
1.90747e-13
1.73407e-13
1.57642e-13
1.43311e-13
1.30283e-13
1.18439e-13
1.07672e-13
9.78835e-14
8.8985e-14
7.08865e-12
6.44423e-12
5.85839e-12
5.32581e-12
4.84164e-12
4.40149e-12
4.00136e-12
3.6376e-12
3.30691e-12
3.00628e-12
2.73298e-12
2.48453e-12
2.25866e-12
2.05333e-12
1.86666e-12
1.69697e-12
1.5427e-12
1.40245e-12
1.27496e-12
1.15905e-12
1.05368e-12
9.57893e-13
8.70812e-13
7.91647e-13
7.19679e-13
6.54254e-13
5.94776e-13
5.40706e-13
4.91551e-13
4.46864e-13
4.0624e-13
3.69309e-13
3.35736e-13
3.05214e-13
2.77468e-13
2.52243e-13
2.29312e-13
2.08465e-13
1.89514e-13
1.72286e-13
1.56623e-13
1.42385e-13
1.29441e-13
1.17673e-13
1.06976e-13
9.72507e-14
8.84097e-14
7.04282e-12
6.40257e-12
5.82052e-12
5.29138e-12
4.81034e-12
4.37304e-12
3.97549e-12
3.61408e-12
3.28553e-12
2.98684e-12
2.71531e-12
2.46847e-12
2.24406e-12
2.04006e-12
1.8546e-12
1.686e-12
1.53272e-12
1.39339e-12
1.26671e-12
1.15156e-12
1.04687e-12
9.51701e-13
8.65183e-13
7.8653e-13
7.15027e-13
6.50024e-13
5.90931e-13
5.3721e-13
4.88373e-13
4.43975e-13
4.03614e-13
3.66922e-13
3.33565e-13
3.03241e-13
2.75674e-13
2.50613e-13
2.2783e-13
2.07118e-13
1.88289e-13
1.71172e-13
1.55611e-13
1.41464e-13
1.28604e-13
1.16913e-13
1.06284e-13
9.6622e-14
8.78382e-14
6.9973e-12
6.36118e-12
5.78289e-12
5.25717e-12
4.77925e-12
4.34477e-12
3.94979e-12
3.59072e-12
3.26429e-12
2.96754e-12
2.69776e-12
2.45251e-12
2.22955e-12
2.02687e-12
1.84261e-12
1.6751e-12
1.52282e-12
1.38438e-12
1.25853e-12
1.14411e-12
1.0401e-12
9.45548e-13
8.5959e-13
7.81445e-13
7.10405e-13
6.45822e-13
5.87111e-13
5.33737e-13
4.85216e-13
4.41105e-13
4.01005e-13
3.6455e-13
3.31409e-13
3.01281e-13
2.73892e-13
2.48992e-13
2.26357e-13
2.05779e-13
1.87072e-13
1.70065e-13
1.54605e-13
1.4055e-13
1.27773e-13
1.16157e-13
1.05597e-13
9.59974e-14
8.72703e-14
6.95206e-12
6.32005e-12
5.7455e-12
5.22319e-12
4.74835e-12
4.31668e-12
3.92426e-12
3.56751e-12
3.24319e-12
2.94835e-12
2.68032e-12
2.43665e-12
2.21514e-12
2.01376e-12
1.83069e-12
1.66427e-12
1.51297e-12
1.37543e-12
1.25039e-12
1.13672e-12
1.03338e-12
9.39436e-13
8.54033e-13
7.76393e-13
7.05812e-13
6.41647e-13
5.83316e-13
5.30287e-13
4.82079e-13
4.38254e-13
3.98413e-13
3.62193e-13
3.29267e-13
2.99333e-13
2.72121e-13
2.47383e-13
2.24893e-13
2.04449e-13
1.85862e-13
1.68966e-13
1.53605e-13
1.39641e-13
1.26947e-13
1.15406e-13
1.04914e-13
9.53768e-14
8.67062e-14
6.90712e-12
6.2792e-12
5.70836e-12
5.18942e-12
4.71765e-12
4.28878e-12
3.89889e-12
3.54444e-12
3.22222e-12
2.92929e-12
2.66299e-12
2.4209e-12
2.20082e-12
2.00075e-12
1.81886e-12
1.65351e-12
1.50319e-12
1.36654e-12
1.24231e-12
1.12937e-12
1.0267e-12
9.33363e-13
8.48512e-13
7.71374e-13
7.01249e-13
6.37499e-13
5.79545e-13
5.26859e-13
4.78963e-13
4.35421e-13
3.95837e-13
3.59852e-13
3.27138e-13
2.97398e-13
2.70362e-13
2.45784e-13
2.2344e-13
2.03127e-13
1.84661e-13
1.67874e-13
1.52612e-13
1.38738e-13
1.26126e-13
1.1466e-13
1.04236e-13
9.47602e-14
8.61457e-14
6.86247e-12
6.23861e-12
5.67146e-12
5.15587e-12
4.68716e-12
4.26105e-12
3.87368e-12
3.52153e-12
3.20139e-12
2.91036e-12
2.64578e-12
2.40525e-12
2.18659e-12
1.98781e-12
1.8071e-12
1.64282e-12
1.49347e-12
1.3577e-12
1.23427e-12
1.12207e-12
1.02006e-12
9.27329e-13
8.43026e-13
7.66388e-13
6.96716e-13
6.33378e-13
5.75798e-13
5.23453e-13
4.75866e-13
4.32606e-13
3.93278e-13
3.57525e-13
3.25023e-13
2.95476e-13
2.68614e-13
2.44195e-13
2.21995e-13
2.01814e-13
1.83467e-13
1.66788e-13
1.51626e-13
1.37842e-13
1.2531e-13
1.13919e-13
1.03562e-13
9.41476e-14
8.55888e-14
6.8181e-12
6.19828e-12
5.6348e-12
5.12254e-12
4.65686e-12
4.23351e-12
3.84864e-12
3.49876e-12
3.1807e-12
2.89154e-12
2.62867e-12
2.3897e-12
2.17246e-12
1.97496e-12
1.79542e-12
1.6322e-12
1.48382e-12
1.34893e-12
1.2263e-12
1.11481e-12
1.01347e-12
9.21334e-13
8.37576e-13
7.61433e-13
6.92212e-13
6.29284e-13
5.72076e-13
5.20069e-13
4.7279e-13
4.29809e-13
3.90736e-13
3.55214e-13
3.22922e-13
2.93565e-13
2.66878e-13
2.42616e-13
2.2056e-13
2.00509e-13
1.82281e-13
1.6571e-13
1.50645e-13
1.3695e-13
1.245e-13
1.13182e-13
1.02893e-13
9.3539e-14
8.50355e-14
6.77403e-12
6.15821e-12
5.59837e-12
5.08943e-12
4.62675e-12
4.20614e-12
3.82376e-12
3.47615e-12
3.16013e-12
2.87285e-12
2.61168e-12
2.37425e-12
2.15841e-12
1.96219e-12
1.78381e-12
1.62165e-12
1.47423e-12
1.3402e-12
1.21837e-12
1.10761e-12
1.00692e-12
9.15378e-13
8.32162e-13
7.56511e-13
6.87737e-13
6.25216e-13
5.68378e-13
5.16707e-13
4.69734e-13
4.27031e-13
3.8821e-13
3.52918e-13
3.20834e-13
2.91668e-13
2.65152e-13
2.41048e-13
2.19134e-13
1.99213e-13
1.81103e-13
1.64639e-13
1.49672e-13
1.36065e-13
1.23696e-13
1.12451e-13
1.02228e-13
9.29343e-14
8.44857e-14
6.73023e-12
6.1184e-12
5.56218e-12
5.05653e-12
4.59684e-12
4.17895e-12
3.79904e-12
3.45367e-12
3.1397e-12
2.85428e-12
2.5948e-12
2.35891e-12
2.14446e-12
1.94951e-12
1.77228e-12
1.61116e-12
1.4647e-12
1.33154e-12
1.21049e-12
1.10045e-12
1.00041e-12
9.0946e-13
8.26782e-13
7.5162e-13
6.83291e-13
6.21174e-13
5.64703e-13
5.13367e-13
4.66697e-13
4.2427e-13
3.857e-13
3.50636e-13
3.1876e-13
2.89782e-13
2.63438e-13
2.39489e-13
2.17718e-13
1.97925e-13
1.79932e-13
1.63574e-13
1.48704e-13
1.35186e-13
1.22896e-13
1.11724e-13
1.01567e-13
9.23335e-14
8.39396e-14
6.68673e-12
6.07884e-12
5.52622e-12
5.02384e-12
4.56712e-12
4.15193e-12
3.77448e-12
3.43135e-12
3.11941e-12
2.83582e-12
2.57802e-12
2.34366e-12
2.1306e-12
1.93691e-12
1.76082e-12
1.60075e-12
1.45523e-12
1.32293e-12
1.20267e-12
1.09333e-12
9.93939e-13
9.03581e-13
8.21437e-13
7.46761e-13
6.78874e-13
6.17158e-13
5.61053e-13
5.10048e-13
4.6368e-13
4.21527e-13
3.83207e-13
3.4837e-13
3.167e-13
2.87909e-13
2.61735e-13
2.37941e-13
2.1631e-13
1.96646e-13
1.78769e-13
1.62517e-13
1.47743e-13
1.34312e-13
1.22101e-13
1.11001e-13
1.0091e-13
9.17366e-14
8.33969e-14
6.6435e-12
6.03954e-12
5.4905e-12
4.99136e-12
4.5376e-12
4.12509e-12
3.75008e-12
3.40917e-12
3.09924e-12
2.81749e-12
2.56136e-12
2.32851e-12
2.11682e-12
1.92439e-12
1.74944e-12
1.5904e-12
1.44582e-12
1.31438e-12
1.19489e-12
1.08627e-12
9.87514e-13
8.9774e-13
8.16127e-13
7.41934e-13
6.74485e-13
6.13168e-13
5.57426e-13
5.06751e-13
4.60682e-13
4.18802e-13
3.80729e-13
3.46118e-13
3.14652e-13
2.86048e-13
2.60043e-13
2.36403e-13
2.14912e-13
1.95374e-13
1.77613e-13
1.61466e-13
1.46788e-13
1.33443e-13
1.21312e-13
1.10284e-13
1.00258e-13
9.11436e-14
8.28578e-14
6.60055e-12
6.0005e-12
5.455e-12
4.95909e-12
4.50827e-12
4.09842e-12
3.72584e-12
3.38713e-12
3.07921e-12
2.79928e-12
2.5448e-12
2.31345e-12
2.10314e-12
1.91194e-12
1.73813e-12
1.58012e-12
1.43647e-12
1.30588e-12
1.18717e-12
1.07924e-12
9.8113e-13
8.91936e-13
8.10851e-13
7.37137e-13
6.70125e-13
6.09204e-13
5.53822e-13
5.03475e-13
4.57704e-13
4.16095e-13
3.78268e-13
3.4388e-13
3.12618e-13
2.84198e-13
2.58362e-13
2.34875e-13
2.13522e-13
1.94111e-13
1.76465e-13
1.60423e-13
1.45839e-13
1.32581e-13
1.20528e-13
1.09571e-13
9.96098e-14
9.05544e-14
8.23222e-14
6.55788e-12
5.96171e-12
5.41974e-12
4.92703e-12
4.47912e-12
4.07193e-12
3.70175e-12
3.36523e-12
3.0593e-12
2.78118e-12
2.52835e-12
2.2985e-12
2.08954e-12
1.89958e-12
1.7269e-12
1.5699e-12
1.42719e-12
1.29744e-12
1.17949e-12
1.07227e-12
9.74787e-13
8.8617e-13
8.05609e-13
7.32372e-13
6.65793e-13
6.05266e-13
5.50242e-13
5.0022e-13
4.54745e-13
4.13405e-13
3.75823e-13
3.41657e-13
3.10597e-13
2.82361e-13
2.56692e-13
2.33356e-13
2.12142e-13
1.92856e-13
1.75324e-13
1.59386e-13
1.44896e-13
1.31724e-13
1.19749e-13
1.08862e-13
9.89659e-14
8.9969e-14
8.179e-14
6.51549e-12
5.92317e-12
5.3847e-12
4.89518e-12
4.45017e-12
4.04561e-12
3.67782e-12
3.34348e-12
3.03952e-12
2.7632e-12
2.512e-12
2.28364e-12
2.07604e-12
1.8873e-12
1.71573e-12
1.55976e-12
1.41796e-12
1.28905e-12
1.17187e-12
1.06533e-12
9.68486e-13
8.80442e-13
8.00401e-13
7.27638e-13
6.61489e-13
6.01353e-13
5.46685e-13
4.96986e-13
4.51806e-13
4.10732e-13
3.73393e-13
3.39448e-13
3.08589e-13
2.80536e-13
2.55033e-13
2.31848e-13
2.10771e-13
1.9161e-13
1.74191e-13
1.58355e-13
1.43959e-13
1.30872e-13
1.18975e-13
1.08159e-13
9.83261e-14
8.93873e-14
8.12612e-14
6.47337e-12
5.88488e-12
5.34989e-12
4.86354e-12
4.4214e-12
4.01945e-12
3.65405e-12
3.32186e-12
3.01987e-12
2.74534e-12
2.49576e-12
2.26888e-12
2.06261e-12
1.8751e-12
1.70464e-12
1.54967e-12
1.40879e-12
1.28072e-12
1.16429e-12
1.05845e-12
9.62225e-13
8.7475e-13
7.95227e-13
7.22934e-13
6.57212e-13
5.97466e-13
5.43151e-13
4.93773e-13
4.48885e-13
4.08077e-13
3.70979e-13
3.37254e-13
3.06594e-13
2.78722e-13
2.53384e-13
2.30349e-13
2.09408e-13
1.90371e-13
1.73065e-13
1.57331e-13
1.43029e-13
1.30026e-13
1.18205e-13
1.07459e-13
9.76904e-14
8.88095e-14
8.07359e-14
6.43152e-12
5.84684e-12
5.31531e-12
4.8321e-12
4.39281e-12
3.99347e-12
3.63043e-12
3.30039e-12
3.00035e-12
2.72759e-12
2.47963e-12
2.25421e-12
2.04928e-12
1.86298e-12
1.69362e-12
1.53965e-12
1.39969e-12
1.27244e-12
1.15677e-12
1.0516e-12
9.56004e-13
8.69095e-13
7.90086e-13
7.1826e-13
6.52964e-13
5.93603e-13
5.3964e-13
4.90581e-13
4.45983e-13
4.05439e-13
3.68581e-13
3.35074e-13
3.04612e-13
2.7692e-13
2.51746e-13
2.2886e-13
2.08054e-13
1.8914e-13
1.71946e-13
1.56314e-13
1.42104e-13
1.29185e-13
1.17441e-13
1.06765e-13
9.70589e-14
8.82354e-14
8.0214e-14
6.38994e-12
5.80904e-12
5.28094e-12
4.80086e-12
4.36442e-12
3.96765e-12
3.60696e-12
3.27905e-12
2.98096e-12
2.70996e-12
2.4636e-12
2.23964e-12
2.03603e-12
1.85094e-12
1.68267e-12
1.5297e-12
1.39064e-12
1.26422e-12
1.14929e-12
1.04481e-12
9.49824e-13
8.63477e-13
7.84979e-13
7.13617e-13
6.48743e-13
5.89766e-13
5.36151e-13
4.8741e-13
4.431e-13
4.02818e-13
3.66198e-13
3.32908e-13
3.02643e-13
2.7513e-13
2.50118e-13
2.2738e-13
2.06709e-13
1.87918e-13
1.70834e-13
1.55304e-13
1.41185e-13
1.2835e-13
1.16682e-13
1.06075e-13
9.64315e-14
8.7665e-14
7.96954e-14
6.34863e-12
5.77149e-12
5.2468e-12
4.76982e-12
4.3362e-12
3.942e-12
3.58364e-12
3.25785e-12
2.96168e-12
2.69244e-12
2.44767e-12
2.22516e-12
2.02287e-12
1.83897e-12
1.67179e-12
1.51981e-12
1.38165e-12
1.25604e-12
1.14186e-12
1.03805e-12
9.43684e-13
8.57894e-13
7.79904e-13
7.09004e-13
6.44549e-13
5.85953e-13
5.32685e-13
4.84259e-13
4.40236e-13
4.00214e-13
3.63831e-13
3.30755e-13
3.00687e-13
2.73352e-13
2.48501e-13
2.2591e-13
2.05373e-13
1.86703e-13
1.6973e-13
1.543e-13
1.40273e-13
1.27521e-13
1.15928e-13
1.05389e-13
9.58081e-14
8.70982e-14
7.91802e-14
6.30759e-12
5.73417e-12
5.21289e-12
4.73899e-12
4.30817e-12
3.91652e-12
3.56047e-12
3.23679e-12
2.94254e-12
2.67503e-12
2.43185e-12
2.21077e-12
2.00979e-12
1.82708e-12
1.66099e-12
1.50999e-12
1.37272e-12
1.24792e-12
1.13448e-12
1.03134e-12
9.37583e-13
8.52349e-13
7.74862e-13
7.0442e-13
6.40382e-13
5.82165e-13
5.29241e-13
4.81129e-13
4.3739e-13
3.97627e-13
3.61479e-13
3.28617e-13
2.98743e-13
2.71585e-13
2.46895e-13
2.2445e-13
2.04045e-13
1.85496e-13
1.68633e-13
1.53302e-13
1.39366e-13
1.26696e-13
1.15178e-13
1.04708e-13
9.51887e-14
8.65352e-14
7.86684e-14
6.26682e-12
5.69711e-12
5.17919e-12
4.70835e-12
4.28032e-12
3.8912e-12
3.53745e-12
3.21587e-12
2.92352e-12
2.65774e-12
2.41613e-12
2.19648e-12
1.9968e-12
1.81527e-12
1.65025e-12
1.50023e-12
1.36384e-12
1.23986e-12
1.12714e-12
1.02467e-12
9.31522e-13
8.46838e-13
7.69853e-13
6.99866e-13
6.36242e-13
5.78402e-13
5.2582e-13
4.78018e-13
4.34562e-13
3.95056e-13
3.59142e-13
3.26493e-13
2.96812e-13
2.69829e-13
2.45299e-13
2.22999e-13
2.02726e-13
1.84297e-13
1.67542e-13
1.52311e-13
1.38465e-13
1.25877e-13
1.14434e-13
1.04031e-13
9.45734e-14
8.59758e-14
7.81598e-14
6.2263e-12
5.66028e-12
5.14571e-12
4.67791e-12
4.25265e-12
3.86604e-12
3.51459e-12
3.19508e-12
2.90462e-12
2.64056e-12
2.40051e-12
2.18228e-12
1.98389e-12
1.80354e-12
1.63958e-12
1.49053e-12
1.35503e-12
1.23184e-12
1.11986e-12
1.01805e-12
9.255e-13
8.41364e-13
7.64876e-13
6.95342e-13
6.32129e-13
5.74663e-13
5.22421e-13
4.74928e-13
4.31753e-13
3.92502e-13
3.5682e-13
3.24382e-13
2.94893e-13
2.68084e-13
2.43713e-13
2.21557e-13
2.01416e-13
1.83105e-13
1.66459e-13
1.51327e-13
1.3757e-13
1.25063e-13
1.13694e-13
1.03358e-13
9.3962e-14
8.542e-14
7.76545e-14
6.18605e-12
5.62368e-12
5.11244e-12
4.64767e-12
4.22516e-12
3.84105e-12
3.49187e-12
3.17442e-12
2.88584e-12
2.62349e-12
2.38499e-12
2.16817e-12
1.97107e-12
1.79188e-12
1.62898e-12
1.48089e-12
1.34627e-12
1.22388e-12
1.11262e-12
1.01147e-12
9.19517e-13