/*--------------------------------*- C++ -*----------------------------------*\
  =========                 |
  \\      /  F ield         | OpenFOAM: The Open Source CFD Toolbox
   \\    /   O peration     | Website:  https://openfoam.org
    \\  /    A nd           | Version:  7
     \\/     M anipulation  |
\*---------------------------------------------------------------------------*/
FoamFile
{
    version     2.0;
    format      ascii;
    class       volVectorField;
    location    "7009";
    object      wallShearStress;
}
// * * * * * * * * * * * * * * * * * * * * * * * * * * * * * * * * * * * * * //

dimensions      [0 2 -2 0 0 0 0];

internalField   uniform (0 0 0);

boundaryField
{
    inflow
    {
        type            cyclic;
    }
    outflow
    {
        type            cyclic;
    }
    wallTop
    {
        type            calculated;
        value           nonuniform List<vector> 
677
(
(-7.1754 6.17491e-16 -5.79669e-17)
(-7.17543 3.41367e-16 -7.32754e-17)
(-7.17543 5.54422e-16 -2.51327e-16)
(-7.17545 2.23534e-16 -2.80963e-16)
(-7.17548 5.09977e-16 -2.12038e-16)
(-7.17548 -1.24211e-16 -2.60223e-16)
(-7.17551 5.89009e-16 -3.07723e-16)
(-7.17551 -3.07183e-16 -4.1026e-16)
(-7.17551 6.08006e-16 -5.25642e-16)
(-7.17553 -3.67612e-16 -5.07213e-16)
(-7.17553 4.82712e-16 -4.77955e-16)
(-7.17553 -3.32261e-16 -5.0519e-16)
(-7.17553 3.44985e-16 -3.05357e-16)
(-7.17553 -1.54005e-16 -3.23071e-16)
(-7.17553 3.4418e-16 -3.4158e-16)
(-7.17553 4.80943e-16 -4.39162e-16)
(-7.17553 4.24421e-16 -4.27394e-16)
(-7.17553 3.8044e-16 -4.97893e-16)
(-7.17553 -6.98403e-16 -4.30139e-16)
(-7.17553 -4.07953e-16 -3.72652e-16)
(-7.17553 -5.21756e-16 -3.70607e-16)
(-7.17553 3.65014e-16 -3.18999e-16)
(-7.17553 2.48255e-16 -4.20324e-16)
(-7.17551 5.18643e-16 -5.96604e-16)
(-7.17551 -8.36112e-16 -5.79601e-16)
(-7.17551 -4.77139e-16 -5.36662e-16)
(-7.17551 -1.2735e-15 -5.53665e-16)
(-7.17548 -3.21957e-16 -3.24991e-16)
(-7.17548 -5.71159e-16 -3.60469e-16)
(-7.17548 1.21239e-18 -3.50407e-16)
(-7.17548 -2.94169e-16 -3.04639e-16)
(-7.17545 -4.17045e-17 -2.88218e-16)
(-7.17545 4.91095e-16 -3.35336e-16)
(-7.17545 6.13313e-17 -2.40735e-16)
(-7.17543 8.75366e-16 -3.71191e-16)
(-7.17543 2.428e-16 -4.64771e-16)
(-7.17543 1.04161e-15 -5.80628e-16)
(-7.1754 3.5561e-17 -6.18412e-16)
(-7.1754 8.05968e-16 -6.43378e-16)
(-7.17538 -2.75325e-16 -6.28044e-16)
(-7.17538 3.38167e-16 -6.37054e-16)
(-7.17538 -5.22695e-16 -6.77914e-16)
(-7.17535 9.92975e-17 -5.20039e-16)
(-7.17535 -6.63048e-16 -6.10689e-16)
(-7.17532 -9.33291e-17 -5.32475e-16)
(-7.17532 -1.02406e-16 -5.90524e-16)
(-7.1753 -3.199e-16 -5.64586e-16)
(-7.1753 -1.35303e-16 -5.14553e-16)
(-7.17527 -7.47578e-16 -5.4521e-16)
(-7.17527 -3.68849e-16 -4.21382e-16)
(-7.17525 -3.76484e-16 -4.3975e-16)
(-7.17525 -1.7561e-16 -4.76375e-16)
(-7.17522 -4.88468e-16 -3.42573e-16)
(-7.17519 -1.19118e-16 -3.10004e-16)
(-7.17519 -1.20946e-16 -3.00863e-16)
(-7.17517 3.20948e-17 -3.7542e-16)
(-7.17517 -1.48127e-16 -3.8409e-16)
(-7.17514 -2.47887e-18 -3.98039e-16)
(-7.17511 -1.05655e-16 -3.44902e-16)
(-7.17509 6.52045e-17 -4.25419e-16)
(-7.17509 7.15569e-16 -5.34135e-16)
(-7.17506 -8.36158e-16 -6.09165e-16)
(-7.17504 4.97743e-16 -6.11311e-16)
(-7.17501 -7.92712e-16 -4.74388e-16)
(-7.17501 3.29232e-16 -4.9998e-16)
(-7.17498 -7.09573e-16 -4.56641e-16)
(-7.17496 3.03375e-16 -3.79184e-16)
(-7.17493 -5.58351e-16 -3.12471e-16)
(-7.17491 3.03243e-16 -2.33716e-16)
(-7.17488 -3.94904e-16 -1.9769e-16)
(-7.17485 3.05918e-16 -1.78742e-16)
(-7.17483 -2.76893e-16 -1.86433e-16)
(-7.1748 3.01898e-16 -1.32169e-16)
(-7.17477 -1.3149e-16 -1.59787e-16)
(-7.17475 1.33858e-16 -2.27304e-16)
(-7.17472 2.6068e-16 -1.98268e-16)
(-7.1747 -1.9596e-16 -2.06831e-16)
(-7.17467 1.72152e-16 -2.36027e-16)
(-7.17462 -3.33003e-17 -2.63331e-16)
(-7.17459 2.60046e-16 -3.02601e-16)
(-7.17457 2.48704e-17 -3.18273e-16)
(-7.17451 1.1327e-17 -2.42683e-16)
(-7.17449 1.15452e-16 -2.777e-16)
(-7.17443 -9.94694e-19 -3.17366e-16)
(-7.17441 -7.27418e-17 -2.2316e-16)
(-7.17436 -1.81907e-16 -1.59715e-16)
(-7.1743 -8.55823e-17 -1.74231e-16)
(-7.17428 -9.94432e-17 -1.57331e-16)
(-7.17423 8.70707e-17 -1.73165e-16)
(-7.17417 7.89334e-17 -1.96731e-16)
(-7.17412 -9.86793e-17 -2.5254e-16)
(-7.17407 -9.99467e-17 -2.32644e-16)
(-7.17402 -2.39114e-16 -1.9172e-16)
(-7.17396 -1.50868e-16 -1.89314e-16)
(-7.17389 -2.49217e-16 -1.68188e-16)
(-7.17383 -1.52692e-16 -1.36445e-16)
(-7.17375 -2.27378e-16 -1.31616e-16)
(-7.1737 -1.89157e-16 -1.23743e-16)
(-7.17362 -1.75875e-16 -1.1109e-16)
(-7.17355 -1.68238e-16 -9.24356e-17)
(-7.17349 -1.43747e-16 -7.50822e-17)
(-7.17341 -1.15601e-16 -8.83034e-18)
(-7.17334 -4.87347e-17 -1.20635e-16)
(-7.17323 -3.26747e-17 -1.24044e-16)
(-7.17315 -9.20018e-17 -1.71259e-16)
(-7.17307 -1.04116e-16 -1.26774e-16)
(-7.17297 8.68099e-17 -1.7056e-16)
(-7.17286 -8.2605e-18 -2.45436e-16)
(-7.17276 -6.05175e-17 -1.78766e-16)
(-7.17266 -1.63016e-16 -2.5152e-16)
(-7.17255 -1.03892e-16 -1.82257e-16)
(-7.17245 -2.01029e-16 -2.55553e-16)
(-7.17232 -2.11428e-16 -1.95606e-16)
(-7.17221 -2.60574e-16 -1.78381e-16)
(-7.17208 -7.27238e-17 -2.30556e-16)
(-7.17195 -1.51977e-16 -2.10191e-16)
(-7.17179 -2.02056e-16 -2.29048e-16)
(-7.17166 -3.27138e-16 -1.32252e-16)
(-7.1715 -1.64804e-16 -9.45587e-17)
(-7.17135 -1.38483e-17 -1.52744e-16)
(-7.17119 -1.4207e-16 -1.39878e-16)
(-7.17103 -1.22624e-17 -1.19693e-16)
(-7.17085 -9.78177e-17 -1.03924e-16)
(-7.17067 6.28188e-17 -5.22172e-17)
(-7.17048 -4.7403e-18 -6.57154e-17)
(-7.1703 9.88922e-17 -9.66979e-17)
(-7.17009 6.75486e-17 -7.58048e-17)
(-7.16991 1.38301e-16 -8.98284e-17)
(-7.16967 1.05219e-16 -1.23609e-16)
(-7.16946 1.30748e-16 -2.18184e-16)
(-7.16923 8.31424e-17 -1.83908e-16)
(-7.16899 9.5736e-17 -1.8345e-16)
(-7.16876 3.4322e-17 -2.22064e-16)
(-7.1685 3.09196e-17 -1.77753e-16)
(-7.16823 8.24356e-18 -2.65487e-16)
(-7.16795 -2.12215e-17 -2.83676e-16)
(-7.16769 5.06907e-17 -2.49886e-16)
(-7.16737 -9.83043e-19 -2.1478e-16)
(-7.16708 -5.15438e-18 -2.13361e-16)
(-7.16677 -6.47554e-18 -1.68578e-16)
(-7.16643 9.31818e-17 -1.57826e-16)
(-7.16612 5.92601e-17 -2.12981e-16)
(-7.16575 -8.31221e-18 -1.73811e-16)
(-7.16541 -8.54345e-17 -1.77593e-16)
(-7.16502 -8.9205e-17 -1.25964e-16)
(-7.16465 -9.01812e-17 -1.25018e-16)
(-7.16426 -1.91691e-17 -1.24592e-16)
(-7.16384 3.11354e-17 -1.47209e-16)
(-7.16342 7.48916e-17 -1.51898e-16)
(-7.16298 6.50587e-17 -1.74275e-16)
(-7.16253 1.61855e-17 -1.71861e-16)
(-7.16206 -1.36362e-17 -1.64086e-16)
(-7.16159 -8.65072e-17 -1.67286e-16)
(-7.16109 -7.77788e-17 -1.07211e-16)
(-7.1606 -1.92193e-16 -1.08583e-16)
(-7.16005 -1.3647e-16 -7.89849e-17)
(-7.15952 -1.89376e-16 -2.83333e-17)
(-7.15895 -8.681e-17 -4.88201e-17)
(-7.15837 -1.33372e-16 -2.65697e-17)
(-7.1578 -2.41028e-17 -6.54222e-17)
(-7.15717 -4.44041e-17 -7.68987e-17)
(-7.15654 1.23159e-16 -2.83687e-17)
(-7.15589 6.0013e-17 -5.92194e-17)
(-7.15523 5.472e-17 -2.54503e-18)
(-7.15453 5.63718e-17 -2.77194e-17)
(-7.15382 -4.25445e-18 -9.79178e-18)
(-7.15309 6.83653e-18 -4.36686e-17)
(-7.15236 -4.34093e-17 -4.81519e-17)
(-7.15157 -2.96328e-17 -2.60407e-17)
(-7.15079 -3.98413e-17 -6.21511e-17)
(-7.14998 -6.06815e-17 -3.80126e-17)
(-7.14914 -6.5177e-17 -5.53673e-17)
(-7.14828 -6.38465e-17 -6.43263e-17)
(-7.14739 -5.47998e-17 -6.15482e-17)
(-7.14647 -4.58742e-17 -3.64672e-17)
(-7.14555 -5.17938e-17 -1.43718e-17)
(-7.14459 -5.14372e-17 -1.86863e-17)
(-7.14359 -5.78349e-17 2.6825e-17)
(-7.1426 -4.48843e-17 2.33412e-17)
(-7.14155 -1.18505e-16 5.55864e-17)
(-7.14048 -4.9124e-17 4.43218e-17)
(-7.13938 -8.71929e-17 3.47188e-17)
(-7.13828 -3.44251e-17 6.84727e-17)
(-7.13713 -8.2298e-17 7.2529e-17)
(-7.13595 7.82509e-19 6.58589e-17)
(-7.13475 -4.50714e-17 2.57732e-17)
(-7.1335 2.6765e-17 3.28544e-17)
(-7.13224 -2.31092e-17 4.46101e-18)
(-7.13093 4.59121e-17 3.16982e-17)
(-7.1296 6.21872e-18 4.35242e-17)
(-7.12824 6.30433e-17 3.20268e-17)
(-7.12685 7.45562e-18 5.58643e-18)
(-7.12541 3.63515e-17 2.67962e-17)
(-7.12397 4.95081e-17 5.52626e-18)
(-7.12248 6.53391e-17 -2.19346e-17)
(-7.12094 4.53214e-17 2.3724e-17)
(-7.11937 5.43721e-17 1.40198e-18)
(-7.11777 4.58535e-17 -2.83353e-17)
(-7.11615 5.28574e-17 -3.11629e-17)
(-7.11448 3.5e-17 1.01545e-17)
(-7.11275 3.8288e-17 -2.77278e-17)
(-7.11102 1.65408e-17 -7.65304e-17)
(-7.10925 5.93088e-18 -4.12617e-17)
(-7.10741 2.66802e-17 -3.70122e-17)
(-7.10556 5.55824e-17 -5.74634e-17)
(-7.10365 4.51315e-17 -8.44606e-17)
(-7.10171 -4.94847e-18 -1.03615e-16)
(-7.09972 -1.49818e-17 -7.55631e-17)
(-7.09771 2.7296e-17 -7.43152e-17)
(-7.09564 2.36853e-17 -8.41199e-17)
(-7.09355 4.94228e-17 -7.57386e-17)
(-7.09141 2.65454e-17 -6.63914e-17)
(-7.08923 6.31695e-17 -6.99832e-17)
(-7.08698 4.81967e-17 -5.81806e-17)
(-7.08473 9.82128e-17 -6.55268e-17)
(-7.08241 9.27025e-17 -6.94738e-17)
(-7.08005 1.57766e-16 -8.59384e-17)
(-7.07765 1.3229e-16 -7.61186e-17)
(-7.07519 1.73086e-16 -4.81301e-17)
(-7.0727 1.3291e-16 -6.55655e-17)
(-7.07016 1.41947e-16 -6.04932e-17)
(-7.06757 6.98794e-17 -7.1476e-17)
(-7.06496 5.01715e-17 -6.73098e-17)
(-7.06226 7.02729e-18 -7.28905e-17)
(-7.05954 -6.13105e-18 -6.41754e-17)
(-7.05677 -1.75257e-17 -2.92147e-17)
(-7.05397 7.01806e-18 -5.78462e-18)
(-7.05109 2.32479e-17 -2.29627e-17)
(-7.04819 6.14257e-17 -4.93227e-17)
(-7.04523 5.33458e-17 -4.96739e-17)
(-7.04223 4.99471e-17 -6.56476e-17)
(-7.03917 4.38227e-17 -3.62625e-17)
(-7.03605 5.14903e-17 -6.55792e-17)
(-7.03289 3.18673e-17 -7.07514e-17)
(-7.0297 2.20989e-17 -4.97081e-17)
(-7.02643 9.37653e-18 -4.65453e-17)
(-7.02313 2.1365e-17 -4.80705e-17)
(-7.01978 -1.79326e-17 -3.4898e-17)
(-7.01638 1.22872e-17 -8.18996e-18)
(-7.01293 5.15851e-18 -1.37479e-17)
(-7.00942 3.83633e-17 6.0858e-18)
(-7.00586 2.56578e-17 5.49997e-18)
(-7.00225 5.6848e-17 -8.44301e-18)
(-6.99859 2.46094e-17 -7.73718e-18)
(-6.99488 4.58769e-17 -1.24892e-17)
(-6.99111 7.55512e-20 -3.29792e-18)
(-6.98732 1.51761e-17 8.21194e-18)
(-6.98345 -4.26532e-17 1.67214e-17)
(-6.97955 -3.64143e-17 2.95525e-17)
(-6.97557 -6.38537e-17 7.96339e-17)
(-6.97157 7.03964e-18 7.7353e-17)
(-6.96749 2.90207e-17 7.67078e-17)
(-6.96338 8.04743e-18 7.7742e-17)
(-6.95922 1.20398e-17 6.35672e-17)
(-6.95501 1.62159e-17 1.10163e-16)
(-6.95072 2.66887e-17 6.49594e-17)
(-6.9464 1.88363e-17 7.15919e-17)
(-6.94204 2.7187e-17 7.542e-17)
(-6.93761 1.99381e-17 5.10795e-17)
(-6.93314 7.39617e-18 5.69479e-17)
(-6.92862 -2.63241e-17 3.84581e-17)
(-6.92406 -3.48876e-17 3.52978e-17)
(-6.91943 -6.06098e-17 3.55829e-17)
(-6.91475 -6.96601e-17 4.9728e-17)
(-6.91004 -7.22405e-17 6.57913e-17)
(-6.90526 -7.24667e-18 9.35067e-17)
(-6.90044 4.4038e-17 4.8092e-17)
(-6.89558 -1.96832e-17 2.66921e-17)
(-6.89066 1.09171e-17 3.60416e-17)
(-6.88569 -2.39655e-17 1.89091e-17)
(-6.88067 2.31927e-17 1.68701e-17)
(-6.87559 -1.57776e-17 6.48504e-18)
(-6.87049 2.43486e-17 2.06303e-17)
(-6.86531 -1.25459e-17 2.20416e-17)
(-6.8601 2.72364e-17 1.25491e-17)
(-6.85485 -3.69119e-18 6.89102e-18)
(-6.84954 2.64499e-17 -1.35437e-18)
(-6.8442 2.37101e-18 -6.74488e-19)
(-6.83879 2.78267e-17 -1.81623e-17)
(-6.83334 -2.56827e-17 -2.93911e-17)
(-6.82788 -2.13601e-17 -1.56183e-17)
(-6.82233 -1.91917e-17 -3.00161e-17)
(-6.81676 -5.34235e-17 8.20221e-18)
(-6.81113 -4.04192e-17 5.57635e-17)
(-6.80546 -2.6339e-18 6.68621e-17)
(-6.79976 2.95231e-17 5.03441e-17)
(-6.794 3.30144e-17 7.69178e-18)
(-6.78819 1.03311e-17 -1.38261e-17)
(-6.78236 -1.45284e-17 9.37553e-18)
(-6.77647 2.94214e-18 4.69525e-17)
(-6.77056 4.1667e-17 4.92723e-17)
(-6.7646 5.78308e-17 2.96376e-17)
(-6.75858 4.98432e-17 -1.26708e-17)
(-6.75254 5.21154e-18 -4.71221e-17)
(-6.74647 -7.07927e-17 -3.29127e-17)
(-6.74035 -8.09547e-17 1.30359e-17)
(-6.73417 -1.76035e-17 3.86605e-17)
(-6.72797 9.4652e-18 2.25655e-17)
(-6.72175 4.26054e-17 4.49667e-18)
(-6.71547 3.00153e-17 -9.97229e-19)
(-6.70914 3.47144e-17 -1.17004e-17)
(-6.70281 2.00605e-17 -9.3814e-18)
(-6.69643 3.00071e-17 -1.48244e-17)
(-6.68999 1.98039e-17 -1.23896e-17)
(-6.68353 3.24889e-17 -7.14734e-18)
(-6.67704 2.80869e-17 -1.03477e-17)
(-6.67053 4.79975e-17 -6.78422e-18)
(-6.66396 3.6816e-17 -2.42245e-17)
(-6.65737 2.69328e-17 -4.26229e-17)
(-6.65075 -2.0804e-17 -2.71792e-17)
(-6.64411 -1.68229e-17 -3.75083e-19)
(-6.63741 4.48538e-18 1.57463e-17)
(-6.63069 4.03314e-17 1.30416e-17)
(-6.62394 3.63706e-17 -1.88259e-18)
(-6.61716 4.77055e-17 6.92755e-18)
(-6.61034 4.43264e-17 1.0165e-17)
(-6.60351 7.08763e-17 1.03561e-17)
(-6.59663 7.72845e-17 -5.13881e-18)
(-6.58972 9.25791e-17 -2.88811e-17)
(-6.58279 7.56523e-17 -4.91312e-17)
(-6.57583 6.02155e-17 -6.23242e-17)
(-6.56885 3.55737e-17 -5.24374e-17)
(-6.56181 2.76218e-17 -4.52073e-17)
(-6.55477 1.57143e-17 -2.74929e-17)
(-6.54771 2.45409e-17 -1.22685e-17)
(-6.5406 3.38617e-17 -8.2509e-18)
(-6.53348 6.22637e-17 -1.07692e-17)
(-6.52634 7.97344e-17 -2.72184e-17)
(-6.51915 9.0628e-17 -3.8531e-17)
(-6.51195 8.77967e-17 -4.98221e-17)
(-6.50473 8.65627e-17 -4.72168e-17)
(-6.49746 7.47011e-17 -3.92039e-17)
(-6.49019 6.82078e-17 -3.66525e-17)
(-6.48289 5.7102e-17 -3.35902e-17)
(-6.47556 5.1266e-17 -3.92077e-17)
(-6.46821 4.31204e-17 -4.41672e-17)
(-6.46084 3.90482e-17 -3.95956e-17)
(-6.45343 4.45912e-17 -4.20726e-17)
(-6.44603 5.64201e-17 -3.96566e-17)
(-6.43857 5.09122e-17 -5.10341e-17)
(-6.43112 4.22474e-17 -8.06219e-17)
(-6.42364 1.88421e-17 -7.04293e-17)
(-6.41613 1.52692e-17 -6.74343e-17)
(-6.4086 1.35801e-17 -6.66293e-17)
(-6.40104 2.01633e-17 -7.96197e-17)
(-6.39348 1.24697e-17 -9.94391e-17)
(-6.38586 1.7156e-17 -9.77233e-17)
(-6.37825 1.1634e-17 -9.49143e-17)
(-6.37061 1.82754e-17 -9.66026e-17)
(-6.36295 1.27749e-17 -1.12468e-16)
(-6.35528 1.80481e-17 -1.10917e-16)
(-6.34757 1.17649e-17 -1.02703e-16)
(-6.33985 1.86282e-17 -9.10589e-17)
(-6.33211 1.83565e-17 -8.48642e-17)
(-6.32434 1.62095e-17 -8.70929e-17)
(-6.31657 5.47652e-18 -8.51827e-17)
(-6.30875 8.41946e-19 -9.15932e-17)
(-6.30092 2.37739e-19 -9.48373e-17)
(-6.29308 4.93419e-18 -1.05288e-16)
(-6.28523 7.527e-18 -1.09029e-16)
(-6.27733 1.22336e-17 -1.14186e-16)
(-6.26943 1.68538e-17 -1.16887e-16)
(-6.2615 1.90092e-17 -1.22303e-16)
(-6.25355 1.70201e-17 -1.3949e-16)
(-6.2456 1.50651e-17 -1.47682e-16)
(-6.23759 8.043e-18 -1.58454e-16)
(-6.22959 6.26785e-18 -1.44138e-16)
(-6.22156 1.25313e-17 -1.27571e-16)
(-6.21353 2.24498e-17 -1.28933e-16)
(-6.20544 2.42223e-17 -1.40144e-16)
(-6.19736 1.4175e-17 -1.50909e-16)
(-6.18925 -2.19664e-18 -1.43786e-16)
(-6.18112 -8.27659e-18 -1.42023e-16)
(-6.17295 -3.44449e-18 -1.37607e-16)
(-6.16479 4.85489e-18 -1.37997e-16)
(-6.1566 7.16348e-18 -1.46555e-16)
(-6.14839 1.15314e-17 -1.46434e-16)
(-6.14015 1.57951e-17 -1.32726e-16)
(-6.13188 2.39529e-17 -1.25435e-16)
(-6.12359 2.58747e-17 -1.22424e-16)
(-6.1153 1.97354e-17 -1.2635e-16)
(-6.10695 6.4356e-18 -1.29258e-16)
(-6.09861 -4.7646e-18 -1.26068e-16)
(-6.09024 -4.16878e-18 -1.1129e-16)
(-6.08184 3.48399e-18 -1.102e-16)
(-6.07342 1.49151e-17 -1.17464e-16)
(-6.06499 1.90688e-17 -1.16887e-16)
(-6.05652 2.08049e-17 -1.26401e-16)
(-6.04802 2.1906e-17 -1.24009e-16)
(-6.03952 2.09459e-17 -1.20067e-16)
(-6.03096 1.86355e-17 -1.16248e-16)
(-6.02241 1.69076e-17 -1.07295e-16)
(-6.01383 1.64733e-17 -9.9134e-17)
(-6.00519 1.88064e-17 -9.51924e-17)
(-5.99656 1.71647e-17 -8.98463e-17)
(-5.9879 1.32347e-17 -9.80206e-17)
(-5.97919 8.61158e-18 -1.01055e-16)
(-5.97048 6.48594e-18 -9.36152e-17)
(-5.96174 9.56859e-18 -8.49724e-17)
(-5.95295 1.31838e-17 -7.93791e-17)
(-5.94417 1.51198e-17 -8.74094e-17)
(-5.93532 2.14166e-17 -9.58811e-17)
(-5.92648 2.42664e-17 -9.9335e-17)
(-5.91759 2.59646e-17 -1.00663e-16)
(-5.90867 2.62812e-17 -9.9209e-17)
(-5.89972 2.63937e-17 -9.74212e-17)
(-5.89075 2.8018e-17 -9.83427e-17)
(-5.88175 3.02186e-17 -9.13961e-17)
(-5.8727 3.21893e-17 -9.29494e-17)
(-5.86362 2.91178e-17 -1.01807e-16)
(-5.85452 2.43111e-17 -1.0618e-16)
(-5.84539 1.96e-17 -1.09662e-16)
(-5.83623 1.59586e-17 -1.07756e-16)
(-5.82702 1.50367e-17 -1.09299e-16)
(-5.81779 1.7118e-17 -1.12473e-16)
(-5.8085 2.0166e-17 -1.13592e-16)
(-5.79922 2.43719e-17 -1.17923e-16)
(-5.78985 2.58939e-17 -1.24873e-16)
(-5.78049 2.64592e-17 -1.27154e-16)
(-5.77107 2.32335e-17 -1.29326e-16)
(-5.7616 2.08126e-17 -1.32334e-16)
(-5.75213 1.88468e-17 -1.34951e-16)
(-5.74258 1.43143e-17 -1.33019e-16)
(-5.73301 1.17219e-17 -1.32748e-16)
(-5.72338 1.14422e-17 -1.29522e-16)
(-5.71373 1.17244e-17 -1.24415e-16)
(-5.70402 1.29131e-17 -1.28322e-16)
(-5.69427 1.37824e-17 -1.32408e-16)
(-5.68448 1.3919e-17 -1.33975e-16)
(-5.67465 1.15434e-17 -1.32463e-16)
(-5.66476 8.86778e-18 -1.3306e-16)
(-5.65482 8.57105e-18 -1.36416e-16)
(-5.64482 8.19104e-18 -1.3913e-16)
(-5.63478 8.09101e-18 -1.40235e-16)
(-5.62471 7.60501e-18 -1.37682e-16)
(-5.61456 7.86387e-18 -1.35001e-16)
(-5.60438 6.76499e-18 -1.31326e-16)
(-5.59415 9.27949e-18 -1.22679e-16)
(-5.58387 9.88627e-18 -1.15855e-16)
(-5.57354 1.0981e-17 -1.11477e-16)
(-5.56316 1.07823e-17 -1.06424e-16)
(-5.55274 9.23388e-18 -1.07106e-16)
(-5.54225 6.95109e-18 -1.04501e-16)
(-5.53171 5.19283e-18 -9.58338e-17)
(-5.52112 1.79866e-19 -8.65933e-17)
(-5.5105 -1.26845e-18 -7.50397e-17)
(-5.4998 -2.4848e-18 -6.46028e-17)
(-5.48905 -1.56877e-18 -5.49913e-17)
(-5.47824 -3.949e-18 -4.65097e-17)
(-5.46739 -2.24198e-19 -4.2893e-17)
(-5.45648 8.90429e-19 -3.87769e-17)
(-5.44549 3.82593e-18 -3.08436e-17)
(-5.43445 4.29883e-18 -2.47291e-17)
(-5.42339 8.69529e-18 -2.29334e-17)
(-5.41222 1.01274e-17 -2.01817e-17)
(-5.40102 9.33621e-18 -2.23899e-17)
(-5.38975 9.41277e-18 -2.20304e-17)
(-5.37842 9.44411e-18 -1.70436e-17)
(-5.36704 9.98515e-18 -1.23769e-17)
(-5.35558 7.40458e-18 -4.66525e-18)
(-5.34407 9.35998e-18 2.70484e-18)
(-5.33248 8.41599e-18 6.89472e-18)
(-5.32084 1.04331e-17 1.16841e-17)
(-5.30912 9.47343e-18 1.89343e-17)
(-5.29735 9.405e-18 2.37385e-17)
(-5.2855 1.14683e-17 2.97723e-17)
(-5.2736 1.21851e-17 3.43618e-17)
(-5.26159 1.30301e-17 3.82204e-17)
(-5.24956 1.42406e-17 4.1966e-17)
(-5.23742 1.6144e-17 4.6619e-17)
(-5.22523 1.71299e-17 4.86308e-17)
(-5.21296 1.54343e-17 4.65452e-17)
(-5.20064 1.33011e-17 4.98578e-17)
(-5.18822 1.22714e-17 5.40372e-17)
(-5.17574 9.15992e-18 6.10231e-17)
(-5.16315 7.00109e-18 6.69025e-17)
(-5.15052 7.09962e-18 7.577e-17)
(-5.13781 6.80109e-18 8.34905e-17)
(-5.12501 7.87541e-18 8.92475e-17)
(-5.11212 8.78983e-18 9.38964e-17)
(-5.09917 8.48738e-18 9.42037e-17)
(-5.08612 8.18936e-18 9.67273e-17)
(-5.07301 6.97909e-18 9.6333e-17)
(-5.0598 5.35026e-18 9.64224e-17)
(-5.04648 5.02441e-18 9.96996e-17)
(-5.03312 7.38485e-18 1.04142e-16)
(-5.01965 9.63304e-18 1.10403e-16)
(-5.00607 1.27599e-17 1.19674e-16)
(-4.99241 1.55728e-17 1.26514e-16)
(-4.97868 1.98024e-17 1.29347e-16)
(-4.96484 2.3264e-17 1.32007e-16)
(-4.9509 2.70093e-17 1.33809e-16)
(-4.93688 2.88242e-17 1.33424e-16)
(-4.92275 3.04935e-17 1.34991e-16)
(-4.90852 3.14602e-17 1.35903e-16)
(-4.89419 3.48105e-17 1.3916e-16)
(-4.87975 3.51066e-17 1.4234e-16)
(-4.86523 3.53826e-17 1.41474e-16)
(-4.8506 3.5128e-17 1.40458e-16)
(-4.83585 3.56999e-17 1.40291e-16)
(-4.82102 3.66112e-17 1.39816e-16)
(-4.80605 3.80673e-17 1.41205e-16)
(-4.79101 3.7648e-17 1.45803e-16)
(-4.77584 3.75357e-17 1.48238e-16)
(-4.76056 3.71278e-17 1.49411e-16)
(-4.74518 3.62252e-17 1.47638e-16)
(-4.7297 3.77859e-17 1.46183e-16)
(-4.71408 3.82357e-17 1.47027e-16)
(-4.69836 3.7687e-17 1.4707e-16)
(-4.68253 3.63738e-17 1.46244e-16)
(-4.66657 3.58644e-17 1.45503e-16)
(-4.65051 3.43034e-17 1.45732e-16)
(-4.63432 3.35642e-17 1.46702e-16)
(-4.61802 3.33487e-17 1.48933e-16)
(-4.60159 3.30428e-17 1.52301e-16)
(-4.58504 3.38934e-17 1.56696e-16)
(-4.56835 3.53351e-17 1.63604e-16)
(-4.55153 3.43642e-17 1.69217e-16)
(-4.5346 3.6697e-17 1.71236e-16)
(-4.51754 3.65305e-17 1.73864e-16)
(-4.50033 3.71595e-17 1.74824e-16)
(-4.48301 3.94369e-17 1.74706e-16)
(-4.46554 3.93942e-17 1.73479e-16)
(-4.44796 4.10222e-17 1.718e-16)
(-4.43023 4.10887e-17 1.70737e-16)
(-4.41236 4.14191e-17 1.69668e-16)
(-4.39436 4.0999e-17 1.67587e-16)
(-4.37621 4.06771e-17 1.66369e-16)
(-4.35792 3.897e-17 1.65809e-16)
(-4.3395 3.87233e-17 1.66217e-16)
(-4.32093 3.80823e-17 1.69429e-16)
(-4.30223 3.77878e-17 1.73874e-16)
(-4.28339 3.673e-17 1.79437e-16)
(-4.2644 3.59682e-17 1.85379e-16)
(-4.24525 3.50868e-17 1.91684e-16)
(-4.22597 3.55728e-17 1.98137e-16)
(-4.20656 3.58877e-17 2.02087e-16)
(-4.18697 3.6874e-17 2.03225e-16)
(-4.16727 3.82011e-17 2.02683e-16)
(-4.14739 4.01089e-17 2.01163e-16)
(-4.12738 4.12914e-17 1.99976e-16)
(-4.10721 4.13118e-17 1.96866e-16)
(-4.08691 4.18629e-17 1.92789e-16)
(-4.06643 4.04905e-17 1.89735e-16)
(-4.04581 4.03236e-17 1.88312e-16)
(-4.02504 3.89196e-17 1.87228e-16)
(-4.00412 3.76102e-17 1.86742e-16)
(-3.98303 3.6546e-17 1.89406e-16)
(-3.96182 3.55089e-17 1.92499e-16)
(-3.94042 3.47895e-17 1.96666e-16)
(-3.91889 3.357e-17 1.99478e-16)
(-3.89718 3.31582e-17 2.00609e-16)
(-3.87531 3.36111e-17 2.03793e-16)
(-3.85328 3.29022e-17 2.06186e-16)
(-3.83113 3.35212e-17 2.05884e-16)
(-3.80876 3.38442e-17 2.0389e-16)
(-3.78626 3.48136e-17 2.01407e-16)
(-3.76361 3.58563e-17 1.99949e-16)
(-3.74077 3.43882e-17 1.97438e-16)
(-3.71778 3.3789e-17 1.93811e-16)
(-3.6946 3.33798e-17 1.92724e-16)
(-3.67129 3.23639e-17 1.92367e-16)
(-3.64778 3.14851e-17 1.92735e-16)
(-3.62413 2.91525e-17 1.93853e-16)
(-3.6003 2.78791e-17 1.93639e-16)
(-3.57628 2.69798e-17 1.9457e-16)
(-3.55211 2.56323e-17 1.95778e-16)
(-3.52776 2.50013e-17 1.95906e-16)
(-3.50325 2.48717e-17 1.95962e-16)
(-3.47855 2.51951e-17 1.96339e-16)
(-3.45367 2.64033e-17 1.97297e-16)
(-3.42864 2.80612e-17 1.99663e-16)
(-3.40342 3.04038e-17 2.04594e-16)
(-3.37802 3.22473e-17 2.10424e-16)
(-3.35244 3.3742e-17 2.15509e-16)
(-3.3267 3.42521e-17 2.1988e-16)
(-3.30077 3.56933e-17 2.24517e-16)
(-3.27467 3.59517e-17 2.28439e-16)
(-3.2484 3.67267e-17 2.2997e-16)
(-3.22193 3.72401e-17 2.29248e-16)
(-3.1953 3.82074e-17 2.28185e-16)
(-3.16849 3.80925e-17 2.2685e-16)
(-3.14149 3.86808e-17 2.23647e-16)
(-3.11431 3.94e-17 2.20132e-16)
(-3.08695 3.96145e-17 2.17012e-16)
(-3.05943 4.02219e-17 2.13967e-16)
(-3.03173 4.10506e-17 2.113e-16)
(-3.00384 4.17517e-17 2.09688e-16)
(-2.97577 4.21896e-17 2.09214e-16)
(-2.94755 4.18127e-17 2.08677e-16)
(-2.91914 4.13713e-17 2.07806e-16)
(-2.89054 4.02647e-17 2.069e-16)
(-2.8618 3.96274e-17 2.05099e-16)
(-2.83286 3.92105e-17 2.02954e-16)
(-2.80375 3.89306e-17 2.00092e-16)
(-2.77448 3.83652e-17 1.96288e-16)
(-2.74505 3.83537e-17 1.92715e-16)
(-2.71543 3.81301e-17 1.89188e-16)
(-2.68567 3.80168e-17 1.85771e-16)
(-2.65574 3.76605e-17 1.82433e-16)
(-2.62563 3.76116e-17 1.79558e-16)
(-2.59539 3.84299e-17 1.77284e-16)
(-2.56498 3.94502e-17 1.75918e-16)
(-2.53443 3.94169e-17 1.75096e-16)
(-2.50372 3.97162e-17 1.74125e-16)
(-2.47286 3.9425e-17 1.73427e-16)
(-2.44187 3.88653e-17 1.72553e-16)
(-2.41073 3.84116e-17 1.71676e-16)
(-2.37945 3.77247e-17 1.69931e-16)
(-2.34804 3.75152e-17 1.66938e-16)
(-2.3165 3.73861e-17 1.6374e-16)
(-2.28483 3.71562e-17 1.60512e-16)
(-2.25304 3.71527e-17 1.57312e-16)
(-2.22113 3.71089e-17 1.53975e-16)
(-2.1891 3.72409e-17 1.50752e-16)
(-2.15697 3.71894e-17 1.47387e-16)
(-2.12472 3.7593e-17 1.44168e-16)
(-2.09237 3.72904e-17 1.4117e-16)
(-2.05992 3.70012e-17 1.37733e-16)
(-2.02738 3.69188e-17 1.34271e-16)
(-1.99475 3.6376e-17 1.30347e-16)
(-1.96203 3.63881e-17 1.2633e-16)
(-1.92923 3.62205e-17 1.22825e-16)
(-1.89634 3.59943e-17 1.19326e-16)
(-1.86339 3.59968e-17 1.16164e-16)
(-1.83036 3.5405e-17 1.13021e-16)
(-1.79727 3.5026e-17 1.0956e-16)
(-1.76411 3.48753e-17 1.06144e-16)
(-1.73089 3.45372e-17 1.02923e-16)
(-1.69762 3.42158e-17 9.97868e-17)
(-1.6643 3.3679e-17 9.64179e-17)
(-1.63092 3.34225e-17 9.2702e-17)
(-1.5975 3.32295e-17 8.91986e-17)
(-1.56403 3.27678e-17 8.58083e-17)
(-1.53052 3.24182e-17 8.21692e-17)
(-1.49697 3.21248e-17 7.86159e-17)
(-1.46338 3.18776e-17 7.49692e-17)
(-1.42976 3.14884e-17 7.11753e-17)
(-1.3961 3.13926e-17 6.74809e-17)
(-1.3624 3.11862e-17 6.39779e-17)
(-1.32867 3.1073e-17 6.08271e-17)
(-1.2949 3.09119e-17 5.76664e-17)
(-1.2611 3.09635e-17 5.44453e-17)
(-1.22727 3.08647e-17 5.14336e-17)
(-1.1934 3.07171e-17 4.84836e-17)
(-1.15949 3.06626e-17 4.57749e-17)
(-1.12554 3.0508e-17 4.31907e-17)
(-1.09155 3.01006e-17 4.0512e-17)
(-1.05751 2.96831e-17 3.76651e-17)
(-1.02343 2.9392e-17 3.48584e-17)
(-0.989288 2.91596e-17 3.21935e-17)
(-0.955092 2.88105e-17 2.94588e-17)
(-0.920832 2.85348e-17 2.66785e-17)
(-0.886503 2.82153e-17 2.39316e-17)
(-0.852098 2.78486e-17 2.12588e-17)
(-0.81761 2.74508e-17 1.86086e-17)
(-0.783025 2.72035e-17 1.60858e-17)
(-0.748338 2.67079e-17 1.35519e-17)
(-0.713538 2.63485e-17 1.08509e-17)
(-0.678607 2.61197e-17 8.25056e-18)
(-0.643536 2.59987e-17 5.84563e-18)
(-0.608304 2.59731e-17 3.6175e-18)
(-0.572898 2.59915e-17 1.60892e-18)
(-0.53729 2.60461e-17 -1.85204e-19)
(-0.501457 2.62098e-17 -1.76728e-18)
(-0.46537 2.64183e-17 -3.15826e-18)
(-0.428996 2.67127e-17 -4.3159e-18)
(-0.392287 2.69883e-17 -5.22763e-18)
(-0.355198 2.72488e-17 -5.99276e-18)
(-0.317665 2.74401e-17 -6.55858e-18)
(-0.2796 2.74989e-17 -6.8276e-18)
(-0.240905 2.7231e-17 -6.80572e-18)
(-0.201427 2.66028e-17 -6.3618e-18)
(-0.160949 2.52192e-17 -5.24644e-18)
(-0.119118 2.25807e-17 -3.02371e-18)
(-0.0752732 1.69212e-17 8.47108e-19)
(-0.0278722 6.1342e-18 2.99902e-18)
)
;
    }
    wallSide
    {
        type            calculated;
        value           nonuniform List<vector> 
47
(
(-5.82017 4.97317e-17 6.35679e-18)
(-5.7899 2.32389e-16 1.53923e-17)
(-5.73595 5.72076e-16 -1.43875e-17)
(-5.66261 8.05057e-16 -3.22776e-17)
(-5.57284 1.1133e-15 -5.17894e-17)
(-5.46874 1.4287e-15 4.16421e-17)
(-5.35204 1.37511e-15 1.5136e-17)
(-5.22394 1.36357e-15 -5.26256e-17)
(-5.08537 1.29934e-15 -4.20662e-17)
(-4.9371 8.62446e-16 1.77088e-16)
(-4.7797 5.80793e-16 -8.917e-17)
(-4.61365 2.87945e-16 5.74612e-17)
(-4.43948 1.22115e-16 -9.90046e-17)
(-4.25807 7.69837e-17 1.34294e-16)
(-4.07068 -8.7191e-17 5.36533e-17)
(-3.87847 3.31627e-17 1.35001e-17)
(-3.68246 1.64075e-16 3.07179e-17)
(-3.48374 1.51413e-16 1.1555e-17)
(-3.28349 1.6734e-16 -1.24506e-17)
(-3.08299 1.66031e-16 -3.27913e-18)
(-2.88366 1.48415e-16 -1.34899e-17)
(-2.68701 1.38177e-16 -1.51061e-17)
(-2.4945 1.28472e-16 -1.12643e-17)
(-2.30761 1.13325e-16 -9.4991e-18)
(-2.1276 1.03918e-16 -7.07739e-18)
(-1.9555 8.95139e-17 -4.56131e-18)
(-1.79204 8.01306e-17 -3.22555e-18)
(-1.63764 7.68191e-17 -2.70483e-18)
(-1.49242 7.35659e-17 -2.78279e-18)
(-1.35629 6.82446e-17 -2.6053e-18)
(-1.22899 6.63184e-17 -3.09014e-18)
(-1.11015 6.4909e-17 -3.42778e-18)
(-0.99931 6.36418e-17 -3.89218e-18)
(-0.896006 6.25003e-17 -3.83926e-18)
(-0.799746 6.07364e-17 -4.19457e-18)
(-0.710043 5.76603e-17 -4.32507e-18)
(-0.62643 5.5354e-17 -3.84324e-18)
(-0.548449 5.29755e-17 -3.86628e-18)
(-0.475658 4.96324e-17 -3.85978e-18)
(-0.40764 4.59148e-17 -4.06088e-18)
(-0.34398 4.15472e-17 -4.73427e-18)
(-0.284273 3.63422e-17 -5.77239e-18)
(-0.2281 3.03587e-17 -7.10066e-18)
(-0.175017 2.36798e-17 -8.52015e-18)
(-0.12448 1.64804e-17 -9.4185e-18)
(-0.0757034 8.75715e-18 -8.08881e-18)
(-0.0271901 2.72216e-18 -3.65947e-18)
)
;
    }
    symmetryBottom
    {
        type            symmetry;
    }
    symmetrySide
    {
        type            symmetry;
    }
}


// ************************************************************************* //
