/*--------------------------------*- C++ -*----------------------------------*\
  =========                 |
  \\      /  F ield         | OpenFOAM: The Open Source CFD Toolbox
   \\    /   O peration     | Website:  https://openfoam.org
    \\  /    A nd           | Version:  7
     \\/     M anipulation  |
\*---------------------------------------------------------------------------*/
FoamFile
{
    version     2.0;
    format      ascii;
    class       volScalarField;
    location    "20000";
    object      Cx;
}
// * * * * * * * * * * * * * * * * * * * * * * * * * * * * * * * * * * * * * //

dimensions      [0 1 0 0 0 0 0];

internalField   nonuniform List<scalar> 
15600
(
0.0598279108762468
0.179515718451235
0.299121746757359
0.417747030829745
0.53369752715548
0.645690865629185
0.754033380436003
0.859788684502538
0.964094674744618
1.0680509572596
1.17246773511962
1.2775592846281
1.38319835086868
1.48924062591983
1.59554538607324
1.70208654968579
1.80910837465974
1.91702199051256
2.02623347543911
2.13711289930884
2.2498849968496
2.36451490645919
2.48079136196884
2.59843693123892
2.71711458850793
2.8365575001247
2.95615421387012
3.07568579304396
3.19534161479645
3.31499743654895
3.43465325830144
3.55430908005393
3.67396490180643
3.79362072355892
3.91327654531142
4.03293236706391
4.1525881888164
4.2722440105689
4.39189983232139
4.51155565407389
4.63121147582638
4.75086729757888
4.87052311933137
4.99017894108386
5.10983476283636
5.22949058458885
5.34914640634134
5.46880222809384
5.58845804984633
5.70811387159882
5.82776969335132
5.94742551510381
6.0670813368563
6.1867371586088
6.30639298036129
6.42604880211379
6.54570462386627
6.66536044561877
6.78501626737126
6.90467208912376
7.02432791087625
7.14398373262874
7.26363955438124
7.38329537613374
7.50295119788623
7.62260701963872
7.74226284139121
7.86191866314371
7.9815744848962
8.10123030664869
8.22088612840119
8.34054195015368
8.46019777190617
8.57985359365867
8.69950941541116
8.81916523716366
8.93882105891615
9.05847688066864
9.17813270242114
9.29778852417363
9.41744434592612
9.53710016767861
9.65675598943111
9.7764118111836
9.8960676329361
10.0157234546886
10.1353792764411
10.2550350981936
10.3746909199461
10.4943467416986
10.6140025634511
10.7336583852036
10.8533142069561
10.972867749255
11.0924639469124
11.2118834107602
11.3305580722302
11.44819925525
11.5644701000549
11.679093824865
11.7918590648455
11.9027318518849
12.0119381815358
12.1198477383583
12.2268669995652
12.3334071168738
12.4397111360617
12.5457522207237
12.6513895837142
12.7564789050439
12.8608932872053
12.9648491163265
13.0691584439421
13.174921008757
13.2832745316392
13.3952824977751
13.5112459739862
13.6298772757373
13.7494845609047
13.8691720891238
0.0598207661189104
0.179494342777254
0.299087039752546
0.417703228816359
0.533655320716232
0.645665519338581
0.754039019024474
0.859835392506262
0.964188112781828
1.06819245179563
1.17265545039346
1.27779058130623
1.38347108909411
1.48955323314796
1.59589684439633
1.70247592384928
1.8095337318671
1.91747975647736
2.02671845416583
2.13761841535625
2.2504034876044
2.36503896138886
2.48131441234939
2.59895351385938
2.71762058397355
2.83704985332795
2.9566324167691
3.07615020227083
3.19579173450865
3.31543326674647
3.43507479898429
3.55471633122211
3.67435786345993
3.79399939569775
3.91364092793557
4.0332824601734
4.15292399241122
4.27256552464904
4.39220705688686
4.51184858912468
4.6314901213625
4.75113165360032
4.87077318583814
4.99041471807597
5.11005625031379
5.22969778255161
5.34933931478943
5.46898084702725
5.58862237926507
5.70826391150289
5.82790544374071
5.94754697597853
6.06718850821635
6.18683004045417
6.30647157269199
6.42611310492981
6.54575463716763
6.66539616940545
6.78503770164328
6.9046792338811
7.02432076611892
7.14396229835673
7.26360383059456
7.38324536283238
7.5028868950702
7.62252842730802
7.74216995954584
7.86181149178366
7.98145302402148
8.1010945562593
8.22073608849712
8.34037762073494
8.46001915297277
8.57966068521059
8.69930221744841
8.81894374968623
8.93858528192405
9.05822681416186
9.17786834639969
9.29750987863751
9.41715141087533
9.53679294311315
9.65643447535097
9.77607600758879
9.89571753982661
10.0153590720644
10.1350006043023
10.2546421365401
10.3742836687779
10.4939252010157
10.6135667332536
10.7332082654914
10.8528497977292
10.9723894587029
11.0919715074203
11.2113774225559
11.3300415088301
11.4476762415953
11.5639461042387
11.6785754178871
11.7913536599489
11.9022470108529
12.0114805739046
12.1194225557464
12.2264778102759
12.3330558476349
12.4393987207886
12.5454796790859
12.6511584902762
12.7562914017226
12.8607520140183
12.9647559016054
13.0691119462602
13.1749155521175
13.2833000171492
13.3953247870544
13.5112898081647
13.6299119899864
13.7495059372894
13.8691792338811
0.0598133596283852
0.179472184050125
0.299051061329006
0.417657822206627
0.533611568136086
0.645639244549216
0.754044864167455
0.859883811530153
0.964284973675731
1.06833912963526
1.17285004218004
1.27803035102034
1.38375381848819
1.48987729206884
1.59626117764589
1.70287956191201
1.8099746711438
1.91795429174493
2.02722119908249
2.13814244993683
2.2509409721917
2.36558221397909
2.48185662358677
2.59948902040048
2.71814511551988
2.83756024285568
2.95712813762845
3.07663162415495
3.19625834341172
3.31588506266849
3.43551178192526
3.55513850118203
3.67476522043881
3.79439193969558
3.91401865895235
4.03364537820912
4.15327209746589
4.27289881672266
4.39252553597943
4.5121522552362
4.63177897449298
4.75140569374975
4.87103241300652
4.99065913226329
5.11028585152006
5.22991257077683
5.3495392900336
5.46916600929037
5.58879272854714
5.70841944780391
5.82804616706068
5.94767288631745
6.06729960557422
6.186926324831
6.30655304408777
6.42617976334454
6.54580648260131
6.66543320185808
6.78505992111485
6.90468664037162
7.02431335962839
7.14394007888516
7.26356679814193
7.3831935173987
7.50282023665547
7.62244695591224
7.74207367516901
7.86170039442578
7.98132711368256
8.10095383293933
8.2205805521961
8.34020727145287
8.45983399070964
8.57946070996641
8.69908742922319
8.81871414847995
8.93834086773672
9.0579675869935
9.17759430625027
9.29722102550703
9.41684774476381
9.53647446402057
9.65610118327735
9.77572790253412
9.89535462179089
10.0149813410477
10.1346080603044
10.2542347795612
10.373861498818
10.4934882180748
10.6131149373315
10.7327416565883
10.8523683758451
10.9718936469796
11.0914610284426
11.2108528985368
11.3295060222136
11.4471340684291
11.5634029129275
11.6780380201457
11.7908297405909
11.901744408675
12.0110062027707
12.1189817974615
12.2260743638599
12.3326917103959
12.4390748608548
12.545197153481
12.6509189312474
12.7560970296532
12.8606055656365
12.9646592722088
13.0690637452622
13.1749098955887
13.2833264362582
13.3953686255093
13.5113352481178
13.6299479759196
13.7495280967531
13.8691866403716
0.0598056818166332
0.17944921358468
0.299013764910847
0.417610752219466
0.53356621277571
0.64561200724821
0.754050923431399
0.859934004251648
0.964385382811783
1.06849118065398
1.17305176238262
1.27827890415967
1.38404690505432
1.49021322218965
1.59663885746664
1.70329798640111
1.81043176330587
1.91844621062357
2.02774236101658
2.13868568143865
2.25149814641103
2.36614536749596
2.4824186975985
2.60004414409982
2.7186888621767
2.83808932943011
2.95764201818145
3.07713068191883
3.1967420455521
3.31635340918537
3.43596477281864
3.5555761364519
3.67518750008517
3.79479886371844
3.91441022735171
4.03402159098498
4.15363295461824
4.27324431825151
4.39285568188477
4.51246704551804
4.63207840915131
4.75168977278457
4.87130113641784
4.99091250005111
5.11052386368437
5.23013522731764
5.34974659095091
5.46935795458417
5.58896931821744
5.7085806818507
5.82819204548397
5.94780340911724
6.06741477275051
6.18702613638377
6.30663750001704
6.4262488636503
6.54586022728357
6.66547159091684
6.7850829545501
6.90469431818337
7.02430568181664
7.1439170454499
7.26352840908317
7.38313977271644
7.5027511363497
7.62236249998297
7.74197386361624
7.8615852272495
7.98119659088277
8.10080795451604
8.22041931814931
8.34003068178257
8.45964204541584
8.5792534090491
8.69886477268237
8.81847613631563
8.9380874999489
9.05769886358217
9.17731022721544
9.2969215908487
9.41653295448197
9.53614431811524
9.6557556817485
9.77536704538177
9.89497840901504
10.0145897726483
10.1342011362816
10.2538124999148
10.3734238635481
10.4930352271814
10.6126465908146
10.7322579544479
10.8518693180812
10.9713796722342
11.0909318491411
11.2103091596829
11.3289509191687
11.4465720338832
11.5628398229344
11.6774809359536
11.7902866285326
11.9012233947087
12.0105144540387
12.1185248929212
12.2256561380381
12.3323142337663
12.4387391370107
12.5449042781692
12.6506705965117
12.7558955372167
12.8604537524811
12.9645591030496
13.069013778554
13.1749040318483
13.2833538231654
13.3954140698902
13.5113823526698
13.6299852801226
13.7495510679823
13.8691943181834
0.0597977227443788
0.179425401644373
0.298975102216252
0.417561957920465
0.533519195920928
0.645583772176751
0.754057204659905
0.859986035644041
0.964489470168367
1.0686488016827
1.17326087213223
1.27853656248373
1.38435072820363
1.49056145838517
1.59703037278086
1.70373173898542
1.81090560007993
1.91895614992544
2.0282826146373
2.13924881310118
2.25207573155111
2.36672915096818
2.48300136201534
2.60061960359027
2.71925252784857
2.83863779797759
2.95817472366988
3.07764802161538
3.19724346710414
3.3168389125929
3.43643435808166
3.55602980357041
3.67562524905916
3.79522069454792
3.91481614003668
4.03441158552544
4.1540070310142
4.27360247650296
4.39319792199172
4.51279336748047
4.63238881296923
4.75198425845799
4.87157970394675
4.99117514943551
5.11077059492426
5.23036604041302
5.34996148590178
5.46955693139054
5.58915237687929
5.70874782236805
5.82834326785681
5.94793871334557
6.06753415883432
6.18712960432308
6.30672504981184
6.4263204953006
6.54591594078935
6.66551138627811
6.78510683176687
6.90470227725563
7.02429772274438
7.14389316823314
7.2634886137219
7.38308405921066
7.50267950469941
7.62227495018817
7.74187039567693
7.86146584116569
7.98106128665445
8.10065673214321
8.22025217763196
8.33984762312072
8.45944306860947
8.57903851409823
8.69863395958699
8.81822940507575
8.93782485056451
9.05742029605327
9.17701574154203
9.29661118703078
9.41620663251954
9.5358020780083
9.65539752349705
9.77499296898581
9.89458841447457
10.0141838599633
10.1337793054521
10.2533747509408
10.3729701964296
10.4925656419183
10.6121610874071
10.7317565328958
10.8513519783846
10.970846869103
11.0903832844695
11.2097455021
11.3283754810892
11.4459894103779
11.562256105313
11.6769034441387
11.7897236206892
11.900683294476
12.0100046911164
12.1180512506421
12.2252225913989
12.3319229290868
12.4383911146481
12.5446006740133
12.6504131645918
12.7556866635769
12.8602963780295
12.9644552644616
13.0689619814539
13.1748979533056
13.2833822133238
13.3954611790267
13.5114311827998
13.6300239508871
13.7495748807142
13.8692022772556
0.059789472108243
0.179400717403804
0.298935023194394
0.41751137614301
0.533470456706724
0.64555450278443
0.754063715983897
0.860039973060642
0.964597370485079
1.0688121967625
1.17347764212555
1.27880365953883
1.38466568124589
1.49092245146079
1.59743623042141
1.70418138117651
1.81139679486925
1.91948476979098
2.02884265932896
2.13983257392556
2.25267447532355
2.36733432013092
2.48360537112323
2.60121614383024
2.71983684222605
2.83920635851523
2.95872694370517
3.07818431296421
3.1977632571807
3.31734220139718
3.43692114561367
3.55650008983015
3.67607903404663
3.79565797826312
3.91523692247961
4.0348158666961
4.15439481091259
4.27397375512907
4.39355269934556
4.51313164356204
4.63271058777853
4.75228953199502
4.8718684762115
4.99144742042799
5.11102636464447
5.23060530886096
5.35018425307744
5.46976319729393
5.58934214151042
5.7089210857269
5.82850002994339
5.94807897415988
6.06765791837636
6.18723686259284
6.30681580680933
6.42639475102582
6.5459736952423
6.66555263945879
6.78513158367528
6.90471052789176
7.02428947210825
7.14386841632473
7.26344736054122
7.3830263047577
7.50260524897419
7.62218419319068
7.74176313740717
7.86134208162365
7.98092102584014
8.10049997005662
8.22007891427311
8.33965785848959
8.45923680270608
8.57881574692257
8.69839469113905
8.81797363535554
8.93755257957203
9.05713152378851
9.176710468005
9.29628941222148
9.41586835643797
9.53544730065445
9.65502624487094
9.77460518908742
9.89418413330391
10.0137630775204
10.1333420217369
10.2529209659534
10.3724999101699
10.4920788543864
10.6116577986028
10.7312367428193
10.8508156870358
10.9702945478482
11.0898146242863
11.2091611961077
11.3277789630447
11.4453854436802
11.5616510044133
11.6763047971102
11.7891399882198
11.9001234087916
12.0094762540917
12.1175602574728
12.2247731626974
12.331517289797
12.438030343239
12.5442859479869
12.6501463022348
12.7554701383427
12.8601332385596
12.9643476220261
13.0689082869125
13.1748916520924
13.2834116434842
13.3955100139031
13.511481801721
13.6300640382744
13.7495995657754
13.8692105278918
0.0597809192274053
0.179375128907831
0.298893475961212
0.417458941406479
0.533419932038451
0.645524161181978
0.754070465832111
0.86009588632193
0.964709223437073
1.0689815774087
1.17370235297547
1.27908054108978
1.38499217189885
1.49129666873603
1.59785695578778
1.70464749505567
1.81190598354774
1.92003275454352
2.02942322009633
2.1404377196184
2.25329515283078
2.36796165840406
2.48423150683975
2.60183453706805
2.72044256173029
2.83979574707006
2.95929939316121
3.07874025021866
3.19830208867347
3.31786392712828
3.43742576558309
3.5569876040379
3.67654944249271
3.79611128094752
3.91567311940234
4.03523495785715
4.15479679631196
4.27435863476677
4.39392047322158
4.51348231167639
4.6330441501312
4.75260598858601
4.87216782704082
4.99172966549563
5.11129150395044
5.23085334240525
5.35041518086006
5.46997701931487
5.58953885776968
5.70910069622449
5.82866253467931
5.94822437313412
6.06778621158893
6.18734805004374
6.30690988849855
6.42647172695336
6.54603356540817
6.66559540386298
6.78515724231779
6.9047190807726
7.02428091922741
7.14384275768222
7.26340459613703
7.38296643459184
7.50252827304665
7.62209011150146
7.74165194995627
7.86121378841108
7.9807756268659
8.10033746532071
8.21989930377552
8.33946114223033
8.45902298068514
8.57858481913995
8.69814665759476
8.81770849604957
8.93727033450438
9.05683217295919
9.176394011414
9.29595584986881
9.41551768832363
9.53507952677843
9.65464136523324
9.77420320368805
9.89376504214287
10.0133268805977
10.1328887190525
10.2524505575073
10.3720123959621
10.4915742344169
10.6111360728718
10.7306979113266
10.8502597497814
10.9697219934649
11.0892251324354
11.2085554852958
11.3271605928153
11.4447593519275
11.561023736904
11.675684219891
11.7885349755838
11.8995430128566
12.008928458878
12.1170512778003
12.2243072701286
12.3310967907803
12.4376563557506
12.543959692666
12.6498696639797
12.7552456812185
12.8599641228871
12.9642360364022
13.0688526254231
13.174885120052
13.283442151744
13.3955606377382
13.5115342749619
13.6301055941796
13.7496251551221
13.8692190807726
0.0597720530297767
0.179348603031205
0.298850406731822
0.417404585831612
0.533367556510158
0.645492708092173
0.754077462942067
0.860153847805867
0.964825173815887
1.06915716288478
1.17393529557414
1.27936756556754
1.38533062281588
1.49168459464958
1.5982930935262
1.70513068402743
1.81243382528321
1.920600813575
2.03002504850326
2.14106503357006
2.25393856756954
2.3686119779064
2.48488057972633
2.60247558384165
2.72107047049226
2.84040672663181
2.95989281309969
3.07931655306451
3.19886065912406
3.31840476518362
3.43794887124317
3.55749297730272
3.67703708336227
3.79658118942183
3.91612529548139
4.03566940154094
4.1552135076005
4.27475761366005
4.3943017197196
4.51384582577915
4.63338993183871
4.75293403789827
4.87247814395782
4.99202225001737
5.11156635607692
5.23111046213648
5.35065456819603
5.47019867425559
5.58974278031514
5.70928688637469
5.82883099243424
5.9483750984938
6.06791920455335
6.18746331061291
6.30700741667246
6.42655152273201
6.54609562879156
6.66563973485112
6.78518384091068
6.90472794697023
7.02427205302978
7.14381615908934
7.26336026514889
7.38290437120844
7.502448477268
7.62199258332755
7.7415366893871
7.86108079544666
7.98062490150621
8.10016900756577
8.21971311362532
8.33925721968487
8.45880132574442
8.57834543180398
8.69788953786353
8.81743364392308
8.93697774998264
9.0565218560422
9.17606596210175
9.2956100681613
9.41515417422085
9.53469828028041
9.65424238633996
9.77378649239952
9.89333059845907
10.0128747045186
10.1324188105782
10.2519629166377
10.3715070226973
10.4910511287568
10.6105952348164
10.7301393408759
10.8496834469355
10.9691284647556
11.0886140457933
11.2079275855446
11.326519569893
11.4441103246153
11.5603734907577
11.675040909114
11.7879077995635
11.8989413553201
12.0083605963289
12.1165236527273
12.2238243105742
12.3306608876835
12.4372686680415
12.543621485702
12.6495828917107
12.7550130016399
12.8597888120915
12.9641203631445
13.0687949249343
13.1748783487284
13.2834737775965
13.3956131160659
13.5115886704517
13.6301486723987
13.7496516818806
13.8692279469702
0.059762862037667
0.179321105434908
0.298805759751157
0.417348239052273
0.533313262319894
0.645460102799042
0.754084716371319
0.860213932541666
0.964945371716851
1.06933918048593
1.1741767714697
1.27966510453312
1.38568147213321
1.49208673138631
1.59874520823476
1.7056315736007
1.81298100339062
1.92118968226457
2.03064892364553
2.14171532786878
2.25460555247096
2.36928612050703
2.48555343003756
2.60314011401494
2.72172138136784
2.84104008814066
2.96050797172947
3.07991396755164
3.19943969162697
3.31896541570231
3.43849113977764
3.55801686385298
3.67754258792831
3.79706831200365
3.91659403607898
4.03611976015432
4.15564548422965
4.27517120830499
4.39469693238032
4.51422265645565
4.63374838053099
4.75327410460632
4.87279982868166
4.99232555275699
5.11185127683233
5.23137700090766
5.35090272498299
5.47042844905833
5.58995417313366
5.709479897209
5.82900562128433
5.94853134535966
6.068057069435
6.18758279351034
6.30710851758567
6.426634241661
6.54615996573633
6.66568568981167
6.785211413887
6.90473713796234
7.02426286203767
7.143788586113
7.26331431018834
7.38284003426367
7.50236575833901
7.62189148241434
7.74141720648968
7.86094293056501
7.98046865464035
8.09999437871568
8.21952010279101
8.33904582686635
8.45857155094168
8.57809727501701
8.69762299909235
8.81714872316769
8.93667444724302
9.05620017131835
9.17572589539369
9.29525161946902
9.41477734354435
9.53430306761969
9.65382879169502
9.77335451577036
9.89288023984569
10.012405963921
10.1319316879964
10.2514574120717
10.3709831361471
10.4905088602224
10.6100345842977
10.729560308373
10.8490860324484
10.9685131933706
11.0879805732813
11.2072766840099
11.3258550644448
11.4434375215478
11.5596994242003
11.6743740319828
11.7872576482489
11.8983176573078
12.0077719313193
12.1159766992193
12.2233236588229
12.3302090162121
12.4368667782355
12.5432708892745
12.6492856141925
12.7547717984
12.859607079233
12.9640004525164
13.0687351107542
13.1748713293568
13.2835065619806
13.3956675168217
13.5116450586081
13.6301933286983
13.7496791803911
13.8692371379623
0.0597533343529258
0.179292600521988
0.298759477221561
0.417289828124924
0.533256979181976
0.645426303095153
0.754092235509192
0.860276218306808
0.965069972733268
1.0695278658336
1.17442709325642
1.2799735431587
1.386045174037
1.49250359952738
1.5992138851943
1.70615081219845
1.81354822621665
1.92180012293034
2.03129565315953
2.14238944435195
2.25529697097888
2.36998495891508
2.48625092880896
2.60382898785204
2.72239613699006
2.8416966515111
2.96114566540107
3.08053326705983
3.20003993576568
3.31954660447153
3.43905327317738
3.55855994188323
3.67806661058909
3.79757327929494
3.91707994800079
4.03658661670664
4.15609328541249
4.27559995411835
4.3951066228242
4.51461329153005
4.6341199602359
4.75362662894175
4.8731332976476
4.99263996635346
5.11214663505931
5.23165330376516
5.35115997247101
5.47066664117686
5.59017330988271
5.70967997858857
5.82918664729442
5.94869331600027
6.06819998470612
6.18770665341197
6.30721332211782
6.42671999082367
6.54622665952953
6.66573332823537
6.78523999694123
6.90474666564708
7.02425333435293
7.14376000305878
7.26326667176464
7.38277334047049
7.50228000917633
7.62178667788219
7.74129334658804
7.86080001529389
7.98030668399974
8.0998133527056
8.21932002141145
8.3388266901173
8.45833335882315
8.577840027529
8.69734669623485
8.8168533649407
8.93636003364655
9.05586670235241
9.17537337105826
9.29488003976411
9.41438670846996
9.53389337717581
9.65340004588166
9.77290671458752
9.89241338329337
10.0119200519992
10.1314267207051
10.2509333894109
10.3704400581168
10.4899467268226
10.6094533955285
10.7289600642343
10.8484667329402
10.9678753828136
11.087323894841
11.2066019380707
11.3251662162384
11.4427400717509
11.5590006646212
11.673682725193
11.7865836799877
11.8976711114126
12.007161701795
12.1154097092207
12.2228046667591
12.3297405914002
12.436450166071
12.5429074495245
12.6489774465924
12.754521759257
12.8594186890594
12.963876149296
13.0686731054563
13.1748640528502
13.2835405473365
13.3957239104289
13.5117035124283
13.6302396208884
13.7497076862516
13.8692466656471
0.05974345764154
0.179263051391763
0.298711499228076
0.417229277433703
0.533198634235984
0.645391265226953
0.754100030088966
0.860340785727772
0.965199138157945
1.06972346318011
1.17468658497949
1.28029328072601
1.38642219935135
1.49293573872422
1.59969973112598
1.70668907199714
1.81413622805676
1.92243292581636
2.03196607426767
2.14308825569595
2.25601371816756
2.37070939780953
2.4869739789845
2.60454309713096
2.72309561085997
2.84237726669337
2.96180671963753
3.08117525329989
3.20066216858297
3.32014908386606
3.43963599914914
3.55912291443222
3.6786098297153
3.79809674499837
3.91758366028146
4.03707057556454
4.15655749084762
4.2760444061307
4.39553132141378
4.51501823669686
4.63450515197994
4.75399206726302
4.8734789825461
4.99296589782918
5.11245281311226
5.23193972839534
5.35142664367842
5.4709135589615
5.59040047424458
5.70988738952766
5.82937430481074
5.94886122009382
6.06834813537691
6.18783505065998
6.30732196594306
6.42680888122614
6.54629579650923
6.66578271179231
6.78526962707539
6.90475654235847
7.02424345764155
7.14373037292462
7.2632172882077
7.38270420349079
7.50219111877386
7.62167803405695
7.74116494934003
7.86065186462311
7.98013877990619
8.09962569518927
8.21911261047235
8.33859952575543
8.45808644103851
8.57757335632159
8.69706027160467
8.81654718688775
8.93603410217083
9.05552101745391
9.17500793273699
9.29449484802007
9.41398176330315
9.53346867858623
9.65295559386931
9.77244250915239
9.89192942443547
10.0114163397185
10.1309032550016
10.2503901702847
10.3698770855678
10.4893640008509
10.608850916134
10.728337831417
10.8478247467001
10.96721420741
11.0866431603732
11.2059024742386
11.3244521335291
11.4420170723439
11.5582763074433
11.672966093815
11.7858850222954
11.8970008806498
12.0065291177853
12.1148219487369
12.2222666625256
12.3292550068532
12.4360182922279
12.5425306959677
12.648657989979
12.7542625605318
12.8592233976996
12.9637472925769
13.0686088287761
13.1748565097903
13.2835757776573
13.3957823698911
13.5117641075836
13.6302876088961
13.7497372363642
13.8692565423585
0.0597332191176682
0.179232419791451
0.29866176366107
0.417166508592707
0.533138151952454
0.645354943838166
0.754108110200425
0.86040771838434
0.965333035191792
1.0699262257251
1.17495558255439
1.28062473114335
1.3868130361477
1.49338370839698
1.60020337497679
1.70724704979691
1.81474577010562
1.92308891011557
2.0326610548623
2.14381266654586
2.25675672190047
2.37146037501033
2.48772351658557
2.60528336629803
2.72382070847734
2.84308281477374
2.96249199020314
3.08184075735156
3.20130719558689
3.32077363382223
3.44024007205757
3.55970651029291
3.67917294852824
3.79863938676358
3.91810582499892
4.03757226323426
4.15703870146959
4.27650513970493
4.39597157794027
4.5154380161756
4.63490445441094
4.75437089264628
4.87383733088161
4.99330376911695
5.11277020735229
5.23223664558762
5.35170308382296
5.4711695220583
5.59063596029363
5.71010239852897
5.82956883676431
5.94903527499964
6.06850171323498
6.18796815147032
6.30743458970565
6.42690102794099
6.54636746617633
6.66583390441166
6.785300342647
6.90476678088234
7.02423321911767
7.14369965735301
7.26316609558835
7.38263253382368
7.50209897205902
7.62156541029436
7.7410318485297
7.86049828676503
7.97996472500037
8.09943116323571
8.21889760147104
8.33836403970638
8.45783047794172
8.57729691617705
8.69676335441239
8.81622979264773
8.93569623088306
9.0551626691184
9.17462910735374
9.29409554558907
9.41356198382441
9.53302842205975
9.65249486029508
9.77196129853042
9.89142773676576
10.0108941750011
10.1303606132364
10.2498270514718
10.3692934897071
10.4887599279424
10.6082263661778
10.7276928044131
10.8471592426484
10.966528811239
11.0859374886373
11.2051773870267
11.3237118919051
11.4412675873711
11.5575254149526
11.6722232101351
11.7851607707261
11.8963060973734
12.0058733603803
12.1142126568862
12.2217089496533
12.3287516339623
12.4355705976296
12.542140140884
12.6483268308076
12.7539938666882
12.8590209523507
12.9636137155567
13.0685421975112
13.1748486904119
13.283612298549
13.3958429708857
13.5118269225177
13.6303373548441
13.7497678689829
13.8692667808823
0.0597226055270876
0.179200666066976
0.298610206135528
0.417101440344609
0.533075454035103
0.645317291911088
0.754116486302952
0.860477102917785
0.965471837160354
1.07013641594306
1.17523443420171
1.28096832348136
1.38721819037677
1.49384808845877
1.60072546873364
1.70782546792352
1.81537764144267
1.92376892503032
2.03338149462918
2.14456361468652
2.25752694403138
2.3722388626925
2.48850051192263
2.60605075366459
2.72457236851291
2.84381420911508
2.96320236421117
3.0825306407393
3.20197585179347
3.32142106284765
3.44086627390182
3.560311484956
3.67975669601018
3.79920190706435
3.91864711811853
4.0380923291727
4.15753754022688
4.27698275128105
4.39642796233523
4.51587317338941
4.63531838444358
4.75476359549776
4.87420880655193
4.99365401760611
5.11309922866028
5.23254443971446
5.35198965076864
5.47143486182282
5.59088007287699
5.71032528393116
5.82977049498533
5.94921570603951
6.06866091709369
6.18810612814786
6.30755133920204
6.42699655025621
6.54644176131039
6.66588697236457
6.78533218341874
6.90477739447292
7.0242226055271
7.14366781658127
7.26311302763544
7.38255823868962
7.50200344974379
7.62144866079797
7.74089387185215
7.86033908290632
7.9797842939605
8.09922950501467
8.21867471606885
8.33811992712302
8.4575651381772
8.57701034923138
8.69645556028555
8.81590077133973
8.9353459823939
9.05479119344808
9.17423640450225
9.29368161555643
9.4131268266106
9.53257203766478
9.65201724871895
9.77146245977313
9.89090767082731
10.0103528818815
10.1297980929357
10.2492433039898
10.368688515044
10.4881337260982
10.6075789371524
10.7270241482065
10.8464693592607
10.9658183070246
11.0852059661102
11.2044257377777
11.3229445330904
11.4404906465902
11.5567470150836
11.6714531124552
11.7844099877008
11.8955858621532
12.0051935806718
12.1135810449127
12.2211308061593
12.3282298210914
12.435106502719
12.5417352786877
12.6479835403849
12.7537153298987
12.8588110909486
12.9634752453251
13.0684731254097
13.1748405845939
13.2836501572873
13.3959057918631
13.5118920385472
13.6303889231311
13.749799623763
13.8692773944729
0.0597116031300366
0.179167749111936
0.298556759907719
0.417033988455342
0.53301045931945
0.645278260705699
0.754125169239061
0.86054902914299
0.965615723738029
1.07035430592322
1.17552350089793
1.2813245025283
1.38763818652332
1.4943294800664
1.60126668826745
1.70842507516352
1.81603266005348
1.92447385087165
2.03412832621217
2.14534207225662
2.25832538164961
2.37304586864455
2.48930597085137
2.6068462526476
2.72535156402353
2.84457239653926
2.96393876127235
3.08324579654761
3.20266900280769
3.32209220906776
3.44151541532783
3.56093862158791
3.68036182784798
3.79978503410805
3.91920824036813
4.03863144662821
4.15805465288828
4.27747785914835
4.39690106540843
4.5163242716685
4.63574747792857
4.75517068418864
4.87459389044872
4.99401709670879
5.11344030296887
5.23286350922894
5.35228671548902
5.47170992174909
5.59113312800916
5.71055633426923
5.8299795405293
5.94940274678938
6.06882595304946
6.18824915930953
6.3076723655696
6.42709557182967
6.54651877808975
6.66594198434982
6.78536519060989
6.90478839686997
7.02421160313004
7.14363480939012
7.26305801565019
7.38248122191026
7.50190442817033
7.62132763443041
7.74075084069049
7.86017404695056
7.97959725321063
8.0990204594707
8.21844366573078
8.33786687199085
8.45729007825092
8.576713284511
8.69613649077107
8.81555969703114
8.93498290329122
9.05440610955129
9.17382931581137
9.29325252207144
9.41267572833151
9.53209893459158
9.65152214085166
9.77094534711173
9.8903685533718
10.0097917596319
10.129214965892
10.248638172152
10.3680613784121
10.4874845846722
10.6069077909322
10.7263309971923
10.8457542034524
10.9650817749875
11.0844476458041
11.2036465534489
11.3221490637052
11.4396852442162
11.5559401001616
11.670654803847
11.7836317012947
11.8948392426099
12.0044888986529
12.1129262951669
12.2205314836122
12.3276888927335
12.4346254067087
12.5413155852718
12.6476276743134
12.7534265895947
12.8585935418299
12.9633317026367
13.0684015230617
13.1748321818433
13.2836894028798
13.3959709141469
13.5119595399684
13.6304423805144
13.7498325418124
13.86928839687
0.0597001976834282
0.179133626313722
0.29850135578921
0.416964065605065
0.532943083667806
0.64523779969663
0.754134170248396
0.860623590164721
0.965764881180682
1.07058017772154
1.17582315684262
1.28169372936606
1.38807356828523
1.49482850639848
1.60182773420803
1.70904664773348
1.81671167388872
1.92520460019891
2.03490251642065
2.1461490470071
2.25915306837069
2.37388243757322
2.49014093607478
2.60767089305565
2.72615930371178
2.84535835855282
2.96470213468528
3.08398715057716
3.20338754594401
3.32278794131087
3.44218833667773
3.56158873204459
3.68098912741144
3.8003895227783
3.91978991814516
4.03919031351202
4.15859070887887
4.27799110424573
4.39739149961259
4.51679189497945
4.6361922903463
4.75559268571316
4.87499308108001
4.99439347644687
5.11379387181373
5.23319426718059
5.35259466254744
5.4719950579143