/*--------------------------------*- C++ -*----------------------------------*\
  =========                 |
  \\      /  F ield         | OpenFOAM: The Open Source CFD Toolbox
   \\    /   O peration     | Website:  https://openfoam.org
    \\  /    A nd           | Version:  7
     \\/     M anipulation  |
\*---------------------------------------------------------------------------*/
FoamFile
{
    version     2.0;
    format      ascii;
    class       volScalarField;
    location    "20000";
    object      Cy;
}
// * * * * * * * * * * * * * * * * * * * * * * * * * * * * * * * * * * * * * //

dimensions      [0 1 0 0 0 0 0];

internalField   nonuniform List<scalar> 
15600
(
1.00078221064649
0.999816059516281
0.993856736699153
0.97771619871995
0.948177720694615
0.906086345919577
0.85538630766965
0.799563518546192
0.741135141563229
0.682133161073155
0.623954931921467
0.566963762909217
0.51095790370947
0.455690650479294
0.400907175638488
0.346579291696063
0.293217680056033
0.241700757933657
0.193025702268565
0.148328225214514
0.10867999730746
0.0747747285749552
0.0470448417857715
0.0258765582792501
0.0116033396088123
0.00448213331016975
0.00273650168672147
0.00273773726269535
0.00273773726269538
0.00273773726269529
0.00273773726269536
0.00273773726269544
0.00273773726269533
0.00273773726269534
0.00273773726269529
0.00273773726269547
0.00273773726269538
0.00273773726269529
0.00273773726269539
0.00273773726269547
0.00273773726269546
0.00273773726269547
0.00273773726269549
0.00273773726269546
0.00273773726269544
0.00273773726269538
0.00273773726269536
0.00273773726269537
0.00273773726269544
0.0027377372626953
0.00273773726269526
0.00273773726269538
0.0027377372626953
0.00273773726269526
0.00273773726269543
0.00273773726269549
0.00273773726269535
0.00273773726269533
0.00273773726269534
0.00273773726269538
0.00273773726269534
0.00273773726269538
0.00273773726269533
0.00273773726269534
0.0027377372626955
0.00273773726269544
0.00273773726269535
0.00273773726269537
0.00273773726269548
0.00273773726269525
0.00273773726269533
0.00273773726269544
0.00273773726269541
0.00273773726269539
0.00273773726269527
0.00273773726269542
0.00273773726269542
0.00273773726269549
0.00273773726269542
0.00273773726269542
0.00273773726269544
0.00273773726269544
0.00273773726269529
0.00273773726269539
0.00273773726269549
0.00273773726269533
0.00273773726269554
0.00273773726269525
0.0027377372626953
0.00273773726269558
0.00273773726269551
0.0027377372626952
0.0027377372626952
0.00273672010604585
0.00449517718934741
0.0116418328435894
0.0259402703345174
0.0471326838474327
0.0748853591226879
0.108812057737134
0.148479858830807
0.193193645485304
0.241880896487809
0.293406063360879
0.346772561675066
0.401102695571288
0.455887561057513
0.511156999788095
0.567165956191366
0.624161072955344
0.682343498501604
0.741346584880546
0.799769491737299
0.855578881737166
0.906254901533942
0.948307642928078
0.977797032819795
0.993893888285478
0.999825559227449
1.00078221064649
1.00237531660174
1.00141302089366
0.995477477524679
0.979401349361985
0.949980778637596
0.908057446451157
0.857559796854696
0.801959801579805
0.743764577883584
0.684998012460868
0.627051909135753
0.570288141029405
0.514505759303101
0.459459041844805
0.404894176194029
0.350783083760726
0.297634405127658
0.246323053494173
0.197842228156919
0.153323110656592
0.113833096397497
0.0800631269453829
0.0524438982300397
0.0313600892995271
0.0171438302151103
0.0100510423720388
0.00831237774566679
0.00831360810609233
0.00831360810609226
0.0083136081060922
0.00831360810609231
0.0083136081060924
0.0083136081060924
0.00831360810609223
0.00831360810609234
0.00831360810609245
0.00831360810609234
0.00831360810609228
0.00831360810609236
0.00831360810609239
0.0083136081060924
0.00831360810609242
0.00831360810609245
0.00831360810609245
0.00831360810609239
0.00831360810609239
0.00831360810609236
0.00831360810609233
0.00831360810609239
0.00831360810609228
0.00831360810609228
0.00831360810609234
0.00831360810609225
0.00831360810609225
0.00831360810609233
0.00831360810609239
0.00831360810609238
0.00831360810609224
0.00831360810609237
0.00831360810609229
0.00831360810609238
0.00831360810609239
0.00831360810609224
0.00831360810609238
0.00831360810609245
0.00831360810609239
0.00831360810609227
0.00831360810609241
0.00831360810609235
0.00831360810609232
0.00831360810609228
0.0083136081060924
0.00831360810609239
0.00831360810609232
0.00831360810609234
0.00831360810609226
0.00831360810609249
0.00831360810609246
0.00831360810609246
0.00831360810609232
0.0083136081060924
0.00831360810609239
0.00831360810609228
0.00831360810609233
0.00831360810609251
0.00831360810609225
0.00831360810609229
0.00831360810609275
0.00831360810609233
0.00831360810609222
0.00831360810609225
0.00831360810609232
0.00831360810609272
0.00831259524292834
0.0100640342462647
0.0171821698355439
0.0314235471030173
0.0525313897500826
0.0801733160188414
0.113964629842667
0.15347413919944
0.198009501222243
0.246502473237251
0.297822036724253
0.350975582520489
0.405088915923283
0.459655166681715
0.514704060937753
0.570489527534925
0.627257227679908
0.685207510697234
0.743975177535318
0.802164952814148
0.857751602292048
0.908225329180305
0.950110182196867
0.979481860862742
0.995514480865336
1.00142248269709
1.00237531660174
1.00402678264983
1.00306848360056
0.997157590812517
0.981148232019116
0.951849887678172
0.910100753382458
0.859812905968645
0.804443865898841
0.74649033668698
0.687967810618359
0.630262336911394
0.573734300299064
0.518183582830109
0.463365480114634
0.409027232016033
0.355140872859726
0.302212927660609
0.25111467722607
0.202835197483088
0.158500973379323
0.119174968575687
0.085545254772642
0.0580407378160188
0.0370444979755912
0.0228872850532473
0.0158239567091399
0.0140925143309742
0.0140937392744166
0.0140937392744166
0.0140937392744166
0.0140937392744167
0.0140937392744168
0.0140937392744167
0.0140937392744167
0.0140937392744167
0.0140937392744167
0.0140937392744167
0.0140937392744166
0.0140937392744167
0.0140937392744167
0.0140937392744166
0.0140937392744166
0.0140937392744166
0.0140937392744167
0.0140937392744167
0.0140937392744167
0.0140937392744167
0.0140937392744167
0.0140937392744166
0.0140937392744167
0.0140937392744167
0.0140937392744167
0.0140937392744167
0.0140937392744167
0.0140937392744166
0.0140937392744167
0.0140937392744168
0.0140937392744168
0.0140937392744168
0.0140937392744168
0.0140937392744169
0.0140937392744169
0.0140937392744168
0.0140937392744167
0.0140937392744166
0.0140937392744167
0.0140937392744167
0.0140937392744167
0.0140937392744167
0.0140937392744167
0.0140937392744167
0.0140937392744166
0.0140937392744167
0.0140937392744167
0.0140937392744167
0.0140937392744167
0.0140937392744167
0.0140937392744166
0.0140937392744166
0.0140937392744167
0.0140937392744167
0.0140937392744167
0.0140937392744167
0.0140937392744167
0.0140937392744167
0.014093739274417
0.0140937392744164
0.0140937392744168
0.0140937392744163
0.0140937392744167
0.0140937392744164
0.0140937392744168
0.0140937392744164
0.0140927308705603
0.0158368946750748
0.0229254654320275
0.0371076922134361
0.0581278659532401
0.0856549861994974
0.119305955731456
0.158651374683165
0.203001775847276
0.251293351825651
0.30239978001154
0.355332572148023
0.409221162960164
0.463560790425914
0.518381060917446
0.573934850472617
0.630466802834562
0.688176438919035
0.746700061766445
0.804648165065385
0.860003914619943
0.910267938578843
0.951978753564293
0.981228409103079
0.997194440476705
1.00307790610756
1.00402678264983
1.0057387466886
1.00478459070882
0.998899251548316
0.982959108116748
0.953787467447
0.912218911787437
0.862148551623843
0.807018927073008
0.749315946440249
0.691046399970388
0.633590371217008
0.577306701877279
0.521996135366465
0.467415022328427
0.413311693518878
0.359658300342113
0.306959174761382
0.256081832112324
0.208011073886133
0.163868516376317
0.124712529151414
0.0912282089293989
0.0638426059113901
0.0429371430334509
0.0288411392850899
0.0218083496192182
0.02008439409322
0.0200856134100839
0.0200856134100838
0.0200856134100839
0.0200856134100839
0.020085613410084
0.0200856134100839
0.0200856134100838
0.0200856134100839
0.0200856134100839
0.0200856134100838
0.0200856134100839
0.0200856134100838
0.0200856134100838
0.0200856134100838
0.0200856134100838
0.0200856134100839
0.0200856134100838
0.0200856134100838
0.0200856134100838
0.0200856134100838
0.0200856134100838
0.0200856134100839
0.0200856134100838
0.0200856134100837
0.0200856134100838
0.0200856134100838
0.0200856134100838
0.0200856134100838
0.0200856134100839
0.020085613410084
0.020085613410084
0.020085613410084
0.020085613410084
0.0200856134100839
0.020085613410084
0.020085613410084
0.0200856134100839
0.0200856134100839
0.0200856134100838
0.0200856134100838
0.0200856134100838
0.0200856134100839
0.0200856134100838
0.0200856134100838
0.0200856134100839
0.0200856134100838
0.0200856134100838
0.0200856134100838
0.0200856134100838
0.0200856134100839
0.0200856134100838
0.0200856134100838
0.0200856134100838
0.0200856134100838
0.0200856134100838
0.0200856134100838
0.0200856134100838
0.0200856134100839
0.0200856134100835
0.020085613410084
0.0200856134100836
0.020085613410084
0.0200856134100836
0.020085613410084
0.0200856134100836
0.020085613410084
0.0200846096380726
0.0218212317039319
0.0288791545887685
0.0430000640505938
0.0639293573541867
0.0913374659449039
0.124842950005737
0.16401826746358
0.208176932100147
0.256259734271453
0.307145219320161
0.359849170871671
0.413504786049573
0.467609488275336
0.522192759736831
0.577506385080875
0.633793953284032
0.691254126465321
0.749524764907703
0.807222342958334
0.862338734301756
0.912385373900578
0.95391577596507
0.983038938533304
0.99893594190627
1.00479397247982
1.0057387466886
1.00751342493307
1.00656356379704
1.00070471439368
0.984836321922988
0.955796026211822
0.914414663632611
0.864569757269501
0.809688318459363
0.752245064860477
0.694237765768212
0.637040320262264
0.581009970345457
0.525948352398037
0.471612910778368
0.417753107117005
0.364341214215053
0.311879290663142
0.261230948369085
0.213376557787082
0.16943268819146
0.130452946761963
0.0971193462672029
0.0698570133022665
0.0490456527699859
0.0350131004433306
0.0280119681678285
0.0262957737935817
0.026296987265752
0.026296987265752
0.026296987265752
0.026296987265752
0.0262969872657519
0.0262969872657519
0.0262969872657519
0.026296987265752
0.0262969872657521
0.026296987265752
0.026296987265752
0.0262969872657519
0.0262969872657519
0.026296987265752
0.026296987265752
0.026296987265752
0.026296987265752
0.0262969872657521
0.026296987265752
0.0262969872657519
0.026296987265752
0.026296987265752
0.026296987265752
0.0262969872657519
0.0262969872657519
0.0262969872657518
0.0262969872657519
0.026296987265752
0.026296987265752
0.026296987265752
0.026296987265752
0.026296987265752
0.0262969872657518
0.0262969872657518
0.0262969872657519
0.026296987265752
0.026296987265752
0.026296987265752
0.0262969872657521
0.0262969872657519
0.0262969872657519
0.0262969872657519
0.0262969872657519
0.026296987265752
0.026296987265752
0.0262969872657519
0.0262969872657518
0.0262969872657519
0.0262969872657521
0.026296987265752
0.0262969872657519
0.0262969872657519
0.0262969872657519
0.0262969872657518
0.0262969872657519
0.026296987265752
0.026296987265752
0.0262969872657521
0.0262969872657524
0.0262969872657516
0.026296987265752
0.0262969872657521
0.026296987265752
0.0262969872657517
0.0262969872657521
0.026296987265752
0.0262959883051367
0.0280247923262593
0.0350509446247672
0.0491082905576762
0.069943374251416
0.0972281114924703
0.130582780569714
0.169581765242849
0.213541669469533
0.261408049790831
0.312064497837691
0.364531225625735
0.417945330520418
0.471806501428832
0.526144091776834
0.581208754818516
0.637242986093538
0.694444557419915
0.752452943503178
0.809890818706047
0.864759083717563
0.914580376176351
0.955923756945636
0.984915792972732
1.00074123960939
1.00657290333974
1.00751342493307
1.00935311478449
1.00840770582649
1.00257631660498
0.986782303583421
0.957878164124417
0.91669085132621
0.867079657104905
0.812455495516555
0.755281483649233
0.697546039248054
0.640616650074672
0.584848899693705
0.530045350209676
0.475964579795326
0.422357222404838
0.369195676714324
0.316979644679622
0.266568691769835
0.218938595062942
0.175200691914152
0.136403652652674
0.103226293140237
0.0760917459162073
0.0553779349280578
0.0414111584091575
0.0344428432171789
0.0327346943452514
0.0327359017457179
0.0327359017457179
0.0327359017457179
0.0327359017457178
0.032735901745718
0.032735901745718
0.0327359017457178
0.032735901745718
0.0327359017457179
0.0327359017457179
0.0327359017457178
0.0327359017457179
0.0327359017457179
0.0327359017457178
0.0327359017457177
0.0327359017457178
0.032735901745718
0.032735901745718
0.0327359017457179
0.0327359017457179
0.0327359017457178
0.0327359017457178
0.032735901745718
0.032735901745718
0.0327359017457179
0.0327359017457179
0.0327359017457178
0.032735901745718
0.0327359017457179
0.0327359017457178
0.0327359017457178
0.0327359017457178
0.0327359017457177
0.0327359017457177
0.0327359017457178
0.0327359017457178
0.0327359017457178
0.0327359017457179
0.032735901745718
0.0327359017457178
0.0327359017457178
0.0327359017457179
0.0327359017457179
0.0327359017457178
0.0327359017457178
0.0327359017457177
0.0327359017457178
0.0327359017457178
0.0327359017457179
0.0327359017457178
0.0327359017457177
0.0327359017457177
0.0327359017457177
0.0327359017457177
0.0327359017457178
0.0327359017457178
0.0327359017457179
0.032735901745718
0.0327359017457179
0.0327359017457182
0.0327359017457178
0.0327359017457178
0.0327359017457177
0.0327359017457182
0.0327359017457178
0.0327359017457177
0.0327349077833732
0.0344556073295008
0.0414488251996865
0.0554402791109163
0.0761777020669766
0.10333454855977
0.136532877908747
0.175349070237818
0.219102932866104
0.266744963120523
0.317163983793803
0.369384797533776
0.422548544841941
0.476157263084321
0.530240172176455
0.585046752512168
0.640818366104375
0.697751861808482
0.75548838803707
0.812657046582164
0.867268095958554
0.916855786844121
0.958005295909967
0.986861402101767
1.00261267062861
1.00841700159393
1.00935311478449
1.01126019780433
1.01031940412239
1.00451648105896
0.988799572267067
0.960036576586505
0.919050421397306
0.869681500135977
0.815324040277133
0.75842913340024
0.7009755029785
0.644323990280509
0.588828459526592
0.534292432508136
0.480475662783728
0.427129999599766
0.374227972152016
0.322266839450495
0.272101972274522
0.22470438603848
0.181179994504046
0.14257235029702
0.109556955277975
0.0825548749014012
0.0619421869333658
0.0480435957554323
0.0411092998223539
0.0394094912226913
0.0394106923151541
0.0394106923151541
0.039410692315154
0.0394106923151541
0.0394106923151541
0.0394106923151542
0.0394106923151541
0.0394106923151539
0.039410692315154
0.0394106923151541
0.0394106923151541
0.0394106923151541
0.039410692315154
0.039410692315154
0.039410692315154
0.0394106923151539
0.0394106923151541
0.0394106923151541
0.0394106923151542
0.0394106923151541
0.039410692315154
0.039410692315154
0.039410692315154
0.0394106923151542
0.0394106923151542
0.0394106923151541
0.0394106923151542
0.039410692315154
0.039410692315154
0.039410692315154
0.039410692315154
0.039410692315154
0.0394106923151541
0.0394106923151541
0.039410692315154
0.0394106923151541
0.039410692315154
0.039410692315154
0.0394106923151541
0.0394106923151542
0.0394106923151542
0.0394106923151541
0.0394106923151542
0.0394106923151541
0.039410692315154
0.039410692315154
0.0394106923151541
0.0394106923151542
0.0394106923151541
0.039410692315154
0.0394106923151539
0.0394106923151539
0.0394106923151539
0.0394106923151539
0.0394106923151541
0.0394106923151542
0.0394106923151542
0.039410692315154
0.0394106923151541
0.039410692315154
0.0394106923151541
0.039410692315154
0.0394106923151544
0.0394106923151539
0.039410692315154
0.039410692315154
0.0394097035456014
0.0411220016912507
0.0480810786567549
0.0620042267559375
0.0826404114250589
0.109664682216332
0.142700944708547
0.181327648503515
0.224867921612839
0.272277383145933
0.322450278704342
0.374416169754896
0.427320388065243
0.480667405471504
0.53448630345469
0.589025346560219
0.64452472171328
0.701180320944961
0.758635027841974
0.815524607390163
0.869869018881761
0.919214551427462
0.960163087484716
0.988878284607127
1.00455265761907
1.01032865451092
1.01126019780433
1.01323714279733
1.01230113346437
1.00652771938931
0.990890739427545
0.962274057738931
0.92149642830973
0.872378654380364
0.818297665983663
0.761692088686725
0.704530596403695
0.648167140097674
0.592953801496112
0.538695097287792
0.485151999514004
0.432077617257814
0.379444615051752
0.32774771948866
0.277837952974847
0.230681394807357
0.187378336457393
0.14896702536911
0.116119528019473
0.0892547670750829
0.0687469065063097
0.0549189984687615
0.0480199680083752
0.0463288052522046
0.0463299997906602
0.0463299997906601
0.0463299997906602
0.0463299997906602
0.0463299997906603
0.0463299997906602
0.0463299997906601
0.0463299997906601
0.0463299997906602
0.0463299997906602
0.0463299997906603
0.0463299997906602
0.0463299997906602
0.0463299997906602
0.0463299997906602
0.0463299997906602
0.0463299997906602
0.0463299997906603
0.0463299997906603
0.0463299997906602
0.0463299997906601
0.0463299997906602
0.0463299997906602
0.0463299997906602
0.0463299997906602
0.0463299997906603
0.0463299997906603
0.0463299997906602
0.0463299997906602
0.0463299997906601
0.0463299997906602
0.0463299997906602
0.0463299997906603
0.0463299997906602
0.0463299997906603
0.0463299997906604
0.0463299997906601
0.0463299997906602
0.0463299997906602
0.0463299997906604
0.0463299997906603
0.0463299997906602
0.0463299997906602
0.0463299997906603
0.0463299997906602
0.0463299997906602
0.0463299997906603
0.0463299997906604
0.0463299997906603
0.0463299997906602
0.0463299997906602
0.0463299997906602
0.0463299997906601
0.0463299997906602
0.0463299997906603
0.0463299997906603
0.0463299997906602
0.0463299997906603
0.04632999979066
0.0463299997906603
0.0463299997906604
0.0463299997906605
0.0463299997906595
0.0463299997906604
0.0463299997906604
0.0463299997906604
0.0463290164164073
0.048032605356216
0.0549562907445303
0.0688086308191481
0.0893398685996956
0.116226707117085
0.149094965826574
0.187525239598664
0.230844098764666
0.278012471844917
0.327930225917261
0.379631855617505
0.432267037537203
0.485342767143023
0.53888798237477
0.593149687364468
0.648366850863058
0.704734372972729
0.761896936183544
0.818497213099093
0.872565219313708
0.92165972334781
0.962399925007054
0.990969051442559
1.00656371198472
1.01231033681159
1.01323714279733
1.01528650900746
1.01435545929017
1.00861263523808
0.993058512183809
0.964593504078686
0.924032038415639
0.87517461122657
0.82138022189454
0.765074573335136
0.708215921589732
0.652151074547826
0.5972302659704
0.543259043947709
0.489999643682289
0.437206480271848
0.384852358581919
0.333429380040778
0.283784059367125
0.236877358894787
0.193803741827489
0.155595956081519
0.122922506922587
0.0962000957547022
0.0758009026625866
0.0620462670643426
0.0551837939420533
0.053501593797794
0.0535027815260994
0.0535027815260995
0.0535027815260994
0.0535027815260995
0.0535027815260995
0.0535027815260995
0.0535027815260994
0.0535027815260996
0.0535027815260995
0.0535027815260995
0.0535027815260995
0.0535027815260995
0.0535027815260995
0.0535027815260996
0.0535027815260994
0.0535027815260995
0.0535027815260995
0.0535027815260995
0.0535027815260995
0.0535027815260994
0.0535027815260994
0.0535027815260995
0.0535027815260996
0.0535027815260994
0.0535027815260995
0.0535027815260996
0.0535027815260996
0.0535027815260995
0.0535027815260995
0.0535027815260995
0.0535027815260994
0.0535027815260995
0.0535027815260994
0.0535027815260995
0.0535027815260996
0.0535027815260995
0.0535027815260995
0.0535027815260995
0.0535027815260995
0.0535027815260995
0.0535027815260996
0.0535027815260995
0.0535027815260995
0.0535027815260996
0.0535027815260996
0.0535027815260994
0.0535027815260994
0.0535027815260995
0.0535027815260995
0.0535027815260995
0.0535027815260994
0.0535027815260995
0.0535027815260995
0.0535027815260994
0.0535027815260995
0.0535027815260994
0.0535027815260995
0.0535027815260994
0.0535027815260993
0.0535027815260998
0.0535027815260993
0.0535027815260994
0.0535027815260999
0.0535027815260993
0.0535027815260993
0.0535027815260998
0.0535018037580025
0.0551963644079597
0.0620833617314406
0.0758622999078281
0.0962847463452243
0.123029118110712
0.155723218628846
0.19394986660445
0.237039200770371
0.283957653558827
0.333610919471574
0.385038607051194
0.437394896897237
0.490189400532838
0.543450907059463
0.597425113996496
0.652349727254284
0.708418618609408
0.7652783355328
0.821578711646758
0.87536018740859
0.924194467876448
0.964718704141149
0.993136409208756
1.00864843712938
1.01436461387279
1.01528650900746
1.01741094943091
1.01648504101666
1.01077392762616
0.995305696824552
0.966997918208395
0.926660534053916
0.87807298995271
0.824575698265907
0.768580965892025
0.712036249181248
0.656280950896327
0.6016633889466
0.547990180669494
0.495024870746953
0.44252322816285
0.390458203297859
0.339319176272296
0.289947988964968
0.243300299274087
0.200464528612197
0.162467723901809
0.129974698761838
0.103399851985857
0.0831133071167644
0.0694346281079743
0.0626100515130873
0.0609371423567815
0.0609383230081983
0.0609383230081982
0.0609383230081981
0.0609383230081982
0.0609383230081982
0.0609383230081982
0.0609383230081982
0.0609383230081982
0.0609383230081983
0.0609383230081982
0.0609383230081981
0.0609383230081983
0.0609383230081983
0.0609383230081982
0.0609383230081982
0.0609383230081982
0.0609383230081982
0.0609383230081982
0.0609383230081983
0.0609383230081982
0.0609383230081982
0.0609383230081983
0.0609383230081983
0.0609383230081982
0.0609383230081982
0.0609383230081982
0.0609383230081982
0.0609383230081983
0.0609383230081982
0.0609383230081983
0.0609383230081982
0.0609383230081982
0.0609383230081981
0.0609383230081982
0.0609383230081982
0.0609383230081982
0.0609383230081982
0.0609383230081982
0.0609383230081982
0.0609383230081983
0.0609383230081982
0.0609383230081982
0.0609383230081983
0.0609383230081983
0.0609383230081982
0.0609383230081981
0.0609383230081981
0.0609383230081982
0.0609383230081982
0.0609383230081981
0.0609383230081982
0.0609383230081982
0.0609383230081982
0.0609383230081982
0.0609383230081981
0.0609383230081981
0.0609383230081982
0.0609383230081983
0.0609383230081985
0.0609383230081978
0.0609383230081983
0.0609383230081983
0.0609383230081983
0.0609383230081982
0.0609383230081983
0.0609383230081978
0.0609373510658346
0.0626225526499027
0.0694715179274788
0.0831743653131453
0.103484035123539
0.130080721236567
0.162594283705356
0.200609846511126
0.243461247487232
0.290120624604316
0.339499713280926
0.390643423326734
0.44271060436706
0.495213579790687
0.548180984367151
0.601857161110164
0.656478506782079
0.71223782710222
0.76878360303075
0.824773091920724
0.878257541164337
0.926822066232428
0.967122426626028
0.995383163657211
1.01080953182709
1.01649414504826
1.01741094943091
1.01961321425055
1.01869263548261
1.01301439444732
0.997635202441168
0.969490412723165
0.92938531779867
0.881077542410737
0.827888231515939
0.77221580529103
0.715996524576511
0.660562115327807
0.606258909217098
0.552894632065375
0.500234186052207
0.448034743674924
0.396269406204259
0.345424732788942
0.296337721264016
0.249958530750246
0.207369319521996
0.169591224661648
0.137285232929145
0.110863356181548
0.0906935861036016
0.0770936461601427
0.0703083543394079
0.0686450765802068
0.0686462498769195
0.0686462498769195
0.0686462498769195
0.0686462498769196
0.0686462498769195
0.0686462498769194
0.0686462498769196
0.0686462498769196
0.0686462498769195
0.0686462498769195
0.0686462498769196
0.0686462498769195
0.0686462498769195
0.0686462498769195
0.0686462498769196
0.0686462498769196
0.0686462498769195
0.0686462498769196
0.0686462498769195
0.0686462498769195
0.0686462498769196
0.0686462498769195
0.0686462498769196
0.0686462498769196
0.0686462498769195
0.0686462498769195
0.0686462498769195
0.0686462498769195
0.0686462498769195
0.0686462498769196
0.0686462498769196
0.0686462498769195
0.0686462498769195
0.0686462498769195
0.0686462498769195
0.0686462498769195
0.0686462498769196
0.0686462498769195
0.0686462498769196
0.0686462498769196
0.0686462498769195
0.0686462498769195
0.0686462498769195
0.0686462498769196
0.0686462498769196
0.0686462498769195
0.0686462498769196
0.0686462498769195
0.0686462498769196
0.0686462498769195
0.0686462498769195
0.0686462498769196
0.0686462498769195
0.0686462498769195
0.0686462498769195
0.0686462498769196
0.0686462498769195
0.0686462498769195
0.0686462498769192
0.0686462498769199
0.0686462498769194
0.0686462498769194
0.06864624987692
0.0686462498769194
0.0686462498769194
0.0686462498769194
0.0686452839889839
0.0703207836105499
0.0771303236279509
0.0907542928309754
0.110947054742498
0.137390645124504
0.169717055978081
0.207513800984622
0.250118552563288
0.296509363236132
0.345604230653179
0.396453560117508
0.44822104134388
0.50042180890425
0.553084337538716
0.606451566104826
0.660758534211164
0.716196942399897
0.772417276155056
0.828084488919751
0.881261031106795
0.929545919828398
0.969614204161796
0.997712223322392
1.01304979371567
1.01870168711132
1.01961321425055
1.02189615439605
1.02098110051742
1.01533693609018
1.00005004469371
0.972074214239815
0.932209916863335
0.884192157882259
0.831322109578303
0.775983796727579
0.720101874328346
0.665000109866446
0.611022775798124
0.557978747106463
0.505634333249365
0.453748161685078
0.402293490149506
0.351753953507106
0.302961528071731
0.256860672723806
0.214527053142498
0.176975680072855
0.144863573252207
0.118600270187794
0.0985515526324039
0.0850332361576476
0.0782886682123034
0.0766353747335598
0.0766365403861717
0.0766365403861717
0.0766365403861717
0.0766365403861717
0.0766365403861716
0.0766365403861717
0.0766365403861716
0.0766365403861716
0.0766365403861718
0.0766365403861716
0.0766365403861716
0.0766365403861716
0.0766365403861716
0.0766365403861717
0.0766365403861717
0.0766365403861716
0.0766365403861715
0.0766365403861716
0.0766365403861714
0.0766365403861717
0.0766365403861717
0.0766365403861717
0.0766365403861716
0.0766365403861716
0.0766365403861716
0.0766365403861717
0.0766365403861717
0.0766365403861716
0.0766365403861716
0.0766365403861716
0.0766365403861716
0.0766365403861716
0.0766365403861717
0.0766365403861717
0.0766365403861717
0.0766365403861715
0.0766365403861716
0.0766365403861716
0.0766365403861717
0.0766365403861716
0.0766365403861717
0.0766365403861715
0.0766365403861717
0.0766365403861716
0.0766365403861716
0.0766365403861718
0.0766365403861716
0.0766365403861716
0.0766365403861715
0.0766365403861716
0.0766365403861716
0.0766365403861717
0.0766365403861717
0.0766365403861716
0.0766365403861716
0.0766365403861716
0.0766365403861716
0.0766365403861717
0.0766365403861718
0.0766365403861715
0.0766365403861715
0.0766365403861716
0.0766365403861717
0.0766365403861716
0.0766365403861717
0.0766365403861722
0.0766355807908941
0.0783010229885051
0.085069693494765
0.0986118950156523
0.118683466420866
0.144968352812199
0.177100756215755
0.214670667527802
0.2570197341998
0.303132139975213
0.351932374159617
0.402476538891707
0.453933341308384
0.505820830118713
0.558167314123333
0.611214276552721
0.665195350093594
0.72030108955356
0.776184058590458
0.831517189107105
0.884374545141811
0.932369554674241
0.972197262437327
1.00012660328711
1.01537212291839
1.02099009782354
1.02189615439605
1.02426272523456
1.02335339864078
1.01774455919288
1.0025533497148
0.974752667573694
0.935137987666071
0.887420868112136
0.834881777451642
0.779889817748568
0.724357612779791
0.669600679549635
0.615961155630505
0.563249107341374
0.511232303026491
0.459670878439486
0.408538253564249
0.358315031885667
0.309827984215617
0.26401566034909
0.221946995505883
0.184630649665344
0.152719530245815
0.126620609791253
0.106697379190289
0.0932636762487956
0.0865613239974382
0.084918380613979
0.0849195383209805
0.0849195383209804
0.0849195383209805
0.0849195383209805
0.0849195383209806
0.0849195383209803
0.0849195383209803
0.0849195383209806
0.0849195383209805
0.0849195383209805
0.0849195383209804
0.0849195383209805
0.0849195383209805
0.0849195383209805
0.0849195383209805
0.0849195383209805
0.0849195383209804
0.0849195383209803
0.0849195383209804
0.0849195383209805
0.0849195383209805
0.0849195383209804
0.0849195383209804
0.0849195383209804
0.0849195383209805
0.0849195383209805
0.0849195383209805
0.0849195383209804
0.0849195383209806
0.0849195383209804
0.0849195383209803
0.0849195383209804
0.0849195383209806
0.0849195383209806
0.0849195383209804
0.0849195383209804
0.0849195383209803
0.0849195383209805
0.0849195383209805
0.0849195383209805
0.0849195383209803
0.0849195383209804
0.0849195383209804
0.0849195383209805
0.0849195383209805
0.0849195383209806
0.0849195383209805
0.0849195383209803
0.0849195383209804
0.0849195383209805
0.0849195383209805
0.0849195383209805
0.0849195383209805
0.0849195383209803
0.0849195383209804
0.0849195383209805
0.0849195383209805
0.0849195383209805
0.0849195383209805
0.0849195383209802
0.0849195383209802
0.0849195383209809
0.0849195383209803
0.0849195383209802
0.0849195383209809
0.0849195383209803
0.0849185852665616
0.0865736015533721
0.0932999053912653
0.106757343882651
0.126703285295042
0.152823653995507
0.184754942970772
0.22208971105031
0.264173726307877
0.309997528315682
0.358492335864397
0.408720156649266
0.459854899059313
0.511417632664363
0.563436494195774
0.616151457898004
0.66979469794061
0.72455558134896
0.780088826319014
0.83507563595617
0.887602113588969
0.935296625940239
0.974874945306238
1.00262942908546
1.01777952579837
1.02336233963426
1.02426272523456
1.02671599039653
1.02581260089763
1.0202403805353
1.00514835815657
0.977529240068506
0.938173320562386
0.890767852526446
0.838571842952301
0.783938924565201
0.728769248942536
0.674369779864405
0.621080441562569
0.568712535415998
0.517035342157863
0.465810561127995
0.415011780556614
0.365116461532746
0.316945978643681
0.271432756101186