/*--------------------------------*- C++ -*----------------------------------*\
  =========                 |
  \\      /  F ield         | OpenFOAM: The Open Source CFD Toolbox
   \\    /   O peration     | Website:  https://openfoam.org
    \\  /    A nd           | Version:  7
     \\/     M anipulation  |
\*---------------------------------------------------------------------------*/
FoamFile
{
    version     2.0;
    format      ascii;
    class       volScalarField;
    location    "20000";
    object      k;
}
// * * * * * * * * * * * * * * * * * * * * * * * * * * * * * * * * * * * * * //

dimensions      [0 2 -2 0 0 0 0];

internalField   nonuniform List<scalar> 
15600
(
4.75232705212301e-07
4.62905726285101e-07
3.38344235480657e-07
1.71017827650741e-07
5.82965121076498e-08
2.84542649908234e-08
2.92300447240896e-08
2.2034104131933e-08
1.93213765780161e-08
2.00353715208117e-08
2.32920754584811e-08
2.88966600792529e-08
3.68394541286841e-08
4.82642871159524e-08
6.49446767785874e-08
8.95541474215019e-08
1.24862398000684e-07
1.74961966500586e-07
2.43427310395936e-07
3.33050529375292e-07
4.46686120958017e-07
5.8710110716797e-07
7.50099450583235e-07
9.26534495576123e-07
1.10744647564614e-06
1.29729643563701e-06
1.60340952888507e-06
2.01257809643855e-06
2.38376077164049e-06
2.71615449082442e-06
3.02019675019789e-06
3.30077703918373e-06
3.56082658092942e-06
3.80370125733742e-06
4.02980175243224e-06
4.23216050955556e-06
4.40910004023284e-06
4.56056774071871e-06
4.6866605399377e-06
4.78781658544794e-06
4.86472889828821e-06
4.91841880041494e-06
4.95019448919038e-06
4.9615980328758e-06
4.95437935543655e-06
4.93032459249582e-06
4.8912741964823e-06
4.83885217011645e-06
4.77474054926476e-06
4.70085171758559e-06
4.61915001534186e-06
4.53136216221412e-06
4.43903827713261e-06
4.34304274125998e-06
4.2441531690116e-06
4.14344862248763e-06
4.04210133379185e-06
3.94090730311515e-06
3.84037608929571e-06
3.74096190692692e-06
3.64337759899515e-06
3.54791181105155e-06
3.45464317303278e-06
3.36373729461695e-06
3.2752284010603e-06
3.18925272635199e-06
3.10573742154303e-06
3.02467005336608e-06
2.94604354010938e-06
2.86980965713797e-06
2.79587005025667e-06
2.72414604311611e-06
2.65454674034725e-06
2.58693694634239e-06
2.52117608261464e-06
2.45709344652602e-06
2.39453646185844e-06
2.33328650642101e-06
2.27315075346254e-06
2.2138349830257e-06
2.15512268623411e-06
2.09659324128175e-06
2.03801713703751e-06
1.9787037207242e-06
1.91845733023632e-06
1.85602212603664e-06
1.79136516663687e-06
1.72196967875732e-06
1.65020447897553e-06
1.57366614252574e-06
1.49113852208163e-06
1.39338062671279e-06
1.2804816714383e-06
1.12982357553849e-06
1.10024228917491e-06
1.29778474196556e-06
1.49772719226888e-06
1.68644619441088e-06
1.84763077730038e-06
1.99143049543324e-06
2.12568724927764e-06
2.21038337062533e-06
2.21217470177814e-06
2.14453555571055e-06
2.0193251396174e-06
1.8399784958556e-06
1.66138862782598e-06
1.5098789850289e-06
1.37459505714147e-06
1.2614270697967e-06
1.17401158327471e-06
1.10518672083224e-06
1.02274131942771e-06
9.52345638505033e-07
8.75762108998692e-07
7.7374346726788e-07
6.26468568689148e-07
5.00946051334121e-07
4.17727281573023e-07
4.20339594104261e-07
1.53709486531744e-05
1.49781566961435e-05
1.09512907243391e-05
5.54509861334367e-06
1.89743861153984e-06
9.24500691231654e-07
9.4809799971912e-07
7.16018251875818e-07
6.27235865490384e-07
6.49473939067156e-07
7.54181902339404e-07
9.34979974509568e-07
1.1913192412766e-06
1.55989125279436e-06
2.09788397287943e-06
2.89190907854167e-06
4.0315926929835e-06
5.64970515247531e-06
7.86307093297365e-06
1.07628914388385e-05
1.44416455476733e-05
1.89905182099277e-05
2.42755325954002e-05
2.99999900553955e-05
3.58724967514474e-05
4.20198972414678e-05
5.19040894037223e-05
6.51124964629526e-05
7.70987634030383e-05
8.78304654864872e-05
9.76463389142125e-05
0.000106704258219745
0.000115099176171075
0.000122939733288291
0.000130220490692138
0.000136706456946716
0.000142373565549364
0.000147220989472954
0.000151252889295471
0.000154484090244392
0.000156937578308175
0.000158646669158265
0.000159653718573744
0.000160008442399213
0.000159766990580727
0.000158986659174827
0.000157726226504573
0.000156037696990896
0.00015397497909675
0.000151599250424962
0.000148973189695024
0.000146151997727608
0.00014318501410815
0.000140099935117608
0.000136921744855714
0.000133685019789475
0.000130427218355078
0.000127173815120081
0.000123941231453868
0.000120744087492824
0.000117605265278371
0.000114534028616456
0.00011153301090795
0.00010860753220833
0.000105758711377152
0.000102990939614002
0.000100302004072356
9.76914774879573e-05
9.51590838367321e-05
9.2703385513561e-05
9.03212711709367e-05
8.80102351034611e-05
8.57673827490653e-05
8.35884144293001e-05
8.14688244076266e-05
7.94031694708569e-05
7.73865365822332e-05
7.54119663956002e-05
7.34732232540584e-05
7.15609555998491e-05
6.96680944282032e-05
6.77813348001525e-05
6.58930320980967e-05
6.39814672401064e-05
6.2039702016859e-05
6.0028470472109e-05
5.79451866257461e-05
5.57113859297397e-05
5.33925073711086e-05
5.0918248933522e-05
4.82509383157958e-05
4.50915693935059e-05
4.14440386248558e-05
3.65782527372135e-05
3.56313434393495e-05
4.1941227329851e-05
4.83976323378204e-05
5.44785733911144e-05
5.96875714539964e-05
6.4336046222968e-05
6.86591682678313e-05
7.1390219411205e-05
7.1471200775492e-05
6.93174967066569e-05
6.53042713311073e-05
5.95571811802484e-05
5.37926541206018e-05
4.88990675046989e-05
4.45290607467305e-05
4.08764986342306e-05
3.80453529912334e-05
3.58046115811391e-05
3.31301265701956e-05
3.08359890806292e-05
2.83337460285168e-05
2.50112006439755e-05
2.02453297886099e-05
1.61969133808515e-05
1.35142411554664e-05
1.36033200895821e-05
0.000112281034434057
0.000109580614055704
8.01798162601796e-05
4.06882477391661e-05
1.39888358980047e-05
6.79907271592815e-06
6.9589951974608e-06
5.26741601882302e-06
4.61129004189841e-06
4.76781166575932e-06
5.52955700910548e-06
6.84871274772721e-06
8.71980242993885e-06
1.14079277544592e-05
1.53298171008393e-05
2.11179434680516e-05
2.94251302311796e-05
4.12167781770129e-05
5.73446015306996e-05
7.84628353268204e-05
0.000105222948950789
0.000138272438717914
0.000176633443182599
0.000218133712332805
0.000260622015518738
0.000304846477017241
0.000375352818066397
0.000469189622917502
0.000554103255187383
0.000629901681355254
0.000699083483586533
0.000762805420334379
0.000821780438901532
0.000876817749335458
0.000926982777810194
0.000971471242391471
0.00101028718998
0.00104345818006695
0.00107104289068712
0.00109316328397057
0.00110999168693516
0.00112176359056704
0.00112877019437101
0.00113134813073296
0.00112987286812723
0.00112472669024452
0.0011162983676709
0.00110493386859495
0.00109099338583902
0.00107488562368616
0.00105702868573989
0.00103779347310727
0.00101750989469977
0.000996366894939379
0.00097453642742798
0.000952255324550518
0.000929779653977203
0.00090728573402196
0.000884890804812529
0.0008626989247419
0.000840871057877687
0.000819474202184893
0.000798531625685297
0.000778082889337122
0.000758138320609539
0.000738743129192299
0.000719861635897422
0.000701504586027272
0.000683673580005249
0.000666361136307678
0.000649548171128602
0.000633219132232785
0.000617355685497145
0.000601929882710731
0.000586911619582842
0.000572264564999363
0.000557955121995461
0.000543936484256491
0.000530165123094537
0.000516577776186972
0.000503123711541721
0.000489713385175855
0.000476289413133256
0.000462707008715515
0.000448907688274533
0.000434632457933197
0.000419839854812376
0.00040401546456236
0.000387422022147629
0.000369653361556539
0.000350484493933991
0.000327791522289837
0.000301567305461499
0.000266627684825954
0.000259913278521826
0.000303300172269657
0.000348847092189805
0.000391706735385587
0.000428664534775058
0.000461643504167405
0.000492072071956901
0.00051162100799644
0.000513056760192223
0.00049879937827738
0.000471311720189107
0.000431552367076033
0.000390572434000014
0.000355488269744509
0.00032408424648899
0.000297819773486808
0.000277266599727481
0.000260816647494821
0.000241434230843371
0.000224682981669601
0.000206337582956469
0.000182069561386926
0.000147568564626224
0.000118326110297109
9.8889529847428e-05
9.95796376777676e-05
0.000420643028206452
0.000411503858599923
0.000302076933026262
0.000154084939722282
5.3369977894526e-05
2.57909626174677e-05
2.63333653168844e-05
1.99859558156413e-05
1.74875111965799e-05
1.80500265347019e-05
2.09026833201888e-05
2.58543780841325e-05
3.2877606420096e-05
4.29460124056867e-05
5.76086469271038e-05
7.91992722961771e-05
0.000110094604697156
0.000153753785744866
0.00021312727463624
0.000290261462466712
0.000387015567310772
0.000505104050041581
0.000640478336400497
0.000785090853997126
0.000931246253678018
0.00108129758939878
0.00131483595478523
0.00161847364319646
0.00188807495037893
0.00212566796070069
0.00234022727537178
0.00253615819527581
0.00271620731065036
0.00288190564909844
0.00302953680413345
0.00316015801400573
0.0032740424780068
0.00337152982952381
0.00345299262805048
0.00351891376919703
0.00356986829978991
0.00360655915969545
0.0036298057110097
0.00364052385875647
0.00363971215071852
0.00362837909459632
0.00360753876950207
0.00357809656916
0.00354100288687357
0.0034973452972687
0.00344824357001585
0.0033947057388431
0.00333763143701937
0.0032775505545519
0.00321495264912775
0.00315051486233391
0.00308497664206147
0.00301886398321016
0.00295254976486927
0.00288636544022671
0.00282081459188426
0.00275612613361204
0.00269241038561631
0.00262986420393621
0.00256853095937521
0.00250845588870605
0.00244965253524072
0.00239218153535109
0.0023360772279918
0.00228134417281583
0.00222795070012746
0.00217587178512604
0.00212507259175409
0.00207548850783728
0.00202704404902125
0.00197964439764915
0.00193319812825569
0.00188757593041569
0.0018426503673371
0.00179823902554243
0.00175418385198066
0.00171022241377362
0.00166616283641319
0.00162157917081503
0.00157624923967318
0.00152941334198506
0.00148084680433121
0.00142904068722365
0.00137400904846518
0.00131454662314674
0.00125020506003438
0.00117402459693328
0.00108561997124961
0.000967440672925806
0.000944636932506071
0.00108140939559765
0.00122949758192022
0.0013694782496841
0.00149173931825478
0.00160151275690874
0.0017025206965979
0.00177057800242386
0.0017829229551203
0.00174444555922866
0.00166152893519612
0.0015367886339141
0.00140150165549403
0.00128293469363298
0.00117555801652937
0.00108509702324531
0.0010130509835478
0.000953808819255075
0.000884588075059042
0.000824101915958421
0.000757350515500252
0.000669432666592131
0.000546272928375315
0.000442076802750558
0.000371760300086145
0.000374693719689835
0.00110614192263674
0.00108495953371507
0.000803184461096326
0.000415143933849262
0.000145637467814324
6.96174089137717e-05
7.08422100532277e-05
5.39316892254087e-05
4.71663459911763e-05
4.85783233178258e-05
5.6147157892709e-05
6.93000831422001e-05
8.79233286311487e-05
0.000114482452465248
0.000152939647348068
0.000209109627015564
0.000288602786739278
0.00039918152799116
0.000546478238081252
0.000732814203629983
0.000959330734288763
0.0012265067201732
0.00152252620990652
0.00182929263330056
0.00213231362765692
0.00244125466585846
0.00290471958337027
0.00347863522312962
0.00397309583789022
0.00440245486359275
0.00478486278593297
0.00513040436785257
0.00544526196714055
0.00572732929612297
0.00597774443447801
0.00619873969699234
0.0063913077030747
0.00655641635459546
0.00669500033191367
0.00680807449210643
0.00689673268788543
0.00696220541286349
0.00700585341033324
0.00702914652210928
0.00703364590776552
0.00702091122723539
0.00699248825928186
0.00694976091912012
0.00689417859680888
0.00682739455138475
0.00675111110977357
0.0066668753298985
0.00657606825651032
0.00647952704745614
0.0063780277542383
0.00627263919453772
0.0061645377900922
0.0060545836440748
0.00594342325789884
0.00583162533165086
0.00572004877132434
0.00560910504122706
0.00549933251888849
0.00539062851498967
0.00528316376027652
0.00517714858581985
0.0050726773971874
0.00496989441774018
0.00486890608743301
0.0047697673127603
0.00467247169596248
0.00457701799421838
0.00448338724067302
0.00439151024657805
0.00430129244894541
0.00421260599071901
0.0041253204870392
0.00403924515241072
0.00395417814804203
0.00386983189467297
0.00378593598614524
0.00370206417224415
0.00361786301458714
0.00353263079382237
0.00344591269106494
0.00335645082193127
0.00326368907875753
0.00316511330607877
0.00305967078520975
0.00294436191843658
0.00281923584031043
0.00267112877762178
0.00249858565563068
0.00226594870314749
0.00221812949370918
0.00246623017117669
0.00274538285353398
0.0030141174308812
0.0032559974480911
0.00347877418920691
0.00368779578328661
0.00384281682169489
0.00390114630618409
0.00386403768712867
0.00373748320521236
0.00352244385911436
0.00326799600864079
0.00303461079942903
0.00281728424190779
0.0026310530583869
0.00247906962953712
0.00234783098146416
0.00219023824611124
0.00204893442864534
0.00188928860398735
0.00167856617049654
0.00138895493244707
0.00114719071569711
0.000980429307190984
0.000991913418615768
0.00231056363941297
0.00227297871504608
0.00171024432321281
0.000908736080849942
0.000326723018928856
0.000153617141955959
0.000155502559686088
0.000118792548613647
0.000103826470822064
0.000106618081710581
0.000122873453388247
0.000151096197091988
0.000190831952763357
0.000246867785285179
0.000326905239114627
0.00044159355284893
0.000599790267933343
0.000812526325779952
0.00108437877210818
0.00141245479516244
0.00179277595591025
0.00222191769353575
0.00267997544843956
0.00314323395446749
0.00359885050097597
0.0040743947371728
0.00475702011472169
0.00555400944270126
0.00622714724383625
0.00680825839253777
0.00732156004170631
0.00778236355040863
0.00819761793858159
0.00856549349965287
0.00889173516647211
0.00917881267609584
0.00942842080650518
0.00964212923747345
0.00982141480566114
0.00996778753611903
0.0100828113205085
0.0101681719162167
0.0102256765552703
0.0102572336198502
0.0102648312750429
0.0102504412257191
0.0102159965635341
0.0101632390870129
0.0100939764353052
0.0100102426645824
0.00991412037828799
0.00980750961971771
0.00969210205831521
0.00956895778690539
0.00943905330695883
0.00930370472886712
0.00916435808092175
0.00902208901683488
0.0088777423269597
0.00873204319846677
0.00858608005720552
0.00844084138292223
0.00829633352186493
0.0081525449386131
0.00800981485508257
0.00786845338724499
0.00772861909915121
0.00759051401128082
0.00745430048570011
0.00732007642495149
0.00718786438260857
0.00705768803179557
0.00692954948611263
0.00680339045856812
0.00667911555219592
0.00655658918158844
0.00643566597935092
0.00631613194988496
0.00619774667682151
0.00608017374802736
0.00596307524384946
0.00584594648197564
0.00572832679297015
0.00560938360569268
0.00548848877793766
0.00536415407082301
0.00523554479981043
0.00509968889500586
0.00495507660351019
0.00479560871715177
0.00462316789194633
0.00442053456711842
0.00418586798978052
0.00387029837795872
0.00379376567411639
0.0041012354048349
0.00447088444434356
0.00484035796606702
0.00518747190165519
0.00551843340966395
0.00583778621559968
0.00609740530890437
0.00624082494269521
0.00626084811035829
0.00615743030712529
0.00592570360686178
0.00561692243073619
0.00531650183105575
0.00502766844870541
0.00477776399081525
0.00457126702360039
0.0043830839826996
0.004136363459895
0.00390334455418813
0.00362461866418867
0.00324903181811847
0.0027389875585193
0.0023286194067128
0.00204524745969078
0.00208800688805389
0.00404237909678343
0.00399248889654428
0.00308089144590604
0.00171308486254476
0.0006446484687407
0.000297020154579298
0.000298035645042985
0.000228541923316276
0.000199536602081142
0.000204032276685234
0.000234031383350197
0.000285922248137863
0.000358081292516264
0.000457789959359294
0.000596707900435374
0.000789411731483555
0.00104475394819479
0.00137249348103008
0.00177103557823355
0.0022301027632291
0.0027425149156252
0.00330382784936408
0.00389137422929878
0.00448305716266271
0.00507443583867102
0.00571099378594628
0.00657905403879903
0.00753795950647702
0.00834109696617643
0.00903385458439792
0.00964343865847329
0.0101890278638684
0.0106753762692578
0.011105925562645
0.0114869961802732
0.0118214743291862
0.0121116002587143
0.0123594153175897
0.0125668284676329
0.0127357437271224
0.0128680997472267
0.0129659421603459
0.0130314282573237
0.0130668073933737
0.0130743965117566
0.013056485935873
0.0130153087211793
0.0129528917360881
0.0128713201386964
0.0127729098613891
0.0126600210036901
0.012534812022844
0.0123992029197525
0.012254435326757
0.0121016437207388
0.0119423193604286
0.0117780939519778
0.011610197908069
0.0114396326629488
0.0112672350564355
0.011094611081162
0.0109225820423465
0.010750858773062
0.010579652069013
0.0104093934590491
0.0102404547925879
0.0100730410719378
0.00990739013249652
0.00974370118983572
0.00958210106136551
0.00942263311198198
0.00926533683794061
0.00911022828763622
0.00895725866225454
0.00880633346701283
0.00865731512331327
0.00851005016664729
0.00836431593315589
0.00821985063064034
0.00807629709006836
0.00793327806079771
0.00779025898417727
0.00764671508354772
0.00750177246819508
0.00735469352935019
0.00720393411667542
0.00704847453633792
0.00688526002357445
0.00671266947183601
0.00652270992249558
0.00631818767520844
0.00608071593447442
0.00580898686426365
0.00544970149169421
0.00534320879771957
0.00565986566613632
0.00607572590511753
0.00651061573928233
0.00693590365981049
0.00735321026864598
0.00776427314825581
0.00811859785939339
0.00835350747384868
0.00845501083935103
0.00841713816019765
0.00823075493215046
0.00794142771367895
0.00764024769681416
0.00734391391170306
0.00709216488144282
0.00688865349335914
0.00670148900048959
0.00641610293821082
0.00612633790198764
0.00574474317149831
0.0052084563729121
0.00447597617178173
0.00392036073817848
0.00355572192494136
0.00367771793527602
0.00611633929584504
0.00607364815625236
0.00484031890982477
0.00285692908027543
0.00115650546212393
0.000523293835213924
0.00051733546011469
0.000398293463713338
0.000347057258792217
0.000352704319324687
0.000401492721234032
0.000485354797500697
0.000599587162280845
0.000752827041670445
0.000959241483078922
0.00123450964247905
0.00158397518189242
0.00201388291009595
0.00251692589628364
0.0030795226760161
0.00369543369901546
0.0043609142146132
0.00505353023221875
0.00575572660191196
0.00647194508614597
0.00725822298605438
0.00827810651047711
0.00935651695433143
0.0102592361366494
0.011038824026883
0.0117240029468776
0.0123360209055537
0.0128779946015991
0.0133581895156361
0.0137824766797961
0.0141541288200057
0.014475806722739
0.0147499241319143
0.0149787375283644
0.0151644712333729
0.015309371162972
0.0154157791627528
0.0154861414407961
0.0155229892172197
0.0155289116839933
0.0155064649937964
0.0154581351325146
0.0153861931131342
0.0152929571731054
0.0151809740704896
0.0150528310363969
0.0149108983444963
0.0147572864172211
0.0145933972212
0.0144205015508904
0.0142402315849763
0.0140543663160329
0.0138642626327336
0.0136710585324106
0.0134758288333145
0.0132806065730583
0.0130855652351396
0.0128906010707361
0.0126960482912903
0.0125024001746286
0.0123100743761056
0.0121193138424904
0.0119303829201645
0.0117435086647834
0.0115588401015085
0.0113764371055399
0.011196350563792
0.0110186065563243
0.0108431640031378
0.0106699293796443
0.0104987645056651
0.0103295102787095
0.0101619401582407
0.00999577833184652
0.00983065747602396
0.00966617427582842
0.0095017831882899
0.00933691714102037
0.00917069640427644
0.00900230915781134
0.00883022566442991
0.00865329684874297
0.00846854100064193
0.00827420445042518
0.0080618895841071
0.00783403564115599
0.00757293047241558
0.00727778169923942
0.0068969765022936
0.00676313817187972
0.00706511757303989
0.0075011717712613
0.00797785119690835
0.0084597584306977
0.00894288872375567
0.00942513911822133
0.00985545159044173
0.0101691765321886
0.0103484002817392
0.0103831902392181
0.0102632270433733
0.0100262794643903
0.00976232924810892
0.00949518349676445
0.00927763628106541
0.00911211421016562
0.00897036413599146
0.00870132701787883
0.00840555364747979
0.00796199823524927
0.00730126445845503
0.00637553844750196
0.00571814410890875
0.00533434985475196
0.00558875416862838
0.00825228351849121
0.00824846683435008
0.00680662655857552
0.00428885394393622
0.00191366784878532
0.000860287042972807
0.000830295256023006
0.000641765807239351
0.000557366066927543
0.000561573067178561
0.00063207454521653
0.000752599092383586
0.000912531681656263
0.00112011363735395
0.00139050594431986
0.00173881380341155
0.00216674502491957
0.00267834039544781
0.00326338109082456
0.0039082394747632
0.00460868580606646
0.00536140219799376
0.00614537039749373
0.00694799169538183
0.0077804260498475
0.00870223791945705
0.00984764563467243
0.0110208666640389
0.0120061202866887
0.0128584328748844
0.0136075711863291
0.0142750177323428
0.0148648559494483
0.0153873498650806
0.0158483406703835
0.0162514474539611
0.0165996793736257
0.016895766182329
0.0171422625437203
0.0173416705708401
0.0174965038497342
0.0176093633143065
0.0176829484756966
0.017720038092687
0.0177234611657929
0.0176960092141164
0.0176403945819899
0.0175591080711956
0.0174546744528485
0.0173298418105995
0.0171873963363304
0.017029893627246
0.0168596142207259
0.0166781075656584
0.0164867677069951
0.0162873485291964
0.0160817554115828
0.0158714556476605
0.0156577116824962
0.0154421734337776
0.015226498686363
0.0150106754783283
0.0147947959639943
0.0145792756496495
0.0143646556156654
0.0141513918238838
0.0139397606319081
0.0137300487519066
0.0135225066779296
0.013317302493342
0.0131145105617697
0.0129141913780898
0.0127163794587839
0.0125210406808154
0.0123280829169676
0.0121373682623529
0.0119487337598522
0.0117619512652554
0.0115767352391738
0.0113927130622255
0.0112094630490665
0.0110264367923892
0.0108430376796099
0.0106583944630886
0.0104716424810981
0.0102812937591241
0.0100861044859157
0.00988322680354007
0.00967078768544835
0.00944070766139725
0.00919439227731876
0.00891580547620029
0.00860423488003238
0.00821305767557225
0.00805670027192572
0.00833541021196223
0.00877745084654961
0.0092809452935231
0.00980417531789864
0.0103374411981085
0.010874390199173
0.0113636868800096
0.0117406199323345
0.01198534752703
0.0120855371515163
0.0120316015999506
0.0118543901577539
0.011642073866799
0.0114183891205674
0.0112478983339998
0.0111313685202723
0.0110512664004115
0.0108309548365516
0.010568000685884
0.0101034148172153
0.00935696663707412
0.00825889977645505
0.00751214183115429
0.00714019800889867
0.00755254671582068
0.0102275159507807
0.0102955026249432
0.00878669271522892
0.00589704641458207
0.00293616320106136
0.00133914656916496
0.00124699180279117
0.000967266529350956
0.000836011808606843
0.000832962620182541
0.000923789619031196
0.00107957913571929
0.00128138818090353
0.00153626749294882
0.00186018246203355
0.00226772720282509
0.00275844173923161
0.00333542320473909
0.0039871521433829
0.00470110439808091
0.00547474413891721
0.00630483084481989
0.00717224882256584
0.00806873467642207
0.00900961165392337
0.0100534083820811
0.0113058811644815
0.0125599920190851
0.0136179402027405
0.0145346563755334
0.015340904729816
0.0160573470471535
0.0166902299804999
0.0172505398817645
0.0177442602414114
0.0181753290747738
0.0185470630758957
0.0188624764254095
0.0191243932544086
0.0193355687239667
0.0194987603334398
0.0196168057148512
0.0196926359833546
0.0197292563874409
0.0197297158763475
0.0196970224973264
0.0196340987576564
0.0195436396846879
0.0194283594564623
0.0192911887332267
0.0191350951719746
0.0189628028548406
0.018776750239614
0.018578625664698
0.0183699377747686
0.0181525500263935
0.0179284811507138
0.0176992981809737
0.0174665198405679
0.0172322604386504
0.0169974798718732
0.0167623293463765
0.0165270404650568
0.016292089463204
0.0160580578317504
0.0158254356797305
0.0155945298748008
0.0153656473027808
0.0151390593923281
0.0149149515368176
0.0146934114400725
0.0144745084050079
0.0142582847043068
0.0140447128365959
0.0138337025735861
0.0136251169653583
0.0134187906569211
0.0132144952813634
0.0130119385348664
0.0128107452070655
0.0126104804913361
0.0124105972280205
0.0122104780035361
0.012009266412835
0.0118060599730254
0.0115994233604477
0.0113880431443313
0.0111692285497248
0.010941009309661
0.0106960043365456
0.0104341597609958
0.0101417542898033
0.00981770816613295
0.00942185652823947
0.0092480024781209
0.00950158187986587
0.00994170939529638
0.010462223059918
0.0110159323907926
0.0115877417497006
0.0121669806205582
0.0127019254807289
0.0131286543864175
0.0134265895613921
0.0135819871285259
0.0135866824324628
0.0134664451878557
0.0133076624615392
0.0131306070020885
0.0130095370087323
0.0129426917800526
0.0129263633133997
0.0127696787867445
0.0125648563626155
0.0121166934852767
0.0113224877930478
0.0100596876437514
0.00919311405346154
0.00884425776381966
0.0093867123398706
0.0119754342040467
0.0121041764308472
0.0106453268447752
0.00756038839864479
0.00419493824025417
0.00199028479796603
0.00176615798356379
0.00137362772069567
0.00118000142032096
0.00116056350997595
0.00126566698584457
0.00145007178833331
0.00168560013917257
0.00197831174221183
0.00234520029164749
0.00280051968084794
0.00334265315097837
0.0039741399734218
0.00468292830035862
0.00545788840871541
0.00629772785349989
0.00719915660562156
0.00814503480623085
0.00913048368737603
0.0101728480254972
0.0113271573381752
0.0126740999037414
0.0140010219847772
0.0151256222883237
0.0161015590617844
0.016960673964417
0.0177220257931915
0.0183947899822574
0.018989998317612
0.0195138551462957
0.0199706009146247
0.0203638357772931
0.0206968401058644
0.0209726901865296
0.0211943793430916
0.0213648941828527
0.0214872950223544
0.0215647308409844
0.0216004199432486
0.021597618543215
0.0215595390523723
0.0214893038518889
0.0213898018656239
0.021263925167856
0.0211147744270373
0.0209454872918607
0.0207589449084435
0.0205577359045302
0.0203436814749228
0.0201183989084029
0.0198838531044186
0.0196421673666798
0.0193950001792453
0.0191444130505708
0.0188923583589487
0.0186394101071261
0.0183859328060315
0.0181322663710626
0.0178789366241679
0.0176265611185279
0.0173756615350397
0.0171265731706552
0.0168796217557348
0.0166350980674547
0.0163932036992471
0.0161540389163712
0.015917681410574
0.0156841809060139
0.0154535163496327
0.0152255998475053
0.0150002959244928
0.0147774380163638
0.0145567984829407
0.0143380804520873
0.0141209078301634
0.0139048365859654
0.0136893231864745
0.0134737359798511
0.0132572364394553
0.0130388958043744
0.0128173354685373
0.0125911923862681
0.012357940181835
0.0121155345012627
0.0118574977688084
0.0115820553584254
0.0112781966735254
0.0109441613845393
0.0105466305999155
0.0103596090648154
0.0105889761627689
0.011022743854595
0.0115536283354096
0.0121299372384779
0.0127316010470984
0.0133437396936018
0.0139141068042008
0.014379994573468
0.0147208085212719
0.0149220223056029
0.0149769110171501
0.0149077134684022
0.0147992240053636
0.0146668715532071
0.0145929312087707
0.0145730855466375
0.0146166819881825
0.0145281976229593
0.0143955007155296
0.013992526742267
0.0131951552613882
0.0117881494954026
0.0107408212472428
0.0103912061877346
0.011021878751067
0.0134618274812733
0.0136536986381806
0.0123233720336951
0.00918609669408039
0.00561960595545699
0.00283673497362156
0.00237507167998691
0.00184919456563922
0.00157789965439947
0.00153132906587237
0.00164215173541112
0.00184667468055181
0.00210770762837758
0.00243039902028979
0.00283248257668574
0.00332764671506377
0.00391363275924277
0.00459252723802548
0.00535222955664793
0.00618301590908046
0.00708450482096171
0.00805334265427365
0.00907420172690122
0.0101446369089746
0.0112824309716757
0.0125380065005738
0.013970792858075
0.0153656465775117
0.0165530099147797
0.0175848200752729
0.0184939535271825
0.0192976350154055
0.0200081440086119
0.0206362841640674
0.0211885211065541
0.0216693885788034
0.0220827556459418
0.0224321583898088
0.0227209147762983
0.0229522474021092
0.0231293627355084
0.0232555350286915
0.0233341224379375
0.0233685477474698
0.023362266323971
0.0233186870519125
0.0232411256719192
0.0231326581429887
0.0229963466522535
0.0228354532896641
0.0226532780733921
0.0224528512017033
0.0222369064954914
0.022007393671864
0.0217660345435178
0.0215148899010801
0.0212561814955614
0.0209917322235787
0.0207242275148999
0.0204549506801103
0.0201844962408205
0.0199133936707578
0.0196420723275628
0.0193711011018383
0.0191011308976371
0.0188327132757928
0.0185662103698784
0.0183019658740005
0.0180402888510745
0.0177813963315025
0.0175254005488369
0.0172723873314591
0.0170224137278083
0.0167754650311113
0.0165314560266733
0.0162902531091214
0.0160516894815233
0.0158155389373006
0.0155815017335738
0.0153492020674446
0.0151181897231115
0.0148879263264671
0.0146577711905859
0.0144269051792316
0.0141943825939102
0.0139588825680798
0.0137190092170639
0.013472400624542
0.0132169604243073
0.0129469483148387
0.0126595450396893
0.0123458612541606
0.0120035526348797
0.0116059400133051
0.0114091883007489
0.0116163094409901
0.0120412426822258
0.0125778375551178
0.0131708427058016
0.0137956603902516
0.0144333972391576
0.0150312244797031
0.0155279140080379
0.0159033116256197
0.0161425282452997
0.016240012891041
0.0162155574075822
0.0161519684041429
0.0160609322403738
0.0160298904360144
0.0160530237238206
0.0161504150190451
0.0161286021837626
0.0160722713643105
0.0157337685742636
0.014972594809989
0.0134666137076886
0.012202292830539
0.0117697098640587
0.0124288319729515
0.014689219952998
0.0149367093673897
0.0138012827880822
0.0107374254885354
0.00713745807130556
0.00387957274039794
0.00305581735916243
0.00237594171652542
0.00201394546771384
0.00193034326487257
0.00203866786435773
0.00225591627591613
0.00253638057180386
0.0028838205493345
0.00331602920472275
0.00384581187821516
0.00447061217187423
0.00519217923967254
0.00599871486737844
0.00688182352939424
0.00784182564422512
0.00887532368123715
0.0099685265042863
0.0111205946474737
0.012348653134773
0.013698194622316
0.0152108552781991
0.0166706141944715
0.0179181929773973
0.0190037002268603
0.0199606258142063
0.020805305223556
0.0215521151438898
0.0222118527264305
0.0227912684439245