/*--------------------------------*- C++ -*----------------------------------*\
  =========                 |
  \\      /  F ield         | OpenFOAM: The Open Source CFD Toolbox
   \\    /   O peration     | Website:  https://openfoam.org
    \\  /    A nd           | Version:  7
     \\/     M anipulation  |
\*---------------------------------------------------------------------------*/
FoamFile
{
    version     2.0;
    format      ascii;
    class       volScalarField;
    location    "20000";
    object      k_conv;
}
// * * * * * * * * * * * * * * * * * * * * * * * * * * * * * * * * * * * * * //

dimensions      [0 2 -3 0 0 0 0];

internalField   nonuniform List<scalar> 
15600
(
-6.23223127394592e-07
-3.16270191866634e-08
-3.49080145755406e-08
-2.01858866620981e-08
3.45315615112546e-09
-5.38902996452207e-09
-9.87317004431125e-09
-4.24875792597424e-09
-2.2797742532734e-10
-1.95133059041898e-10
-3.40426448523699e-10
-4.9427569767824e-10
-7.55889915299242e-10
-1.18956805716422e-09
-1.94984103130544e-09
-3.11976428343475e-09
-4.98592739915775e-09
-7.65051570006862e-09
-1.11270279195887e-08
-1.55236181572801e-08
-2.10887637317663e-08
-2.66424160880992e-08
-3.09153769216262e-08
-3.34452622163366e-08
-3.64418672101935e-08
-6.75860572725218e-08
-1.09286156859504e-07
-1.10723587697751e-07
-1.06208389338577e-07
-1.01658079240163e-07
-9.67180418683176e-08
-9.14146838627584e-08
-8.63312772745547e-08
-8.06836744275002e-08
-1.80728136755395e-07
-4.46481060619968e-07
-7.05121340538152e-07
-9.52606089614143e-07
-1.18339949226085e-06
-1.3936378968456e-06
-1.57951195133481e-06
-1.73850842419472e-06
-1.86918896350034e-06
-1.97108414410056e-06
-2.04526383976872e-06
-2.09292299035177e-06
-2.11688785129047e-06
-2.11883672519874e-06
-2.10043735578488e-06
-2.06446418519108e-06
-2.01482271142651e-06
-1.95440196015033e-06
-1.88714187441347e-06
-1.81416522750859e-06
-1.73621793161321e-06
-1.65495892683943e-06
-1.57282268416682e-06
-1.49129878977518e-06
-1.41076180263787e-06
-1.3316929538997e-06
-1.25514658498193e-06
-1.18167589236698e-06
-1.11092762446404e-06
-1.043274540044e-06
-9.7881314212113e-07
-9.17783952017859e-07
-8.59518303813499e-07
-8.04304964691537e-07
-7.52553419723194e-07
-7.03682993929413e-07
-6.57410479596242e-07
-6.13617455047404e-07
-5.72147830971106e-07
-5.32679471651744e-07
-4.9506942972938e-07
-4.58950761606344e-07
-4.24283828770494e-07
-3.90501571599533e-07
-3.57686076026339e-07
-3.2495565924849e-07
-2.92793859989176e-07
-2.59530304955509e-07
-2.26589843455535e-07
-1.90434592415119e-07
-1.54842644705502e-07
-1.11980547816448e-07
-7.1160674221278e-08
-1.46774701799338e-08
-7.78995356926139e-09
-8.24435752312837e-09
-8.67552451998009e-09
-9.86617980769859e-09
-1.05204782424526e-08
-1.23459158024824e-08
-1.80627353470017e-09
-6.33388107220574e-07
-8.77107208838805e-07
-1.22019688918938e-06
-1.47824298093912e-06
-1.78664179059549e-06
-2.22139391788424e-06
-2.42991449689401e-06
-2.20515625380802e-06
-1.75680501043886e-06
-1.12152958328212e-06
-2.39182813696362e-07
-7.93729406417762e-08
-7.08308338737853e-08
-6.66425098224441e-08
-5.91519158568144e-08
-2.81579027500034e-07
-4.86594764390334e-07
-1.53080060335843e-07
-6.2153076902142e-08
-6.38983686831472e-08
-8.69629841482006e-08
-1.14146359900374e-07
-7.13419912403298e-08
-3.08474880560659e-08
6.27871709075247e-10
-1.34253943189221e-05
-3.36663399819451e-07
-2.00509521449533e-06
-1.53596587077905e-06
4.59268625438159e-07
-2.29041554631052e-08
-2.09541317894378e-07
-7.63193755599898e-08
-1.11076614331929e-08
-1.77294795475278e-08
-2.82020477141093e-08
-4.21122469162796e-08
-6.34186230217383e-08
-1.0128766304752e-07
-1.64627648261392e-07
-2.65648517780458e-07
-4.22647202005046e-07
-6.48732256216402e-07
-9.4585575522914e-07
-1.32285592364181e-06
-1.78539594927546e-06
-2.25522676127339e-06
-2.62844962062374e-06
-2.87996151524668e-06
-3.28306023927705e-06
-5.39735809382124e-06
-8.09176849816228e-06
-8.32543332625104e-06
-8.20528379485811e-06
-8.0307521917556e-06
-7.80001780810026e-06
-7.54275696660307e-06
-7.30799436480555e-06
-7.01710451635134e-06
-1.19048336411966e-05
-1.73808191285981e-05
-2.26427103374123e-05
-2.76100334652668e-05
-3.21886481538707e-05
-3.63084901976584e-05
-3.99064609987409e-05
-4.2941922351847e-05
-4.5394886038767e-05
-4.7264225846865e-05
-4.85737696477376e-05
-4.93528744594863e-05
-4.96532034958081e-05
-4.95098932346685e-05
-4.89606847702999e-05
-4.80642491370925e-05
-4.68956677920821e-05
-4.55152077837154e-05
-4.39924101483932e-05
-4.23498636985107e-05
-4.06053944784476e-05
-3.87955676174226e-05
-3.69680812936801e-05
-3.51517876614621e-05
-3.33542708654383e-05
-3.15873914923299e-05
-2.98725116988869e-05
-2.82201272396587e-05
-2.66242738209432e-05
-2.50924901819091e-05
-2.36286858957771e-05
-2.21705792077465e-05
-2.08467599249374e-05
-1.95938369725059e-05
-1.84055004004491e-05
-1.72789233125071e-05
-1.62086074536199e-05
-1.51920427869939e-05
-1.42258678973076e-05
-1.33038010294439e-05
-1.24220898917522e-05
-1.15738939367687e-05
-1.07568209007142e-05
-9.9608340955183e-06
-9.18447129026383e-06
-8.41317534478881e-06
-7.65019650835549e-06
-6.86983499801638e-06
-6.08621662926536e-06
-5.24759927507162e-06
-4.39617761163402e-06
-3.42155010182229e-06
-2.43171970184837e-06
-1.18362288716052e-06
-7.73940067345778e-07
-7.42085143993396e-07
-7.27037640625527e-07
-7.23651268760772e-07
-6.99035472178631e-07
-6.64551966774457e-07
4.34573294457516e-08
-1.20338024989885e-05
-1.89242959609567e-05
-2.6024832959023e-05
-3.17961730007398e-05
-3.83860073798833e-05
-4.72790617939836e-05
-5.23183947928328e-05
-4.93538109118386e-05
-4.14616838608093e-05
-2.92560609209795e-05
-1.20146304523589e-05
-6.84984760638914e-06
-6.01588150165254e-06
-5.6366747546023e-06
-5.14756075850842e-06
-8.0515458222585e-06
-1.27321157886369e-05
-8.43051422923775e-06
-5.86222216085688e-06
-5.10128399177126e-06
-5.58970705264797e-06
-6.45741204716054e-06
-3.87192717356671e-06
-1.45401037885585e-06
8.8734314396652e-08
-7.73028198572923e-05
-3.90631319948067e-06
-8.76274353675139e-06
-1.09750174011016e-05
7.19664876484547e-06
-7.70895737048874e-08
-1.15298040048298e-06
-3.71213871344999e-07
-9.51843115695326e-08
-1.91832554939459e-07
-2.87081096864421e-07
-4.30468582306818e-07
-6.47215771992285e-07
-1.04064096479307e-06
-1.69029348440511e-06
-2.74023968230625e-06
-4.3497671360826e-06
-6.66901611226137e-06
-9.73137267439032e-06
-1.35794772224087e-05
-1.81959476612891e-05
-2.2938334328629e-05
-2.68385734739901e-05
-2.9745058908156e-05
-3.33988472322054e-05
-4.95834717228032e-05
-7.0503345682596e-05
-7.37092950738377e-05
-7.60187541994853e-05
-7.68194341426915e-05
-7.69964953764599e-05
-7.68841905739425e-05
-7.71492374895659e-05
-8.67582886365435e-05
-0.000113403227647945
-0.000138086622447497
-0.000161240179219397
-0.000182634500951868
-0.000202007677357913
-0.000219164987511679
-0.000233941417555361
-0.000246242984306113
-0.000256043497966692
-0.00026337966891826
-0.000268362448861874
-0.000271121431811846
-0.00027184161208038
-0.000270659153969938
-0.000267735558661907
-0.000263315062238389
-0.000257693671172775
-0.000251118681945377
-0.000243842736681366
-0.00023594883088795
-0.000227521055627184
-0.000218731346472596
-0.00020978800922528
-0.000200816732890757
-0.000191849557618539
-0.000182952237817776
-0.000174229245534413
-0.00016573429906658
-0.000157446000571711
-0.000149105281910797
-0.000140843869921558
-0.000133472459974323
-0.000126381623780898
-0.000119590198798025
-0.000113092039236084
-0.000106877601878217
-0.000100925239749504
-9.52260669455514e-05
-8.97666224380824e-05
-8.451989439499e-05
-7.94673405283213e-05
-7.45787057861446e-05
-6.98388030690432e-05
-6.52030041293491e-05
-6.0655194002053e-05
-5.61320025350355e-05
-5.16293332497082e-05
-4.70403811802893e-05
-4.2389319465196e-05
-3.74707384860199e-05
-3.23875849136053e-05
-2.6718323383526e-05
-2.07505531780582e-05
-1.35817616738052e-05
-9.50361195237678e-06
-8.37616808341051e-06
-7.31134116335929e-06
-6.12316668841977e-06
-4.27222855503341e-06
-2.21771936545408e-06
3.29682724125415e-06
-5.64443172993832e-05
-0.000100395230548063
-0.000138999025347127
-0.000171427956329063
-0.000207538905675954
-0.000254857185791246
-0.000287633520546305
-0.000284819732006429
-0.000254867401213827
-0.000199016941241424
-0.000113537479510157
-7.43525881231953e-05
-6.35160533755694e-05
-5.89546109909885e-05
-5.51746126659029e-05
-6.58905455153794e-05
-9.50072546148473e-05
-8.36574387794224e-05
-6.66306598524779e-05
-5.35260335862813e-05
-3.97497371596908e-05
-3.06205236459283e-05
-9.14629769429494e-06
2.20213294636575e-06
4.23578201820253e-06
-0.000236171912693574
-1.65347673220771e-05
9.73511036281317e-07
-2.8463638638907e-05
3.6171545532468e-05
1.70593461219189e-07
-3.42666990613016e-06
-9.72656037868087e-07
-3.7108604806828e-07
-8.93782991136854e-07
-1.3071837543633e-06
-1.94659055532234e-06
-2.94442463207167e-06
-4.74218591570402e-06
-7.72186829323466e-06
-1.2504394388029e-05
-1.97422797318854e-05
-3.00084271630597e-05
-4.33274007859083e-05
-5.94763459249548e-05
-7.81344133619481e-05
-9.67777572028008e-05
-0.000111812481681425
-0.000122258777546852
-0.000129570822501203
-0.00017671662267571
-0.000238282945215937
-0.000248241411368303
-0.000266385719005857
-0.000275712558263507
-0.000283208854001993
-0.000289745474818337
-0.000295711682472664
-0.000349803425059007
-0.000391934502180154
-0.000430284495894702
-0.000464840635728911
-0.000495629273078997
-0.000522607371574539
-0.000545759176216252
-0.000565086032700232
-0.000580641026977273
-0.000592528451927593
-0.000600902037473828
-0.000605961045337351
-0.000607902258761259
-0.000606932688292593
-0.00060322411072291
-0.0005970169976518
-0.000588655327219917
-0.000578522718214974
-0.000566937447730285
-0.000554163794730474
-0.000540259094480461
-0.00052534101845751
-0.000509683903183844
-0.000493599946841316
-0.000477268735314795
-0.000460706058481127
-0.00044402516627916
-0.000427411502881873
-0.000410968694574399
-0.000392068475522027
-0.0003751565709092
-0.000359653623384894
-0.000344536036021453
-0.000329772685326994
-0.000315412256805342
-0.00030146316953819
-0.00028792291257216
-0.000274766787294751
-0.00026199005417685
-0.000249579325190808
-0.000237495790225021
-0.000225710254029036
-0.000214173387715955
-0.000202854464100137
-0.000191674948210182
-0.000180591815363276
-0.000169489073964353
-0.000158326281601739
-0.000146909244861303
-0.000135209347928715
-0.000122865665749914
-0.000109903551068845
-9.56104389224562e-05
-8.01354496633738e-05
-6.19940412259617e-05
-4.57254922734062e-05
-3.87372001402445e-05
-3.08918847871204e-05
-2.21828851428446e-05
-8.12471297856194e-06
4.38543829769354e-06
2.45338112990618e-05
-0.000103429864085419
-0.000221483273505975
-0.000315570275275587
-0.000396057682023373
-0.000484546060243695
-0.00059932269177723
-0.000699986953356412
-0.00074120821405059
-0.000719779971238508
-0.000627721760151995
-0.00044727742157984
-0.000319225671197564
-0.000268854978774455
-0.000248697291275005
-0.000237525298621831
-0.00026394422239897
-0.000362756956823999
-0.000370151381197196
-0.000319848374793098
-0.000249151831050189
-0.000124776239333134
-1.26961363970866e-05
8.36770107367234e-05
8.18137726191233e-05
4.28101085890991e-05
-0.000466431552132459
-4.32490185096438e-05
9.31088973599919e-05
-3.6668273974278e-05
0.000110828211212078
3.53076461962966e-06
-6.92844806923129e-06
-1.63513765641887e-06
-9.02050448880376e-07
-2.72175768528838e-06
-3.96344305269213e-06
-5.85365143303308e-06
-8.88910079488745e-06
-1.42731028018861e-05
-2.31578738084533e-05
-3.70189138135949e-05
-5.72371226859608e-05
-8.44055767935977e-05
-0.000117197565907499
-0.000153376218228158
-0.000191661579450368
-0.000226904086947471
-0.000253487467065768
-0.000268744659111744
-0.000271480199382245
-0.000346491215684482
-0.000435913261305716
-0.000456976323226126
-0.000513111449007638
-0.000540837116393946
-0.000564428524932697
-0.000584950367774774
-0.000632033628794666
-0.000682578733197403
-0.000715917688135708
-0.000744438824836388
-0.000768567027013409
-0.000788658063457961
-0.000804974173397673
-0.000817742185328509
-0.000827184150241948
-0.000833522512981745
-0.000836982708659025
-0.000837793136433166
-0.000836163981314208
-0.000832267340805448
-0.000826216329628737
-0.000818136437537285
-0.000808253105138637
-0.000796859478012328
-0.00078423473637394
-0.000770594126963781
-0.000756031911672199
-0.000740500230791345
-0.000724073695338495
-0.000706996101929714
-0.000689523762095685
-0.000671781161430351
-0.000653704662489581
-0.000635369247534801
-0.000616954061937603
-0.000592368976143683
-0.000572893358089808
-0.000554894153994531
-0.000537086779306954
-0.000519530505648122
-0.000502192007031625
-0.000485120727484619
-0.000468333263595225
-0.000451833713636787
-0.000435605443134257
-0.000419647059505351
-0.000403950432620792
-0.000388483975658986
-0.000373220712521248
-0.000358113841345444
-0.000343125791263238
-0.000328178498991156
-0.000313212836665648
-0.000298109400615997
-0.000282787871120108
-0.000267049419417234
-0.00025077514502051
-0.000233616349954263
-0.000215385201137642
-0.000195442772019598
-0.00017340727597298
-0.000148056300790431
-0.000114412191033158
-9.55847605969671e-05
-7.13669810439135e-05
-4.37508106639285e-05
2.78617879696948e-06
4.12943361790454e-05
7.91328566593274e-05
-5.87999264028063e-05
-0.000230847068401516
-0.000361967330327712
-0.000475341740265966
-0.000597105323910952
-0.000754554359231463
-0.000924667195620967
-0.00106033175436884
-0.00112867591165337
-0.00110109314559251
-0.000931700676100436
-0.000714987904007227
-0.000602163020247384
-0.000559912949674455
-0.000548457122493287
-0.000629547102903979
-0.000861517415673671
-0.000984728927295604
-0.000913635876975753
-0.000727223680398945
-0.000274875054641226
0.000228296121758134
0.000581111739729824
0.000455875563354606
0.000220031068321956
-0.000581552239846843
-7.76705008572855e-05
0.000384191903477821
3.82973671708845e-05
0.000252855815531261
1.86851429880638e-05
-9.70572031245312e-06
-1.40027897501488e-06
-1.82421780204738e-06
-6.35374580752608e-06
-9.28537172799184e-06
-1.35701242811309e-05
-2.05031542965918e-05
-3.24954498644101e-05
-5.17299757753388e-05
-7.9920042897954e-05
-0.000117862757965667
-0.000163692941880139
-0.000212550746908596
-0.000260755774125031
-0.000309546912252635
-0.0003551542273157
-0.000394059959541201
-0.000422329940485063
-0.00044380001787626
-0.00055724363762321
-0.000654233684150659
-0.000692430600665649
-0.000782086519984846
-0.000817760893771219
-0.000846932640892575
-0.000865145676018796
-0.000930891608058584
-0.000949877561095862
-0.000964828220342025
-0.000975640397705179
-0.000982914922978123
-0.000987137992551963
-0.000988692719916008
-0.000987896888649827
-0.000985050521793371
-0.000980420424007437
-0.000974244675349544
-0.000966731569201383
-0.00095803572314865
-0.000948251418726174
-0.000937382141404812
-0.000925472678593489
-0.000912683952269461
-0.000899220383460811
-0.000885236465045936
-0.000870831144752301
-0.000855955811676423
-0.000840471028431702
-0.00082439059635431
-0.000807897911293918
-0.000791176653369819
-0.000774291055212669
-0.000757108429952533
-0.000739641994156988
-0.000714979895650994
-0.000693778173872932
-0.000676422800601318
-0.000659100418977884
-0.000641886028506359
-0.000624818581333704
-0.000607865584446688
-0.000591061574932728
-0.000574420288869469
-0.000557945777683489
-0.000541626859389881
-0.000525459392545386
-0.000509435268243679
-0.000493530751529109
-0.000477723021765924
-0.000461972098663558
-0.000446237883855957
-0.000430453742653296
-0.000414557455237381
-0.000398446966711177
-0.000382023107289954
-0.000365118161031759
-0.000347559013627345
-0.000329077160811292
-0.000309332842668013
-0.00028789707628973
-0.000263961635328583
-0.000236886741361632
-0.000201254160387643
-0.000164522597401354
-0.000123440992548255
-7.61516636737466e-05
9.27472946198429e-06
8.25557224063018e-05
0.000134107558281423
4.2233225992224e-05
-0.000132890039189506
-0.000267679057346832
-0.000383028542918849
-0.000502497205700417
-0.000656586375404031
-0.000847701699010504
-0.00104691343189908
-0.00120534712590695
-0.00128463288509507
-0.00122022849776274
-0.000991178285573103
-0.000833155930608968
-0.00076606707562983
-0.000753104762113681
-0.000972353177539933
-0.00135459493652592
-0.00175104598274978
-0.00175692818889541
-0.0015000888997238
-0.000524654324225705
0.000813038749490498
0.00189965822517194
0.00152846093801517
0.000769441366522683
-0.000263562663692019
-7.90621975282659e-05
0.000989872852937115
0.000395685170875201
0.000491872933028968
6.63746154396772e-05
-6.16996033962815e-06
2.01163273326624e-06
-3.04515771678061e-06
-1.21062993070022e-05
-1.7795034065633e-05
-2.55546213212001e-05
-3.78655584305281e-05
-5.83899529631258e-05
-8.95599244238098e-05
-0.000131259430355027
-0.000182118692452189
-0.000237690508747103
-0.000293524038332081
-0.000350256995560381
-0.000413098303370766
-0.000478239135098125
-0.000543122040786736
-0.00060443476681171
-0.000675748661269859
-0.000831098694413095
-0.000916185120391185
-0.000957250828817305
-0.00105082885065913
-0.00107592240724319
-0.00109617879949964
-0.00111511311860693
-0.00114667347126384
-0.00114805275564198
-0.00114616932590032
-0.00114130714649535
-0.00113408838558906
-0.00112501030927745
-0.00111446671209374
-0.00110277950058823
-0.00109024823477913
-0.00107712298728117
-0.00106360868093131
-0.00104986206576479
-0.00103597152091571
-0.00102195321532135
-0.00100772195459799
-0.000993240905696131
-0.000978598281362534
-0.000963919714858332
-0.000949261130210839
-0.000934633113612383
-0.000919894896404111
-0.000904837253292371
-0.000889415957740541
-0.000873761859289732
-0.000858007988765561
-0.000842176241793467
-0.000826085730590883
-0.000805705481165932
-0.00077959740791634
-0.000763401140077345
-0.000747077576414783
-0.000730761678157062
-0.000714497553098075
-0.000698311084966514
-0.000682173010904496
-0.000666106186284639
-0.000650120639388754
-0.000634220572017847
-0.000618399694434948
-0.000602652148537819
-0.000586969194255145
-0.000571333229850411
-0.000555726378942558
-0.000540114704960123
-0.000524458394597697
-0.00050870022663194
-0.000492781197842463
-0.000476614428013957
-0.000460096873387612
-0.000443085146463849
-0.000425386841690194
-0.00040679161207622
-0.000386893791445324
-0.000365409650953067
-0.00034131779059848
-0.000314386145070913
-0.000281979396260498
-0.000236177925785961
-0.000186978899618579
-0.000130792532213423
-2.23714285249472e-05
7.50849365593574e-05
0.000149239797861277
0.000122862556055502
-2.13258806431437e-05
-0.000139420283014532
-0.000239338058821315
-0.000339478542018119
-0.000469986674766885
-0.000649043784335249
-0.000865135563572074
-0.00106629420624649
-0.00121614162141492
-0.00124349589723001
-0.00113480281323674
-0.000895726081253531
-0.000793085950714696
-0.000733431620940589
-0.00102765409855212
-0.00152708206985923
-0.00227751933914693
-0.00248635012468006
-0.00237094183154484
-0.000947110124489552
0.00144490002536753
0.00397925444472454
0.00355501706215914
0.00198494484430922
0.00069696772580031
3.44911019883406e-05
0.00187032802670111
0.00128954681507671
0.00091945353417781
0.000189105990572936
1.5089922477798e-05
1.30382973691593e-05
-2.5319029880924e-06
-1.90324673765427e-05
-2.82158669693363e-05
-3.94281359205826e-05
-5.6563734476988e-05
-8.42833922756082e-05
-0.000124297840219418
-0.00017419243399474
-0.000232596184989014
-0.000295678605821822
-0.000362572751706213
-0.000436685023887778
-0.000521820111283944
-0.000612528451987132
-0.000708683982459761
-0.000810639246641803
-0.000936658643036662
-0.00111637257529533
-0.00117899703448088
-0.00121162558429026
-0.00129067288033611
-0.00129785051652571
-0.00130284278747165
-0.00132878353941161
-0.00131615787402377
-0.00130314640376559
-0.00128788382224203
-0.00127073303646813
-0.00125229633450722
-0.00123304695695781
-0.00121335668014112
-0.00119352507013139
-0.00117382790594342
-0.00115448279888001
-0.00113565294908552
-0.0011174426227072
-0.00109988233201042
-0.00108292416979582
-0.0010664155269133
-0.00105024581538908
-0.00103443535625297
-0.00101904719287003
-0.00100406311639051
-0.000989430497081367
-0.000974950203994392
-0.000960357988958348
-0.000945556734095688
-0.000930634992192343
-0.000915693523742122
-0.000900724403262266
-0.000885514102844876
-0.000856556958969559
-0.000838541480340284
-0.000823136872273322
-0.000807638662696417
-0.000792119063010462
-0.000776604230047067
-0.0007611118968899
-0.000745616629518388
-0.000730134234812652
-0.000714671922013687
-0.000699234906780364
-0.000683821616000372
-0.000668426218414993
-0.000653039862599679
-0.000637649770694645
-0.00062224330168899
-0.000606791492487396
-0.000591256270439451
-0.000575586729017785
-0.000559729258604823
-0.000543607005053434
-0.000527119808148885
-0.000510136910654483
-0.000492464632907353
-0.00047392019195865
-0.000454082420550013
-0.000432732254796862
-0.00040877380927528
-0.000382163723650059
-0.00034985561732099
-0.000303351145345093
-0.000251933553460935
-0.00019327795427919
-7.54262519354701e-05
3.67271855763531e-05
0.000135763715940087
0.000170138906256046
6.93255214600045e-05
-2.38255674817341e-05
-0.000102910404528663
-0.000180506930901743
-0.00028549886518888
-0.000443704759384577
-0.00065443408257851
-0.000866237367343441
-0.00104877368399965
-0.00112702458723288
-0.00111354992193492
-0.00085022786466327
-0.000729190587832023
-0.000597138990506308
-0.000883552544234406
-0.0013866793252825
-0.00242043338078566
-0.0028643581771206
-0.00312828180517784
-0.00160704809576526
0.00151112411298468
0.00594097632813539
0.00605198274807075
0.00389882908137045
0.00225424800442045
0.00034384872066513
0.00277446880869322
0.00272438173633352
0.00172879109930576
0.000464490457505967
7.25742939109951e-05
3.88988344185814e-05
3.24923209090036e-06
-2.38602168509082e-05
-3.64176987515171e-05
-4.94662104876331e-05
-6.90735487868251e-05
-0.000101362766530766
-0.000147685679869341
-0.000204775912924418
-0.000272848017477711
-0.000348105646806078
-0.000431749266241315
-0.000526961121747767
-0.000634857275723233
-0.000750621576168586
-0.000877746544818161
-0.00101969746573055
-0.00119237188510391
-0.00138011761123131
-0.00141859210214675
-0.00143795767219865
-0.00149633968986043
-0.00148558270708822
-0.00147327151014967
-0.00148068552641763
-0.00145663199882279
-0.00143219705303966
-0.00140646718881976
-0.00137978034714048
-0.00135271241270452
-0.00132570306568109
-0.0012990936471061
-0.0012731528767137
-0.00124812608096834
-0.00122419515941421
-0.00120148218043457
-0.00118004399888393
-0.00115986286362681
-0.00114084007506891
-0.00112277102149873
-0.00110547931626376
-0.00108892395044498
-0.00107311889156228
-0.00105798971721464
-0.00104343909424865
-0.0010292312300401
-0.00101505709110206
-0.00100077132670332
-0.000986428225582988
-0.00097210913814944
-0.000957783980153966
-0.000937376819352023
-0.000910180882009707
-0.000895448555740106
-0.000880614887274601
-0.00086569129482423
-0.000850715297938852
-0.000835701050940008
-0.000820660996248937
-0.000805573498495562
-0.000790450575835166
-0.000775297350876742
-0.000760120467844605
-0.000744922768148674
-0.000729699472011903
-0.000714441907459506
-0.000699141037890615
-0.000683789198427762
-0.000668361362463637
-0.000652821515730634
-0.000637122607765055
-0.000621216559012747
-0.000605032415225647
-0.00058847503720532
-0.000571417666955447
-0.000553672758588595
-0.000535063579516744
-0.000515177653584837
-0.000493804702100348
-0.000469848659087711
-0.00044329926317981
-0.000410982456729874
-0.000364357233709269
-0.000312935686224797
-0.000253211400545782
-0.000131860963153683
-7.58832945737479e-06
0.000112390671654242
0.000193388945211167
0.000136662579235934
7.0670953395467e-05
1.29230497510987e-05
-4.35960838359023e-05
-0.000126596496818776
-0.00026510204331289
-0.000463866034351726
-0.000672039791858113
-0.000865727910126083
-0.000965575715811676
-0.00098982215092195
-0.000744146996379535
-0.000622754767165635
-0.000421453798884903
-0.000694849983120644
-0.00108899524746244
-0.002277870964375
-0.00289736139134208
-0.00365747683710719
-0.00242814049028245
0.000672495094234741
0.00676111293916692
0.0079682229222865
0.00611538054960043
0.00398894398932805
0.000885647518247362
0.00345953339706918
0.00433721701738939
0.00308539341595611
0.00101644256826249
0.000189566988674292
8.89146528667486e-05
2.00797338525886e-05
-2.11461565843959e-05
-3.67900571477749e-05
-5.02173456246914e-05
-7.13085997059641e-05
-0.000108225259005135
-0.000162098943714434
-0.000228985315518573
-0.000309672768184747
-0.000399272122540142
-0.000500611901375391
-0.000616077751016657
-0.000744863696411496
-0.00088427116716023
-0.0010407909981565
-0.00121895848838541
-0.00142805348889412
-0.00161395140623071
-0.00163001494943681
-0.0016351930524662
-0.00167271257877056
-0.00164646353962403
-0.00161756418315086
-0.00161147335320763
-0.00157794194652157
-0.00154441577529035
-0.00151044692853234
-0.00147630912461198
-0.00144255239619212
-0.0014095790540649
-0.00137769769782067
-0.00134714227543039
-0.00131812550775629
-0.00129079330302956
-0.00126522885133465
-0.00124144687201884
-0.00121938916990606
-0.00119891678641804
-0.00117978408344771
-0.0011617557081978
-0.001144735308181
-0.00112869822414156
-0.00111352689284877
-0.00109909288458815
-0.0010851385471764
-0.00107131780889846
-0.00105744106216425
-0.00104353436252875
-0.0010296688926228
-0.00101579957836282
-0.00098608268136443
-0.000967217018969506
-0.000952817040136027
-0.00093835043479162
-0.000923783504693025
-0.000909132305918108
-0.000894402271539214
-0.000879602324827701
-0.000864714559562789
-0.000849749417057719
-0.000834710459378431
-0.000819605933763071
-0.000804442823430987
-0.000789217947535118
-0.000773922889620466
-0.000758551521145405
-0.000743100703059119
-0.000727548474346911
-0.000711860641456638
-0.000695992238949994
-0.000679900052935251
-0.000663516139775433
-0.000646750374385382
-0.000629474393344684
-0.000611508854715755
-0.000592669768179826
-0.000572563224426876
-0.000550953480150348
-0.000526780703198316
-0.000499969891412781
-0.000467368585433334
-0.000421024529931829
-0.000369330496555521
-0.000308051551453515
-0.000185290791567225
-4.89630984351034e-05
8.79267010871409e-05
0.000201932744997533
0.000185381408077839
0.000146184928780027
0.000108709687398377
7.07866578599688e-05
5.60600950637576e-06
-0.000116781156493863
-0.000303021298612712
-0.000502277952314558
-0.00069651427147534
-0.000801993407208878
-0.000844161225220119
-0.000610741059074236
-0.000495623039785097
-0.000233620420388972
-0.000457348996866883
-0.000732674214868624
-0.00196441129564111
-0.00266013262684329
-0.00413905088349686
-0.00316357189517124
-0.000810648113647798
0.00615028778307141
0.00912896882727891
0.00808679107794102
0.0057336336950074
0.00141763906329423
0.00384552929897044
0.00569122594082828
0.00488958865819983
0.00200751446672393
0.000387136289128414
0.000171398743798153
5.39602523595697e-05
-5.90644893894947e-06
-2.61471491650451e-05
-4.1027946527735e-05
-6.54983111376253e-05
-0.000109162095970955
-0.000172383189735555
-0.000250416743210384
-0.000343995197858283
-0.000447563820723387
-0.000565653175732732
-0.000699748183504802
-0.000847799647497432
-0.00100960956694773
-0.00119352012524682
-0.00140326836907661
-0.00163998809540266
-0.00181918397891451
-0.00181576277438793
-0.00180748691013627
-0.00182598664628802
-0.00178705730245053
-0.00175057048248497
-0.00172711249652696
-0.00168578930207918
-0.00164499317754448
-0.0016045109388458
-0.00156453292859472
-0.00152558446273396
-0.00148802764499001
-0.00145213736943256
-0.00141811006363576
-0.00138612493932711
-0.00135629222794677
-0.00132865845346165
-0.00130320064082269
-0.00127982619486528
-0.00125836409408983
-0.00123853581700782
-0.00122005288636685
-0.00120276872602326
-0.00118662819034833
-0.00117148044146669
-0.00115717625822423
-0.00114344694005928
-0.0011299156768854
-0.0011163520210753
-0.00110275842019615
-0.00108920291029108
-0.00107121064105912
-0.00103974368637034
-0.0010257861820028
-0.00101157332681261
-0.000997299169967262
-0.000982905944595271
-0.000968396191333445
-0.000953768730256522
-0.000939030162021259
-0.000924166353584317
-0.000909187738317733
-0.000894096709148248
-0.000878903206624625
-0.00086361818341172
-0.000848240359753527
-0.000832761536072204
-0.000817177883510764
-0.000801490336978643
-0.000785679313124262
-0.000769711974994199
-0.000753544186090846
-0.000737136690608288
-0.000720422588517751
-0.000703315834275697
-0.00068568292174084
-0.000667352214145432
-0.000648124606168756
-0.000627627170025973
-0.000605578747792981
-0.000580971025900656
-0.000553605593935872
-0.000520429454800136
-0.000484138145531964
-0.000421822448091725
-0.000358077840072444
-0.00023444117760168
-8.58503842322556e-05
6.52959820300581e-05
0.000201920297118857
0.000220333677526778
0.000206499482512841
0.000187814486053123
0.000166039687940323
0.000115030834341139
5.16225844002222e-06
-0.000169813732258876
-0.000358559527900561
-0.000548130825014088
-0.000651260823374494
-0.000698963253272487
-0.000508640189295248
-0.00036219344934371
-4.73002266405624e-05
-0.000215821094790315
-0.000368852305466796
-0.0015630618224904
-0.00223934093464346
-0.00408818723255502
-0.00357790072819673
-0.00233683357813122
0.00428500715114758
0.00936723383440911
0.00959088132551442
0.00727477123480791
0.00201239421236287
0.00408332042846519
0.00652766420518881
0.0071709628116508
0.00319212016245372
0.000656872700239551
0.000289457974697275
0.000107793119276251
2.31838740921125e-05
-5.75215320336638e-06
-2.53889116653846e-05
-5.60379647102731e-05
-0.000107890596935905
-0.000180620415127096
-0.000269312692931929
-0.000374652057498962
-0.000491117466264738
-0.000624722484960332
-0.000776019183109742
-0.000942152976480364
-0.0011252435430398
-0.00133439614159656
-0.00157125973741554
-0.00182894330200243
-0.00199971540435181
-0.00197993715672051
-0.0019594270801772
-0.00196120201401036
-0.00191182192274334
-0.00188477832260421
-0.00183138625871828
-0.0017836900110877
-0.00173708441248092
-0.00169147074338173