/*--------------------------------*- C++ -*----------------------------------*\
  =========                 |
  \\      /  F ield         | OpenFOAM: The Open Source CFD Toolbox
   \\    /   O peration     | Website:  https://openfoam.org
    \\  /    A nd           | Version:  7
     \\/     M anipulation  |
\*---------------------------------------------------------------------------*/
FoamFile
{
    version     2.0;
    format      ascii;
    class       volScalarField;
    location    "20000";
    object      k_diff;
}
// * * * * * * * * * * * * * * * * * * * * * * * * * * * * * * * * * * * * * //

dimensions      [0 2 -3 0 0 0 0];

internalField   nonuniform List<scalar> 
15600
(
0.000998131370478949
0.000968784491271802
0.000694277546813981
0.000335986554990087
0.000107170493910427
4.68448863936512e-05
4.13355218665008e-05
2.61182700170241e-05
1.89861723423403e-05
1.62748196725301e-05
1.58038498435531e-05
1.66918044209013e-05
1.84093435487389e-05
2.11428707405471e-05
2.52138252378318e-05
3.10081050279894e-05
3.86410210845116e-05
4.85487798457052e-05
6.08583311286441e-05
7.55481670819277e-05
9.29931359621247e-05
0.0001138567629938
0.00013760677863806
0.000163360357844135
0.000190769269053793
0.000222050380737483
0.000274887869630258
0.000345025588484704
0.000408655642917969
0.000465633552855963
0.000517753011676389
0.0005658529131577
0.000610436638424901
0.000652080930396118
0.000690748870922018
0.000725186045283307
0.000755277625492373
0.000781018261736311
0.000802429513924718
0.000819589565320068
0.00083262012199516
0.00084169780945167
0.000847047365701459
0.000848932708145402
0.000847651955871748
0.000843509435247657
0.000836817301142558
0.000827851878763025
0.000816899581692392
0.000804285358905405
0.00079034207855611
0.000775362979386129
0.000759610052242943
0.000743230538091392
0.000726357200045619
0.000709173634281863
0.000691878676919732
0.000674607583914664
0.000657447586281559
0.000640476308446414
0.000623815167855447
0.000607513299165237
0.000591584698151603
0.000576057544114086
0.00056093773900343
0.000546248528949783
0.000531978185110042
0.000518124374875602
0.000504685552159877
0.000491654092477938
0.000479013464640882
0.000466750341164179
0.000454849328672724
0.000443287594090585
0.000432041196508154
0.000421081247514946
0.000410381636980844
0.000399905450355951
0.000389619545616646
0.000379474352387059
0.000369432260905729
0.000359422808200277
0.000349405208388273
0.000339264553075112
0.000328963500491022
0.000318294506154978
0.000307242582209409
0.00029539380131185
0.000283089183000521
0.000269958922742093
0.000255801476841174
0.000239031258753242
0.000219664113732611
0.000193818952903446
0.000188415941355568
0.000223016848623258
0.000263312826901259
0.0003083114973319
0.000357011517516284
0.000412998485287166
0.000480177661717444
0.000550389875046845
0.000611819511653028
0.000662059971650152
0.00069817932865442
0.00071419047278823
0.000727812874243347
0.000754574261026802
0.000794134723561953
0.00085608675257181
0.000953720351642254
0.00108591735089322
0.00121274347598641
0.00134735571495656
0.0014420893034713
0.00142226713299723
0.00123071110920444
0.0010279609234397
0.000874268336633906
0.000883398579822929
0.00543442897248111
0.00528577691531082
0.00379117104012418
0.00183878145890105
0.000589402187704373
0.000256858821804566
0.000226156548291553
0.000143247575212688
0.00010408121338469
8.90925206014503e-05
8.64093345899892e-05
9.11772914513433e-05
0.000100481678718343
0.000115300084435272
0.000137383558048068
0.000168839959657138
0.00021029727323373
0.000264116584366544
0.000331013646310293
0.000410848077672941
0.000505609022475307
0.00061892347990323
0.000748003260915564
0.000888043911419436
0.00103695463592796
0.00120594378779701
0.00148912131456902
0.00186459257311251
0.00220542786878679
0.00251061705581693
0.0027899925872886
0.00304805303059921
0.00328755852233909
0.00351171923181075
0.00371519097851371
0.00389584506702381
0.00405378799896728
0.00418903726990054
0.0043017516340568
0.00439235296093277
0.00446148142640614
0.00451004452439547
0.00453918810347521
0.00455025439153122
0.00454475211349619
0.00452422882401901
0.00449026231491927
0.00444426707935485
0.00438772111759443
0.00432230027367021
0.00424971667558605
0.00417149320567085
0.00408898040759021
0.00400296214808278
0.00391415231870837
0.00382352393358536
0.00373212309665373
0.00364067183287705
0.00354965405669644
0.0034594966350043
0.00337085404131718
0.00328399810019533
0.00319902585144933
0.00311609589764228
0.00303524822054496
0.00295668221741925
0.00288021547427446
0.0028059070060283
0.00273376270989675
0.00266375043574534
0.00259579179156057
0.00252982189045612
0.00246576485286857
0.00240350691288008
0.002342925022209
0.00228387221496742
0.00222621143474343
0.00216975500408578
0.00211432610996748
0.00205967297486464
0.00200558904385688
0.00195172126766194
0.0018978336851362
0.00184336074629566
0.00178805405343569
0.00173091017590812
0.00167172888368709
0.00160853043915766
0.00154206234969535
0.00147085137749424
0.00139406076723089
0.00130326346364763
0.00119838294996808
0.0010589134226937
0.00103020476767859
0.00120629089020873
0.00141908595064391
0.00165697636457296
0.00191610128623294
0.00221373169205945
0.00256883698344253
0.00294261788683132
0.00327571072629565
0.00355279983043267
0.00375780870590014
0.00386080848616648
0.00394144512849332
0.00408981539997414
0.00430758552983376
0.00464730201846341
0.00517640881792351
0.0058883057033195
0.00657859300527049
0.00730746091554588
0.00781724244225001
0.0077084584894011
0.00668346572735913
0.00559899636049968
0.00477157364014979
0.00482340544223664
0.012936222030679
0.0126344402126529
0.00911088753161644
0.00445161677340822
0.00144075661244822
0.000621610993795286
0.000545599270233611
0.000346729849929433
0.000251926299669252
0.00021527245603727
0.000208477582374174
0.000219632515767311
0.000241691835827949
0.000276787611428178
0.000329069757029968
0.000403356159249047
0.000500924410231864
0.000626877464242615
0.000782442212688148
0.000966596158565281
0.00118325658232871
0.00144017820105776
0.0017310303530857
0.00204496503477311
0.00237598729377813
0.00274669204466334
0.0033559220432765
0.00415620355713563
0.0048794522250484
0.00552982267110427
0.00612849179072489
0.0066855766133893
0.00720705368249454
0.00769113991847985
0.0081217482296327
0.00851023816380155
0.0088556107522387
0.00915749255938063
0.00941571404846741
0.00963050161665184
0.00980248216537921
0.00993278753195205
0.0100230408585783
0.0100753060707861
0.010092035554712
0.010075869079413
0.0100295775569876
0.00995575063545401
0.00985721144074299
0.00973725437574979
0.00959931227783968
0.00944654358369073
0.00928178716897204
0.00910684290525322
0.00892339024974167
0.00873363719773595
0.00853994640831204
0.00834404682691837
0.00814722767736669
0.00795061171627282
0.00775579745596524
0.00756355059655623
0.00737430246779079
0.00718884798893029
0.00700730288998672
0.00682941836929545
0.00665559706896734
0.00648602814786273
0.00632083173180909
0.00616003429945054
0.00600355784205875
0.00585133245733285
0.00570325863583032
0.00555915682156525
0.00541881043565969
0.00528195559674718
0.00514832983862151
0.00501758366712328
0.00488935793094049
0.00476317355113763
0.00463858659246763
0.00451493473668679
0.00439167339772686
0.00426776912835622
0.00414255849453823
0.00401425964534188
0.00388210176095235
0.0037426240069346
0.00359367263831299
0.00343250354585141
0.00325911765201041
0.00305580777402238
0.002821486192811
0.00251162850161822
0.0024486284100471
0.0027928298364714
0.00323830289342723
0.00374300958871359
0.00429911421090729
0.00493551896200554
0.00568511087281817
0.00648323342554658
0.00721878445195307
0.00785303155652421
0.00835291179981566
0.00866365326575951
0.00889865831439215
0.00927004248506321
0.00980074543439856
0.0106111526841084
0.0118368496145217
0.0134499712948231
0.0150459445211963
0.0167254206673219
0.0179087471969773
0.0177201908104081
0.0155623335837498
0.0132605508748539
0.0114277696825904
0.0115694069152525
0.0214556056761659
0.0210535856859125
0.0154478068218359
0.00775083676289333
0.00256274906064191
0.00107893412019074
0.000941973692189537
0.000601165021963747
0.000436843778905377
0.000372314500704916
0.000359785689096614
0.000377929265202203
0.00041453306065052
0.000472460799641149
0.000558260003994832
0.000678652678799302
0.000834052603606934
0.00102985763070733
0.00126461648626437
0.00153283837502423
0.00183744273795378
0.00218793057827901
0.00257543977510156
0.00298687115368635
0.00341414635244414
0.00390436456332057
0.00471637755783912
0.00575986472138194
0.00669374564834569
0.00755522928203728
0.0083598492436287
0.00912061665470509
0.00984400219989091
0.0104842957322967
0.0110837901457779
0.0116351393615158
0.0121362877185369
0.0125853935568081
0.012981018302495
0.0133222957188514
0.0136089716309144
0.0138415079456789
0.0140210673423245
0.0141494542279018
0.0142290383939705
0.0142625528856583
0.014252988440028
0.0142032667149426
0.0141166630215145
0.0139970689366544
0.0138486197301623
0.0136752517187432
0.0134805968614523
0.0132672035208056
0.0130374716607494
0.0127944083427269
0.012541236687494
0.0122804962613908
0.0120143172417879
0.0117445309885756
0.0114735554505949
0.0112027463520341
0.0109357231793884
0.0106693450473502
0.0104047824744408
0.0101436306631927
0.00988636266634674
0.00963350594186838
0.00938550068891175
0.00914264523608337
0.00890509329876736
0.00867296976154892
0.00844634695165546
0.00822519211684689
0.00800939719428018
0.00779879359564324
0.00759318535196653
0.00739229186451888
0.0071957797930428
0.00700321527079189
0.00681414102122411
0.00662794553611027
0.00644402734850979
0.00626143815254441
0.0060793776807466
0.00589623812093973
0.0057109703828508
0.00552045335660177
0.00531984988248291
0.00509997194641487
0.0048676969670744
0.00460153152791676
0.00430230611078758
0.00390752347941326
0.00382259134313087
0.00418872630935142
0.00471540917949843
0.00533459553766494
0.00603531712701835
0.00683599228173192
0.00776586215924839
0.008770992888572
0.00973554558987388
0.0106061121776018
0.0113499750693324
0.0119204270884255
0.0123850990398667
0.0130188422913763
0.0139020805249513
0.0152068029060354
0.0170984535759991
0.0194828770797312
0.0218803513657496
0.024389839896983
0.026200484689369
0.026168567833116
0.023709053906167
0.0212030880140834
0.0189991092728489
0.0194361866089537
0.0281997072510355
0.027846123631343
0.0212309993650253
0.0113913221206234
0.00397294435766798
0.00160308352817039
0.00138488282993963
0.000888250776380207
0.00064531732179129
0.000547616258356128
0.000527184747694071
0.000550637406426111
0.000599612539536811
0.00067614079571849
0.00078741801685381
0.000938488305211238
0.00112457542502283
0.00134587998300907
0.00159425517062838
0.00186023737716613
0.00215070072212309
0.00248172986507139
0.00284976427814557
0.00325079507624183
0.0036972092508713
0.00431101308280701
0.00533813247785062
0.00655039645442672
0.00759588132014715
0.00857236209922097
0.00947247220783374
0.010311945365631
0.0110677832334773
0.0117532280394809
0.0123871381548316
0.0129595544319792
0.0134698987539796
0.0139180958689411
0.0143045976736857
0.0146304111505249
0.014897066367836
0.0151066382326227
0.0152616839537206
0.0153651589377994
0.0154203266380492
0.0154306098824712
0.0153994914347352
0.015330271764937
0.0152263557182153
0.0150914805304086
0.0149294699759919
0.0147439139435589
0.0145380976564054
0.0143144469329248
0.0140751468723649
0.0138227642473951
0.0135600257066971
0.0132891466022623
0.0130121382510292
0.012730638300654
0.0124467665020708
0.0121679091530287
0.0118845453680376
0.0116003991540588
0.0113174362918318
0.0110363847022347
0.0107578485393853
0.0104823953215997
0.0102105476487657
0.00994271085413706
0.00967917684715876
0.00942019741139179
0.0091659859123143
0.00891667253239297
0.00867231503587928
0.00843292291334971
0.00819847647037154
0.00796889772751602
0.00774405541929357
0.00752374936422223
0.00730775729890284
0.00709575875014338
0.00688745236090754
0.00668229179085591
0.00647990222128013
0.00627928820521701
0.00608011582171292
0.0058803019435238
0.00568302295037109
0.00546351270904314
0.00524188503412523
0.0049980414062392
0.00474657616032162
0.00441581133223557
0.00428699295469234
0.00450457999292029
0.00492272124639833
0.00545600741739447
0.006093514365472
0.00682879533023112
0.00767972001927808
0.00861998680095616
0.00955193664475697
0.0104089870992668
0.0111583779398004
0.0117673280096485
0.0122743779437312
0.0128959530029912
0.0138127543713957
0.0152246629027767
0.0172867963612318
0.0198653628752467
0.0224723801787256
0.0251629913327116
0.0271364057533906
0.027464424637656
0.0259512622925538
0.0251302530244603
0.0244266240108289
0.0258404725174503
0.0290716747450351
0.0292188911715739
0.0239397660202127
0.0145680831950687
0.00573252577344452
0.00219349548219659
0.00185352813631535
0.00119484837852255
0.000866458697956123
0.000730180780561121
0.000698033570846418
0.000721545608388304
0.00077478390378608
0.000856418120233242
0.000971202512510868
0.00111883918066024
0.00128859415687148
0.00147932023174314
0.00168652687595748
0.00191324554431344
0.00218219878456343
0.00251393382443835
0.00290265616272521
0.00335247953842936
0.00390623756680943
0.00473234611665462
0.00597806321433775
0.007243200867814
0.00826354582037962
0.00919670722264622
0.0100277883044855
0.0107848957224637
0.0114182222127408
0.0120174398875569
0.0125481862813447
0.0130145220815214
0.013418517939299
0.0137623303993198
0.0140482906077524
0.0142789069906538
0.0144568830517769
0.0145851443047454
0.0146668138085997
0.0147051641048992
0.014703562395194
0.0146653967801274
0.0145940055960165
0.0144925137166053
0.014363974047652
0.014211562699093
0.0140384663379161
0.0138476487489867
0.0136418178016055
0.0134230542532115
0.0131931325301208
0.012953995081742
0.0127076822622112
0.0124558819427117
0.0122002326447202
0.011941957113195
0.0116896773414461
0.0114343991595345
0.0111760389678544
0.0109183966215803
0.0106619440072989
0.0104071938331483
0.0101545688914442
0.00990442665829866
0.00965711235425077
0.00941288992233093
0.00917194789362608
0.00893443955362088
0.00870050129297346
0.00847021516716151
0.00824361047239743
0.0080206840074483
0.00780141659758703
0.00758574950764284
0.00737358893004399
0.00716478181516301
0.006959177505668
0.00675652721302353
0.00655665065029678
0.00635910016294953
0.00616371366918194
0.0059696149353053
0.00577690668085052
0.00558361897205011
0.00539337593926933
0.00519396769370652
0.00499125910468563
0.00477148546995985
0.0045631984300316
0.00428671403259793
0.00406582384825993
0.00413939333184714
0.0044586383688097
0.00491051420171894
0.00547534353157713
0.00613435645525521
0.00690024538804581
0.00776753445809285
0.00865663218729791
0.00948999651762439
0.0102079204884537
0.0107376947978826
0.0110818648875151
0.011317817736077
0.0117097967245307
0.0124968922262645
0.0138081404909895
0.0157376969715953
0.0176571529059189
0.0195975869742025
0.0209048542070182
0.0211980764098795
0.0205303866243517
0.0216060820543373
0.0235402511659923
0.0265327492633969
0.0217972556990774
0.0231312600688214
0.0215666523248372
0.0158855718144958
0.0078094496986787
0.00288171259111145
0.00233128557008792
0.00150799390670399
0.0010875285773735
0.000906809540404435
0.000856688546898997
0.000871065704102439
0.000915146548365085
0.000983302326320989
0.00107790249740283
0.00119753840592872
0.00133616110655586
0.00150415146557484
0.00170697270506358
0.00195484092422993
0.00226707947961443
0.00264833476556106
0.00308419777868478
0.00358993116903198
0.00422451893973742
0.00513738279804021
0.00635291741001697
0.00744528012584323
0.00831122168407062
0.00910363360103026
0.00980105146409678
0.0104202704716113
0.0109527093408404
0.0114436111989714
0.0118737050801781
0.0122466101935316
0.0125647405470831
0.0128304724284723
0.01304626228437
0.013214626746686
0.0133381818101058
0.0134196687112808
0.0134619480404064
0.0134679684575023
0.0134407273628526
0.0133832340942241
0.0132984515557025
0.0131891687106586
0.0130580378628956
0.0129077450884695
0.0127409890881022
0.0125602822865215
0.0123679461197559
0.0121658429322874
0.0119555055425808
0.0117385046519691
0.0115164727896277
0.0112907991495586
0.0110629213621728
0.0108378355443741
0.0106187774569622
0.0103911623223756
0.0101648104568752
0.00993969388406762
0.00971617758953364
0.00949463200725905
0.00927536322227497
0.0090585970172038
0.00884455447504763
0.00863339363392524
0.00842521542407598
0.00822008495627061
0.00801805632569258
0.00781914348554845
0.00762331694372848
0.00743052152522262
0.00724068962958682
0.00705372380477238
0.00686949773934578
0.00668783423450568
0.00650856013915745
0.00633141643183657
0.00615620687095844
0.00598249674509516
0.00581010938404856
0.00563821889400609
0.00546691192238614
0.00529432998516868
0.00512103214075031
0.00494919298624748
0.00476974807760663
0.00457448451655083
0.00439512242973577
0.00415441473598262
0.00387926215111897
0.00385831827511067
0.00410084333591427
0.00449068971049471
0.00499825833369052
0.00560205581122829
0.00631115825855124
0.0071353044524308
0.00802327901961495
0.00891447856643411
0.00974392282678373
0.010419288735846
0.0108088271867315
0.011025174446297
0.0110822644267096
0.0112669570564405
0.0116874747548646
0.0126803212011374
0.0135384020185335
0.0143028228181557
0.0143346042685698
0.0136297861105042
0.0120294327349276
0.0126573905843472
0.0154146022293622
0.0190500309045448
0.00960033549195682
0.0123530501428328
0.0150079570584845
0.0143464031526814
0.00985855156080219
0.00374701351784984
0.00281227345581891
0.00181722853240316
0.00129648346058952
0.00106435652982678
0.000988821454607736
0.00098489130780334
0.00100963593063552
0.00105675848623791
0.00113122838866022
0.00123802216898058
0.00137952969490472
0.00156996955848908
0.00180671077692003
0.00208939420253426
0.00242575585444921
0.0028121097753471
0.00324063942706965
0.00373972961609386
0.00436502603192671
0.00522804061548547
0.00627985374227752
0.00717200604977078
0.00790370146691339
0.0085815766338945
0.0091806180435222
0.00968970113560057
0.0101707909668995
0.010590959977484
0.0109577829403651
0.01127417607659
0.0115422768563567
0.0117642217905771
0.0119422378833032
0.0120786016514231
0.012175670551866
0.0122359038718139
0.0122618600639984
0.0122561712882546
0.0122215095752555
0.0121605686206368
0.0120760133703458
0.0119703753046079
0.0118460182364008
0.0117052851433483
0.0115505444310201
0.0113840044929762
0.011207732863244
0.0110234595125685
0.0108325820760014
0.0106364466555753
0.010436430799599
0.0102337464320905
0.010029720700361
0.00983881578108169
0.00963818053842157
0.00943639093032857
0.00923605856020905
0.00903725557484819
0.00884028758729987
0.00864545565053859
0.0084530147545388
0.00826313286623968
0.00807597355922826
0.0078916484282624
0.00771022293827783
0.00753172605803782
0.00735617678432488
0.00718356204592517
0.00701383083627885
0.00684691075017749
0.00668271789498542
0.00652114542368819
0.00636206053779789
0.00620528982661904
0.00605066086794988
0.00589793731844401
0.0057469265924864
0.00559725749489375
0.00544874909452379
0.00530072964008672
0.00515324013455614
0.00500479098300581
0.00485604569647204
0.00471094456991538
0.00455814911335985
0.00439355168693006
0.00424592417536815
0.00405415199240444
0.00377878825397216
0.00369127086613879
0.00385771278852052
0.00417992926399647
0.00462329843432417
0.00516395455812567
0.00580521409736171
0.00656523365162584
0.00741851416149384
0.00833031290060759
0.00925271503950893
0.0101238795466757
0.0107649874199849
0.0113119422823752
0.0115745918541974
0.0118193300194021
0.0120761148123686
0.012832999091171
0.0133513411979776
0.0137048669354624
0.0129955554715181
0.0110205747859352
0.0066965807733599
0.0041222563821597
0.00430642716121903
0.0065717183806476
-0.00246034664682803
0.00173612301320751
0.00740090182592131
0.0104855957559802
0.0111296400947619
0.00490583170949729
0.00331129784799627
0.00212111980363673
0.00148729355548347
0.00119752916314381
0.00109235301363761
0.00106880266900513
0.001078045936869
0.00111694673224849
0.00119363772140644
0.00131531754570054
0.00148125345521811
0.0016956462388905
0.00194356613805015
0.00222028664687251
0.00253325325067882
0.00288219149688933
0.00326949811551547
0.00372735378024479
0.00429789709166735
0.00506485529823054
0.00595362407726586
0.00670020974007461
0.00734319363541064
0.00794392236587324
0.00848073353542962
0.00893644723526666
0.00936462661187355
0.00973935371510561
0.010066132847836
0.0103473915993688
0.0105850110812182
0.010780919294035
0.0109371462952526
0.0110557760129781
0.0111389625235842
0.0111889500683222
0.0112080697587485
0.0111987175029759
0.01116332315614
0.0111043437944645
0.0110242209105135
0.0109252968696175
0.0108097286278415
0.010679607902921
0.0105370619533454
0.010384073854134
0.0102225213377051
0.0100540407841859
0.00987994582508512
0.00970142904525379
0.00951968265396499
0.00933579308089459
0.00915685581641771
0.00898481100536035
0.00880169486241232
0.0086200692667803
0.00843995718145425
0.00826148055137051
0.00808490833864642
0.0079105023849774
0.0077384928028837
0.00756902030744712
0.0074022198748349
0.00723818252044893
0.00707696133104837
0.00691857311678768
0.00676302495625251
0.00661029748721061
0.00646033793141609
0.0063130756786541
0.006168429825774
0.00602630174343272
0.00588657000271697
0.005749081614956
0.00561368388201652
0.00548017993938206
0.00534840298030472
0.0052180624823937
0.00508900223245617
0.0049607263662929
0.00483326877481398
0.00470555456574539
0.00457823100732851
0.00445678973115516
0.00432713706317997
0.00419124175961132
0.00407234110981801
0.00393026498637768
0.00368162893494393
0.00355235840056144
0.00365345469845389
0.00390992201393643
0.00428748985010955
0.00475998217832781
0.00532441953707799
0.0060026942584864
0.00678726953578552
0.00766268956410393
0.00859683280417893
0.00956455540223326
0.0104114881207427
0.0112605791242989
0.0118804122116129
0.0125245377957574
0.0131042850205572
0.0142948132772834
0.0153187956858914
0.0163874296496585
0.0162659374798524
0.0142208937480675
0.00715228350073602
0.000612314487775263
-0.00146577179573204
-0.00277594512695793
-0.00737624073996655
-0.00582508975767611
0.00100901783855489
0.0059165827527791
0.0108545527126883
0.00642662284906306
0.00385968907899481
0.00243082862696602
0.00166720664245534
0.00131611087837079
0.00118358785777987
0.0011484923621833
0.00115559411460076
0.00120238209680123
0.0012940434356432
0.00143182022510504
0.00160691988642083
0.00181571186970884
0.00204151674718384
0.00228380868538504
0.00255380699288569
0.00285524276722735
0.00319576684816523
0.00360434033604588
0.0041099904916652
0.00478169796981506
0.00554089638510963
0.00618798149696612
0.00677139187473029
0.00731814507928955
0.00781371442501921
0.00823041196226179
0.00862181460816036
0.00896486833402253
0.00926388700044567
0.00952099800653821
0.00973790556604129
0.0099163981836827
0.0100583681752804
0.0101657666120526
0.0102406020874579
0.0102849632805559
0.0103010136761831
0.0102909719560623
0.0102570832118238
0.010201620009806
0.0101268470388035
0.0100349602185392
0.00992796077812529
0.00980774407338261
0.00967624685144331
0.00953527043009861
0.00938653498449338
0.00923160127835222
0.00907172661740079
0.00890798920621686
0.00874143150747294
0.00857303721899604
0.00841969578766261
0.00825610313195096
0.0080892916507318
0.00792383077607954
0.00775986139905413
0.00759753409674827
0.00743709136136486
0.00727876834049967
0.00712278049423579
0.00696925358319257
0.00681830582310248
0.00667001774151545
0.00652443866998629
0.00638158234274177
0.00624145282472874
0.00610403201271394
0.00596927234956782
0.0058371114522689
0.00570747812431411
0.0055802872759418
0.00545543449257299
0.00533279070924455
0.00521222875352858
0.005093591991848
0.00497674659375525
0.00486147673671446
0.00474766248559098
0.00463496365949496
0.00452342824777763
0.00441234691790831
0.0043023241386461
0.00419951333801266
0.00408897980122613
0.00397714862254363
0.00388139617975431
0.0037813272125022
0.00356709547049885
0.00341526747603427
0.00346546553052196
0.00366336628411437
0.00397876533213561
0.0043841372491556
0.00487106279648993
0.00546327075200014
0.00616585509133422
0.00697567767713508
0.00787025038376661
0.00884935071318655
0.00978436833705269
0.0108031571212454
0.0116707537609637
0.0126679248613894
0.0136358724100466
0.01532075795597
0.0170424343161125
0.0192290127109773
0.0202482626487698
0.0199536084315812
0.0121007929291186
0.0014467357349102
-0.0032224532242703
-0.00639095358982983
-0.00980305597704153
-0.00883202294731939
-0.00283194962967767
0.00172778593608764
0.00887456493357005
0.00819296624569031
0.0044722211620066
0.00275894716343912
0.00185209634955269
0.00143880919649319
0.00128388236036071
0.00124449976067911
0.00125616976392073
0.00131196064102224
0.00141075401164887
0.00154692060447419
0.00170826173649739
0.00189001495317971
0.00207983099415992
0.00228184100288779
0.00250923826928867
0.00276731572061312
0.00306500820381125
0.00342606536002233
0.00387033561501666
0.0044599635759896
0.0051190839270271
0.00569485449462886
0.00623479516986894
0.0067407071286154
0.00719929864280645
0.00759267346502154
0.0079564112255242
0.00827551426971987
0.0085535509813441
0.00879246654812512
0.00899384726751851
0.00915939257695948
0.00929090071993569
0.00939023327907019
0.00945929491035274
0.00950006054746555
0.00951456727756323
0.00950489650066466
0.00947314667603989
0.00942143978393021
0.0093518929128159
0.00926658236948997
0.00916738739042566
0.00905604229764377
0.00893432449498262
0.00880387991288081
0.00866628846426901
0.00852304384303879
0.00837536421410837
0.00822423809051759
0.00807057842232489
0.00791970023409749
0.00778188013029135
0.00762731219459687
0.0074740527614195
0.00732201629474413
0.00717141258373237
0.00702240965988416
0.00687522868248958
0.00673008390556399
0.00658718062786593
0.00644663518850398
0.00630855436785365
0.00617301241351996
0.0060400582442338
0.00590970604134122
0.00578196025007185
0.00565680657247603
0.00553420480939243
0.00541410246444509
0.00529643978191213
0.00518114585965359
0.00506813405987609
0.00495729807978966
0.00484853660825042
0.00474172895697885
0.00463677481711502
0.00453352148544335
0.00443188795150394
0.0043316618466059
0.00423291420899532
0.00413523610217161
0.00403918190362966
0.00394115860493504
0.00385607725225096
0.00376404443818212
0.00368648760120009
0.00361968533385766
0.00343902352057582
0.00327710130113925
0.00328907652002941
0.00343636099855035
0.00369469846306362
0.00403642103526239
0.00444902076976236
0.00495766741042335
0.00557717595055126
0.00631225886163917
0.00714595896159463
0.00809199521406418
0.00903959293464242
0.010080417353117
0.0110977328401031
0.0122944651520745
0.0135008021382767
0.0154820617875136
0.0176631106152725
0.020685481672554
0.0229318024524183
0.0247443089379471
0.0185389574840967
0.00623422894459886
-0.00244774206263581
-0.00756368502352089
-0.00998000815304027
-0.010339962259799
-0.00472759487740547
-0.000136127904023767
0.00581516315620769
0.00948638989893312
0.00509686631387063
0.00309854307852249
0.00204868523308098
0.00157448151158356
0.00139835828618969
0.00135329314492483
0.00136516945332499
0.00142036831510425
0.00151256278039003
0.00163207285567623
0.00176776524954821
0.00191646141352076
0.00207045870688862
0.00223627910524095
0.00242715449670559
0.00264838078479384
0.00290845603934244
0.00322633858234656
0.00361634430369955
0.0041373332540545
0.00471723482183164
0.0052383393859656
0.00574387236173248
0.00621693469157427
0.00662995469490402
0.00702028397817396
0.00736183973804484
0.00766161209393201
0.00792267104925494
0.00814685128763846
0.00833566148878735
0.00849074646930281
0.00861384084644845
0.00870674739505434
0.00877129636718599
0.00880937864154147
0.00882293406727145
0.00881393475870413
0.00878435902367224
0.00873620146327953
0.00867145055565672
0.00859208041438906
0.00849987201578944
0.00839642309732079
0.00828337226960546
0.00816222726348769
0.00803443713916215
0.00790143213108297
0.00776440308914966
0.00762426604762268
0.00748181426322193
0.00735269966177533
0.00721795295442434
0.00707521916582402
0.00693358742707897
0.00679306108579848
0.00665389303551702
0.00651626235803672
0.00638037173566492
0.0062464174372236
0.00611459681650731
0.00598501960685756
0.005857783765758
0.00573295913546892
0.00561059559660886
0.00549070922070456
0.00537330611642333
0.00525837652132577
0.00514588804399147
0.00503579815213691
0.00492805856518433
0.00482261178519755
0.00471938818892664
0.00461830197464249
0.00451927639439721
0.00442222173210189
0.00432706971211697
0.00423371957750034
0.0041421289521544
0.00405218798200531
0.00396399518909389
0.00387738296527142
0.00379285539748137
0.00370816409375362
0.00363491583478647
0.00355885307664159
0.00349576511144848
0.00345486134308015
0.00330401397690458
0.0031394076216764
0.0031229309576054
0.00322668524752033
0.00343289699104061
0.00371483441799264
0.00405733273193851
0.00448722040642616
0.00502739455331117
0.00568768187205572
0.00645460101982694
0.00734859326167215
0.008270186867023
0.00928519853778742
0.0103443893800127
0.0116099863062317
0.0129031311071444
0.0149670163377783
0.0173150206423789
0.0207179865833315
0.0236688899942329
0.0270811307204108
0.0237562065015032
0.0124334279310088
4.88944503767219e-05
-0.00636411282183361
-0.00822914356822921
-0.00997980275882242
-0.0057880070033029
-0.00143021753232214
0.00450001944141541
0.00968762232636231
0.00555380588202507
0.00342081907393283
0.00224507640359953
0.00171390501537619
0.00151431104152311
0.00145743727754301
0.0014621319459812
0.00150791315082649
0.00158500869393102
0.0016818386486374
0.00178990756581951
0.00190765507845433
0.00203070926442849
0.0021662599102472
0.00232664121011664
0.00251654435495573
0.00274356277048084
0.00302290723940032
0.0033658522136498
0.00382914732465688
0.00434409093808176
0.00482069079047273
0.00529718168880741
0.00574322401400451
0.00613652399243921
0.00650447640965412
0.0068273340263854
0.00711069187068939
0.00735726958982457
0.00756883598184987
0.00774685086130102
0.00789292869724847
0.00800876227600646
0.00809611800634652
0.00815677345491093