/*--------------------------------*- C++ -*----------------------------------*\
  =========                 |
  \\      /  F ield         | OpenFOAM: The Open Source CFD Toolbox
   \\    /   O peration     | Website:  https://openfoam.org
    \\  /    A nd           | Version:  7
     \\/     M anipulation  |
\*---------------------------------------------------------------------------*/
FoamFile
{
    version     2.0;
    format      ascii;
    class       volScalarField;
    location    "20000";
    object      nut;
}
// * * * * * * * * * * * * * * * * * * * * * * * * * * * * * * * * * * * * * //

dimensions      [0 2 -1 0 0 0 0];

internalField   nonuniform List<scalar> 
15600
(
2.03508392951601e-11
1.99052082550156e-11
1.48385687412495e-11
7.83387142738984e-12
2.85406812107432e-12
1.55532713658441e-12
1.8598258947244e-12
1.67269339457814e-12
1.76959708834846e-12
2.21980148840721e-12
3.08947490288312e-12
4.50214110553815e-12
6.63452098097938e-12
9.91520374660282e-12
1.50539865228165e-11
2.32748476945405e-11
3.63069515677069e-11
5.67370522650371e-11
8.76110871952033e-11
1.32104947895188e-10
1.9304455097766e-10
2.72367509157856e-10
3.67855832309916e-10
4.72772750614468e-10
5.78376578795258e-10
6.81764618322454e-10
8.41117986971255e-10
1.05575910235424e-09
1.25047427324582e-09
1.42484151654168e-09
1.58433613858993e-09
1.73152306990076e-09
1.86793997280089e-09
1.99534727729399e-09
2.11395517438161e-09
2.22010862012997e-09
2.31292763689704e-09
2.39238462978754e-09
2.45853044581957e-09
2.51159492863118e-09
2.55194162350374e-09
2.58010629595822e-09
2.59677520074145e-09
2.60275727669972e-09
2.59897049971601e-09
2.58635184160042e-09
2.56586676769702e-09
2.53836719806667e-09
2.50473549582346e-09
2.46597486002704e-09
2.4231157451562e-09
2.37706395457995e-09
2.32863265036758e-09
2.27827526996958e-09
2.22639973469784e-09
2.17357209942292e-09
2.12040729417688e-09
2.06732288508987e-09
2.01458617676121e-09
1.96243544128188e-09
1.91124462213885e-09
1.86116513714241e-09
1.81223823401905e-09
1.76455078836672e-09
1.71812075408546e-09
1.67301959686074e-09
1.62920910155913e-09
1.58668274593192e-09
1.54543681505163e-09
1.50544601121758e-09
1.46665873974354e-09
1.42903372855529e-09
1.39252329572e-09
1.35705652026652e-09
1.32255965747032e-09
1.2889431600669e-09
1.25612698955629e-09
1.22399646101373e-09
1.19245042129716e-09
1.16133452837222e-09
1.13053520591736e-09
1.09983180396066e-09
1.069103925452e-09
1.0379892674543e-09
1.00638518945406e-09
9.73632902594717e-10
9.39715126416308e-10
9.03311610885065e-10
8.65664990842892e-10
8.25514476669768e-10
7.82222101266406e-10
7.30940221549228e-10
6.71715637972448e-10
5.92683760486517e-10
5.78212409121908e-10
6.77745695418017e-10
7.64140483800006e-10
8.26904503382448e-10
8.56952851468492e-10
8.60390204980024e-10
8.42871099859971e-10
7.95236315826884e-10
7.17087098341383e-10
6.23324422966754e-10
5.24597103846469e-10
4.26318599463456e-10
3.41149998326917e-10
2.71780148424221e-10
2.14043602797188e-10
1.67211589095474e-10
1.2998331823753e-10
1.01150163013563e-10
7.75873349466504e-11
6.05574045727323e-11
4.78456866215674e-11
3.78686378552262e-11
2.86909637031909e-11
2.19670594513009e-11
1.79618245323057e-11
1.80001574706271e-11
3.89856366785539e-09
3.81376241359983e-09
2.84238104808703e-09
1.50351154123888e-09
5.50126723158916e-10
2.99384690530294e-10
3.57335884616169e-10
3.21894977917634e-10
3.40122325151122e-10
4.25972851536924e-10
5.92145517719247e-10
8.62335927806378e-10
1.27008412231663e-09
1.89704450878734e-09
2.87842932219694e-09
4.44814218086504e-09
6.93589816987276e-09
1.08363568397882e-08
1.67332653373165e-08
2.5234480171932e-08
3.68780235450629e-08
5.20409012815561e-08
7.030509066399e-08
9.03814745266658e-08
1.10585622743882e-07
1.30119094406422e-07
1.60235823303315e-07
2.01118112889651e-07
2.38228572076081e-07
2.71445213774321e-07
3.01840685754729e-07
3.2991067573966e-07
3.55953268160513e-07
3.80307800142317e-07
4.02957226358757e-07
4.23172789565087e-07
4.40876110368595e-07
4.56060266920936e-07
4.68732816154828e-07
4.78934158171004e-07
4.8672980028825e-07
4.92217553086748e-07
4.95523761752963e-07
4.96798256557392e-07
4.96211754752698e-07
4.9393923214183e-07
4.90161296126004e-07
4.85037909035463e-07
4.7873552769234e-07
4.7144404377296e-07
4.63358809810732e-07
4.54652172204189e-07
4.45478812425192e-07
4.35925702555481e-07
4.26071411410764e-07
4.16024688782014e-07
4.05903515199954e-07
3.95788406143746e-07
3.85731442092709e-07
3.75779086427541e-07
3.6600360524446e-07
3.56434706277608e-07
3.47081203464649e-07
3.37960359666641e-07
3.29076248888701e-07
3.20443082047246e-07
3.12054328550999e-07
3.03909080124052e-07
2.96006779695008e-07
2.88343216909085e-07
2.80908903294403e-07
2.7369623570919e-07
2.66696360644314e-07
2.59895997267917e-07
2.53281237535157e-07
2.46835203953165e-07
2.40542713659118e-07
2.34382118692638e-07
2.28334131098209e-07
2.22369611346939e-07
2.16466752055621e-07
2.10584004175126e-07
2.04697942782889e-07
1.98740583146303e-07
1.92691117344181e-07
1.86426366349245e-07
1.79939999618987e-07
1.72985482518364e-07
1.65769929283281e-07
1.58068279643375e-07
1.49771923689882e-07
1.39937717080381e-07
1.28591767203523e-07
1.13416685769631e-07
1.10752108984481e-07
1.29740682049822e-07
1.46299909028705e-07
1.5829510334859e-07
1.64048218934738e-07
1.64701838618149e-07
1.61305020834889e-07
1.52136361518575e-07
1.37154436215453e-07
1.1920055303735e-07
1.00307450435347e-07
8.15326688742076e-08
6.52397677735574e-08
5.19835570190697e-08
4.09523200928736e-08
3.20073114180174e-08
2.4888141632685e-08
1.93627813126765e-08
1.4848775825593e-08
1.1583703888774e-08
9.14325467323373e-09
7.22775612364732e-09
5.47474821847418e-09
4.19807598543335e-09
3.43797910816555e-09
3.44943460186384e-09
8.61989760529138e-08
8.43350394124124e-08
6.27603493350894e-08
3.33151099386479e-08
1.22804578839498e-08
6.68187002791234e-09
7.96293792459975e-09
7.18667821997101e-09
7.58646751836746e-09
9.4850646705131e-09
1.31651198878518e-08
1.91515492486168e-08
2.81786086061352e-08
4.20374767192329e-08
6.36929597644074e-08
9.82883223794695e-08
1.53020244248048e-07
2.38681566865714e-07
3.67967557276895e-07
5.53849005171e-07
8.07449899107862e-07
1.13675223741547e-06
1.53248492982959e-06
1.96606037271676e-06
2.39766485332965e-06
2.79869756283815e-06
3.42414445750827e-06
4.29435347590908e-06
5.0854812745547e-06
5.79271821103896e-06
6.44121591560611e-06
7.04189360119271e-06
7.6015326552958e-06
8.12759264327937e-06
8.61109987153796e-06
9.04420246676241e-06
9.42637318831552e-06
9.75729794040193e-06
1.00369102221567e-05
1.02657534124626e-05
1.04448631825485e-05
1.05759240125667e-05
1.06612145922748e-05
1.07035209460693e-05
1.07060902572382e-05
1.06723080586564e-05
1.06057135163018e-05
1.05094768378357e-05
1.03869610801192e-05
1.02420710258108e-05
1.00788682319086e-05
9.90098639717601e-06
9.71170961389729e-06
9.51293734310285e-06
9.30641160277858e-06
9.09452831550777e-06
8.87988788100873e-06
8.66430731739504e-06
8.44901294864994e-06
8.23510445979216e-06
8.02423341992931e-06
7.81713224707804e-06
7.61409149335185e-06
7.41556330909688e-06
7.22171076059721e-06
7.03302046570393e-06
6.84919396337608e-06
6.67037836643766e-06
6.49662213044805e-06
6.32788189868613e-06
6.1639969972792e-06
6.00483987697819e-06
5.85025222618183e-06
5.69997882516203e-06
5.55374436363756e-06
5.41121030450258e-06
5.27206702687443e-06
5.13587208011796e-06
5.00222176745367e-06
4.87051457858252e-06
4.74028437424376e-06
4.61067407292581e-06
4.48116763471887e-06
4.35036855802848e-06
4.21778136239947e-06
4.08088967961468e-06
3.93942573245186e-06
3.78836468839074e-06
3.6304416193581e-06
3.4613847578386e-06
3.27963913898977e-06
3.06429987835056e-06
2.81606477912908e-06
2.48371003357572e-06
2.43492356546107e-06
2.84513105746199e-06
3.20339266527617e-06
3.46010089471761e-06
3.58180258381428e-06
3.59199233991693e-06
3.51242235751511e-06
3.30838764387329e-06
2.9803260069612e-06
2.58888657448325e-06
2.17813901123057e-06
1.77178304197799e-06
1.41765167564892e-06
1.13027462221141e-06
8.9150517232648e-07
6.9801554703075e-07
5.43457336577187e-07
4.22625179281117e-07
3.23919679937371e-07
2.52374089447395e-07
1.98754084012522e-07
1.56653808060167e-07
1.18770931724139e-07
9.17208237624708e-08
7.56848957458067e-08
7.63250949309004e-08
6.93821727658621e-07
6.78778918138304e-07
5.04434562482932e-07
2.70532566857967e-07
1.01409791176276e-07
5.51938106152911e-08
6.57348116991808e-08
5.94553699908513e-08
6.27049587686626e-08
7.82140861368297e-08
1.08313186185421e-07
1.5724643442338e-07
2.30872366648438e-07
3.43450324751906e-07
5.18544256323083e-07
7.96894868628985e-07
1.23434980195081e-06
1.91370705687542e-06
2.92980890497655e-06
4.37302348003327e-06
6.31336382039601e-06
8.79940180157001e-06
1.17462480538732e-05
1.49165128748241e-05
1.79589923707481e-05
2.063120045511e-05
2.49797135803291e-05
3.11861644878443e-05
3.67495604466448e-05
4.16896004170371e-05
4.62061515538903e-05
5.03852052207179e-05
5.4280452207104e-05
5.79171676248845e-05
6.12158859657996e-05
6.41904840197894e-05
6.68383261429178e-05
6.91587954599241e-05
7.11519417731132e-05
7.2820784520763e-05
7.4170784469612e-05
7.52109483520938e-05
7.59536462924589e-05
7.6414230694952e-05
7.66108724700429e-05
7.65627189712459e-05
7.6290013666635e-05
7.5810911829904e-05
7.51451409283394e-05
7.43163048536668e-05
7.334943683727e-05
7.22673694043506e-05
7.10910876277487e-05
6.98330162615814e-05
6.85048052509048e-05
6.7122653661617e-05
6.57043926435153e-05
6.42629675739957e-05
6.28076856779973e-05
6.13470385642939e-05
5.98933595070828e-05
5.84528379618779e-05
5.7028797120781e-05
5.56263905484809e-05
5.42475756556257e-05
5.28942227992422e-05
5.15672841295025e-05
5.02687702104295e-05
4.89999742208785e-05
4.7761473987752e-05
4.65529808975818e-05
4.53743457672225e-05
4.42251490284049e-05
4.31042511115438e-05
4.20102889959342e-05
4.09414299859274e-05
3.98959590146499e-05
3.88712443582222e-05
3.78648126548696e-05
3.68728690431266e-05
3.58923981114223e-05
3.49178280335671e-05
3.39456595044089e-05
3.29666436112912e-05
3.19771807772737e-05
3.09604376926755e-05
2.99139174969044e-05
2.88036926848851e-05
2.76346003185633e-05
2.63741318852767e-05
2.50230201520357e-05
2.34236890008981e-05
2.1582808078952e-05
1.90982222093727e-05
1.88327752026486e-05
2.18602111766621e-05
2.44866874972964e-05
2.63294606985526e-05
2.71825481147808e-05
2.72077808539174e-05
2.65619483553553e-05
2.50117405917062e-05
2.25547715312712e-05
1.96207332195323e-05
1.6537369436781e-05
1.34872386732787e-05
1.08046912949483e-05
8.63148393276263e-06
6.83097084774749e-06
5.37276830345484e-06
4.2014474039848e-06
3.2711791418733e-06
2.50622528884025e-06
1.94838294831745e-06
1.52783614124784e-06
1.19685991477836e-06
9.08668755123356e-07
7.13087941350842e-07
6.00532833367928e-07
6.13965771447289e-07
3.18040330397746e-06
3.11729768226936e-06
2.31840156685183e-06
1.27209004760881e-06
4.94042744280127e-07
2.69333661302488e-07
3.20914708566027e-07
2.90882755162427e-07
3.06417909345262e-07
3.80926143342799e-07
5.25701229225197e-07
7.6046571221638e-07
1.11186527192679e-06
1.64450829849078e-06
2.46439201264662e-06
3.75224780667085e-06
5.744425781658e-06
8.78050420222757e-06
1.32194054004173e-05
1.93454608952238e-05
2.73224587643368e-05
3.72362476505575e-05
4.86054251470341e-05
6.03490874684131e-05
7.10038365981007e-05
8.01291660459565e-05
9.59914209699693e-05
0.00011840185617475
0.000137619862871374
0.000154431266907312
0.000169567691112377
0.000183409074742827
0.000196180753439278
0.000207800507127234
0.000218305603212801
0.000227754713101326
0.000236162974719401
0.000243547286929231
0.000249922823152939
0.000255310091666099
0.000259733679804947
0.000263225790936548
0.000265825947258
0.000267580237497916
0.000268541158872527
0.000268762775168305
0.000268301281184041
0.000267205995916709
0.000265530408685224
0.000263339228023297
0.000260701496652246
0.00025768060287345
0.00025433532112878
0.000250700074330065
0.000246807364364674
0.00024270364239694
0.000238441023277995
0.000234058076485518
0.000229583576888627
0.000225044187359343
0.000220478830417622
0.000215908490016684
0.000211355861043474
0.000206821585153602
0.000202317015584543
0.000197854327962044
0.000193440043290146
0.000189083153851667
0.000184790583890985
0.000180566946325098
0.000176414095795958
0.000172334196021329
0.000168328499945853
0.000164395856656994
0.000160534220342105
0.000156739935492997
0.000153009548079415
0.000149336552699578
0.000145714709137195
0.000142133395805817
0.00013858428544212
0.000135050612203636
0.000131522159522424
0.000127969562988894
0.000124382006681466
0.000120704065775815
0.000116928601247112
0.000112940638382558
0.000108732718649148
0.000104134206108299
9.92161146303821e-05
9.3372847661097e-05
8.66828611008635e-05
7.73912385061815e-05
7.6525817125296e-05
8.75844208318312e-05
9.72361254491571e-05
0.000103913143395845
0.000107046524153205
0.000107167321542827
0.000104857321689091
9.93017366029461e-05
9.03188570649901e-05
7.9324360227395e-05
6.75217758261191e-05
5.55999278931407e-05
4.4842023358104e-05
3.60315157089855e-05
2.87148950434502e-05
2.27751882329055e-05
1.79738769924028e-05
1.40748505918189e-05
1.08042846576077e-05
8.38446729966161e-06
6.53738276605389e-06
5.07103286865649e-06
3.83557733283267e-06
3.06663256836525e-06
2.66864630718998e-06
2.79858353210241e-06
9.97403980912964e-06
9.8590190201362e-06
7.37310014703808e-06
4.19779412136152e-06
1.74116883490302e-06
9.56824898178154e-07
1.14187945235746e-06
1.03693091733145e-06
1.09033460080789e-06
1.34875804984833e-06
1.8513955274474e-06
2.66188367649697e-06
3.86241085342579e-06
5.65336190678573e-06
8.35785875700501e-06
1.25123824065372e-05
1.87585087594334e-05
2.79715682638236e-05
4.09330252892193e-05
5.80432183499796e-05
7.9359238568876e-05
0.000104805516373897
0.000132763447604907
0.000160339315089852
0.000184368290180022
0.00020576697231301
0.000244387263206036
0.000296081501477963
0.000337967895061985
0.000374125202677529
0.000406037898532949
0.000434795389243415
0.000460854918304883
0.000484205147009621
0.000505189132701336
0.000523930883365363
0.000540512715613647
0.000555009768933172
0.000567486401126007
0.000578010262958585
0.000586650864880591
0.00059348695806631
0.000598606485119327
0.000602105780982536
0.000604089739545445
0.000604663502741938
0.000603933724656841
0.000601991986516339
0.000598936257962133
0.000594884591121077
0.000589962407832245
0.000584284754318508
0.000577958294642526
0.000571044148211903
0.000563599667116439
0.000555708719472368
0.000547466502666491
0.000538943515043618
0.000530193091238138
0.000521264916170879
0.000512232863675849
0.000503161225158736
0.000494050907847158
0.000484912553641041
0.000475775993809979
0.00046666755416862
0.000457601866391152
0.000448598079666281
0.000439671857172831
0.000430834422755097
0.000422091752717653
0.000413450485447947
0.000404915659604783
0.000396487520014887
0.000388164466387773
0.000379941655440925
0.000371814636125526
0.000363772666421157
0.000355805419627441
0.000347893310845975
0.000340021574314536
0.000332157292400032
0.000324281849418063
0.000316334593853751
0.000308296442998236
0.000300048486295643
0.000291582876368622
0.000282644820411729
0.000273248536026126
0.000262818276086187
0.000251690944334315
0.000238361781665579
0.000223313817564959
0.000201477060027617
0.000198485619147609
0.000223089843273774
0.000245639109323485
0.000261561760946424
0.000269683377862324
0.00027098743628334
0.000266838276950565
0.000255425925265801
0.000235755941751051
0.000210529820762437
0.000182396836643366
0.00015282581160823
0.000124993298880047
0.000101534401136768
8.17799913795559e-05
6.56095403204108e-05
5.24572259412818e-05
4.15605625011006e-05
3.21093154944705e-05
2.49399278534044e-05
1.93454179625335e-05
1.48250617288301e-05
1.10529979196847e-05
8.90395938267883e-06
8.00144059310948e-06
8.66273230083169e-06
2.34347488692987e-05
2.35946541869299e-05
1.78709593764444e-05
1.06431855191638e-05
4.8880038307309e-06
2.7526169158929e-06
3.29488100470362e-06
2.99559959929541e-06
3.14047098118276e-06
3.85678040850773e-06
5.25057604815391e-06
7.47585060377455e-06
1.07129121324173e-05
1.54219350530888e-05
2.2326347208079e-05
3.25896724547755e-05
4.74250409929992e-05
6.84171313819503e-05
9.66334697172118e-05
0.000132169098178988
0.000174634206487327
0.000223486361797464
0.000275097595105055
0.000324222109237367
0.000366516760463627
0.00040674289670129
0.000478619820133306
0.000568258249368746
0.000637581943933548
0.000697113995374121
0.000748814085776146
0.000794944035281504
0.000836072068109199
0.00087274388096034
0.000905497585144215
0.000934577249825113
0.000960169827715958
0.000982437480705716
0.00100151758600981
0.00101754438194507
0.00103064867447088
0.0010409698047028
0.00104865636593062
0.00105386571710194
0.00105676463819804
0.00105751769574408
0.00105628900023069
0.00105321761913395
0.00104845083028804
0.00104216526501591
0.00103454770046373
0.00102576935854078
0.00101598861215595
0.0010052947732389
0.000993770909755674
0.000981540319396783
0.000968743820276278
0.00095548533651918
0.000941844340680989
0.00092789497523494
0.000913774627814119
0.000899548849780838
0.000885195354965728
0.000870749227878333
0.000856258866840551
0.000841764882583952
0.000827289824044731
0.000812862957958442
0.000798508888504746
0.00078424538456123
0.000770082271736136
0.000756030496894959
0.000742098867332726
0.000728288703533981
0.000714598389033461
0.000701021254491397
0.000687551335151542
0.000674172607361256
0.00066086960439697
0.000647611654495362
0.000634376095621385
0.000621109893378432
0.000607784443288694
0.000594299317844162
0.000580626655379075
0.000566564716435607
0.000552110750448986
0.000536821585893553
0.000520778679287569
0.000502813529229722
0.00048365392591911
0.000460452279007806
0.000434772252561885
0.000395804518611344
0.000387156249719576
0.00042745188073874
0.000467588850865351
0.000497336476529913
0.000514206089890933
0.000519357121151591
0.000515161487289168
0.000498680397373828
0.000467329016746187
0.00042482637681215
0.00037538954081187
0.000321132655727803
0.000267564859699405
0.000220611272551321
0.000180045418465979
0.00014631593478123
0.000118619717053208
9.54813203197644e-05
7.45893160981222e-05
5.82340161620225e-05
4.50567674560332e-05
3.41418746640362e-05
2.481519589781e-05
1.97338788246216e-05
1.80004390173284e-05
1.99911135118095e-05
4.40535879980731e-05
4.55632813780076e-05
3.52275581170147e-05
2.1886475457729e-05
1.14386227809723e-05
6.80019057247296e-06
8.18675209967708e-06
7.44505617740874e-06
7.76780235325894e-06
9.44246146321643e-06
1.27000290242932e-05
1.78232260005885e-05
2.50771159386745e-05
3.52756171369109e-05
4.96785753331985e-05
7.02812867126861e-05
9.88328145935386e-05
0.000137626402081536
0.000187604358008052
0.000248044274443064
0.000317868257047156
0.000395735686820075
0.000475419486786401
0.000549574788654655
0.000613877218803919
0.000678763595225
0.000790679812437929
0.000921465330247795
0.0010197684388482
0.0011043207022613
0.00117695760203326
0.00124139341172601
0.00129828375165247
0.00134890844661435
0.00139392696918016
0.00143372966385567
0.00146862412659438
0.00149887142778571
0.00152469263453543
0.00154629703761997
0.00156388420038603
0.00157766050882275
0.00158784100447475
0.0015946493373121
0.00159831884682565
0.00159907786243585
0.00159715148123603
0.00159272918861847
0.00158601035362336
0.00157723311814487
0.00156664841458566
0.001554486368997
0.0015409592684562
0.00152618590563634
0.00151027586658024
0.00149339310623131
0.00147572544663546
0.00145741119199643
0.00143855769505864
0.00141927914241724
0.00139977909520061
0.00138006861639139
0.00136014075212091
0.00134005249526463
0.00131987022696905
0.00129964839023385
0.00127941695663462
0.00125921465831842
0.00123907463349516
0.00121902056075675
0.00119906534656146
0.00117922344131189
0.00115950672740345
0.00113991674627697
0.00112045081779142
0.00110109933127891
0.00108185367088304
0.0010626912149073
0.00104358981178711
0.00102450570793053
0.00100540640053022
0.000986215723172019
0.000966892876521164
0.0009472920224696
0.000927374762515382
0.000906844150244832
0.000885705563203234
0.000863295026104939
0.000839782485076408
0.000813354428029702
0.000785162987451164
0.000750646306840129
0.000713249591092256
0.000654461383881161
0.000635735545772899
0.000690526638169014
0.000750722073770881
0.000798036375253874
0.000827525957281315
0.000839908977897674
0.000838519525373398
0.00081942877176218
0.00077794985038596
0.00071837193121157
0.000646257718779037
0.000564145581329752
0.000479285934645012
0.000402165676142325
0.000333294930169829
0.000274816259019793
0.000225957599404932
0.000185176365037419
0.000146839570679439
0.000115843554592179
8.98145363220752e-05
6.76239630927532e-05
4.7597914531138e-05
3.65786934407887e-05
3.29917683427407e-05
3.69522862761662e-05
7.03148690840574e-05
7.4965728796663e-05
5.95684725581331e-05
3.81642560793291e-05
2.28240737655539e-05
1.48905171744874e-05
1.81399954806905e-05
1.64899082059491e-05
1.708567990383e-05
2.04841301138848e-05
2.70963225937507e-05
3.72916168431121e-05
5.12353498281518e-05
7.00849673176366e-05
9.56773368751433e-05
0.000130960492258447
0.00017803689185757
0.000239810439705219
0.000316562564310668
0.000406378977135409
0.000507433704354913
0.000617360012392729
0.000727240598699539
0.000828375533190115
0.000917573069472155
0.00101169672534282
0.00116718419141009
0.00133946005975043
0.00146723700825449
0.00157761172949989
0.00167178791591888
0.00175498708532212
0.00182816093394077
0.00189314622799158
0.00195076050890493
0.00200155178477459
0.00204595571099029
0.00208433788936092
0.00211700900537719
0.00214425811159988
0.0021663580259321
0.00218358613885633
0.00219622762625761
0.00220457585208509
0.00220893374541017
0.00220959633149879
0.0022068520365911
0.00220094305488504
0.00219212298831122
0.00218069354778853
0.0021669718366829
0.00215124890879961
0.00213379258444846
0.00211475256510705
0.00209426599638945
0.00207253859618298
0.00204980631005246
0.00202624286242985
0.00200198581491298
0.00197723524186939
0.00195217185675585
0.00192678836445846
0.00190110087542457
0.00187518632820918
0.00184912872179039
0.00182299607251258
0.00179682560043597
0.00177066504622644
0.00174455584189481
0.00171852714932681
0.00169259443706632
0.00166677504117788
0.00164108336677313
0.001615520545544
0.00159008198232058
0.0015647542665118
0.00153952515119504
0.00151436446256198
0.00148924203888532
0.00146409968493963
0.00143889330502614
0.00141352182025955
0.00138793005216623
0.00136192386388931
0.00133545191717073
0.00130811597263464
0.00127992995243918
0.00124999173511731
0.00121857462627385
0.00118320708817958
0.00114549094151671
0.00109887631523175
0.00104937099347742
0.000969774707865272
0.000936972261771866
0.00100312936056211
0.00108376570215818
0.0011510742668032
0.00119644304684202
0.00121933045818438
0.00122371324248716
0.00120488929150102
0.00115584504086517
0.0010810754283095
0.000987111822004279
0.000876985494565865
0.000758531756768727
0.000647787680692148
0.000545538559557518
0.000456970108407063
0.000381168571786823
0.000318323639044564
0.00025699695908599
0.00020604415323572
0.00016108822674626
0.000121623910285754
8.30394170835743e-05
6.03815513227209e-05
5.08135700112364e-05
5.66288881497486e-05
9.56372957826505e-05
0.000109036782725149
9.02733532508824e-05
5.87774347104176e-05
3.95291482792226e-05
2.93023186621103e-05
3.65366913011008e-05
3.32268609204267e-05
3.41215500765435e-05
4.02028536162454e-05
5.20762770278512e-05
6.99815467409423e-05
9.35526835660338e-05
0.000124203972328973
0.000164361372565963
0.000218005959538803
0.000287353093587827
0.000375768027178884
0.000482404226114162
0.000604063490396684
0.000738278898406913
0.000881557265207773
0.00102253707582246
0.00115195982436538
0.0012684961459325
0.00139538506574364
0.00159603582812616
0.00180915913081399
0.00196676608398109
0.00210350268085652
0.00221971135332257
0.0023220673976932
0.0024119638184896
0.00249166609334112
0.00256217604227142
0.00262420514029992
0.00267832243137227
0.00272500225746214
0.0027646496703542
0.0027976372899402
0.00282431488601431
0.00284503405096162
0.00286015302783146
0.00287003754237387
0.00287506236025375
0.00287559137517054
0.00287197802579484
0.00286451913976315
0.0028535242330888
0.00283935994172233
0.00282241090129163
0.0028030304472
0.0027815430189966
0.00275813062668517
0.00273295908175024
0.00270627675758466
0.00267836852917429
0.00264944454697462
0.002619694763609
0.00258940176715613
0.00255866406203146
0.00252750139584169
0.00249595069107193
0.00246410740441515
0.00243207295111015
0.00239992880894375
0.00236771951844175
0.0023355015723562
0.0023033246251261
0.00227122311422556
0.0022392148172679
0.00220731958684778
0.00217555401447679
0.0021439184710129
0.00211240588231984
0.00208099851394938
0.00204967979332126
0.00201841145057815
0.00198715433877298
0.00195583507890289
0.00192439659059291
0.00189271214028731
0.00186071023262917
0.00182814765474587
0.00179495745406577
0.0017606387556503
0.00172521234127886
0.00168753225413353
0.00164798405555026
0.00160344880160492
0.00155598217265545
0.00149690227095357
0.00143520221505843
0.00133497203092927
0.00128507239784086
0.00135872348010668
0.00145869110793806
0.00154714601849377
0.00161079620702873
0.00164697990981895
0.00165980474594158
0.00164396371506418
0.0015900651220497
0.00150256832969076
0.00138850117080635
0.00125173906956056
0.00109946566403485
0.000954054961594802
0.000815635674093608
0.000693953112265019
0.000586906605842894
0.000499204171299751
0.000410761071803855
0.000336050825402501
0.000266535615852041
0.000204055333359816
0.000136770115275755
9.45978720018159e-05
7.32690008896526e-05
7.75271140339024e-05
0.000123471863212336
0.000143008739682299
0.000125029329243652
8.27584599550808e-05
6.07064417861609e-05
5.19898176127135e-05
6.74329175968526e-05
6.15969515410867e-05
6.26337967375458e-05
7.23362813741055e-05
9.14767352764896e-05
0.000119734824080594
0.000155588352327769
0.000200637873544073
0.000257943664269302
0.000332556849595811
0.000426593429151609
0.000543755997160269
0.000681811694211989
0.000836406245608108
0.00100457057613502
0.00118164110097276
0.00135419077752655
0.00151305463774578
0.00165913568487193
0.00182152160497385
0.00206782528264518
0.0023209100646712
0.00250873469091812
0.00267223408813689
0.00281093090879902
0.0029327875868141
0.0030397834441302
0.00313451437849522
0.00321818640796601
0.00329167830754541
0.00335569752452997
0.00341083119604264
0.00345758316625991
0.00349641319473444
0.00352775136066486
0.00355202624659418
0.00356967159219431
0.00358112753747866
0.00358684228210404
0.00358725008015812
0.00358277046071102
0.00357375639294031
0.00356057446957661
0.00354365686397481
0.00352345639591798
0.00350038928699954
0.00347483709084159
0.00344701533583545
0.00341711952477
0.00338544126376656
0.00335231475368558
0.00331798734640428
0.00328275397603543
0.00324688546818916
0.00321042996183226
0.0031734473567489
0.00313599384124179
0.00309818231315007
0.00306013143998968
0.00302193608704245
0.00298364831638247
0.00294533323635381
0.00290704873602642
0.00286883445432028
0.00283071040772015
0.00279269878061879
0.00275481817244638
0.00271706804818707
0.00267943852233611
0.00264190728151443
0.00260445297979434
0.00256702902904434
0.00252958663135739
0.00249203696335599
0.00245430891108029
0.00241625012144808
0.002377771117171
0.00233858036733168
0.0022985925056957
0.00225720616601674
0.00221444552908017
0.00216892402667443
0.0021211421912994
0.0020673606498813
0.00201006776720883
0.00193843550109826
0.00186457342132522
0.00174457768950833
0.00167561998082623
0.00175283955596833
0.00187008799002835
0.0019797760084387
0.00206323988021354
0.00211491219363061
0.00213842159311692
0.00212793579103397
0.00207172029768439
0.00197405704837473
0.00184193319006272
0.00168056057719289
0.00149531387938284
0.00131559881773924
0.0011396810862566
0.000983635253012424
0.000842362816932293
0.000728390896262042
0.000610156026470802
0.000509953281665199
0.000411620086118145
0.000322362795753189
0.000216149174765559
0.000142341853952624
0.000104165656127643
0.000102987313825561
0.000156229562915054
0.000180897186206961
0.000163160195970684
0.000106782606286861
8.46671248538158e-05
8.3326585762063e-05
0.000114200395635264
0.00010567324045045
0.000106485961926301
0.000120466753466257
0.000148583744798395
0.000189375018926707
0.000239492479152039
0.000300709457285316
0.000376805559197656
0.000473897753004355
0.000593891313135302
0.000740753459500049
0.000910789014814539
0.0010986820146316
0.00130104576706503
0.00151202970412314
0.0017165495547174
0.00190600770386011
0.00208364588171787
0.00228361608599114
0.00257538201520976
0.00286751723126297
0.00308593612815474
0.00327646439601409
0.00343802082277465
0.00357966677270485
0.00370405771801988
0.00381406214358058
0.00391110615948045
0.00399623897024779
0.00407031139900076
0.00413402747546237
0.00418799403961312
0.00423276140467847
0.00426884299995046
0.00429674679179112
0.00431698393845826
0.004330070441152
0.00433652886988965
0.00433686462917071
0.00433156378344308
0.00432103645003097
0.00430570687632745
0.00428607260239338
0.0042626545314941
0.00423593157504756
0.00420634226579296
0.0041741365562391
0.0041395404931433
0.00410288912640895
0.0040645659240199
0.00402487040332127
0.0039842284741157
0.00394279879793393
0.00390064452379127
0.0038578619376903
0.00381452535630006
0.00377076424752463
0.00372671432307215
0.00368248372804088
0.00363813229809374
0.00359373368234576
0.00354935404346884
0.00350503821778535
0.0034608085098607
0.0034166893822359
0.00337270137228884
0.00332884303818097
0.0032851015291723
0.00324144990658119
0.00319786180671303
0.00315428234672048
0.00311065267373718
0.00306686863162737
0.00302284433626449
0.00297840243584229
0.00293343408657791
0.0028876013296759
0.00284079757684488
0.00279232573365779
0.00274220846812667
0.00268882887341592
0.00263279870654726
0.00256974853942057
0.0025027032433373
0.0024186418000421
0.00233270529147752
0.00219419287578036
0.00210517528619216
0.00218233243465472
0.00231427245774223
0.00244444174372515
0.0025484495192743
0.00261718067375211
0.00265315501373088
0.00265000793828135
0.00259373622772957