/*--------------------------------*- C++ -*----------------------------------*\
  =========                 |
  \\      /  F ield         | OpenFOAM: The Open Source CFD Toolbox
   \\    /   O peration     | Website:  https://openfoam.org
    \\  /    A nd           | Version:  7
     \\/     M anipulation  |
\*---------------------------------------------------------------------------*/
FoamFile
{
    version     2.0;
    format      ascii;
    class       volScalarField;
    location    "20000";
    object      omega;
}
// * * * * * * * * * * * * * * * * * * * * * * * * * * * * * * * * * * * * * //

dimensions      [0 0 -1 0 0 0 0];

internalField   nonuniform List<scalar> 
15600
(
23351.9953806191
23255.5078226052
22801.6759150159
21830.5635005452
20425.7605756467
18294.7139039255
15716.5489560092
13172.8290452717
10918.517387508
9025.7492057039
7539.16966172627
6418.42612256349
5552.6923849212
4867.70502648409
4314.11816930714
3847.67920275192
3439.07688773689
3083.73381266412
2778.49891137139
2521.10564124769
2313.90173250582
2155.54751366362
2039.11256720617
1959.78827961615
1914.74986409879
1902.85092651058
1906.28372442577
1906.28533720496
1906.28533720492
1906.28533720505
1906.28533720495
1906.28533720484
1906.28533720499
1906.28533720498
1906.28533720497
1906.28533720472
1906.28533720492
1906.28533720505
1906.28533720491
1906.28533720496
1906.28533720497
1906.2853372048
1906.28533720476
1906.28533720481
1906.28533720483
1906.28533720492
1906.28533720496
1906.28533720493
1906.28533720484
1906.28533720496
1906.28533720501
1906.28533720493
1906.28533720503
1906.28533720509
1906.285337205
1906.28533720492
1906.28533720497
1906.285337205
1906.28533720497
1906.28533720492
1906.28533720497
1906.28533720492
1906.28533720499
1906.28533720497
1906.28533720476
1906.28533720484
1906.28533720496
1906.28533720493
1906.28533720479
1906.2853372051
1906.285337205
1906.28533720484
1906.28533720488
1906.28533720491
1906.28533720508
1906.28533720486
1906.28533720486
1906.28533720477
1906.28533720486
1906.28533720487
1906.28533720484
1906.28533720484
1906.28533720505
1906.28533720491
1906.28533720476
1906.28533720499
1906.2853372047
1906.28533720511
1906.28533720503
1906.28533720465
1906.28533720474
1906.28533720517
1906.28533720517
1906.28400989265
1902.83410009441
1914.8550123437
1960.01549979502
2039.4691134375
2156.04717824819
2314.56667440732
2521.96005964707
2779.53021841939
3084.94561803564
3440.4805534548
3849.2876243716
4315.97049289267
4869.96522343202
5555.5160808586
6422.03289039166
7543.89738546448
9032.01733263442
10926.1981187717
13181.8075737613
15726.3285179473
18303.8884137139
20432.3025883831
21835.0479673666
22804.4200656295
23256.3947399503
23351.9953806059
3942.72095128563
3927.3963796831
3852.85805775743
3688.09846898453
3449.09369362106
3088.00256150073
2653.24038400877
2224.38466268658
1844.14788182955
1524.68387767866
1273.6428458401
1084.24100673618
937.984516414265
822.274461969001
728.82941981644
650.138633378682
581.26468904855
521.365735366993
469.906546897237
426.515282482811
391.605735866684
364.915244399469
345.288404667886
331.926318003856
324.386623336458
322.934135325445
323.923129882582
323.752522969815
323.633570613083
323.566086376123
323.502905746638
323.433783949288
323.354739137197
323.263770141672
323.162068264291
323.051151486407
322.933273545559
322.810383081403
322.684659751902
322.558096157412
322.432647878214
322.310060182486
322.191852130266
322.079315471044
321.9734096391
321.874936893402
321.784334567343
321.702065104951
321.628477917566
321.563613810273
321.507191707168
321.458923244668
321.418236096684
321.38489264642
321.35867647715
321.339149801089
321.325668467858
321.31768678917
321.314826661393
321.316677414686
321.322696260931
321.332425264031
321.345580788014
321.361748802311
321.380566766218
321.401663459276
321.42481258985
321.449683069952
321.476028132801
321.503611242537
321.532248040841
321.561730198491
321.59187527666
321.622554052389
321.653610036227
321.684946876228
321.716402900071
321.747950808881
321.77941554632
321.810858805704
321.842009299894
321.87314067684
321.903733873796
321.934585413822
321.964514358204
321.995604203611
322.025045839958
322.058158399652
322.088014406202
322.128190731252
322.162773416093
322.225989778045
322.291539545156
322.512093251519
321.72157953527
323.269668905741
330.811089761679
344.158298258565
363.841630476593
390.621299450866
425.648054303968
469.251523426822
521.10017544908
581.519925372639
651.041084661991
730.470153897893
824.537792766403
940.664131289837
1087.33914576135
1277.09878847308
1528.6538285072
1849.1461016346
2231.16888283095
2662.0146178385
3098.86873341305
3460.43781999581
3697.94718966132
3858.175372969
3930.86773662141
3943.63762752068
1302.57967757219
1299.34858416128
1277.55528944054
1221.31512740304
1139.11354366417
1017.54040224162
873.923075045268
732.94168148303
607.830987311828
502.665172181836
420.015697252244
357.606199833773
309.447586707328
271.375178644818
240.683070115479
214.857095500317
192.295668953978
172.685217037318
155.841460467527
141.668278888747
130.315142855363
121.63814960443
115.259497659295
110.94965106864
108.698267465034
108.924408648177
109.619445886211
109.257336534967
108.957879357427
108.74025947868
108.532844224762
108.323905973981
108.107203660964
107.881606254035
107.649753415835
107.413699103005
107.176659548373
106.941305517209
106.710418543225
106.486415565318
106.271539180116
106.067667395693
105.876322496025
105.698688911187
105.535526133207
105.387389875074
105.254433466929
105.136905066199
105.034896869615
104.948073585642
104.875732216982
104.817179973429
104.77144963681
104.738090770857
104.71666943433
104.706400542704
104.706238010697
104.715322389412
104.733039254476
104.758710585157
104.791450332098
104.830540955886
104.875496489965
104.925662003671
104.980432717696
105.039240649836
105.101657179904
105.167135579134
105.235238602079
105.305558317395
105.377755929361
105.451460023184
105.526336579861
105.602126108533
105.678544267462
105.755373159899
105.832327083718
105.909274174134
105.985929401209
106.06225848467
106.137875245509
106.212969607087
106.28689929899
106.360415800083
106.432185479418
106.504339018112
106.573872266167
106.646402285515
106.714847053822
106.793490876571
106.866785972664
106.971097902559
107.088198999017
107.3505687949
106.74391681474
106.603234137206
108.899260453208
113.206737983736
119.678436972529
128.520180579806
140.094789826193
154.643609839342
172.14786536569
192.669459988583
216.382755076239
243.569532415354
275.506628820674
314.514953055379
363.524807874369
426.666389815652
510.190186176834
617.134662772503
745.352153009203
890.277532695899
1038.15518549782
1162.24152889406
1242.46364395769
1290.06811586797
1306.59531037151
1304.67754763909
606.269609955801
606.241366082141
598.842655704195
569.561519013637
526.280325355916
467.279978134405
400.599996199769
336.15055828795
278.885618298491
230.77718383265
192.983735926719
164.419487023284
142.405983433091
125.042864457063
111.096875965029
99.3848441168096
89.1923865691543
80.3434283175533
72.7444285783363
66.3754639763572
61.3010081979557
57.4020895319792
54.5262055988427
52.6323317376807
51.8540369333218
52.4107936303322
52.6361501526833
51.8971688175155
51.3768036251792
50.9879667695735
50.6475262853772
50.3353749213861
50.0402483805188
49.7590916006778
49.4893891730327
49.2309422847082
48.984507346968
48.7505574251583
48.5298439087054
48.3229313218083
48.1303834834387
47.9525818875683
47.7897492509202
47.6419617870597
47.5090810660296
47.3909383489764
47.2871690030881
47.1976458638056
47.1221803982026
47.0602689968935
47.0111798903921
46.9742536199018
46.948661898325
46.9341112558394
46.9303231700711
46.936685164691
46.9523652520353
46.9767285448511
47.0093704774668
47.0497925861848
47.0972844919591
47.1512800697469
47.2114181176584
47.2772757319957
47.3483087185453
47.4240050416619
47.5040052349631
47.587826902015
47.6750705512906
47.7653636359896
47.8583896706642
47.953788607523
48.0512251160352
48.1504365420108
48.2511331740048
48.3530838646722
48.455988425941
48.5596991189819
48.6639240535136
48.76862235589
48.8734089746545
48.9784877836489
49.0832365827739
49.188482453204
49.2929395700019
49.3989573780117
49.503606623387
49.6131070018513
49.7206050612646
49.8422707850558
49.9621969066222
50.1212510500917
50.3002189186092
50.656059099104
50.1591997112151
49.4693023255037
50.2108577183404
52.0131523149424
54.8785681149455
58.8623072755363
64.096227950637
70.7898754959492
79.0485930060677
88.9082757362032
100.471174786764
113.943904393034
129.71232747291
148.634314056164
172.09237789633
201.962370599076
241.119520522139
291.579512428922
352.95632798773
422.967115715155
495.701400859452
559.32416010114
601.179390504251
619.947102054632
619.050748651372
610.284379219671
347.799262204695
348.044891537349
346.438888146101
326.347914308126
294.787180867384
258.48016388707
220.750897862484
185.406966443554
153.928163311207
127.526881960711
106.804311596268
91.1284782850035
79.0773224518319
69.6150044182278
62.0597886063668
55.7291623020748
50.240493603519
45.4622557882143
41.3390936678589
37.8804210248053
35.1114349760113
32.9385154939165
31.324203117261
30.3118524245793
30.0309635340741
30.4664928680067
30.260199859725
29.379904467
28.8700755471879
28.5075357585137
28.2180098964839
27.9724674204172
27.7563515873945
27.5616714092819
27.3824599392027
27.2167351120175
27.0631232972425
26.9205066386167
26.7882710648507
26.6659043819161
26.5530935112639
26.4495564362907
26.3550397641719
26.2693036968548
26.1920591141275
26.1230790716413
26.0620755459061
26.0090006411624
25.9638006469597
25.9262343959661
25.8959430477647
25.8726316826132
25.8558985331832
25.845732454492
25.8421290250252
25.8448498448114
25.8535117210307
25.8678689280326
25.887841536601
25.9132457499962
25.9437550557106
25.9790851244137
26.0193045593248
26.0641485316254
26.1132942526469
26.1664662034234
26.2235125205114
26.2841734787172
26.348236933465
26.4155063251315
26.4858183518776
26.5589656602564
26.634748376628
26.7130226751444
26.793617209958
26.8764050302116
26.9611964666289
27.0479335393293
27.1364378480077
27.2267602749739
27.3186528621706
27.4124205128518
27.5076308640621
27.6052423038199
27.7042699583525
27.8072722766874
27.9118115153039
28.0245742489762
28.1393753712946
28.2746854129224
28.4151002164634
28.6071255673472
28.8244483845929
29.2791373660017
28.9853748320966
28.1583202555172
28.2341860173099
29.0061231176433
30.4166573725563
32.4611471027267
35.1696545732989
38.6983848737735
43.1930433240201
48.7118670235957
55.3522646506967
63.3533889807243
72.8779783762855
84.2210142903386
98.1122945998859
115.522779942849
137.926259904025
166.810366202313
202.719413225475
244.372642341635
288.997703147764
331.010706097288
362.124085090808
374.088088521363
367.388253943383
354.434093975606
231.657751886856
230.548162084252
231.957289214341
216.479430524144
187.645799981858
160.548855123288
136.181239941787
114.561680655989
95.2244116119335
79.0490790565222
66.3680189168752
56.7628850299085
49.4074711379028
43.6674299922075
39.1135156287054
35.2925237178026
31.9743043343845
29.0482935427977
26.4915374430869
24.3345361493542
22.590639580725
21.2003887811496
20.1860941154146
19.6036384008879
19.5198995307813
19.8010141830482
19.4650901700683
18.7583804289598
18.4252626797411
18.1978074286699
18.031715926419
17.8989100228286
17.7878495226525
17.6898026643295
17.6008045124138
17.5191288918447
17.4434764144282
17.3729000410341
17.3068725279998
17.2450009539593
17.1870731368661
17.1329323720043
17.0824687160412
17.0356006267073
16.9922291392778
16.9523068272467
16.9157577171881
16.882681687885
16.8531731066837
16.827201131093
16.8046645797592
16.7854963649649
16.769552661771
16.7569492076373
16.7477978744241
16.7420528108696
16.7395777390686
16.7403239207818
16.7443568648318
16.7516418764778
16.7620640260969
16.7756197434716
16.7924669099718
16.8124023133624
16.8352648290229
16.860939478132
16.8893959286103
16.9205227470602
16.9542361288089
16.990463246045
17.0291514494876
17.0702134359548
17.1135625944331
17.1591541098511
17.2069216287396
17.2568316416358
17.3088021666211
17.3628546972038
17.4189215085905
17.4771217452907
17.5373437872896
17.5999341749664
17.6646543839868
17.7324381040856
17.8026341288961
17.8776241701737
17.9555976160671
18.0427466796566
18.1339548074886
18.2468616283714
18.3684315864995
18.5454838281097
18.7443304468292
19.209623057971
19.1135543744106
18.3837836122458
18.201028560382
18.5056024571515
19.2354157782147
20.3641670084438
21.8776192168307
23.8715208824605
26.4715489091905
29.7385334186128
33.758427067267
38.7742328635713
44.9377885139795
52.3615816071478
61.4779772398249
72.8211776440219
87.1427518625795
105.46257603187
128.821290525714
156.509857491641
187.363161199645
219.158063389383
247.804946533223
261.526283603982
255.609903728094
241.033292446705
172.495089208285
169.21158771447
172.396533448951
160.956027634793
131.883789592756
107.904646252946
90.4541452688345
76.2925470313292
63.5371583678803
52.9022280436698
44.5725157018688
38.2461158324247
33.425205778801
29.6843397267196
26.7266245962282
24.2227574572594
22.0295845047138
20.0606697958133
18.3273516248181
16.8731026688933
15.7043397784971
14.783129595882
14.1454316524022
13.8271173832276
13.8450308036448
14.0407953826921
13.7458871572987
13.2650243350635
13.0823920682512
12.9589344703225
12.8782815943932
12.8172895344265
12.7684881201694
12.7252975413868
12.6858385585244
12.6490071648955
12.614018800742
12.5803580994402
12.5477861229586
12.5161555142957
12.485437633569
12.4556371392998
12.4267860098852
12.3989301305925
12.3720987996444
12.3463522061315
12.3217308126249
12.2984001603953
12.2765128958506
12.2561270176224
12.2372520841865
12.2199127108607
12.2040766711363
12.1898926095828
12.1774984575812
12.1669167577017
12.1581100239884
12.1511000371443
12.1459907639064
12.1427913256915
12.1415179886335
12.1422889318435
12.1451820920121
12.1500562162902
12.1568299753297
12.1654573675643
12.1759518601225
12.1882662206426
12.202370355678
12.2182434860315
12.235878500019
12.255242184004
12.2762999496017
12.2990492901921
12.3234723197794
12.3495758050793
12.3773305811
12.4067869887123
12.4379311379297
12.4708952255679
12.5056383989799
12.5424809155806
12.5812945164764
12.6228858808184
12.6668203418055
12.7151125152958
12.7664142214329
12.8259745965948
12.8896779741809
12.9724232609412
13.0634475119822
13.2059633792611
13.3609880346189
13.7686692178607
13.8011689120084
13.2409422467734
12.9937356159656
13.090967677877
13.4885677088765
14.1582929532985
15.0715325967246
16.2801624089254
17.8750027807188
19.9022737307332
22.4224099104987
25.6303891408881
29.6803837491991
34.6321727283306
40.789229597035
48.4715823471104
58.0734271206292
70.186388060476
86.0190610914095
105.202050377953
127.500118092228
152.553321226924
180.372389168878
198.661437673728
197.535289084805
183.967638075961
138.838618459694
133.301377173945
137.401488168631
130.533995105481
101.105306492643
76.9528191360118
63.1917827504629
53.497710994031
44.6789507519602
37.3530059612807
31.6135278483252
27.2315908177717
23.909733629143
21.3412862133238
19.3089571640331
17.5652680851703
16.0268144584034
14.6329692532602
13.4161376793583
12.4152137070311
11.6256770441449
11.0197648578404
10.6296236748268
10.4730542971264
10.5427354003394
10.6933003436173
10.4696065085473
10.1539544106508
10.060358553788
9.99603104811756
9.96127891660979
9.93723729240833
9.91924499186551
9.90296231680074
9.88751705399767
9.8722438245028
9.85671313755903
9.84068670499938
9.82410302842998
9.8069587307195
9.7893252960756
9.7712905131003
9.75295473359998
9.73442176534232
9.7157783722782
9.69712942569015
9.67856544236594
9.66026944384698
9.64240689738722
9.62506676777454
9.60830196249108
9.59217053419208
9.57668818333248
9.56200497416819
9.54825662648184
9.53548769279682
9.52369991862364
9.51293822146495
9.50330916818276
9.49484032461947
9.48764459948946
9.48182219327312
9.4774022840176
9.47429174316274
9.47244654752088
9.47184982385163
9.47252870117414
9.47446318334363
9.47764432208371
9.48207148723806
9.48775405624383
9.49468113637228
9.50283969546161
9.51224204623033
9.52288954608142
9.53480236289939
9.54797359080759
9.56245804584649
9.57826362326121
9.59551264568513
9.61419608103822
9.63458903061169
9.65662005352048
9.68096023902782
9.7073044487363
9.73731336530749
9.7699474952461
9.80955611299042
9.85279473847605
9.91190224861319
9.97759161647092
10.0885469007289
10.2036955788427
10.5384009999068
10.6382885412792
10.2314917086669
9.99194246891247
9.99685157756174
10.2229523512358
10.6474498536021
11.2402142502576
12.027221803852
13.071763593943
14.4053516460284
16.0666401924528
18.1925151645818
20.9192023792987
24.2743969146041
28.488832674191
33.7594155242366
40.3266552404642
48.4422735816138
59.2573716854189
72.5595280382331
88.649327395039
107.96859758782
133.945751831861
156.324449318151
161.687297247457
151.242446187506
117.361855692657
110.029835856371
114.265588259509
112.378816844256
83.8442719929093
57.7741547114814
45.7715249657493
38.9187010154381
32.6218254154815
27.4150312488939
23.3269493684839
20.181455139095
17.8105875087607
15.982223866602
14.5332843673778
13.2773920853936
12.1702024918126
11.1685729726366
10.3088029310438
9.6172284853725
9.08234074030491
8.68440146813905
8.45025760179363
8.38749023480302
8.47935309862928
8.60162705034777
8.43709648155477
8.22784269214586
8.18280906161974
8.15056875810665
8.13953196859295
8.13397309400868
8.13104342920495
8.12792463549149
8.12418572040915
8.11942392776579
8.11341090349953
8.10605913204862
8.09739708247771
8.0874921153504
8.07645995735454
8.06442347336457
8.05150990010468
8.03784459306648
8.02353678675039
8.00870682207958
7.9934650305051
7.97799290273447
7.96245217349567
7.94694047138074
7.93152732554202
7.91628228494891
7.90124323404365
7.88655270637495
7.87233700753323
7.85864666607077
7.84550000295942
7.83294833109376
7.82109022244835
7.80998290278183
7.7997736898362
7.79051594623223
7.78222563318226
7.77484105463422
7.76833729658206
7.76271108712781
7.75799311214501
7.75417619564324
7.75126043729413
7.74925348055088
7.74817066308002
7.74801101470992
7.74877115706084
7.75046824093418
7.75311150873863
7.75672482389831
7.76131117479774
7.76692239948409
7.7735753738451
7.78137798909184
7.79033651064413
7.80068381991059
7.81238050338817
7.82598406980762
7.84127256583165
7.85961946356857
7.88020037088317
7.9066337207522
7.93614726331504
7.97891405123529
8.0265953610639
8.11356596972421
8.19942130429918
8.46903678654534
8.59865398436669
8.30940708114797
8.0990299186166
8.06285533538892
8.19443545079435
8.47796520518422
8.8863876124043
9.43131203851356
10.1576072200357
11.0865044317692
12.2433313856755
13.719270928086
15.6280736461878
17.9720519759803
20.9304895511488
24.6140789672403
29.2032694828202
34.7170773542971
42.1442918043541
51.2899809090621
62.7197593597562
76.9336112865472
99.4575837176573
123.748918015318
135.36101345492
129.327926557205
101.841816018726
93.5796471996924
97.3342896747112
100.32840738347
74.2784332290981
45.7010445011833
34.1298502514813
29.1109813733958
24.5009915062901
20.7189924410229
17.7391640062353
15.4266258177413
13.6969687245697
12.3689078870987
11.3176376723613
10.4021339949721
9.59948509615929
8.87628260919408
8.26516835372693
7.78246736116055
7.41555007292072
7.15192432034907
7.01416994273477
7.00435423680436
7.10259284808485
7.20475561111393
7.08372642095087
6.94244735311595
6.92402635659412
6.90973988662331
6.9112160492638
6.9151080899311
6.91976797187261
6.92329519106348
6.92546489728348
6.92603211374571
6.92488061132838
6.92200396302663
6.91747437640386
6.91139226428455
6.90389036647277
6.89510401754972
6.88516865766631
6.87421544009574
6.86236102183404
6.84972929999772
6.83643766815471
6.82265983613005
6.80854896242887
6.79420331665483
6.7796985772758
6.76510769755742
6.75047989960172
6.7359484300519
6.72162927628033
6.70757341263004
6.69380667948671
6.68038068627795
6.66738739306609
6.65491954830016
6.64310728559576
6.63197629641445
6.62154125246722
6.6117610920742
6.60262177761591
6.59412713441927
6.58630794455921
6.5791637585065
6.57269897051498
6.56692486237897
6.56185879387854
6.55750462744664
6.55386380178467
6.55095472448654
6.54879002627751
6.54739389481839
6.54677413547486
6.54697796010733
6.54802613011981
6.5500130073603
6.55295304147819
6.55704423501853
6.56226734792702
6.56908996472962
6.57734808492725
6.58819040715899
6.6009515883069
6.61867559708347
6.63902619252451
6.67062417324442
6.70583503099445
6.77516126910722
6.84064451902565
7.05771829667543
7.19648363287478
6.99302103701029
6.81550010224545
6.76227255531031
6.83881197554629
7.03575172994942
7.33036861733765
7.72640257466569
8.25667716646337
8.93575972292411
9.78176137989021
10.8542449164206
12.2481725699702
13.9485281217909
16.098617825514
18.7469971368382
22.0523872984268
25.893940909476
31.087850488525
37.3897500402391
45.4599414286267
55.4873406473654
73.5517961907765
97.1809815477147
113.374422288544
112.145916177133
89.1480806246832
80.967356463807
83.9439534604642
91.3548705805833
69.1020280027429
38.2822038883115
26.1913327571373
22.3002549043264
18.8396916965695
16.0440029253619
13.8359439918693
12.1106937724088
10.83371675292
9.86011119070833
9.0919088797584
8.42117576063066
7.83568832184335
7.30868256014921
6.86836019404297
6.52540369871015
6.26907457087757
6.09250693776227
6.01468784265972
6.03447057336877
6.13141415633069
6.21851385525448
6.1291928337043
6.03255688270742
6.02918369291103
6.02550470157746
6.03382812125519
6.04272395071168
6.05134882808103
6.05835418969382
6.06361865738816
6.06699654363147
6.06843603406879
6.06797549227224
6.06570809089629
6.06174904470961
6.05623582803356
6.04930637631331
6.04109657822286
6.03173713228229
6.02134603212769
6.01004629468766
5.99795719193917
5.98524340043934
5.9720489908429
5.95847037045044
5.94458535548405
5.93046750129829
5.91617257646779
5.90182505526687
5.88753151962311
5.87334162823321
5.8592849448534
5.8454111346337
5.83181474771723
5.81860941632945
5.8058921480063
5.79367821146633
5.78198405003326
5.77078261285067
5.7600666717072
5.74984415108697
5.74014473375347
5.73097181242248
5.72233202054703
5.71423829442651
5.70670841931219
5.69974875953042
5.69336338161505
5.68757060020778
5.68238446994882
5.67782829830958
5.67391238429293
5.67067934107466
5.66815157636779
5.66641187021039
5.66547940366846
5.66552405521261
5.66654035056232
5.66892488479317
5.67255647621978
5.67840707752268
5.68593456958871
5.69772847266722
5.71179742261445
5.73557292458343
5.76202232948004
5.81819548142587
5.86952557586112
6.04537743623662
6.18255283617897
6.04104130735411
5.89423808578541
5.83582601575271
5.87907269280897
6.01991944887431
6.23999483383078
6.53878132170516
6.94108880891929
7.45713429781158
8.10128314431143
8.91185430647589
9.96962154497961
11.2490402133342
12.8692769671049
14.8357139133426
17.3002478904632
20.0670849446258
23.8106271063021
28.2290579021722
33.9937899392276
40.9326244691427
54.5371015558506
75.457927159061
93.8866322717674
96.9867720879448
77.7692663845067
70.5415853455991
72.7057542032001
83.919654648685
66.3729394987685
34.0435762209409
20.7974032556987
17.4991753612998
14.817912388222
12.7116322288979
11.052028185447
9.7514164804732
8.80072575072193
8.08221677572248
7.51709338555681
7.02186641309774
6.5898131066806
6.19980531866174
5.87647574750095
5.62766644646831
5.44523874586159
5.32618018833432
5.28630338807498
5.32245325579184
5.41475452746982
5.49041784102339
5.4247458340417
5.35851935255645
5.36401572403175
5.36701088425235
5.37924418743251
5.39090262885668
5.4016825686258
5.41057890176231
5.41752645992323
5.42244563954586
5.42532339205374
5.42622382723758
5.42525002695496
5.42252331462391
5.41818069574749
5.41235873454793
5.40519093204478
5.3968054481009
5.38731944947607
5.37685379780266
5.36552774791306
5.3534975718205
5.34089925598192
5.32782698942444
5.31435937536602
5.30056985196961
5.28651856895421
5.27232240137651
5.25807987132169
5.24383897254153
5.22963137833395
5.2155051268872
5.20156603707312
5.1879265791673
5.17465667986633
5.16176939257705
5.14928346068587
5.1371817038296
5.12546153038395
5.11413346714555
5.10322573470086
5.09274406278603
5.08269635267024
5.07309627646161
5.06396135437795
5.05529926754884
5.04711560521477
5.03942806515688
5.03225117393511
5.02560692856829
5.01950692422895
5.01398961755726
5.00907795496626
5.0048449774322
5.00131268479208
4.99862817304501
4.99679582290712
4.99615547027429
4.99661880508753
4.9990165544886
5.00290527745178
5.01050876005599
5.02011809388971
5.03821604185365
5.05834843719149
5.10446038514084
5.1457647387925
5.2893891605484
5.41959065146821
5.32288722677031
5.2030359009557
5.14548468475672
5.16817877151913
5.2711914498717
5.44008818348734
5.67214318967341
5.98669742976534
6.39104605803478
6.89762685394581
7.53041689827183
8.35955713733001
9.35357853262609
10.615598774984
12.1218579503438
14.0226257559146
16.0868776843496
18.8828674889201
22.0672395219923
26.2910424343996
31.1194105996853
40.9978299634611
58.136802893285
76.6257260376036
82.8855752408897
67.130261320349
61.4437772083013
62.8600753977348
77.1787088540422
64.9238908233067
31.9830133032149
17.2205464545037
14.1045813466903
11.9375650414546
10.3095294899426
9.04089356140358
8.04861393052677
7.33317277052495
6.79773129898069
6.37750617566282
6.00722125055289
5.68315675316173
5.38904500781421
5.14668442132722
4.96246028578705
4.83058008019552
4.75045763339129
4.73509640333331
4.78006321873519
4.86656601660559
4.93356591418352
4.88607896448001
4.84134946373693
4.85234635810382
4.85983532652851
4.87441939919875
4.88769828581836
4.89971432261414
4.9096924292338
4.91760076364066
4.92340624277028
4.92712054399625
4.92882336164616
4.92862243500716
4.92664119379013
4.92301429335174
4.91787567258215
4.91135581225368
4.9035800707739
4.89466435374059
4.88472742673671
4.87388809306353
4.86229549965113
4.85007900427569
4.83733104605947
4.82413079330597
4.81055167869487
4.79665727834371
4.78255815536014
4.76834611768542
4.75406767827235
4.73975595959417
4.72546068155021
4.71129923687122
4.69736921434317
4.68372363808106
4.67037663928392
4.65734908163964
4.6446309822751
4.63222314999397
4.62013792144215
4.60840201899561
4.59702265869015
4.58600851988222
4.57537356235176
4.56513473540902
4.55530038112949
4.545877000017
4.53688147893794
4.52832831359544
4.52023805560352
4.51262291302283
4.50551767771502
4.49894522626973
4.49297038136878
4.48761677939549
4.48301282510772
4.47917013267395
4.4763824272681
4.47458725378733
4.4745005098239
4.4757596032126
4.48028852801168
4.48661631056951
4.50043801652578
4.51588451895532
4.55408959456813
4.58809015975852
4.7063749729421
4.82710999247407
4.76294568647646
4.66610890701448
4.61248960401973
4.62246555116568
4.69919001749279
4.83162841371743
5.0160382416088
5.26794052707292
5.59261087256075
6.0014759420325
6.50868634967529
7.17621962047127
7.96954094713248
8.98090349981271
10.1671994597482
11.6782932864278
13.2705021854331
15.4339133404711
17.8018474566002
20.9959861683448
24.4308715524177
31.5455922269332
44.7908165479617
61.849983707941
69.7928353444045
57.2048017092822
53.3094372036228
54.0218097359549
70.677465848403
63.9547626244481
31.3875728548877
14.9573108862024
11.7130999787472
9.86707665690473
8.56428580543626
7.57204638210431
6.80207052274294
6.25507748292333
5.85026148727741
5.53307466324266
5.25172363208018
5.00410486965546
4.77793768180929
4.59262730461217
4.45373657507366
4.35732796742138
4.30423725764426
4.30502075240637
4.3544623822296
4.435089357883
4.49559523002826
4.46252119537841
4.43354029742712
4.44817470199342
4.45891309441414
4.47501524187871
4.48933828773355
4.50212817701526
4.51277873926119
4.52127996091133
4.52763330420985
4.53186738522721
4.5340720219758
4.53435729040647
4.53284707680538
4.52967337662361
4.52496750880122
4.51885728472094
4.51146578473398
4.50290798233717
4.49330115709539
4.48276388545076
4.47143963305056
4.45945263952406
4.44689435397395
4.43384476977392
4.42037774849765
4.40655992400319
4.39249676894557
4.3782745985207
4.36393881767773
4.34952384725135
4.33508669183814
4.32074770129217
4.30658789622652
4.29265046952009
4.27895192891454
4.2655149301078
4.25233490522685
4.23941532511262
4.22676990085602
4.21442395012155
4.20238566490852
4.19066424502104
4.17927371516935
4.16823032404806
4.15754268738249
4.14721785318287
4.13727184354538
4.12771884011224
4.11857793265334
4.10986152017657
4.10160117370458
4.09381933696752
4.08657382896041
4.07988913017583
4.0738780953127
4.06855769342052
4.06418361894266
4.06071405681066
4.05877005613554
4.05805630581636
4.06024699212915
4.06407576738945
4.07456536122493
4.08643402040858
4.11827075541627
4.14677804134571
4.24495821367061
4.35530256208576
4.31483359104762
4.23738667942122
4.18916981147708
4.19142206536499
4.24948944885806
4.35519747797284
4.5044922212732
4.71017740264423
4.97610063826985
5.31312011751653
5.72854757516328
6.27788696260766
6.92528162371749
7.75533202250478
8.71230631967256
9.94538226348783
11.2105248394587
12.9390963061672
14.7548812079535
17.2487423645109
19.7634019477854
24.9591957496628
34.8218878147483
49.6245299827959
58.0588006097348
48.2421708762919
46.0764853397947
46.0385680975202
64.2382163987651
62.8594610270077
31.7610241136337
13.6533007679209
10.042577417584
8.37377095750055
7.28553403676312
6.48613545992554
5.87498465313648
5.44793087148475
5.13612748371385
4.89238825544169
4.67478504571021
4.4819659085711
4.30477778397685
4.16051347477315
4.05421161203018
3.98332502010721
3.94944847428409
3.96104249951932
4.01246385572803
4.08764755692786
4.14337424713144
4.12204393529301
4.10500194719382
4.12224391440145
4.13550845349366
4.15269606155081
4.16778606813441
4.18113087464566
4.19225809741924
4.20117373702134
4.207906224266
4.21249680435772
4.21504253358763
4.21565501848321
4.2144581604477
4.21158172873349
4.2071550073622
4.20130391606786
4.19415010394805
4.18580827029264
4.17639502820179
4.16602924789647
4.15485013452039
4.14297823680914
4.13050484895381
4.11751125017242
4.10407227328996
4.09025753835949
4.07616853233158
4.061887153274
4.04745812107181