/*--------------------------------*- C++ -*----------------------------------*\
  =========                 |
  \\      /  F ield         | OpenFOAM: The Open Source CFD Toolbox
   \\    /   O peration     | Website:  https://openfoam.org
    \\  /    A nd           | Version:  7
     \\/     M anipulation  |
\*---------------------------------------------------------------------------*/
FoamFile
{
    version     2.0;
    format      ascii;
    class       volScalarField;
    location    "20000";
    object      p;
}
// * * * * * * * * * * * * * * * * * * * * * * * * * * * * * * * * * * * * * //

dimensions      [0 2 -2 0 0 0 0];

internalField   nonuniform List<scalar> 
15600
(
1.47658766646137e-08
0.0103365803179003
-0.0102705836031607
0.0456767852625953
0.0967237417577371
0.130524913600164
0.140029387343564
0.151428698971358
0.156165527964861
0.161713015204554
0.164628748237444
0.168238692649763
0.170812729266803
0.173622646245745
0.175932619906194
0.178428084851587
0.18072284447387
0.183141687095053
0.185626644825938
0.188205215759668
0.190748796912414
0.193458287954364
0.196311208006481
0.19920445933966
0.202472712595648
0.204256387135174
0.206596577847415
0.21173523858743
0.218064818933057
0.225519195599728
0.233756919464625
0.242673059057688
0.25212666504955
0.262033818328697
0.272305498860382
0.282867936630284
0.293648262270428
0.304581585437973
0.315606148682544
0.326665920872343
0.337709129195419
0.348689291950667
0.359565048893352
0.370300237623785
0.380864240667666
0.391231096900452
0.401380241969243
0.411294843676861
0.420961974623508
0.430372673435096
0.43952209832827
0.448407937988068
0.457031276580643
0.465394086934233
0.473499827696175
0.481353486481135
0.488961753490644
0.496332106728983
0.503472328493857
0.510390607114099
0.517095639480462
0.523596342549074
0.529901225585602
0.536019147034343
0.541958636309351
0.547728356278965
0.553336368968152
0.558790883011481
0.564099606820872
0.569270143553793
0.574309723951476
0.579225447596144
0.584024210334421
0.588712591005106
0.593297254696522
0.597784459932049
0.602180898905138
0.606492583735454
0.61072666330088
0.61488898977618
0.618988068614788
0.623029289798515
0.627024344306915
0.630976993406792
0.63490627688066
0.638810788480289
0.642726567450795
0.646637153930368
0.650619199665088
0.654614637506502
0.658799777719084
0.663005666920315
0.667663752927423
0.672274713501583
0.678083631201962
0.684267488793499
0.688913078981469
0.693294591084375
0.696582128770619
0.698755935707591
0.699396028042963
0.697617154246537
0.692718839523964
0.684497280059863
0.672779526416782
0.657404145229128
0.639752754563587
0.619790945661563
0.595558881461309
0.565574396257805
0.52605006545626
0.468910834248801
0.384170575850679
0.278148060778131
0.138502229508853
-0.00785112671509235
-0.137118988952306
-0.126963318247063
-0.0932478151377983
-0.0157192304044017
-1.13450161931906e-05
0.0103423801901243
-0.0102512425340981
0.0455672720114565
0.0965327131708131
0.130378577617689
0.139946040682283
0.15136157020036
0.156126752708482
0.161685225843515
0.164614082128658
0.168227279123263
0.170807550239914
0.173620357361175
0.175933605720621
0.178430056477968
0.180726377480621
0.183144773037016
0.185629429148621
0.18820866877582
0.190752895455405
0.193462132644853
0.196315328360134
0.199209451870806
0.202480170860803
0.204269073705682
0.206622546975511
0.211766854430278
0.218098027164098
0.225553839196232
0.233792284329382
0.242708723344889
0.252162200079105
0.262068880063084
0.272339775393114
0.282901164581578
0.2936802146063
0.30461207394305
0.315635020340764
0.326693057322526
0.337734444254056
0.34871272991677
0.359586581449647
0.37031986120392
0.380881972486706
0.391246972099545
0.401394309740764
0.411307165214955
0.420972621266977
0.430381723418658
0.439529632919922
0.448414039813114
0.457036026922516
0.465397566852314
0.473502117853538
0.481354664849923
0.488961893412744
0.496331277309391
0.503470595655347
0.510388032933834
0.517092281111681
0.523592252870272
0.529896453502567
0.536013736837059
0.541952628968402
0.547721790467687
0.553329280634867
0.558783303379107
0.564091564514728
0.569261664885683
0.574300832980426
0.579216165852275
0.58401455718722
0.588702583891537
0.593286909086728
0.597773789384395
0.602169915004497
0.60648129622027
0.610715079981152
0.614877116088345
0.618975908083
0.623016842301293
0.627011608481065
0.630963960987763
0.634892941051896
0.638797126976532
0.642712569469531
0.646622769712863
0.650604421658312
0.654599356263659
0.658784037435986
0.662989218915019
0.667647015255531
0.672256700645828
0.678064079441557
0.684253498360091
0.688903216687752
0.693285089372792
0.69656599545257
0.698725319258308
0.699337687447519
0.697516504414987
0.692568560882994
0.684296725093811
0.672531821016085
0.657125251228088
0.639453424385179
0.619456625847951
0.595168451870892
0.565096874863416
0.525420742628817
0.46806114808876
0.383152067008874
0.277025553220345
0.137452160488634
-0.00855474375955628
-0.137232068520769
-0.126859500437536
-0.0931820760074004
-0.0157088854221941
-2.12816362670727e-05
0.0103539255728172
-0.0102204115811138
0.0454709287972896
0.0963509904719969
0.130235612054396
0.139862859081286
0.151294576936832
0.15608756541061
0.161657294386079
0.164599120524115
0.168215859360241
0.170802298501214
0.173618230796049
0.175934726665366
0.178432062435944
0.180729435986649
0.183146580747769
0.185629503571697
0.188207544583681
0.190750325654407
0.193456987583752
0.196307924653816
0.199200880456011
0.202471003407556
0.20426794971714
0.206644373962327
0.211796843946767
0.218129986194243
0.225587436442663
0.233826576164415
0.242743228243174
0.252196426058007
0.262102465976712
0.272372405955338
0.282932582705663
0.293710198332902
0.304640446393308
0.31566164220016
0.326717827284907
0.337757294763283
0.348733624990259
0.359605512893324
0.370336844842633
0.380897044538432
0.391260184807633
0.401405729060711
0.41131686834601
0.420980693640088
0.430388254362242
0.439534712942908
0.448417757787782
0.457038469922688
0.465398821253188
0.473502268455872
0.481353791561355
0.488960070069185
0.496328572985395
0.503467075867846
0.510383758518728
0.517087307021683
0.523586629063106
0.529890225612997
0.536006948281392
0.541945322399087
0.547714002393558
0.553321042085988
0.558774643006794
0.564082507986482
0.569252235350862
0.574291051443118
0.579206050964346
0.584004125611918
0.588691850436202
0.593275887015093
0.597762489989037
0.602158348225945
0.606469469763871
0.610703000794183
0.614864787667293
0.618963334379992
0.623004020647759
0.626998540401967
0.630950633347689
0.634879355399316
0.638783249386711
0.642698410294291
0.646608249929205
0.650589587547483
0.654584018231897
0.658768368369396
0.662972764289007
0.66763050918871
0.672238125968646
0.678042665244793
0.684236777038094
0.688888300674808
0.693268719679099
0.696540850030768
0.698683292681788
0.699265670842562
0.697401186377646
0.692404546849838
0.684084928932082
0.672276896137157
0.656842921877841
0.639150728583136
0.619116738071579
0.594770421868789
0.564609799774163
0.524782600249787
0.467215911501545
0.382162166776074
0.275964037969527
0.13650565815649
-0.009116320473942
-0.137218350656053
-0.126704917083223
-0.0931044334918228
-0.0156948027265359
-2.59638858727372e-05
0.0103744486036351
-0.0101746100873723
0.0453850880684952
0.0961789489706245
0.1301010854366
0.139784005959205
0.151230171550145
0.156049612676732
0.161630033022677
0.164584352749703
0.16820461306813
0.170797085520232
0.173616204697677
0.175935847094406
0.178433625694464
0.180731023143475
0.183145262062826
0.185623689311887
0.188196852354209
0.190734252584073
0.193434026342312
0.19627825679248
0.199166347708371
0.202429648490647
0.204241980797692
0.206658609194469
0.211822587086701
0.218158435840858
0.225617674490729
0.233857193408489
0.242773571140756
0.252225891484416
0.262130676528928
0.272399052322173
0.282957424561063
0.293733045103723
0.304661165989867
0.315680148574417
0.326734080032339
0.337771291892259
0.348745398505205
0.359615123017425
0.370344373666115
0.38090259178472
0.391263861277603
0.401407655881557
0.411317175103455
0.420979512741619
0.430385713732785
0.439530934423034
0.448412853714776
0.457032546366714
0.465391982234502
0.473494613562283
0.481345409560435
0.488951038287016
0.496318961459272
0.503456950082824
0.510373177240355
0.517076319546379
0.523575278357288
0.529878559459647
0.535995010798407
0.541933140520455
0.547701598688331
0.55330843968408
0.558761861511946
0.56406956372868
0.56923914242742
0.574277822173322
0.579192695638818
0.583990652776075
0.588678267201627
0.593262199702197
0.597748703373784
0.602144466574414
0.606455495370661
0.610688936616722
0.61485063321212
0.61894909185139
0.622989684529382
0.626984113648005
0.630936100455077
0.634864724849776
0.63876848302363
0.642683535593393
0.646593176331484
0.650574408991132
0.654568505183317
0.658752771485096
0.66295648896746
0.667614425076637
0.672219276278487
0.678017797552499
0.684212627000344
0.688861336511905
0.693236155136652
0.696495463224696
0.698617018580439
0.699165942912447
0.6972575101966
0.692215264624207
0.683853606891339
0.672010491556915
0.656556820571963
0.638845920675497
0.618772725382771
0.594366961562652
0.564117016755811
0.524144547999699
0.466397707599951
0.381243242887081
0.275028407511402
0.135754523410855
-0.00942463870443197
-0.136980747785375
-0.126463345789215
-0.0930086014351926
-0.0156783982636877
-2.54916129545855e-05
0.0104083922718383
-0.0101017966058187
0.0453097529769467
0.0960056004528888
0.129968494352795
0.139706355575826
0.151165630361285
0.156011281540353
0.161602146908851
0.164569055035771
0.168192923567062
0.170791617901401
0.173614172014384
0.175937058857028
0.178434710346758
0.180730793212169
0.183139748214324
0.185609728820781
0.188172977975049
0.19069990152806
0.193387335844552
0.196219646000926
0.199098593973561
0.202349124804611
0.204190371303252
0.206668516771279
0.211846435756053
0.218184992775804
0.225645456379998
0.23388412926071
0.242798822753644
0.252248749451225
0.262150758038329
0.2724160387793
0.282971118697896
0.293743329580236
0.304668005630867
0.31568357136673
0.326734174819569
0.337768196243218
0.348739290180222
0.359606209952248
0.370332883050913
0.380888763209572
0.391247936805467
0.401389880073848
0.411297795178171
0.420958769452626
0.430363827986208
0.43950810554788
0.448389255672184
0.457008334853819
0.46536730680811
0.473469614509401
0.48132020511535
0.48892572310616
0.496293616063983
0.50343164793466
0.510347981039275
0.517051274874101
0.523550432184468
0.529853946480185
0.535970645121012
0.541909037586416
0.547677772273677
0.553284900039238
0.558738614639581
0.564046611424741
0.569216484423258
0.574255457036744
0.579170620285745
0.583968862634201
0.588656757058055
0.593240964888891
0.597727738619455
0.602123767570776
0.60643505673828
0.610668756249647
0.614830706357608
0.618929420453638
0.622970262411242
0.626964950381196
0.630917183743688
0.634846081400596
0.638750080447457
0.642665440409955
0.646575298206606
0.650556933364563
0.65455119119363
0.658736036854939
0.662939579800231
0.667598564297742
0.672201222508193
0.677988304849803
0.684174702100365
0.68881231806569
0.693174331888303
0.696413624063008
0.698507134764788
0.699015288420999
0.697058657306944
0.691971513637203
0.68357232180099
0.671702118458561
0.656238167025639
0.638511915616689
0.618397073039941
0.593928355493574
0.563584749853015
0.523466269179898
0.465560915207639
0.38035159834009
0.274183549096344
0.135186713169976
-0.0094489677476073
-0.136446191452264
-0.126079637620258
-0.0928725629516504
-0.0156583120072691
-1.95201197174654e-05
0.0104605830390059
-0.00998727733185006
0.0452546043757224
0.095828225354612
0.129835900701155
0.139629225209191
0.151100413245522
0.155972170101917
0.16157326870513
0.164552965672302
0.168180585707548
0.170785794837539
0.173612199139313
0.175938553692734
0.178435424748416
0.180728561076102
0.183129307476116
0.185586095139089
0.188133795181645
0.190645059086498
0.193315026538599
0.196131062813899
0.198997929530197
0.202232607943386
0.204119611710806
0.206678675412188
0.211871215050803
0.2182114611466
0.225671442615346
0.233906972132366
0.242817610346177
0.252262744375944
0.262159617894354
0.272419500622155
0.282969112206908
0.293735881017754
0.304655244478299
0.315665704128247
0.32671148102206
0.337741011138586
0.348707992130966
0.359571205872132
0.370294592957179
0.380847610455223
0.391204334996173
0.401344234028814
0.411250504262933
0.420910215511895
0.430314354877123
0.439458016451153
0.448338808952825
0.456957754965192
0.465316806511407
0.473419392215468
0.481270424074257
0.488876507626925
0.496245067134463
0.503383856216081
0.510301021616175
0.517005202220439
0.523505274487185
0.529809723119066
0.535927377029797
0.541866734090635
0.547636433371508
0.553244521879089
0.55869918814553
0.564008121734829
0.569178914539824
0.574218789483995
0.579134836301598
0.583933942174045
0.588622680439851
0.593207714761558
0.597695298379983
0.602092123591438
0.606404195787516
0.610638672037287
0.614801391608403
0.618900880192724
0.622942494100112
0.626937977203901
0.630891004685791
0.63482075445501
0.638725592562775
0.642641920537657
0.646552676121126
0.650535510842241
0.654530747479874
0.658717241607307
0.662921534272628
0.667582894692336
0.672185389300794
0.677954624886521
0.684119561260479
0.688734790326196
0.69307413896774
0.696283713477819
0.698339698946064
0.698797152550546
0.696785405645994
0.691651911548285
0.683218301983681
0.671328451004089
0.655864460725837
0.638128191302222
0.617970689595566
0.593435832657295
0.562993486851275
0.522726364079568
0.464683331568711
0.379468209757861
0.273417651089644
0.13480483466208
-0.00915915290622737
-0.135555458831895
-0.125499635022576
-0.0926688714007707
-0.0156300285697477
-5.74140270420238e-06
0.0105358417775797
-0.00981628584381303
0.0452338200216839
0.0956487474553169
0.129702963476031
0.139552772134789
0.151034759863156
0.155932347100292
0.161543375780599
0.164536011926469
0.168167559655517
0.17077963672021
0.173610492974017
0.175940679223756
0.178436114860179
0.180724550563079
0.183114039929152
0.185552955520871
0.188080080102512
0.190571667633123
0.193220633405685
0.196017922779846
0.198871879435792
0.202090457283429
0.204038293529267
0.206691412193948
0.211897714968252
0.218238083458634
0.225695242618172
0.23392504780957
0.242829131922595
0.252267054771366
0.262156489472434
0.272408819706973
0.282950981098041
0.293710498428992
0.304622918089784
0.315626819973572
0.326666499503382
0.337690446688855
0.348652398566859
0.359511159304106
0.370230673847106
0.380780392514561
0.391134370275504
0.401272055520145
0.411176631991251
0.42083514288209
0.430238523389765
0.439381812412615
0.44826255895758
0.456881739818738
0.465241290808233
0.473344622865567
0.481196603541116
0.48880378796369
0.496173570048834
0.503313690765923
0.510232280216032
0.516937938026198
0.523439520594663
0.529745514858611
0.535864737135765
0.541805666173861
0.547576930119369
0.553186572011088
0.558642774383851
0.56395321942238
0.569125496628666
0.574166828904252
0.579084304988368
0.583884810800731
0.588574920782407
0.593161302512588
0.597650211213069
0.60204834398284
0.606361708012387
0.610597470777944
0.614761472481411
0.618862256455667
0.622905172728348
0.626902000251741
0.630856389454425
0.634787595701122
0.638693906242061
0.642611903153995
0.646524296463999
0.650509177323224
0.65450627705732
0.658695538133363
0.662901625501761
0.667566519517136
0.672171141408733
0.677916791839569
0.684047816701317
0.688629771433767
0.692936066927566
0.696105543947714
0.698113781840691
0.698509737993608
0.696434190645222
0.69125012795069
0.682782224050458
0.670877287808907
0.655421420737836
0.637680520963538
0.61748037313977
0.592876915915454
0.562330971719936
0.521911978345478
0.463750316541963
0.378577933736074
0.272717583134383
0.134601383223974
-0.00854691346535542
-0.134275357469006
-0.124678578853518
-0.0923681581518165
-0.0155861409400541
2.05304235343814e-05
0.0106389826630257
-0.00957686646451032
0.045261276909415
0.0954724662778367
0.129569384687007
0.139476804574265
0.150968718489385
0.155891788811263
0.161512408587084
0.164518125120347
0.168153851719806
0.170773275073913
0.173609438208831
0.175944038407304
0.178437543926903
0.18071972028498
0.183095303688533
0.18551248942458
0.188015251210292
0.190484484526062
0.193110306742262
0.195887624930794
0.19872884546305
0.201932092823359
0.203951209868767
0.206705314390653
0.21192422517967
0.218263689380532
0.225716108626819
0.233938246370791
0.242833907382231
0.252262846533655
0.262143182082625
0.272386440994178
0.282919772431412
0.293670793367902
0.304575157833384
0.315571520910189
0.326604249857732
0.337621884768987
0.348578197317577
0.359432008116593
0.370147259419904
0.380693387392558
0.39104441674104
0.401179769821814
0.411082611757819
0.420739952727579
0.430142667404069
0.439285730622739
0.448166622362188
0.456786266365674
0.46514657841629
0.473250949402394
0.481104197263532
0.488712820096809
0.496084177027614
0.503225995207208
0.510146384660918
0.516853902940859
0.523357390185528
0.529665328503503
0.535786516682697
0.541729414009081
0.547502637010938
0.553114224218638
0.558572351983643
0.563884693997098
0.569058837136494
0.574102004563913
0.57902128440018
0.583823561294803
0.588515411237709
0.59310350690543
0.597594106470478
0.601993913169396
0.606308937037808
0.610546358450053
0.614712020232878
0.618814487104222
0.622859104278571
0.626857692019354
0.630813876702193
0.634747003037537
0.638655276109538
0.642575481908184
0.646490088060673
0.650477659628124
0.654477291784183
0.658670101027697
0.662878736544491
0.66754756666878
0.672155629846455
0.677873666320065
0.683962071301637
0.688502874247064
0.692767190313224
0.695887156414251
0.697838123191446
0.698162488187389
0.696014089630195
0.690773117222712
0.682267710000362
0.670348071020777
0.654903985736405
0.637161330684686
0.616917802428303
0.592242979395018
0.561588207930128
0.521013020966276
0.462746938922437
0.37765984319281
0.272057427223113
0.13454721540787
-0.00763611351937213
-0.132606098390419
-0.123588686002674
-0.0919456995268755
-0.0155187671492055
6.57142345122975e-05
0.010775127708179
-0.00926193745519132
0.0453464677002443
0.0953076865208678
0.129435865538303
0.139400872085006
0.150902071800045
0.155850342019607
0.161480283219361
0.164499283174904
0.16813958237217
0.170767034855279
0.173609660097734
0.175949523018052
0.178440874484537
0.180715591670463
0.18307516085533
0.185467602594458
0.187943112512196
0.190387940672129
0.192988982676917
0.195745349966358
0.19857395373654
0.201762522028722
0.203859461303606
0.206717977295435
0.211948906797288
0.218287349812985
0.225733844031028
0.23394710681241
0.242833104147084
0.252251859800888
0.262121964592382
0.272355107884923
0.282878652014432
0.29362030647222
0.304515833021641
0.31550396102345
0.326529128654411
0.337539924155342
0.348490151201457
0.359338643484197
0.370049336299598
0.380591647203932
0.390939564981721
0.401072481611463
0.410973539357217
0.420629710689661
0.430031804370141
0.439174725545824
0.448055878984076
0.456676130646658
0.465037372412797
0.473142972776814
0.480997697008855
0.488607982167561
0.49598114935355
0.503124912127279
0.510047352680876
0.516756992780818
0.523262650007828
0.529572795887739
0.535696214649368
0.541641345458926
0.54741679220574
0.553030588111221
0.558490903489069
0.563805402732068
0.568981669836822
0.574026928347205
0.578948266182484
0.583752566699203
0.588446407660513
0.59303646768349
0.597529008629327
0.601930740780015
0.606247677724774
0.610487014325908
0.61465459738016
0.618759015194589
0.622805609500271
0.626806245083153
0.630764525442761
0.634699890195627
0.638610461539168
0.642533238281264
0.646450439226763
0.650441110586967
0.654443682607914
0.658640428282131
0.662851973499913
0.667524404484448
0.672135991215312
0.677823686047862
0.683864035183372
0.688358717329477
0.692574116042732
0.695636702391964
0.697522160157856
0.697766253479974
0.695536839519819
0.690232238009141
0.681684478202997
0.669747695733202
0.654314998744321
0.636570096292478
0.616280340957747
0.591529980965621
0.560759915356923
0.520022752495017
0.46166036375461
0.376692029390704
0.271405131066509
0.134599967595613
-0.00647459723631851
-0.130577886298428
-0.122222908885232
-0.091385541946958
-0.0154217302462896
0.00013536516325702
0.0109506683598954
-0.00886952460771876
0.0454921722072473
0.0951628608850899
0.129305586023615
0.13932490093628
0.150834447545291
0.155807811054429
0.161446993689451
0.164479613046282
0.168125075268637
0.170761477490607
0.173611969415391
0.175958129507811
0.178447296516751
0.180713603073678
0.183055387769294
0.185420569756567
0.187866333292307
0.19028482347805
0.192859494930671
0.195593802719801
0.198409660688234
0.201583992443221
0.203763064434679
0.206727880694269
0.211970771922153
0.218308720276031
0.225748616590482
0.233952261906766
0.242827734772491
0.252235441554442
0.262094478298958
0.272316717518475
0.282829738713017
0.293561348517039
0.304447418593671
0.315426753977555
0.326443864411518
0.337447386002235
0.348391153339179
0.359234011499915
0.369939886326124
0.380478174131895
0.390822823873392
0.400953194430536
0.410852401800785
0.420507376996795
0.429908859366823
0.439051680572996
0.447933165709091
0.456554119687602
0.464916406467767
0.473023369686058
0.480879719992711
0.488491830758306
0.495866983132659
0.503012874082618
0.509937555363976
0.516649515402277
0.523157541201936
0.529470094405215
0.535595945903544
0.541543513493706
0.547321387350858
0.552937594421548
0.558400299237617
0.563717156175774
0.568895745997836
0.573943292574978
0.578866883997004
0.583673402229576
0.588369426830392
0.592961642936446
0.59745631662511
0.601860165806612
0.606179208045354
0.610420653645732
0.614590354401931
0.618696923339239
0.622745699798653
0.626748594230823
0.630709188502092
0.634647018406914
0.638560123840393
0.642485715615216
0.646405762080824
0.650399778773418
0.654405513350816
0.658606308912612
0.662820834807164
0.667496093293576
0.672110368582638
0.677765509351304
0.683754136262699
0.688199537934953
0.69236070425197
0.695359432704895
0.697172339532034
0.697328803657689
0.6950114152183
0.689637085578856
0.681041967976864
0.669084607283395
0.653660756396561
0.635910735159404
0.61556992605317
0.590738321550832
0.55984496110898
0.51893870989029
0.460482847329581
0.375657662653431
0.270731686633958
0.134716493604659
-0.0051196870728878
-0.128239648911642
-0.12059203385035
-0.0906773757953869
-0.0152908336776888
0.000231234587268835
0.0111711850014998
-0.00840015312595169
0.0456929889915565
0.0950416072286916
0.129184325677093
0.139250248860674
0.150765494191457
0.155764074236161
0.161412708938563
0.164459459538311
0.168110859340622
0.170757300598881
0.173617141094767
0.175970635763828
0.178457619696749
0.180714656017158
0.18303704924275
0.1853727343996
0.187786446371089
0.190176686788832
0.192723395372905
0.195434436049599
0.198237331289873
0.201397862891996
0.203662163957669
0.206734308316108
0.211989349989601
0.218327701084554
0.225760630076296
0.233954199052531
0.242818520489883
0.252214529059022
0.262061847506093
0.272272561037377
0.282774470517946
0.2934954865767
0.304371593586117
0.315341674628109
0.326350312150737
0.33734619051034
0.348283174787847
0.359120120613766
0.369820942885181
0.380355015179835
0.390696243857689
0.400823953166971
0.410721230011815
0.420374960838908
0.429775813520301
0.438918543854825
0.447800394123162
0.456422106159116
0.464785511948179
0.47289392775345
0.48075200853214
0.488366062354064
0.495743330609867
0.502891485028167
0.509818552878118
0.516532983780028
0.523043532207533
0.529358649640147
0.535487093767492
0.541437259950467
0.547217723685358
0.552836504528281
0.558301761558546
0.563621138439168
0.568802212239598
0.573852206948348
0.578778211144014
0.583587105212163
0.588285470342146
0.592879998562188
0.597376960512932
0.60178308205986
0.606104384922014
0.610348095333932
0.614520070859952
0.618628949600102
0.622680069392651
0.626685386036617
0.630648461005604
0.634588924575083
0.638504735760684
0.642433309922821
0.646356366758132
0.650353865422398
0.654362862727117
0.658567641609875
0.662785020094882
0.667462103495381
0.672077641714194
0.677698114106389
0.683632222801568
0.688026187028808
0.692128960909736
0.695058447747739
0.696792714234482
0.69685521395937
0.694443901510408
0.688994493815407
0.680347349167122
0.668365844287364
0.652947478704541
0.63518829903884
0.614790525157308
0.589871067473829
0.558845372128056
0.517762235423213
0.45921244186225
0.37454795763843
0.270017236257692
0.134862498073272
-0.00362461221319723
-0.125646555051168
-0.118718169803031
-0.0898134606764923
-0.0151215105595204
0.000353380458749079
0.0114394605280626
-0.00785352977395217
0.0459426622957944
0.0949362405074203
0.129077164164835
0.139180863808077
0.150695153090163
0.155719204243735
0.161377811321328
0.164439354888414
0.168097548542013
0.170755134258577
0.173625685243255
0.175987412018679
0.178472162683436
0.180719115997672
0.183020640805077
0.185324820310774
0.187704346310053
0.190064484102547
0.192581675917299
0.195268222494773
0.198057972794561
0.201205243386572
0.203557073641292
0.206736882538873
0.212004349541062
0.218344241462857
0.225770040492766
0.233953287453785
0.242806007940434
0.252189841697087
0.262024942479858
0.272223646961488
0.282713979774112
0.293423963648444
0.304289698409317
0.315250147946192
0.326249968584265
0.337237893583206
0.348167818411574
0.35899860896846
0.369694168434065
0.380223847040323
0.39056150669289
0.400686436522787
0.410581692004924
0.420234112413555
0.429634293338942
0.43877691359487
0.447659130678101
0.456281622489359
0.46464618499816
0.472756104549923
0.480615980102123
0.48823205427598
0.495611528181879
0.502762040714075
0.509691600873637
0.516408612514142
0.522921798726728
0.529239598863458
0.535370757687511
0.54132364736494
0.547106827832897
0.552728310000049
0.558196247914339
0.563518273838414
0.56870196060034
0.57375453196869
0.578683077296409
0.583494475115965
0.588195307921817
0.592792274837713
0.597291651267173
0.60170017114553
0.606023860318865
0.610269961059277
0.614444337275064
0.61855565186553
0.622609241902795
0.626617107023163
0.630582789590077
0.634526010256211
0.638444649345626
0.642376313971365
0.646302479979531
0.650303511426503
0.654315779228455
0.658524341827679
0.662744288010611
0.667422052552798
0.672037043807988
0.677620703841876
0.683497980334992
0.687838921755117
0.691879961675044
0.694735690538241
0.696386000588428
0.696349004062336
0.693838604633988
0.688309394175262
0.679605918653647
0.66759676603026
0.652180212115139
0.634407308096515
0.613946246038955
0.588932031398093
0.557764620401926
0.516496849231328
0.457851386993138
0.373361326549825
0.269252384557888
0.135016603381312
-0.00202986116726141
-0.122850033204976
-0.116627850860673
-0.0887929155734685
-0.0149080991727077
0.000502913953796978
0.01175722493725
-0.00722717587957403
0.0462453645188058
0.0948404745572228
0.128987004015231
0.139123514280982
0.150623980295978
0.155673539209451
0.161342841984531
0.164419895253255
0.168085677724717
0.170755385710693
0.173637775177738
0.176008458148506
0.178490886871767
0.180727023054938
0.183006356832227
0.185277248324642
0.187620631279768
0.189948894646485
0.192435071367161
0.195095918094405
0.197872419231027
0.201007088122969
0.203448137941692
0.206735354572367
0.212015557414968
0.218358305066616
0.225776970521874
0.23394983153934
0.242790651087314
0.252161981127995
0.261984495874327
0.27217082935129
0.282649229982166
0.293347841642799
0.304202882069927
0.315153398932958
0.326144123505036
0.337123838748529
0.348046470613325
0.3588708954087
0.369561004413906
0.380086124662517
0.390420072533408
0.400542102534307
0.410435236811454
0.420086265256217
0.429485711499739
0.438628177374085
0.447510734663729
0.456133997597443
0.464499722110579
0.472611162053912
0.480472860704153
0.48809099778462
0.495472727397686
0.502625659539622
0.509557779718891
0.516277445756163
0.522793349536093
0.529113915839936
0.535247877097711
0.541203581734102
0.54698957329065
0.5526138526405
0.558084569330517
0.563409343539227
0.56859574321659
0.573650991466184
0.57858217868737
0.583396181207498
0.588099582347882
0.592699088393162
0.597200979587083
0.601611997863299
0.605938172982507
0.61018676302841
0.614363638668324
0.6184774867645
0.622533644252661
0.626544152020436
0.630512534698461
0.634458597055364
0.638380143694584
0.642314955924647
0.646244273383823
0.650248813678982
0.654264281202321
0.658476318666602
0.662698411417133
0.667375607182448
0.671987984442376
0.677532628309567
0.683351038928886
0.687637694750648
0.691614243391446
0.694392399941454
0.695954091851692
0.695812738334887
0.693198734493071
0.687585520138966
0.678821741950571
0.666781522373871
0.651362948529703
0.633571466558563
0.613040655651265
0.587924778086382
0.556606381618593
0.51514672565259
0.456403893857768
0.372100527149538
0.268435646645667
0.135169077589484
-0.00036104847774719
-0.119891205873006
-0.114348513948028
-0.0876271368473614
-0.0146445759134625
0.000681903252673852
0.0121252462542197
-0.00651820165469198
0.0466114168005308
0.094780564957501
0.128913460314842
0.139086190635729
0.150553399180786
0.155627676160893
0.161308390831445
0.164401610764426
0.168075605129232
0.170758215177306
0.173653321948574
0.176033548951968
0.178513574617704
0.180738275177989
0.182994264924535
0.185230302689152
0.187535754310784
0.189830452734823
0.192284174147546
0.194918155306026
0.197681390005449
0.20080422344672
0.203335684854261
0.206729549147057
0.212022819818733
0.218369869466057
0.225781524559506
0.233944094750401
0.242772844953537
0.25213147117802
0.261941147722764
0.272114856910157
0.282581068236863
0.293268056517308
0.304112159457215
0.315052511590785
0.32603392002765
0.337005218297199
0.347920363038503
0.358738241450905
0.369422733223425
0.379943143001089
0.390273241258355
0.400392249311995
0.410283154473559
0.419932695351338
0.429331324978345
0.438473569233963
0.447356414210619
0.455980411803153
0.464347273924129
0.472460219298402
0.480323736608515
0.487943947076926
0.495327947250581
0.502483329174866
0.509418042332496
0.516140403384584
0.522659072074651
0.528982456012071