/*--------------------------------*- C++ -*----------------------------------*\
  =========                 |
  \\      /  F ield         | OpenFOAM: The Open Source CFD Toolbox
   \\    /   O peration     | Website:  https://openfoam.org
    \\  /    A nd           | Version:  7
     \\/     M anipulation  |
\*---------------------------------------------------------------------------*/
FoamFile
{
    version     2.0;
    format      ascii;
    class       surfaceScalarField;
    location    "20000";
    object      phi;
}
// * * * * * * * * * * * * * * * * * * * * * * * * * * * * * * * * * * * * * //

dimensions      [0 3 -1 0 0 0 0];

internalField   nonuniform List<scalar> 
30950
(
1.05416466718624e-05
-1.59934800595946e-06
1.06144303584593e-05
-7.2782634334564e-08
5.41928494604599e-06
5.19514942681053e-06
-1.11614842195952e-06
6.53543875739024e-06
-4.62719382679723e-06
3.51104926696463e-06
-4.3768360037072e-06
-2.50355384554085e-07
-3.85670234019314e-06
-5.20132341257829e-07
-3.53792212805417e-06
-3.18778788647112e-07
-3.52153641262211e-06
-1.63843143765604e-08
-3.60646363590872e-06
8.49287732750705e-08
-4.00064974305997e-06
3.94185745458983e-07
-4.4425285111705e-06
4.41877379099405e-07
-5.07846159030622e-06
6.35932067543813e-07
-5.84677279817909e-06
7.68310604959594e-07
-6.90021087789111e-06
1.05343720947601e-06
-8.14831901715821e-06
1.24810706347717e-06
-9.70792487105537e-06
1.55960516113744e-06
-1.15112821478651e-05
1.80335709491651e-06
-1.34736885334255e-05
1.96240640162568e-06
-1.55633396841161e-05
2.08965120718675e-06
-1.78603637722374e-05
2.29702414532566e-06
-2.01388786970637e-05
2.27851488149406e-06
-2.21965560220301e-05
2.05767709955784e-06
-2.38879318633151e-05
1.69137546346792e-06
-2.50929028130092e-05
1.20497049653701e-06
-2.9013020940151e-05
3.92011779538643e-06
-3.49263850472561e-05
5.91336410360499e-06
-3.90882787223971e-05
4.16189391062848e-06
-4.18697254811735e-05
2.78144701837407e-06
-4.38129031950025e-05
1.943177749426e-06
-4.51694069539357e-05
1.35650348070451e-06
-4.60631770951482e-05
8.93769639187817e-07
-4.657790297571e-05
5.14725297170646e-07
-4.67603920332345e-05
1.82488471157347e-07
-4.66475273859904e-05
-1.12865239748064e-07
-4.62676885150279e-05
-3.79839508308831e-07
-4.56480890890738e-05
-6.19600127409881e-07
-4.4812706610128e-05
-8.35383210015129e-07
-4.37849121553872e-05
-1.02779513585028e-06
-4.2586868649826e-05
-1.19804405149742e-06
-4.12404065860131e-05
-1.34646243056989e-06
-3.97667324095722e-05
-1.4736743846142e-06
-3.81863061355339e-05
-1.58042639313599e-06
-3.65187543919177e-05
-1.66755184897674e-06
-3.47821905732321e-05
-1.7365639521134e-06
-3.29936316858552e-05
-1.78855904723853e-06
-3.11679721735706e-05
-1.82565967496988e-06
-2.93192425877426e-05
-1.84872973300137e-06
-2.74609068750073e-05
-1.8583358446299e-06
-2.56051123704433e-05
-1.85579463636577e-06
-2.37617114090651e-05
-1.84340110904231e-06
-2.19390637044167e-05
-1.82264787318277e-06
-2.01428380215394e-05
-1.79622586486913e-06
-1.83783585698821e-05
-1.76447963565976e-06
-1.66509706777942e-05
-1.72738807269159e-06
-1.49651984715905e-05
-1.68577238700443e-06
-1.33238161415755e-05
-1.64138251893013e-06
-1.17285081927041e-05
-1.59530815048075e-06
-1.01808576946735e-05
-1.54765071063755e-06
-8.68219409990344e-06
-1.49866381341671e-06
-7.23292741977095e-06
-1.44926690154537e-06
-5.83286662192278e-06
-1.40006102139042e-06
-4.48217911683113e-06
-1.35068773051527e-06
-3.18054331729832e-06
-1.3016360275274e-06
-1.92740026917342e-06
-1.25314327443864e-06
-7.2176983317505e-07
-1.20563064622516e-06
4.37006350862701e-07
-1.15877635299724e-06
1.54994455850675e-06
-1.11293830332841e-06
2.61802026358776e-06
-1.06807569626385e-06
3.6422360726519e-06
-1.02421567394672e-06
4.62338945350353e-06
-9.81153112725141e-07
5.5622886742651e-06
-9.38898829193147e-07
6.45968880945121e-06
-8.97399640464663e-07
7.31601950994825e-06
-8.56330126468764e-07
8.13164072934566e-06
-8.15620588583715e-07
8.90644965113156e-06
-7.74808253888637e-07
9.64039180940087e-06
-7.33941470260003e-07
1.03325191090723e-05
-6.92126607782967e-07
1.09820805444397e-05
-6.4956075747832e-07
1.15867179607764e-05
-6.04636772144452e-07
1.21449306799823e-05
-5.58212129461947e-07
1.2651856360799e-05
-5.06925165004477e-07
1.31052364808038e-05
-4.53379694909333e-07
1.34951657094301e-05
-3.89928909012299e-07
1.38191293890974e-05
-3.23963477078478e-07
1.40565408217239e-05
-2.37411353670957e-07
1.42064118053415e-05
-1.49871028461463e-07
1.42237748832433e-05
-1.73632386453769e-08
1.41147007546329e-05
1.0907387078702e-07
1.37749587701311e-05
3.39741662790355e-07
1.32248614140631e-05
5.50097020556261e-07
1.22106720921e-05
1.01418903657594e-06
1.0719669591731e-05
1.49100232465913e-06
8.02097617481285e-06
2.69869338703356e-06
6.99707173812928e-06
1.0239044933073e-06
9.06825619193719e-06
-2.07118441313251e-06
1.15233048346656e-05
-2.45504862238106e-06
1.4492142468187e-05
-2.9688375876938e-06
1.7681085911532e-05
-3.18894328728879e-06
2.11293283221195e-05
-3.44824206873706e-06
2.49750331670495e-05
-3.84570429799252e-06
2.88167940324171e-05
-3.84176017833604e-06
3.20968456011212e-05
-3.28005085732187e-06
3.46151920115731e-05
-2.51834573165602e-06
3.61806703506078e-05
-1.56547765406259e-06
3.64290710661767e-05
-2.48399977702894e-07
3.58752921721927e-05
5.53779648936536e-07
3.5157489477589e-05
7.17803358394992e-07
3.44159472497038e-05
7.41542648073969e-07
3.40119785350357e-05
4.0396873524815e-07
3.43908447016495e-05
-3.78866593407638e-07
3.50896879288755e-05
-6.98843652646399e-07
3.52369851611755e-05
-1.47296964634019e-07
3.52487828591459e-05
-1.17970068493631e-08
3.40817417249634e-05
1.16704137775865e-06
2.99832233066945e-05
4.09851818653567e-06
2.15254459503196e-05
8.45777724401736e-06
1.39048055941557e-05
7.62064033546085e-06
8.99836554316557e-06
4.90644013557546e-06
5.5154050943864e-08
3.33259260340204e-05
-5.9052964872876e-06
3.32401406401727e-05
1.30038095431423e-08
1.87761273782993e-05
1.96591667057328e-05
-1.31179811454239e-06
2.66233694737536e-05
-1.29329271145187e-05
1.5132180996725e-05
-1.30649281365117e-05
-1.18353410570121e-07
-1.1493025770655e-05
-2.09203410446544e-06
-1.07362196194379e-05
-1.07558354096092e-06
-1.06538651033357e-05
-9.8737975460535e-08
-1.10790915509997e-05
5.10156184979301e-07
-1.22468807033274e-05
1.56197511464105e-06
-1.37226150886012e-05
1.91761119893533e-06
-1.56860986822059e-05
2.59941493040934e-06
-1.81624771696145e-05
3.24468885309608e-06
-2.14183385802463e-05
4.30929873784897e-06
-2.53552679401418e-05
5.18503636610181e-06
-3.01813026265096e-05
6.38563954282613e-06
-3.57631966760647e-05
7.38525074630054e-06
-4.18531562266082e-05
8.05236533443192e-06
-4.83923060360282e-05
8.62880009810035e-06
-5.54493548021557e-05
9.35407193441938e-06
-6.24317181489835e-05
9.26087748494776e-06
-6.8745159012672e-05
8.37111748849654e-06
-7.40551160876052e-05
7.00133216103365e-06
-7.91770754784105e-05
6.3269294154923e-06
-9.05252873160076e-05
1.52683291347091e-05
-0.000105554308134515
2.0942384552033e-05
-0.000116248418492083
1.48560039090175e-05
-0.000123211244612835
9.7442725788553e-06
-0.000127970035896649
6.70196812072731e-06
-0.000131130279966872
4.51674631244301e-06
-0.000133042898587738
2.8063868489791e-06
-0.000133917933741891
1.38975901605667e-06
-0.000133888758351378
1.53311690918938e-07
-0.000133055377053077
-9.46247881444776e-07
-0.000131499993836357
-1.9352240402308e-06
-0.000129298354254136
-2.82124098763932e-06
-0.000126518720328057
-3.61501832866066e-06
-0.000123226260446832
-4.3202560574647e-06
-0.000119482991479411
-4.94131385779813e-06
-0.000115349181525092
-5.480273020085e-06
-0.00011088302309277
-5.93983329800084e-06
-0.00010614023431984
-6.32321556910544e-06
-0.000101173745661521
-6.63404089586467e-06
-9.60324221786025e-05
-6.87788783302788e-06
-9.07615662616251e-05
-7.05941535724243e-06
-8.54013770145713e-05
-7.18584928135808e-06
-7.99895828908921e-05
-7.26052416384705e-06
-7.45620080571461e-05
-7.2859109342954e-06
-6.91505752132177e-05
-7.267227699125e-06
-6.37814652862057e-05
-7.21251123241046e-06
-5.84763342624954e-05
-7.12777907710128e-06
-5.32507084910896e-05
-7.02185179958267e-06
-4.81190490818247e-05
-6.89613919181698e-06
-4.30956510103735e-05
-6.75078628429019e-06
-3.81922776889242e-05
-6.58914586022256e-06
-3.3416263706987e-05
-6.41739668374093e-06
-2.87722585739184e-05
-6.23931351066765e-06
-2.42645926736089e-05
-6.05531688687924e-06
-1.9896745742407e-05
-5.86651106864701e-06
-1.56697559034689e-05
-5.67625711109514e-06
-1.15833231520527e-05
-5.48649418717e-06
-7.63781127182774e-06
-5.29620006238026e-06
-3.83245278366182e-06
-5.10699499446362e-06
-1.65559164927595e-07
-4.92003737898601e-06
3.36529706809264e-06
-4.73648733863188e-06
6.76198265024685e-06
-4.55546232270742e-06
1.00272265106211e-05
-4.3781824289715e-06
1.31637408445944e-05
-4.20459012757938e-06
1.61741888610002e-05
-4.0346635880888e-06
1.90607720386553e-05
-3.86773597651661e-06
2.18256829317318e-05
-3.70380920409424e-06
2.44709149291651e-05
-3.54263093540896e-06
2.69977135717129e-05
-3.3831279067195e-06
2.94069055864385e-05
-3.22481160529899e-06
3.16983448101531e-05
-3.06624636731448e-06
3.38715427803782e-05
-2.90713824194277e-06
3.59242251343298e-05
-2.74480770168426e-06
3.78536410241205e-05
-2.57897535712338e-06
3.96540841737957e-05
-2.40507863649543e-06
4.13198574849483e-05
-2.22398419644392e-06
4.28395819036681e-05
-2.02664841447611e-06
4.42033307774483e-05
-1.81712750322838e-06
4.53890158939972e-05
-1.57561308875191e-06
4.63806411866644e-05
-1.31558798187733e-06
4.71347748803412e-05
-9.91544423216033e-07
4.76262061901329e-05
-6.41301884599652e-07
4.77649525620084e-05
-1.56109324922941e-07
4.75112960611844e-05
3.6273050656348e-07
4.66647825755769e-05
1.18625516988166e-06
4.51372826092528e-05
2.07759695260583e-06
4.24472693261358e-05
3.70420230911299e-06
3.81789980289838e-05
5.75927371924964e-06
3.10903225248522e-05
9.78736916656526e-06
2.81610391332585e-05
3.95318833800894e-06
3.30082490083114e-05
-6.91839367124417e-06
3.96978697533494e-05
-9.14466855694646e-06
4.75769260445191e-05
-1.08478928753044e-05
5.60638091697892e-05
-1.16758252500613e-05
6.51796100591185e-05
-1.25640416950388e-05
7.51843249865212e-05
-1.38504179313418e-05
8.51770241121425e-05
-1.38344580406956e-05
9.38466823820121e-05
-1.19497079259369e-05
0.000100619015079381
-9.29067728179691e-06
0.00010494717398384
-5.89363546246443e-06
0.000105993127156463
-1.29435215605313e-06
0.000104765564349721
1.78134326499481e-06
0.000102774741457105
2.70862682422089e-06
0.000100601776879051
2.91450756395506e-06
9.91916563892729e-05
1.81408937913221e-06
9.97389135947913e-05
-9.26123684374304e-07
0.000101256550202636
-2.21647989161345e-06
0.000101899036082405
-7.89782090090669e-07
0.00010211074334846
-2.23503580843056e-07
9.96340783035728e-05
3.64370658225831e-06
8.91509394068315e-05
1.45816568310293e-05
6.7090787367384e-05
3.05179291213452e-05
4.50263779357334e-05
2.96850497057139e-05
3.04933826096284e-05
1.9439435550782e-05
1.52856369084201e-06
5.87539211299457e-05
-1.22423946091539e-05
5.84187082288568e-05
3.48217622060594e-07
3.52453959908064e-05
4.28324822828061e-05
7.83143669052594e-07
6.10856262290818e-05
-2.04821766550259e-05
3.63975031526474e-05
-2.19006872441631e-05
1.30015743572953e-06
-1.93824917607933e-05
-4.61022907835201e-06
-1.82916425902406e-05
-2.1664311300208e-06
-1.81763226045966e-05
-2.14057379565946e-07
-1.90581511472924e-05
1.39198519124817e-06
-2.106646704085e-05
3.57029122858088e-06
-2.37190045468236e-05
4.57014825020552e-06
-2.71483743365976e-05
6.02878387939665e-06
-3.15335919367377e-05
7.62990623309317e-06
-3.71909061636895e-05
9.96661346410383e-06
-4.40757808856326e-05
1.20699114864331e-05
-5.24300396447145e-05
1.47398982589534e-05
-6.20715384713716e-05
1.70267492409126e-05
-7.26119520018382e-05
1.85927781012728e-05
-8.39549679477502e-05
1.99718147369645e-05
-9.60449115730572e-05
2.14440140794105e-05
-0.000107953566235123
2.11695309630452e-05
-0.000118746977451215
1.91645279210633e-05
-0.000128184505067685
1.64388592031787e-05
-0.000138215730311757
1.63581540934393e-05
-0.000156194673040101
3.32472713524788e-05
-0.000177741880820127
4.248959190204e-05
-0.000192898418910491
3.0012541436237e-05
-0.000202509736976358
1.93555897181796e-05
-0.000208834112826153
1.30263426152763e-05
-0.000212737437205054
8.42006902907363e-06
-0.000214751366177728
4.82031403719065e-06
-0.000215183512529856
1.82190359035367e-06
-0.000214241249948755
-7.88952616423794e-07
-0.000212081937274921
-3.10556223092968e-06
-0.000208838972155668
-5.17819077646719e-06
-0.000204631437392507
-7.02877726593444e-06
-0.000199567113691767
-8.6793433773202e-06
-0.000193747482706869
-1.01398881671333e-05
-0.000187268647388972
-1.14201500590686e-05
-0.00018022288045566
-1.25260406260958e-05
-0.000172698485684274
-1.34642285991958e-05
-0.000164779279698625
-1.42424220173242e-05
-0.000156544168072919
-1.48691529694084e-05
-0.000148065766928594
-1.53562894247117e-05
-0.000139410839741755
-1.57143429745797e-05
-0.000130639061658317
-1.5957627754012e-05
-0.000121806341158527
-1.60932449979885e-05
-0.00011296529010243
-1.6126962272469e-05
-0.000104162364125779
-1.60701539175535e-05
-9.54358509043365e-05
-1.59390246661957e-05
-8.68170773196718e-05
-1.57465528494634e-05
-7.83293545360828e-05
-1.5509574747728e-05
-6.9994499268553e-05
-1.52309946074201e-05
-6.1833791659679e-05
-1.49114940415788e-05
-5.38643936287454e-05
-1.45585440640145e-05
-4.6097152167408e-05
-1.41846383654848e-05
-3.85392509913781e-05
-1.37972149695428e-05
-3.11974107168465e-05
-1.33971575125935e-05
-2.40768943737479e-05
-1.2987027831624e-05
-1.71793417524825e-05
-1.25738102188315e-05
-1.05046766534676e-05
-1.21611598335587e-05
-4.0535525797214e-06
-1.17473247334887e-05
2.17497993900489e-06
-1.133552814183e-05
8.18323722546045e-06
-1.09282952937085e-05
1.39746882717741e-05
-1.05279389659188e-05
1.9552264303169e-05
-1.01330388308675e-05
2.49198158468011e-05
-9.7457342856019e-06
3.00813749862022e-05
-9.36614936446075e-06
3.50408366172851e-05
-8.99412506645327e-06
3.98014657466762e-05
-8.62836469072743e-06
4.43664846587898e-05
-8.26882744744607e-06
4.87387800729352e-05
-7.91492544937611e-06
5.29202029956018e-05
-7.56454972521079e-06
5.69117973847104e-05
-7.21640471413193e-06
6.07133074195544e-05
-6.86775497438691e-06
6.43236202280038e-05
-6.51744950620911e-06
6.77393187385779e-05
-6.16050458715816e-06
7.0955554491651e-05
-5.79520944582645e-06
7.39638584314024e-05
-5.41338091848921e-06
7.67542004097585e-05
-5.01432457093398e-06
7.93100745120724e-05
-4.58252101051578e-06
8.16134523558217e-05
-4.12050397561576e-06
8.36332271851513e-05
-3.59538671281027e-06
8.53383897635001e-05
-3.0207495469172e-06
8.66698305305103e-05
-2.32298438768151e-06
8.75734519561482e-05
-1.5449227284966e-06
8.79307283808877e-05
-5.13385388332452e-07
8.76425807344001e-05
6.50878311415326e-07
8.6452895813406e-05
2.37594009084953e-06
8.41314317394369e-05
4.39906093919939e-06
8.00619506745661e-05
7.77368330032618e-06
7.33624933216933e-05
1.24587311262296e-05
6.27570906598073e-05
2.0392772112877e-05
5.80538716413568e-05
8.65640790363645e-06
6.45598371659438e-05
-1.34243583724788e-05
7.45787101148487e-05
-1.91635403802677e-05
8.63454881771381e-05
-2.26146695511339e-05
9.90159467853757e-05
-2.43462823112537e-05
0.000112578487462158
-2.61265807771799e-05
0.000127330054159233
-2.86019830746362e-05
0.000142114855794862
-2.86192582003769e-05
0.000155154955142395
-2.49898058631515e-05
0.000165537414230716
-1.96731350114231e-05
0.000172393085582341
-1.2749305553329e-05
0.000174512362061738
-3.41362757839998e-06
0.000173026282635538
3.26742345712054e-06
0.000169993897047128
5.74101288918018e-06
0.000166473185495548
6.43521939707041e-06
0.000163923041346345
4.36423377611665e-06
0.000164212195277421
-1.2152771581584e-06
0.000166162535677048
-4.1668194441854e-06
0.000167330579207171
-1.9578246456799e-06
0.000167879553372181
-7.72477117800928e-07
0.000164760206570038
6.76305351095709e-06
0.000149517549651585
2.98243135252209e-05
0.000116401884592678
6.36335940739083e-05
8.08218293128946e-05
6.52651049543219e-05
5.64461171577457e-05
4.38151477965665e-05
5.55785986209e-06
8.70794529724553e-05
-1.97005787623562e-05
8.64809375503867e-05
9.46733712069477e-07
5.50944931043319e-05
7.42189288930724e-05
5.61399670564919e-06
0.000110566125798026
-2.69727756002046e-05
6.8984276676798e-05
-3.07074423602931e-05
5.03482430473828e-06
-2.74835882593469e-05
-7.83408251669923e-06
-2.61347031538198e-05
-3.51531450315745e-06
-2.6080025509922e-05
-2.6873456103599e-07
-2.75112395466679e-05
2.8231993185951e-06
-3.04706222540134e-05
6.52967385653886e-06
-3.44259043592918e-05
8.52542962621885e-06
-3.94874939376966e-05
1.10903723619201e-05
-4.59662909494287e-05
1.41087028950292e-05
-5.42328133799315e-05
1.82331363938223e-05
-6.42891711967491e-05
2.21262697729408e-05
-7.63918696030627e-05
2.6842596751366e-05
-9.02892186139704e-05
3.09240980694195e-05
-0.000105468032531584
3.37715913341605e-05
-0.000121732813240092
3.62365940888291e-05
-0.000138810353466956
3.85215526519949e-05
-0.000155458463800851
3.78176398588571e-05
-0.000170539487453879
3.4245550538528e-05
-0.000184126895519821
3.00262665425553e-05
-0.000198805327936137
3.10365859852542e-05
-0.000221258893025671
5.57008361048694e-05
-0.00024574207646924
6.69727750564011e-05
-0.000262297412450382
4.65678769077586e-05
-0.000272273046541735
2.9331222873309e-05
-0.000278317802115114
1.90710968368382e-05
-0.000281444590438936
1.15468557529433e-05
-0.000282295629211776
5.67135113757607e-06
-0.00028123998759704
7.66260328847136e-07
-0.000278542308050847
-3.48663376509327e-06
-0.000274407294380544
-7.24057746333548e-06
-0.000269004687317361
-1.05807993375475e-05
-0.000262483245647083
-1.35502203147482e-05
-0.000254976799092197
-1.61857911274003e-05
-0.000246609378672198
-1.85073095583522e-05
-0.000237497144914774
-2.05323845646619e-05
-0.000227750065476514
-2.2273120630771e-05
-0.000217472141098552
-2.3742153425947e-05
-0.000206761055090978
-2.49535084184346e-05
-0.000195707864707302
-2.59223437314342e-05
-0.000184395940524216
-2.66682139814486e-05
-0.000172901415231044
-2.72088686254244e-05
-0.000161292613779571
-2.75664295308239e-05
-0.000149633548885007
-2.77523101770905e-05
-0.000137984054723775
-2.77764566799546e-05
-0.000126396521443475
-2.76576874137687e-05
-0.000114914250549799
-2.74212957519275e-05
-0.000103572512620588
-2.70882909491531e-05
-9.23983413112683e-05
-2.66837462074847e-05
-8.14174406027746e-05
-2.62118954535935e-05
-7.06547614942897e-05
-2.56741732915905e-05
-6.01301671562745e-05
-2.50831385695827e-05
-4.98564306012805e-05
-2.44583751346118e-05
-3.98424774783962e-05
-2.38111683664459e-05
-3.00968763608999e-05
-2.31427589697408e-05
-2.06264075055833e-05
-2.24574970931644e-05
-1.14336137147509e-05
-2.17666044807158e-05
-2.51923088310073e-06
-2.10755431954613e-05
6.11508891191861e-06
-2.03816451062375e-05
1.44695679133157e-05
-1.9690007747827e-05
2.2546541419647e-05
-1.90052693974522e-05
3.03494446776482e-05
-1.83308427680372e-05
3.78811215909519e-05
-1.76647161799384e-05
4.51454793197685e-05
-1.70100922850303e-05
5.21467710210132e-05
-1.63674411228399e-05
5.88890653512359e-05
-1.57364192088769e-05
6.53757360916654e-05
-1.51150349879466e-05
7.16100931826802e-05
-1.45031838486305e-05
7.75950458260872e-05
-1.389987717708e-05
8.33323324565255e-05
-1.33018352395158e-05
8.882259388014e-05
-1.27066648476093e-05
9.4064995031384e-05
-1.21101546892218e-05
9.90574301990842e-05
-1.1509883122508e-05
0.00010379522621546
-1.08982989734821e-05
0.000108271476465491
-1.02714580299199e-05
0.000112475315526277
-9.61721832479406e-06
0.000116392925984228
-8.93193343414172e-06
0.000120003751634158
-8.1933451704947e-06
0.000123283008371104
-7.39975936567619e-06
0.000126192866757472
-6.50524392790369e-06
0.000128689983085324
-5.51786490568415e-06
0.000130704040395108
-4.33704095052004e-06
0.000132157325538071
-2.99820735734946e-06
0.000132910860040993
-1.26691960810816e-06
0.000132814109161007
7.4762925857753e-07
0.000131572730326892
3.6173188173709e-06
0.000128841709799399
7.13008125955495e-06
0.000123905732659959
1.27096602372017e-05
0.000115525211790244
2.08392519202883e-05
0.000102557318989525
3.33606650796473e-05
9.63249692512331e-05
1.48887581082072e-05
0.000103285812724221
-2.03852010573863e-05
0.000115233691683689
-3.1111418229643e-05
0.000129491763566634
-3.6872740072358e-05
0.000144918994873584
-3.97735121246182e-05
0.000161449744034969
-4.26573284257187e-05
0.000179367572537247
-4.65198101121356e-05
0.000197474564270648
-4.6726248525335e-05
0.000213794852714988
-4.13100929323242e-05
0.000227148583744958
-3.30268647102515e-05
0.000236398469086519
-2.19991896896245e-05
0.000239994341266359
-7.00949878835995e-06
0.000238875099930625
4.38666546949663e-06
0.00023531003682628
9.30607641576209e-06
0.000230744404582749
1.10008519292869e-05
0.000227073032294597
8.03560639440932e-06
0.000226778829293496
-9.2107356173823e-07
0.000228849510239078
-6.23749945644157e-06
0.000230502786147322
-3.61109971781714e-06
0.00023162123431836
-1.89092488361049e-06
0.000228560799786467
9.82348811005268e-06
0.000210442742423833
4.79423707265259e-05
0.000168916201036291
0.000105160135469789
0.000121427695713438
0.000112753610313055
8.71813715016739e-05
7.80614720898671e-05
1.31179631223087e-05
0.000118501254488939
-2.72567684686126e-05
0.000117544068187561
1.90392041617229e-06
7.86060422361768e-05
0.000113156955855416
1.3655989692876e-05
0.000175516180260372
-3.20381013363623e-05
0.000114678368703983
-3.93395741908287e-05
1.23362973370437e-05
-3.57228604659018e-05
-1.1450795657939e-05
-3.42167716914047e-05
-5.02140173098392e-06
-3.43335197656418e-05
-1.51986181016632e-07
-3.64174227774379e-05
4.90710219803456e-06
-4.04437321427886e-05
1.05559828847521e-05
-4.58277892722621e-05
1.39094857746937e-05
-5.26788902096894e-05
1.79414720771226e-05
-6.14103352076912e-05
2.2840147493058e-05
-7.24383239787206e-05
2.92611255827037e-05
-8.57846232372003e-05
3.54725694402032e-05
-0.000101670693881962
4.27286675108834e-05
-0.000119720499247154
4.89739033223862e-05
-0.000139254555883131
5.33056473653431e-05
-0.000159876170972067
5.68582079016956e-05
-0.000181008659675274
5.96540397327818e-05
-0.00020118274255107
5.79917212650387e-05
-0.000219285907009188
5.23487139232559e-05
-0.000235733167377719
4.64735262029461e-05
-0.000253240014325237
4.85434325207004e-05
-0.000276826654982239
7.92874765432219e-05
-0.000300171190142497
9.03173099904385e-05
-0.000314965795691571
6.1362482011179e-05
-0.000323180939433391
3.75463658129531e-05
-0.000327447640834958
2.3337797124315e-05
-0.000328740849146368
1.28400627871411e-05
-0.000327711455393219
4.64195608189482e-06
-0.000324734452176981
-2.21074414813545e-06
-0.000320089067858583
-8.13201929440264e-06
-0.000313984235234143
-1.33454112546492e-05
-0.00030659548572132
-1.79695499601847e-05
-0.000298076993205172
-2.20687138452818e-05
-0.000288567570399341
-2.56952148082761e-05
-0.000278195182446742
-2.88796982211709e-05
-0.000267079478401156
-3.16480891599215e-05
-0.000255333246979713
-3.40193524721703e-05
-0.000243062821501484
-3.60125792384105e-05
-0.000230367779200092
-3.76485510101437e-05
-0.000217340638041494
-3.89494851639673e-05
-0.000204066065566332
-3.9942786723392e-05
-0.000190621182143581
-4.06537523029021e-05
-0.000177075484155035
-4.11121277526251e-05
-0.000163494175946591
-4.13336185919185e-05
-0.000149938027931389
-4.13326048756788e-05
-0.000136459935253093
-4.1135780251201e-05
-0.000123103720837164
-4.0777510309532e-05
-0.000109904925485327
-4.02870864268932e-05
-9.68912750094715e-05
-3.96973967950254e-05
-8.40893855111219e-05
-3.90137850553362e-05
-7.15250984794198e-05
-3.82384604307606e-05
-5.92188273257007e-05
-3.73894098508843e-05
-4.71838157481366e-05
-3.64933868744208e-05
-3.54295989387935e-05
-3.55653853821461e-05
-2.39655354634771e-05
-3.46068227001657e-05
-1.27992043716466e-05
-3.36238284900155e-05
-1.93377320719332e-06
-3.26320359991452e-05
8.62907262453355e-06
-3.16383894259986e-05
1.88869562110439e-05
-3.06395291266729e-05
2.88396588147138e-05
-2.96427108037335e-05
3.84890608631326e-05
-2.86546718909689e-05
4.78380457045068e-05
-2.76798280121737e-05
5.68889974383517e-05
-2.671566823198e-05
6.56452641305388e-05
-2.57663591670856e-05
7.41106521678082e-05
-2.4832829184105e-05
8.22887403107666e-05
-2.39145071853925e-05
9.01823922581781e-05
-2.30086865698086e-05
9.77943556427304e-05
-2.21151466745715e-05
0.000105126948046478
-2.12324688442765e-05
0.000112181300573597
-2.03561868707975e-05
0.000118957256504681
-1.94826197428479e-05
0.000125453153388775
-1.86060504178821e-05
0.000131665768151437
-1.77224966336176e-05
0.000137589336997242
-1.68218664997415e-05
0.000143215276823254
-1.58973965024083e-05
0.000148531158143051
-1.49330982953011e-05
0.000153520473987516
-1.39212479731824e-05
0.000158160522199156
-1.28333921578599e-05
0.000162422018632247
-1.16612546878336e-05
0.000166264285186809
-1.03475095125625e-05
0.000169635859183054
-8.88943809625934e-06
0.000172462918073765
-7.16409921754698e-06
0.000174652034494065
-5.18732334688101e-06
0.000176060637457306
-2.67552233176014e-06
0.000176500511964184
3.07754808772333e-07
0.000175671316858277
4.44651382743023e-06
0.000173149628054375
9.65176988028087e-06
0.000168211619692275
1.76476684184049e-05
0.000159407720781513
2.96431507593714e-05
0.000145626483574998
4.71419024227896e-05
0.000138138561132961
2.23766809665964e-05
0.000144140671737745
-2.63873109379797e-05
0.000156299060202908
-4.32698056940599e-05
0.00017140353683256
-5.19772155098519e-05
0.000188093825242088
-5.64637992598022e-05
0.000206168599307182
-6.07321012205219e-05
0.000225855969555122
-6.62071791305099e-05
0.000246057850046759
-6.69281278161367e-05
0.000264804775205229
-6.00570168977773e-05
0.000280741415149575
-4.89635034988313e-05
0.000292537484168442
-3.37952576770198e-05
0.000298361356723222
-1.28333705190315e-05
0.000298693632301432
4.05439048927624e-06
0.000295655987665622
1.234372147594e-05
0.0002909016038209
1.57552361314671e-05
0.000286619302239078
1.23179084076235e-05
0.000285814635812381
-1.16406509024654e-07
0.000287927637456512
-8.35050035941585e-06
0.000290142462224057
-5.82592405360961e-06
0.000292114006984601
-3.8624696182741e-06
0.000289846969227871
1.20905257459405e-05
0.000270773840229889
6.70154995777038e-05
0.000223770768916615
0.000152163206878682
0.000166560651992278
0.000169963727323353
0.000122897722430669
0.000121724401720387
2.50706210818792e-05
0.00015292086307582
-3.38456124918923e-05
0.000151457069261666
3.36771434091508e-06
0.000105875359147389
0.000158738665866262
2.53563776188862e-05
0.000256035162406247
-3.52519870638196e-05
0.000175286734231895
-4.76185598894714e-05
2.47028703747792e-05
-4.40106149290314e-05
-1.50587403254831e-05
-4.2477233409667e-05
-6.55478208934747e-06
-4.28906610789729e-05
2.61441581712659e-07
-4.57352440808745e-05
7.75168488854888e-06
-5.09373387761827e-05
1.57580770488341e-05
-5.7856166273625e-05
2.08283121333219e-05
-6.66080919818887e-05
2.66933965359508e-05
-7.76655007040633e-05
3.38975558090755e-05
-9.14520698527707e-05
4.30476950867372e-05
-0.000107947370406038
5.19678703761184e-05
-0.000127243028902493
6.20243261553408e-05
-0.000148754815337808
7.04856896950931e-05
-0.000171585750614734
7.61365821689003e-05
-0.000195109968855431
8.03824251030545e-05
-0.000218512624741052
8.30566942458446e-05
-0.000240327673683936
7.98067689354014e-05
-0.000259705547479505
7.172658678991e-05
-0.000277303699697512
6.40716778157554e-05
-0.000295641255624179
6.68809881011497e-05
-0.000318009102663418
0.000101655323383902
-0.000338329406503766
0.000110637613623763
-0.000350443412988792
7.34764881397786e-05
-0.000356614473521777
4.37174257491962e-05
-0.000359125548026509
2.58488708251092e-05
-0.000358803571948222
1.2518085802583e-05
-0.000356244222819288
2.08260604288381e-06
-0.000351790464710289
-6.66450312187066e-06
-0.000345703878438454
-1.4218606381516e-05
-0.000338178710785572
-2.08705796840369e-05
-0.000329385158603005
-2.67631028795827e-05
-0.000319473440802054
-3.19804323222507e-05
-0.000308580143371855
-3.65885128250759e-05
-0.000296831691202035
-4.06281508695966e-05
-0.000284346955126617
-4.4132825606754e-05
-0.00027123828797156
-4.712801991006e-05
-0.000257611876822801
-4.96389906093588e-05
-0.000243567336984752
-5.16930910371502e-05
-0.000229197304424134
-5.33195178997158e-05
-0.00021458673291075
-5.4553358406434e-05
-0.000199813003278155
-5.54274820985697e-05
-0.000184946057133721
-5.59790740484005e-05
-0.000170051567890822
-5.62281079707498e-05
-0.000155190700023672
-5.61934728634467e-05
-0.000140416569962418
-5.59099104202544e-05
-0.00012577329912103
-5.54207812484111e-05
-0.000111296588141578
-5.47637974948194e-05
-9.70145156111585e-05
-5.39794694059395e-05
-8.29540287510954e-05
-5.30742719915882e-05
-6.9141282619177e-05
-5.20512066423305e-05
-5.55968857979717e-05
-5.09338067652848e-05
-4.23342689862746e-05
-4.97560038018133e-05
-2.93631886284064e-05
-4.85364658839268e-05
-1.6693281169037e-05
-4.72767303343539e-05
-4.33245881113906e-06
-4.59846510542752e-05
7.71562247384296e-06
-4.46801175213387e-05
1.94489024402001e-05
-4.33716696572949e-05
3.0865027398128e-05
-4.20556543708582e-05
4.19636824619022e-05
-4.07413661648037e-05
5.27466272903509e-05
-3.94376170113675e-05
6.32165569648588e-05
-3.81497579501717e-05
7.3375733916111e-05
-3.68748453899028e-05
8.32272709376788e-05
-3.56178963084843e-05
9.27748016682197e-05
-3.4380359921482e-05
0.000102021700979756
-3.31614063731734e-05
0.000110970617278884
-3.19576026082199e-05
0.000119624024206631
-3.07685532086026e-05
0.000127983943845366
-2.95923879666593e-05
0.00013605122067096
-2.84234630699972e-05
0.000143825294128563
-2.7256692476471e-05
0.000151304105885909
-2.60848613665339e-05
0.00015848386193284
-2.49022518018877e-05
0.000165358330075911
-2.36963337125502e-05
0.000171918111226122
-2.24571766936961e-05
0.000178150195649109
-2.11651817573765e-05
0.00018403679532448
-1.98078467138531e-05
0.000189554644547854
-1.83512404997348e-05
0.000194672364873442
-1.67789742087395e-05
0.000199349118637738
-1.50242625694885e-05
0.00020352966595786
-1.30699848236728e-05
0.000207141548747979