/*--------------------------------*- C++ -*----------------------------------*\
  =========                 |
  \\      /  F ield         | OpenFOAM: The Open Source CFD Toolbox
   \\    /   O peration     | Website:  https://openfoam.org
    \\  /    A nd           | Version:  7
     \\/     M anipulation  |
\*---------------------------------------------------------------------------*/
FoamFile
{
    version     2.0;
    format      ascii;
    class       volSymmTensorField;
    location    "20000";
    object      tauij_B;
}
// * * * * * * * * * * * * * * * * * * * * * * * * * * * * * * * * * * * * * //

dimensions      [0 2 -2 0 0 0 0];

internalField   nonuniform List<symmTensor> 
15600
(
(3.16819877248347e-07 -8.10336214466065e-10 0 3.16823720339031e-07 0 3.16821803474867e-07)
(3.08574032967683e-07 -9.30879304921406e-10 -4.03369537164686e-30 3.08633878835954e-07 -7.17174320018873e-32 3.086038175234e-07)
(2.25474209651695e-07 -5.50559061463381e-10 -1.92224462450821e-29 2.25651173218292e-07 -2.29938090876994e-28 2.25562823653772e-07)
(1.13988251089011e-07 -6.78035877813118e-11 1.55109167368684e-30 1.14036268398693e-07 -6.72595122911713e-32 1.14011885100494e-07)
(3.88870521297676e-08 3.09590610103914e-11 1.72679170230201e-32 3.88420371128286e-08 5.92711702632852e-32 3.88643414050999e-08)
(1.8986752559531e-08 1.6394415575529e-11 -1.50521531978832e-33 1.8952447541903e-08 -7.87565819310151e-33 1.89695099938823e-08)
(1.95019418202473e-08 1.13614388406075e-11 -3.02653944941424e-34 1.94715454938421e-08 -1.89469801151366e-36 1.94866964827264e-08)
(1.47011203858491e-08 7.49195912631137e-12 8.28172315585554e-27 1.46777732154448e-08 -2.2821727391904e-28 1.4689402754622e-08)
(1.28905210635643e-08 5.73227577259807e-12 -6.40909933898897e-26 1.28713552654111e-08 -1.81529080536385e-25 1.28809177186774e-08)
(1.33673462075477e-08 6.30497656166258e-12 -1.11998187156424e-25 1.33465320298056e-08 -2.36634396007841e-25 1.33569143472078e-08)
(1.55406047316317e-08 7.98465241667197e-12 -1.89563739265815e-26 1.55155196590319e-08 -4.50743445536008e-27 1.55280503056541e-08)
(1.92819800438864e-08 1.16640059788164e-11 2.06400838945902e-27 1.92469430649706e-08 4.04935035253261e-27 1.92644400528353e-08)
(2.45842755312236e-08 1.69482057594619e-11 -3.93609379393127e-28 2.45350126431248e-08 2.9946954598499e-29 2.45596360857894e-08)
(3.22133370147987e-08 2.61445141764379e-11 -5.16544821794114e-27 3.21390728696896e-08 -9.05311848414843e-27 3.21761914106349e-08)
(4.33543586948295e-08 4.12734600469922e-11 4.67565816466147e-28 4.32385241982098e-08 -4.53964754273549e-29 4.32964511857249e-08)
(5.97968764844672e-08 6.84864332309048e-11 -9.39489741496226e-28 5.96086362212528e-08 4.77764080374947e-28 5.97027649476679e-08)
(8.33941164225847e-08 1.16969141668215e-10 2.56682426261883e-26 8.30889646916429e-08 5.24193199987795e-26 8.32415986671224e-08)
(1.16887796754141e-07 2.06295241308407e-10 1.25054594075777e-29 1.16394639388982e-07 2.7756270092386e-29 1.16641311000391e-07)
(1.62667143707113e-07 3.62371035642247e-10 -4.81213669048164e-26 1.61902194143839e-07 -1.32727326883177e-25 1.62284873597291e-07)
(2.2259173606099e-07 6.24237488381211e-10 -4.06343616991834e-26 2.21474799064461e-07 -1.30598383291229e-25 2.22033686250195e-07)
(2.98554705404047e-07 1.04399864675486e-09 -1.16140529522383e-25 2.97024985726238e-07 -3.03347152049291e-25 2.97790747305345e-07)
(3.92375219482798e-07 1.67388859007817e-09 2.47644623411403e-29 3.90423215133644e-07 8.32206128153315e-29 3.9140073811198e-07)
(5.01182260153869e-07 2.51944273587093e-09 1.9578299100933e-26 4.9894556197307e-07 -1.77574740810752e-27 5.00066300388823e-07)
(6.18791907704984e-07 3.54865783995991e-09 1.00998224688265e-25 6.16578464643124e-07 5.55588886782833e-25 6.17689663717415e-07)
(7.39146646205196e-07 4.59458253979877e-09 -2.65587089084556e-26 7.37439773098373e-07 1.64408280560539e-27 7.38297650430761e-07)
(8.65254128622493e-07 5.97457709903309e-09 4.28864132535767e-27 8.64460165486477e-07 3.06923908803557e-26 8.64864290424674e-07)
(1.06901134890124e-06 8.82779640253467e-09 -5.78658386137974e-27 1.06884577226194e-06 1.31894709015872e-29 1.06893968592338e-06)
(1.34178804442372e-06 1.27100214933735e-08 5.96857095763841e-29 1.34162760532186e-06 6.38951182796758e-28 1.34171873095903e-06)
(1.58922645881845e-06 1.61927399803053e-08 -3.41705043078518e-29 1.58909137423408e-06 2.80224523934039e-30 1.58917384776033e-06)
(1.81081238043162e-06 1.9383057554097e-08 -4.42258632154928e-29 1.81069277983194e-06 3.40018344712913e-30 1.81076966054961e-06)
(2.01349723167596e-06 2.22466711882713e-08 -3.61821906832925e-30 2.0133924015828e-06 -1.09749528504049e-27 2.01346450013193e-06)
(2.20054179032365e-06 2.48184457600882e-08 1.6938703680433e-28 2.20045097220705e-06 1.18682903262783e-27 2.20051802612249e-06)
(2.37389906221287e-06 2.70827540351513e-08 -5.63101432422909e-29 2.37382277006402e-06 1.3993893927529e-27 2.37388438728628e-06)
(2.53580645293705e-06 2.90515620879029e-08 -1.35343515392201e-28 2.53574546734241e-06 -2.35002358914518e-22 2.53580083822494e-06)
(2.68653088116591e-06 3.07082237101148e-08 7.07595156214156e-29 2.68648615910869e-06 -2.6021401455267e-22 2.6865345016215e-06)
(2.82142751352334e-06 3.19907340069266e-08 0 2.82139984963455e-06 0 2.82144033970371e-06)
(2.93937818596587e-06 3.28831086693688e-08 -6.67685814927657e-40 2.93936795172172e-06 3.93554388002537e-41 2.9394000268219e-06)
(3.04034803208219e-06 3.33908348089785e-08 1.27457318875093e-23 3.04035521802771e-06 -7.20092485847952e-25 3.04037849381247e-06)
(3.12440183088265e-06 3.35263993377181e-08 3.28676346298826e-23 3.12442601791386e-06 -4.63488901598004e-22 3.12444035995847e-06)
(3.19183183959434e-06 3.33112749833697e-08 5.78459332180173e-24 3.19187224161416e-06 -4.8790359448e-22 3.19187772363196e-06)
(3.24310019540309e-06 3.27732439768585e-08 -1.41475613054837e-23 3.24315568424894e-06 7.27322796411379e-25 3.24315259885881e-06)
(3.27888787468592e-06 3.19462138246925e-08 3.5517127117319e-29 3.27895704414351e-06 1.34201461641831e-27 3.27894586694329e-06)
(3.30006706138074e-06 3.08680359811705e-08 -3.28142781537202e-29 3.30014830496917e-06 -3.23350451484548e-27 3.30012965946025e-06)
(3.30766581390119e-06 2.95789574524484e-08 1.6436129467514e-28 3.3077573974727e-06 -6.04735385378427e-28 3.3077320219172e-06)
(3.30285072206107e-06 2.81197749792188e-08 1.72505658974829e-23 3.30295088492471e-06 -6.59687705752631e-25 3.30291957029103e-06)
(3.28681248772638e-06 2.65298610624951e-08 3.29129043216073e-23 3.28691948197486e-06 -1.08311286617615e-21 3.28688306166388e-06)
(3.26077799537312e-06 2.48462217776526e-08 -2.74191815788152e-24 3.26089018681916e-06 -1.10587707186845e-21 3.26084946432154e-06)
(3.22582984856467e-06 2.31016441473353e-08 -1.73553833494381e-23 3.22594566733622e-06 5.7965904337712e-25 3.2259014467443e-06)
(3.18308934835683e-06 2.13268719565401e-08 -8.01388186945169e-29 3.18320728499131e-06 1.37006792656658e-27 3.1831603661765e-06)
(3.13383131508662e-06 1.95505054499714e-08 7.04851823118874e-29 3.13395001369524e-06 -1.85814178995507e-29 3.13390114505706e-06)
(3.07936518708553e-06 1.77969263514956e-08 -2.38723922727764e-29 3.07948352010074e-06 7.70783644967854e-28 3.07943334356124e-06)
(3.02084199057312e-06 1.60854507871661e-08 -8.17642006218583e-30 3.02095902977959e-06 -7.86770599150528e-28 3.02090810814275e-06)
(2.95929502077896e-06 1.44305638787995e-08 4.40718654945059e-29 2.95941008677432e-06 7.70689819599782e-28 2.95935885142174e-06)
(2.89530048021804e-06 1.28412030085227e-08 -3.39256929148949e-29 2.89541298203948e-06 6.0859944768108e-31 2.89536182750665e-06)
(2.82937675557445e-06 1.13249702049961e-08 3.01358931632149e-39 2.82948614865374e-06 -4.3703155328507e-41 2.82943544600773e-06)
(2.7622431608636e-06 9.88853239046065e-09 3.18307779630383e-40 2.76234901978014e-06 -9.80428778266573e-39 2.76229908165842e-06)
(2.69468110399594e-06 8.53619868456216e-09 -9.77218805859713e-40 2.6947831758744e-06 5.53153463161434e-28 2.6947342225279e-06)
(2.62722120011785e-06 7.26899634830479e-09 9.96393509954941e-43 2.62731934659528e-06 -5.41134570797285e-28 2.6272715354101e-06)
(2.56020314002235e-06 6.08630779506759e-09 0 2.56029726187299e-06 0 2.56025072619714e-06)
(2.49392971626788e-06 4.98686743347762e-09 1.74408567148044e-23 2.49401975859196e-06 0 2.49397460461795e-06)
(2.42887612076922e-06 3.96877989373392e-09 1.94867448373351e-23 2.42896211477118e-06 -1.72887936585868e-22 2.4289183993301e-06)
(2.36523476924976e-06 3.02849478869209e-09 -1.48008430174877e-23 2.36531679177162e-06 -1.72213299592475e-22 2.36527454070104e-06)
(2.30305808638826e-06 2.1623196630015e-09 -1.63148843150814e-23 2.30313620944845e-06 -8.41429760313305e-26 2.30309544868852e-06)
(2.24245647247344e-06 1.36657786673678e-09 -1.91529494832936e-42 2.24253080353209e-06 5.09068719463252e-28 2.24249152974463e-06)
(2.18345273552636e-06 6.37297438397265e-10 -9.08692707709959e-40 2.18352340828168e-06 5.08143662449561e-28 2.18348560070687e-06)
(2.12613769655102e-06 -2.96029818720368e-11 3.08760958365902e-29 2.12620485978411e-06 -4.94578763526132e-28 2.12616848423466e-06)
(2.07046279642011e-06 -6.38061316817107e-10 -3.01939973094027e-29 2.07052657999035e-06 6.68366785558782e-28 2.07049161436202e-06)
(2.01641974718064e-06 -1.19181645870177e-09 -2.91548885748547e-29 2.01648029208737e-06 -6.5186682477944e-28 2.01644670224405e-06)
(1.96400382974993e-06 -1.69459444859933e-09 2.85169416305953e-29 1.96406127731619e-06 5.84652351187594e-31 1.96402902673959e-06)
(1.91318290125528e-06 -2.14987631202183e-09 -8.19784288077302e-40 1.91323739042524e-06 -1.89080557046841e-41 1.91320643809198e-06)
(1.86389140011043e-06 -2.56088452637311e-09 0 1.86394305850135e-06 0 1.86391336683778e-06)
(1.81607688014328e-06 -2.93057217245141e-09 -1.43792691171875e-23 1.81612583264757e-06 -4.42204167505368e-25 1.81609736207741e-06)
(1.76967875093454e-06 -3.2617655475319e-09 -1.22008902336734e-23 1.76972511577522e-06 1.40650324661366e-22 1.76969782689817e-06)
(1.72460689041923e-06 -3.55689780281549e-09 1.56973504014107e-23 1.72465077083963e-06 1.40917186049795e-22 1.72462463089493e-06)
(1.68076758876164e-06 -3.81819638906286e-09 1.33689665908421e-23 1.68080907820213e-06 4.77991828002869e-25 1.68078405507643e-06)
(1.63804705074532e-06 -4.04746624474699e-09 3.48014369413492e-30 1.63808622691272e-06 -1.12987844280083e-27 1.63806229768401e-06)
(1.596343569026e-06 -4.24644367361869e-09 4.94944918687295e-29 1.596380501718e-06 2.02946528025001e-30 1.59635764123896e-06)
(1.55551140235732e-06 -4.41625231843809e-09 -4.95836058921252e-29 1.55554613729067e-06 -2.28725921187229e-30 1.55552433761401e-06)
(1.51542201484346e-06 -4.55808082766003e-09 -1.26160157217111e-23 1.51545458837792e-06 -6.13817340673087e-25 1.51543383564169e-06)
(1.47587926335588e-06 -4.67212426438301e-09 -9.62037226453097e-24 1.47590967942573e-06 1.20064635031022e-22 1.4758899886838e-06)
(1.43673883217336e-06 -4.75917223595768e-09 1.46925174730537e-23 1.43676709079873e-06 1.21762710716126e-22 1.43674845748941e-06)
(1.3977203029856e-06 -4.81809026880038e-09 1.16560208360978e-23 1.39774635063335e-06 6.29770689786114e-25 1.39772882752117e-06)
(1.35867071263539e-06 -4.84956150575957e-09 -3.91508210526079e-29 1.35869450390495e-06 -3.83300647400929e-27 1.35867809135834e-06)
(1.31912960409137e-06 -4.85006137051292e-09 4.28489644814439e-29 1.31915099169212e-06 -1.40138133324214e-27 1.31913581381613e-06)
(1.27896662586602e-06 -4.82092709600295e-09 8.51480569257827e-29 1.27898550741657e-06 -1.12795296942462e-29 1.27897155349088e-06)
(1.2373444826496e-06 -4.7539594757733e-09 -9.24735313995143e-29 1.23736054899208e-06 2.98488017680538e-22 1.23734808402443e-06)
(1.19424141168627e-06 -4.6531571789422e-09 -6.97577489867822e-29 1.19425448329125e-06 2.88004212957347e-22 1.19424344442458e-06)
(1.14797937596631e-06 -4.50035104192789e-09 7.64227543590846e-29 1.14798883859735e-06 -9.84419845785035e-30 1.14797978583822e-06)
(1.10013803566491e-06 -4.3122551121262e-09 0 1.10014361826651e-06 -1.46596673904245e-29 1.10013631931702e-06)
(1.04911464698876e-06 -4.05671477129e-09 7.20504794204749e-29 1.0491151156983e-06 -8.79980788608068e-30 1.04911076168383e-06)
(9.94099557675033e-07 -3.75678867348865e-09 -8.93045560584106e-24 9.94094291612022e-07 -7.07974372283664e-25 9.94092348054418e-07)
(9.28930796488602e-07 -3.32995850480992e-09 -6.42754654580388e-24 9.28917392026811e-07 3.13627448451659e-22 9.28920417808529e-07)
(8.53671330706334e-07 -2.8479580636991e-09 9.3092575238274e-24 8.53647033155028e-07 2.93791550045075e-22 8.53654447625531e-07)
(7.53238483187209e-07 -2.11060704940138e-09 6.76495760908747e-24 7.53198349785673e-07 5.72099043095947e-25 7.53215717025661e-07)
(7.3359588062385e-07 -1.57772965314655e-09 -1.10071572764188e-27 7.33399787628578e-07 6.82472260933338e-26 7.33494859449939e-07)
(8.65533938013434e-07 -1.99260761838298e-09 -7.89536599308418e-26 8.64853316225384e-07 1.01288718736537e-24 8.65189827977038e-07)
(9.99316726346884e-07 -2.80897391163127e-09 -1.47370249620333e-23 9.97652219980694e-07 -3.71288165019044e-24 9.98484794845919e-07)
(1.12586363147797e-06 -3.66956857859788e-09 -4.47589481150151e-23 1.12273217398335e-06 1.58833220533133e-22 1.12429746294059e-06)
(1.23434223515238e-06 -4.58655415292704e-09 -2.21003970142447e-23 1.22916726958427e-06 1.71524910060202e-22 1.23175385153359e-06)
(1.33149127399934e-06 -5.43835377458829e-09 1.88600140051376e-23 1.32375789333051e-06 -4.76804670852121e-24 1.32762033028883e-06)
(1.4225841982255e-06 -6.26617587168393e-09 -1.54536876858629e-24 1.41168877887351e-06 3.27861616162149e-24 1.41712483285176e-06)
(1.48074332011757e-06 -6.94821437094622e-09 1.01748392129679e-24 1.46647907157043e-06 -3.05908391348967e-24 1.47358891375022e-06)
(1.4833069227773e-06 -7.29727068011871e-09 1.04270454281529e-24 1.46632413650725e-06 -1.47411389791134e-24 1.47478313451876e-06)
(1.43902290184244e-06 -7.30605727017046e-09 4.94029060041958e-25 1.42043701452825e-06 -1.02359224653047e-24 1.4296903704737e-06)
(1.35573415867941e-06 -7.04924299476028e-09 8.81580681448632e-25 1.33678539631433e-06 -1.89438163347243e-24 1.34621675974493e-06)
(1.23563765816813e-06 -6.49641876062701e-09 1.08087702765204e-25 1.21774651029187e-06 9.55760226169555e-27 1.2266523305704e-06)
(1.11570790871172e-06 -5.77493103953297e-09 2.16816529695041e-25 1.09954543874747e-06 -5.51205440006098e-25 1.10759241855065e-06)
(1.0138879117524e-06 -5.06768010436622e-09 -5.50045845091445e-25 9.99345192143466e-07 8.57447388291735e-25 1.00658599001926e-06)
(9.22974260617891e-07 -4.40699272938186e-09 7.3427997763908e-26 9.09874975303397e-07 -3.3874840620228e-25 9.16396704760981e-07)
(8.46944516711297e-07 -3.8376458454326e-09 -7.54445626565543e-25 8.35011742633296e-07 1.4789252463172e-24 8.4095137986447e-07)
(7.8829619032312e-07 -3.41457274704109e-09 1.50153484535794e-26 7.77108386839632e-07 6.41986561209147e-28 7.82674388849807e-07)
(7.42203022357379e-07 -3.23961860122047e-09 -1.23008238262789e-25 7.31440073846104e-07 1.06115661978173e-25 7.36791147221496e-07)
(6.86801231321972e-07 -3.1801721490552e-09 -1.00917806169759e-25 6.7691035379308e-07 1.57175731999714e-25 6.81827546285142e-07)
(6.3934500387535e-07 -3.30349388897077e-09 6.6111150558203e-26 6.30500338475783e-07 -2.62199339439831e-26 6.34897092336689e-07)
(5.87514096656713e-07 -3.4898129360996e-09 3.77977785339628e-26 5.80207835667387e-07 3.50182126963459e-26 5.83841405999128e-07)
(5.18337725346985e-07 -3.50132509223632e-09 3.79439556681696e-26 5.1334401190901e-07 1.09855098582422e-26 5.15828978178586e-07)
(4.18690585265249e-07 -2.64740606324057e-09 -2.06036793054969e-29 4.16605801965914e-07 5.56470531752776e-31 4.17645712459432e-07)
(3.34227643333022e-07 -1.51979152245554e-09 -4.95168429499485e-30 3.3370034827271e-07 8.80474594204938e-32 3.33964034222747e-07)
(2.78514810442243e-07 -7.98690020148527e-10 5.07190202175414e-30 2.78454114109041e-07 -3.16726116701616e-28 2.78484854382015e-07)
(2.80226777524715e-07 -6.17621676324912e-10 4.08409542552675e-30 2.80226168367846e-07 -3.05042106089491e-33 2.80226396069508e-07)
(1.02463760302715e-05 -1.58548307487936e-07 -9.68540779303838e-32 1.02481437323653e-05 0 1.02472991021163e-05)
(9.97990592756586e-06 -1.76220498264848e-07 -1.77000700052651e-28 9.99106505114385e-06 -1.10231176735045e-26 9.98543779742897e-06)
(7.28473247805391e-06 -1.08896580827516e-07 8.88333667499015e-27 7.31690844646728e-06 1.06723802983352e-25 7.30086048289275e-06)
(3.69099866848803e-06 -1.89734056790693e-08 -5.22569747313678e-30 3.70235045048409e-06 1.01186505838885e-29 3.69673240889578e-06)
(1.26843042125013e-06 4.36416836197599e-09 2.34741653603e-30 1.26141289098684e-06 1.73701839818416e-30 1.26495907435989e-06)
(6.19281333243219e-07 2.81400921626737e-09 -2.69144729487253e-30 6.13360932238429e-07 -3.92784771561787e-30 6.16333794154436e-07)
(6.34741591100148e-07 2.03340940306918e-09 -2.3724135138167e-30 6.29366779671138e-07 -4.90594111794851e-30 6.3206533314608e-07)
(4.7942201228292e-07 1.34715069970455e-09 -2.45600350909392e-24 4.75257513085657e-07 6.76851824689897e-26 4.77345501250546e-07)
(4.19888294609903e-07 1.04838920372062e-09 -4.57275450039598e-23 4.16416352009115e-07 -6.59472845243824e-23 4.18157243660256e-07)
(4.34875914558308e-07 1.15459909220967e-09 -5.12140458089745e-23 4.3108357681279e-07 -8.59820610994796e-23 4.3298262604477e-07)
(5.05097636573248e-07 1.47631695144983e-09 4.86377060802362e-24 5.00470942395948e-07 -1.61797288774302e-26 5.02787934892936e-07)
(6.26554195169895e-07 2.15329814091434e-09 -3.34902218560862e-25 6.2008136663088e-07 -7.51245035774142e-25 6.23319983006379e-07)
(7.98799589283699e-07 3.15272627842085e-09 1.73264601528024e-28 7.89619700165375e-07 2.77873565576603e-28 7.94212827517733e-07)
(1.04687198844616e-06 4.86796493504302e-09 2.15485130979399e-24 1.03298241924445e-06 4.35164279148286e-24 1.03992750186291e-06)
(1.40947139614954e-06 7.70534008712571e-09 -5.94798837588176e-28 1.38770499038833e-06 -9.95759918475632e-28 1.39858931525295e-06)
(1.94564654028237e-06 1.27764117524491e-08 3.24073372152856e-24 1.91023977189641e-06 6.31581478661996e-24 1.92793938569445e-06)
(2.71649773547454e-06 2.18465453978819e-08 -4.04588128953951e-24 2.65896882728849e-06 -9.79682587032624e-24 2.687728461989e-06)
(3.81290321021031e-06 3.84516147501003e-08 -1.36166533086383e-24 3.72005527510081e-06 1.29541401335026e-25 3.76647010165021e-06)
(5.31403810638068e-06 6.7542952281604e-08 6.06163295459773e-24 5.17007773884488e-06 2.46368141513356e-23 5.2420472886491e-06)
(7.28057212762584e-06 1.16544324222815e-07 3.69266426437966e-24 7.07001954774883e-06 2.27338114514675e-23 7.17526095922564e-06)
(9.77209102023749e-06 1.94889465401501e-07 1.5992015480085e-25 9.48353462896214e-06 -1.19841289564063e-24 9.62776369844884e-06)
(1.28441171291099e-05 3.11672951250046e-07 3.66447419115539e-24 1.24767444126333e-05 -4.24254913124347e-25 1.26603454732851e-05)
(1.63941050546291e-05 4.68730225773362e-07 1.43636361431182e-26 1.59736524998674e-05 3.90331805735365e-26 1.61836883969335e-05)
(2.02075761149329e-05 6.58684754564108e-07 -2.3152625200014e-23 1.97925215418132e-05 -1.75292246838933e-22 1.99999933702637e-05)
(2.40808088739026e-05 8.675861630509e-07 -5.55418815341683e-25 2.37509424841793e-05 1.10516399594327e-25 2.39149978342982e-05)
(2.81009543518346e-05 1.13327125758351e-06 -1.18543418773943e-24 2.79272612078711e-05 -1.95612946193705e-23 2.80132648276452e-05)
(3.46371768541527e-05 1.59837549557672e-06 8.05551472277378e-25 3.45699489028223e-05 -7.10079171851037e-26 3.46027262691482e-05)
(4.34406888773742e-05 2.21104314992306e-06 -9.90948314636786e-28 4.33806949564007e-05 -1.17857666174656e-25 4.34083309753017e-05)
(5.14234973143427e-05 2.76199109769084e-06 1.81288302174686e-37 5.13797732838065e-05 -1.44913136496966e-38 5.13991756020255e-05)
(5.85728197569821e-05 3.25607208978664e-06 4.39084006915611e-37 5.85405487379685e-05 -3.08808495030219e-36 5.85536436576581e-05)
(6.51116024198516e-05 3.69390312252927e-06 -1.86331153404019e-37 6.5090192591164e-05 2.01060271337252e-25 6.50975592761417e-05)
(7.11455173544076e-05 4.08021806312716e-06 0 7.11341762878028e-05 -2.19670097290954e-25 7.11361721464965e-05)
(7.67373803806612e-05 4.41421841025104e-06 -1.95385213709151e-21 7.67359729155588e-05 1.35263233055778e-22 7.67327841140502e-05)
(8.19596821269834e-05 4.69820456152902e-06 -7.17609010013881e-21 8.19681123927499e-05 3.82962922988788e-20 8.1959822192194e-05)
(8.68087265837587e-05 4.92986617279351e-06 -3.0757588614227e-21 8.68269491086679e-05 4.13611610368675e-20 8.68136604614253e-05)
(9.11279616591268e-05 5.09981107595413e-06 2.42772982111885e-21 9.11557391824208e-05 -1.55951887812031e-22 9.11376379644777e-05)
(9.49014276644375e-05 5.20765175403231e-06 -1.27473458349829e-26 9.49383377481834e-05 7.51367451049197e-28 9.49157103662424e-05)
(9.8128670859869e-05 5.25508933973916e-06 -6.51999285618964e-21 9.81741231450367e-05 3.68080775200794e-22 9.81473263153028e-05)
(0.00010081254317053 5.24485874908548e-06 -1.61795764859619e-20 0.000100865795293592 -8.4812407368349e-23 0.000100835259530314)
(0.000102963003059503 5.18091904250008e-06 -2.31145768779592e-21 0.000103023185168523 -1.45763186542458e-21 0.000102989393496261)
(0.000104595431693101 5.06809542260251e-06 7.21104642661611e-21 0.000104661574409128 -3.69341790982967e-22 0.00010462505220545)
(0.000105732081711944 4.91200515072283e-06 -4.83038115936608e-26 0.000105803151575905 -5.38608586160872e-25 0.00010576444610551)
(0.000106401211468378 4.71875744183351e-06 -3.69398895455652e-26 0.000106476151297589 5.4928854930999e-25 0.000106435812382496)
(0.000106635966818586 4.49470799825158e-06 1.69661081922791e-26 0.000106713731850504 -2.68993228998539e-25 0.000106672294932809)
(0.000106473764380906 4.24621393215711e-06 -1.30943246107657e-20 0.00010655336167121 5.03444218124485e-22 0.000106511327053818)
(0.00010595277109412 3.97934007673968e-06 -2.50754862474387e-20 0.000106033278705061 7.51548227974979e-20 0.000105991106116551)
(0.000105112130793076 3.69974695275705e-06 2.04273432284435e-21 0.000105192725487246 7.5488994105882e-20 0.000105150817669715)
(0.000103986479951044 3.41245872379918e-06 1.3187051302299e-20 0.00010406641236021 -4.39612429479525e-22 0.000104025131327264)
(0.000102611725552241 3.12213515124544e-06 1.35965742273339e-26 0.000102690318266945 5.25746702303265e-25 0.0001026499860645)
(0.000101028599518601 2.83304630691293e-06 -1.88226689641866e-26 0.000101105285037062 -3.6092721489603e-25 0.000101066166949974)
(9.92788261541091e-05 2.54881317890334e-06 3.85364691630931e-37 9.935316649051e-05 4.60226380871685e-26 9.9315459796683e-05)
(9.73991458031902e-05 2.27228074322621e-06 -8.69640186744722e-37 9.74708192631403e-05 1.48839843343277e-25 9.74346651517385e-05)
(9.54223954858268e-05 2.00557668849085e-06 4.1756488484092e-37 9.54911974900675e-05 -5.19609495327808e-25 9.54566760721003e-05)
(9.33670145493172e-05 1.7500576302599e-06 7.17000290315037e-37 9.34327864103785e-05 -3.34806828514692e-27 9.33999567450722e-05)
(9.12496451683792e-05 1.50685067199282e-06 -8.5735248137759e-37 9.13122558535415e-05 1.87925365982711e-25 9.1281163237143e-05)
(8.90933062205456e-05 1.27689350057582e-06 5.05816705001349e-27 8.91526857404924e-05 -5.18510993941821e-29 8.91233465263165e-05)
(8.69229303457858e-05 1.06074974282611e-06 -3.78751937756704e-27 8.69790860272128e-05 3.78107110687941e-27 8.69514789033855e-05)
(8.47554758365069e-05 8.58521792885293e-07 -5.94744328175292e-27 8.48084615351468e-05 4.38327255065801e-26 8.47825434133872e-05)
(8.26018824483502e-05 6.70079508051008e-07 4.70575948488084e-27 8.26517647508368e-05 -2.29829655686591e-26 8.26274876359119e-05)
(8.04718873536036e-05 4.95182379039415e-07 -5.04748577487501e-21 8.05187491008029e-05 -2.31619155194109e-26 8.0496058328549e-05)
(7.83807267609961e-05 3.33461894156412e-07 -5.41572585943534e-21 7.84246844580466e-05 -7.35452711985802e-20 7.84035101855808e-05)
(7.63345697252624e-05 1.84335984434711e-07 4.46606694310615e-21 7.63757524086843e-05 -7.25371090910722e-20 7.63560190776376e-05)
(7.4335173952563e-05 4.72133812640233e-08 4.73626499970231e-21 7.43737050321822e-05 2.42721291409635e-23 7.43553406053003e-05)
(7.23860826933864e-05 -7.85100705883266e-08 9.4111573050653e-27 7.24220919250902e-05 3.52793050686642e-27 7.24050214722199e-05)
(7.04880374467446e-05 -1.93475146003449e-07 -8.95838201025714e-27 7.05216563716871e-05 3.3353398104632e-27 7.05058075847678e-05)
(6.86439649452982e-05 -2.98347312055831e-07 -4.42158679090794e-27 6.86753252469292e-05 1.72454096813057e-25 6.86606264093348e-05)
(6.68523933414928e-05 -3.93752175730997e-07 4.30357187501289e-27 6.68816172706137e-05 -1.21807578552272e-25 6.68680027149042e-05)
(6.51130382758962e-05 -4.80293755106238e-07 -2.515640560327e-37 6.51402478234845e-05 -2.17384234655527e-25 6.51276516586382e-05)
(6.34257168358942e-05 -5.5857072968695e-07 1.00791519936242e-38 6.3451029256489e-05 -1.54043723432446e-27 6.34393892244881e-05)
(6.17894740930517e-05 -6.29144042983023e-07 2.38354770299442e-37 6.18129992072393e-05 3.25750199816941e-25 6.18022570090407e-05)
(6.02022398376704e-05 -6.92527404384951e-07 0 6.0224078055863e-05 -1.59235326372216e-25 6.02141807806245e-05)
(5.86623460980933e-05 -7.49196905394908e-07 4.14821809541807e-21 5.86825921254933e-05 1.27885071545165e-22 5.86734900689741e-05)
(5.71678665066167e-05 -7.99603449563022e-07 3.73645132232003e-21 5.71866079387639e-05 6.07893545532748e-20 5.71782551660436e-05)
(5.57159388988e-05 -8.44135591475919e-07 -4.31756792181357e-21 5.57332534247971e-05 5.92622692015078e-20 5.57256096195334e-05)
(5.43035641750715e-05 -8.83144717781871e-07 -3.87648424189702e-21 5.43195207170508e-05 -1.39095007332092e-22 5.43125496050844e-05)
(5.29271170442659e-05 -9.16915975850801e-07 1.45587928246787e-26 5.29417753818682e-05 2.09282099761666e-25 5.29354463139046e-05)
(5.15833272813023e-05 -9.45718024146713e-07 -4.1713518976471e-37 5.15967389939464e-05 2.87023097183321e-25 5.15910243881554e-05)
(5.02675590908156e-05 -9.69724460743648e-07 1.42693648584933e-26 5.02797644519376e-05 2.63461504813988e-27 5.02746442637335e-05)
(4.89756629625977e-05 -9.89107048242056e-07 3.61078062000408e-21 4.89866918893347e-05 1.75751439609326e-22 4.89821488360389e-05)
(4.77014069587514e-05 -1.00388934055837e-06 3.06014849870719e-21 4.77112768698938e-05 5.33355188418384e-20 4.77073037332328e-05)
(4.64400897758067e-05 -1.01416208669235e-06 -3.93009895639106e-21 4.64488064777921e-05 5.16792157572003e-20 4.64453962854688e-05)
(4.51828408595248e-05 -1.01973977541089e-06 -3.36580935412213e-21 4.51903941820611e-05 -1.82093485889016e-22 4.5187556533435e-05)
(4.39245846512032e-05 -1.02066316828874e-06 -1.94641378885958e-26 4.39309488782177e-05 6.65450215490875e-25 4.39286880653978e-05)
(4.26508336633125e-05 -1.01637887863855e-06 2.77051849729753e-26 4.26559591627234e-05 4.8852123435775e-25 4.26543114934042e-05)
(4.1357004069333e-05 -1.00696318867635e-06 2.75321641778026e-21 4.13608198478312e-05 1.75912623446214e-22 4.13598013445727e-05)
(4.00168904908954e-05 -9.91156416230649e-07 1.72862397932221e-21 4.00192870173458e-05 -5.07000368088584e-20 4.00189803147393e-05)
(3.86288597605784e-05 -9.6930935572476e-07 -3.48094297691947e-21 3.86296923919387e-05 -4.9997351152496e-20 3.86301244171641e-05)
(3.71405229534359e-05 -9.38671143070558e-07 -2.47094280959843e-21 3.71395818309133e-05 -1.70974558727227e-22 3.71409239531598e-05)
(3.55957101146008e-05 -9.01399497463111e-07 -3.76613097021155e-29 3.5592722131289e-05 -9.78786974593164e-29 3.55950049140724e-05)
(3.39473568707942e-05 -8.53154343981857e-07 -9.32094086945139e-29 3.39419131759955e-05 4.1298630887231e-25 3.39454992890146e-05)
(3.21708593566532e-05 -7.96055059466683e-07 4.77451561403242e-21 3.21623405543189e-05 3.78638391043032e-22 3.21672922105305e-05)
(3.00663192753983e-05 -7.17947613619662e-07 3.48474689326036e-21 3.00539906129878e-05 -3.62991751540949e-21 3.00610462623373e-05)
(2.76379326275989e-05 -6.26575636782254e-07 -4.98039085066229e-21 2.76198243472741e-05 -4.72911588996342e-21 2.76293590832372e-05)
(2.43968974057042e-05 -4.93151651201707e-07 -3.6505533290001e-21 2.43723400458679e-05 -3.08724195121375e-22 2.4385501824809e-05)
(2.37829042196815e-05 -4.12224602310527e-07 6.67526373014762e-24 2.37239032166659e-05 2.96234567413004e-23 2.37542289595663e-05)
(2.8041494146008e-05 -4.93115223623896e-07 -2.15911825888744e-23 2.78796214721706e-05 4.90479020058054e-24 2.79608182199007e-05)
(3.24415865931053e-05 -6.30508161256076e-07 4.22351527566604e-21 3.20868204728931e-05 8.03313430464613e-22 3.22650882252136e-05)
(3.66351023397423e-05 -7.754424899092e-07 -1.12472203424089e-20 3.60020560964332e-05 7.20197636535388e-20 3.63190489274096e-05)
(4.02879459118865e-05 -9.15534425705596e-07 -2.52919169543693e-20 3.92934725218063e-05 7.14911097039494e-20 3.97917143026642e-05)
(4.36043073224479e-05 -1.04009849119086e-06 -4.83948996105224e-21 4.21736653022747e-05 -2.93447184359639e-22 4.28906974819786e-05)
(4.67426531386448e-05 -1.15250125935404e-06 3.16597271002668e-22 4.47969815382603e-05 -6.02109092727296e-22 4.57727788452209e-05)
(4.88251238290122e-05 -1.23417741600255e-06 -5.23112133663352e-22 4.63522325158328e-05 1.35316268742158e-21 4.759347960747e-05)
(4.90855265208318e-05 -1.26396137570451e-06 -2.02423570717202e-22 4.6196261197432e-05 3.21854873539656e-22 4.76474671836614e-05)
(4.77698341721233e-05 -1.24600695338406e-06 2.08564072566967e-22 4.46381460211937e-05 -4.39423454720559e-22 4.62116644711046e-05)
(4.51184877305776e-05 -1.19101130944089e-06 -3.99552591900128e-22 4.19379432969674e-05 8.38277028056867e-22 4.35361808874048e-05)
(4.1204359950811e-05 -1.09654613015757e-06 -1.3932408250384e-23 3.81902813707143e-05 -1.09198731732674e-24 3.97047874534989e-05)
(3.72272947936013e-05 -9.80058567173571e-07 1.31637713346385e-22 3.44835078985652e-05 -2.18222984419507e-22 3.58617694137345e-05)
(3.38343149359651e-05 -8.63702928387111e-07 2.00442169989528e-22 3.13533310502634e-05 -4.09298190707965e-22 3.25993783364659e-05)
(3.08002695005807e-05 -7.52282336182291e-07 9.21728828386687e-23 2.85615566742943e-05 -1.24445178986461e-22 2.96860404978204e-05)