/*--------------------------------*- C++ -*----------------------------------*\
  =========                 |
  \\      /  F ield         | OpenFOAM: The Open Source CFD Toolbox
   \\    /   O peration     | Website:  https://openfoam.org
    \\  /    A nd           | Version:  7
     \\/     M anipulation  |
\*---------------------------------------------------------------------------*/
FoamFile
{
    version     2.0;
    format      ascii;
    class       volVectorField;
    location    "20000";
    object      U;
}
// * * * * * * * * * * * * * * * * * * * * * * * * * * * * * * * * * * * * * //

dimensions      [0 1 -1 0 0 0 0];

internalField   nonuniform List<vector> 
15600
(
(0.0308363012419176 -1.13665516132508e-05 0)
(0.0368982402862526 -0.000597797637876303 0)
(0.0291887052226946 -0.00243396104655537 4.8356848800566e-20)
(0.00570574723178582 -0.00122021950168918 2.09770016919798e-23)
(-0.0120122741620707 0.00363389096007215 1.28641702798388e-23)
(-0.0130861618489648 0.00545744945702672 -3.65029226532383e-23)
(-0.00903900622755476 0.00446739314278178 0)
(-0.00786406294898213 0.00423400043760345 0)
(-0.00645925476191919 0.00362801068967642 -1.0141406447544e-15)
(-0.00616402438558384 0.00344092227807519 -1.16346041879139e-15)
(-0.00591722701110157 0.00323037802749356 -5.39311099250919e-18)
(-0.00626111794792451 0.00333500074989281 -5.97186057112766e-18)
(-0.00648465429459855 0.00340009762176617 1.60390877412564e-21)
(-0.00704750735669775 0.00364787122841857 7.07010627005774e-18)
(-0.00771373193015702 0.00396911960817399 0)
(-0.00866519938603487 0.00440359235403623 4.43023219076949e-23)
(-0.00975324095212874 0.00480587223842051 0)
(-0.0111445328984372 0.00519708892456448 -4.59442741241121e-21)
(-0.0126370349439883 0.00542652198357565 4.83541712920169e-21)
(-0.0142127459855298 0.0054238023382175 -2.11964107894301e-17)
(-0.0159602546331541 0.00521734313845021 7.53526092661744e-23)
(-0.017849528020684 0.00482321107746672 -1.14804169715289e-20)
(-0.0195993785515464 0.00416182008685341 5.93739901266215e-21)
(-0.021242729351487 0.00325624138425509 -1.26667977569403e-17)
(-0.0220418062006124 0.00205100103016022 6.38349881647429e-21)
(-0.0239802329887023 0.000779689034135437 -1.6466682533916e-18)
(-0.0292803291570926 0.000110865368286743 7.37515793274529e-21)
(-0.0342259643981267 0.000116937719182167 -6.53943844418981e-21)
(-0.0371309153302627 0.000121346671661923 0)
(-0.0392602298130754 0.000124360690811539 0)
(-0.0407184599954922 0.000126433850949832 7.42802892569071e-21)
(-0.0417322556025382 0.000126963630075849 -7.42505498152377e-21)
(-0.0423606702924004 0.000126403317160189 -8.0111604530648e-21)
(-0.0426722967304356 0.000124663389587516 8.01037593945384e-21)
(-0.0426973700729075 0.000121917851924867 0)
(-0.0424673687389445 0.00011823665002773 0)
(-0.0420060853602116 0.000113801104985076 0)
(-0.0413374650051888 0.000108711889605558 6.90834364997894e-32)
(-0.0404825329514131 0.000103101581000859 -1.27496306580468e-15)
(-0.0394622682872941 9.70771848513301e-05 -1.32670767164585e-15)
(-0.0382965545686068 9.07531574436005e-05 5.35578569541571e-21)
(-0.0370051671957331 8.4232478665459e-05 -5.35879980686067e-21)
(-0.0356070873888079 7.76094568137642e-05 5.70167654228554e-21)
(-0.0341207339828668 7.09728051781535e-05 -5.70547350260407e-21)
(-0.0325633250585564 6.43895894333405e-05 -6.03984666403312e-21)
(-0.0309509821430539 5.79289994099421e-05 -1.58842438595465e-15)
(-0.0292982694926216 5.16294051830971e-05 -1.63622655431186e-15)
(-0.0276181217427584 4.55332160807235e-05 -6.37175121501804e-21)
(-0.0259232105110873 3.96797857882997e-05 3.34006259172639e-21)
(-0.02422546987316 3.40990157914912e-05 7.28752413433415e-23)
(-0.0225348700127283 2.87952879766194e-05 -3.41830501492531e-21)
(-0.0208598365491975 2.37829055438009e-05 3.56079168347043e-21)
(-0.0192066667048279 1.90425812051083e-05 -3.56357874134981e-21)
(-0.0175799254798445 1.45766744069164e-05 2.134002769944e-31)
(-0.0159846854458675 1.03873194680101e-05 0)
(-0.0144256617124178 6.47068094777388e-06 -1.10524937364869e-31)
(-0.0129062282596405 2.80777658648148e-06 0)
(-0.0114281519405344 -6.18599604702671e-07 0)
(-0.00999284167928065 -3.81806487803563e-06 0)
(-0.0086017834745883 -6.80114282180472e-06 0)
(-0.00725585869598605 -9.58509895046958e-06 -2.12684707581768e-15)
(-0.00595488214112994 -1.21872541975444e-05 -2.15443074826994e-15)
(-0.00469891972060765 -1.46117958627655e-05 0)
(-0.00348797869996458 -1.68783146956181e-05 0)
(-0.00232165372388297 -1.90015176448318e-05 0)
(-0.00119913481832169 -2.09991859437246e-05 1.26568953059175e-31)
(-0.000119691721757921 -2.28715919958838e-05 -4.41657063973937e-21)
(0.000917373439075415 -2.46291978885853e-05 4.4158622954229e-21)
(0.00191305885044396 -2.62804871554257e-05 -1.30316147914086e-31)
(0.0028682564966652 -2.78386999301244e-05 0)
(0.0037838131070862 -2.93105893233725e-05 0)
(0.00466038900724715 -3.07057446647602e-05 0)
(0.0054988059774654 -3.20326831914976e-05 2.4080093087583e-15)
(0.00629953580459464 -3.32962754892092e-05 2.41906813908865e-15)
(0.00706303794823972 -3.45067804962228e-05 -7.18428813405869e-23)
(0.00778929122954803 -3.56665642298323e-05 9.42946714659667e-21)
(0.00847844945218014 -3.67894732980144e-05 0)
(0.00912977847111848 -3.78721163187002e-05 0)
(0.00974297824399262 -3.89360652213506e-05 9.69441871876091e-21)
(0.0103159303644475 -3.99677938179833e-05 2.53189613233182e-15)
(0.0108480413350544 -4.10082814138334e-05 2.53623652605566e-15)
(0.0113346736052276 -4.20171908066563e-05 -9.88082369905588e-21)
(0.0117754652411148 -4.30826391431955e-05 9.87896158696425e-21)
(0.0121605120815099 -4.40965878935552e-05 -2.90202968146748e-31)
(0.0124913008878908 -4.52636083627063e-05 0)
(0.0127463901398779 -4.63056531864485e-05 -2.02476364265257e-20)
(0.0129338963083939 -4.77099393075219e-05 2.02464517288391e-20)
(0.0130052228066818 -4.87745091545606e-05 0)
(0.0129881893779423 -5.06804844811159e-05 0)
(0.0127679820508782 -5.16504272221286e-05 0)
(0.012425026203522 -5.45659031020366e-05 -2.08869972762104e-20)
(0.0116651327747053 -5.50117262046398e-05 2.73216543037178e-15)
(0.0107260233920098 -5.95638885223568e-05 2.73195899827924e-15)
(0.00865944077135571 -5.63413796238683e-05 0)
(0.00611503518645992 0.000116938459185849 2.76964375792259e-18)
(0.00694385479928152 0.000578668529048208 6.0073417006614e-23)
(0.00938834802766306 0.00139526559370444 -2.14261876105891e-20)
(0.0118938755987165 0.00248272790949483 4.74271319339378e-15)
(0.0150278818012407 0.00400021529293476 4.53810602310694e-15)
(0.0184475864318218 0.0059261818210567 -4.09263968512132e-17)
(0.022521550207199 0.00841081841893464 -3.92647086674161e-17)
(0.0272773768468096 0.0114098750061672 3.72543394361747e-17)
(0.0322004694644376 0.014574834255026 7.01951984527035e-17)
(0.0368812021238113 0.0175958064649847 -3.28260891457609e-17)
(0.0412451021241217 0.0202943485253897 3.051470945217e-17)
(0.0447099050640607 0.0222959055769312 0)
(0.0470130753337164 0.0236756008093942 -2.58262659832992e-17)
(0.0490640853360245 0.0250709755749195 -2.34537257917998e-17)
(0.0513723387311299 0.0267659743711479 -2.09811636955324e-17)
(0.0542648605745621 0.0289556785212479 -5.32329068878279e-21)
(0.0587457502318128 0.0321631335296088 0)
(0.0659792412654334 0.0362692738242363 -2.53754737025839e-17)
(0.0739250286005726 0.0392076999127188 -9.4732646041966e-18)
(0.0827712307999065 0.0403074268830947 1.2553685303375e-17)
(0.0909990386930975 0.0378716882620469 2.89065787561398e-18)
(0.0951179425008424 0.0296847484535802 -1.62624367676703e-19)
(0.0809341587481297 0.0150565468251995 0)
(0.0549127007201669 0.00463116892972602 0)
(0.0333735275493648 0.000583905903699562 5.43084405815653e-20)
(0.0255715204540411 -2.04202719594143e-07 0)
(0.0949097759411783 -0.000138206763767221 0)
(0.111154263176913 -0.00179101593531605 0)
(0.090611857663856 -0.00710903213982036 7.82288609808745e-24)
(0.0240179331005043 -0.00395563007267226 2.42034964702363e-23)
(-0.0309353517249281 0.0102072275566518 -8.66110294110736e-23)
(-0.0369882520564391 0.0158279395377669 5.62772895506885e-23)
(-0.0261184022017328 0.0130819138002931 0)
(-0.0227612290734868 0.0124345152167605 0)
(-0.018904389296418 0.0107237895564418 1.56343459690642e-15)
(-0.0180986376648327 0.0101972656863185 1.7997115436528e-15)
(-0.0175218954756485 0.00962390991225559 1.66381547465173e-17)
(-0.0185502771634774 0.00993886508249805 2.07484803842109e-23)
(-0.0193309659307289 0.0101703967640231 -1.21530612839763e-21)
(-0.0210514077502829 0.0109288483902286 -2.81042079984864e-21)
(-0.0231120841118044 0.0119197277426023 2.83200317214232e-21)
(-0.0259709118626373 0.0132331527553057 1.39376645137221e-22)
(-0.0292711964814856 0.0144628317174072 -1.33517667621075e-17)
(-0.033401636490644 0.0156321490916561 0)
(-0.0378566732776713 0.0163167481383354 1.51188018825157e-17)
(-0.0426104481117915 0.0163174908908944 3.20081928463261e-17)
(-0.0478443217690107 0.0156957623017953 1.68184599975654e-17)
(-0.0534037930929115 0.0144779615959066 8.52000739686152e-21)
(-0.0586010186704092 0.0124616003714978 -8.96748609043209e-21)
(-0.0633433143236437 0.00968617119071165 -6.34294739689391e-23)
(-0.066545380612808 0.00614891981613574 9.3150302848865e-21)
(-0.0730326989177903 0.00249325274174848 1.20252937897147e-18)
(-0.0866969357329275 0.000504955698050596 -1.17777402691073e-21)
(-0.098802873172491 0.00036008464648301 3.48303737240718e-32)
(-0.105933522281739 0.000241976306000121 0)
(-0.111017557999457 0.000171948780849033 -1.47260380825108e-31)
(-0.114385533170938 0.000122670440912807 0)
(-0.116583882581002 8.42964396197133e-05 0)
(-0.117774556547286 5.28706084751174e-05 0)
(-0.118128760598488 2.54675107373987e-05 1.31344130856181e-15)
(-0.117730493248086 1.0878796103435e-06 1.3727598865646e-15)
(-0.116663849077951 -2.09190455633466e-05 0)
(-0.114994759699746 -4.06913497567788e-05 0)
(-0.112787920475473 -5.84941154672019e-05 6.91855126606369e-21)
(-0.110100741448584 -7.44001303520695e-05 3.42086176308541e-15)
(-0.106989691730987 -8.85119622540656e-05 3.54503006395187e-15)
(-0.103508202093335 -0.000100867238067455 -1.51392435242927e-20)
(-0.0997087660990552 -0.000111519842851559 -2.45448685542198e-22)
(-0.0956415065494428 -0.000120533305822841 7.97597134232094e-21)
(-0.0913545625343502 -0.000127976844587375 8.48261906676016e-21)
(-0.0868927817175884 -0.0001339707618454 -8.50800224248222e-21)
(-0.0822978328347388 -0.000138605643508597 6.31435757021041e-15)
(-0.0776073058574858 -0.000142048233392929 6.50553932977682e-15)
(-0.0728549061297639 -0.000144368458854036 2.23946249462274e-22)
(-0.0680733915340962 -0.000145608472419419 -9.55351110135936e-21)
(-0.0632931626608187 -0.000145870854799653 1.44292717216149e-31)
(-0.0585396513044178 -0.000145334115484793 -1.47892407286399e-31)
(-0.0538341753041746 -0.000144120138847348 0)
(-0.0491927493451199 -0.00014243915860272 3.09798507529346e-31)
(-0.0446274930819701 -0.000140321222119111 -3.16601434157148e-31)
(-0.0401516335140354 -0.000137761617260346 0)
(-0.0357771690882954 -0.000134824505402554 1.64890455072947e-31)
(-0.0315125591903045 -0.000131648022384682 -2.90928337552147e-21)
(-0.0273623782764478 -0.00012831937838062 2.91915158051824e-21)
(-0.0233303933722503 -0.000124846585297149 0)
(-0.0194204696450746 -0.000121249795386847 0)
(-0.0156347749117315 -0.000117602112086765 3.21406354489688e-15)
(-0.0119728822865954 -0.000113948064926694 3.26525011538179e-15)
(-0.00843504566170654 -0.000110265727722829 3.2081021599124e-21)
(-0.00502128362163937 -0.00010660580158147 -3.21737681580157e-21)
(-0.00173051819052207 -0.000102999337447824 -3.29831787618231e-21)
(0.00143936659464867 -9.94627162432789e-05 3.29997622515739e-21)
(0.00449025297256812 -9.59556773571914e-05 0)
(0.00742399548470287 -9.25056397978353e-05 0)
(0.0102431824327873 -8.91116054908423e-05 1.97799901141292e-31)
(0.0129501713391576 -8.57782855790399e-05 0)
(0.0155471658935156 -8.24910106949266e-05 0)
(0.0180359222458541 -7.92517616841711e-05 0)
(0.0204185582467522 -7.60566762680405e-05 -3.62664226707468e-15)
(0.022696335035852 -7.28813659390781e-05 -3.6622435933372e-15)
(0.0248704153631689 -6.97190682038859e-05 1.41133537764577e-20)
(0.0269407497571876 -6.65356790188196e-05 -4.14950778870888e-31)
(0.0289076295239047 -6.33314424859436e-05 0)
(0.0307691494728256 -6.00400562715411e-05 0)
(0.0325242916982821 -5.66683839115759e-05 -1.45677382144183e-20)
(0.0341675894332599 -5.309944398776e-05 -3.78392558666365e-15)
(0.0356969335402553 -4.93805949534308e-05 -3.82447935699661e-15)
(0.0371005061052098 -4.52712128132654e-05 -1.48204049195486e-20)
(0.0383761040388201 -4.09273793989425e-05 2.97155804575256e-20)
(0.0394988631886562 -3.58088851268627e-05 1.50836049670886e-20)
(0.0404697525223939 -3.03775138753266e-05 1.85445811118184e-22)
(0.0412356858298436 -2.33694770009142e-05 -3.4189179666887e-15)
(0.0418109240067917 -1.60275977197853e-05 -3.41794426962117e-15)
(0.0420765519618827 -5.3014378713707e-06 1.86820287884385e-22)
(0.0420882664787569 5.54139987185888e-06 1.88857371840473e-22)
(0.0415675858784982 2.4156555150861e-05 1.937136456529e-22)
(0.0406822669285281 4.27329929148766e-05 1.98824890495042e-22)
(0.0387180609689875 8.01395204178155e-05 -7.62800335837364e-15)
(0.0361740373067075 0.000123311819778978 -7.69944838288896e-15)
(0.0307458815848612 0.000221095304658813 0)
(0.0241348103798704 0.000794189385102861 -4.18888381098852e-18)
(0.0258255492264879 0.00216826055609078 -1.66793558095634e-17)
(0.0319545926497324 0.00460435165830897 3.30745211647686e-17)
(0.0386007023056668 0.00784165676693062 -7.04225930862094e-15)
(0.0467247462005729 0.012221510296142 -6.83862876431708e-15)
(0.0556505631898899 0.0177212735747795 1.2199967196228e-16)
(0.0661607221282061 0.0247009715506757 0)
(0.0783708309428073 0.0330495268963116 -8.53925928304204e-21)
(0.0911650149859802 0.0418817360060419 -5.20077247710136e-17)
(0.103567919677616 0.0503778324949347 4.86761700988894e-17)
(0.115334741516475 0.0580365886438086 2.20965466082883e-20)
(0.125114119901703 0.0638927266626487 -2.58091126655301e-22)
(0.132098019783843 0.0681055987913877 3.85745000819414e-17)
(0.138186075002922 0.0722824475787737 6.19407706758567e-21)
(0.144745013922927 0.0772400621003501 3.15123482138065e-17)
(0.152744533218345 0.0835569889671895 -5.54132027696672e-17)
(0.164689474230309 0.0926300279455699 0)
(0.18384158353839 0.104154848729646 1.92025845626447e-17)
(0.205897831725963 0.112654231716569 -4.85311957086319e-22)
(0.231029169477147 0.116018189170712 -9.52863515142622e-18)
(0.255433466154224 0.109421386174481 -4.39622486420719e-18)
(0.270026631273322 0.0865460312088505 2.47396824538007e-19)
(0.23722152921576 0.0451363518174854 0)
(0.168703824710645 0.0146120274005101 0)
(0.107489279911793 0.00212608423826361 5.93571970929638e-24)
(0.0828232854125952 2.02955277881861e-05 -5.94463564534909e-24)
(0.162837082701182 -0.000364312108625142 0)
(0.187269863406676 -0.0029946943843102 9.56804869903819e-21)
(0.156284562217579 -0.0117310092400767 -7.58113854732614e-20)
(0.0499045936754136 -0.00762108551584083 0)
(-0.0448515769376395 0.0153365543197679 0)
(-0.059067100416498 0.0252365517469665 1.73324666824981e-23)
(-0.0425569174897727 0.0211730868690364 6.18876069077594e-23)
(-0.0371657811147913 0.0202024246910665 -8.8077137642148e-23)
(-0.0311385842601328 0.0175877374456832 6.80155820166186e-18)
(-0.029883213780358 0.016790812361436 -7.73859734487928e-18)
(-0.0291098428677618 0.0159674575270845 -8.60361654728072e-18)
(-0.0308287623196201 0.0165111982185964 0)
(-0.0322709381854245 0.0169846829848732 0)
(-0.0351941220592464 0.0182946971342343 -1.12003728735814e-17)
(-0.0387220068308282 0.0200138477807574 2.95089263410976e-21)
(-0.043515457828871 0.0222358367079067 -1.2816198723659e-17)
(-0.0490797503658824 0.0243360528982752 1.36296446556671e-17)
(-0.055932933907824 0.0262830192463369 0)
(-0.0633494773044838 0.0274229282690059 -1.52915788109741e-17)
(-0.0713126384443448 0.027440019866498 -3.21718800031289e-17)
(-0.0800165232699088 0.0263945823355269 -8.09864752457959e-22)
(-0.0891318988496585 0.0243056632485946 0)
(-0.0976847536764541 0.020894109734702 0)
(-0.105436376020142 0.0162249286425016 9.1694257373171e-18)
(-0.111735813256132 0.0104596486372212 0)
(-0.122923544790438 0.00451820757476903 -9.05827774284963e-21)
(-0.1424958999247 0.00126986882667857 7.76364582269207e-21)
(-0.159015790320101 0.000901240511308882 0)
(-0.168676982958562 0.00058695759534107 0)
(-0.175326442915703 0.000401014972831087 1.36871579445811e-31)
(-0.179509136651395 0.000267326055263226 -1.40837832537744e-31)
(-0.1819715963631 0.000163252943999579 0)
(-0.182960159243745 7.71193449414178e-05 -1.05254225209284e-20)
(-0.182716849510966 2.13124161142766e-06 -1.20776541692735e-15)
(-0.181372050219639 -6.44160453683013e-05 -1.24113356450346e-15)
(-0.179055445609339 -0.000124036013072415 1.12226869966967e-20)
(-0.175869065426275 -0.000177305453829491 0)
(-0.171910732253877 -0.00022488100193217 -1.24889434296513e-20)
(-0.167267636753349 -0.000267025050063517 -1.43579942022326e-15)
(-0.162024263371304 -0.000304015229247648 -1.47904416723653e-15)
(-0.15626013003215 -0.000336001650611164 0)
(-0.150052367279921 -0.000363163614151466 7.15717750423661e-21)
(-0.143474073812185 -0.000385711124361467 -7.17804284220262e-21)
(-0.136594757093081 -0.000403878273328599 0)
(-0.12947882934954 -0.00041800851988353 -7.88568213551907e-21)
(-0.122185752956328 -0.000428397694480095 -3.62615839602501e-15)
(-0.114769071880034 -0.000435478816247631 -3.72639007735109e-15)
(-0.10727715471666 -0.00043946018034344 0)
(-0.0997566871066437 -0.000440499703404807 -8.88336611595305e-21)
(-0.0922504828005504 -0.00043891877371462 8.93920457550618e-21)
(-0.0847943363560097 -0.000435197297096725 -4.69207240787794e-21)
(-0.0774181512628348 -0.000429706022126029 -9.31126452386872e-23)
(-0.0701445159769434 -0.000422961733978043 9.79009216718925e-21)
(-0.062991219036822 -0.000415052869267003 8.87906271799327e-23)
(-0.0559774393284281 -0.000405992302952607 -5.09903862260192e-21)
(-0.0491202185176056 -0.000395985394914968 0)
(-0.0424314389534584 -0.000385398415394322 0)
(-0.0359177672684288 -0.000374453755842325 -1.38621301990907e-21)
(-0.0295848942048767 -0.000363176846157287 6.88098024508984e-22)
(-0.0234385577982119 -0.00035163589566132 7.1256938396627e-22)
(-0.0174818726555046 -0.00034002886223383 7.36356544753107e-22)
(-0.0117144229085726 -0.000328471236295933 -7.41237655981545e-22)
(-0.00613684323270899 -0.000316947086353679 0)
(-0.000749307298898156 -0.000305554485537859 0)
(0.00444965209265616 -0.000294312090503745 0)
(0.00946299278116155 -0.000283270449647862 -6.34459577024537e-21)
(0.014293305134889 -0.000272384168818443 -6.36554987371107e-23)
(0.0189432254085981 -0.000261723001676443 1.28473165743887e-20)
(0.0234163992729512 -0.000251284981799193 6.01627445457176e-23)
(0.0277162062232493 -0.000241066067179333 -1.30605132192723e-20)
(0.0318457587983448 -0.000231026308956319 6.5532873260219e-21)
(0.0358075748607584 -0.000221164582492417 -1.33202376203293e-20)
(0.0396046257530859 -0.00021146375205115 -1.08536439349248e-22)
(0.0432387145195012 -0.000201859844096162 1.34080675171349e-20)
(0.0467114106745399 -0.000192319482801493 0)
(0.0500225761526214 -0.000182758971028774 0)
(0.0531724076045498 -0.000173153133274027 -1.3794626052532e-20)
(0.0561580629253817 -0.000163347436205052 -9.74834656588211e-23)
(0.0589776483181873 -0.000153310022788311 1.38819275286076e-20)
(0.0616231750619662 -0.000142782563230588 0)
(0.0640906956029907 -0.000131783982417267 -1.41604986326342e-20)
(0.0663632098546311 -0.00011981145555694 4.26671643732819e-20)
(0.0684356617780156 -0.000107030173795934 -2.8512039551218e-20)
(0.0702728537767924 -9.23540285734028e-05 -2.88852676375442e-20)
(0.0718721054028484 -7.64011648384695e-05 2.89039180947973e-20)
(0.073159340320791 -5.67027966705878e-05 3.28015816602689e-15)
(0.0741459032018599 -3.505439754116e-05 3.32632840317111e-15)
(0.0746678374378569 -5.59670965135721e-06 0)
(0.0747833826685547 2.67509840762083e-05 0)
(0.0741115512911395 7.65701376506457e-05 -3.02117991411631e-20)
(0.0728422489179823 0.000132755462402165 3.02814562421408e-20)
(0.0699976530468195 0.000231156901430152 3.44183061924706e-15)
(0.0661478766933243 0.000361749198045118 3.50864508822268e-15)
(0.0581336824368715 0.000601464605928852 0)
(0.0485128127162101 0.00166856994115139 0)
(0.0503762946836173 0.00412755044515178 0)
(0.058968253200062 0.00827603438460291 -3.22401493726102e-17)
(0.068807066676582 0.0136850117800783 0)
(0.0806668058695941 0.0207408604178165 0)
(0.0938025954536128 0.0294435646183142 -5.88198692121265e-17)
(0.109178297515049 0.0402566477211059 -2.57200539707228e-23)
(0.127026590263601 0.0530105157160889 -5.3328759127513e-17)
(0.14598331321886 0.0665035813546719 5.0363988907068e-17)
(0.164721813563552 0.0795886011448804 0)
(0.182807490711145 0.0915090418978483 -4.43826919234811e-17)
(0.198407903245284 0.100931330662959 -1.02237546454631e-20)
(0.21018238450214 0.108032814588524 0)
(0.220392319735877 0.11496248260697 3.49836157580857e-17)
(0.231056277665231 0.122960836616748 0)
(0.243763113676319 0.132955222228748 5.57097508017152e-17)
(0.262143083508912 0.146947484540807 0)
(0.29130753087551 0.164478558958845 0)
(0.325978076706149 0.177794026027745 0)
(0.366054770077297 0.183295207606796 0)
(0.406029096043765 0.173538135551208 0)
(0.432570028530744 0.138645406041597 0)
(0.38972779836737 0.0746817427262605 5.99505841591535e-23)
(0.287986599641101 0.025599474144523 -5.90690519843626e-23)
(0.190552445594887 0.00423117288133875 6.08129503866828e-24)
(0.147660258583363 0.000124059755742576 -6.11810054987659e-24)
(0.235014347643351 -0.000662802563804991 -5.94953680013931e-25)
(0.265328178433641 -0.00420806829888374 2.62605335751475e-23)
(0.226205710459634 -0.0162920856699818 7.74559706479171e-20)
(0.0837981370963866 -0.012126646792768 7.07687225146864e-19)
(-0.0530600184537683 0.019033704259088 0)
(-0.0790200627558214 0.0336983312127777 0)
(-0.0582008667853594 0.0287269147059653 8.3318162659452e-23)
(-0.0509673946799617 0.027532107730324 -2.83573654053785e-22)
(-0.043083672128713 0.0242084085378366 -2.25711836813743e-22)
(-0.0414569667938089 0.0232157481171789 4.79824062927528e-22)
(-0.040631202269924 0.0222498154878097 0)
(-0.0430515764805406 0.0230445198515191 2.41174709361484e-21)
(-0.0452596776133751 0.0238294674065338 -2.58046400479004e-21)
(-0.0494258059494026 0.0257288283944886 0)
(-0.0544784078282271 0.028223686394511 3.0169692755583e-21)
(-0.0612091235913909 0.0313730560279167 -9.57080536928795e-21)
(-0.0690409201945989 0.0343633182407407 6.6864358396565e-21)
(-0.0785326022548257 0.0370621655528721 0)
(-0.0888078381677227 0.0386245042434975 -1.51577346186833e-17)
(-0.099846190583365 0.0386230924958607 1.57274197850525e-17)
(-0.111761631778366 0.0370897498262901 -2.23183825904294e-21)
(-0.124016003160579 0.0340407215817328 8.25263987802819e-18)
(-0.135466851656619 0.0291770280207167 1.18992147222121e-22)
(-0.145861608630667 0.0226388598273515 1.26534357168902e-22)
(-0.15523831330328 0.0147938541959956 1.02750261664575e-22)
(-0.170058456708215 0.00671363956521015 -7.93481739194211e-21)
(-0.192294116775143 0.00227810684028411 9.68740300374893e-22)
(-0.20991978148836 0.00160521698384727 0)
(-0.219868818779921 0.00102739997260143 0)
(-0.226296075643552 0.000684302789340667 0)
(-0.229879157237793 0.00043369281739982 8.8787115221637e-16)
(-0.231452357490623 0.000237802955863621 9.11776106984134e-16)
(-0.231313875872053 7.42171250281587e-05 -8.0173674939116e-21)
(-0.229743227342752 -6.811763064705e-05 0)
(-0.226912489270144 -0.000194157113524356 -9.69995576712579e-16)
(-0.222979388230286 -0.000306725187174148 -1.00210908462712e-15)
(-0.218068870619665 -0.000407107578516147 0)
(-0.212298063688406 -0.000496490650281422 0)
(-0.205770887927045 -0.000575452737409328 0)
(-0.198586278694285 -0.000644532424479046 0)
(-0.190836397413048 -0.000704076413963831 0)
(-0.182609352431741 -0.000754465116503826 -5.33231296573968e-21)
(-0.173987774983914 -0.000796134311884092 5.33552914077614e-21)
(-0.165049414943153 -0.000829565343944245 0)
(-0.155865775862294 -0.000855406669005586 0)
(-0.146502497934549 -0.000874243014719668 0)
(-0.137018500763661 -0.000886836505847182 0)
(-0.127467343811349 -0.000893574079061084 6.40600695305919e-21)
(-0.117900513198251 -0.000894783841770064 -6.45336769313561e-21)
(-0.108364755983869 -0.000891097316216801 3.40014983645842e-21)
(-0.0988990214914364 -0.00088338678309451 -3.43032342349108e-21)
(-0.0895358998747033 -0.000872365509994915 0)
(-0.0803000966475955 -0.000858917965147267 -3.70830805232726e-21)
(-0.0712118483225723 -0.00084319849946902 7.56051620273399e-21)
(-0.0622929981754759 -0.000825255134436174 -3.85478856778982e-21)
(-0.0535626795276382 -0.000805507731719198 0)
(-0.0450341579788816 -0.000784629754351829 2.06820077585134e-21)
(-0.0367152129894193 -0.00076301657026018 -2.09196509579494e-21)
(-0.0286128239222494 -0.000740717030364566 0)
(-0.0207340729829027 -0.000717877708315107 0)
(-0.0130829279341472 -0.00069488152709258 5.71959844118743e-22)
(-0.00565951950208162 -0.000671959600220519 -5.78645864354422e-22)
(0.00153468657547383 -0.00064901348865595 -2.39117157901578e-21)
(0.00849882395689734 -0.000626160022988192 2.40173416987697e-21)
(0.0152340454842281 -0.000603541157109172 2.46327456681005e-21)
(0.0217432048686521 -0.00058129337410523 -7.46585949425103e-21)
(0.0280287316049229 -0.00055935869078119 1.00726544987466e-20)
(0.0340931534012257 -0.000537849387627978 -5.07856826968228e-21)
(0.039940139249868 -0.000516775373499906 0)
(0.0455731391302416 -0.000496125399677277 0)
(0.0509952708689761 -0.000475830156673841 0)
(0.0562090172414257 -0.000455886154117307 0)
(0.0612173356454288 -0.000436259842716555 -1.08937820181768e-20)
(0.066021927665454 -0.000416838217694252 1.09308936520377e-20)
(0.0706241316908347 -0.000397545780022708 0)
(0.0750233657983692 -0.000378237572788897 0)
(0.0792192583704758 -0.000358841779328335 0)
(0.0832080755102858 -0.000339096869641827 -1.1503120699048e-20)
(0.0869867979569751 -0.000318891302441713 1.15441904925892e-20)
(0.0905456878849266 -0.000297801205076224 0)
(0.0938787760975199 -0.000275748651196127 0)
(0.0969659548863663 -0.00025194295774894 0)
(0.0997988267907124 -0.000226427741998321 0)
(0.102336669036892 -0.000197548638274013 0)
(0.104571304666391 -0.000165814108696472 -2.47618306306911e-20)
(0.106418471354513 -0.00012755854863393 2.48914080798714e-20)
(0.10788049378044 -8.45429745096428e-05 0)
(0.108773289925673 -2.8173807627319e-05 0)
(0.109138545155695 3.64175458698293e-05 0)
(0.10854821624733 0.00013029937405909 0)
(0.107167955074129 0.000242825296707366 0)
(0.103903875775572 0.000426183196910093 -2.71474726763785e-20)
(0.0992597184953852 0.000687394909523084 2.74598190917325e-20)
(0.0896924616580372 0.00110745812614104 -3.18879569700229e-20)
(0.0782744712727201 0.00274997564377124 2.87444816658172e-20)
(0.0796810393585381 0.0064179629025071 0)
(0.0893298611906054 0.0122612919460774 -2.77052169335226e-20)
(0.10109240463085 0.0197252627095931 2.66598327775656e-20)
(0.115268093954727 0.0291549911120313 0)
(0.131159737255735 0.0405779464382196 0)
(0.149745344005309 0.05449242240429 2.37955772981415e-20)
(0.171387688518216 0.0706853200423863 -2.2807627217763e-20)
(0.19477183000006 0.0878306419706325 -4.46236504744107e-17)
(0.218435260938344 0.104628416580809 0)
(0.241776654103578 0.120148180425932 4.05831792918284e-17)
(0.262727208938411 0.132865496556771 0)
(0.279444211477438 0.142929292143616 8.68396817195097e-21)
(0.294032032746026 0.152688096685839 -2.94316318657631e-22)
(0.30886280199541 0.163645796199898 -1.12341661932661e-20)
(0.326046282910014 0.177014143915278 -2.72727034861053e-17)
(0.349982669144698 0.195172276549943 0)
(0.387352979868007 0.217506266987678 0)
(0.433009876448125 0.234896469164313 0)
(0.486556924321097 0.242373202383622 0)
(0.541328843411712 0.230317344645388 -3.17696848223997e-23)
(0.581080270686281 0.185838521281079 3.00831926475199e-23)
(0.536371940587896 0.10327864507916 -6.04517046665395e-23)
(0.411356783136227 0.0374031576183592 3.48480198875785e-23)
(0.282396284992975 0.00689523322008672 3.11769205021822e-23)
(0.220485004746705 0.000355753449429743 -6.26176792515997e-24)
(0.311524569840043 -0.000989086560069111 0)
(0.345135411264299 -0.00542495248998663 4.11645325085187e-23)
(0.300037148954414 -0.0207861063906677 8.23768715820469e-24)
(0.125895773562004 -0.0174405232651125 -7.17089234253855e-19)
(-0.0548257389575123 0.0212090472530909 -3.20580282102185e-18)
(-0.0965409302819916 0.041180561305903 -6.20344603697123e-23)
(-0.0728968010697243 0.0357055979645533 5.41485993210856e-18)
(-0.0640679082890444 0.0343963862545483 1.98837010907468e-22)
(-0.0546623656544813 0.030559877839067 -6.70255076547001e-22)
(-0.0527598243829452 0.0294522524800316 8.25692634310752e-18)
(-0.0520254693398811 0.0284470848018148 -9.14741818699675e-18)
(-0.055159272217822 0.0295156776905713 0)
(-0.0582214175467213 0.0306720850407001 0)
(-0.0636464936585758 0.0331855413391801 0)
(-0.0702310261057396 0.036476785732907 1.23986045638652e-17)
(-0.0788248804804186 0.0405340040695764 0)
(-0.0887914706316503 0.0443687342782607 0)
(-0.100636419966649 0.047708411634845 -1.40625202310746e-17)
(-0.11335912456549 0.0495476545827697 1.44983414254432e-21)
(-0.126877593148201 0.049354506148163 -7.1467808059783e-21)
(-0.141132246335961 0.0471347189396555 -2.89975488793838e-17)
(-0.155385358884114 0.0429488027792267 -7.17821002296904e-18)
(-0.16849123390571 0.0365703653559923 -1.00016557505026e-22)
(-0.180374015000015 0.0282848748323826 6.66652592922082e-21)
(-0.191606876144756 0.018642527225769 3.35989677144112e-18)
(-0.207831412217165 0.00876830062000176 6.31741977920639e-21)
(-0.229204229216445 0.00332152685763825 -6.65017690351871e-21)
(-0.244776983810321 0.00228824951732539 0)
(-0.253023009498472 0.00142285426617113 0)
(-0.25784553800077 0.000907540706067612 0)
(-0.259884615730624 0.000527880461753817 -6.23698671774724e-16)
(-0.259941079217233 0.000231175505030961 -6.21560028177973e-16)
(-0.258306788819914 -1.68896870168443e-05 0)