/*--------------------------------*- C++ -*----------------------------------*\
  =========                 |
  \\      /  F ield         | OpenFOAM: The Open Source CFD Toolbox
   \\    /   O peration     | Website:  https://openfoam.org
    \\  /    A nd           | Version:  7
     \\/     M anipulation  |
\*---------------------------------------------------------------------------*/
FoamFile
{
    version     2.0;
    format      ascii;
    class       volScalarField;
    location    "20000";
    object      walldist;
}
// * * * * * * * * * * * * * * * * * * * * * * * * * * * * * * * * * * * * * //

dimensions      [0 1 0 0 0 0 0];

internalField   nonuniform List<scalar> 
15600
(
0.000782210646486758
0.000783831670468139
0.000791593713271547
0.000809008803839331
0.000836366448257353
0.000883736738222621
0.000953470204151967
0.00104146862955192
0.00114394168465323
0.00125818380239649
0.00137665134170431
0.00149200901556595
0.00160410914044788
0.00171326125803608
0.00181986721974966
0.0019270203137796
0.00203828438783673
0.00215252041643492
0.00226767391959601
0.00238062066227142
0.00248492488414889
0.00257458313860829
0.00264706813533248
0.00270010804442995
0.00273167920811471
0.00274020678756273
0.00273773842080332
0.00273773726269535
0.00273773726269538
0.00273773726269529
0.00273773726269536
0.00273773726269544
0.00273773726269533
0.00273773726269534
0.00273773726269535
0.00273773726269552
0.00273773726269538
0.00273773726269529
0.00273773726269539
0.00273773726269535
0.00273773726269535
0.00273773726269547
0.00273773726269549
0.00273773726269546
0.00273773726269544
0.00273773726269538
0.00273773726269536
0.00273773726269537
0.00273773726269544
0.00273773726269535
0.00273773726269532
0.00273773726269538
0.0027377372626953
0.00273773726269526
0.00273773726269532
0.00273773726269538
0.00273773726269535
0.00273773726269533
0.00273773726269534
0.00273773726269538
0.00273773726269534
0.00273773726269538
0.00273773726269533
0.00273773726269534
0.0027377372626955
0.00273773726269544
0.00273773726269535
0.00273773726269537
0.00273773726269548
0.00273773726269525
0.00273773726269533
0.00273773726269544
0.00273773726269541
0.00273773726269539
0.00273773726269527
0.00273773726269542
0.00273773726269542
0.00273773726269549
0.00273773726269542
0.00273773726269542
0.00273773726269544
0.00273773726269544
0.00273773726269529
0.00273773726269539
0.00273773726269549
0.00273773726269533
0.00273773726269554
0.00273773726269525
0.0027377372626953
0.00273773726269558
0.00273773726269551
0.0027377372626952
0.0027377372626952
0.00273773821581454
0.00274021890311128
0.00273160420629584
0.00269995153117409
0.00264683674094294
0.00257428479111187
0.00248456791681984
0.00238021736119683
0.00226725318571563
0.00215209760638689
0.00203786855031748
0.00192661766979957
0.00181947665350905
0.00171286364151454
0.00160370142925629
0.00149158998268401
0.00137621990375424
0.00125774714332911
0.00114353953867232
0.0010411138812164
0.000953173695943052
0.000883515231529428
0.00083623254367242
0.000808925722743259
0.000791546083958443
0.000783816724029963
0.00078221064648698
0.00237534048947729
0.00238035645680542
0.00240384946724489
0.00245669660624859
0.00254029011314264
0.00268978790821316
0.00292044331180684
0.00322144048818364
0.00357398845242201
0.0039581285587013
0.00434586009478408
0.00471960489121119
0.00508099839983377
0.00543261951214104
0.00577701258131983
0.00611870118075157
0.00645905032280437
0.00679186086182608
0.00710990067472615
0.00740496294851347
0.00766719548763759
0.00788977508309028
0.00807015494886341
0.00820610355061913
0.00829562752928884
0.00833706892238306
0.00834413630865942
0.00834239432276991
0.00834065294403268
0.00833896563660661
0.00833733243332087
0.0083357533659776
0.00833422846534647
0.00833275776116565
0.00833134128213715
0.00832997905592279
0.00832867110914308
0.00832741746737392
0.00832621815514536
0.00832507319593737
0.00832398261217834
0.0083229464252437
0.00832196465545245
0.00832103732206583
0.00832016444328588
0.00831934603625317
0.00831858211704467
0.00831787270067291
0.00831721780108468
0.00831661743115874
0.00831607160270523
0.00831558032646429
0.00831514361210512
0.008314761468225
0.00831443390234827
0.00831416092092602
0.00831394252933483
0.00831377873187636
0.00831366953177806
0.0083136149311909
0.00831361493119099
0.00831366953177809
0.00831377873187634
0.00831394252933484
0.00831416092092622
0.00831443390234845
0.00831476146822498
0.00831514361210529
0.00831558032646424
0.00831607160270512
0.0083166174311587
0.00831721780108468
0.00831787270067281
0.00831858211704441
0.00831934603625285
0.0083201644432855
0.00832103732206572
0.00832196465545251
0.00832294642524403
0.00832398261217864
0.00832507319593762
0.00832621815514539
0.00832741746737392
0.00832867110914313
0.00832997905592261
0.0083313412821384
0.00833275776116645
0.00833422846534597
0.00833575336597847
0.00833733243332212
0.00833896563660395
0.00834065294402991
0.00834239432277037
0.00834414574778112
0.00833700939346428
0.00829538415854646
0.00820569003215175
0.00806957785122868
0.00788904224705609
0.00766631438966171
0.00740394745576263
0.00710878504308372
0.00679067758670584
0.00645782779498181
0.00611746279128363
0.00577577331879274
0.00543135941644566
0.00507970691502703
0.00471827262158931
0.00434447731273199
0.00395670460536554
0.00357263294808836
0.00322023294229999
0.00291945402905757
0.00268907977988374
0.00253987861870441
0.00245644455730472
0.0024037055622025
0.00238031187156802
0.00237534048947708
0.00402682314578888
0.00403577979202833
0.00407952939955122
0.00418204467979745
0.00435709727753133
0.00466156577121519
0.00510258336175345
0.00564598626921117
0.00625480109770787
0.00689705180003839
0.0075368155900369
0.00815480211706083
0.00875453712277605
0.0093402750559385
0.00991602436480278
0.0104867940628063
0.0110519755636517
0.0116015611532933
0.0121240214196673
0.0126063061475786
0.0130340048241072
0.0133974371916482
0.0136924200617765
0.0139152909649524
0.0140628467876732
0.0141324870609871
0.0141454911603404
0.0141425394376396
0.0141395873454085
0.0141367269181867
0.0141339582116283
0.0141312812796449
0.0141286961744007
0.0141262029463094
0.0141238016440274
0.0141214923144492
0.0141192750027041
0.0141171497521498
0.0141151166043704
0.0141131755991713
0.0141113267745743
0.0141095701668161
0.0141079058103429
0.0141063337378078
0.0141048539800679
0.0141034665661806
0.014102171523401
0.0141009688771792
0.0140998586511579
0.0140988408671711
0.0140979155452394
0.0140970827035703
0.0140963423585557
0.0140956945247701
0.0140951392149691
0.0140946764400893
0.0140943062092453
0.0140940285297298
0.0140938434070134
0.0140937508447433
0.0140937508447434
0.0140938434070134
0.0140940285297298
0.0140943062092453
0.0140946764400894
0.0140951392149694
0.0140956945247701
0.0140963423585557
0.0140970827035702
0.0140979155452393
0.014098840867171
0.0140998586511579
0.014100968877179
0.0141021715234009
0.0141034665661804
0.0141048539800678
0.0141063337378079
0.0141079058103428
0.0141095701668163
0.0141113267745748
0.0141131755991714
0.0141151166043706
0.0141171497521499
0.014119275002704
0.014121492314449
0.0141238016440286
0.0141262029463105
0.0141286961743994
0.0141312812796436
0.0141339582116286
0.0141367269181838
0.0141395873454066
0.0141425394376387
0.0141455074102477
0.0141323815037792
0.0140624434796237
0.0139146120328704
0.0136914759529955
0.0133962406654404
0.0130325685224068
0.012604651268521
0.0121221959584653
0.0115996153480804
0.0110499546942647
0.010484735991713
0.00991395555637735
0.00933817782395491
0.00875239639778945
0.00815260297401934
0.00753454183026984
0.00689470810154535
0.00625251584909571
0.00564387493041177
0.00510076855697078
0.0046601905029951
0.00435625418513567
0.00418155197010349
0.00407926592812782
0.00403569958202508
0.00402682314578874
0.00573880440118064
0.0057519601224479
0.00581952857320038
0.00598416653454511
0.0062733068029203
0.00675074286070924
0.00740964486300964
0.00819736083307834
0.00906326210427042
0.00996526263252641
0.0108604720360353
0.011727810610844
0.0125720081219406
0.0133986054770282
0.0142128609099359
0.0150200351522048
0.0158173135807449
0.0165907398577472
0.017324327887199
0.0180000022266139
0.0185986560302681
0.0191076624936376
0.0195211177978878
0.0198338592331452
0.0200414196871338
0.0201402168532921
0.0201593664756365
0.0201551606887557
0.0201509535310842
0.0201468770092869
0.0201429312026774
0.0201391161880884
0.0201354320398615
0.0201318788298431
0.020128456627376
0.0201251654992915
0.0201220055099049
0.0201189767210079
0.0201160791918633
0.0201133129791997
0.020110678137204
0.0201081747175182
0.0201058027692337
0.0201035623388853
0.020101453470449
0.0200994762053357
0.0200976305823881
0.0200959166378764
0.0200943344054949
0.0200928839163593
0.0200915651990027
0.0200903782793733
0.0200893231808319
0.020088399924149
0.0200876085275036
0.0200869490064813
0.0200864213740722
0.0200860256406695
0.0200857618140694
0.0200856298994698
0.0200856298994698
0.0200857618140695
0.0200860256406695
0.0200864213740722
0.0200869490064815
0.0200876085275038
0.020088399924149
0.020089323180832
0.0200903782793734
0.0200915651990027
0.0200928839163594
0.0200943344054949
0.0200959166378763
0.0200976305823882
0.0200994762053358
0.020101453470449
0.0201035623388853
0.0201058027692334
0.0201081747175186
0.0201106781372044
0.0201133129791998
0.0201160791918635
0.0201189767210079
0.0201220055099048
0.0201251654992911
0.0201284566273766
0.0201318788298453
0.0201354320398606
0.020139116188089
0.0201429312026793
0.0201468770092865
0.020150953531085
0.0201551606887587
0.0201593897838451
0.0201400637098199
0.0200408509905881
0.0198329058585667
0.0195197942384533
0.0191059866522142
0.0185966459988868
0.0179976868282838
0.0173217692533788
0.0165880065750183
0.0158144684262921
0.0150171310598198
0.0142099363175085
0.0133956460262923
0.0125689948786785
0.0117247241443983
0.0108572915694928
0.00996199084695021
0.00906004368527002
0.00819434325309031
0.00740699195494735
0.00674865668821518
0.00627195000762417
0.00598336695640953
0.00581912046571359
0.00575184075940044
0.00573880440118031
0.00751350049298087
0.00753104784719005
0.007624262611646
0.0078568539732804
0.00827049378003167
0.00893096354708115
0.00981550581026884
0.0108542589682262
0.0119840059447088
0.0131528471203043
0.0143110332366668
0.0154356371001007
0.0165324126931215
0.0176080979258352
0.0186691639024727
0.0197210524963666
0.0207586105249036
0.0217637881607884
0.0227159788074077
0.0235918964530596
0.0243675759066619
0.0250273414968184
0.0255634980345892
0.025969322215742
0.0262390334616632
0.0263680301381325
0.0263935474899671
0.0263880416868574
0.0263825334870607
0.0263771963216173
0.0263720302943697
0.0263670355059095
0.026362212053569
0.0263575600314131
0.0263530795302275
0.0263487706375111
0.0263446334374683
0.0263406680109997
0.026336874435695
0.0263332527858253
0.0263298031323348
0.0263265255428357
0.0263234200816002
0.0263204868095544
0.0263177257842731
0.0263151370599736
0.0263127206875103
0.0263104767143699
0.0263084051846668
0.0263065061391387
0.0263047796151423
0.0263032256466503
0.0263018442642477
0.0263006354951284
0.0262995993630931
0.0262987358885468
0.0262980450884968
0.0262975269765507
0.0262971815629156
0.0262970088543964
0.0262970088543965
0.0262971815629155
0.0262975269765507
0.0262980450884969
0.026298735888547
0.0262995993630932
0.0263006354951284
0.0263018442642477
0.0263032256466502
0.0263047796151421
0.0263065061391386
0.0263084051846668
0.0263104767143699
0.0263127206875102
0.0263151370599736
0.0263177257842731
0.0263204868095543
0.0263234200815999
0.0263265255428357
0.026329803132335
0.0263332527858252
0.0263368744356949
0.0263406680109999
0.0263446334374684
0.0263487706375108
0.0263530795302288
0.0263575600314152
0.0263622120535703
0.0263670355059108
0.0263720302943715
0.0263771963216177
0.0263825334870641
0.026388041686862
0.0263935781129109
0.0263678277101184
0.0262382934564896
0.0259680845805554
0.0255617814645328
0.0250251692410536
0.0243649717377836
0.0235888971047235
0.0227126610278377
0.0217602395415042
0.0207549119772049
0.019717272600391
0.0186653535331504
0.0176042464862556
0.0165284974966427
0.0154316344194567
0.014306918187222
0.0131486211323129
0.0119798296140499
0.0108503114681495
0.00981198991417115
0.00892813501506806
0.00826858356119816
0.00785571728212998
0.00762369758098527
0.00753088714178763
0.00751350049298088
0.00935320884551989
0.009375326629394
0.00949556800873222
0.00980022840172945
0.0103457179544181
0.0111975352995406
0.0123158525526832
0.0136138558230494
0.0150159496047284
0.0164603412613247
0.017890328640606
0.0192810767747008
0.020639305750101
0.0219729350926485
0.0232896569389189
0.0245950653627137
0.0258815596731316
0.0271268464928272
0.0283055292300073
0.029388919897916
0.0303480216666355
0.0311640010242339
0.0318273023549714
0.0323295821798702
0.0326636969277318
0.0328239876147963
0.0328561046338602
0.03284925117821
0.0328423942753442
0.0328357502852251
0.0328293193371209
0.0328231015562544
0.0328170970637896
0.0328113059768228
0.0328057284083697
0.0328003644673534
0.0327952142585963
0.0327902778828075
0.0327855554365751
0.0327810470123556
0.0327767526984639
0.0327726725790677
0.0327688067341762
0.0327651552396337
0.0327617181671123
0.0327584955841048
0.0327554875539171
0.0327526941356635
0.0327501153842597
0.0327477513504187
0.0327456020806437
0.0327436676172255
0.0327419479982384
0.0327404432575346
0.0327391534247428
0.0327380785252639
0.0327372185802697
0.0327365736066995
0.0327361436172597
0.0327359286204218
0.0327359286204217
0.0327361436172597
0.0327365736066995
0.0327372185802697
0.0327380785252641
0.0327391534247429
0.0327404432575346
0.0327419479982383
0.0327436676172254
0.0327456020806434
0.0327477513504184
0.0327501153842597
0.0327526941356632
0.032755487553917
0.0327584955841046
0.0327617181671122
0.0327651552396334
0.0327688067341759
0.0327726725790678
0.0327767526984641
0.0327810470123554
0.0327855554365752
0.0327902778828076
0.0327952142585964
0.0328003644673532
0.0328057284083692
0.0328113059768231
0.0328170970637876
0.032823101556253
0.0328293193371198
0.0328357502852232
0.0328423942753439
0.0328492511782111
0.0328561428372066
0.0328237341188449
0.0326627794025039
0.0323280499797386
0.0318251785344793
0.0311613143810674
0.0303448018758628
0.029385211896159
0.0283014249001557
0.0271224531199782
0.0258769769651301
0.0245903781295596
0.0232849289593388
0.0219681598088111
0.0206344566972304
0.0192761259347347
0.0178852471453693
0.0164551295878962
0.0150107844013948
0.0136089484984732
0.0123114446519362
0.0111939349686815
0.0103432248282975
0.00979873361326322
0.00949483708596415
0.00937512271790613
0.00935320884551967
0.0112603110442316
0.0112871764992992
0.0114356756082186
0.0118159289074637
0.0124995917097828
0.0135506073433068
0.014911184355175
0.0164774132590254
0.0181612156325589
0.0198906876943659
0.0216020023386505
0.0232683523602415
0.0248974096488382
0.0264982875267651
0.0280799247043449
0.029648054006186
0.0311925250452389
0.0326866453778397
0.0341000528215393
0.0353984592487388
0.0365476544448343
0.0375255329072378
0.0383206086102013
0.0389228572610316
0.0393237216150417
0.0395164462383276
0.0395554039804182
0.0395471534898833
0.0395388984770483
0.03953089978948
0.0395231575828044
0.0395156720077767
0.0395084432102666
0.0395014713312454
0.0394947565067727
0.0394882988679815
0.0394820985410663
0.0394761556472711
0.0394704703028781
0.0394650426191951
0.0394598727025454
0.039454960654257
0.0394503065706535
0.0394459105430437
0.0394417726577137
0.0394378929959176
0.0394342716338691
0.039430908642736
0.0394278040886315
0.0394249580326082
0.0394223705306522
0.0394200416336768
0.0394179713875193
0.0394161598329347
0.0394146070055924
0.0394133129360733
0.0394122776498656
0.0394115011673626
0.0394109835038615
0.0394107246695612
0.0394107246695612
0.0394109835038615
0.0394115011673626
0.0394122776498656
0.0394133129360734
0.0394146070055926
0.0394161598329348
0.0394179713875194
0.0394200416336766
0.0394223705306519
0.0394249580326081
0.0394278040886313
0.0394309086427359
0.0394342716338691
0.0394378929959173
0.0394417726577137
0.0394459105430437
0.0394503065706535
0.0394549606542572
0.0394598727025455
0.039465042619195
0.0394704703028782
0.0394761556472714
0.0394820985410663
0.0394882988679809
0.0394947565067722
0.0395014713312442
0.0395084432102637
0.0395156720077761
0.0395231575828046
0.0395308997894759
0.0395388984770465
0.0395471534898848
0.0395554500393953
0.039516139816902
0.0393226201018162
0.0389210197649033
0.0383180627066721
0.0375223131491672
0.0365437966334014
0.0353940168251524
0.0340951333482357
0.0326813765506041
0.0311870260559583
0.0296424264949542
0.0280742458324599
0.0264925549984299
0.0248915931421371
0.0232624194951749
0.0215959202611879
0.0198844560694367
0.018155027512195
0.016471513143058
0.0149058531578496
0.0135462057954572
0.0124964894428502
0.0118140582331606
0.0114347709573796
0.0112869276077043
0.0112603110442314
0.0132372759186852
0.0132690689520516
0.0134470078290855
0.0139061592559156
0.014733953126057
0.0159919604920038
0.0176036209498001
0.0194475904711192
0.0214230555520512
0.0234477151943605
0.0254504053005448
0.0274022780289369
0.0293119627490629
0.031189791900221
0.0330459850130023
0.0348864073395897
0.0366982578490386
0.0384502838358021
0.040106975543524
0.041628239388015
0.042974462365888
0.0441201480777356
0.0450518082805098
0.0457576755274184
0.0462277266678005
0.046454069428789
0.0465001180754975
0.046490419357667
0.0464807150180459
0.0464713120065386
0.0464622105060932
0.0464534106939335
0.0464449127415385
0.0464367168146312
0.046428823073158
0.046421231671275
0.0464139427573329
0.0464069564738626
0.0464002729575611
0.046393892339279
0.0463878147440064
0.046382040290862
0.0463765690930801
0.0463714012580008
0.0463665368870596
0.0463619760757758
0.0463577189137447
0.0463537654846284
0.0463501158661478
0.0463467701300742
0.046343728342223
0.046340990562447
0.0463385568446307
0.0463364272366844
0.0463346017805401
0.0463330805121475
0.0463318634614697
0.046330950652481
0.0463303421031639
0.0463300378255079
0.0463300378255078
0.0463303421031639
0.0463309506524811
0.0463318634614698
0.0463330805121476
0.0463346017805401
0.0463364272366845
0.0463385568446307
0.0463409905624469
0.0463437283422228
0.0463467701300742
0.0463501158661476
0.0463537654846284
0.0463577189137447
0.0463619760757759
0.0463665368870597
0.046371401258001
0.0463765690930799
0.046382040290862
0.0463878147440068
0.0463938923392792
0.0464002729575612
0.0464069564738628
0.0464139427573329
0.0464212316712748
0.0464288230731581
0.0464367168146314
0.0464449127415365
0.0464534106939328
0.0464622105060934
0.0464713120065374
0.0464807150180464
0.0464904193576698
0.0465001722752276
0.0464537081522452
0.0462264344480114
0.0457555215878965
0.0450488248844302
0.0441163757459711
0.0429699432545807
0.0416230357551869
0.0401012111993831
0.038444107632281
0.0366918091748861
0.0348798052850542
0.0330393206158939
0.0311830673279418
0.0293051437168472
0.0273953276861022
0.0254432867454456
0.0234404273529496
0.0214158083385493
0.019440662498018
0.0175973334609025
0.015986727712483
0.0147302164974018
0.0139038961031016
0.0134459220153192
0.0132687733159445
0.013237275918685
0.0152866627385722
0.015323567798254
0.0155321214093908
0.0160734121875904
0.0170511989929318
0.0185240989126067
0.0203960058679979
0.0225276894847669
0.0248052658429
0.0271357095517643
0.0294402822118084
0.031688023347008
0.0338885362304876
0.0360534052471309
0.0381941703004424
0.0403168265237642
0.0424058202311182
0.0444251713625414
0.0463340339592462
0.048086296197973
0.0496367454058292
0.0509563707117947
0.0520296076078388
0.052842881143827
0.0533846482784738
0.0536458381070844
0.053699237164631
0.0536880371506375
0.0536768303911955
0.0536659716112982
0.0536554610222181
0.053645298828616
0.0536354852285201
0.0536260204133096
0.0536169045676939
0.0536081378696954
0.0535997204906328
0.0535916525951034
0.0535839343409675
0.0535765658793338
0.0535695473545435
0.0535628789041564
0.0535565606589389
0.0535505927428488
0.0535449752730256
0.0535397083597771
0.0535347921065696
0.053530226610018
0.0535260119598754
0.0535221482390251
0.0535186355234716
0.0535154738823345
0.0535126633778405
0.0535102040653172
0.0535080959931886
0.0535063392029702
0.0535049337292641
0.0535038795997556
0.0535031768352119
0.0535028254494783
0.0535028254494784
0.053503176835212
0.0535038795997556
0.053504933729264
0.0535063392029703
0.0535080959931887
0.0535102040653171
0.0535126633778405
0.0535154738823344
0.0535186355234715
0.053522148239025
0.0535260119598753
0.0535302266100179
0.0535347921065697
0.053539708359777
0.0535449752730254
0.0535505927428489
0.0535565606589388
0.0535628789041567
0.0535695473545436
0.0535765658793338
0.0535839343409674
0.0535916525951032
0.0535997204906329
0.0536081378696953
0.0536169045676953
0.0536260204133106
0.0536354852285168
0.0536452988286139
0.0536554610222199
0.0536659716112988
0.0536768303911972
0.0536880371506397
0.0536992998004813
0.0536454199730033
0.0533831583801048
0.0528403991927184
0.0520261707272512
0.0509520256105341
0.0496315408306448
0.0480803035470429
0.0463273938818359
0.0444180546399232
0.0423983871884871
0.0403092143431554
0.038186484406629
0.036045652463761
0.033880678187593
0.0316800185920759
0.0294320897021262
0.0271273275116489
0.0247969215745137
0.0225196968408095
0.0203887275925707
0.0185180040310134
0.0170468028876662
0.0160707403352992
0.0155308470931784
0.0153232236285439
0.015286662738572
0.01741112452679
0.017453331617647
0.017693688504615
0.018320370749026
0.0194540456439208
0.0211499268909929
0.0232915888984499
0.0257213885274824
0.028311981877753
0.0309592626932308
0.0335766622316728
0.0361310319946839
0.0386329721678949
0.0410953568731959
0.0435310897143776
0.0459462953830446
0.0483225633183042
0.0506190128959372
0.0527892664269816
0.0547809733018089
0.0565431167686816
0.0580430431983558
0.0592630352838082
0.0601876440247609
0.0608037506208326
0.0611010622550053
0.0611620808312136
0.0611493245069088
0.061136560289661
0.0611241924123663
0.0611122211156578
0.0611006466326394
0.0610894691888608
0.0610786890022973
0.0610683062833287
0.0610583212347181
0.0610487340515928
0.0610395449214251
0.0610307540240144
0.0610223615314692
0.0610143676081905
0.0610067724108559
0.0609995760884043
0.0609927787820213
0.0609863806251252
0.0609803817433543
0.0609747822545539
0.0609695822687657
0.0609647818882167
0.0609603812073087
0.0609563803126089
0.0609527792828426
0.0609495781888847
0.060946777093752
0.0609443760525982
0.060942375112708
0.0609407743134928
0.0609395736864851
0.0609387732553385
0.0609383730358224
0.0609383730358225
0.0609387732553385
0.0609395736864851
0.0609407743134926
0.0609423751127082
0.0609443760525982
0.060946777093752
0.0609495781888847
0.0609527792828426
0.0609563803126088
0.0609603812073085
0.0609647818882167
0.0609695822687657
0.0609747822545538
0.0609803817433541
0.0609863806251251
0.0609927787820213
0.0609995760884043
0.061006772410856
0.0610143676081906
0.0610223615314692
0.0610307540240142
0.0610395449214252
0.0610487340515929
0.0610583212347179
0.0610683062833304
0.0610786890022975
0.0610894691888583
0.061100646632639
0.0611122211156597
0.061124192412366
0.0611365602896631
0.0611493245069113
0.0611621522091584
0.0611005851864955
0.060802055812176
0.0601848220628205
0.059259128330446
0.058038104377831
0.056537201661722
0.0547741627817968
0.0527817185963419
0.0506109212674368
0.0483141099202661
0.0459376361535882
0.0435223449940798
0.0410865383326061
0.0386240372178297
0.0361219344349276
0.0335673567632173
0.0309497468576062
0.0283025009378406
0.0257122927854307
0.0232832839098894
0.0211429380436135
0.0194489646180753
0.0183172739512285
0.0176922182925256
0.0174529370830865
0.0174111245267899
0.0196134114938416
0.0196611168300638
0.0199344906441135
0.0206498683581133
0.0219454301045277
0.0238726155834474
0.0262938958325626
0.0290326332941858
0.031947594642349
0.0349232126763878
0.0378648167011416
0.0407369915181771
0.0435513617336461
0.0463221326923204
0.0490636180468573
0.0517820731486439
0.0544561234742287
0.0570398082816893
0.059481015466938
0.0617209270249309
0.0637025100290973
0.0653893349895517
0.0667614526035963
0.0678014709359225
0.0684946375706274
0.0688293929390048
0.0688983100610255
0.0688839403956254
0.068869561666389
0.0688556294090948
0.0688421438948137
0.0688291053861339
0.068816514137134
0.0688043703933611
0.0687926743918053
0.0687814263608763
0.0687706265203827
0.0687602750815099
0.068750372246799
0.0687409182101288
0.0687319131566944
0.0687233572629915
0.0687152506967976
0.0687075936171566
0.0687003861743626
0.0686936285099454
0.0686873207566567
0.0686814630384568
0.0686760554705025
0.0686710981591371
0.0686665912018772
0.0686625346874056
0.0686589286955623
0.0686557732973347
0.0686530685548529
0.0686508145213826
0.0686490112413199
0.0686476587501863
0.0686467570746265
0.0686463062324054
0.0686463062324054
0.0686467570746265
0.0686476587501862
0.0686490112413199
0.0686508145213827
0.0686530685548531
0.0686557732973347
0.0686589286955622
0.0686625346874057
0.068666591201877
0.068671098159137
0.0686760554705025
0.0686814630384566
0.0686873207566568
0.0686936285099454
0.0687003861743626
0.0687075936171567
0.0687152506967977
0.0687233572629915
0.0687319131566946
0.0687409182101289
0.068750372246799
0.0687602750815099
0.0687706265203829
0.0687814263608761
0.0687926743918063
0.0688043703933626
0.068816514137132
0.0688291053861343
0.0688421438948156
0.0688556294090926
0.0688695616663897
0.0688839403956298
0.0688983904980178
0.0688288547824835
0.0684927303523782
0.0677982965197931
0.0667570583749387
0.0653837807237206
0.0636958583924913
0.0617132687133367
0.0594725266732718
0.0570307060821764
0.054446612394996
0.0517723285724153
0.0490537757775308
0.0463122094393179
0.0435413105454294
0.0407267612887295
0.0378543577456531
0.0349125218594457
0.0319369358010992
0.0290223944556875
0.0262845267852902
0.0238646998223624
0.0219396381463569
0.0206463301276784
0.0199328170062059
0.019660670046966
0.0196134114938412
0.0218963745980762
0.0219497810865955
0.0222574177950416
0.023064871819013
0.0245284655020089
0.0266955426916595
0.0294066699088813
0.0324655887331219
0.0357167146872059
0.0390326188146184
0.0423102428681138
0.0455118230083781
0.0486500391431564
0.0517404723465915
0.0547988953011057
0.0578316961001433
0.0608144258705207
0.063695857621753
0.0664179347275454
0.068915134814403
0.0711241887839771
0.0730047532307845
0.0745345648515226
0.075694217433418
0.0764672650080612
0.0768408347902763
0.0769179397487078
0.0769018976208186
0.0768858452353524
0.0768702912902975
0.0768552360882772
0.0768406799224443
0.0768266230764517
0.0768130658244278
0.0768000084309473
0.0767874511510073
0.0767753942300007
0.0767638379036951
0.076752782398207
0.0767422279299819
0.0767321747057717
0.0767226229226157
0.0767135727678202
0.0767050244189417
0.0766969780437682
0.0766894338003033
0.0766823918367508
0.0766758522914995
0.0766698152931106
0.0766642809603049
0.0766592494019506
0.0766547207170526
0.076650694994744
0.0766471723142751
0.0766441527450078
0.0766416363464078
0.076639623168039
0.0766381132495573
0.0766371066207092
0.0766366033013269
0.0766366033013269
0.0766371066207093
0.0766381132495572
0.0766396231680389
0.0766416363464081
0.076644152745008
0.076647172314275
0.076650694994744
0.0766547207170525
0.0766592494019504
0.0766642809603049
0.0766698152931104
0.0766758522914993
0.0766823918367506
0.0766894338003033
0.0766969780437679
0.0767050244189416
0.07671357276782
0.0767226229226157
0.0767321747057719
0.076742227929982
0.0767527823982068
0.0767638379036952
0.0767753942300009
0.0767874511510069
0.0768000084309497
0.076813065824429
0.0768266230764491
0.0768406799224453
0.0768552360882781
0.0768702912902943
0.0768858452353528
0.0769018976208223
0.0769180295730563
0.0768402333129559
0.0764651376044249
0.0756906776609191
0.0745296655105729
0.0729985609918986
0.0711167736597615
0.0689065976829959
0.0664084705334268
0.0636857078671791
0.0608038184036229
0.0578208264613607
0.0547879153250301
0.0517294039769304
0.0486388309144626
0.0455004187409911
0.0422985883502828
0.039020710232119
0.0357048350980823
0.0324541652291361
0.0293961980214561
0.0266866659157653
0.0245219358839602
0.0230608752971785
0.0222555330140094
0.0219492801119134
0.0218963745980758
0.0242629692363706
0.0243222868768874
0.0246654697485609
0.0255684744724578
0.0272064201772967
0.0296222637954521
0.0326338443335507
0.0360246171098325
0.0396241566694114
0.0432927522040991
0.0469186590945585
0.0504616796355533
0.0539355826500949
0.0573573720984537
0.0607443311045356
0.0641029833056217
0.0674056914749382
0.0705957694235185
0.0736089981999428
0.0763729054148076
0.0788177576514527
0.0808991544241422
0.0825924334841988
0.0838761004311261
0.0847319536384237
0.0851457589490268
0.0852313516623772
0.0852135757833035
0.0851957884307443
0.085178553390821
0.085161870998865
0.085145741579713
0.0851301654476756
0.0851151429065094
0.0851006742493855
0.08508675975886
0.0850733997068501
0.0850605943546036
0.0850483439526779
0.085036648740911
0.0850255089484011
0.085014924793484
0.0850048964837108
0.0849954242158278
0.0849865081757578
0.0849781485385823
0.0849703454685226
0.0849630991189254
0.0849564096322464
0.0849502771400383
0.0849447017629357
0.0849396836106447
0.084935222781931
0.0849313193646113
0.0849279734355439
0.0849251850606219
0.0849229542947652
0.084921281181917
0.0849201657550383
0.0849196080361048
0.0849196080361048
0.0849201657550382
0.084921281181917
0.0849229542947652
0.0849251850606219
0.0849279734355441
0.0849313193646114
0.0849352227819309
0.0849396836106445
0.0849447017629356
0.0849502771400384
0.0849564096322464
0.0849630991189251
0.0849703454685226
0.0849781485385822
0.0849865081757578
0.0849954242158276
0.0850048964837107
0.0850149247934842
0.0850255089484014
0.085036648740911
0.0850483439526779
0.085060594354604
0.0850733997068502
0.0850867597588599
0.0851006742493871
0.0851151429065104
0.0851301654476739
0.0851457415797147
0.0851618709988657
0.085178553390819
0.0851957884307458
0.0852135757833043
0.0852314512141497