/*--------------------------------*- C++ -*----------------------------------*\
  =========                 |
  \\      /  F ield         | OpenFOAM: The Open Source CFD Toolbox
   \\    /   O peration     | Website:  https://openfoam.org
    \\  /    A nd           | Version:  7
     \\/     M anipulation  |
\*---------------------------------------------------------------------------*/
FoamFile
{
    version     2.0;
    format      ascii;
    class       volScalarField;
    location    "20000";
    object      Dk;
}
// * * * * * * * * * * * * * * * * * * * * * * * * * * * * * * * * * * * * * //

dimensions      [0 2 -3 0 0 0 0];

internalField   nonuniform List<scalar> 
15600
(
0.000545359810607929
0.000380300811426039
0.000161997070858431
3.92256255914019e-05
2.56244094482096e-05
2.28441859576433e-05
1.01245387958978e-05
5.13553875191813e-06
3.31315766724014e-06
2.83265017479703e-06
3.10978737378446e-06
3.84953980674643e-06
5.08388879399454e-06
6.7034390735825e-06
8.590682480064e-06
1.05167674186911e-05
1.2182029711778e-05
1.35809503275098e-05
1.46541251914114e-05
1.52406256046931e-05
1.62242193175595e-05
2.06871723725477e-05
3.12736593617162e-05
4.35867900358665e-05
5.68838922906486e-05
7.0676683548696e-05
8.4796486644572e-05
9.90315619300764e-05
0.000113357042211642
0.000127689857881246
0.000142007443146457
0.0001562545770058
0.000170396079825259
0.000184386565559453
0.000198201280127758
0.000211827986425308
0.000225283597841093
0.000238544372097965
0.000251309118997529
0.000263414137380523
0.000274794769730026
0.000285392837318818
0.000295157309750021
0.000304048047898598
0.000312034729513192
0.000319104534432444
0.000325260509379007
0.000330515311161682
0.000334888880501446
0.000338406447364686
0.00034109829557709
0.000342999586685456
0.00034414698114448
0.000344579306184486
0.000344331111745706
0.000343438682288629
0.000341948719409385
0.000339911711214506
0.000337383496984863
0.000334415471480778
0.00033106262478291
0.000327371394628299
0.000323388128755508
0.000319135113410297
0.000314634448827683
0.00030990469020464
0.000304978769870816
0.000299901739455162
0.000294705020873478
0.000289395568038305
0.000283994425383706
0.000278500876866895
0.000272927663271237
0.00026728951161489
0.000261591318370337
0.000255835208151403
0.000250021179549517
0.000244149133067421
0.000238218587987918
0.000232224859466418
0.000226158630933102
0.000220010755990417
0.000213764357710564
0.000207408576797551
0.000200912178191268
0.00019426188392293
0.000187398047421727
0.000180316352428879
0.000172898857999328
0.000165483025748451
0.000157892295446619
0.000150033956672075
0.000141500912947597
0.000132563458409956
0.000122369507066406
0.000111831564232437
9.90026464153593e-05
8.67161085866414e-05
6.93135325823487e-05
7.77639656287721e-05
0.000110339354881579
0.000152211883289142
0.000201699735732725
0.000261764414251667
0.000332240498543712
0.000395878429515876
0.000447925803965407
0.000483942948529181
0.000498873865963682
0.000519755110994563
0.000562599660300413
0.000638643153142209
0.000808241394795428
0.00106585230995442
0.00145101702946089
0.00194058217147766
0.00189255124901574
0.00118753621907461
0.000715706599681231
0.00052400257486876
0.00296461445940093
0.00208372343591392
0.000894003140511405
0.000220391950018501
0.000140532450035375
0.000125853936006156
5.67354388025328e-05
2.8670200396079e-05
1.83361374462432e-05
1.55357817707186e-05
1.69472099950127e-05
2.09127094797634e-05
2.75953480205189e-05
3.64224475729751e-05
4.67667863489501e-05
5.73941471680604e-05
6.66374617613897e-05
7.43557603953727e-05
8.02869184032474e-05
8.35724043824302e-05
8.93395117160368e-05
0.000114307266008273
0.000172407674554066
0.000240080447074378
0.000313098858676953
0.000388802433346041
0.000466258522755026
0.000544325330417537
0.000622853560923072
0.000701385814117142
0.000779784888530259
0.000857740903089809
0.000935050376784092
0.00101145814520244
0.00108682141313188
0.0011610698820056
0.00123429536574712
0.00130628394284186
0.00137499251158311
0.00143999471291383
0.00150095637238301
0.00155758067541749
0.00160961249346651
0.00165685620825772
0.00169917225527402
0.0017365143055272
0.00176891843148188
0.00179647024793103
0.00181929225997166
0.00183753358384251
0.00185136849962299
0.00186099468904938
0.00186661652941198
0.001868446810549
0.00186667535342047
0.00186150114687401
0.00185317537848974
0.00184196845866064
0.0018281763240449
0.00181207163966302
0.0017939436819951
0.00177403771109118
0.00175259565799539
0.00172973379786683
0.00170556921772599
0.00168019751743091
0.00165379102186542
0.00162658680194176
0.00159874811449821
0.0015703080707483
0.00154137850105677
0.00151195149024483
0.0014820932678269
0.00145187977119394
0.00142133524362623
0.00139046719145446
0.00135927526277762
0.00132775717502349
0.00129590876820967
0.0012637035683617
0.00123109110363505
0.00119801995636811
0.00116440052444374
0.00113017008142932
0.00109516573301842
0.00105930636651291
0.00102228510719267
0.000984054029992025
0.00094401090423283
0.00090371588050311
0.000862470105509041
0.000819736401609425
0.000773364335434404
0.00072471755222892
0.000669321902585537
0.000611877900187228
0.000542161267778852
0.000475065462857036
0.000381079878464668
0.000427321268360008
0.00060460546059104
0.000831875879164752
0.0011002544826998
0.00142526429700621
0.00180421129517183
0.00214802595639326
0.00243148626535142
0.00263081419975769
0.00272133391993347
0.00284288057225675
0.00308206328727947
0.00350470906030989
0.00442538720805178
0.00582092915440896
0.00788427544704933
0.0104616157787452
0.0103407896591386
0.0066126071091406
0.00398552768251896
0.00288662792513431
0.00725176760510891
0.00514672108253847
0.00222530822894988
0.000552238248892602
0.000338052017828859
0.00030411144012628
0.000139773518769362
7.05332105403594e-05
4.47955868250879e-05
3.76737007426949e-05
4.08477883104723e-05
5.02697144547248e-05
6.62871248975631e-05
8.75655250139474e-05
0.000112580244554481
0.000138349926169374
0.000160844106093049
0.000179350720295142
0.000193485135629445
0.000202137762354048
0.000219217628806523
0.000284219015287848
0.000426710372113908
0.000591623655278248
0.00076816593564036
0.000949847721832325
0.00113442075681232
0.00131925640321305
0.00150395023783603
0.00168743667350145
0.00186935576053922
0.00204899350282001
0.00222587589367768
0.00239944410114975
0.00256940440529886
0.00273566791088337
0.00289859647188122
0.00305416918745051
0.00320107471325472
0.00333882027814467
0.0034668808080878
0.00358481907895089
0.00369229287455806
0.00378908078181616
0.00387508165379049
0.00395037065846953
0.00401516784466469
0.00406977447058807
0.00411454728643768
0.00414988033799896
0.00417620205732223
0.0041939697572196
0.00420364245781495
0.00420567851146249
0.00420048625701317
0.00418848855685156
0.00417019677027637
0.00414615556412676
0.00411694852653783
0.00408311300458818
0.00404521082525867
0.00400372148569921
0.00395910710298916
0.00391158558227025
0.00386138973493384
0.00380868816189841
0.00375381077825492
0.00369722659911696
0.00363924447056285
0.00357990231861
0.00351943292665273
0.0034578435664501
0.00339516755228947
0.0033315531488496
0.00326705713574213
0.00320168135743213
0.00313540989639961
0.00306822255745641
0.00300009553313026
0.00293095908809826
0.0028606950424219
0.0027891734962584
0.0027161964278939
0.00264159731743302
0.00256503462944102
0.00248627365363702
0.00240469409190972
0.0023200573338894
0.0022311792978891
0.00213991055015105
0.00204600390018202
0.00194818986007933
0.00184200378545575
0.00172972864375288
0.00160218032328882
0.00146815560864894
0.00130653817335802
0.00114762353014544
0.000929890764653412
0.00103011037755253
0.00142330033745841
0.00192892084962357
0.00252724067207113
0.00325085006783257
0.00409270592010466
0.00488288688175641
0.00556207543404657
0.00607632483766088
0.00637228292706818
0.00671933881148682
0.00731574129633335
0.00832588352461822
0.0104029474930954
0.0135301136632106
0.0180212407438257
0.0234580710720685
0.0240870593174339
0.016738536142389
0.0104833710753817
0.00739808740337042
0.0134849987414206
0.00951984198686806
0.00415888934216991
0.00102135338925216
0.000579627779867052
0.000521841597674708
0.00024539535647521
0.000123944455353008
7.83329054361679e-05
6.55253628231544e-05
7.06774511554861e-05
8.68181512611476e-05
0.000114382164639928
0.00015104386911546
0.000193989367373738
0.000237986895411194
0.000276386688540288
0.000307958002064292
0.000332248632350669
0.000352004376981553
0.000392298560772341
0.000517028497268963
0.00075948976061707
0.00102936859253657
0.00130775724184028
0.00158483824196152
0.00185826064608756
0.00212516833972582
0.00238564254810386
0.00263890579857916
0.00288497172141021
0.00312344899907764
0.00335417714805078
0.00357692242719238
0.00379176933827354
0.00399916543730299
0.00419553369767463
0.00437897324703623
0.00455021989161078
0.00470908153874873
0.00485539806416699
0.00498907396992613
0.00511008778832427
0.00521851004030582
0.00531451485419401
0.00539841375295694
0.00547062085741397
0.00553159779210607
0.00558183071535556
0.00562181849238928
0.00565207167638245
0.00567310729914642
0.00568543154985093
0.00568953188246801
0.00568584598320327
0.00567482315753673
0.00565698429869026
0.00563288279459592
0.00560310111080332
0.00556817765566936
0.00552866933963946
0.00548505924889882
0.00543780104111916
0.00538711045468937
0.00533324812388245
0.00527635865669415
0.00521676900833861
0.00515497297278681
0.00509127760133245
0.00502590838548533
0.00495876215062437
0.0048898943849549
0.00481937208785234
0.00474732309529703
0.00467379435786766
0.00459876679880632
0.00452219528963702
0.00444402636262028
0.00436419995052513
0.00428260376169827
0.00419907052194663
0.00411339878590972
0.00402532520458238
0.00393457457733036
0.00384072704129367
0.00374336477286405
0.00364177260402302
0.00353537367764842
0.00342288108467383
0.00330386852329069
0.00317967060413145
0.00304848088721639
0.00290555154178814
0.00275124135558506
0.00257596541687271
0.002385248222095
0.00215621045815899
0.001917729188313
0.00159824167354304
0.00171605170562658
0.00222750435146163
0.00290201401049929
0.00370798043042262
0.00468732320335232
0.0058333212909914
0.00697902111007939
0.00804306503256521
0.00895244520180913
0.00964162446842329
0.0103852865051237
0.0114473374369279
0.013080747715041
0.0160645087809617
0.020397856521311
0.0261858090766296
0.0325409810263443
0.034022698707853
0.0273135486093787
0.0197059325752595
0.0146165534139496
0.0212369826005513
0.0152486095118894
0.00694298331486186
0.00169704387406559
0.000843999131487488
0.000753469885264704
0.000364699204796364
0.000184994453127585
0.000116691533930485
9.73367077352591e-05
0.000104579481900003
0.000128297226737238
0.000168617668096761
0.000221718074808982
0.000282750160914784
0.000343816138398208
0.00039646574404419
0.000440554316252008
0.000477461239063637
0.000517791521663012
0.000596497612124942
0.000783693764125403
0.00108647898377066
0.00139980931479317
0.00170375639700292
0.00199280897480128
0.00226848498336399
0.00253095268599906
0.00278178559555584
0.0030217653708082
0.00325166530864267
0.00347195671980106
0.00368298523932168
0.00388503803155003
0.00407858875136472
0.00426207443201403
0.00443300121309609
0.00459270608130196
0.00474140834763476
0.00487910493727256
0.00500581033374256
0.00512156921392062
0.00522647180880685
0.00532066476317072
0.00540437053715876
0.00547789389921838
0.00554160166767549
0.00559588969185194
0.00564116564574659
0.00567784347865517
0.00570634144907651
0.00572707774767466
0.00574046391340678
0.00574689452823971
0.00574673756011029
0.00574037068172617
0.00572821387483885
0.00571071391645234
0.00568833377683067
0.00566150474335982
0.00563066759326833
0.00559621398584794
0.0055585030549253
0.00551772716824641
0.00547414457971123
0.00542786804200113
0.00537915745495563
0.00532866261520014
0.00527635512646202
0.00522236380208131
0.00516670470318416
0.00510942932700939
0.00505060146740029
0.0049903121883186
0.0049286052663306
0.00486546982706731
0.00480086762372073
0.00473474965067231
0.0046670584821953
0.00459769602594462
0.00452652225141304
0.00445335222919785
0.00437796884242066
0.00430010322570586
0.00421943179697968
0.00413552152435451
0.0040478637270714
0.00395576026278792
0.00385839888279248
0.00375390480104028
0.00364367734763193
0.00352611058624015
0.0033988737070526
0.00325863200700766
0.00310148775422481
0.00292273744816636
0.00271234939348449
0.00247306682706233
0.00216743519670097
0.002232236414374
0.00265711226256369
0.00326986880084797
0.00402961833791343
0.0049670182733713
0.00607324872349558
0.00724725781068726
0.00842195040707455
0.00953819410124831
0.0105653591020531
0.0116834248694372
0.0131106772528001
0.0151154295485005
0.0182433630647917
0.0224807134674351
0.02754577186507
0.0323443721684189
0.0334000699698412
0.0310493010045093
0.0273134979512256
0.0232830846090623
0.0273505877488918
0.0210246059154445
0.0106373545233269
0.00270710939601694
0.00111833209698675
0.000970292889985242
0.000488299917593332
0.000250117475948661
0.000158138551580936
0.000131929577403545
0.000141330947716193
0.000172983882919352
0.000225736672414145
0.000293144804873767
0.000367148961014385
0.000437375801376928
0.000496198180874859
0.000547316823568336
0.000598132897603404
0.000665453502589373
0.000786128952429483
0.00100570594332938
0.00129045941055319
0.00157669935487405
0.00184445788659393
0.0020967097357719
0.00233525489209414
0.00256234724905452
0.00277886718537277
0.00298613367388305
0.00318455608035425
0.00337473197059135
0.00355686767961698
0.00373125344574058
0.00389774464203123
0.00405369450936299
0.00419985155072773
0.00433665867676948
0.00446417579541956
0.00458239336740873
0.00469132390020375
0.0047910062436216
0.00488152027575987
0.0049629921112544
0.00503561129668971
0.00509962370986763
0.00515532264567619
0.00520302712377781
0.00524306698880231
0.00527577944045038
0.00530150560145381
0.00532058707447653
0.00533336407553313
0.00534016601732822
0.00534131092756496
0.0053371240665681
0.0053279562696066
0.00531418050384389
0.00529617984159465
0.00527431237609427
0.00524894174215624
0.00522039659829084
0.00518897528039896
0.00515485686946224
0.00511829619002275
0.00507938923492936
0.00503861037068715
0.00499614753131803
0.00495206949648123
0.00490650120216926
0.00485949646044505
0.00481111141629065
0.00476141359809515
0.00471048105636578
0.00465836560107793
0.00460507716742155
0.00455060080541851
0.0044949112852834
0.0044379757498872
0.0043797327864656
0.00432009246530618
0.00425892269599709
0.00419608056615139
0.00413136263777655
0.00406456845413598
0.00399535391425617
0.00392343512717482
0.00384820375082204
0.00376930974992105
0.00368513719086832
0.00359603304113084
0.00350135014260866
0.00340093871340518
0.00328966241074432
0.00316923405538733
0.00302833776009749
0.00287184915926157
0.0026779569219854
0.00246302690080497
0.00245968692165745
0.00273405173741035
0.00320453746954075
0.0038238967412722
0.00460185963954714
0.00552161806253122
0.00652796799011083
0.0075761280642551
0.00862878468068154
0.00969542144759073
0.0108874551356178
0.0123428723516644
0.014300476370497
0.0169972664885738
0.0204126716916069
0.0241252598799645
0.0272882509728534
0.0278461880341612
0.0281254097947397
0.0294789443487183
0.0290482810177689
0.029474672859485
0.0249915982260723
0.0147596367708155
0.0042105284804891
0.00140509186349943
0.00113670286480026
0.000602925235469197
0.000314373656174881
0.000200377712097318
0.000167712870418704
0.000179102398338712
0.000217902167085844
0.000280026940492524
0.000355056329219664
0.000431459989017627
0.000498950087125047
0.000554977533848253
0.000608647769026588
0.000672629530051
0.000766083576547194
0.000916305719575306
0.00113474684070174
0.00136557625960331
0.00161389730468785
0.00184225714734494
0.0020618210817107
0.00226951855842557
0.00246907227764317
0.00265969164190917
0.00284291508086479
0.00301858414061881
0.00318726898055582
0.00334897552776184
0.00350399301994519
0.00365067268790879
0.0037885361464166
0.00391806686940123
0.0040394393578213
0.00415264804956397
0.00425767071753157
0.0043545095631646
0.00444319309525857
0.0045237887669661
0.00459640524806504
0.00466120555815067
0.00471839559969121
0.00476822229610766
0.00481095705477181
0.0048468820507598
0.00487628744431268
0.00489946723730184
0.00491671683477725
0.00492833314291387
0.00493460704586895
0.00493582546008595
0.00493227985437512
0.00492427842077517
0.00491214788099736
0.0048962226126251
0.00487681471408562
0.0048542407040905
0.00482878907005917
0.00480072162460786
0.00477020673209092
0.00473749328720985
0.00470282719801226
0.00466645773732601
0.00462852292733597
0.00458912678037052
0.00454839087411429
0.00450638520664988
0.00446317034464894
0.00441881631099275
0.00437339627554846
0.00432696782426651
0.00427955561604057
0.00423116208907716
0.00418178031741055
0.0041313968189913
0.00407997745627736
0.00402746795698335
0.00397377748887889
0.00391881452071634
0.00386243080979194
0.00380450559259241
0.00374477748153113
0.00368309854204193
0.00361897594040145
0.00355231869824171
0.00348187186803863
0.00340765276659993
0.00332928433134646
0.00324793253252427
0.00315818206708984
0.00306476945211319
0.00295409498802205
0.00284047643116624
0.00268831564223492
0.00255758495297221
0.00251859666751913
0.00268359143252318
0.00303623949819738
0.00353153909257863
0.00416438321421702
0.00491139087035178
0.00573845281897043
0.00661552685461764
0.00751846833898349
0.00847435107975217
0.00956081527938611
0.0108555997738759
0.0125614462095669
0.0147345928550527
0.0173651829199931
0.0200838126879613
0.0223243913869425
0.0227859967175364
0.0235085446263979
0.0273766465460034
0.0301990441481934
0.0283888095137024
0.026340067725742
0.0185744683196621
0.00631013300232158
0.00172517271794315
0.00122493262427645
0.000692491044596515
0.000371165586282774
0.000240120331548481
0.000202205127566656
0.000214904399576761
0.00025840966077697
0.000324114273889513
0.000397714282410627
0.000466680805598884
0.00052496274197745
0.000576650483546444
0.000633698549366233
0.000710130054504438
0.000822828036328742
0.000987124924613623
0.00118932883991415
0.00137407586188117
0.00159751163583072
0.00179801145063262
0.0019961798525727
0.00218307807910822
0.00236422293434339
0.0025373511212587
0.00270427140755743
0.00286442188665342
0.00301837033653674
0.00316599173294773
0.00330721227561237
0.00344044380276793
0.00356597972177159
0.0036840424539234
0.00379469839510204
0.00389791738911109
0.00399367423998979
0.00408196783143682
0.00416282287743311
0.00423630072523737
0.00430250019251151
0.00436156713615478
0.00441368249378786
0.00445906480035388
0.00449795616476897
0.00453060930274449
0.0045572849948802
0.00457824768394689
0.00459376388540701
0.00460410318832837
0.00460953260156267
0.00461031869917559
0.00460673026546058
0.00459904774662484
0.00458756729135884
0.0045725917889261
0.00455440266144349
0.00453328572244437
0.00450950225611249
0.00448329048608413
0.00445480914174334
0.00442438312527223
0.00439220790610657
0.00435843029943382
0.00432319311026764
0.00428661100871315
0.00424880259963106
0.00420984568667856
0.00416980377637729
0.0041287477746164
0.00408674845224306
0.00404386652131944
0.00400013574273018
0.00395556984897716
0.0039101740163277
0.00386394774929977
0.00381687487757924
0.00376892404209861
0.00372003266451632
0.00367014166093272
0.00361914228166855
0.0035669614194841
0.00351339992034663
0.00345838566910633
0.00340152425180359
0.00334285361721182
0.00328137273808766
0.00321713962539855
0.00314969212875029
0.00308090452744747
0.00300569417854492
0.00293006141069812
0.00284020180975273
0.00275532929628617
0.00263314214337577
0.00256130866342238
0.00251427967461717
0.00261321524532871
0.00288192560587432
0.00328375872215052
0.00380591185669317
0.0044214435513865
0.00510593265410841
0.00583838723465264
0.00660207233881838
0.00742809398582629
0.0083767700796908
0.0094891055583741
0.0109360207254139
0.0126955278258378
0.014770839938145
0.0168782288099392
0.018627245193872
0.0191276865963164
0.0196733740570727
0.0237571890424578
0.0283329152321227
0.0257630728145248
0.0253773540604328
0.021512711330115
0.00893974758358178
0.00215279281973119
0.00124166777902822
0.000745090794974378
0.000414010469812236
0.000273558691023549
0.000232318485049764
0.000245196860221963
0.00028993379798736
0.000353173144455247
0.00041902481932494
0.000477367243420976
0.000527807579494553
0.00057845821669494
0.000640860712535029
0.000727839528039142
0.00085234091365898
0.00102019202650736
0.00120411123197327
0.00136024036473274
0.00156876104411443
0.00175041167723393
0.00193450420443672
0.00210716914614058
0.00227563874879374
0.00243657129990021
0.00259202076028153
0.00274117713446493
0.00288461264903756
0.0030221581395901
0.00315321863981641
0.00327693062063774
0.00339362055052251
0.00350339077067491
0.00360625653704107
0.00370217930770629
0.00379113480442594
0.00387312167277435
0.00394816365639202
0.00401631898571047
0.00407768045736336
0.00413238221157799
0.00418058873438655
0.00422250021431273
0.00425833978590297
0.00428834103206012
0.00431274551313608
0.00433179829782313
0.00434574702900684
0.00435484338391358
0.00435933903020831
0.00435948686029239
0.00435554005636089
0.00434776035935479
0.00433642295305707
0.00432180957441031
0.00430418032560513
0.00428380013708777
0.00426091113755224
0.00423573561995287
0.00420845447792608
0.00417943213610046
0.00414875760800123
0.0041165711364356
0.00408301388697237
0.00404820439115813
0.00401225898183618
0.00397525962116046
0.00393727186944625
0.00389836683077911
0.0038586140664423
0.00381807607790993
0.0037767924378348
0.00373478442143364
0.0036920654336115
0.00364864394158264
0.00360451601219967
0.0035596654995188
0.00351404960366123
0.00346763047584204
0.00342032798700397
0.00337209865183859
0.00332278999073089
0.00327237326906666
0.00322053391169971
0.00316737168294771
0.00311208641990576
0.00305482825040127
0.00299499456674717
0.00293481857592259
0.00286974799897194
0.00280612623169122
0.00273082765554978
0.00266521428458176
0.00256439971120611
0.00253095828052682
0.00248989741375483
0.00255092555441234
0.00276077427068916
0.00309315351569747
0.00353221788623555
0.0040497338494559
0.00462631503481807
0.00524689102765053
0.00589941915940255
0.0066138420553066
0.00744041267681448
0.00839926010115017
0.00963541374036901
0.0110990782410776
0.012803491863015
0.0145318492481254
0.0159923040945258
0.0165287921808924
0.0168970013552236
0.0202646275598771
0.0253421768137176
0.0230149375975409
0.0229114971599707
0.023308073513861
0.0118571429018152
0.00279062662883385
0.00123244441289592
0.000761644882744876
0.000440104632280024
0.000298005412136313
0.000255651846974678
0.000267634513015224
0.000310623040192953
0.000367833883848119
0.000424498259366003
0.000474289344803555
0.000520892306637944
0.000573457471439371
0.000641800366277571
0.000736812866199493
0.000867619943256697
0.00103356951272754
0.00120191079531142
0.0013427757860443
0.00154125030671562
0.00170997130931706
0.00188427667863404
0.00204687862824117
0.00220627743138193
0.0023584328327796
0.00250555399932491
0.00264669506905677
0.00278241824400129
0.00291250549334753
0.00303603777945514
0.00315277973283734
0.00326294102971326
0.00336655809372834
0.00346361906692563
0.00355408311559072
0.00363792762621122
0.00371515177438523
0.00378577910706514
0.00384986592083023
0.00390750088344562
0.00395880968154685
0.004003945449739
0.00404309610063825
0.00407647215410013
0.00410429448788262
0.00412679187299781
0.00414419650172915
0.00415674354408168
0.0041646728662362
0.0041682263352301
0.00416764774908259
0.0041631796270007
0.00415507105053102
0.00414358269258128
0.0041289820009714
0.00411151399664524
0.00409142922174371
0.00406895609426095
0.00404430575062262
0.00401773754309739
0.00398951788105082
0.00395972762135489
0.00392850249360161
0.00389598092946447
0.00386228331430401
0.00382752453021308
0.00379178903213432
0.00375514401518966
0.0037176606490106
0.00367940808423009
0.00364045007666957
0.00360083016428211
0.00356057494083146
0.00351970373057998
0.00347823156769642
0.00343616333000227
0.00339349350326028
0.00335019371895503
0.0033062407738911
0.00326157604693688
0.00321617551751791
0.00316992263533392
0.00312281450119656
0.00307460149946517
0.00302541106402058
0.00297460643920459
0.00292243390193763
0.00286813187341804
0.00281412719331166
0.00275643070829102
0.00270126565738903
0.00263655891032513
0.0025841977129051
0.00249926821760287
0.00249022373272098
0.00246064302688789
0.0025008519890824
0.00266911574732233
0.00294913163210241
0.0033246881474225
0.00376774592542624
0.0042620323979887
0.00479663164670706
0.0053627829768977
0.00598761965084983
0.00671471478878037
0.00755275766671485
0.00862617176712924
0.00987936493556411
0.0113327896789176
0.0128133194510634
0.0140854032790714
0.0146297937249507
0.0148954056447049
0.0174375873174338
0.0222359558320366
0.0206805640395103
0.019828624179603
0.0239462014671896
0.014723881061089
0.00372880933980318
0.00125247798757703
0.000755936929438915
0.000452308036514282
0.000313503316035864
0.00027180222864841
0.0002822878629146
0.000321952956249973
0.000372410226853056
0.00042146600137452
0.000466067898122807
0.000511946981799903
0.000567772559058777
0.000641578630536562
0.000742321182758169
0.000875931531350861
0.00103762221357461
0.00119403582041722
0.00132782154456188
0.0015185239742911
0.00167835469016501
0.00184555249288671
0.00200094217403651
0.00215372505104181
0.00229949084539967
0.00244049790822725
0.00257574478294696
0.00270576575539167
0.00283021708267178
0.00294822689304834
0.00305981309330498
0.0031651175146036
0.00326413669365188
0.003356842851323
0.00344319490101931
0.003523171520967
0.00359677230251745
0.00366402059323509
0.00372497122561888
0.0037797098057447
0.00382835574991142
0.00387105419190391
0.00390798481896668
0.00393934985553883
0.00396536187413888
0.00398624132236286
0.00400221204763264
0.00401350121587125
0.00402034119376886
0.00402296799025706
0.00402161974339933
0.00401653200900844
0.00400794558137067
0.00399611128135805
0.0039812872059481
0.00396370773767673
0.00394361367307642
0.00392122363920262
0.00389677131778366
0.00387053541839641
0.00384270163343505
0.00381336503105496
0.00378265832935574
0.00375071765181865
0.00371766481197459
0.00368361405567446
0.00364865158010967
0.0036128460578843
0.00357626885434255
0.00353898933313695
0.00350107237162716
0.00346256441942941
0.00342349602921337
0.00338389102823453
0.00334376955564808
0.0033031431753438
0.00326201416577203
0.00322036508453087
0.00317818332652756
0.00313542697667439
0.00309208549983848
0.00304807070330068
0.00300339566206554
0.00295786413349987
0.00291161367300779
0.00286414142118402
0.00281576396162222
0.00276561975973724
0.00271618641563325
0.00266402874474293
0.00261502120557295
0.00255829019182919
0.00251526686365231
0.00244267461420808
0.0024487643112293
0.00243188395800328
0.00246161961754667
0.00260029705226829
0.0028401537219358
0.00316604543220126
0.00355108988956202
0.00398134143911922
0.00444896775363302
0.00494761685574305
0.00550126107263119
0.0061485121431186
0.00689209373331571
0.00784013929399731
0.0089405534591697
0.0102190746222763
0.0115282541025152
0.0126663191245413
0.013195276539655
0.013402869380328
0.0152886422615028
0.0193952162105789
0.0188050024517705
0.0168027322765908
0.0235748173160609
0.0172320322550004
0.00498131397676633
0.00134447124459705
0.000745807343009309
0.000456945329453677
0.000322589070774213
0.000282286644484973
0.000291082783795663
0.000327020245072811
0.00037155740415486
0.000415278690254086
0.000457339073409358
0.000504189019826343
0.000563547535942274
0.000641953779482646
0.00074661206854986
0.000880927234805512
0.00103764562781357
0.00118549593561337
0.00131683567112484
0.00150104472851824
0.00165489002184141
0.00181682432534462
0.00196709548300787
0.00211506927557195
0.00225623251078603
0.00239279611503347
0.00252376019977207
0.00264962280029435
0.0027698806223295
0.00288386411466401
0.00299167256115445
0.00309340068777051
0.0031890189169899
0.00327848900140157
0.00336176996989604
0.0034388410895868
0.00350970195610182
0.00357437545247064
0.0036329151524752
0.00368540430924571
0.00373195768730673
0.003772714813054
0.00380785009689849
0.00383756065677204
0.00386205402217776
0.00388154566817164
0.00389625450158593
0.00390640304319114
0.00391221943041899
0.00391393683728707
0.00391179048778535
0.00390601191386541
0.00389683699498326
0.00388451026330974
0.00386928426249266
0.00385138606285757
0.00383105025084512
0.00380849471511662
0.00378399735239272
0.00375778438765175
0.00373001981564439
0.00370080816024361
0.00367028054813642
0.00363857166949074
0.00360580493318758
0.00357209471127711
0.00353752865093797
0.00350217688935274
0.00346611123812902
0.00342940179709802
0.00339211463049736
0.00335429848871239
0.00331598702049487
0.00327720765648043
0.00323798471883249
0.00319833508250238
0.00315826697694901
0.00311777148060027
0.00307684397898931
0.00303545588223088
0.00299360645734757
0.00295123033503666
0.00290835082252437
0.00286481589846701
0.00282076430277902
0.00277580325111199
0.00273027113583181
0.00268333546807625
0.00263736042853577
0.00258945312200885
0.0025450341311726
0.00249446543742212
0.00245812371662068
0.00239545096766682
0.00241055230340227
0.00240559296003771
0.00243111551688944
0.00254869942893748
0.00275731370283491
0.0030435559952649
0.0033823324630712
0.00376173318523324
0.00417630965045414
0.00462149163255234
0.00511818359263515
0.00570101475853752
0.00636994555230458
0.00722031837309717
0.00820725535117507
0.00936029031352588
0.0105447993196992
0.0115806473621395
0.012078873100922
0.0122473949536961
0.0136719491268562
0.0169415199723714
0.0172594521823531
0.0142303564963827
0.0224470857300402
0.0191842081913776
0.00655348713616841
0.00154269531747376
0.000746391537527594
0.000460229736545234
0.000328580590584787
0.000289347477814094
0.00029639620632278
0.000328756698064864
0.000368597483848759
0.00040886867833873
0.000450033866728185
0.000498582320442381
0.000561248552181493
0.00064336261460129
0.000750594581790268
0.000884413841907091
0.0010362868277076
0.00117835128077267
0.00130977110346799