/*--------------------------------*- C++ -*----------------------------------*\
  =========                 |
  \\      /  F ield         | OpenFOAM: The Open Source CFD Toolbox
   \\    /   O peration     | Website:  https://openfoam.org
    \\  /    A nd           | Version:  7
     \\/     M anipulation  |
\*---------------------------------------------------------------------------*/
FoamFile
{
    version     2.0;
    format      ascii;
    class       volTensorField;
    location    "20000";
    object      gradU;
}
// * * * * * * * * * * * * * * * * * * * * * * * * * * * * * * * * * * * * * //

dimensions      [0 0 -1 0 0 0 0];

internalField   nonuniform List<tensor> 
15600
(
(0.0280307963439277 -0.00578354007649354 -1.98645964618624e-21 8.9205580478536 -0.0572352231970882 2.35704799366635e-22 -6.09893874968602e-22 2.4893797342534e-23 -3.8213177067881e-43)
(0.560087019977811 -0.0349297952540978 4.90592176955782e-23 9.46883637814759 -0.542048504325799 2.22550421261984e-21 2.36438379723021e-23 1.28640222738407e-23 4.64157092189248e-43)
(-0.0397843006715266 0.0405352165660322 -2.36124976694977e-21 0.48149722087583 -0.00151832282064882 -9.91348862660201e-21 5.94707083560874e-22 -3.83030116614905e-23 -8.322517530911e-44)
(-3.19642213786855 1.57167684945651 2.60838443176687e-21 -6.4255220304812 3.13033623220565 5.45503541173068e-21 5.78818970986462e-22 -3.14649359219345e-22 1.96091036586259e-44)
(-3.47938865144877 2.31939601281373 -1.27616067591037e-17 -5.18225326880214 3.42303400958289 8.34205457403497e-20 -5.9530000725797e-22 3.23608546395368e-22 -2.01674446336959e-44)
(-2.47017659097674 1.91355487180397 8.69874011278164e-17 -3.16481579242059 2.43864463997991 1.10894499266393e-16 0 0 0)
(-1.86356605747421 1.54171655944189 1.25924996029369e-17 -2.22576786936071 1.83763299630196 -2.49456887075421e-19 -1.66806242129737e-21 1.36344743989585e-21 2.20797344446284e-42)
(-1.29391579432825 1.07999714330164 2.76003447417589e-20 -1.53635054061769 1.28203508262548 3.01525513431504e-20 1.56655329878558e-21 -1.28047551303766e-21 -2.07360830079966e-42)
(-0.966097582972808 0.785562013246959 -3.55678462131209e-16 -1.17924329681055 0.959625495491425 -3.84710747943478e-16 0 0 0)
(-0.793680318761252 0.633066233857632 -4.48591260039432e-16 -0.992789625983338 0.792433978143113 -5.31458683576879e-16 -1.31348072847562e-17 1.04837041179968e-17 -7.0537919305562e-33)
(-0.755734822295466 0.594049690297733 1.36315083774138e-16 -0.960814153173417 0.755684275423579 1.28773947198329e-16 0 0 0)
(-0.797758676854388 0.622273908780762 1.83957235505484e-17 -1.02428027023304 0.799477107947565 -1.64159323136625e-18 0 0 0)
(-0.895518268458044 0.690781777379296 2.19040962013301e-17 -1.16014166024612 0.896144511555034 -2.52060516407469e-18 -8.04052126590363e-21 6.07524108250651e-21 3.61693473831191e-36)
(-0.968718114585098 0.723042671764645 2.10764636596385e-16 -1.29424866626745 0.968825574722518 2.82334608182612e-16 7.63817413192648e-21 -5.77123643443323e-21 -3.43594357149374e-36)
(-0.992811585665012 0.693346750315263 3.24200341128539e-16 -1.41347803459863 0.992090376747182 4.22918340278374e-16 0 0 0)
(-0.928858611668897 0.5821068753049 3.8435864112774e-16 -1.4690889885395 0.928292571599843 6.04899060260842e-16 1.79342896029565e-17 -1.13266296744787e-17 -7.38751820584355e-33)
(-0.787979688871817 0.418867856568211 -2.06676372159276e-17 -1.46456796695449 0.789034128724073 1.33232780633488e-18 -8.18601999063334e-21 4.03070224620456e-21 3.72736781973331e-36)
(-0.61050172605685 0.258940091455398 1.46261696059755e-16 -1.41399092261812 0.613007038912885 3.33854679361088e-16 1.59194938444384e-17 -6.89547952552862e-18 -3.76278339455681e-33)
(-0.422928195213295 0.131100557402862 -2.50303191017212e-17 -1.32133474592758 0.426488288840701 2.65298238238921e-18 0 0 0)
(-0.24416585374687 0.0456659302548067 1.05753208979055e-19 -1.19560492625619 0.247984698205179 5.04921210898397e-19 0 0 0)
(-0.114612036888785 0.00628027649785738 -2.48323796071632e-19 -1.13828629113987 0.1137546966196 -4.90885244836274e-19 0 0 0)
(-0.04445685416102 -0.00118034401057327 4.75850609113988e-21 -1.88312024595537 0.0517033508212382 1.14769706975883e-18 -1.52114794153425e-19 4.15771019372415e-21 9.25827753502216e-38)
(-0.0400901184531008 -3.98269952491058e-05 2.01916613907175e-19 -3.01714831427011 0.0418625666282294 -1.94738824551759e-20 0 0 0)
(-0.0329622464958631 0.000107214930405268 0 -3.85533852487527 0.0380257740295551 0 0 0 0)
(-0.0290253909612949 7.59762514813343e-05 0 -4.6222308332751 0.03329984929257 0 0 0 0)
(-0.024229479248942 6.75548677377145e-05 -1.41385774895622e-15 -5.2410614838567 0.0294259081764467 1.22006094845403e-16 0 0 0)
(-0.0205649527973888 5.20400054155188e-05 -1.47124234724085e-15 -5.76666131057847 0.0258611487048714 7.21326067856385e-15 -3.16606639630402e-15 1.42084653693612e-17 4.04031260075232e-30)
(-0.0173206148496483 4.39909207877453e-05 1.41385774895616e-15 -6.2013299656279 0.0230600892975982 6.42596392802918e-15 -3.426704216029e-15 1.27383437800993e-17 3.47321316264478e-30)
(-0.0146789413616352 3.42149650211929e-05 1.47124234724096e-15 -6.56721376221803 0.0206341130947546 -1.18975431649965e-16 0 0 0)
(-0.0123728521829675 2.63355603282553e-05 3.04150545495587e-20 -6.87174412406897 0.0185913809678244 -5.14054042359996e-19 0 0 0)
(-0.0103642480247196 1.81295957929687e-05 -1.75299241963142e-15 -7.12456735422481 0.0167500778933251 1.29441213734527e-16 3.88028610142965e-20 -1.23716208672778e-22 2.37274249292949e-34)
(-0.00854555301390567 1.06070184808805e-05 -1.84894394505962e-15 -7.33055429938121 0.0150778738938789 8.22121833387693e-15 -4.18441095439712e-15 8.59310786903066e-18 4.77979666533296e-30)
(-0.00687825695612576 3.20884205016679e-06 1.75299241963124e-15 -7.49432781752364 0.0134958571917231 7.61679698035981e-15 -4.30203332543006e-15 7.76218417495624e-18 4.28790622151302e-30)
(-0.00531681237517053 -3.76781380038962e-06 1.84891353000518e-15 -7.61877016016203 0.0119845602928093 -1.27920345344808e-16 0 0 0)
(-0.003838640965573 -1.05192938400815e-05 1.89117883148796e-20 -7.70637979152827 0.0105086243639224 6.21420557948041e-19 0 0 0)
(-0.00242898429863547 -1.67970431935982e-05 -1.89090062303518e-20 -7.75896558799957 0.00906187135097774 2.59753443478244e-19 2.12292971863779e-20 -6.06894193884225e-23 -1.88286173894263e-43)
(-0.00108670200902981 -2.26799300756864e-05 -1.89117883145857e-20 -7.77834561478878 0.00764056609114711 -2.57411632761682e-19 -2.12292971863784e-20 6.06894193884237e-23 1.88286173894267e-43)
(0.000191721234689853 -2.81025897636424e-05 2.29747685647728e-15 -7.76624059976028 0.00624395839427055 -1.28283523973886e-16 5.69435212468993e-31 -4.57588640573189e-34 9.24921213422047e-62)
(0.00140758571629508 -3.29241447428641e-05 2.41687796337211e-15 -7.72427936871807 0.00487484298229234 -1.03034172472329e-14 4.24468197786756e-15 -2.65897242775752e-18 5.74523670706454e-30)
(0.00256033772407996 -3.71239883796778e-05 -2.29748138857311e-15 -7.65409791946134 0.00353795535085446 -9.88133542436039e-15 4.22434880184146e-15 -1.97026060885478e-18 5.37509956969412e-30)
(0.00364876058337138 -4.07646605125609e-05 -2.41687891657122e-15 -7.55733298544029 0.00223756882445373 1.21940618954517e-16 -2.07743851322925e-20 4.97529568199823e-23 -1.65095978072993e-39)
(0.0046707071659599 -4.38236827192433e-05 7.3232513978774e-20 -7.435643739152 0.000978521370702762 4.05154825938018e-19 3.16104551489409e-22 -2.96590325155758e-24 4.95623685304667e-39)
(0.0056233911253807 -4.63082928344363e-05 -2.44381656116327e-20 -7.29074088945661 -0.000232348846389425 6.81904640450017e-19 4.05359807770106e-20 -9.04400502121511e-23 -4.95662571251115e-39)
(0.00650361290497794 -4.82061958658278e-05 -4.97914118236173e-20 -7.12438749310893 -0.00138970522547148 -3.45055680408336e-19 -2.00777001962102e-20 4.36529966437324e-23 1.65134864019491e-39)
(0.00730697244724249 -4.94837379904943e-05 2.53913647793435e-20 -6.93841878289261 -0.00248484043503059 -1.03110506549566e-21 0 0 0)
(0.00803059456004264 -5.01991670826228e-05 -3.26706987136003e-15 -6.73475992938543 -0.00351124819227865 1.16086936744104e-16 0 0 0)
(0.00867489219939394 -5.04219438567053e-05 -3.39503176929333e-15 -6.51533210616049 -0.00446625566129896 1.49873584966952e-14 -3.72416046851203e-15 -2.56687279986696e-18 8.64630574982498e-30)
(0.00924176794232412 -5.02094738145656e-05 3.26706987135997e-15 -6.28200928947227 -0.00534867901516759 1.4893670340039e-14 -3.60067858342836e-15 -3.05497146755089e-18 8.46661313053666e-30)
(0.00973376999927807 -4.9613164288979e-05 3.39503176929379e-15 -6.03660232702278 -0.00615849961553832 -1.03668179154684e-16 0 0 0)
(0.0101535290995661 -4.86702452875878e-05 -1.21790138315143e-33 -5.78085138742942 -0.00689592758996782 -5.80764243646678e-19 0 0 0)
(0.0105040132506164 -4.74359447166145e-05 -1.23621417291058e-33 -5.51643075551189 -0.00756144255262527 2.95913422107516e-19 0 0 0)
(0.0107885655732165 -4.59498467135364e-05 -3.77531083216596e-15 -5.24493073339408 -0.0081569446762833 7.69687912856653e-17 0 0 0)
(0.0110107713307611 -4.42652464708674e-05 -3.88539646330982e-15 -4.9678609803153 -0.00868363626608508 1.83967330163931e-14 -2.73375678977527e-15 -4.78501996028137e-18 1.01747825133647e-29)
(0.0111746491707532 -4.24336831075837e-05 3.77531083216608e-15 -4.68663819467324 -0.0091448372129006 1.86746587019578e-14 -2.58290793399228e-15 -5.03575203359432e-18 1.0252833839084e-29)
(0.0112824370586243 -4.04410121456349e-05 3.88538704213048e-15 -4.40259006054598 -0.00954175043694731 -5.91674164763087e-17 0 0 0)
(0.0113353793816784 -3.8326646454662e-05 4.61632887778624e-21 -4.11702890934326 -0.00987374197549612 -3.04970469554392e-19 -2.89194805541523e-21 6.65833259550874e-25 -8.12957813758792e-41)
(0.0113362651088575 -3.61398938828595e-05 1.42441981659009e-20 -3.83121207958986 -0.0101435422947408 2.40023139002643e-19 1.54187612749896e-21 -6.38651514793754e-25 1.61150410771434e-40)
(0.0112892552913389 -3.39367449432741e-05 -7.12730799984355e-21 -3.54631189170212 -0.0103536881779391 -2.67237684633784e-20 1.35007192791645e-21 -2.71817447571567e-26 -7.98546293955521e-41)
(0.011199196164011 -3.17501505761414e-05 -2.30885659429328e-21 -3.26338750743684 -0.0105098691267234 1.1396012992891e-20 -5.79912495385871e-22 -2.64256864446034e-25 1.34634485610216e-44)
(0.0110712423424964 -2.96169578371114e-05 2.51097912205727e-21 -2.98338533910594 -0.0106156637720217 8.21413994548679e-20 5.79912495385902e-22 2.64256864446048e-25 -1.34634485610223e-44)
(0.010910482331299 -2.7553417774101e-05 -2.51416206012602e-21 -2.70712625337295 -0.0106777854088034 0 0 0 0)
(0.0107218545997626 -2.55846454368715e-05 5.40157392760834e-21 -2.43532306625843 -0.0106995378490301 2.74187223032456e-23 0 0 0)
(0.0105105872697807 -2.37320101157306e-05 -5.40804734037676e-21 -2.16856953027901 -0.0106881067801349 7.38204731043638e-20 7.94243445841598e-22 1.42936862166976e-24 5.47635284974196e-44)
(0.0102783374459928 -2.19303201930146e-05 -5.40157392760795e-21 -1.90734974627736 -0.0106449962064401 -7.39912966401068e-20 -7.94243445841625e-22 -1.42936862166981e-24 -5.47635284974214e-44)
(0.0100240100379635 -2.01896012077075e-05 5.40804734037692e-21 -1.65219233156372 -0.0105691899925673 5.49031634905691e-23 0 0 0)
(0.00974851301817345 -1.85344111337601e-05 0 -1.4036279878469 -0.0104621862109946 0 0 0 0)
(0.00945425317781116 -1.69800662186111e-05 0 -1.16213567344934 -0.0103263554089107 0 0 0 0)
(0.00914491447861638 -1.5564579045615e-05 0 -0.928127657102273 -0.010166354950423 0 0 0 0)
(0.00882488653742873 -1.4354843508754e-05 -6.91238979126638e-31 -0.701911652491069 -0.00998799427623164 -1.57894725512658e-32 0 0 0)
(0.00849553404038356 -1.33185926572928e-05 1.97381530440825e-33 -0.483703658772846 -0.00979718189481483 4.72473503479552e-19 -3.54787848168663e-32 -7.18346249199668e-34 3.46462481782725e-50)
(0.0081565620815937 -1.23867802866308e-05 6.92234409156236e-31 -0.273755781430604 -0.00959370329640835 -4.74677323009625e-19 0 0 0)
(0.00780841942618615 -1.15398279470361e-05 5.39266623559988e-15 -0.0722989376169293 -0.00937573304099366 1.64241037861827e-16 0 0 0)
(0.00745207480871612 -1.07496200228879e-05 1.08748557204277e-14 0.12043732076459 -0.00914260440642042 -3.21744107679913e-14 -6.61331567085922e-17 5.04079475170632e-18 1.76295734598994e-29)
(0.00708943261866727 -9.99015298452729e-06 8.1524904244571e-17 0.304269723604509 -0.00889735480885332 -6.5848591991819e-14 -3.35035801403384e-16 9.80019722991826e-18 7.25612777210741e-29)
(0.00672082592518652 -9.30697335530936e-06 -1.0874906606028e-14 0.479054799003258 -0.00863915304200663 -3.38626322555889e-14 -2.63656091946513e-16 4.7510311587323e-18 1.87648179819794e-29)
(0.0063455172343407 -8.7737563063137e-06 -5.47419159618589e-15 0.644620348992185 -0.00836883869527943 -2.10091271171208e-16 1.0597327230889e-21 -2.3861968157091e-23 -3.47472463070538e-39)
(0.00596319352674927 -8.37196365712308e-06 1.5388374836633e-19 0.800786160179456 -0.00808745426139145 2.70342555452733e-22 4.03577562934547e-22 -5.66598530562898e-25 1.04145585519462e-38)
(0.00557327533964287 -8.07597369117396e-06 -5.12359825705941e-20 0.947362143334825 -0.00779534251294842 3.93478205748782e-19 -3.30380921585756e-21 4.94036998695806e-23 -1.04121142761508e-38)
(0.00517557303986943 -7.8900690508878e-06 5.73975602466809e-15 1.08413984260951 -0.00749271775686447 2.77089795715383e-16 1.8404989298343e-21 -2.49751331819298e-23 3.4722803549104e-39)
(0.00476797035917951 -7.78604527032564e-06 5.74025372873908e-15 1.21091496349853 -0.00717918148027709 -3.24202414141673e-14 -6.67799703279674e-16 3.96410813210655e-18 1.77042272579038e-29)
(0.00434921759301232 -7.8044876460553e-06 -5.73985902281658e-15 1.32737718619652 -0.00685212382522803 -3.45979130367014e-14 -7.29869262861065e-16 3.76246844458669e-18 1.92237356441314e-29)
(0.00391545733543997 -7.88311735000664e-06 -5.74020203641506e-15 1.43325390644723 -0.00651248825811199 -3.05945004355806e-16 0 0 0)
(0.00346589050854372 -8.1227188561507e-06 5.40965654454234e-20 1.52805084864539 -0.00615329925783419 3.15787126906666e-21 0 0 0)
(0.00299268890405383 -8.35812633213177e-06 -1.63050351288105e-19 1.61144067756507 -0.00577941580305702 7.29789886082081e-19 -3.50990074828818e-21 2.8213162042841e-23 7.37378439348676e-39)
(0.00249667418579805 -8.85695047603054e-06 5.48489339335718e-20 1.68256441412953 -0.00537259735700458 -1.07174069398508e-19 1.08676425377052e-20 -8.58383291552094e-23 -1.46972107349164e-38)
(0.00195953805187493 -9.17716100763343e-06 5.25224626787027e-20 1.74109364221698 -0.00494875614374017 -6.25069575589372e-19 -7.35774178941669e-21 5.76251671123655e-23 7.32342634142905e-39)
(0.00139062266212633 -1.00777443841393e-05 1.5743175501953e-21 1.78533115583839 -0.00446214307931081 6.37653683662852e-19 7.81120676261591e-21 -6.02314376476686e-23 -1.09255184097802e-42)
(0.000745952362424206 -1.03145282350855e-05 2.22649231752887e-19 1.81528613522441 -0.00396450009780226 -6.22238661366497e-19 -7.81120676261685e-21 6.02314376476758e-23 1.09255184097816e-42)
(6.59161474445325e-05 -1.20365309486156e-05 -1.09712429956459e-19 1.82728170958786 -0.00333789769641588 3.70677401887959e-18 -7.92109818678934e-21 6.32567917482549e-23 -1.52856020792043e-38)
(-0.000759776020097533 -1.15378557694204e-05 -1.11302777509318e-19 1.82296508819702 -0.00274618139804909 -4.37757492335442e-18 1.02840383493342e-22 1.56172013939466e-24 1.50655193374347e-38)
(-0.0016025742764391 -1.50031870079731e-05 -2.29204440710564e-19 1.79378447335335 -0.00185401426443939 2.1927103471554e-18 2.16918340149395e-22 2.0307741554133e-24 3.10242386670181e-38)
(-0.00277316517684722 -1.20738216197391e-05 1.13830553395261e-19 1.74672507731742 -0.00113712855696765 -3.11387661137854e-18 1.48273138677328e-20 -1.35332838518279e-22 -4.62006424127444e-38)
(-0.00385540335148871 -2.04739686148719e-05 2.28397053737859e-19 1.65949705302012 0.000323474767091372 -6.68168551180401e-19 -7.22597440458629e-21 6.84835524752173e-23 1.53964864874958e-38)
(-0.00569009704270085 -1.03459790745304e-05 -2.32058458025555e-19 1.55665717711648 0.00109536952705738 2.24011686996913e-18 0 0 0)
(-0.00699963912571586 -3.19067045686019e-05 -9.26559698718827e-22 1.37880465461838 0.00375864334485784 6.95587261014235e-19 4.98648743979018e-21 -7.69739928192377e-23 -1.60174957893645e-38)
(-0.0100891336325472 -1.03855274468611e-06 2.35972389372356e-19 1.20533130637734 0.00410716041222219 2.68123697617324e-20 -1.36562663790126e-21 -1.4057453738481e-25 3.19403223777839e-38)
(-0.0112215840779816 -5.79555129957692e-05 1.35045924831173e-14 0.874569669244277 0.00936053779113287 1.26509937124971e-15 -3.62086080188879e-21 7.71145673566201e-23 -1.59228265884193e-38)
(-0.0161661106758393 4.15382537370103e-05 1.33953124756145e-14 0.629530687517502 0.00724633161855293 -7.8274486137108e-14 -7.08747937264023e-16 -8.07312884870635e-18 8.64966610869823e-29)
(-0.0211276960274131 -0.00126942327798497 -1.31403985988674e-14 0.0439012255611296 0.0217553308274515 -8.96116962581162e-14 -5.17140976571366e-17 -2.46343139799558e-17 1.02150051290667e-28)
(0.0313860338418456 0.00155363121739851 -1.32654309409172e-14 -0.392635548690825 -0.0359850548227067 -1.30878475090527e-15 3.51384916592599e-21 4.72128311934214e-22 -1.69842754886368e-35)
(0.0456820002294431 0.00966884548975312 1.63442868193491e-16 -0.156007843658419 -0.0402189350800301 -7.96215287435198e-16 8.26094606965654e-19 2.1231420737859e-19 4.21735864041621e-33)
(-0.0511136830052651 -0.0127486442617951 1.43498155215547e-16 0.221537229705223 0.0607229490007785 -1.23576579613973e-15 0 0 0)
(-0.315631172630408 -0.127606271450736 -1.81523025611648e-16 0.794571876398264 0.328531476986776 7.21508084058571e-16 8.91492813604512e-18 3.68339189218811e-18 7.97084626150015e-33)
(-0.778939092815567 -0.400289385861054 5.90315854222504e-16 1.51813638433197 0.790279104383191 -6.39223209445675e-16 -5.12751582635655e-21 -2.82079600003075e-21 2.10827863983692e-37)
(-1.5107153946074 -0.916715984601725 3.70636395998127e-16 2.47193673671271 1.51053453268611 -6.26266906759541e-16 -3.01147532512166e-17 -1.83947558452742e-17 7.6063929029373e-33)
(-2.47137768954141 -1.67051280500544 -2.45405042051167e-15 3.61521428284314 2.45284058636614 3.48655661169402e-15 0 0 0)
(-3.56595183326964 -2.57315491305283 1.9513023830837e-16 4.87489839115486 3.52395515918603 -5.88012782860663e-16 -6.2658061548852e-17 -4.52886714408069e-17 7.27530806856349e-33)
(-4.72194272810956 -3.52273997176623 -6.1933782340516e-16 6.2355126872222 4.6550439328283 5.32514449932596e-16 8.10374112360435e-17 6.04935677680766e-17 7.14159215243461e-33)
(-5.80626941973361 -4.39152470539219 1.22857231450685e-15 7.56300500166718 5.72326478307406 -1.317804486331e-15 0 0 0)
(-6.87596910529282 -5.28130170205656 -8.34367425823339e-16 8.81652422795827 6.77706449919203 1.30140037684262e-15 0 0 0)
(-8.20558749236957 -6.43612140755503 -2.47158242409465e-15 10.2885496691938 8.07775212341961 2.95942962257974e-15 0 0 0)
(-9.93902363627294 -8.01117530179288 2.59514387679624e-15 12.115419314988 9.77393263506587 -3.25994251005337e-15 -1.62162489452479e-16 -1.30815621142128e-16 4.35553603915041e-32)
(-12.7077163336502 -10.513191604525 1.26228584582528e-15 15.0453156149612 12.4432306135954 -1.48529501991649e-15 -2.03988436480746e-16 -1.68706850219794e-16 2.01330905150024e-32)
(-16.6939294537126 -13.6897315219612 3.85989912274153e-17 19.9112114378784 16.2891091274389 8.55185018936101e-19 -1.05986073370595e-20 -7.95555034735641e-21 -5.41865334079609e-37)
(-21.6371874010464 -16.5748724610687 -5.87088358186506e-16 27.6199847434547 21.049999731287 7.15982275756367e-16 1.10467565970056e-20 8.2919411473217e-21 5.64777452694391e-37)
(-26.2907344658852 -17.3324534044603 -1.29050967326111e-16 39.125753710588 25.5427021042286 1.38083174064608e-16 4.88500452297975e-16 3.18901303683623e-16 1.72394955902567e-33)
(-26.2182830344615 -12.643733905918 -8.58344400918832e-18 53.7220305007172 25.4664382156512 8.09401475275083e-17 1.01827773833711e-20 3.58648981523196e-21 1.29512331325026e-37)
(-13.2010149984623 -3.44203067190333 2.55620168590473e-17 52.440552073796 12.9840121424745 -9.72927274612652e-17 -9.73174167371628e-21 -3.42762991698606e-21 -1.23775715069069e-37)
(-2.39310315941859 -0.283996750290288 -8.73414939521993e-18 28.379920247446 2.35057866877317 -4.54379411827946e-17 3.67118576213915e-17 3.03962757861703e-18 -5.8969228888601e-35)
(-0.172936246026895 -0.0177877664044726 -4.86738796570678e-18 9.43936981586648 0.18282804417284 9.48296528180196e-21 2.37795740676276e-20 4.60423890276856e-22 -3.83857425508382e-41)
(-0.0287351248969303 -0.0215609689058428 2.72188582668013e-21 12.9463249472836 -0.00827222614349749 -1.07912356689389e-22 0 0 0)
(0.521449489766701 -0.0317157506390222 -3.567986365183e-19 11.5041184571115 -0.48896643540941 -5.34112410448075e-18 0 0 0)
(0.332383734284254 0.0390507836687765 6.04639688077064e-22 3.32567810736067 -0.30400674326197 2.05097831490732e-21 -1.32976622933775e-21 7.68284828217097e-22 -1.60541556351116e-42)
(-2.4393129119503 1.33332307822938 -3.37843023850646e-21 -4.60545570290601 2.50050027245769 -8.00663229456757e-21 -7.60304975446182e-23 4.70208978165918e-23 2.88204686812902e-42)
(-2.93630712552339 2.00151838730975 1.94753236901113e-17 -4.48088436822142 2.98022879207192 -1.27918358973225e-19 1.50823241928898e-21 -8.745759070793e-22 -1.23659953340444e-42)
(-2.15237532423564 1.67364074549063 -8.08150127202937e-17 -2.8565296518376 2.18688089968238 -1.0350363547703e-16 7.77454048465209e-17 -5.9723923842343e-17 -4.5415357278031e-35)
(-1.65334621669245 1.36840809118758 -1.91713330944245e-17 -2.03211638145443 1.67276329398959 4.30142607707842e-19 6.14484223637177e-21 -4.911051119036e-21 -5.21121289934747e-37)
(-1.18711098684695 0.982189776613891 -3.40765849612435e-16 -1.44771669395847 1.19910743457556 -3.69907386570468e-16 0 0 0)
(-0.913175120486191 0.734974672970905 -1.19772619135837e-17 -1.13600797239642 0.917708871871932 -1.35797601358398e-17 -3.03951156245169e-17 2.46422672549889e-17 -5.17332869782389e-33)
(-0.774394509896697 0.613561543531679 7.8056598537368e-16 -0.977307646782403 0.776474659697471 9.05235668465219e-16 -1.29163794649509e-17 1.026077294282e-17 1.20156058482975e-32)
(-0.752731536334442 0.591609630262128 -9.50040120888275e-17 -0.954889704949899 0.75175209418262 -1.24244494797486e-16 2.4677763316645e-17 -1.94175141735114e-17 -3.14399466892098e-35)
(-0.800105573679018 0.627827260051622 -2.85539912472369e-17 -1.0172318628898 0.799376143149615 2.21408873695791e-18 -1.04115352973799e-20 8.088604994696e-21 -2.56074925257619e-39)
(-0.889263400476675 0.691645899632396 -5.89855899631254e-20 -1.13822577330009 0.888589295938353 -1.454227912003e-19 -1.3290542733107e-20 9.95743605603017e-21 5.06830387934196e-39)
(-0.95357955750997 0.715674186181503 -1.65543773744791e-16 -1.26042539560721 0.954160538119312 -2.74752162972499e-16 2.20508248322788e-20 -1.67815868816201e-20 -2.49696275787212e-39)
(-0.96968555742397 0.676402927699894 -5.68729735706384e-16 -1.37045432602291 0.971219482351726 -8.21765880603684e-16 3.44345003561018e-17 -2.42695708060981e-17 5.16694803167761e-33)
(-0.912098803898169 0.56337567812187 -6.72285550304605e-16 -1.43888797295581 0.913097867204084 -1.01281722555236e-15 1.75643665085524e-17 -1.11277278809615e-17 1.23989839696203e-32)
(-0.790327034170936 0.406032977461624 -4.06962828505138e-20 -1.47180237461206 0.790369177083441 -1.60055341951194e-19 -2.4421459959121e-20 1.18595156801465e-20 3.28650778468287e-40)
(-0.634289270201684 0.252556581213233 -3.43101743430098e-16 -1.47918564225995 0.63309227525168 -7.93554084022042e-16 1.66640287246772e-17 -7.11192704740949e-18 8.93076172509957e-33)
(-0.462822392985877 0.127687073059071 -7.86709161390542e-17 -1.46431931780393 0.461399439464218 -2.43860785314091e-16 0 0 0)
(-0.295509914885511 0.0436891579300816 -3.47927866499893e-20 -1.45025126648263 0.294972775430344 2.17320267471012e-20 1.85033185454829e-20 -2.83364102880827e-21 -3.34416699128172e-42)
(-0.185439452768133 0.00533282211216092 2.12568581933188e-19 -1.59597639812404 0.17921189666568 -5.23026427534147e-19 -1.82658882838904e-20 2.79728040900511e-21 3.30125542157615e-42)
(-0.112442978772431 -0.00358250654419946 5.10535761733187e-20 -2.29764145441808 0.117531911452875 3.25503606749962e-18 1.46767733551521e-19 -4.01156051449851e-21 -8.93283534956925e-38)
(-0.10788606734184 -0.000985789482358497 -2.96426981994244e-19 -3.20547384225074 0.102586938904511 2.85889511129488e-20 0 0 0)
(-0.0874412962483821 -0.000759717469711712 0 -3.88280744514179 0.0857919260898547 0 0 0 0)
(-0.0749102946103569 -0.000731265903275264 0 -4.45546662540493 0.0706426561588042 0 0 0 0)
(-0.0615910205152901 -0.000634352198729503 2.00377588374768e-15 -4.90517270578054 0.0575082468470536 -1.72911928871439e-16 0 0 0)
(-0.0514392371909081 -0.000536891504315313 2.02190223806492e-15 -5.27146396374381 0.0465206069639724 1.94129247380678e-14 3.09583665255549e-15 -1.38773435903834e-17 -3.95501397417746e-30)
(-0.0427011604456264 -0.000442138974531472 -2.00373687195703e-15 -5.56477682305575 0.0376056020274167 2.05154826979609e-14 3.265180109794e-15 -1.21222117969826e-17 -3.29439088694523e-30)
(-0.0355800121767982 -0.00037448584018663 -2.02194104510296e-15 -5.80148078438904 0.0301369777558721 1.64234007642053e-16 9.73483944129841e-20 -2.70695422231098e-22 -2.67351610244378e-41)
(-0.0294035328171079 -0.000321959451743863 -3.90117907842661e-20 -5.9892000607643 0.0238203326409049 -1.49828794192862e-20 -9.73483944129832e-20 2.70695422231096e-22 2.67351610244376e-41)
(-0.0240182415468975 -0.000285342094458658 2.43130081950268e-15 -6.13523890145408 0.0182963716451142 -1.79352079061757e-16 0 0 0)
(-0.019154847269047 -0.000257866868321975 2.50430392380008e-15 -6.24396474979052 0.0133908337085796 2.40761805435033e-14 4.08205640838277e-15 -8.37619539212966e-18 -4.6710356559698e-30)
(-0.0147029376492315 -0.000237983127797743 -2.43135454163086e-15 -6.31909838273847 0.00893324687905727 2.57271848359788e-14 4.1061375383655e-15 -7.40417086060489e-18 -4.07846868372942e-30)
(-0.0105487901683703 -0.000222693970765639 -2.504256708138e-15 -6.36325009178449 0.00483735971696822 1.71565856715561e-16 -2.1886686836124e-19 2.24229614441929e-22 3.26976268948954e-34)
(-0.00663462736417482 -0.000210788461609123 9.25291662375356e-20 -6.37863127082544 0.00102117567564927 1.58579274129693e-20 1.10122127330243e-19 -9.75759065811291e-23 5.91671641693349e-39)
(-0.00292428538638568 -0.000200125595968514 -4.72156619560999e-20 -6.36702659320836 -0.00254996422585935 -2.46468910154675e-19 0 0 0)
(0.000587672579238124 -0.000190212992577801 -3.98272829894312e-31 -6.33012772736291 -0.00588809528122343 -3.48133539464166e-19 0 0 0)
(0.0039119493178987 -0.000180622304640559 -3.15394666017918e-15 -6.26960246319653 -0.00899918147357381 1.76700376972949e-16 -5.49418013241793e-31 4.41503153090351e-34 -8.92407712688122e-62)
(0.00705360141603523 -0.000171083945158807 -3.26482686178302e-15 -6.1871116101934 -0.0118920693171432 -3.15988369037883e-14 -4.12897609934608e-15 2.58246092774918e-18 -5.59810120171983e-30)
(0.0100125929969884 -0.000161508072809719 3.15391472607115e-15 -6.08417805216933 -0.0145744351069967 -3.35677920815904e-14 -4.04234517335293e-15 1.88404195460906e-18 -5.13132495594097e-30)
(0.0127884240986156 -0.000151822046748287 3.26485883284961e-15 -5.962280657485 -0.0170494945564588 -1.65083043164543e-16 -5.34422645395072e-20 -3.38753720199571e-23 2.4128890783119e-42)
(0.0153777088783031 -0.000141854434524114 3.19341081626743e-20 -5.82287996526499 -0.0193182426810777 -3.2232420868412e-19 5.3442264539508e-20 3.38753720199576e-23 -2.41288907831193e-42)
(0.017775459573828 -0.000131559970666286 -3.19710666551455e-20 -5.66743198612864 -0.0213787964141334 -2.78973212764019e-19 0 0 0)
(0.0199755512800285 -0.000120809539236362 2.73753946600836e-35 -5.49739500601952 -0.023230212445062 3.49225889718059e-19 0 0 0)
(0.0219702600805692 -0.000109549560207227 7.49223863917962e-34 -5.31423734432517 -0.0248676885300914 -3.91074945681499e-19 0 0 0)
(0.0237560690000144 -9.81775147432182e-05 4.51586876492117e-15 -5.11942625752407 -0.0262915692896401 -1.60459798011735e-16 0 0 0)
(0.0253364461953263 -8.70248875512877e-05 4.65812437995977e-15 -4.91438202117735 -0.0275089859602353 4.50428147917789e-14 3.6112355754634e-15 2.49132729347015e-18 -8.39424037494289e-30)
(0.0267177881453635 -7.62332777406299e-05 -4.51588907590607e-15 -4.70046312570242 -0.028529243395868 4.70996215929173e-14 3.45615901614607e-15 2.93297766358686e-18 -8.11741689125991e-30)
(0.0279075973324411 -6.58549520638838e-05 -4.65816842150205e-15 -4.47896347721361 -0.0293626962108666 1.41861340654435e-16 -2.27059600526174e-20 -3.97668664878747e-23 3.04113217809625e-34)
(0.0289134981435016 -5.58890146740721e-05 4.27512152506089e-20 -4.25111345517673 -0.0300193805824792 -2.16238658188599e-20 -4.08241137796161e-20 -8.99570040549629e-23 -2.80581085796773e-39)
(0.0297437741647644 -4.64062877727835e-05 6.78494818873207e-20 -4.0180818995183 -0.0305093912892588 8.77714737273791e-21 1.99401419169743e-20 4.58907009842107e-23 7.05136570869073e-40)
(0.0304074383712161 -3.74204394004686e-05 5.30467674195306e-15 -3.78097095138936 -0.0308440821436485 -1.07696332910785e-16 1.79766121019982e-20 4.86270760489287e-23 -1.7316328818892e-34)
(0.0309139328683586 -2.8983804556209e-05 5.45022685752006e-15 -3.54081847514393 -0.0310335638845479 5.21705497519121e-14 2.64466358139215e-15 4.63011288603859e-18 -9.84978871763512e-30)
(0.0312728825912132 -2.10428297562525e-05 -5.30469918218386e-15 -3.29859629224575 -0.0310894165039244 5.38820010314717e-14 2.48508791469837e-15 4.84538358705802e-18 -9.859568098732e-30)
(0.0314898733361253 -1.33122859237214e-05 -5.45026401959508e-15 -3.05522621184031 -0.0310183432787026 8.2997594743219e-17 0 0 0)
(0.0315689463089543 -5.86717333797928e-06 1.34249565687318e-20 -2.81160848382889 -0.0308244552806357 2.63330594028786e-19 -6.94409506708879e-21 -2.54430932103188e-23 1.15591643452262e-42)