/*--------------------------------*- C++ -*----------------------------------*\
  =========                 |
  \\      /  F ield         | OpenFOAM: The Open Source CFD Toolbox
   \\    /   O peration     | Website:  https://openfoam.org
    \\  /    A nd           | Version:  7
     \\/     M anipulation  |
\*---------------------------------------------------------------------------*/
FoamFile
{
    version     2.0;
    format      ascii;
    class       volScalarField;
    location    "20000";
    object      k_conv;
}
// * * * * * * * * * * * * * * * * * * * * * * * * * * * * * * * * * * * * * //

dimensions      [0 2 -3 0 0 0 0];

internalField   nonuniform List<scalar> 
15600
(
-2.77676277414232e-06
-7.92627237994134e-08
-1.12075147205207e-08
5.88139498985446e-09
-7.34363773939261e-08
-4.94926154358428e-08
-1.58360540394493e-08
-5.49227831929524e-09
-2.14312672108076e-09
-1.02878398859679e-10
-2.11860721167491e-10
-4.09369021358164e-10
-7.05698465681183e-10
-1.10096622089015e-09
-1.48187258286839e-09
-1.65778381747932e-09
-1.73169703505253e-09
-1.45651537757185e-08
-2.82370553470552e-08
-3.48453471648736e-08
-2.35623279823259e-09
-1.08727654927126e-08
-1.82403202062799e-08
-2.50625862437342e-08
-3.07037083627699e-08
-3.55317305502853e-08
-3.92893839039747e-08
-4.24962417620207e-08
-4.50160141519681e-08
-4.70762736014313e-08
-4.85992878811358e-08
-4.96763213324138e-08
-5.02895348587994e-08
-5.05310712722753e-08
-5.04649684240283e-08
-5.02195380049147e-08
-4.96631398607787e-08
-6.51822239422686e-08
-1.77159030221258e-07
-2.93372760557532e-07
-4.1197169111502e-07
-5.31048211297177e-07
-6.48535960410448e-07
-7.62538982415749e-07
-8.70921405969596e-07
-9.71915980066182e-07
-1.06431480514659e-06
-1.14724298640486e-06
-1.22012569398847e-06
-1.28257745706111e-06
-1.33440520531237e-06
-1.37570879999892e-06
-1.40662927582208e-06
-1.42763275693137e-06
-1.43899234699837e-06
-1.44087281022374e-06
-1.4339247169297e-06
-1.41884168358409e-06
-1.39670275969169e-06
-1.36834614343699e-06
-1.33494884098497e-06
-1.29725861129135e-06
-1.25639693135303e-06
-1.21273175961369e-06
-1.16634157586678e-06
-1.11760054032771e-06
-1.06705179532138e-06
-1.01540068180311e-06
-9.63356554953444e-07
-9.11228119730514e-07
-8.59038077860121e-07
-8.07030256934024e-07
-7.55307347192129e-07
-7.04113435122473e-07
-6.53537761346975e-07
-6.04031213911336e-07
-5.55316332073261e-07
-5.07421366584245e-07
-4.60369501890608e-07
-4.14132068693228e-07
-3.68507082984014e-07
-3.2359756468221e-07
-2.78916391445512e-07
-2.34906708367417e-07
-1.90363499727569e-07
-1.46576734639502e-07
-1.00687708080183e-07
-5.64498144608325e-08
-6.87291017160938e-09
-5.15801751457648e-09
-5.21694288028122e-09
-5.24063479976317e-09
-5.42840511039838e-09
-5.24136400339339e-09
-5.35474751233267e-09
-4.54092309096062e-09
-4.22558194204019e-09
-2.02357921798555e-09
-2.85829017106593e-09
-9.05873280325929e-09
-4.76372219558143e-07
-1.09758386484741e-06
-1.824942178295e-06
-2.73894216913683e-06
-3.8281298067255e-06
-4.22593564507996e-06
-4.07965000157991e-06
-3.36624345585567e-06
-2.06090592128446e-06
-1.57995876140853e-06
-1.83058947450402e-06
-2.65722925869405e-06
-6.4126575023341e-06
-1.16611498706526e-05
-2.20066250916899e-05
-3.59614987789891e-05
-1.01022069192052e-05
-1.91894057869559e-06
-9.78422761339736e-07
-1.55825014992627e-07
-2.06235666574172e-05
-5.64676300376096e-06
-2.20221049669643e-06
7.1132830449805e-07
-1.40629071920537e-06
-1.03596140019906e-06
-3.22850319906974e-07
-1.18605474414913e-07
-4.72590918682966e-08
-9.69186977500597e-09
-1.88672743088799e-08
-3.46062028185812e-08
-5.95197184908929e-08
-9.34016094772442e-08
-1.29384757605738e-07
-1.54231201293101e-07
-1.62373230477726e-07
-3.24265001479633e-07
-5.67054586913172e-07
-5.40993781931838e-07
-2.59465372879453e-07
-8.56630813425366e-07
-1.42444233849645e-06
-1.92244459161138e-06
-2.35197801932799e-06
-2.72267363988431e-06
-3.02556614044787e-06
-3.28955458236329e-06
-3.50711866602275e-06
-3.69259101455433e-06
-3.84183624896474e-06
-3.96136761763465e-06
-4.05128410916914e-06
-4.11923309552533e-06
-4.17170924104276e-06
-4.2192258456549e-06
-4.24410736277793e-06
-6.40139027038909e-06
-8.77829336299473e-06
-1.1197622893411e-05
-1.36241963246334e-05
-1.60220822456931e-05
-1.83541913688617e-05
-2.05861232884411e-05
-2.26824341162417e-05
-2.4614788819136e-05
-2.6364117838106e-05
-2.79171376039333e-05
-2.92654683593158e-05
-3.04041527078793e-05
-3.13317392377391e-05
-3.20512017572812e-05
-3.25667417662923e-05
-3.28864936774433e-05
-3.30159235006089e-05
-3.29602021712537e-05
-3.27321702100622e-05
-3.23463833486813e-05
-3.18225851499186e-05
-3.11779227685005e-05
-3.04335498298754e-05
-2.96048031175634e-05
-2.87107095090734e-05
-2.77580623872192e-05
-2.67480907448648e-05
-2.56887898381772e-05
-2.45915171301031e-05
-2.34699078286752e-05
-2.23375940503209e-05
-2.12004644782954e-05
-2.00595451217781e-05
-1.88852691238684e-05
-1.77363288859194e-05
-1.66114143598128e-05
-1.54992916440235e-05
-1.440032404593e-05
-1.33150588630253e-05
-1.22441525030555e-05
-1.11882155028146e-05
-1.01463076998657e-05
-9.11510369768741e-06
-8.09492379969417e-06
-7.07841025345882e-06
-6.06963443158211e-06
-5.05115961553312e-06
-4.03631772436354e-06
-2.98588731127775e-06
-1.94242581803522e-06
-8.15234382441213e-07
-5.74146165768307e-07
-5.28019312308987e-07
-4.95050225972452e-07
-4.5333737027868e-07
-4.14967647678327e-07
-3.47093032960679e-07
-2.92126337762302e-07
-1.56269910119021e-07
-7.41269142300059e-08
2.42102319038124e-07
-1.14779762846606e-07
-1.13506156256536e-05
-2.4681041705241e-05
-3.94522599769891e-05
-5.7575811653346e-05
-7.82255021722022e-05
-8.71343905746921e-05
-8.60544081984482e-05
-7.40941641752831e-05
-5.12811321849333e-05
-4.03073509732628e-05
-4.2268504609262e-05
-5.80917131394477e-05
-0.000123693026824383
-0.000224782257465108
-0.00041257853284435
-0.000662982172960515
-0.000280517570059651
-0.000110942694474489
-6.42866321019467e-05
-1.24925682359276e-05
1.40304985532915e-05
-4.09628586277128e-05
-2.81877040474266e-05
1.1999498874527e-05
-7.29205525245356e-06
-5.83106917026251e-06
-1.80536080295791e-06
-7.03002181106998e-07
-2.96601177273436e-07
-1.13160036995638e-07
-2.04142283145918e-07
-3.58643193375136e-07
-6.15131411602741e-07
-9.779252540024e-07
-1.39750490211389e-06
-1.75680811400146e-06
-1.95160529904293e-06
-2.18741612800971e-06
-3.16380098522101e-06
-2.03045301258416e-06
-2.73618048204092e-06
-7.83165540544131e-06
-1.26569915545352e-05
-1.71487495611632e-05
-2.10196826160753e-05
-2.45510623194699e-05
-2.75211495770406e-05
-3.02262078401277e-05
-3.25507176693533e-05
-3.46482417549477e-05
-3.64768445812761e-05
-3.81109529326207e-05
-3.95581196408339e-05
-4.09010391548334e-05
-4.22096243513542e-05
-4.35957466881648e-05
-5.20152104034278e-05
-6.28014515696267e-05
-7.33342352628503e-05
-8.36985377872873e-05
-9.37807637098819e-05
-0.000103469741655448
-0.000112657864150494
-0.000121248960786794
-0.000129154432286622
-0.000136310221373656
-0.000142678192604252
-0.000148236011020667
-0.000152973771213803
-0.000156890617118679
-0.000159995140076345
-0.000162306177564607
-0.000163844888137717
-0.000164638265193027
-0.000164706047001173
-0.000164072033710575
-0.000162783397005529
-0.000160894566545887
-0.000158472609344932
-0.000155580692738246
-0.000152290533240799
-0.000148657708847799
-0.000144742887655258
-0.000140566861198216
-0.000136125957246537
-0.000131451362873784
-0.000126587211555213
-0.000121584964732103
-0.000116501684763654
-0.000110975548702436
-0.000105659362290745
-0.000100418195913744
-9.51527680666052e-05
-8.98966935280653e-05
-8.46552603223168e-05
-7.94300156065614e-05
-7.42233718301449e-05
-6.90380387055083e-05
-6.38765043026395e-05
-5.87337556542442e-05
-5.35963317884805e-05
-4.84597859521412e-05
-4.32958213853219e-05
-3.81067045073455e-05
-3.28288996523353e-05
-2.74828339219259e-05
-2.1933171783122e-05
-1.62725842782336e-05
-1.02061503957201e-05
-7.41709295356594e-06
-6.3400876326491e-06
-5.40872250889027e-06
-4.33562743427538e-06
-3.32124184597925e-06
-1.9257704170874e-06
-7.72961393459376e-07
1.24035929957248e-06
2.45586342333937e-06
6.36274397169021e-06
3.45943010543348e-06
-6.13000416910067e-05
-0.00012686935621697
-0.000196802784667812
-0.000281385678846241
-0.000377199535750471
-0.000431108049389779
-0.000443418385068115
-0.000405209347295262
-0.00031486319619698
-0.000259399149095697
-0.000257868859283341
-0.000332586140503772
-0.000620534098300888
-0.00108621012579458
-0.00186362076377392
-0.00279639838704753
-0.00152094286580544
-0.000712736177294094
-0.00039187517221252
-5.56898948755855e-05
0.000174302190119345
-0.000113337437110072
-0.000177979898174883
8.15185406778589e-05
-1.89841518557061e-05
-1.81262018888602e-05
-5.6488389180982e-06
-2.3122074629878e-06
-1.03662855022535e-06
-5.63779843290366e-07
-9.70503025168393e-07
-1.66600757025511e-06
-2.84522560129482e-06
-4.56102846945479e-06
-6.6380434954393e-06
-8.57360873942223e-06
-9.75615492881348e-06
-9.41284369770887e-06
-9.18412411799003e-06
-7.15896349887132e-06
-1.14257246578657e-05
-3.10574603945021e-05
-4.5987929653251e-05
-6.12403087274213e-05
-7.34337810161649e-05
-8.51298132309662e-05
-9.47265975077176e-05
-0.000103751482311442
-0.000111545161367177
-0.000118845563987161
-0.000125469528262609
-0.000131751012945471
-0.000137713746496507
-0.000143664305562172
-0.000149834264128049
-0.000165615595910689
-0.000186561997277746
-0.000203048634476919
-0.000218686041303632
-0.000233390492874175
-0.000247095200328111
-0.000259737620683149
-0.000271264741797659
-0.000281637350880349
-0.000290837154629129
-0.00029886582963281
-0.000305738127691934
-0.00031147569260468
-0.000316104993535646
-0.000319656734100653
-0.000322166681326371
-0.000323673870162082
-0.00032421393947187
-0.000323816756686628
-0.000322506683792737
-0.000320320491742199
-0.000317318624506443
-0.000313569628388113
-0.000309147602542967
-0.000304129513803164
-0.000298594298369492
-0.000292604560043907
-0.000286220289284392
-0.000279454907921424
-0.000272275411685774
-0.00026471646722791
-0.00025682812258106
-0.000247709413780447
-0.000238658174659728
-0.000230133985302444
-0.000221457952312215
-0.00021265293401302
-0.000203732775914532
-0.000194740022512439
-0.000185681947637589
-0.000176557912401457
-0.000167367437678755
-0.000158109503473655
-0.000148782401365357
-0.000139373637839914
-0.000129858164809866
-0.000120215785479064
-0.000110397065292213
-0.000100376059963906
-9.00534044575492e-05
-7.93980262239189e-05
-6.82135795113195e-05
-5.64976946479169e-05
-4.38514264503709e-05
-3.28201796585554e-05
-2.71239784392816e-05
-2.15726593777893e-05
-1.54380864086482e-05
-9.1659434748831e-06
-1.65366362051552e-06
5.6749685997636e-06
1.49530305419434e-05
2.3405200553641e-05
3.56349719247535e-05
2.86981043716134e-05
-0.000113822555916951
-0.000244235659535687
-0.000375539228161956
-0.000533443026361412
-0.000717218389463497
-0.000856519741922551
-0.00093588499847079
-0.000925270058754705
-0.000811545813623316
-0.000717327550562987
-0.000702488219608353
-0.00085896610265259
-0.00140735881807834
-0.00232870503283205
-0.00367057994613822
-0.00505788352939739
-0.00335290133647433
-0.00174795083555771
-0.000623581269672094
0.000276781227988629
0.00120655728668371
6.94119940528391e-05
-0.000459227634891044
0.000190403818826332
-2.52448050959083e-05
-3.91169263091977e-05
-1.24982947062074e-05
-5.36813909176238e-06
-2.56406235778137e-06
-1.79559510308689e-06
-3.03409644536757e-06
-5.14231117526652e-06
-8.69264886163926e-06
-1.38517818155236e-05
-2.00729687811899e-05
-2.58103328503286e-05
-2.92413143414819e-05
-2.89500329819475e-05
-2.33003165519837e-05
-2.06659352528008e-05
-2.65105374992314e-05
-6.88255223039037e-05
-8.90563778701154e-05
-0.00011792624020267
-0.000138371998236397
-0.000160329407152985
-0.000177638788160599
-0.000194557828035257
-0.000209036435929528
-0.000222840201092995
-0.000235448651561109
-0.00024753417366592
-0.000259055213575326
-0.000270549935608348
-0.000287109012379066
-0.000315013234510905
-0.000329736289575675
-0.000343386809678573
-0.000355732478644644
-0.000366790643958082
-0.000376587541741816
-0.000385149623646577
-0.000392510477402638
-0.000398712931261894
-0.000403821477502759
-0.000407903821366348
-0.000411018452138423
-0.00041321615201157
-0.00041454257927773
-0.000415040928294265
-0.000414753543107983
-0.000413719232110592
-0.000411968353760457
-0.000409516905644609
-0.000406378425914329
-0.000402582938210017
-0.000398178643043556
-0.000393219354478738
-0.000387754466838566
-0.000381843377096057
-0.00037554019488118
-0.000368887120021111
-0.000361921484989542
-0.000354638710882444
-0.000346977750852317
-0.000338955164466908
-0.000328038349050026
-0.00031906667523906
-0.000310133531252836
-0.000301042235410228
-0.000291780617235843
-0.000282357141914007
-0.000272776457357299
-0.000263068505420484
-0.000253238040005582
-0.000243281137480185
-0.000233191760923735
-0.000222961422754353
-0.000212580610092938
-0.000202032101846838
-0.000191287265302815
-0.000180314731522266
-0.000169059357725355
-0.000157469907338214
-0.000145447330284378
-0.000132908960853448
-0.00011967473073945
-0.000105612761805346
-9.03994804912753e-05
-7.0301731032083e-05
-5.79440882940006e-05
-4.43878427085617e-05
-2.91894282776114e-05
-1.26594082329646e-05
6.91187510520724e-06
2.8190066120623e-05
5.30521661384268e-05
8.15942807504876e-05
0.000103654572488066
8.83732031230368e-05
-7.50216351661637e-05
-0.000226658227505657
-0.000373694418459346
-0.000545910757743624
-0.000750385116196736
-0.000939909039132188
-0.00108785820666712
-0.00115225546272399
-0.00111303046612692
-0.00105015378125395
-0.00102936164578232
-0.00121790102649762
-0.001788609607305
-0.00282583685432724
-0.0041971350202422
-0.00553379767217996
-0.0043198602283577
-0.00243342226027537
-0.000627580178975168
0.00175368334602195
0.00294671168425679
0.00102364076610703
-0.000447284799434343
0.000278870735645518
1.45577185415251e-05
-6.12220101761173e-05
-2.07417355073418e-05
-9.51464080425472e-06
-4.92089767780204e-06
-4.29550881882015e-06
-7.25098855929847e-06
-1.21162472772465e-05
-1.99747354220155e-05
-3.08741406791571e-05
-4.31160108036336e-05
-5.31832598726615e-05
-5.79670164378239e-05
-5.58252992889773e-05
-4.72525282637638e-05
-3.59046267821196e-05
-4.4341134531429e-05
-0.000106110221864728
-0.000125248580408198
-0.000176138883650961
-0.000206936697665019
-0.000241695439535679
-0.000266759858767908
-0.000290711723065687
-0.00031006653723428
-0.000327889957333665
-0.000343471166758976
-0.000357857760062806
-0.000370988388728356
-0.000382456886605699
-0.000413012193507546
-0.000423482491505047
-0.000433310776973771
-0.000441885177332231
-0.000449170274134917
-0.000455235160422119
-0.000460152202931399
-0.000463992379018496
-0.000466830089504146
-0.000468746014159909
-0.000469837422209575
-0.000470196669976797
-0.000469894173689652
-0.000468983225013628
-0.000467507045125542
-0.000465502620217877
-0.000463003637961892
-0.000460038386480501
-0.000456624741257355
-0.000452763691982347
-0.00044845354790688
-0.000443709881603398
-0.000438564745415287
-0.000433054314941035
-0.000427204718014567
-0.000421056833195645
-0.000414643153967886
-0.0004079874962559
-0.000401112713616701
-0.000393998997391491
-0.000386570862145171
-0.00037563063431883
-0.00036701693503846
-0.000358508118745647
-0.000349862964986237
-0.000341075062241105
-0.00033212561999935
-0.000323013393344162
-0.000313735051859212
-0.000304308381978286
-0.000294735661909109
-0.00028501211671974
-0.000275128875835819
-0.000265072578155463
-0.000254828627887153
-0.000244378360655345
-0.00023369421670074
-0.000222741767603219
-0.000211466602272093
-0.00019980787521621
-0.00018767448889414
-0.00017496545934481
-0.000161524711845452
-0.000147164966921368
-0.000131634692874786
-0.000112664747761847
-9.25961400595788e-05
-7.36754769472735e-05
-5.23703519719988e-05
-2.79129500575487e-05
1.19474442590881e-06
3.61996285458165e-05
7.68039045307345e-05
0.000133218643980412
0.000168630996454373
0.000148658946316043
1.07887299577848e-05
-0.000131438222167753
-0.000267825042106842
-0.00042155824445028
-0.000604989455251397
-0.00079377387962396
-0.000960714821203548
-0.00106421355681247
-0.00108609349905855
-0.00106182485740947
-0.00102823888846038
-0.0011814296848811
-0.00159659053678097
-0.00245694530323336
-0.00356811833796712
-0.00468170851012952
-0.00407590805186918
-0.00222436757530747
-0.00160925251335413
0.00276153954882422
0.00383465197736587
0.00244026032849884
9.30325535384348e-05
0.00049680220656596
6.60092816472295e-05
-6.1878945219987e-05
-2.38438782712576e-05
-1.25861978615615e-05
-7.44029668721677e-06
-8.24309025169429e-06
-1.40584507920022e-05
-2.29487101082773e-05
-3.61603545605002e-05
-5.28299233884058e-05
-6.92979405580434e-05
-8.06836684535718e-05
-8.4475580392091e-05
-8.00380906780962e-05
-6.86010885512504e-05
-5.72056054898005e-05
-7.75743058248272e-05
-0.000153817390740975
-0.000175344424379526
-0.000251199297003387
-0.000289368101994415
-0.000332683022621426
-0.000360881381586739
-0.000387069938143949
-0.000406916652750857
-0.000424517229938415
-0.000439151337986277
-0.000452124565326557
-0.000463570636174182
-0.000483890330308197
-0.00049565816422129
-0.000502199413853606
-0.000507779298846531
-0.000512168035128261
-0.000515402655483439
-0.000517573315669035
-0.000518770656174527
-0.000519085041638672
-0.00051860757631497
-0.000517434159112793
-0.00051567188227536
-0.000513422052489393
-0.000510757401743546
-0.000507727247181909
-0.000504368301762453
-0.00050070854043164
-0.000496771818296412
-0.000492576675465012
-0.000488130643013392
-0.000483423769225635
-0.00047844084838087
-0.000473183469109893
-0.000467670218365246
-0.000461923383473755
-0.000455951911196146
-0.000449782765701527
-0.000443433450585979
-0.000436914817254954
-0.000430242808161717
-0.000423384157655958
-0.000413479221953842
-0.000404519415438115
-0.000396522608664923
-0.000388340192529468
-0.000380035158755046
-0.00037159713731949
-0.000363004911227122
-0.000354251570888329
-0.000345328016265168
-0.000336243693797974
-0.000326998888167642
-0.000317589234644903
-0.000308004923949187
-0.000298229743191131
-0.000288246031317981
-0.00027803467745588
-0.000267569879059345
-0.000256817186820136
-0.000245722950802857
-0.00023422359437127
-0.000222231892528137
-0.000209644261980215
-0.000196314641187379
-0.000182043629142733
-0.000166602812602893
-0.000149846396170877
-0.000126478353119986
-0.00010574969033423
-8.21916376181931e-05
-5.43923086676295e-05
-2.13482887891574e-05
2.07734473237211e-05
6.91897406329427e-05
0.000145246027890768
0.000191372885169564
0.000186305715053857
8.81282674761053e-05
-3.19343182569325e-05
-0.000150294431709233
-0.000280771426858025
-0.000437604535110219
-0.000608670016351062
-0.000768647536324584
-0.000878818330946312
-0.0009221869678822
-0.000910889150473553
-0.000853755523103381
-0.000938766646039817
-0.00117358181431388
-0.00177432477211307
-0.0025681522581381
-0.00341018532744235
-0.00324031192511491
-0.00166780983671445
-0.00274689956975079
0.00157318315410009
0.00332757285715335
0.00358741640746171
0.000771799881329416
0.00107216268939057
0.00027083844321108
-1.20442871771133e-05
-9.58284048022198e-06
-9.84846430108957e-06
-8.28478020588524e-06
-1.29474128286851e-05
-2.26772469471748e-05
-3.59333480579333e-05
-5.35002109251241e-05
-7.33991861434797e-05
-9.09538786791482e-05
-0.000102094286890824
-0.000105810609126343
-0.000102251063908904
-9.42843561707155e-05
-9.36555046838693e-05
-0.000134157722513501
-0.000215329882906577
-0.000241538038828435
-0.000334271574718196
-0.000374896622776026
-0.000421096945262105
-0.000448651513789437
-0.000473670574300675
-0.000491542547728916
-0.000506854032918406
-0.000518962058604745
-0.00052923881498574
-0.000536645375057466
-0.000556295812395728
-0.000560128938369262
-0.000563524915570759
-0.000565897696368532
-0.000567182941869554
-0.000567450742371383
-0.000566801142370879
-0.000565333018184674
-0.000563146643864424
-0.000560340562997952
-0.000557016724696572
-0.000553283436046755
-0.000549246035954312
-0.00054497740460613
-0.000540522178266116
-0.000535910832912309
-0.000531163085847928
-0.000526294382181462
-0.000521315598055967
-0.000516226675259804
-0.000511009898136109
-0.000505638597618793
-0.000500102002517916
-0.000494407788036589
-0.000488567706273731
-0.000482578026913553
-0.000476455439996971
-0.00047020708289299
-0.000463834720400448
-0.000457352105374716
-0.000449110020166813
-0.00043916458784609
-0.000431618810848943
-0.00042385488095566
-0.000415924434773652
-0.000407874458544382
-0.000399693567892876
-0.000391359979116838
-0.000382863486540243
-0.000374190679882578
-0.000365345270039657
-0.000356325823768234
-0.000347128783908254
-0.000337744243313949
-0.000328154095794769
-0.000318338528293874
-0.000308278059931639
-0.000297948268495079
-0.000287315306198162
-0.000276325246671635
-0.000264913674095503
-0.000252993318728299
-0.000240462610734313
-0.000227175082647378
-0.000212935027768691
-0.000197506034490545
-0.000180675576235447
-0.00015723161352889
-0.000136169750339519
-0.000111663885222951
-8.24702458286806e-05
-4.77245045901989e-05
-2.35141267077971e-06
4.97059293454819e-05
0.000136436659333587
0.000191647552966038
0.000206046152790146
0.000147197999446188
5.33318746894528e-05
-4.60327533817003e-05
-0.000156119922611917
-0.000291045742923012
-0.000443604247367984
-0.000589888337353751
-0.000693849001311738
-0.000737504530013336
-0.000722203097864158
-0.000639304266248626
-0.000652472954761693
-0.000736794604034598
-0.0010982708087302
-0.00160799613658992
-0.00220724303715952
-0.00233606218046744
-0.00153326297155137
-0.00285419378831802
-0.000732670436969848
0.00141701448161784
0.00442227039626029
0.00116552193769745
0.00191361084755435
0.000764200021940675
9.68545386195785e-05
3.32493305952392e-05
4.61814444410901e-06
-4.6508941346988e-06
-1.66212342304171e-05
-3.11184861852348e-05
-4.82683234762208e-05
-6.84346838192168e-05
-8.96655798524321e-05
-0.000107746446918332
-0.000120026340700387
-0.000126211723048936
-0.000127145998847475
-0.000128162365596774
-0.000144600888617721
-0.000203544758337743
-0.000279993682716605
-0.000314217857039559
-0.000414475601757047
-0.000454739375624429
-0.000500111813720661
-0.000525409188609721
-0.00054790177995778
-0.000563140597645366
-0.000575742315434001
-0.000585187177706089
-0.000592921364917672
-0.000600992335888369
-0.000611592199102957
-0.000613282936679366
-0.00061427909539586
-0.000614272491220254
-0.000613280920905866
-0.000611392346550838
-0.000608711435876671
-0.000605340564991289
-0.000601385227114412
-0.000596946728374034
-0.000592128304921137
-0.000587035353488017
-0.000581775139362997
-0.000576420013676715
-0.000571010113622458
-0.000565570416432579
-0.000560113391141847
-0.000554647423466409
-0.00054917735048855
-0.000543697576990986
-0.000538184732197978
-0.000532602330028475
-0.000526928710346564
-0.000521162481780313
-0.000515307293420844
-0.000509349889097131
-0.000503299175538759
-0.000497155076093081
-0.000490912882633365
-0.000484587086467339
-0.000473337490685564
-0.000466098263308971
-0.000458697142660657
-0.000451097511905373
-0.00044333732513522
-0.000435453404826349
-0.0004274343420643
-0.000419258749491313
-0.000410914580756031
-0.000402385105209837
-0.000393669909990337
-0.000384766052579536
-0.000375670919308854
-0.000366374890375882
-0.000356858412923099
-0.000347099914547591
-0.000337079400805577
-0.000326773360553151
-0.000316148378112819
-0.000305149351846998
-0.000293711052410123
-0.000281743756401926
-0.000269148185978606
-0.000255771872528738
-0.000241426260983094
-0.000225852182005491
-0.000208821844009185
-0.000185121450905211
-0.000164142524420033
-0.000138851299495944
-0.00010873857756
-7.27101459866755e-05
-2.54582348013316e-05
2.92615117326606e-05
0.000121805146472354
0.000187046945904322
0.000216164672545951
0.000191195735963789
0.00012376817312627
4.27449501241175e-05
-5.04840191061012e-05
-0.000168804877136634
-0.000305691568923771
-0.000437786611594357
-0.000531366788492333
-0.0005665537701804
-0.000539737865780589
-0.00043334483053972
-0.000382206904239429
-0.000349754676599402
-0.000515772348497927
-0.000792882875239307
-0.00119834344271079
-0.0015236054057187
-0.00165005584363634
-0.0026095826391904
-0.00247319761083645
-0.000770007121606512
0.00469810131995936
0.0011565390363698
0.00271795861651775
0.00153332652538367
0.000249687840581741
0.00010427716433369
3.38738838158967e-05
5.82003339416825e-06
-1.71859783016185e-05
-3.7508171587723e-05
-5.82872721669556e-05
-8.02176574970456e-05
-0.000102621564602403
-0.000122205214689168
-0.000137337215169852
-0.000147994201988744
-0.000156000802370703
-0.000169068114514926
-0.000203372579282885
-0.000274390492907161
-0.000342390788350825
-0.000386532098786347
-0.000487101402299001
-0.000525896276797181
-0.000568636947824716
-0.000591378915980239
-0.0006110997231361
-0.000623824708058859
-0.000633918768794531
-0.000641005439307067
-0.000646365291223658
-0.000658707497879879
-0.000658826388679792
-0.000658816315323345
-0.000658007197162845
-0.00065624466889982
-0.000653592286459979
-0.000650148125605372
-0.000646018089007922
-0.000641304950602477
-0.000636116410761774
-0.000630553511860613
-0.000624717788039074
-0.000618709200526024
-0.00061263568334985
-0.000606568659671821
-0.000600543963905916
-0.000594581696704471
-0.000588687887382257
-0.000582864870794553
-0.000577112593443408
-0.000571421380606532
-0.000565763664421054
-0.000560094460529409
-0.000554382426764851
-0.00054861844341272
-0.000542799813167654
-0.000536906107707889
-0.000530940133330347
-0.000524896904393383
-0.000518767035164965
-0.000509686817854989
-0.000500797196576027
-0.000493691151601322
-0.000486386998206879
-0.000478891715524437
-0.000471233100895337
-0.000463441090859309
-0.000455504667037033
-0.000447403459101251
-0.000439124557515945
-0.000430648635863723
-0.000421972185501393
-0.000413090954994046
-0.000404003371240687
-0.00039470030879457
-0.000385160979077589
-0.000375362209600853
-0.00036528333637777
-0.000354901402351682
-0.000344183036940633
-0.000333071308667313
-0.000321499554223002
-0.000309374245718948
-0.000296597152452054
-0.000283007163254723
-0.000268421307037237
-0.000252552243983802
-0.000235170454705603
-0.000212859312936437
-0.000190073735862479
-0.000163827427110898
-0.000132786390892004
-9.53763143383595e-05
-4.65999737415714e-05
1.08475098245339e-05
0.000106870879713763
0.000183303555130255
0.000221764455072197
0.000224320549569266
0.000181986296076806
0.000118296879713583
3.90373535038845e-05
-6.68010775797009e-05
-0.000190847008899989
-0.00030959483270818
-0.000391521721693038
-0.000414853675477962
-0.00037375683715913
-0.000247049123457287
-0.000141169407509485
-1.8003714283186e-05
-2.76554804291163e-05
-0.000116469942105903
-0.000371468488378244
-0.000823352680710099
-0.00174478380409404
-0.00268266690293212
-0.0032116832101329
-0.00268626563219716
0.00460212070068352
0.000831339097739123
0.00380062530110349
0.00186531306629301
0.000443432577066627
0.000191945070443101
7.56661298964885e-05
2.35282484141064e-05
-1.3468662694691e-05
-4.10244993607341e-05
-6.56764281479504e-05
-8.93689744613139e-05
-0.000113443822934773
-0.00013553915414218
-0.000154775060164289
-0.00017128478446476
-0.000187918690330049
-0.000213951873786321
-0.000263870762625297
-0.000341268452261904
-0.000401341441308806
-0.000454587017398223
-0.00055121587097517
-0.000588370441561528
-0.000627840134758577
-0.000648230732605318
-0.000665349372084541
-0.000675885319575929
-0.000683819203093793
-0.000688927733506067
-0.000691694502997597
-0.000701092871006723
-0.000700156628745859
-0.000698841155562809
-0.00069669795344311
-0.000693662169243233
-0.000689824746805932
-0.000685288897738944
-0.000680159135852158
-0.000674536148299239
-0.000668527607269151
-0.000662232011336491
-0.000655747111333941
-0.000649165564100528
-0.000642595025000541
-0.000636105609459188
-0.000629728922536375
-0.000623480651726715
-0.000617360985095966
-0.000611366932078981
-0.00060549435902865
-0.000599730561088871
-0.000594044853480665
-0.000588384852755589
-0.000582710525170254
-0.000577006038888681
-0.000571263637296094
-0.000565457642127483
-0.00055958586296513
-0.000553640242476525
-0.000546869143541264
-0.000536079128626517
-0.000529227912730223
-0.00052217112051721
-0.000514923426077886
-0.000507483119835514
-0.000499870270619963
-0.000492109931650551
-0.000484191702717941
-0.000476096714616059
-0.000467811902590613
-0.000459315900656905
-0.000450602787519317
-0.000441667208575172
-0.000432508757875493
-0.000423118940206063
-0.000413475817623397
-0.000403554657745487
-0.000393334007635052
-0.000382791232593254
-0.000371892590309803
-0.000360578833140747
-0.000348781045536998
-0.000336401146135144
-0.000323340266976482
-0.000309427573691179
-0.000294482238206705
-0.000278187996302403
-0.000260313156608517
-0.00024080073046002
-0.000214398716718839
-0.000187043818324509
-0.00015493227397667
-0.000115940177693642
-6.56225472943212e-05
-5.16548075434668e-06
9.32825044233464e-05
0.00018146744832852
0.000225477154920422
0.000249786539443943
0.000230550784246478
0.000183114929335457
0.000115593807110637
1.92804396516789e-05
-9.40096442858831e-05
-0.000200197749514903
-0.000270059441202912
-0.000280340948416625
-0.000224368883840746
-8.03212752320817e-05
7.15729683447207e-05
0.000266790770270917
0.000384134482062392
0.000450661634337061
0.000313759001577811
-0.000220006541029632
-0.00175228194149231
-0.00301354525125946
-0.00339598312600538
-0.00409315151553847
0.00408432571118712
0.000427070670982442
0.00468996689488821
0.00220213403184404
0.000709493438935742
0.000284525312462112
0.00012478951930414
4.70342610147953e-05
-5.40865644951062e-06
-4.14707143160067e-05
-7.03899052565281e-05
-9.61732033554478e-05
-0.000122497651947772
-0.000147917257748685
-0.000172177571305135
-0.000195467696881046
-0.000221441937075871
-0.000259932770212272
-0.000322309902793236
-0.00040251857017466
-0.00045649949138464
-0.000516693596666735
-0.000607482779978461
-0.000643146828297579
-0.000679280202952959
-0.000697630039577329