/*--------------------------------*- C++ -*----------------------------------*\
  =========                 |
  \\      /  F ield         | OpenFOAM: The Open Source CFD Toolbox
   \\    /   O peration     | Website:  https://openfoam.org
    \\  /    A nd           | Version:  7
     \\/     M anipulation  |
\*---------------------------------------------------------------------------*/
FoamFile
{
    version     2.0;
    format      ascii;
    class       volScalarField;
    location    "20000";
    object      k_diff;
}
// * * * * * * * * * * * * * * * * * * * * * * * * * * * * * * * * * * * * * //

dimensions      [0 2 -3 0 0 0 0];

internalField   nonuniform List<scalar> 
15600
(
0.000542548508658692
0.000380194161080558
0.00016198582998176
3.9229933237219e-05
2.55501698729654e-05
2.27943490485145e-05
1.01086033774976e-05
5.13001517609516e-06
3.31099933530424e-06
2.83253572157633e-06
3.10956082295015e-06
3.84910528349246e-06
5.08313212843189e-06
6.70223993734053e-06
8.58902862983859e-06
1.0514855735814e-05
1.21799807102174e-05
1.35660365879684e-05
1.46255492303368e-05
1.5205489245901e-05
1.6221584935996e-05
2.06753608152208e-05
3.12517910053501e-05
4.35534752189377e-05
5.68377101975121e-05
7.06164278900209e-05
8.47212872481256e-05
9.89405676600642e-05
0.000113249769315117
0.000127565998730225
0.000141867052729634
0.000156097975955479
0.000170223920425689
0.000184199742540889
0.000198000923160093
0.000211615375763181
0.000225060364342695
0.000238295974161136
0.000250941020188223
0.000262924247794312
0.000274182941357227
0.000284660854928967
0.000294308985044355
0.000303088986533132
0.000310972515004737
0.000317948306614113
0.000324020369352587
0.000329201969485717
0.000333513350105387
0.000336979856998248
0.000339631707234376
0.000341503719425399
0.000342632192218374
0.000343055291448997
0.000342807127394487
0.000341923677758415
0.000340450876807346
0.000338438430377853
0.000335941037458834
0.000333009219794156
0.000329696778025983
0.000326049409582154
0.000322112363779216
0.000317907595324754
0.000313457168532398
0.000308779313030699
0.000303906471516217
0.000298883047680509
0.000293739814176965
0.000288483476610822
0.00028313511531213
0.000277693827205042
0.000272172304739717
0.000266585082380612
0.000260937015531437
0.000255229822665568
0.000249463821129942
0.000243638920994412
0.000237754652732367
0.000231806391018394
0.000225785049460005
0.000219681403155118
0.000213479085348748
0.000207166811685868
0.000200714571753546
0.000194107808330737
0.000187289753578065
0.000180252336280795
0.000172884633835604
0.000165470864998465
0.000157880609218274
0.000150022887026658
0.000141490522449433
0.000132554126588142
0.000122361189939099
0.000111824954168716
9.89974562276385e-05
8.67136467678328e-05
6.93106711270846e-05
7.77547495249697e-05
0.000109862943971392
0.000151114207133156
0.000199873221334445
0.000259018403358647
0.000328390503191631
0.000391602668420707
0.000443756823332088
0.000480441934212194
0.000496641133392552
0.000517973262452521
0.000560525744873077
0.00063567835693314
0.000801358694113346
0.0010533593076467
0.00142735351082752
0.00190117646553258
0.0018772439589894
0.0011828409541345
0.000714264311099419
0.00052380967844552
0.00293016803708541
0.00207039081044179
0.000891524017967483
0.000220931576505911
0.000139011455128627
0.000124765277986437
5.63967004248365e-05
2.85463049200099e-05
1.82861991908269e-05
1.55239579664909e-05
1.69255672500282e-05
2.08733252824944e-05
2.7526347918519e-05
3.63110625491495e-05
4.66062452168868e-05
5.71931219468763e-05
6.64135821301269e-05
7.39582379225918e-05
7.96396981647269e-05
8.29484488663627e-05
8.89735491158007e-05
0.000113181343517664
0.000170198842424792
0.000236559090410678
0.000308003077085075
0.000381951291175845
0.000457515280218223
0.000533597275342187
0.000610094497822894
0.000686588060340143
0.000762984341163909
0.000839011406854782
0.000914504079044884
0.00098923778207839
0.00106309553545489
0.00113602418167186
0.0012081527563246
0.00127713166237714
0.00134287489884287
0.00140514199073608
0.00146363404827203
0.00151808295484535
0.00156825659988647
0.00161397339876227
0.00165510364603389
0.0016915993342033
0.0017234830329055
0.00175082026831394
0.00177370894674247
0.0017922715127839
0.00180665411040462
0.00181702449825212
0.00182355902688019
0.00182644185299372
0.0018258403164235
0.00182193437046657
0.0018149516429565
0.00180514055859428
0.00179277297937969
0.00177810296837321
0.00176139961181102
0.00174289586242124
0.0017228192681073
0.00170128520869356
0.00167841616736638
0.00165430703114936
0.00162912656073616
0.00160310630768606
0.00157640411331771
0.00154905529607646
0.00152117853604805
0.00149280308670536
0.0014639437522922
0.00143468461565227
0.00140506753554
0.00137510561173609
0.00134480346391345
0.00131416322123285
0.00128318473133278
0.00125184663813556
0.00122010567103874
0.00118791349894759
0.00115519115884712
0.0011218744590218
0.00108782089700078
0.00105293774152343
0.00101696058091141
0.000979799075537702
0.000940946438616257
0.000900986005091964
0.000859917687688976
0.000817376690608672
0.000771253856733709
0.000722868642674951
0.000667821317218487
0.000610690554001081
0.000541427716013397
0.000474631835626406
0.000381210110432057
0.000427159969926838
0.000593135576556623
0.000806846678912495
0.00105988309677758
0.00136556011463182
0.00172146695725754
0.00205256210328122
0.0023320655275166
0.00253766846428439
0.00264607545856536
0.00277421466408812
0.00300581747894547
0.00340419349759892
0.00423968500529735
0.00549319370873413
0.00728026618002311
0.00942965242058464
0.009519586303612
0.00614162297107825
0.00380843627008657
0.00285112453581678
0.00676141013546133
0.00487394576800666
0.00217666743701799
0.000562569486881798
0.00032896415035348
0.000297378339482385
0.000137681643440351
6.97282267069458e-05
4.44447481880656e-05
3.75152712589295e-05
4.05832046054136e-05
4.98066752406957e-05
6.54693348777822e-05
8.62096839809589e-05
0.000110534605253703
0.000135600671484583
0.000157518792932068
0.000175396570193373
0.000188175853093916
0.000197539730885614
0.000212742861798961
0.000268807106460708
0.000396513624045134
0.000542797335531471
0.000697992781127185
0.000856717926982885
0.00101773606819187
0.00117902404917296
0.00134081942619863
0.00150247220491806
0.00166407237531791
0.0018252339483987
0.0019857873013104
0.0021453616179958
0.00230377935678739
0.00246095755064536
0.00261030586271311
0.00275275378436867
0.00288959959895707
0.00302013536411759
0.00314377085222798
0.00325995144934011
0.00336817331166876
0.00346800957016781
0.00355912511906641
0.00364132500481125
0.0037145351033086
0.0037787599429539
0.00383406738859176
0.0038805789648903
0.00391847001866439
0.00394796588368803
0.00396932429882078
0.00398282940949044
0.00398875479168856
0.00398741442116342
0.00397921649923311
0.00396462353231575
0.00394415004487902
0.00391829093647425
0.00388757615627628
0.00385248503486705
0.00381348664769949
0.00377085482342555
0.00372490965601848
0.00367587782773154
0.00362413811172888
0.00357020240012842
0.00351441608063285
0.00345727114025071
0.00339843758688374
0.00333814539739223
0.00327661169454499
0.00321403032180025
0.00315052780725865
0.00308617576040154
0.00302102316251405
0.00295510995920621
0.00288846808107574
0.00282108724072478
0.00275291462603952
0.0026838728081372
0.00261383927047765
0.00254268658144102
0.00247018261802377
0.00239610776768603
0.00232002958201946
0.00224164154528942
0.00216012855875526
0.00207360708836387
0.00198346545237423
0.00188995552949091
0.00178915241690934
0.00168283752023835
0.00156279181888724
0.00143628035888444
0.00128437602427248
0.00113336740145536
0.00092750137337518
0.00102592341612353
0.00134995165831433
0.00178098229913665
0.00229479786461593
0.00291055774767742
0.00362040688586207
0.00430720315868588
0.00491218675190781
0.00539464496642552
0.00571362534225122
0.00604845610990875
0.00656403015138255
0.00738246543542356
0.00893534615965052
0.0111514034460998
0.0139945039290084
0.0169772543168641
0.0175175210685015
0.0118720172748789
0.00786640715433391
0.0064764148907448
0.008870247886871
0.00725139366418567
0.00366430073019829
0.00109918389014417
0.000550999597851644
0.00049822796981369
0.000237886098706067
0.000120915149720032
7.6893104366938e-05
6.46084063109611e-05
6.9225126549098e-05
8.43222037999169e-05
0.00010996719371141
0.000143620191857449
0.000182505749740029
0.000221882295950878
0.000255759272113525
0.000283691701426296
0.000303590575476836
0.000319273667612627
0.000343446968925976
0.000424418040323296
0.00060019573581967
0.000793708200259302
0.00099800642390115
0.00120470826249005
0.00141517804168854
0.00162633589304467
0.00183936982236659
0.00205311716535284
0.00226780028259479
0.00248263782793312
0.00269721392536242
0.00291065738692727
0.0031223495670039
0.00332271560415899
0.00351234252202997
0.00369844347017044
0.00387733018009185
0.0040481635647277
0.00421012392874117
0.00436246701264783
0.0045045403409675
0.00463580612328536
0.0047558553059942
0.00486444924193001
0.00496149752003488
0.00504701142378785
0.00512108225889524
0.00518386855355323
0.0052355920973692
0.00527653201386479
0.0053070111566715
0.00532738726865451
0.00533801803883507
0.0053393011818732
0.00533171999874424
0.00531581602426868
0.0052921838344653
0.0052613962987586
0.00522406383319557
0.00518075684536923
0.005132032602872
0.00507827050571667
0.00501995278733081
0.00495738694829846
0.00489105036947548
0.00482253889701031
0.00475105979240241
0.00467657781028513
0.00459987318377548
0.00452117916180473
0.00444074482795143
0.00435884280167204
0.00427569772737679
0.00419147380877123
0.00410630606676712
0.00402031665605243
0.00393361554943092
0.00384627057844755
0.00375830556484523
0.00366970769177138
0.00358043002563014
0.00349039528723725
0.00339945799487081
0.00330742299282944
0.00321397139302498
0.00311875896068377
0.00302114818542016
0.002918457920442
0.002808343711119
0.00269460035355179
0.00257368970013335
0.00244593300012695
0.00230363975827064
0.0021508652069583
0.00196849890279304
0.0017791261652953
0.00152269842383518
0.00162966172828885
0.00196401048996596
0.00245037604128021
0.00305149112326775
0.00377381358472966
0.00460761571135843
0.00545748885706341
0.00624909011081717
0.00693863506920573
0.00747747898957377
0.00800206783891405
0.00869848122751362
0.00967128980860534
0.0112812914975093
0.013392857136241
0.01572541534949
0.0178381528975024
0.0190437516996797
0.0135893642329005
0.00867483765887263
0.00792993735583123
0.00572504190319639
0.00669571700273211
0.0045380335882191
0.00187012027282882
0.00079182518576321
0.00069572662795306
0.000345316774612838
0.000176704772663899
0.000112379742516264
9.39385451013557e-05
9.93287476276893e-05
0.0001193887501816
0.000153054656165968
0.000195773538797148
0.000242767541143132
0.000287275417889092
0.000322418293113082
0.000349078662239827
0.000369606080570679
0.000383186792680301
0.000414206631864454
0.000506811671424873
0.000701984452785053
0.000913986866525729
0.00114921673012092
0.00138644681276645
0.00162962939219159
0.00187113971109549
0.00211225869764274
0.00235014277467506
0.00258466819956238
0.00281440860193526
0.00303871719262263
0.00325640945147626
0.00346201217700383
0.00364695096539535
0.0038328225449552
0.00400832736166797
0.00417345541240241
0.00432779947648652
0.0044710241686265
0.00460288090041386
0.00472321085172828
0.0048319486174479
0.00492912325985979
0.00501487717987861
0.00508945276710361
0.00515315351822944
0.00520632048892172
0.00524932144488737
0.0052825450299501
0.00530639741459684
0.00532129936920055
0.00532768076802113
0.00532595886089615
0.00531655338182794
0.00529991457788657
0.00527651969885757
0.00524687154337178
0.00521143720695453
0.00517070277074978
0.00512512344511797
0.00507513130655696
0.00502104426610815
0.00496330806582243
0.0049021484710714
0.00484048922136315
0.00477426072946937
0.00470547134554605
0.00463458425018949
0.0045617686176972
0.00448721169500329
0.00441111435800411
0.00433367711990363
0.004255084227755
0.00417547835156801
0.00409498074267694
0.00401370573444068
0.00393175955360573
0.00384922525312379
0.00376615607833252
0.00368258178760507
0.00359851473396342
0.00351394814723871
0.00342883948678956
0.00334311254590731
0.00325662021037194
0.00316920684255669
0.00308052352733883
0.00299321159269895
0.00289575939223932
0.00279693171842087
0.0026940931852587
0.0025869595965674
0.00247078383926174
0.00234737950834066
0.00220222909751191
0.00205286311816283
0.00184773073967942
0.00186523108264142
0.00206964700941196
0.00243930732270669
0.00294386573713464
0.00357146181364854
0.00431795681303121
0.00513107977941357
0.00594317092660472
0.00671262987513156
0.00737666679672397
0.00798265695166089
0.0086898953843035
0.00955433170233065
0.0108797034202216
0.0126327336493734
0.014684871878253
0.0170446508303611
0.0197250768136748
0.0157484354351154
0.00758188932838438
0.00524230679525405
0.00120197038817927
0.00377509873199836
0.00404533386899585
0.002752138997071
0.00109032066987123
0.000867165757074405
0.000450028739725341
0.000232210066624691
0.000147836467966635
0.000122501126822249
0.000126973730467736
0.000149161299446406
0.000185548579540746
0.000228765289189143
0.000271964687609245
0.000307433830272206
0.0003302177176579
0.00034454789112213
0.00035471310528338
0.000371402979494325
0.000419751179936406
0.000547156564544425
0.000789070529352595
0.00103309802739002
0.0012990806670997
0.00155017370680634
0.00179769633156861
0.00203300295054189
0.0022602436142917
0.00247747605832644
0.0026859185645067
0.00288511825983875
0.0030753773839244
0.00325738511840708
0.00341023787681729
0.00357054306372224
0.00371970024247916
0.00385878073884299
0.00398792263008307
0.00410710057063181
0.00421631576283886
0.00431560377694773
0.0044050427518289
0.0044847537651397
0.00455490533499766
0.00461572374512365
0.00466749970218713
0.00471056270872366
0.00474525952922481
0.00477194744499104
0.00479098809630984
0.0048027464968261
0.00480759505414228
0.0048059105259608
0.00479806098360452
0.00478440251024204
0.00476529556318477
0.00474111534409324
0.00471225534138661
0.00467907088020406
0.00464193170805976
0.00460118545079072
0.00455715283206047
0.00451008840444756
0.00446038055374949
0.00441138294374535
0.00435777964602686
0.00430202893488494
0.00424448975120654
0.00418535631633348
0.0041247680653689
0.00406285166143606
0.00399974275684748
0.00393556499748131
0.00387043877933054
0.00380445534943502
0.00373768840929499
0.00367020662581913
0.00360207037697221
0.00353332630313979
0.00346399834494446
0.00339409469625213
0.00332361216815599
0.00325253519818352
0.00318082463281421
0.00310841992980671
0.00303520962951486
0.00296108758616499
0.00288579822521837
0.00281066391335931
0.00273288326820059
0.00265114174052969
0.00256660235376645
0.00247930293598885
0.00238591510290282
0.00228862796838803
0.0021748557037986
0.00206424822759809
0.001905317623063
0.00181861569413316
0.00191909429237872
0.00218136016856365
0.00257881712272662
0.00309147516569403
0.00371955508730385
0.00444159953680157
0.00520959454299373
0.00599347108568916
0.00673691517751012
0.00743023582117103
0.00818611599618591
0.00903525996528901
0.0102936265181971
0.01207584098207
0.014406604094572
0.0172800316900185
0.020484232890735
0.0201205568347607
0.00913917444749911
0.00318518298305728
0.000879319545279262
0.00160261506467555
0.00269307208634111
0.00339351454877963
0.0014381792357034
0.00100986407550411
0.00054623245391557
0.000283361653679845
0.000180138061587022
0.000146878042221207
0.000147896629293776
0.000168177207602769
0.000201220785241361
0.000237694777233785
0.000270582622810195
0.000293372828995644
0.000305027554884491
0.000312828122636161
0.000324191353873924
0.000355003265858728
0.000436542892830494
0.000616690576471702
0.000898270234273014
0.00113842505025813
0.00138634444762117
0.00160590510756979
0.00181830753812495
0.00201653321857116
0.00220639213627411
0.00238660774280798
0.00255868289936804
0.00272246397521449
0.00287824759134173
0.00301622548734288
0.00315242277127149
0.0032832420973071
0.00340505903083327
0.00351842292197927
0.00362342733937701
0.00372008717364509
0.00380843485139356
0.00388852353645014
0.00396043828498525
0.00402429269567994
0.0040802354859547
0.00412845291319608
0.00416918807274015
0.00420272192644836
0.00422935084807984
0.00424938132226782
0.0042631219309115
0.00427088251115274
0.00427298112195553
0.00426974232678458
0.00426148978007595
0.00424853121151768
0.00423116648711545
0.00420970443555294
0.00418447201122617
0.00415575743663771
0.00412386354802879
0.00408907656561079
0.0040516527863778
0.00401181689066866
0.0039727075203562
0.0039306020925264
0.00388574611258704
0.00383943036949355
0.00379170694019412
0.00374273431771665
0.00369263625921521
0.00364151363403823
0.00358947233586214
0.00353659963789546
0.00348298432257573
0.00342869404901284
0.00337378133043601
0.00331829430071997
0.00326227154473139
0.00320574225632837
0.00314871709131128
0.00309119502727949
0.00303316742528452
0.00297461517841596
0.00291550481493324
0.00285578329139712
0.00279536937511088
0.00273417442471865
0.00267202607476354
0.00260832785786574
0.0025473307727722
0.00248067526344839
0.00241222224816553
0.00234185968663838
0.00226738292317454
0.00219050261296193
0.00210118118277215
0.00201691644064412
0.00189215442644671
0.00175153228668396
0.00178390735146272
0.00196711479653353
0.00227567199960287
0.00268761137006278
0.00320411325690801
0.00382300931581193
0.00451313300096993
0.0052556584267783
0.00601463592082987
0.00676585843804242
0.00758834203474452
0.008502748459147
0.00977348958482764
0.0115243382468345
0.0137187773443974
0.0161137477389253
0.0184471647882877
0.0209880018363397
0.0129454411400187
0.00428720427701274
0.00195144765932807
0.00152472439002158
0.00147694650898869
0.0033740182997819
0.0019582646401935
0.00114651067269617
0.000637466108677044
0.000329799761249987
0.00020768983414273
0.00016494752663915
0.000160247820552549
0.000176191612684654
0.000204219728469461
0.000234593317521657
0.000260887997019814
0.000277677515843449
0.000287046899724108
0.000297980362621113
0.000320017659926653
0.000371630259978128
0.000483674684550174
0.000695137295409861
0.000960752213905973
0.00115870063687463
0.00136289492812846
0.00154209717445706
0.00171811365285473
0.00188389633347209
0.00204399022843574
0.00219691085158538
0.00234353396347524
0.00248357802317807
0.0026183164108092
0.0027328367945376
0.00285380768668823
0.00296629482674011
0.00307126655862772
0.00316900564171731
0.00325954861802439
0.0033428991393857
0.00341907987019101
0.00348813149592022
0.0035501253007582
0.00360515617673221
0.00365335052901452
0.00369486063991716
0.00372989229860292
0.00375869017845005
0.00378151418672552
0.00379863528837814
0.00381032560250707
0.00381685715433708
0.00381851043860911
0.00381557389975469
0.00380834179138577
0.00379709155594203
0.00378208452097708
0.00376358570602471
0.00374187905525839
0.00371720875929185
0.00368983431442043
0.00366000202206266
0.00362792379126799
0.00359541264330106
0.00356275422507055
0.00352604481416111
0.00348803883049326
0.0034488091734332
0.00340841129277341
0.00336698132978931
0.00332463527590115
0.00328146289469431
0.00323755620007495
0.00319298439646907
0.00314782032540793
0.00310212186953267
0.00305593406224571
0.00300929839619365
0.00296224593626363
0.00291480130787788
0.0028669738631501
0.00281876486240126
0.00277017096484877
0.0027211804997727
0.00267177411234312
0.00262191555032842
0.00257155810653137
0.0025206394179755
0.00246906709995088
0.00241644267435236
0.00236695135437505
0.00231209514765636
0.00225670390824871
0.00220014635317076
0.00214129320023354
0.00208104064198581
0.00201286398935098
0.00194913810570989
0.00186018669630833
0.00169874130321036
0.00168178301175294
0.0018020481103122
0.00203548608739324
0.00235976025004094
0.00277634842837813
0.00329630342658643
0.00389956030077153
0.00457289927805088
0.0052946154668052
0.00603634408074888
0.00685461498532918
0.00776639115921588
0.0089516930203217
0.0104752947907222
0.012210878227677
0.0138110392579662
0.015218675425863
0.0181129612452801
0.0157152897034707
0.00710530856878522
0.00461041000142367
0.00266237590383069
0.000865314703609049
0.00263244942395717
0.00264502591541748
0.00129984392636649
0.000732871467425046
0.000377084181502274
0.000232856419416888
0.000178626331072008
0.00016753459817798
0.00018006652921392
0.000205930110771384
0.000234154242846536
0.000257672281976241
0.000272189191428963
0.00028266281274737
0.000299349045185942
0.000333047129180927
0.000401341918392199
0.000528982434747091
0.000739407917747281
0.000953812450281292
0.0011083214389788
0.00127370302088898
0.00142331483037819
0.00157336162885204
0.00171711737458587
0.0018571429330082
0.00199190835097353
0.00212164113507684
0.00224586010664844
0.0023626035823264
0.00246929166563479
0.00257662134005327
0.0026768339361519
0.00277049140035877
0.00285773871132738
0.00293858214551461
0.00301302052650657
0.00308107292342491
0.00314277456842358
0.00319819109536418
0.00324740855938758
0.00329054310711388
0.00332772708716267
0.00335914266981867
0.00338501099978676
0.00340556772119538
0.00342106015289803
0.00343173564850964
0.00343783968463109
0.00343962542165781
0.00343735420009203
0.00343129897074338
0.00342171676500626
0.00340884194348372
0.00339290698907268
0.00337416400431568
0.00335282411213016
0.00332911417062912
0.00330325032639672
0.00327540846523092
0.00325060419099007
0.00322027235349852
0.0031886652092132
0.00315593260881738
0.00312214437697203
0.00308735180434344
0.0030516738952967
0.00301522135230878
0.0029780779818301
0.00294032779904396
0.00290202886007411
0.0028632439056807
0.00282402588185088
0.00278441705934307
0.00274445703591535
0.00270417426667857
0.0026635930520075
0.00262272505957883
0.00258157717285443
0.00254015380054124
0.00249845352591476
0.00245647118582547
0.00241418916190181
0.0023715899156037
0.00232863994917711
0.00228530889382037
0.00224131918030169
0.00220098407487414
0.00215504067082509
0.00210991157714432
0.00206419664874046
0.00201763940075565
0.00197039251495992
0.00191935334563428
0.00187124207491201
0.00181587597333254
0.00164990347467108
0.00159791177680419
0.00166767719040236
0.00183738905544697
0.0020854942085737
0.00241475046813017
0.00284658653181665
0.00336835380684793
0.00396864883950457
0.00463274571071157
0.00532683843424623
0.00608805629806591
0.00692948110022743
0.00794938035567498
0.00915311934759246
0.0103734990588684
0.0112866329250155
0.0121274327024994
0.0145311931490981
0.0157225451368554
0.00976661692405337
0.00657728100568365
0.00462933927409831
0.000893499014465722
0.00155242458025255
0.00326203935592145
0.00147590322933394
0.000833008790255136
0.000432360632680026
0.000261530586999984
0.000193727724024192
0.000176525932062804
0.000187374822092076
0.000212807550692943
0.000239186525152677
0.000259393498658072
0.000271665845689703
0.000283290434693658
0.000304819431240915
0.000346781755018594
0.000423186366176946
0.000551098215133166
0.000740171580479535
0.000900747069680846
0.00102451842454451
0.00116142095714301
0.00129124927654088
0.00142314514070584
0.00155168083449707
0.00167756420278647
0.00179947500098835
0.00191713959511532
0.00203013575742014
0.00212971242946536
0.002234302583023
0.00233166209101307
0.00242278292055912
0.00250800242594461
0.00258739230609924
0.00266094679423855
0.00272866774068091
0.00279057774228501
0.00284671347461896
0.00289714207507992
0.00294194840359994
0.00298124732231441
0.00301516109162089
0.00304385726265087
0.00306754146090299
0.00308643249493178
0.00310076120245999
0.00311075719168127
0.00311664603104152
0.00311865944850694
0.00311703650551715
0.00311203307265158
0.00310389148101429
0.00309282581543925
0.00307904230369753
0.00306276710492148
0.00304418428375329
0.00302349358562121
0.00300088618590926
0.00297938892726185
0.00295610175397941
0.00292969348249729
0.002902205789504
0.00287372917566258
0.00284432810462052
0.0028140461026813
0.00278298722086928
0.00275125763144112
0.00271893719225982
0.00268610432577788
0.00265280874437761
0.00261910534783599
0.00258504390283496
0.00255066555125396
0.00251600951905779
0.00248110315032393
0.00244597149884147
0.00241062922490862
0.00237508923705766
0.00233936333940186
0.00230346008945123
0.00226738612689592
0.00223114127653397
0.00219473018998612
0.00215814729077468
0.00212140592616154
0.00208431903246835
0.00204952708009247
0.00201238377807929
0.0019754968305452
0.00193841155355767
0.00190155336453642
0.00186450352182005
0.00182705712303085
0.00179069260099242
0.00176403636527214
0.00160131932414309
0.0015249260987876
0.0015537577113765
0.00166860418003251
0.00184975173184508
0.00210259991939297
0.0024573142520803
0.00290626275186084
0.00343781340034125
0.00403979367335092
0.00467111299464209
0.00535053204151784
0.00608532115101532
0.00690129298932287
0.00776039850254052
0.00850269538922181
0.0089071720602609
0.009493529452742
0.0115067109293105
0.0138658381318228
0.0112202791164199
0.00754215744213746
0.00648070953062303
0.00136609657241261
0.00108397070374007
0.00297349861908383
0.00168831271317454
0.000928870066380123
0.000496279913444973
0.000297976155173453
0.000215130638634764
0.000191244864202257
0.000199876372694856
0.000223164997912108
0.000245390679186998
0.000261032486576666
0.000270953749342313
0.000283305901444772
0.000307855833626528
0.000353615868068731
0.000430121680936386
0.000548282467843293
0.000709317364436279
0.000826824920598698
0.000930517914559539
0.00104662024989855
0.00116261772733212
0.00128103990960648
0.0013982621050244
0.00151341442142701
0.00162549090471361
0.00173383826504538
0.00183873643881284
0.00193098824204951
0.00202678643940063
0.00211626156534292
0.00220009840314764
0.0022785052194988
0.0023515145101599
0.00241911897666564
0.00248132866508892
0.0025381745968502
0.00258969952754634
0.00263597701984694
0.00267709573984743
0.00271317555519084
0.00274433555160921
0.00277073471664295
0.00279256833118327
0.00281004304691578
0.00282337777180045
0.00283278888503163
0.00283848629315747
0.00284068401710505
0.00283960155900534
0.00283547998500256
0.00282855060499048
0.00281901157922135
0.00280704682030833
0.00279285993935653
0.00277661172683632
0.002758477958601
0.0027393674973318
0.00272264487011262
0.00270059597979992
0.00267753601031192
0.00265351790092485
0.0026286277774824
0.00260292364482907
0.00257643912272348
0.00254926423060706
0.00252150087634419
0.00249322589206658
0.00246451319991989
0.00243540533294138
0.00240595019609142
0.00237619505857097
0.0023461805391722
0.00231594591622935
0.00228551771884621
0.00225492176610396
0.00222417551684169
0.00219329748224639
0.00216230585994495
0.00213121808425241
0.00210005000026595
0.00206881704533954
0.00203754004948717
0.00200623958396194
0.00197495783585729
0.00194358321042946
0.00191147670226431
0.00188348452479374
0.00185336462194214
0.00182333506511285
0.00179428543087008
0.0017654130495221
0.00173879638511273
0.00171143568007702
0.00170829255249261
0.00155241696120755
0.00145924880530808
0.00145443183132082
0.00152120343072496
0.00164261781923027
0.00182802865447937
0.0021149951685483
0.00249898041780763
0.0029669839860674
0.00350701493626959
0.00406988190991008
0.00465681893115449
0.00526708507575033
0.00586204234241069
0.00637678683695742
0.00669408469225109
0.00675537465600355
0.00731803383609226
0.00915488007583439
0.0115269942838973
0.0113111701693833
0.00768617230078921
0.00761078582269809
0.00210924954304004
0.000886909732842923
0.00222271536179886
0.00196633851567392
0.00101738189641626
0.000563063183629608
0.000341079929027023
0.000242992652675454
0.000210774621188947
0.000214756908046309
0.00023306704068664
0.000249479817345948
0.00026047705439858
0.000268367303610682
0.000280929930608457
0.000306546245234263
0.000352152820311677
0.00042328811695539
0.000527106351961792
0.000660928804717354
0.000746982852566584
0.000836916784978322
0.00093719488258729
0.00104272882107417
0.00115049509680964
0.00125870088422585
0.00136518707297333
0.00146925475158614
0.00156991550015118
0.00166862746247051
0.00175395362513343
0.00184252221511747
0.00192538721475276
0.00200304437865045
0.00207562636037758
0.00214314603815103
0.00220560089665833
0.00226301262448761
0.00231542413093247
0.00236288741898053
0.0024054859939495
0.00244331560808018
0.00247650580291047
0.00250517771124289
0.00252948614274373
0.00254961959846893
0.00256577568646305
0.00257816446439895
0.00258699221064956
0.00259245611140454
0.00259475504297635
0.00259409050329485
0.00259068993692526
0.00258477621310235
0.00257653465201363
0.00256612956389063
0.00255374400698889
0.00253951817769508
0.00252360555045036
0.00250999657342454
0.00249337492535113
0.00247414314626456
0.00245399628826689
0.00243300193145911
0.00241124110870141
0.00238876467956414
0.00236559486877809
0.00234180797397184
0.00231750179215395
0.00229275065299852
0.00226762449758606
0.00224215907129109
0.00221639547437653
0.00219037875465015
0.0021641492639614
0.00213774635808767
0.00211119557583886
0.00208452313305779
0.00205774886719131
0.00203089630098378
0.00200398899020665
0.00197705201621146
0.00195010814506539
0.00192318663908701
0.00189631976892387
0.00186955245635271
0.00184294426324597
0.00181644970039852
0.00178966603097682
0.00176657140567654
0.00174203324033456
0.001717927729781
0.00169531118751676
0.001673172795458
0.00165528466447762
0.00163505495124993
0.00165075952737131
0.00150319565124758
0.00139872691525023
0.00136595330747401
0.00139003565740229
0.00145761526796492
0.00158313833331357
0.00181013088868466
0.00213535117531853
0.00254379318821254
0.00302253910480294
0.00351430569617994
0.00400372413060062
0.00447989651165987
0.00484521147641212
0.00501968208287033
0.00496058196322488
0.00482742250944075
0.00554684871471908
0.00734595916477112
0.00939744243961486
0.0104195157589039
0.00738038684148633
0.00771478032794643
0.00307427933203838
0.000746375094887968
0.00157753910316679
0.00230834019194687
0.00110829519955206
0.000627666782359885
0.00038678766812673
0.000274302357329434
0.000232121322036231
0.000228988431796205
0.000240440681562379
0.00025078336197801
0.000257752265534972
0.000263911876400441
0.000276060683692489
0.000301003550669272