/*--------------------------------*- C++ -*----------------------------------*\
  =========                 |
  \\      /  F ield         | OpenFOAM: The Open Source CFD Toolbox
   \\    /   O peration     | Website:  https://openfoam.org
    \\  /    A nd           | Version:  7
     \\/     M anipulation  |
\*---------------------------------------------------------------------------*/
FoamFile
{
    version     2.0;
    format      ascii;
    class       volScalarField;
    location    "20000";
    object      nut;
}
// * * * * * * * * * * * * * * * * * * * * * * * * * * * * * * * * * * * * * //

dimensions      [0 2 -1 0 0 0 0];

internalField   nonuniform List<scalar> 
15600
(
4.34034467187342e-10
3.03592353283773e-10
1.22704522291537e-10
2.47497325915701e-11
1.43837237070369e-11
1.34163218531034e-11
7.01356376573523e-12
4.57278806030966e-12
3.93533656464972e-12
4.37556494291104e-12
6.07292972633173e-12
9.27259869275422e-12
1.48579302758008e-11
2.4059627649767e-11
3.85742489293033e-11
5.99428680996003e-11
8.86225588304781e-11
1.23128438234198e-10
1.5850513396993e-10
1.86003610076567e-10
2.08574899768245e-10
2.63717987402539e-10
3.98242368191239e-10
5.55039187610627e-10
7.24366014087141e-10
9.00005001230954e-10
1.07980819465519e-09
1.26107927737402e-09
1.44350158769037e-09
1.62601730767985e-09
1.80833908195166e-09
1.9897637199339e-09
2.16984324012887e-09
2.34799969142546e-09
2.52391785251858e-09
2.69744189471058e-09
2.86878719503817e-09
3.03765141661974e-09
3.200199168894e-09
3.35434586250847e-09
3.4992681412211e-09
3.63422515044131e-09
3.75856706323661e-09
3.87178274338131e-09
3.97348606384632e-09
4.06351377122568e-09
4.1419046628343e-09
4.20881991192944e-09
4.26451344594109e-09
4.30930654615628e-09
4.34358485028815e-09
4.36779610951027e-09
4.38240716225943e-09
4.38791243894539e-09
4.38475190247219e-09
4.37338760332446e-09
4.35441424498799e-09
4.32847474880756e-09
4.29628017859578e-09
4.25848500112941e-09
4.21578946640798e-09
4.16878491790567e-09
4.11806155304573e-09
4.0639031674394e-09
4.00659118801708e-09
3.94636189878613e-09
3.88363466381228e-09
3.81898317571116e-09
3.7528075647646e-09
3.68519638289329e-09
3.61641761233623e-09
3.54646213492316e-09
3.4754921932512e-09
3.40369532286042e-09
3.33113387599289e-09
3.25783490772553e-09
3.18379840012161e-09
3.10902308617113e-09
3.03350284436578e-09
2.95717801735735e-09
2.87992996687689e-09
2.80164222164635e-09
2.72209986893154e-09
2.64116462521005e-09
2.55843873964107e-09
2.47375312904597e-09
2.38634824714533e-09
2.29616913020404e-09
2.20171390468967e-09
2.10727984554946e-09
2.01061861455179e-09
1.91054962654416e-09
1.80188886825503e-09
1.68807829624937e-09
1.55826734968473e-09
1.42407597599443e-09
1.26071106389028e-09
1.10425288081733e-09
8.83601924090711e-10
9.99715981344327e-10
1.34663227572157e-09
1.64638725528212e-09
1.82866241715291e-09
1.90429942717508e-09
1.89368534918308e-09
1.77759021140193e-09
1.60767151604901e-09
1.41434851906086e-09
1.20166497546797e-09
1.01500066871535e-09
8.69041780183565e-10
7.58574147333146e-10
7.19674561618579e-10
7.38347029066131e-10
8.52177946602899e-10
1.08930501760219e-09
1.19412084889752e-09
8.99498143365031e-10
5.71345220232289e-10
4.17036924915202e-10
8.27453898090297e-08
5.7946468561654e-08
2.36139938956978e-08
4.89043162524e-09
2.78724080355893e-09
2.6050340121509e-09
1.38113194906329e-09
8.94969594454532e-10
7.62646196188376e-10
8.40166484759423e-10
1.15864488006903e-09
1.76311248765122e-09
2.82138164584273e-09
4.56869731665013e-09
7.33295126602484e-09
1.14191283369024e-08
1.69231051544026e-08
2.35488472654382e-08
3.03569168828905e-08
3.56504918202401e-08
3.9989498724505e-08
5.03487444583977e-08
7.59648726913252e-08
1.05803408307542e-07
1.38025993084e-07
1.71439970648575e-07
2.05645213832886e-07
2.40121120927129e-07
2.74816885650244e-07
3.09532461722139e-07
3.44221265816823e-07
3.787536384634e-07
4.13050890694509e-07
4.47007363649509e-07
4.80568106217409e-07
5.13706490045637e-07
5.46465613822287e-07
5.7875059720224e-07
6.09654995176076e-07
6.38985120423809e-07
6.66585974940794e-07
6.92317207178321e-07
7.16055085418705e-07
7.37701243537622e-07
7.57180796931593e-07
7.74460403976637e-07
7.89544241066582e-07
8.02459299761792e-07
8.13249958794044e-07
8.21973425259644e-07
8.2869927512283e-07
8.33508974463279e-07
8.3648806036868e-07
8.37727409326832e-07
8.37308236312847e-07
8.35316641105791e-07
8.31863978959869e-07
8.27071287881298e-07
8.21072617338217e-07
8.13991944362596e-07
8.05961945015001e-07
7.97095341741223e-07
7.87504412893736e-07
7.77243912401379e-07
7.66368667740642e-07
7.54924542287365e-07
7.42992320599635e-07
7.30682239936412e-07
7.18071356803991e-07
7.05177485888249e-07
6.92053192270054e-07
6.78697609920677e-07
6.65142781111671e-07
6.51425577496307e-07
6.37558821535281e-07
6.23547681988343e-07
6.09393672236935e-07
5.9509732187222e-07
5.80658186753844e-07
5.66065572768456e-07
5.51297667418769e-07
5.36332583027337e-07
5.21130357658884e-07
5.0566435686394e-07
4.89860541024059e-07
4.73685113047872e-07
4.56997016534659e-07
4.39780790790339e-07
4.21757086784821e-07
4.03638968171631e-07
3.85086595427356e-07
3.65900228879975e-07
3.45049626543717e-07
3.23252708867935e-07
2.9833897702491e-07
2.72681918354077e-07
2.41310057983495e-07
2.11496970048045e-07
1.68968349950807e-07
1.91908858066623e-07
2.58663041366551e-07
3.16141340892042e-07
3.50970005744518e-07
3.65275844262693e-07
3.62783321701328e-07
3.40260729995366e-07
3.07585971892593e-07
2.70500461217407e-07
2.2995416766775e-07
1.94409425229789e-07
1.66590845936678e-07
1.45659820153138e-07
1.38201312967715e-07
1.41640529350717e-07
1.62744986253502e-07
2.05713211975687e-07
2.23780602553736e-07
1.65377576892907e-07
1.06188749104453e-07
7.909588628521e-08
1.77048176726204e-06
1.24614361338068e-06
5.15211319871654e-07
1.10973081281201e-07
6.21886420957031e-08
5.84157538944256e-08
3.1465300093362e-08
2.03101317317449e-08
1.71524730734764e-08
1.87236891966792e-08
2.56232319568135e-08
3.88047188605979e-08
6.19599678133221e-08
1.00314869717394e-07
1.6124810322651e-07
2.51844327513062e-07
3.74372890498244e-07
5.21380007717859e-07
6.71681576583329e-07
7.87980209507212e-07
8.78051237602962e-07
1.08670962149716e-06
1.63053382684323e-06
2.26553073280939e-06
2.94989281548408e-06
3.6586008393778e-06
4.38316958349559e-06
5.11257887451499e-06
5.84631415614779e-06
6.5804241760509e-06
7.31445646500111e-06
8.04600203704585e-06
8.77379814823012e-06
9.49586056627319e-06
1.02112504161338e-05
1.09194575582037e-05
1.16213965244352e-05
1.23005280737986e-05
1.29509152653092e-05
1.35696709818696e-05
1.41536599491908e-05
1.47000026861749e-05
1.52061233225554e-05
1.56699200935341e-05
1.60897512422691e-05
1.64647904396116e-05
1.67949399914674e-05
1.70805462833132e-05
1.73222994196137e-05
1.75211519098014e-05
1.76783159041005e-05
1.7795254114658e-05
1.78735345823503e-05
1.79148470063645e-05
1.79207157842165e-05
1.78927991819993e-05
1.78332845236785e-05
1.77445868792701e-05
1.76294034845471e-05
1.74902597290228e-05
1.73298738111407e-05
1.71505932295459e-05
1.69547608837716e-05
1.67435696985268e-05
1.65182546438576e-05
1.6279837288864e-05
1.60300727624109e-05
1.57713396066781e-05
1.55053151576819e-05
1.52324629972255e-05
1.49539866868428e-05
1.46701898794115e-05
1.43814586932403e-05
1.40887019734131e-05
1.37923647252878e-05
1.34926412284701e-05
1.31896420843104e-05
1.28834505120858e-05
1.25741235787373e-05
1.22614995623607e-05
1.19451853991114e-05
1.16247603248466e-05
1.1299451021801e-05
1.09687014061687e-05
1.06310457951641e-05
1.02857086254396e-05
9.92988351696056e-06
9.56301272208074e-06
9.17953217143427e-06
8.78811079687262e-06
8.38590162048881e-06
7.97043818805758e-06
7.51860491254112e-06
7.04714214572742e-06
6.50685876391999e-06
5.95218570288253e-06
5.27027897014379e-06
4.62670795504273e-06
3.69843966341174e-06
4.24031396208717e-06
5.68068712964285e-06
6.90601686093279e-06
7.64240744950077e-06
7.9342367191983e-06
7.8583821008972e-06
7.3643744595897e-06
6.65648513207881e-06
5.85679609452243e-06
4.99016099548255e-06
4.22586458840859e-06
3.62312300608299e-06
3.16783030134542e-06
2.98875756115738e-06
3.03379604821008e-06
3.42489136919396e-06
4.21607567498049e-06
4.53756534982651e-06
3.2016513146236e-06
2.06855134538307e-06
1.63504896149333e-06
1.24202346131287e-05
9.08589913965674e-06
3.95417954970045e-06
9.26672887707705e-07
5.1148895924716e-07
4.84567190804906e-07
2.65569950094098e-07
1.70941894066933e-07
1.43039684480183e-07
1.54549320393993e-07
2.09371757579555e-07
3.14758284992308e-07
5.00332808307098e-07
8.08369270705176e-07
1.29918820778276e-06
2.03179438816454e-06
3.0221174347032e-06
4.20091843774002e-06
5.37479634030587e-06
6.25453407421328e-06
6.80728407075573e-06
8.18562856363661e-06
1.21309680572072e-05
1.67157395105312e-05
2.16138224051387e-05
2.66366022697985e-05
3.1725219057042e-05
3.67990263442585e-05
4.18620856751887e-05
4.68882133679674e-05
5.18801296793479e-05
5.68237596787204e-05
6.17143405073373e-05
6.65402059008495e-05
7.12964208492092e-05
7.59780132811092e-05
8.05062496030574e-05
8.48366276907579e-05
8.89705557431444e-05
9.28921432452859e-05
9.6585932929013e-05
0.000100037852704405
0.000103235440871549
0.000106168762158331
0.000108830325589934
0.000111217120060043
0.000113329969574968
0.00011517188192356
0.000116747514371173
0.000118062751353826
0.000119124736760512
0.000119941845750702
0.000120522932195631
0.000120877425852869
0.000121013737050216
0.000120941022535248
0.000120671401486943
0.000120218314194769
0.000119596845433575
0.000118821181232285
0.000117906709570561
0.000116866886336941
0.0001157152515795
0.000114458869395433
0.000113105397222767
0.000111661000987387
0.000110136254552955
0.000108545543684053
0.000106898930619999
0.000105204160112858
0.000103461490187966
0.000101675156053413
9.98493226706851e-05
9.79899374039606e-05
9.61003702999937e-05
9.4182425055149e-05
9.2237363018006e-05
9.02662402707148e-05
8.82699139351255e-05
8.62478740688516e-05
8.41981574969735e-05
8.21184552779806e-05
8.00043438066711e-05
7.78523668781705e-05
7.5653704621459e-05
7.34029743492633e-05
7.10828798245497e-05
6.86882464451719e-05
6.61842412299576e-05
6.35773822115549e-05
6.08650833314697e-05
5.80551445671486e-05
5.49852973452697e-05
5.17716918184101e-05
4.80591257254985e-05
4.42296671593319e-05
3.94573261046074e-05
3.49333501289725e-05
2.82669686858184e-05
3.2603108537079e-05
4.26744385507583e-05
5.10522116519704e-05
5.60282420720464e-05
5.79560355846168e-05
5.7365967675157e-05
5.39803119477804e-05
4.90761284809882e-05
4.34740468057696e-05
3.73450129944687e-05
3.18247655367956e-05
2.73933408416583e-05
2.39731037813971e-05
2.24626389754845e-05
2.24824320911944e-05
2.47354969853811e-05
2.94210560886625e-05
3.15122933415533e-05
2.08129783121606e-05
1.28345048233564e-05
1.07154958200164e-05
4.20663941760756e-05
3.34918327029554e-05
1.61870616451108e-05
4.53172149502961e-06
2.47729075778148e-06
2.37249638151262e-06
1.32387585024193e-06
8.50443818838058e-07
7.04578651541863e-07
7.51919226568414e-07
1.00491730669723e-06
1.49392615529501e-06
2.35514729535526e-06
3.78253406483358e-06
6.05129526126042e-06
9.41870041471707e-06
1.38946732317842e-05
1.907495823671e-05
2.39263500829203e-05
2.71128090154046e-05
2.84775421210454e-05
3.3314327583945e-05
4.86225225687193e-05
6.58903744615122e-05
8.39783590463078e-05
0.00010201272286825
0.000119873735422855
0.000137259637390953
0.000154262939667616
0.000170810053271588
0.00018695744286289
0.000202680469342623
0.000217993532773562
0.000232877108899737
0.000247331364538035
0.000261218217174374
0.000274385278147429
0.000286888509578856
0.000298711461757185
0.000309829942659701
0.000320220436298229
0.000329862273710481
0.000338738044816029
0.000346835871376541
0.00035414910376971
0.000360681762153762
0.000366446405528053
0.000371459732786282
0.000375741297321919
0.000379312507660256
0.000382196850986465
0.000384419897216042
0.000386007552013711
0.000386986373556247
0.00038737948744169
0.000387211314444316
0.00038651323078155
0.000385319521637762
0.000383668353602142
0.000381595314206335
0.000379138987796843
0.000376333146389562
0.000373211864716158
0.000369792704256021
0.000366095505115458
0.000362135596625866
0.000357940067300426
0.000353556982704694
0.000348996698365452
0.000344275099573204
0.000339399544948376
0.000334381757358068
0.000329233312962124
0.000323969957849767
0.000318601078874751
0.0003131318636942
0.000307566084455126
0.000301906981107496
0.000296157250139008
0.000290315880055701
0.000284377790573746
0.000278336752880077
0.000272180652784493
0.000265899612170133
0.000259468752547507
0.000252871886637853
0.000246059070399085
0.000239013146198374
0.000231631149788967
0.000223873999352908
0.000215654713617494
0.000207094036526902
0.000197670345004057
0.000187746796240647
0.000176132357063536
0.000164055914524941
0.000148641451695649
0.000133936792746618
0.000111256214653392
0.000126843252162665
0.000159671020772122
0.000186574709465578
0.000202757454190399
0.000209471002977777
0.000208407927100729
0.000198512399049669
0.000183283841863165
0.00016521073854155
0.000144618236479636
0.000125279062168073
0.000109299622758166
9.64536565213688e-05
9.04140762836739e-05
8.98205190661898e-05
9.69536766958153e-05
0.000112344025086338
0.00012190901627058
7.82073787634762e-05
4.31493776821252e-05
3.49906595959948e-05
9.06099923323131e-05
7.78189475561157e-05
4.23357655630452e-05
1.53742878681766e-05
8.70085931593554e-06
8.44283904696297e-06
4.79725358191348e-06
3.07779714886482e-06
2.52109422704548e-06
2.64828636510625e-06
3.47488942014857e-06
5.08136956657571e-06
7.90146638024228e-06
1.25348934697667e-05
1.97925894268084e-05
3.0285169526916e-05
4.35884906653597e-05
5.79890834295536e-05
7.01577181357385e-05
7.64358072169951e-05
7.82182780735801e-05
9.06654128059729e-05
0.000130779684847675
0.000173168500052312
0.00021648711785241
0.000257887418332747
0.000297803658071669
0.00033554131194794
0.000371648435093931
0.00040603923368947
0.000438999316099689
0.000470552766802769
0.000500821442081497
0.000529822151218971
0.000557535557826888
0.000583626310732611
0.000608244642432994
0.000631424707266368
0.00065316319290668
0.000673451421011295
0.000692278601544481
0.000709635983848812
0.000725517737025894
0.000739925023700469
0.000752865817465133
0.000764364745971829
0.000774458924522611
0.000783190344176023
0.000790603851123208
0.00079674562621577
0.000801663808022868
0.000805408597120378
0.000808029557069544
0.000809576171398508
0.000810090830328805
0.00080961732957863
0.000808210576026262
0.00080592986107553
0.00080284070614673
0.000799003653980181
0.000794484241317921
0.000789339773279782
0.000783627971450777
0.000777377941082685
0.00077062397587162
0.000763391375500011
0.000755755432696969
0.00074774472465285
0.000739393372611139
0.000730728881450531
0.000721765726606983
0.000712523384935295
0.000703021335307882
0.000693286009704968
0.000683333211089391
0.000673171172085625
0.000662805692203889
0.000652241731697782
0.000641483323807703
0.000630527890027274
0.000619365349375676
0.000607983421730384
0.000596359085378537
0.000584473106156616
0.000572278531773039
0.000559743794110599
0.000546773945920572
0.000533334956224122
0.000519228186776247
0.000504412700477844
0.000488465332439432
0.000471797024601499
0.00045334673252389
0.00043384023952533
0.000410787952115351
0.000386726341292311
0.000355348991234146
0.000325606738678501
0.000277110153565317
0.000308208470123031
0.000374728610995042
0.000430588304984582
0.000465876728356351
0.00048265066127057
0.000484197672098036
0.000467886312849356
0.000439673387583112
0.000404332287672837
0.000361873068133643
0.000320042693588789
0.000284555398637438
0.000254787224849452
0.000240812476107214
0.000239719039663959
0.000256626200570186
0.000292373566435649
0.000321201020863484
0.000216867245817078
0.000107502161276501
7.79864843178086e-05
0.000151769800177944
0.000138544901627389
8.12161066262727e-05
3.85421401257483e-05
2.44338547661111e-05
2.42015779819281e-05
1.40119853969837e-05
8.99009078525172e-06
7.26710276885194e-06
7.47876545352746e-06
9.57729000145118e-06
1.36904819026812e-05
2.08619501666406e-05
3.2424888102289e-05
4.99770356680063e-05
7.40913640729408e-05
0.000102455254389509
0.000130461936038606
0.000151319956698807
0.000159835303356177
0.000162876818644775
0.000190561708220431
0.000271704176297205
0.000349727784624752
0.000427955560491192
0.000499397820937656
0.000566945357814441
0.000629275990009549
0.000688019973272805
0.000743114141852301
0.000795290339160329
0.000844681425900672
0.000891606507594791
0.000936174588888311
0.000978106748851614
0.00101745776554548
0.00105441420558834
0.00108902499587473
0.00112132052423017
0.00115132131924759
0.00117904095833252
0.00120449233416644
0.00122768949565893
0.00124865369564656
0.00126741394840711
0.00128402138236011
0.00129854292604427
0.00131105050482938
0.00132161829041486
0.00133032076365968
0.0013372337923393
0.00134243480693196
0.00134599933318792
0.00134800164135796
0.00134850486288362
0.00134757347854817
0.00134528704085824
0.00134173093705282
0.00133699916703688
0.00133117798773513
0.00132436077914822
0.00131662923320536
0.00130806535571278
0.00129870995859732
0.0012886133791663
0.00127784510265109
0.0012664615330684
0.00125450043175512
0.00124202128106157
0.00122906318651077
0.00121564683828645
0.00120179864394368
0.00118754543199167
0.00117292363082163
0.00115795483363321
0.00114264924891455
0.00112701352711397
0.00111105320621178
0.00109477246580787
0.00107816573328862
0.00106121609554178
0.00104390309800014
0.00102619047953292
0.00100804697124274
0.000989400222840848
0.000970199320545203
0.000950298537426262
0.000929641836981259
0.000907923232634999
0.00088511872477193
0.000860413739340834
0.000834470628730826
0.000805658473419928
0.000775099407730532
0.000738779366447092
0.000700788455652727
0.000650429722066781
0.000603333789016427
0.000522195810170194
0.000565691612735488
0.000669771230499636
0.000761971483936303
0.000823960386167969
0.0008573353861245
0.000866926570398682
0.000848129099629515
0.000808932648585104
0.000756613149854988
0.000690397787093883
0.000622174554041195
0.000563196155652115
0.000511980505983757
0.000488695365329198
0.000488870182754327
0.000520951505088313
0.000585069043696247
0.000642252136283359
0.000476028224068942
0.000229720993901852
0.000145875093833908
0.000246594027865923
0.000215021987938206
0.000128764509416458
7.50753823103624e-05
5.63423559716336e-05
5.87419358203843e-05
3.48148863962674e-05
2.24022334213759e-05
1.78427492507707e-05
1.78964467583694e-05
2.22329062811997e-05
3.08889348491637e-05
4.58554809584424e-05
6.93165676022939e-05
0.000103352073799276
0.000147109840895402
0.00019444762091628
0.000237200269608389
0.000265882515437852
0.000276667758999146
0.000285350901737307
0.00033883397291064
0.000474416007773617
0.000592655171973729
0.000710661140257128
0.000814356836706103
0.00091159072255427
0.000999857447776801
0.00108240899209723
0.00115912117935299
0.0012312967654717
0.0012991800518729
0.00136332274601383
0.00142380025954658
0.00148036262143312
0.00153336348004362
0.00158298393168771
0.00162930669313432
0.00167240254414564
0.00171232531274917
0.00174911672789581
0.00178281443741999
0.00181345517492153
0.00184108265265882
0.00186574936527068
0.00188753500091315
0.00190653813341248
0.00192286232143898
0.00193661254039389
0.00194789291666635
0.00195680819293635
0.00196346391301737
0.00196796238761639
0.0019704032613562
0.00197087103952079
0.00196945144668519
0.00196624892910556
0.00196137522953125
0.00195495316606535
0.00194709474528416
0.001937921451766
0.00192753971635785
0.00191605596154282
0.00190352305778426
0.00189003792673274
0.00187566691817915
0.00186045187865393
0.00184445284053174
0.00182775202887834
0.00181039998269643
0.00179242298453353
0.00177385364481444
0.00175472569548916
0.00173508476236518
0.00171495766702258
0.00169435576382211
0.001673285617197
0.00165175243200736
0.00162975955526667
0.0016072973251453
0.00158434073623956
0.00156085952142015
0.00153680283557252
0.0015121252087234
0.00148672756648873
0.0014605361717861
0.00143335325155722
0.00140509483053918
0.00137534754878908
0.00134408221781422
0.00131018244028912
0.00127440047617874
0.00123460665970698
0.00119227849133401
0.00114184994639428
0.00108900772594247
0.00101816613069988
0.000952880015928743
0.000835079349527761
0.000883851088608319
0.00102402720674187
0.00115672062290779
0.00125165740702976
0.00130790257267558
0.0013312735866756
0.00131518968962951
0.00126909493114359
0.00120272980869425
0.00111443456773232
0.00101965573796758
0.000936560503782223
0.000862460042210154
0.000829892186738347
0.000833207645385722
0.000883728452522658
0.000979515948298239
0.00106670804706993
0.000858383783688455
0.000438601983130115
0.000251762992671135
0.000370189879783466
0.000323021233911411
0.000183346396822226
0.000120954951802863
0.000107787698097964
0.000123044993748617
7.56305550166311e-05
4.90537848259687e-05
3.85013372911601e-05
3.74820339203975e-05
4.49733562718193e-05
6.05141013333485e-05
8.72156247204472e-05
0.000127680935198941
0.000183407181795073
0.000250268112648264
0.000317313787450534
0.000373827911487278
0.000409750694365815
0.000425434088279296
0.000446815854623412
0.00053651548836183
0.000733142413835396
0.000891593817855827
0.00105090118512301
0.0011868985161401
0.00131435287340658
0.00142886399577474
0.00153561706340968
0.00163429684797409
0.00172681640573255
0.00181351253451174
0.00189519009804186
0.0019717047806234
0.00204320162025377
0.00211009977723588
0.00217260175000554
0.00223083341769372
0.00228490809564582
0.00233491470038014
0.00238092504550538
0.0024230032125998
0.0024612103268099
0.00249561404602905
0.00252629199421658
0.00255335355314498
0.00257692993037849
0.0025971572618169
0.00261417211198782
0.0026281089814631
0.00263910203697895
0.00264728525783806
0.00265278803719593
0.00265573553926656
0.00265623401339409
0.00265439070730929
0.00265033484330298
0.00264420435779622
0.0026361508607001
0.00262631169915498
0.0026148364147726
0.0026018562173376
0.0025875018251519
0.00257185463010848
0.00255505496280348
0.00253712438663461
0.00251812032018715
0.00249812358543998
0.00247723681806127
0.00245552170003905
0.00243300972848754
0.00240973913434467
0.00238575023021104
0.00236109707940427
0.00233581125978728
0.00230990468477338
0.00228338316552423
0.00225625093283088
0.00222850978045583
0.00220014518441627
0.00217112326936166
0.00214140278992547
0.00211091769603245
0.00207960667295843
0.00204734384587473
0.00201402975222345
0.0019794159758732
0.00194338453650762
0.00190542160663771
0.00186547044883459
0.00182220061160554
0.00177630512841427
0.00172527168114871
0.00167084007902645
0.00160599421420483
0.00153791016062428
0.00144601994349304
0.00136237813521249
0.001206365581553
0.00125248774668581
0.00142416622221555
0.00159854991804628
0.00173080652301352
0.00181513602807524
0.00185737753255626
0.00184910021887145
0.00180064930374095
0.0017239912601009
0.00161673424052339
0.00149706223012321
0.00139077353485127
0.00129394414437739
0.00125227860612288
0.00125936346162966
0.00132883543947114
0.0014557735527255
0.00157117691955051
0.00133841801064353
0.000751999431850015
0.000412952912041735
0.00053661618669045
0.000473265564953834
0.000246653538199144
0.000171249019813808
0.000174582318236546
0.000223454324868988
0.000145747012799738
9.59092750765603e-05
7.44025449026605e-05
7.02128955086651e-05
8.12556231335428e-05
0.000105832488847538
0.000147965745592395
0.000209551916982971
0.000290025805954414
0.000380668614204473
0.00046624617852195
0.000535369863065887
0.000579507022212061
0.000604715524026828
0.000646502826588949
0.000780337458255022
0.0010383562877194
0.00123556929070842
0.00143609529291745
0.0016039061957037
0.00176162286556006
0.00190244083207224
0.00203357210755487
0.00215442454299005
0.00226750792303613
0.00237323868300113
0.00247263967155945
0.00256534505154439
0.00265199074262273
0.00273296500878142
0.00280850926138213
0.00287879791170655
0.00294398829054924
0.00300420630928342
0.00305955584606643
0.0031101291948087
0.003156013689165
0.00319730250068767
0.00323409999913067
0.00326654617046771
0.00329480558600686
0.00331904760580795
0.00333944084286239
0.00335615057230324
0.0033693405762586
0.00337917322710968
0.00338580492140473
0.00338938616256338
0.00339004507390679
0.00338791043786964
0.00338313580803694
0.00337588473277008
0.0033663372426158
0.0033546551358493
0.00334101564978287
0.00332557445127285
0.00330848601615821
0.00328990637615524
0.00326992845601919
0.00324857454764863
0.00322591764646284
0.00320205787570915
0.00317711612945364
0.00315116474372813
0.00312424014420331
0.0030963856667193
0.00306764790543809
0.00303808859228855
0.00300774358422754
0.00297662489926968
0.00294473710504972
0.00291208299965275
0.00287866227415691
0.0028444549853835
0.00280941793608472
0.00277349811343766
0.00273661412270197
0.00269868762464604
0.00265956661015794
0.00261912360997507
0.00257706246642497
0.00253322559837777
0.00248700916684344
0.00243830895722618
0.0023856621371992
0.00232955611893245
0.0022672503165566
0.00220061948280433
0.00212137863703812
0.00203797546249887
0.00192510503586354
0.00182319208652694
0.00162937182788709
0.00166564484956675
0.00186268528572128
0.00207757870922975
0.00224958814363403
0.00236590043206037
0.00243116911315796
0.00243520695864379
0.00238876967070431
0.00230566540203252
0.00218302340244157
0.00204094631559772
0.00191297106497074
0.00179417830651933
0.00174318602064171
0.00175308955444371
0.00183984863959368
0.00199520991840234
0.00213704238650673
0.00188988193239897
0.0011671593718153
0.000646248716985961
0.000749896216275747
0.000689170858660006
0.00032317478488685
0.000223306631394334
0.00024815078607422
0.000353568381409872
0.000251891757751191
0.000169304537645169
0.000130545573971013
0.000119698872827872
0.000133828833148917
0.00016901287840276
0.0002294250076592
0.000314615618161378
0.000420666738209204
0.000533969109438996
0.000636467858814819
0.000717882798401689
0.000772629120358421
0.000812778996151442
0.000881924770609979
0.00106470060854544
0.00138078923078427
0.00161557378782557
0.0018564569290939
0.00205562540150876
0.00224344044136227
0.00241056351871385
0.00256613690053417
0.00270928149120896
0.00284305490950976
0.00296795674920124
0.00308510160320213
0.00319416997527271
0.00329608019160407
0.00339122391570056
0.00347989313310139
0.00356231470721052
0.0036386918286032
0.00370918983941401
0.00377394703862155
0.00383308604650844
0.0038867224899992
0.00393497680112915
0.00397798175062239
0.00401590871665646
0.00404895618294482
0.00407732712974394
0.00410122238036119
0.00412083807478344
0.00413636746211818
0.00414800091471831
0.00415592138308311
0.00416030419989142
0.00416129920311799
0.00415905641894955
0.00415375295299505
0.00414557693904063
0.00413473611392714
0.00412141531829999
0.00410581880442995
0.00408812597532805
0.00406854241913557
0.00404726170767887
0.00402432045410822
0.0039997598030362
0.00397366764850564
0.00394616184564579
0.00391737945202832
0.0038874027333422
0.00385627274580793
0.00382403742774341
0.003790749317003
0.00375647700004433
0.00372126007293875
0.00368511025994181
0.0036480305063122
0.00361002184002728
0.00357108141050558
0.00353118344482677
0.00349027519375422
0.00344829139904605
0.00340513551362148
0.00336071142163751
0.00331484209287812
0.00326737043304004
0.00321795624964621
0.00316639769326953
0.00311201283780258
0.00305463348239833
0.00299271704674285
0.00292646958326451
0.00285303276869549
0.00277429265894746
0.00268092298106574
0.00258234690836897
0.00244903993589085
0.00232902390049725
0.00209922176971869
0.00211975371134836
0.00233545822121024
0.00258791564318577
0.00280032262446567
0.00295115023276862
0.00304258753337189
0.00306269521946091
0.00302221326346479
0.00293632101547439
0.00280192573768011
0.00264031205567388
0.00249235637416087
0.00235250497277126
0.00229134336608894
0.00230160871498585
0.00240249200923955
0.00258253632203126
0.00275042111257807
0.00249508535113685
0.00166689794519327
0.000964128385880266
0.00101043575858074
0.000991852950478502
0.000419567691129884
0.000278700181205932
0.000319173761284704
0.000493737594878895
0.000394870147979827
0.000272911245846432
0.000210579525830031
0.000188588225402519
0.000204424493321132
0.000250998239290485
0.000331350977143953
0.000440953192466866
0.00057181229865705
0.000705962767743078
0.00082417736390678
0.000918544662345884
0.000987125528159315
0.00104753514491007
0.00114964870787289
0.00138347706765167
0.00175286632332855
0.00202464837339958
0.00230457799458347
0.00253477112073676
0.00275236100115316
0.002945724239339
0.00312568332256313
0.00329113334433861
0.0034456068948726
0.00358971376314311
0.0037245332942251
0.00384999955087926
0.00396717167779733
0.00407647082561599
0.00417824739433353
0.00427278420920196
0.00436033270006667
0.00444110054233136
0.00451526315522649
0.00458297587835205
0.00464438492205626
0.00469963982941479
0.00474890341565215
0.00479237910372613
0.0048302996479397
0.0048629017780722
0.00489041837375289
0.00491307620733998
0.00493109750231762
0.00494469988525356
0.00495409203941109
0.00495947327883191
0.00496101467200769
0.00495888687716611
0.00495328944398306
0.00494443361353147
0.00493255379739893
0.00491785593260795
0.00490057030851812
0.00488090602501089
0.00485914812534353
0.00483544655402475
0.00480982861179618
0.00478235127172417
0.00475311637290329
0.00472225780824021
0.00468992668400268
0.00465621422828519
0.00462116575527471
0.00458483328520569
0.00454727489024503
0.00450856513493893
0.00446874672430137
0.00442783070023575
0.00438581807755747
0.00434270786050948
0.00429849429309148
0.00425314546736115
0.00420659900979859
0.00415877720692888
0.00410956879340875
0.00405885952768672
0.00400644874418356
0.003952148793717
0.00389557953889885
0.00383649143215699
0.00377413659650721
0.00370827014740319
0.00363727627479601
0.00356112966532631
0.00347685443732021
0.00338625953133899
0.00327922712612147
0.003165811431651
0.00301298705828097
0.00287508693618959
0.00261209524909613
0.00261245952639193
0.00284017245002241
0.00312602046806916
0.00337791391654578
0.00356446253688621
0.00368417634942315
0.00372327885244244
0.00369213129892994