/*--------------------------------*- C++ -*----------------------------------*\
  =========                 |
  \\      /  F ield         | OpenFOAM: The Open Source CFD Toolbox
   \\    /   O peration     | Website:  https://openfoam.org
    \\  /    A nd           | Version:  7
     \\/     M anipulation  |
\*---------------------------------------------------------------------------*/
FoamFile
{
    version     2.0;
    format      ascii;
    class       volScalarField;
    location    "20000";
    object      p;
}
// * * * * * * * * * * * * * * * * * * * * * * * * * * * * * * * * * * * * * //

dimensions      [0 2 -2 0 0 0 0];

internalField   nonuniform List<scalar> 
15600
(
3.5118162869597e-09
0.00448750900166937
0.0188689872181747
0.0315557294989041
0.0397056205433316
0.0433942063961507
0.0464893061383582
0.0480531154858864
0.0491035771203906
0.0496432739898601
0.0500957948435629
0.0503745829971557
0.0507424079539361
0.0511565617757376
0.0516719953478223
0.0522375367951279
0.0527191927467029
0.0530702105119625
0.0532467538478575
0.0532401913410515
0.0529345951570777
0.0518849118639662
0.0517290804872087
0.0517271076612976
0.0522476490698708
0.0531334194059815
0.0544173430136572
0.0560322593659303
0.0579605118326069
0.0601656726863798
0.06262661076808
0.0653189370446581
0.0682235134152736
0.0713206110378653
0.0745924587301047
0.0780209033302563
0.0815881877470738
0.0852766405705775
0.0890687993485204
0.0929474659348188
0.0968957507939477
0.100897161137649
0.104935647231084
0.108995808915026
0.113062860911909
0.11712292372683
0.121163185916688
0.12517194105649
0.129138618507743
0.133053756870502
0.136908990308577
0.14069705763066
0.144411704237927
0.148047727520266
0.151600809342822
0.155067471794669
0.158445185362632
0.161732238186754
0.1649278005471
0.168031687071397
0.171044443915201
0.173967046975092
0.176801042463196
0.179548213174429
0.182210598888755
0.184790562198934
0.18729076378634
0.189714157794149
0.192063925676995
0.194343362870976
0.196555789712671
0.198704673917277
0.200793487404541
0.202825855956533
0.20480536376555
0.206735638152292
0.208620309751079
0.210463035949101
0.212267483249739
0.214037367297317
0.215776349302142
0.217488317206908
0.219176912211532
0.2208464196432
0.222500338913917
0.224143895431686
0.225779989708855
0.227416209479724
0.229053214056149
0.23070472279832
0.232363886335543
0.234060916625516
0.235765793900858
0.23755450611712
0.239326222650407
0.241282998177805
0.243115540752511
0.245368075923926
0.247151401752187
0.249814616370335
0.252200338665531
0.25468454936341
0.256971477892756
0.258905734366776
0.26014526681709
0.259993047082324
0.258138419318084
0.25437684507447
0.24868767326589
0.241775662537445
0.233219665884752
0.221491062054459
0.205532414140202
0.1782522901578
0.135746703292352
0.0715944935894125
-0.0135153425018989
-0.0961261660564787
-0.0787363803172429
-0.0338812046685066
6.89211422401499e-06
0.0044920284700345
0.0187888514543098
0.0313878704750353
0.0395602069388038
0.0432962429933504
0.0464192455891175
0.0480161226717386
0.0490858711142565
0.0496380989301381
0.0500969561164802
0.0503787624435251
0.0507446673470501
0.051155951217838
0.0516680870887368
0.0522337191941896
0.052718912893018
0.0530740338652785
0.0532532513303084
0.0532480176177169
0.0529412181480416
0.0518913346078877
0.05173893206486
0.05173778487162
0.0522600401331242
0.0531471624239274
0.0544324131949479
0.0560484169014843
0.0579775827982834
0.0601834491773114
0.062644908636968
0.0653375732997678
0.0682423181429635
0.0713394216490244
0.0746111224966699
0.0780392753824095
0.0816061342456841
0.0852940410458324
0.0890855452846505
0.0929634600965139
0.0969109082198056
0.10091140956394
0.104948927314829
0.109008074265305
0.113074078005399
0.117133071309854
0.121172253952501
0.125179929715475
0.129145537150636
0.133059623036642
0.13691382867444
0.140700898920745
0.144414584247052
0.148049686181723
0.151601890194423
0.155067721233456
0.158444651448773
0.161730969738913
0.164925846170323
0.168029094631134
0.171041259797129
0.173963315887839
0.176796806948171
0.179543514391124
0.182205476620282
0.184785054080242
0.18728490463429
0.189707978315114
0.192057452852321
0.194336621541454
0.19654880313765
0.198697465184608
0.200786077494597
0.202818260763741
0.204797595991591
0.206727708686571
0.208612227866396
0.210454808666342
0.212259115341609
0.21402886162634
0.215767706708807
0.217479536649642
0.219167990549073
0.220837351984035
0.222491118086311
0.224134513250565
0.22577043437579
0.227406470622418
0.229043272524417
0.230694567498909
0.232353483828665
0.23405027498974
0.235754847288185
0.237543325871091
0.239314649839016
0.241271315941979
0.243103337217222
0.245356261456732
0.247139620690845
0.249809812420295
0.252210887895614
0.254709022341509
0.257001028928567
0.258926266356976
0.260131760280154
0.259922163124046
0.257999725205566
0.254170216156265
0.24843034369972
0.241470939272104
0.232831712719684
0.220974163802272
0.204756007601402
0.177090623887685
0.134170489122601
0.069796145043271
-0.0148165507184954
-0.0959629320315283
-0.0784155252782693
-0.0338266178457
2.9910761601359e-05
0.00450881163744478
0.0187302390227262
0.0312343434281713
0.039420636700439
0.0431986726878871
0.0463486088199123
0.0479780338464325
0.0490675581789851
0.0496325661449313
0.0500981137061266
0.0503830525680764
0.0507470443011134
0.0511550496077865
0.0516632112360636
0.0522280687374402
0.0527161637287397
0.0530751924233779
0.0532573529618837
0.0532547925867851
0.0529465725034513
0.051895992163531
0.0517478006178672
0.0517472216890455
0.0522713500062244
0.0531598955461635
0.0544466279365206
0.0560637860783335
0.0579939092447916
0.0602004693409419
0.062662410403678
0.0653553406111402
0.0682601601242372
0.0713571539336006
0.074628575807684
0.0780562917018761
0.081622575273707
0.085309786150435
0.0891004847912388
0.0929774964295455
0.0969239585867789
0.100923406393827
0.104959817857307
0.109017821161376
0.11308265814278
0.117140474447143
0.121178481667806
0.125184994325035
0.129149460649004
0.133062435911662
0.136915568500338
0.140701609347876
0.144414313586907
0.148048486894061
0.151599818427396
0.15506483528837
0.158441010551442
0.161726632652931
0.164920870628662
0.168023536324696
0.171035172168567
0.173956749432854
0.176789809509255
0.179536132313087
0.182197754592613
0.184777033962694
0.18727662369297
0.189699468815854
0.192048743475914
0.194327746294934
0.196539795244464
0.198688345950943
0.200776863259387
0.202808966405319
0.204788234460537
0.206718290625278
0.208602761461409
0.210445299790239
0.212249567504213
0.214019276575997
0.215758084050668
0.217469874786607
0.219158285051971
0.220827598452428
0.222481307504048
0.224124640447145
0.225760483621398
0.227396440871645
0.229033135154302
0.230684339502735
0.232343094436933
0.234039801529366
0.235744118830407
0.237532614954021
0.239303488953372
0.241260552238236
0.243091672801973
0.245346158001261
0.24712745393536
0.249805336894832
0.252220139693027
0.254730466391643
0.257025248619407
0.258938149616592
0.260106251565216
0.259837342868735
0.257847840105949
0.253953694034622
0.248165854110293
0.241157395284425
0.232431582170329
0.220439705730663
0.203964042953965
0.175944406675322
0.132698350135144
0.068310778400207
-0.0154376402427315
-0.094968505280729
-0.0777915078243368
-0.0337704665553989
7.37543807829293e-05
0.00455520988173762
0.0187000872526468
0.0310942836565591
0.0392937525420893
0.0431068720693422
0.0462803061779213
0.047940621763637
0.0490495314676925
0.0496271065048724
0.0500992738466899
0.0503872441635004
0.0507490978085371
0.0511531847748798
0.0516563277385738
0.0522188963953925
0.0527084943228739
0.0530705400102028
0.0532556014906096
0.0532569275193454
0.0529452839746216
0.0518954752774693
0.0517521173706301
0.0517528496631566
0.0522795140792146
0.0531700190233836
0.0544586270131544
0.0560771096066419
0.0580082064507257
0.0602153326585521
0.062677528643838
0.0653704123853687
0.06827493183075
0.0713713860998968
0.0746420589818264
0.0780688544275405
0.081634080953343
0.0853201054282376
0.0891095030753128
0.0929851228028591
0.0969301238791918
0.100928063390468
0.104962939817518
0.109019402658271
0.113082712122491
0.117139028798656
0.121175577554264
0.125180684726229
0.129143808922502
0.133055514117682
0.136907455204279
0.140692388402891
0.144404072072101
0.148037314998219
0.151587809392744
0.155052082681737
0.158427606319732
0.161712665012595
0.164906423695432
0.168008688718474
0.171019997215489
0.173941314305896
0.176774176230039
0.179520360656306
0.182181902098783
0.18476115336285
0.187260760755583
0.189683672744804
0.192033064301897
0.194312210690769
0.196524419496744
0.19867315248149
0.200761872646495
0.202794194719718
0.204773694400319
0.206703992549432
0.208588713185828
0.210431506607673
0.212236032023229
0.214005999737818
0.215745064814006
0.217457111744222
0.219145773752051
0.22081533627149
0.222469285941047
0.224112859552881
0.225748928459528
0.227385122859889
0.229022026089392
0.23067349631275
0.232332431317487
0.234029456890648
0.235733854546965
0.237522877084714
0.23929359385995
0.241251800879101
0.243082109868494
0.245339415436965
0.24711689541619
0.249802262807208
0.252225510366392
0.25474119250553
0.257032111151773
0.258925510899509
0.260050339600134
0.259720405336843
0.257666891192398
0.253714844005173
0.24788516764292
0.240827542752175
0.232012973034946
0.219884255938821
0.203161122567965
0.174840367766713
0.131392856467544
0.0672482999784717
-0.0152005361099715
-0.0928654708520356
-0.0766396104253594
-0.0336787348071437
0.000151318401362776
0.00466201766181286
0.0187185786249297
0.030952677752097
0.039171769263411
0.0430167940700265
0.0462113648672526
0.047902234661676
0.0490310196583573
0.0496215559326037
0.0501005660241419
0.0503916097376805
0.0507508550131521
0.0511499081249229
0.0516462081590942
0.0522039637239588
0.0526926711972398
0.0530559912975516
0.0532433800872683
0.0532492451767818
0.0529324636592286
0.0518895469108429
0.0517521017743967
0.0517554236825533
0.0522859555263539
0.0531792270207413
0.0544701793813119
0.0560900334116096
0.058021873770561
0.0602290940456582
0.062690902391281
0.0653829547018319
0.0682862807905611
0.0713812125931086
0.0746501034955126
0.0780749265278313
0.0816380094782241
0.0853217349866049
0.0891087212281563
0.0929818553985832
0.0969243316062768
0.100919741548178
0.104952115404971
0.109006134940625
0.113067087291275
0.117121153143783
0.121155573791886
0.125158689378469
0.129119969933786
0.133029988255059
0.136880404630627
0.140663978770502
0.144374469560506
0.148006686396126
0.151556322858841
0.155019903849597
0.158394894725755
0.161679570760897
0.164873086802571
0.167975237361654
0.170986548117245
0.173907972020982
0.176741034601351
0.179487509194061
0.182149426872773
0.184729132636816
0.187229276738106
0.189652782662042
0.192002792454246
0.194282591510503
0.196495493432659
0.198644953626798
0.200734428471082
0.202767525732447
0.204747815923263
0.206678917378092
0.208564451344138
0.210408065185651
0.212213414809822
0.213984209029357
0.215724101426146
0.217436977563491
0.219126467876039
0.220796862402699
0.222451641287353
0.224096056821837
0.225732961560016
0.227370028120704
0.22900778001108
0.230660214072091
0.232320038212885
0.234018193282135
0.235723423529587
0.23751396790312
0.239285285006405
0.24124599439067
0.24307606059727
0.245338199877004
0.247112067260265
0.249803073345457
0.25222378863383
0.254731648817792
0.257005996954294
0.258866675182957
0.259936105188262
0.25953849978576
0.257420469244853
0.2534148604416
0.247548902991724
0.240441114338878
0.231531480183126
0.219255927880481
0.202279396519137
0.173685577655922
0.130122826014414
0.0664117947476476
-0.0143665529091797
-0.0898200935617145
-0.074836169232899
-0.0334595336295447
0.00027920165800705
0.00486183823677805
0.0188199696164049
0.0308080653065062
0.0390503193475889
0.0429262425076422
0.0461407909371215
0.0478622259785037
0.0490117478048754
0.0496158867339769
0.0501021355585548
0.0503963786372682
0.050752393340393
0.0511448740861222
0.0516317478375301
0.052181064988131
0.0526653907017429
0.053027444406459
0.0532162357353998
0.0532267244172125
0.0529043498341041
0.0518789834219966
0.0517487999874252
0.0517567918256977
0.0522932502886608
0.0531902212409043
0.0544838011523362
0.0561046973650253
0.0580365843817275
0.0602429211197189
0.0627031831819113
0.0653931101668759
0.0682938585942037
0.0713858255552981
0.0746514753663252
0.0780728461006161
0.0816322936116513
0.0853122551019105
0.0890954040887935
0.0929646767359876
0.0969033133396181
0.100894950744862
0.104923659872497
0.108974163318333
0.11303178137471
0.117082717816197
0.121114231193518
0.125114675171705
0.129073530210356
0.132981376275693
0.136829876515778
0.140611791088097
0.144320875702637
0.14795193701233
0.151500667602149
0.154963586843583
0.158338149501962
0.161622615721177
0.164816124254765
0.167918451439377
0.170930105353987
0.173852020775665
0.176685706833549
0.179432930319382
0.182095717991465
0.184676413384741
0.187177634627662
0.189602284205149
0.191953507911621
0.194234581991154
0.196448813113573
0.198599649286961
0.200690538352737
0.202725078992744
0.204706834726572
0.20663942128923
0.208526457075315
0.210371586235482
0.212178460949554
0.213950788964153
0.215692223372123
0.217406652809533
0.219097705812684
0.220769680572606
0.222426051113685
0.224072093531351
0.225710639481462
0.227349422070346
0.228988887818844
0.230643211355727
0.232304883331191
0.234005268502685
0.235712402433403
0.237505812770061
0.239278874923272
0.241243849640658
0.243074709377552
0.245344023093759
0.247116687338454
0.249809387847706
0.252212444666359
0.254695254272707
0.256936439692268
0.258747607508795
0.259745925414052
0.259270536867978
0.257084341072316
0.253026795280225
0.247128516331795
0.239969000319971
0.230956101318552
0.218519944692206
0.201274791341844
0.172416090066667
0.128786795489251
0.0656257013498034
-0.0132315781162164
-0.0861775237049611
-0.0724486151933965
-0.0330336861980393
0.000467944493323327
0.00517542649697492
0.0190291748686457
0.0306752338884475
0.0389284361410318
0.0428329580465377
0.0460680047264984
0.0478202889649133
0.048991648583523
0.0496101792234567
0.0501041936051559
0.0504018198234894
0.050753845734762
0.0511378465063634
0.0516121477327631
0.0521487645713695
0.0526248349202594
0.0529830494023275
0.053172368958141
0.0531867344158403
0.05285947860732
0.0518648606313863
0.051743384497608
0.0517588791308737
0.0523031825788585
0.0532043467366937
0.0545002911422535
0.0561214457326859
0.0580523299642562
0.0602565697621111
0.0627139925406523
0.0654004586548585
0.0682972846855377
0.071384956394409
0.0746460539595662
0.0780626797457562
0.0816172473402336
0.0852922574510196
0.089070440518983
0.0929347858126284
0.0968685838800955
0.100855520387158
0.104879709764334
0.108925918265127
0.112979500600485
0.11702668315007
0.121054740148073
0.125052036704003
0.129008061491473
0.132913399230421
0.136759713209124
0.140539761217063
0.144247292606897
0.147877108582222
0.151424898594173
0.154887174206607
0.158261376730638
0.161545747558264
0.164739405703716
0.167842105411196
0.170854333532583
0.173777002973533
0.176611603036632
0.179359892463854
0.182023896842352
0.184605939885144
0.187108625551866
0.189534848564541
0.191887732103188
0.194170538820238
0.196386568530476
0.198539262969
0.200632060489117
0.20266854965934
0.2046522857254
0.206586881948717
0.208475954116115
0.210323143160701
0.212132097553317
0.213906524379866
0.215650077368675
0.217366649963174
0.219059869935513
0.220734046444257
0.222392648366138
0.224040981787359
0.225681857485443
0.227323081706664
0.228965019454787
0.230622035805985
0.232286395373537
0.233989969964669
0.235699973028609
0.237497409796139
0.239273286010349
0.241243986021606
0.243076749785134
0.245354930140852
0.247129378404281
0.249819765577259
0.252192639891833
0.25463535630057
0.25682792657022
0.258573788195518
0.259485754711754
0.258920954025187
0.256659728483008
0.252547433436845
0.246615936795089
0.239400213861301
0.230273735750459
0.217661127423719
0.200127872794338
0.170999631472262
0.127327748322703
0.064786419476908
-0.0119981332802383
-0.0822417562599417
-0.0696481908862058
-0.0323834070687932
0.000721037723429619
0.00560531187864871
0.0193514043576541
0.0305764243951313
0.038810888133875
0.0427344034682589
0.0459916965455974
0.0477759029636126
0.0489706317838906
0.0496045858306839
0.0501070644165645
0.0504083181336294
0.050755487988443
0.0511289077219104
0.0515873976825208
0.0521072638194097
0.0525717553277946
0.0529241249767587
0.0531129837981266
0.0531292913735308
0.0527986711754552
0.0518475654074087
0.0517358142813099
0.0517617497527556
0.0523150138973958
0.0532204623310466
0.0545182958646876
0.0561389546998549
0.0580679539525666
0.0602691559733938
0.0627227860347323
0.0654048433218467
0.0682968220687794
0.071379295737674
0.0746349611294687
0.0780459956537569
0.0815948827679294
0.0852641846535618
0.0890366883602883
0.092895437452533
0.0968237737036892
0.10080543251414
0.104824572249508
0.108866003690915
0.112915115749649
0.116958156556691
0.120982414851972
0.12497626574568
0.128929204720961
0.132831819735003
0.136675772601927
0.140453817145059
0.144159694416998
0.147788198631514
0.15133501455117
0.154796644407868
0.158170514612373
0.161454845895491
0.164648735728441
0.167751914214091
0.170764845215536
0.173688417725404
0.176524099478604
0.179273641406713
0.181939061133096
0.184522671261527
0.187027065316258
0.189455115986534
0.191809922168489
0.194094733755286
0.196312844749352
0.198467690967753
0.20056270047771
0.202601451537811
0.204587490144285
0.206524427120445
0.208415875930028
0.210265474291373
0.212076867134378
0.213853760925702
0.215599810841225
0.217318916060744
0.21901470440431
0.220691497295234
0.222352759181655
0.224003828764824
0.225647496729125
0.227291646995715
0.228936563975001
0.230596802080294
0.232264396893597
0.233971759786721
0.23568524237302
0.237487370176693
0.239266698570027
0.241243799751649
0.243079136787161
0.245366481742764
0.247144768588539
0.249830878462902
0.252166897021493
0.254559438543153
0.256691376383178
0.25835923386448
0.25917234267844
0.258507329233998
0.256162950812827
0.251989997403545
0.246019740729729
0.238739771601359
0.229487339194894
0.216681483926283
0.198840728085987
0.169434844844202
0.12573758252931
0.0638731037169867
-0.010739338209645
-0.0781858496858783
-0.0665895418426013
-0.0315315136345457
0.00103394605383673
0.00614598144443392
0.0197792220829458
0.0305284653320914
0.0387089690051723
0.0426309817878091
0.045909875028102
0.0477283332896454
0.048948621446508
0.0495993770115814
0.0501112112072078
0.0504163874477669
0.05075780341671
0.0511186128268075
0.0515584221349165
0.0520582342594996
0.0525086030155546
0.0528534294207686
0.053040254778023
0.0530558424753047
0.0527240490371643
0.0518265721273906
0.0517249063000182
0.0517640962044045
0.0523269233866631
0.0532368042738678
0.0545362645512922
0.0561560107913287
0.0580826144827937
0.0602802222410536
0.062729485703277
0.0654065549017364
0.0682931099368492
0.0713698111975997
0.0746194764155634
0.0780243749618868
0.0815670597443784
0.0852301544289746
0.088996503562528
0.0928492063914256
0.0967716570231048
0.100747641586662
0.10476136291811
0.108797677380289
0.112842008087659
0.116880624770726
0.12090083052629
0.124891010029671
0.128840665153613
0.132740386489972
0.136581833702162
0.140357755975872
0.144061884984714
0.147689007229939
0.15123480163659
0.15469575999721
0.158069293141177
0.161353600120792
0.164547755970156
0.167651465521281
0.170665168771043
0.17358972944553
0.176426593436968
0.179177501279557
0.181844463085943
0.184429782010373
0.186936035013134
0.189366070874232
0.191722967304523
0.194009960720703
0.196230338750008
0.198387531283358
0.200484955304197
0.20252617892967
0.204514737956728
0.206454240598653
0.208348298160659
0.210200544999424
0.212014622610235
0.213794236497366
0.215543043729781
0.217264949481249
0.218963582003033
0.220643275132124
0.222307489104427
0.223961595360356
0.225608365152724
0.227255759157973
0.228903982723874
0.230567773893579
0.232238934507725
0.233950412686193
0.235667702824286
0.237474797495233
0.239257842486243
0.241241385041085
0.243079486961879
0.245375165854848
0.247158016026067
0.249839437860847
0.252135890752269
0.254472102347044
0.256534413905639
0.258114280609777
0.258818655375392
0.258044398437223
0.25560924361657
0.251368994369929
0.245352412370008
0.237998301823482
0.228606901698905
0.215591557464529
0.197426944754589
0.167739199220807
0.124038402673858
0.0629109445334403
-0.00945387812651704
-0.0740725785294006
-0.0633746861449647
-0.0305088477333475
0.00140241667323677
0.00678759471392047
0.0203014989051512
0.0305409280489832
0.0386329789600509
0.0425306797770749
0.0458206115668493
0.047676816836937
0.0489256342505819
0.0495949680521138
0.0501172119901942
0.0504266220804694
0.0507614256380997
0.0511078360849513
0.0515266213357163
0.0520037877370999
0.0524378940941964
0.0527732934284775
0.0529559124141867
0.0529682951406308
0.0526379034993724
0.0518010317261174
0.0517094723923751
0.0517646478735695
0.0523375088229091
0.0532521939253875
0.0545532822528426
0.0561719872137762
0.0580959590416533
0.0602896726566043
0.0627342328257439
0.0654059537984502
0.0682867045238067
0.0713572401683946
0.074600513523174
0.0779988933922104
0.0815350020704962
0.085191527056874
0.0889513718851755
0.092797693211155
0.0967139388216757
0.100683946675681
0.104691964674102
0.108722895906812
0.112762197688857
0.116796161480976
0.120812105118678
0.124798422918177
0.128744623232069
0.132641299148683
0.136480107996672
0.140253794158926
0.143956079322848
0.147581742067736
0.151126454563577
0.154586697268175
0.157959865215603
0.16124413531435
0.164438559829306
0.167542817770073
0.17055732493513
0.173482918918572
0.176321025263547
0.179073368285746
0.181741953878588
0.184329073137572
0.186837283650746
0.189269412465075
0.191628517148212
0.193917819061323
0.196140598321583
0.198300278997368
0.20040026621724
0.202444118339628
0.204435359968014
0.206377596377611
0.208274436794103
0.210129511938138
0.211946459909055
0.213728984622174
0.215480745238615
0.217205652762978
0.218907335960571
0.220590140539955
0.222257522366101
0.223914884302605
0.225564978640061
0.227215838878505
0.228867592939517
0.23053515411958
0.232210084502479
0.233925847263469
0.235647107506122
0.237459219245922
0.239246023501704
0.241235685369915
0.243076439776261
0.245379059945355
0.247166083781627
0.249842854902419
0.252098763873848
0.254374872109503
0.256360727116728
0.257844518901257
0.25843213159212
0.257541118319431
0.255008419192074
0.250694448679823
0.244623507602608
0.237184839988672
0.227641824557439
0.214402092938836
0.195900986773397
0.165933351208502
0.122257736888545
0.0619318382885862
-0.00812503479051788
-0.0699168610886349
-0.0600657530098909
-0.0293445050549948
0.00182671454418892
0.00751349883316898
0.0209062212218117
0.0306300261544861
0.0385785559807367
0.0424500701804534
0.0457234076194793
0.0476208166160253
0.048901792602241
0.0495918464375857
0.0501256530142402
0.0504395804864713
0.0507669816316918
0.0510974827646744
0.0514933525909427
0.0519457164326501
0.0523614656268303
0.0526852317904987
0.0528612281604889
0.0528685568136311
0.0525420915757114
0.0517702850817344
0.0516888329668516
0.0517626155483128
0.0523459452849723
0.0532659682604061
0.0545688502174572
0.0561865593759826
0.0581078265930948
0.0602975005400724
0.0627371651070298
0.0654033119145883
0.0682780035147679
0.0713420990121353
0.0745787083335975
0.0779702976606967
0.0814995611741744
0.0851492529846345
0.0889023369655279
0.092742028794474
0.0966518310709337
0.100615634398338
0.104617732040359
0.108643074740192
0.112677153669962
0.11670628208319
0.120717793150784
0.124700091134799
0.128642691222922
0.132536189107771
0.136372239891983
0.140143583321878
0.143843930808573
0.147468053208371
0.151011615183185
0.154471085094172
0.157843842343193
0.161128041690963
0.164322712775333
0.167427508723399
0.17044282130571
0.173369462235244
0.176208835557127
0.178962649201736
0.181632903377492
0.184221874805185
0.186732102606779
0.189166393065884
0.191527784061274
0.193819480402122
0.196044753539846
0.198207021993161
0.200309678298189
0.202356271642075
0.204350314390821
0.206295408451548
0.208195161026415
0.210053198846245
0.211873156621697
0.213658735829034
0.215413597764511
0.217141658811424
0.21884654813902
0.220532622296623
0.222203332374139
0.223864110328031
0.225517689912749
0.227172171429459
0.228827607522015
0.230499075138506
0.232177892473926
0.233898002439332
0.235623284989296
0.237440315832741
0.239230780030941
0.241226019214535
0.243069116293844
0.245377049818841
0.247167020025554
0.249839094858684
0.252054195229777
0.254267881760612
0.256172077087096
0.257553153475893
0.258017312060943
0.257003156044154
0.254366838983741
0.249973004907476
0.243839598511469
0.236305870229843
0.226599176083335
0.213121580216364
0.194274819082168
0.164035130259111
0.12041759608034
0.0609598195050403
-0.00673941368435852
-0.0657248741084039
-0.0566987432997499
-0.0280607877671478
0.00230730154647979
0.00829804963014035
0.0215785988150481
0.0308161070195684
0.0385153777416457
0.0424060555048599
0.04562072221171
0.0475602481807688
0.0488772768843727
0.0495904228327479
0.0501369883745956
0.0504556774784951
0.0507749782070835
0.0510883205784244
0.0514597061812339
0.0518853267130191
0.0522805534180144
0.0525902869956473
0.052757313548666
0.0527583673076135
0.0524380404592723
0.0517340039226127
0.0516626963935199
0.0517575353058014
0.0523517119061237
0.0532776983902244
0.0545826312852528
0.0561995029365673
0.0581181024840381
0.0603037014196248
0.0627383848732755
0.0653988316806431
0.0682673097436553
0.0713247905763183
0.07455456042931
0.0779391807016694
0.0814614197831614
0.0851041009578575
0.0888502494509237
0.092683141292209
0.0965863346691843
0.100543773245926
0.10453979556007
0.108559400652423
0.112588112769731
0.116612266848449
0.120619212125378
0.12459736326517
0.128536242843654
0.132426449446295
0.136259636287099
0.140028538913473
0.14372685843085
0.147349358549759
0.150891695809103
0.154350325803944
0.157722612797821
0.161006689814525
0.164201564420135
0.16730686421139
0.170322957944243
0.173250631630731
0.176091266675282
0.178846556655278
0.181518490438028
0.184109331852666
0.186621601965483
0.18905808682436
0.191421805512688
0.193715944929646
0.195943766686891
0.198108684178935
0.200214076639543
0.202263484877013
0.204260407907551
0.20620844376013
0.208111197687124
0.209972292022804
0.211795358082052
0.213584093843669
0.215342162670974
0.217073485642266
0.218781692083701
0.22047114793633
0.222145298928776
0.223809602902599
0.225466775571334
0.227124976173766
0.228784185000631
0.230459626257668
0.232142377046804
0.233866810372566
0.23559607720525
0.237417810356534
0.239211724033392
0.24121183618043
0.243056806314057
0.245368322564624
0.247159384944332
0.249826470771238
0.252000822662283
0.25415069812965
0.255969321587649
0.25724224384623
0.257577328893477
0.256434543350087
0.253689107291896
0.249209521149631
0.243005569534851
0.235366325473799
0.225484483974244
0.211757014954245
0.192558690788719
0.162057656216253
0.118529564944661
0.0600063901799033
-0.00528678533275606
-0.0615022109271602
-0.0532936574788552
-0.0266755510882895
0.00284590270877968
0.00910060710689314
0.0223019753211862
0.0310990258262968
0.0384083347246791
0.0424082456431045
0.0455189396093454
0.0474955577046121
0.0488522608950436
0.0495909136889848
0.0501514604323985
0.0504751543958893
0.0507857827837311
0.0510809484179417
0.0514265024652435
0.0518235583758798
0.0521960571343913
0.0524893262464933
0.0526452450331789
0.0526392746355907
0.052326924595901
0.0516921120262763
0.051630969322734
0.0517491053192028
0.0523544330059716
0.0532870668064641
0.0545943636057728
0.0562106414434832
0.0581266939878271
0.0603082716456302
0.0627379767609156
0.0653926807969882
0.0682548746949382
0.0713056546254771
0.0745284928368108
0.0779060472201649
0.0814211615251119
0.085056730551384
0.0887958415196981
0.0926218318411465
0.0965183157039337
0.100469289853332
0.104459137634701
0.108472906770815
0.112496153335131
0.116515233630242
0.120517513803491
0.124491419500733
0.128426481408494
0.132313301440994
0.136143531453391
0.139909903465693
0.14360610847152
0.147226903975764
0.150767937895163
0.154225652447372
0.157597397546795
0.160881285269693
0.164076302002498
0.167182050604526
0.170198879039186
0.173127545356814
0.175969412129497
0.178726156304705
0.181399751325542
0.183992450225827
0.186506756141597
0.188945435666186
0.191311490426615
0.193608088053676
0.195838479078195
0.198006072370489
0.200114233178354
0.202166494926382
0.204166342068583
0.206117368171539
0.208023176660421
0.209887385029305
0.211713621180996
0.213505578326284
0.215266921742977
0.217001576324638
0.21871317120457
0.220406079883132
0.222083741989854
0.223751637233182
0.225412463927246
0.22707443063953
0.22873744919301
0.230416869244515
0.23210353818159
0.233832195922765
0.235565330360764
0.237391446288923
0.239188503991806
0.241192654023572
0.243038883911288
0.245352209074481
0.247142048551826
0.249803538776131
0.251937311412705
0.254022563000185
0.255752730201496
0.256913083016881
0.257114374909184
0.255838235842239
0.252978700379946
0.24840775524005
0.242125312600949
0.234370295381499
0.22430258258631
0.210314832309332
0.190760132187232
0.1600047249781
0.116607612295763
0.0590883849182572
-0.00376041604693733
-0.0572529555068371
-0.0498621593584311
-0.0252041157433402
0.00344496821432315
0.00987413214594755
0.0230624232856899
0.0314589144628633
0.0382751871448304
0.0424557285122595
0.0454281493013485
0.0474277427138245
0.0488268682434669
0.0495933222618305
0.0501691100621577
0.0504981121600319
0.0507996517483602
0.0510758239756981
0.0513943626015884
0.0517611317013957
0.0521087201146494
0.0523831659862047
0.0525260773273595
0.05251266015485
0.0522097710734609
0.0516446804718014
0.0515936685919891
0.0517371167179463
0.0523538252709634
0.0532938299835012
0.0546038379937129
0.0562198344877522
0.0581335272057756
0.0603112120437925
0.0627360161700474
0.065385007119642
0.0682409180666113
0.0712849879292202
0.0745008758044837
0.0778713400780994
0.081379299652323