/*--------------------------------*- C++ -*----------------------------------*\
  =========                 |
  \\      /  F ield         | OpenFOAM: The Open Source CFD Toolbox
   \\    /   O peration     | Website:  https://openfoam.org
    \\  /    A nd           | Version:  7
     \\/     M anipulation  |
\*---------------------------------------------------------------------------*/
FoamFile
{
    version     2.0;
    format      ascii;
    class       surfaceScalarField;
    location    "20000";
    object      phi;
}
// * * * * * * * * * * * * * * * * * * * * * * * * * * * * * * * * * * * * * //

dimensions      [0 3 -1 0 0 0 0];

internalField   nonuniform List<scalar> 
30950
(
1.33188307318771e-05
-4.52232890913861e-06
5.31253392357534e-06
8.00629680880588e-06
-7.13586459345426e-06
1.24483985337286e-05
-1.14228886268544e-05
4.28702405435125e-06
-8.66477540305003e-06
-2.75811322908074e-06
-6.52083692064708e-06
-2.14393849263596e-06
-5.06496410421647e-06
-1.45587281623228e-06
-4.13549950952372e-06
-9.29464582264672e-07
-3.62320756261575e-06
-5.12291931121137e-07
-3.62829356505717e-06
5.08601471432368e-09
-4.01391795539128e-06
3.85624400810363e-07
-4.90079122272346e-06
8.86873282839568e-07
-6.0090860937677e-06
1.10829489820665e-06
-7.18714400571497e-06
1.17805795151116e-06
-8.15624989280347e-06
9.69105933130674e-07
-8.62771881894847e-06
4.71468971221525e-07
-8.62292540211615e-06
-4.79337689966254e-09
-8.15504322213419e-06
-4.67882144633726e-07
-7.29626641114077e-06
-8.5877677672237e-07
-6.29908332505877e-06
-9.9718304924599e-07
-7.41835153750044e-06
1.11926825328453e-06
-1.42105910325123e-05
6.79223953631472e-06
-2.04703755343494e-05
6.25978453990506e-06
-2.60453810881255e-05
5.5750055898015e-06
-3.07610042122561e-05
4.71562316014016e-06
-3.47735924886765e-05
4.01258831360187e-06
-3.81397016419633e-05
3.36610919188334e-06
-4.09923837865755e-05
2.85268218394444e-06
-4.34007629943295e-05
2.40837924665415e-06
-4.5435377596415e-05
2.03461463934379e-06
-4.71372500419335e-05
1.70187248012186e-06
-4.8541780788821e-05
1.40453077815862e-06
-4.96714304472757e-05
1.1296496860543e-06
-5.05450267148935e-05
8.73596291626176e-07
-5.11753652893079e-05
6.30338595385994e-07
-5.15740357924159e-05
3.98670522027003e-07
-5.1751999335821e-05
1.77963561574503e-07
-5.17197848003964e-05
-3.22145165975318e-08
-5.14876841252684e-05
-2.32100654391741e-07
-5.10660737063819e-05
-4.21610395549875e-07
-5.04655489232393e-05
-6.00524757357234e-07
-4.9696998979961e-05
-7.68549916159637e-07
-4.87718858781646e-05
-9.2511307526821e-07
-4.7702033005965e-05
-1.06985284845711e-06
-4.65001172658707e-05
-1.20191572098322e-06
-4.51792858840233e-05
-1.32083136820369e-06
-4.37525825377814e-05
-1.42670333748939e-06
-4.22327519088214e-05
-1.5198306232072e-06
-4.06320986099566e-05
-1.6006532933439e-06
-3.89624911882486e-05
-1.66960741351663e-06
-3.72353472972468e-05
-1.72714387777754e-06
-3.54614617511692e-05
-1.77388552653306e-06
-3.3651143074016e-05
-1.81031865122426e-06
-3.18139411317371e-05
-1.83720191106302e-06
-2.99590290127603e-05
-1.85491208439177e-06
-2.80954890745694e-05
-1.8635399024715e-06
-2.62318183641487e-05
-1.86367067565561e-06
-2.4375975268621e-05
-1.85584306311329e-06
-2.2534938077609e-05
-1.84103716128933e-06
-2.07150469993073e-05
-1.81989105062999e-06
-1.89215621214777e-05
-1.79348485074861e-06
-1.71592010946001e-05
-1.76236099887315e-06
-1.54315789801598e-05
-1.72762208443881e-06
-1.37421290293752e-05
-1.68944991860659e-06
-1.20945047117288e-05
-1.64762428406372e-06
-1.04921778376674e-05
-1.60232684066725e-06
-8.9382489522624e-06
-1.55392885397578e-06
-7.43520921316338e-06
-1.50303971113757e-06
-5.98480759743364e-06
-1.45040159203808e-06
-4.58851323154222e-06
-1.39629434618568e-06
-3.24798537476234e-06
-1.34052783978344e-06
-1.96464362615395e-06
-1.28334173239335e-06
-7.39933503693432e-07
-1.22471010495961e-06
4.25195383470076e-07
-1.16512886670775e-06
1.52971292947598e-06
-1.10451752190725e-06
2.57253547150762e-06
-1.04282251477271e-06
3.55250553466233e-06
-9.7997003422456e-07
4.46839169027588e-06
-9.15886126984181e-07
5.31887121712563e-06
-8.50479500442433e-07
6.10243081427338e-06
-7.83559574253791e-07
6.81701227921448e-06
-7.14581445845888e-07
7.46055407873922e-06
-6.43541783539104e-07
8.02976615380442e-06
-5.69212060785238e-07
8.52193573471799e-06
-4.92169566759211e-07
8.93135820285957e-06
-4.0942245288827e-07
9.25456617554668e-06
-3.23207955804835e-07
9.48078799279027e-06
-2.26221799026514e-07
9.60698203521312e-06
-1.26194023845293e-07
9.61135834615225e-06
-4.37629318561408e-09
9.49717349831788e-06
1.14184863782084e-07
9.21541713435273e-06
2.81756377749808e-07
8.79083497894829e-06
4.2458216751444e-07
8.10386737291816e-06
6.86967617689682e-07
7.2586907063627e-06
8.45176679597145e-07
5.95456667813643e-06
1.30412404448594e-06
4.55153999231235e-06
1.40302670690494e-06
2.27589682986961e-06
2.27564318928565e-06
2.89745631111632e-07
1.98615123147089e-06
-3.92499506212643e-06
4.21474073009975e-06
-4.19596904802254e-06
2.70974020330527e-07
-2.30120651564318e-06
-1.89476249632027e-06
1.00339132373139e-06
-3.30459779563669e-06
5.34841868044704e-06
-4.34502730326188e-06
1.06814477522152e-05
-5.33302901042843e-06
1.69468141880768e-05
-6.26536637090634e-06
2.31065003966986e-05
-6.15968614589819e-06
2.86467502397257e-05
-5.54024978816834e-06
3.30682038036528e-05
-4.42145352134397e-06
3.57607087226725e-05
-2.69250489098738e-06
3.78255194749131e-05
-2.06481073925396e-06
4.02047874767957e-05
-2.37926800429578e-06
4.35057562677487e-05
-3.30096880991129e-06
5.04113572650605e-05
-6.90560103425405e-06
6.06167632211461e-05
-1.02054060086585e-05
7.54964486002018e-05
-1.48796854323646e-05
9.41451891814968e-05
-1.86487406059511e-05
9.92803689948014e-05
-5.13517979549392e-06
6.12191033527324e-05
3.80612656714469e-05
2.2337581011327e-05
3.88815223548903e-05
1.35406065750651e-05
4.91146652354579e-05
-5.6682596312867e-06
2.52681194393696e-05
3.18528426062403e-05
-1.42370654779005e-05
5.19535834562025e-05
-3.10818137536313e-05
2.11317723362717e-05
-2.51801110037978e-05
-8.65981597136692e-06
-1.90509622820965e-05
-8.27308720806567e-06
-1.51206630510969e-05
-5.38617203910499e-06
-1.25333187226744e-05
-3.5168088985707e-06
-1.12244515386336e-05
-1.8211590995359e-06
-1.13268843275098e-05
1.07518822111055e-07
-1.26468828196933e-05
1.70562291496738e-06
-1.53122065138244e-05
3.55219700439549e-06
-1.86712477950618e-05
4.46733621538123e-06
-2.22082960239657e-05
4.71510622760308e-06
-2.52211554891135e-05
3.98196545826882e-06
-2.70210369547968e-05
2.2713505099206e-06
-2.76101991839037e-05
5.84368937292112e-07
-2.70248543832614e-05
-1.05322685002273e-06
-2.54840691662385e-05
-2.39956189098025e-06
-2.43380354737491e-05
-2.14321663457964e-06
-3.01347028645223e-05
6.91593575221805e-06
-4.88406881731475e-05
2.54982249505808e-05
-6.66820496439354e-05
2.41011461130365e-05
-8.18064652682247e-05
2.06994213151823e-05
-9.44678680947027e-05
1.73770260878393e-05
-0.000104993637366356
1.45383576862747e-05
-0.000113725242864449
1.20977147893266e-05
-0.000121000340155529
1.0127779570583e-05
-0.000127048731902109
8.45677108288909e-06
-0.000132054051865535
7.03993468493807e-06
-0.00013613903926945
5.78685995791015e-06
-0.000139398627061513
4.66411863597139e-06
-0.000141899178288377
3.63020097168167e-06
-0.000143693426282007
2.66784433901809e-06
-0.000144820864685864
1.75777705066449e-06
-0.000145316651284437
8.94457172440785e-07
-0.00014521440582309
7.57181548029206e-08
-0.000144546050601641
-7.00569679464293e-07
-0.000143342709899207
-1.43544129444759e-06
-0.000141635482742408
-2.12883748796399e-06
-0.000139455577026832
-2.78043040956685e-06
-0.000136834693254406
-3.38943362989056e-06
-0.000133805551027585
-3.95425525139605e-06
-0.000130401673831692
-4.47373000370646e-06
-0.000126658092160978
-4.94549736112728e-06
-0.000122610431148684
-5.36849235783057e-06
-0.000118293672944199
-5.74346152307581e-06
-0.00011374173174692
-6.07177180019861e-06
-0.000108987214289362
-6.3551707241219e-06
-0.000104061424881639
-6.59539678410406e-06
-9.89943135522522e-05
-6.79425515785676e-06
-9.38141872321703e-05
-6.95401178555237e-06
-8.85479003330634e-05
-7.07660548005286e-06
-8.32205228333275e-05
-7.16457933505465e-06
-7.7856160234975e-05
-7.21927460566198e-06
-7.24784025680574e-05
-7.24129749421648e-06
-6.71093326614427e-05
-7.23274051071554e-06
-6.17694318836267e-05
-7.19574377261672e-06
-5.64768410505618e-05
-7.13362792703928e-06
-5.12478571608735e-05
-7.04887487071878e-06
-4.60962849874387e-05
-6.94505694910767e-06
-4.10342868979139e-05
-6.82435900589967e-06
-3.60716193281757e-05
-6.69028956457126e-06
-3.12176286725831e-05
-6.54344048018829e-06
-2.6482132709199e-05
-6.38312015355834e-06
-2.18744190078616e-05
-6.2100404535803e-06
-1.74027095092902e-05
-6.02563827437317e-06
-1.30736628617145e-05
-5.83208629372651e-06
-8.89214640586702e-06
-5.63191799619028e-06
-4.8624563206801e-06
-5.42598439015213e-06
-9.89175862864127e-07
-5.21380826161602e-06
2.72343905794578e-06
-4.99595661595594e-06
6.27123632061152e-06
-4.77250732315519e-06
9.65130899730426e-06
-4.54520148783103e-06
1.28606059504528e-05
-4.31381440753075e-06
1.58957924277791e-05
-4.07800891504485e-06
1.87533087096222e-05
-3.83748623438924e-06
2.14293791209592e-05
-3.59195645806211e-06
2.3919983996748e-05
-3.34108430295654e-06
2.62204152728481e-05
-3.08399078755854e-06
2.83247653042939e-05
-2.81893142575145e-06
3.02264367112228e-05
-2.54521314816272e-06
3.19165283550288e-05
-2.25930366761895e-06
3.33857736537932e-05
-1.96141482943849e-06
3.46197973380515e-05
-1.64344609811737e-06
3.5604956468184e-05
-1.30836704229472e-06
3.63163201586682e-05
-9.37585441604395e-07
3.67348814120507e-05
-5.44755227478483e-07
3.68154098026904e-05
-8.49046354995679e-08
3.65377378780124e-05
3.91856832305124e-07
3.58114619703458e-05
1.0080323230396e-06
3.46220205922162e-05
1.61402357745499e-06
3.27699547958766e-05
2.53903344237812e-06
3.03017406949334e-05
3.31339080965733e-06
2.67647000892587e-05
4.84116468490875e-06
2.24566720335163e-05
5.71105480780057e-06
1.63204129466044e-05
8.41190233546354e-06
9.56597018286224e-06
8.74059407034145e-06
-1.23675756935159e-06
1.5017468572412e-05
-2.39281378486918e-06
1.42703033626998e-06
3.12287887659465e-06
-7.4104550529711e-06
1.21377482783696e-05
-1.23194670955402e-05
2.36616716540752e-05
-1.58689505865239e-05
3.74398486142986e-05
-1.91112058923385e-05
5.31239426917954e-05
-2.19494603863427e-05
6.85557219631136e-05
-2.15914653713475e-05
8.25717121266819e-05
-1.95562399204652e-05
9.40024054551293e-05
-1.58521468307022e-05
0.000101574597624092
-1.02646970501368e-05
0.000107352245148368
-7.84245826022622e-06
0.000113426513325973
-8.45353618252899e-06
0.000121819186635079
-1.16936421214519e-05
0.000138096202128296
-2.31826165295976e-05
0.000162994869114328
-3.51040729937553e-05
0.000199562458854575
-5.144727516537e-05
0.000246714535182891
-6.58008169197067e-05
0.000266993285132338
-2.54139297242106e-05
0.000193475566122997
0.000111578984703294
9.47465860033303e-05
0.000137610502491022
6.03184580703837e-05
9.88968727176309e-05
7.12605234167462e-06
5.64799701321471e-05
7.42697451939664e-05
-1.36066104317943e-05
0.00012204016402417
-4.81592828035995e-05
5.56844447112786e-05
-4.15744840530894e-05
-1.52446147108652e-05
-3.1812379415493e-05
-1.80351918346908e-05
-2.55967620957254e-05
-1.16017893475597e-05
-2.14614333865822e-05
-7.65213759361946e-06
-1.94728526635548e-05
-3.80973980425027e-06
-1.97696982501669e-05
4.04364431986508e-07
-2.21713818381867e-05
4.10730653149531e-06
-2.67116898516086e-05
8.09250505281548e-06
-3.24291914336957e-05
1.01848378417546e-05
-3.84338913874818e-05
1.07198062385429e-05
-4.3688756209939e-05
9.23683035403452e-06
-4.72473137657682e-05
5.82990815693893e-06
-4.91143941685509e-05
2.45144944841129e-06
-4.93679510295477e-05
-7.99669866601095e-07
-4.84728516023584e-05
-3.2946611862389e-06
-4.9317195718557e-05
-1.29887238231771e-06
-6.16282570003852e-05
1.92269971685489e-05
-9.10936682472771e-05
5.49636363262554e-05
-0.000119114824332016
5.21223023215612e-05
-0.000142091292706283
4.36758898109746e-05
-0.000160948214186638
3.62339476887077e-05
-0.000176292651467214
2.98827950856344e-05
-0.00018880723076276
2.46122942000863e-05
-0.000199025541041685
2.03460899588908e-05
-0.000207333464050545
1.67646941931774e-05
-0.000214014153208528
1.37206239349799e-05
-0.000219266076579012
1.10387834105635e-05
-0.000223237942335481
8.63598446525013e-06
-0.000226038539102615
6.43079780387905e-06
-0.000227753803116724
4.38310841303107e-06
-0.000228451324939377
2.45529893124936e-06
-0.000228190912963913
6.34045256175013e-07
-0.000227029918840766
-1.08527590536514e-06
-0.00022502491097394
-2.70557747850023e-06
-0.000222230330422151
-4.23002177447177e-06
-0.000218698129912998
-5.66103792402881e-06
-0.000214479650295659
-6.99890995647782e-06
-0.000209626212901281
-8.24287096075072e-06
-0.000204189743738265
-9.39072436115166e-06
-0.000198222664054779
-1.04408096456885e-05
-0.000191778446034144
-1.13897153509422e-05
-0.000184910382231205
-1.22365561372018e-05
-0.000177670146818841
-1.29836969138788e-05
-0.000170107372321507
-1.36345462721291e-05
-0.000162269470523982
-1.41930724871422e-05
-0.000154201684490958
-1.46631827699417e-05
-0.000145947042729185
-1.50488968586631e-05
-0.000137546106355874
-1.53549480854863e-05
-0.000129037179667502
-1.55855320860756e-05
-0.000120456155976595
-1.57456029391568e-05
-0.000111837553643082
-1.58378768523217e-05
-0.000103214873526251
-1.58639775273157e-05
-9.46194141436635e-05
-1.5828199813665e-05
-8.60800363707589e-05
-1.57351214686619e-05
-7.76224517848792e-05
-1.55912124355508e-05
-6.92696622537231e-05
-1.54016643200535e-05
-6.10414141745644e-05
-1.5173304938617e-05
-5.29550339116299e-05
-1.49107391699043e-05
-4.50248860870815e-05
-1.46204372821201e-05
-3.72649213969085e-05
-1.43034050592086e-05
-2.96897182878467e-05
-1.39583231530507e-05
-2.23130295266534e-05
-1.35867291131411e-05
-1.51469841868993e-05
-1.3191683525608e-05
-8.20153138862536e-06
-1.27775390192322e-05
-1.4841005717972e-06
-1.23493487553508e-05
4.99823571328224e-06
-1.19083206285742e-05
1.12378793852225e-05
-1.14534518911511e-05
1.72280924359785e-05
-1.09861696209573e-05
2.29624350953169e-05
-1.05068499268486e-05
2.84357569998368e-05
-1.00185233230093e-05
3.36427651784246e-05
-9.52082250310934e-06
3.85776957038902e-05
-9.01293934740319e-06
4.32344052599019e-05
-8.49419569342907e-06
4.76063833178665e-05
-7.96393442217683e-06
5.16867048647942e-05
-7.42140576516734e-06
5.54672638602214e-05
-6.86454971087532e-06
5.89382785403009e-05
-6.28994604656863e-06
6.20884056744599e-05
-5.69534023306396e-06
6.49034597590957e-05
-5.07435770834387e-06
6.73673186337299e-05
-4.42527366032952e-06
6.9458065379594e-05
-3.73419279650005e-06
7.1151185960201e-05
-3.00148756996794e-06
7.24105610424445e-05
-2.19696046635946e-06
7.31988104128147e-05
-1.33300453870596e-06
7.34538760600218e-05
-3.39970225662031e-07
7.31231512339828e-05
7.22581709829747e-07
7.20951877044118e-05
2.03599589690446e-06
7.02910934261515e-05
3.41811789350529e-06
6.74834060264733e-05
5.34672087638653e-06
6.35788030012231e-05
7.21799387078321e-06
5.81097642053735e-05
1.03102035240993e-05
5.1056347832875e-05
1.27644712367741e-05
4.14523652886517e-05
1.8015884953712e-05
2.97443677009285e-05
2.04485917518994e-05
1.37206106786261e-05
3.10412257078004e-05
1.17095664010142e-05
3.43807474141837e-06
2.02792996149236e-05
-1.59801881361339e-05
3.38109010869457e-05
-2.5851068446762e-05
5.06811336448109e-05
-3.27391830420427e-05
7.05553800731986e-05
-3.89854522411195e-05
9.28944742529845e-05
-4.42885545093898e-05
0.000115090543565832
-4.37875346474701e-05
0.000135586501070917
-4.00521974045767e-05
0.000152745522241565
-3.30111679914562e-05
0.000164861340680308
-2.23805154858385e-05
0.000174229537528544
-1.7210655108664e-05
0.000183605414020404
-1.78294126745904e-05
0.000196259387022004
-2.43476151203197e-05
0.000219429042086447
-4.63522715853549e-05
0.000255148601664483
-7.08236325548285e-05
0.000307099473081758
-0.000103398146558072
0.000374188864183675
-0.000132890207996455
0.000411222152644863
-6.24472181655262e-05
0.000330171130473704
0.000192630006892791
0.000193082881204725
0.000274698751776587
0.000141710154594733
0.00016505841750683
4.0336844558982e-05
0.000100585341800664
0.000138742820902434
-3.5678092720956e-06
0.000226193315102027
-6.15589065502554e-05
0.000113675541992926
-5.73679093650285e-05
-1.94356118848061e-05
-4.46244932502842e-05
-3.07786079383855e-05
-3.63438656504762e-05
-1.98824169357954e-05
-3.0867409780869e-05
-1.31285934480571e-05
-2.83452000366256e-05
-6.33194952819289e-06
-2.89843279479531e-05
1.04349236920853e-06
-3.26066944568205e-05
7.72967307183701e-06
-3.91260583576113e-05
1.46118689918724e-05
-4.72781478712247e-05
1.83369274034297e-05
-5.58456782304447e-05
1.92873366594147e-05
-6.35537936269781e-05
1.69449458291241e-05
-6.93401691473011e-05
1.16162837743317e-05
-7.32649025755542e-05
6.37618299128422e-06
-7.54774671305892e-05
1.41289481722094e-06
-7.68275651285895e-05
-1.9445630503455e-06
-8.17309739457996e-05
3.60453657564591e-06
-0.000101293571513818
3.87895948728831e-05
-0.000139509154696159
9.31792196358749e-05
-0.000174856436008768
8.7469583754088e-05
-0.000202766124776049
7.15855786941101e-05
-0.000224926375399802
5.83941984257415e-05
-0.000242401789790001
4.73582095860343e-05
-0.00025622186316124
3.84323676769152e-05
-0.000267113534040025
3.12377609367291e-05
-0.000275599699384384
2.52508596283412e-05
-0.000282050381180929
2.01713058130414e-05
-0.000286729949568641
1.57183518702706e-05
-0.000289835336739943
1.17413716997344e-05
-0.00029151461826243
8.11007938238766e-06
-0.000291885281147414
4.75377134929344e-06
-0.000291041889247192
1.61190708051881e-06
-0.000289071058496462
-1.33678544398148e-06
-0.000286057637110108
-4.09869723797153e-06
-0.000282079344936899
-6.68386959403099e-06
-0.00027720666780746
-9.10269884323307e-06
-0.000271506667175542
-1.13610384948208e-05
-0.000265044274886976
-1.34613021869807e-05
-0.000257883074914084
-1.5404070882177e-05
-0.000250086017052788
-1.71877821801238e-05
-0.000241715507788273
-1.88113188778052e-05
-0.00023283382758739
-2.02713955280016e-05
-0.000223501887834671
-2.15684958714434e-05
-0.000213778005692342
-2.27075790385609e-05
-0.00020371769573243
-2.36948562104811e-05
-0.000193373656547393
-2.45371116426322e-05
-0.000182795913717662
-2.5240925559604e-05
-0.000172031815433684
-2.58129950914684e-05
-0.000161125895519981
-2.62608679382907e-05
-0.000150120093683211
-2.65913338552037e-05
-0.000139053806091958
-2.68118904597529e-05
-0.000127964970985053
-2.69267118890417e-05
-0.000116890242157252
-2.69387062876833e-05
-0.000105863823931647
-2.68546179750984e-05
-9.49171621035613e-05
-2.66817832344839e-05
-8.40784240033136e-05
-2.64299504726137e-05
-7.33727981102776e-05
-2.61072901457446e-05
-6.28221610347859e-05
-2.57239419400101e-05
-5.24457549835378e-05
-2.52871451393649e-05
-4.22599391146779e-05
-2.48062530628047e-05
-3.22808356938869e-05
-2.42825083888172e-05
-2.25253536357744e-05
-2.37138051217883e-05
-1.30095143414788e-05
-2.31025683249259e-05
-3.74748616062387e-06
-2.24537116349202e-05
5.24876948793163e-06
-2.17737946091441e-05
1.39697016020484e-05
-2.10702808229707e-05
2.24064441540169e-05
-2.03450631425287e-05
3.0549613285612e-05
-1.95966209874512e-05
3.83902481765582e-05
-1.88268044731003e-05
4.59198642901189e-05
-1.8036465992944e-05
5.31312527812132e-05
-1.72299117552186e-05
6.00170246912504e-05
-1.64065943431445e-05
6.65691141768922e-05
-1.55650287550887e-05
7.27789056463201e-05
-1.47039870820688e-05
7.86372571027331e-05
-1.38222858006667e-05
8.41344366765464e-05
-1.29185852687053e-05
8.9259173301786e-05
-1.1989286276145e-05
9.39982010997011e-05
-1.1028973794862e-05
9.83359772101014e-05
-1.00331163017682e-05
0.000102253863586074
-8.99224404665677e-06
0.000105729937000087
-7.90134703649246e-06
0.000108736413988079
-6.74066974325483e-06
0.000111239938043156
-5.50501157915126e-06
0.000113196353062715
-4.15337543607112e-06
0.000114553397187621
-2.69004861233097e-06
0.000115236383935138
-1.0229569236528e-06
0.000115161492107474
7.97473582496195e-07
0.000114204898170223
2.99258987316554e-06
0.000112233294098076
5.3897219993638e-06
0.00010900808459847
8.57193040709695e-06
0.000104304247022844
1.19218314792507e-05
9.76603157507802e-05
1.69541348360191e-05
8.87286269205405e-05
2.16961601190119e-05
7.66380963913929e-05
3.01064155513271e-05
6.0948114682883e-05
3.61385735479215e-05
4.13675705753442e-05
5.06217699223443e-05
3.83163056729108e-05
6.48933976503673e-06
4.83670054668756e-05
-2.60308878088124e-05
6.43511915056349e-05
-4.18352543778086e-05
8.40632069703665e-05
-5.24511984191549e-05
0.000107175285183469
-6.20975303890706e-05
0.000133113085246474
-7.02263545285988e-05
0.0001593244238344
-6.99988732094394e-05
0.000184106894017489
-6.48346675749946e-05
0.000205610081691085
-5.45143556610546e-05
0.000221835839392537
-3.86062731877801e-05
0.000234742985286007
-3.01178010037987e-05
0.000247235091462219
-3.03215188506158e-05
0.000263254406237527
-4.03669298908684e-05
0.000290889305722442
-7.39871710582506e-05
0.00033326176485005
-0.000113196091661521
0.000394065309587523
-0.000164201691267885
0.000472352405275394
-0.000211177303658737
0.000525682489053389
-0.000115777301927498
0.000457306041940817
0.000261006454017768
0.000307042030660542
0.000424962763070328
0.000250482975541612
0.000244513824023454
9.42773042380621e-05
0.000157377980774223
0.000225878664153329
1.73277559133633e-05
0.000366243539967953
-6.98292436692689e-05
0.000200832541579403
-7.20966300694662e-05
-1.7168225472563e-05
-5.72834974788815e-05
-4.55917405171261e-05
-4.72503680920048e-05
-2.99155463106297e-05
-4.06982157787814e-05
-1.96807457451665e-05
-3.78263353400588e-05
-9.20382994472645e-06
-3.89715506698319e-05
2.18870772757585e-06
-4.39459631770257e-05
1.27040856135924e-05
-5.25129984366433e-05
2.31789042928705e-05
-6.31152208236905e-05
2.89391498415411e-05
-7.42638232607782e-05
3.04359391609895e-05
-8.45472325223402e-05
2.72283551719619e-05
-9.29152889667132e-05
1.99843403183366e-05
-9.95307475714307e-05
1.29916417128631e-05
-0.000104678249286764
6.56039666276257e-06
-0.000109673782903807
3.05097070447436e-06
-0.000119914726231816
1.38454800417618e-05
-0.00014599780648005
6.48726752515495e-05
-0.00018914047703222
0.000136321890306716
-0.0002271290576637
0.000125458164494888
-0.000255644800140693
0.000100101321274232
-0.000277377533178037
8.01269315616882e-05
-0.000293870478973884
6.38511554756814e-05
-0.000306431466993593
5.09933557845475e-05
-0.000315897048985082
4.07033430089544e-05
-0.000322856001422659
3.22098121384381e-05
-0.000327708751095332
2.50240555495924e-05
-0.00033074143917133
1.87510400017329e-05
-0.000332164115866824
1.31640484432081e-05
-0.000332135565768858
8.08152932649887e-06
-0.000330781312372022
3.39951799073718e-06
-0.000328206171338915
-9.63233915770194e-07
-0.000324506937955926
-5.03601878947748e-06
-0.000319770346829656
-8.83528832458916e-06
-0.00031407255353948
-1.23816628420052e-05
-0.000307485547070097
-1.56897052687226e-05
-0.000300077785028267
-1.87688004930235e-05
-0.000291915320242844
-2.16237669315971e-05
-0.000283062648040358
-2.42567430490669e-05
-0.000273583381260872
-2.66670489308114e-05
-0.000263540456570565
-2.88542435463893e-05
-0.000252996420064558
-3.08154320181733e-05
-0.000242012214868325
-3.25527010553343e-05
-0.000230646098388824
-3.4073695506089e-05
-0.000218953526015317
-3.53874285691981e-05
-0.000206987193212848
-3.65034444248629e-05
-0.000194797183758511
-3.74309349866351e-05
-0.000182430943440379
-3.8179235374933e-05
-0.000169933187880468
-3.87586234571525e-05
-0.000157346059998952
-3.91784616912852e-05
-0.000144709263267868
-3.94486871434578e-05
-0.000132061114477195
-3.95748606326847e-05
-0.000119438604045204
-3.95612166744898e-05
-0.000106876300498034
-3.94169214792238e-05
-9.44059657842496e-05
-3.91521179064153e-05
-8.20561948981681e-05
-3.87797213161877e-05
-6.98525708833199e-05
-3.83109141153509e-05
-5.78175081207323e-05
-3.77590046529661e-05
-4.59707567470028e-05
-3.7133896458518e-05
-3.43293301316078e-05
-3.64476796195512e-05
-2.29100620063688e-05
-3.57017764535915e-05
-1.17306309551569e-05
-3.48932361138448e-05
-8.07820239815212e-07
-3.40253789857531e-05
9.84308363763982e-06
-3.31046154652114e-05
2.02091702608322e-05
-3.21398811938398e-05
3.02802465134182e-05
-3.11413570449717e-05
4.00465263226086e-05
-3.01113429264247e-05
4.94976891304132e-05
-2.90477837714223e-05
5.86237185106025e-05
-2.79528338267573e-05
6.74151076980616e-05
-2.68278551477952e-05
7.58634894465013e-05
-2.56782934631691e-05
8.3960334189003e-05
-2.45034390375075e-05
9.16963242204786e-05
-2.33010187329595e-05
9.90614878988727e-05
-2.20691507049078e-05
0.000106045227411726
-2.08060252599356e-05
0.000112636260358931
-1.9509618167555e-05
0.000118821610052566
-1.81746359284494e-05
0.000124586203511605
-1.6793567219606e-05
0.0001299123057344
-1.5359218495545e-05
0.000134779140887845
-1.38590791735758e-05
0.00013916186567972
-1.22840718013698e-05
0.000143030271415799
-1.06090754496231e-05
0.000146346699679858
-8.821439809883e-06
0.00014906443267112
-6.87110839102643e-06
0.000151123842709237
-4.74945861297829e-06
0.00015244908233933
-2.34819651746692e-06
0.00015293818709253
3.08368862352474e-07
0.000152465909866717
3.46486712778587e-06
0.000150865769441868
6.98986244928583e-06
0.000147914950602798
1.15227492696191e-05
0.000143298891787744
1.65378903195402e-05
0.000136609052157855
2.36439744970427e-05
0.000127239935092653
3.10652772254699e-05
0.000114473786364373
4.28725643346393e-05
9.70729094227785e-05
5.35394505610609e-05
7.59677338183924e-05
7.17269456149886e-05
7.09385195788442e-05
1.1518554103456e-05
8.00486368738389e-05
-3.51410050086605e-05
9.60457032849477e-05
-5.78323207076201e-05
0.000116329748063514
-7.27352431338385e-05
0.000140427141903217
-8.61949241829458e-05
0.000167696009509488
-9.74952221055924e-05
0.000195799590400638
-9.81024540848244e-05
0.0002230114900097
-9.20465671780861e-05
0.000247490578592923
-7.8993444244309e-05
0.000267186567053376
-5.83022616508135e-05
0.000283495389287826
-4.64266232404259e-05
0.000299067960599308
-4.58940901611191e-05
0.000317938561298079
-5.92375305829863e-05
0.000348163109041299
-0.000104211718786731
0.000393721159160824
-0.000158754141757476
0.000457939916248201
-0.000228420448326657
0.000539953168684112
-0.000293190556070825
0.000605381679401012
-0.000181205812632192
0.000561657892139004
0.000304730241286061
0.000421096470448896
0.000565524184768642
0.000373125162295087
0.000329738354532476
0.000163450932499183
0.000223682510328609
0.00033193450835869
4.94944827613036e-05
0.000540431567539276
-7.13970536699924e-05
0.000321724078014563
-8.51314197782016e-05
-3.43385935145005e-06
-6.95408381162452e-05
-6.11823221659438e-05
-5.81861100414606e-05
-4.12702743726693e-05
-5.0881429216072e-05
-2.69854265536025e-05
-4.78715522468187e-05
-1.22137068901472e-05
-4.96807009200226e-05
3.99785643180506e-06
-5.60964845841465e-05
1.91198693150805e-05
-6.66920693084291e-05
3.37744890611955e-05
-7.96218841793298e-05
4.18689647655239e-05
-9.31717186511707e-05
4.39857736982085e-05
-0.000105869465530398
3.99261021318811e-05
-0.000116765102069274
3.08799769544062e-05
-0.00012616393751852
2.23904772741533e-05
-0.00013458064785566
1.49771071223729e-05
-0.000143785558217122
1.22558811930015e-05
-0.000159355877073618
2.94157990231153e-05
-0.000189847949280595
9.53647475742824e-05
-0.000233320292274404
0.000179794233403407
-0.000269342126193971
0.000161479998506545
-0.00029523465751594
0.000125993852680219
-0.000314478617717831
9.93708918415469e-05
-0.000328749128481794
7.81216663118279e-05
-0.000339361932397515
6.16061597662945e-05
-0.000347086806129695
4.84282168004615e-05
-0.000352462682236349
3.75856882973874e-05
-0.000355846669170792
2.84080425293651e-05
-0.000357496152616952
2.04005234867309e-05
-0.000357599569571291
1.32674654307971e-05
-0.000356301286375726
6.7832461598699e-06
-0.000353717061367242
8.15293008402825e-07
-0.00034994637309956
-4.73392215847202e-06
-0.000345077649599694
-9.90474226411722e-06
-0.000339188910450637
-1.47240274472251e-05
-0.000332352554978839
-1.92180182859465e-05
-0.000324637646782593
-2.34046134362432e-05
-0.000316110374874417
-2.72960723728493e-05
-0.000306835069635388
-3.08990721442401e-05
-0.000296874939695168
-3.42168729663326e-05
-0.000286292603216382
-3.72493853910108e-05
-0.000275150287747219
-3.99965590014687e-05
-0.000263510005941095
-4.24557138139564e-05
-0.000251432324554113
-4.4630382434239e-05
-0.000238975282101772
-4.65307379506946e-05
-0.000226194263455296
-4.81684472063281e-05
-0.000213142035476119
-4.95556723914375e-05
-0.000199868872749234
-5.07040976966305e-05
-0.000186422499251657
-5.16256088510834e-05
-0.000172847999298128
-5.2333123385246e-05
-0.000159187911562114
-5.28385493990124e-05
-0.000145482372632021
-5.31542260438966e-05
-0.000131770143419726
-5.3287089815369e-05
-0.000118088642634704
-5.32427174309262e-05
-0.000104472898664626
-5.30326654220197e-05
-9.09551082803555e-05
-5.26699082642511e-05
-7.75643628960525e-05
-5.21704666739022e-05
-6.43267157914558e-05
-5.15485611919789e-05
-5.12651231092434e-05
-5.0820597304824e-05
-3.83998464293266e-05
-4.99991731053086e-05
-2.57484491428666e-05
-4.90990768705324e-05
-1.33282773186152e-05
-4.81219482412614e-05
-1.15748192204102e-06
-4.70640314745187e-05
1.0746452773141e-05
-4.59293136477324e-05
2.23676060551953e-05
-4.4725768718413e-05
3.36926838948254e-05
-4.34649590097011e-05
4.47109902813173e-05
-4.21596634123422e-05
5.54122312122542e-05
-4.08125838414171e-05
6.57856077265343e-05
-3.94211602706564e-05
7.58205568660242e-05
-3.79877829496351e-05
8.55070597121777e-05
-3.65143579736561e-05
9.48361574859935e-05
-3.50073912118456e-05
0.000103798763602035
-3.34660451236408e-05
0.000112384966198773
-3.18872212962819e-05
0.00012058416479131
-3.02683492626779e-05
0.000128385106109163
-2.86069665440919e-05
0.000135775824004641
-2.69003360324923e-05
0.000142742620055216
-2.51414319528061e-05
0.000149269690225432
-2.33206373679474e-05
0.000155338432984684
-2.14279612362077e-05
0.000160927327392925
-1.94479735647416e-05