/*--------------------------------*- C++ -*----------------------------------*\
  =========                 |
  \\      /  F ield         | OpenFOAM: The Open Source CFD Toolbox
   \\    /   O peration     | Website:  https://openfoam.org
    \\  /    A nd           | Version:  7
     \\/     M anipulation  |
\*---------------------------------------------------------------------------*/
FoamFile
{
    version     2.0;
    format      ascii;
    class       volScalarField;
    location    "20000";
    object      Pk;
}
// * * * * * * * * * * * * * * * * * * * * * * * * * * * * * * * * * * * * * //

dimensions      [0 2 -3 0 0 0 0];

internalField   nonuniform List<scalar> 
15600
(
3.45036063158658e-08
2.73880997930049e-08
3.36885585076919e-11
1.57381419934224e-09
8.03193591283657e-10
3.44296514914473e-10
9.93613317926394e-11
3.12953751842485e-11
1.52038105156371e-11
1.15740683722968e-11
1.46898321792452e-11
2.51544465313214e-11
5.09679611079401e-11
9.81717366275289e-11
1.71980382635683e-10
2.5390285857598e-10
3.17309654790535e-10
3.48591142708213e-10
3.38910900880018e-10
2.91016891628076e-10
2.78153207324431e-10
9.38797227973785e-10
3.62804429578891e-09
8.25224280577308e-09
1.54784021445132e-08
2.47239520002932e-08
3.59100441629188e-08
4.84980687636759e-08
6.22569328302676e-08
7.67829387295678e-08
9.17912019302505e-08
1.06924814477851e-07
1.21869963664982e-07
1.36292061072653e-07
1.49892130045512e-07
1.62391273630609e-07
1.73570529276179e-07
1.83215884201446e-07
1.90939965008457e-07
1.96517024182377e-07
1.99856890729896e-07
2.00934395873447e-07
1.99788969473055e-07
1.96522612589536e-07
1.91293336056067e-07
1.84312075157976e-07
1.75825460196553e-07
1.66098929052088e-07
1.55404940296594e-07
1.44013144962021e-07
1.32183369683115e-07
1.201586893413e-07
1.08159877723185e-07
9.6382205588898e-08
8.49922325110045e-08
7.41319507620554e-08
6.39181185705405e-08
5.44393884583389e-08
4.57570017956286e-08
3.79057761065738e-08
3.08981436814242e-08
2.47266550801515e-08
1.93682566041899e-08
1.47865296431995e-08
1.09389165283157e-08
7.77682733758247e-09
5.24675235953001e-09
3.29128756388945e-09
1.85033830257183e-09
8.63505000165902e-10
2.7218860804806e-10
1.95936984073949e-11
5.13637039186877e-11
3.15966993269296e-10
7.65233562861142e-10
1.35441833282352e-09
2.0422280032407e-09
2.79084562089139e-09
3.56589553382035e-09
4.33652643272016e-09
5.07454304783333e-09
5.75542788487963e-09
6.35612892965739e-09
6.85855940834764e-09
7.24308802034242e-09
7.49899894319799e-09
7.60626712237758e-09
7.56645563437786e-09
7.35136760684759e-09
7.00284416867891e-09
6.46939240275623e-09
5.82911374256741e-09
4.96219309243889e-09
4.09055535727003e-09
2.96247421491153e-09
2.06923143464105e-09
9.64690324461195e-10
4.38317419818507e-10
3.2308164966669e-12
1.57446120144014e-10
3.87882349035376e-11
9.24128652158144e-11
1.57236413055337e-09
7.06889310589399e-09
2.18657451767093e-08
4.98256820681974e-08
8.93308973056319e-08
1.34771157309112e-07
1.7182696698591e-07
2.01890114212149e-07
2.43326310298968e-07
3.07567339028215e-07
4.70043636526996e-07
8.31852976313291e-07
1.65689416835751e-06
3.44420774477576e-06
5.20508356128561e-06
2.77632480381375e-06
4.63866063816859e-07
3.70715837357419e-08
1.38226503952807e-05
7.68586405653546e-06
2.76913318771723e-07
1.71702341035584e-07
1.14704145591579e-07
5.26966275725233e-08
1.58880430791997e-08
5.28998769486988e-09
2.67915373802945e-09
2.13192900463685e-09
2.77546854556713e-09
4.77799574540546e-09
9.4803893345868e-09
1.79834260309621e-08
3.11563930793997e-08
4.67940453921504e-08
6.15064306785082e-08
7.32575258118333e-08
8.01657069288053e-08
8.29617889467639e-08
1.06497251872102e-07
2.69291706527513e-07
7.84389844269507e-07
1.59891216278156e-06
2.74380371530038e-06
4.128468737996e-06
5.71767668152365e-06
7.43850086667841e-06
9.25194490700965e-06
1.11051633442391e-05
1.2958711817681e-05
1.4768129445593e-05
1.64950145961092e-05
1.81011311444125e-05
1.95541697169461e-05
2.08264759403692e-05
2.18985036966871e-05
2.27508915637856e-05
2.33393208804018e-05
2.36551009158271e-05
2.36981295465734e-05
2.34756402187191e-05
2.30017042521253e-05
2.22966884052298e-05
2.13861774826843e-05
2.03001850242719e-05
1.90712833968174e-05
1.77328447749264e-05
1.6317847682968e-05
1.48579211605888e-05
1.33826527359818e-05
1.1918991697596e-05
1.04907632985606e-05
9.11846627289981e-06
7.81911576214033e-06
6.60657639485701e-06
5.49156740068791e-06
4.48151873941268e-06
3.58076149753333e-06
2.79075046860479e-06
2.11052226395757e-06
1.53704741326005e-06
1.06568218458028e-06
6.90528531541255e-07
4.04961296261959e-07
2.0169807753924e-07
7.2945599991968e-08
1.05880145459147e-08
6.40870723688281e-09
5.23117491733608e-08
1.40421403902796e-07
2.63135872062999e-07
4.13188018274017e-07
5.83742454158718e-07
7.68417616769785e-07
9.61256771310967e-07
1.15674105742713e-06
1.34980234329366e-06
1.53582246293447e-06
1.71062366555067e-06
1.87033008843798e-06
2.01153484088855e-06
2.13095656252695e-06
2.22598916036024e-06
2.29367752426686e-06
2.33230831370193e-06
2.33863994858259e-06
2.31252956308058e-06
2.24923213289632e-06
2.15573003864607e-06
2.02439927584389e-06
1.86466151962123e-06
1.65714205438578e-06
1.43394261012818e-06
1.1534930099327e-06
8.95220490523346e-07
5.77282444839373e-07
3.59500850153809e-07
1.11870797186971e-07
4.65191685021021e-08
1.19268884244779e-07
3.48159089223644e-07
9.19126563977898e-07
2.12837147103938e-06
4.51883671531205e-06
8.32946380349446e-06
1.33663312203959e-05
1.90515731488752e-05
2.3977331204285e-05
2.83585592929148e-05
3.39773059389214e-05
4.24238519072865e-05
6.20091785505481e-05
0.000102953190967754
0.000191430736607726
0.000368981185048333
0.000540685783051526
0.000360041443368645
0.000112804779345446
2.30108201610999e-05
0.000504387923574174
0.000231812435868852
2.04530831066681e-05
1.66826352347964e-06
1.79581214209771e-06
9.02031468425956e-07
2.86514500860754e-07
1.01981608545475e-07
5.42374245672982e-08
4.5269425298469e-08
6.04414126234552e-08
1.04396024098726e-07
2.02658630012129e-07
3.77915825243595e-07
6.48134475031452e-07
9.92446677794971e-07
1.37370799306524e-06
1.76673425246728e-06
2.14548184343632e-06
2.56757874367404e-06
3.73858662725118e-06
7.58025355213274e-06
1.75397568527192e-05
3.16775708376319e-05
4.91534729732532e-05
6.85787341121175e-05
8.91635412006192e-05
0.000110006148983036
0.00013058009742011
0.00015031623098177
0.000168806545520012
0.000185648607113273
0.000200530479111076
0.000213181451161069
0.000223415432117853
0.000231114622273313
0.000236275406187307
0.000238613959927304
0.000238140888015995
0.000234986385776683
0.000229329202267824
0.000221397898689694
0.00021146171016008
0.000199822262991897
0.000186802115260215
0.000172735445756706
0.000157954562740343
0.000142778530932808
0.000127506141041077
0.000112410770241727
9.77369124466358e-05
8.36977092548568e-05
7.04732834434423e-05
5.82108486025592e-05
4.70254294146244e-05
3.7002112425203e-05
2.81968839451161e-05
2.0637474741074e-05
1.43258814391705e-05
9.24138419625914e-06
5.34414428285638e-06
2.57875023936399e-06
8.77575607850964e-07
1.6390533588696e-07
3.54129059378699e-07
1.35897844382372e-06
3.08546192546154e-06
5.4392410787229e-06
8.32671185480066e-06
1.16556362169264e-05
1.53359837869039e-05
1.92799791522677e-05
2.34030953240706e-05
2.76261387658267e-05
3.18740730190258e-05
3.60755859920666e-05
4.01633664657326e-05
4.40745639547425e-05
4.77509522783908e-05
5.1138096409609e-05
5.41840894308142e-05
5.68409070596952e-05
5.90613408558425e-05
6.08040361236946e-05
6.20231161407177e-05
6.26830561344092e-05
6.27313419985091e-05
6.21432081027284e-05
6.08445925166555e-05
5.88863721069561e-05
5.61983634204921e-05
5.2825611262522e-05
4.85157442018622e-05
4.35698846334191e-05
3.74627367669204e-05
3.11022909425652e-05
2.34025106807351e-05
1.67119941372004e-05
8.75213692277941e-06
7.64639333346462e-06
1.20486387911211e-05
2.1069195808333e-05
3.56400246293505e-05
5.89066437249997e-05
9.5099501859176e-05
0.000144575678210297
0.000206470302748385
0.000276470530463563
0.000343794395567527
0.000411483559481016
0.000493842292872895
0.000610831956015814
0.000847067242911939
0.00129250009835262
0.00216311605484247
0.00368441836110942
0.00504859536476831
0.00415378267434942
0.00222508872099327
0.000865982575209591
0.00478905228402565
0.00215511072207894
0.000316608661480184
3.68805013397198e-06
9.64403059935184e-06
5.48742590447188e-06
1.86041886197599e-06
7.17098078901608e-07
4.0317242963322e-07
3.5317660818505e-07
4.81821552779583e-07
8.29939898274705e-07
1.56974539253782e-06
2.86264893520552e-06
4.84557439145567e-06
7.53099109320323e-06
1.08712619836796e-05
1.48534573656524e-05
1.94739338189109e-05
2.55717463364265e-05
3.74258678376068e-05
6.15529974911063e-05
0.000113306097219534
0.000174420087067657
0.000236317042066918
0.000295000173089651
0.000348356015467964
0.000395080974654606
0.000434727576324836
0.00046694308280091
0.00049170192564339
0.000509060174731728
0.000519249494092232
0.000522600753913814
0.000519585527588658
0.000510834255164352
0.000496629198999081
0.000477481163872749
0.000454203692570003
0.0004275275044274
0.000398178959412832
0.000366869362046469
0.000334282732257766
0.000301066594083016
0.000267822422672653
0.000235098711522287
0.000203385240579146
0.000173110707044404
0.000144643494303962
0.000118293235777872
9.43129280416128e-05
7.29014444944504e-05
5.42064819120864e-05
3.8327884063611e-05
2.53212862819455e-05
1.52015085074653e-05
7.94569902529723e-06
3.49716464604317e-06
1.76969570539385e-06
2.65186426289127e-06
6.01122850115993e-06
1.16978631725199e-05
1.95481679192675e-05
2.9385059289793e-05
4.10199423743947e-05
5.42552580665786e-05
6.88905326704515e-05
8.47246781826606e-05
0.000101559650069859
0.000119196605421914
0.000137431029665335
0.000156062303703056
0.000174894497887121
0.00019374028427964
0.000212414695313217
0.000230735089549839
0.000248521796782458
0.000265600214620482
0.000281802011368404
0.00029695955722271
0.000310906804216619
0.000323475320517926
0.000334498125240404
0.000343803241232732
0.000351215652487239
0.000356543763783079
0.000359587641055874
0.000360117031711343
0.000357881482242139
0.000352590431962505
0.00034420292345055
0.000332307883098149
0.000316423763832923
0.000296142420205451
0.000270672002650526
0.000240057990780298
0.000202664592170836
0.000162008229118818
0.000111178226305312
0.000115088086481894
0.000149671309837633
0.000207402314963031
0.000280950085676228
0.000380066600979912
0.000508487201680104
0.000665012525562622
0.000858089940376329
0.00108854009271951
0.00135259968470282
0.00166589113499478
0.00204636800943739
0.00255049182364238
0.0033758584865704
0.00467629437310999
0.00678981379892076
0.00964494460937573
0.0116260456689471
0.0119762335273651
0.01040751357541
0.00696339706796288
0.0167184970277542
0.00862230412423663
0.00194572196906832
1.73273927459265e-05
2.6929144173355e-05
1.8626330769492e-05
6.8841356301988e-06
2.92154122761217e-06
1.74772887227289e-06
1.60256739503896e-06
2.21663776279195e-06
3.7661654037277e-06
6.87036324708232e-06
1.20927545997045e-05
1.99096516996824e-05
3.07303887388205e-05
4.48061380732477e-05
6.25256229353776e-05
8.45548436470094e-05
0.000113938796356545
0.000155780445776496
0.000208056574378801
0.00029543815965661
0.000367896217062848
0.000416167679817341
0.000446032768018723
0.000461216817952337
0.000465255163505215
0.000460490480240571
0.000448782414851447
0.000431548478829487
0.000410013966980598
0.000385212857396888
0.000358078670244247
0.000329467585155895
0.000300110259864869
0.000270442407606636
0.00024099194037861
0.000212220488494588
0.000184514850358609
0.000158198658697758
0.000133538727095304
0.000110750518900887
9.0003255592031e-05
7.14258426536483e-05
5.51129423333068e-05
4.11304939457965e-05
2.952006786947e-05
2.03026240869052e-05
1.34811518406648e-05
9.04292180624929e-06
6.96114584441996e-06
7.19623420173587e-06
9.69689710467541e-06
1.44003146445997e-05
2.12344019441181e-05
3.01206931494867e-05
4.09749013921264e-05
5.37078039298687e-05
6.82241956037863e-05
8.44246628671247e-05
0.000102203454787681
0.000121450296253961
0.000142044222927846
0.000163858793484454
0.000186764435858446
0.00021062991340049
0.000235335238731405
0.000260750277616801
0.000286737344088938
0.000313155495411298
0.000339860516629338
0.000366710677829943
0.000393566587936312
0.000420283022656812
0.000446710361392252
0.000472695142985323
0.000498082516087861
0.000522718341018385
0.000546438693446036
0.00056907893011783
0.00059045573206883
0.000610394772152184
0.000628685191758921
0.00064514499964094
0.000659500036482797
0.000671568804180553
0.00068094067624211
0.000687475892618375
0.000690391494336062
0.000689973884379008
0.000684791042222435
0.000675591110145153
0.000659013018109085
0.000637615804916443
0.00060354801961937
0.000563172474310002
0.000501798000554736
0.000423359038774553
0.000455378543749123
0.000512443627781163
0.000603903263203112
0.000712058198458679
0.000849645722749117
0.00100490682080732
0.00117626902444415
0.00139092131115036
0.00167330880438457
0.00207566188179763
0.00265061417976422
0.00339142026737994
0.00434319686629726
0.0055750500892782
0.00702214302215014
0.00866376503312155
0.00976592374350921
0.00935513300027886
0.0128674433546578
0.019104028441948
0.0197944608497791
0.029095328946939
0.0182731477581481
0.0061447356899607
0.000233841050081251
4.25691589641532e-05
4.19051221923656e-05
1.75294427742787e-05
8.39276833746054e-06
5.38118560982842e-06
5.13294151050899e-06
7.10622858083688e-06
1.17063362800819e-05
2.02133578819813e-05
3.35053759380271e-05
5.20682642061781e-05
7.67587136658254e-05
0.000108013450142438
0.000146943637527625
0.000196167269479861
0.000258145902746114
0.000322036645381682
0.000352439165430497
0.000376140311495592
0.000367462456093815
0.000338440535360774
0.000304840604332999
0.000270798718210025
0.000238632593675424
0.000208557054065316
0.000180767680621706
0.0001551663738435
0.000131755977995135
0.000110501937050249
9.14114736436063e-05
7.44946072833541e-05
5.96689924303814e-05
4.6840572312996e-05
3.59928044013479e-05
2.70829377911243e-05
2.00576857564727e-05
1.48559866868434e-05
1.14101427394162e-05
9.64749227526716e-06
9.49239235303518e-06
1.08686021493873e-05
1.37033594079243e-05
1.79288360156401e-05
2.34812573869196e-05
3.0300482427885e-05
3.83294433579788e-05
4.75139349980608e-05
5.78022583240393e-05
6.91443463843285e-05
8.14918646005119e-05
9.47964602318198e-05
0.000109011737894354
0.00012409602315274
0.000140010905865526
0.000156719842039833
0.00017418472117254
0.000192366937109367
0.000211223706579331
0.000230709788308681
0.00025076951947881
0.000271344824243169
0.000292375705926848
0.000313813837548419
0.000335610525041819
0.000357716827145982
0.000380069869919897
0.000402602820768324
0.000425246406385951
0.000447935833293537
0.000470607719701917
0.000493191201485383
0.000515609741874269
0.00053778356004641
0.000559632120468917
0.000581076783772087
0.000602028161069027
0.00062239994166338
0.00064208626956922
0.00066100183234663
0.00067901959996799
0.000696069366841812
0.000711968558334166
0.000726700817975209
0.000739951229038288
0.000751876862482283
0.000761808561987389
0.00077055366254746
0.000776532954251605
0.00078196603588437
0.000782446551739785
0.000784513722338303
0.00077590944386796
0.000773797381220551
0.000746927357408991
0.000726340290095593
0.000789730189064505
0.00082574619374203
0.000891739103284851
0.000977254607767742
0.00108882626897522
0.00119707356919832
0.00129259463222441
0.00140581876674998
0.00157110011116806
0.00187241284755014
0.00239539453626531
0.00312851755046298
0.00408378680968451
0.00510704953593287
0.00587988552657358
0.00615053759088163
0.00532651094159415
0.00328604725164968
0.00578048546736234
0.0187305175252477
0.0286246375571407
0.0324300056006352
0.0258292439532731
0.0121595972542841
0.00131381595494144
3.29219189125084e-05
6.49598431899371e-05
3.28489039258822e-05
1.84258044358319e-05
1.27993533055828e-05
1.25917375459469e-05
1.71473181183824e-05
2.67762496098215e-05
4.26458015568867e-05
6.45316303288532e-05
9.15794284767593e-05
0.000124893593806763
0.000165474404110503
0.000215781562733615
0.000279837096194084
0.000353874715277334
0.000402188532072436
0.000364238884776183
0.000291961612704155
0.000224272969901376
0.000166544611446828
0.000123232967198237
9.03296569206177e-05
6.5469142154911e-05
4.63828775292657e-05
3.17901365038209e-05
2.0749935670602e-05
1.26804767349515e-05
7.15734157989885e-06
3.87724448536824e-06
2.59180286233624e-06
3.09469016798972e-06
5.22859904789931e-06
8.84846436066936e-06
1.38181225474267e-05
2.00103001317882e-05
2.7304131453734e-05
3.55845967895484e-05
4.47429888370716e-05
5.4678479666611e-05
6.52982791787042e-05
7.65207257840271e-05
8.82769154998045e-05
0.000100507976648118
0.000113162997532042
0.000126197678814383
0.000139573585395194
0.000153257745143101
0.000167221474298787
0.000181441045370157
0.000195894926202607
0.000210565267305183
0.000225441807689746
0.000240520153007399
0.000255798779640414
0.000271274599329212
0.000286943791025803
0.00030279777052425
0.000318826111051687
0.000335005762460746
0.000351306621821485
0.000367705765109276
0.000384189089984357
0.000400752438272918
0.000417384753505849
0.000434059490256541
0.000450744106377223
0.000467405208694317
0.000484016026467914
0.000500553009931209
0.000516984678017029
0.000533272395389161
0.000549375896396292
0.000565256334157646
0.000580879302764906
0.000596200581594827
0.000611181044995269
0.000625765332308897
0.000639924201099983
0.000653592092185183
0.000666768938840786
0.000679349980325767
0.000691414576424385
0.000702757935875635
0.000713689859033902
0.000723697660892413
0.000733843686869193
0.000742859422670831
0.00075351869047136
0.000761930113879028
0.000776038280092558
0.000784365859904394
0.000808485023257348
0.000816645260598125
0.000856803437858957
0.000953370121469174
0.000987812380395669
0.00103719042466094
0.00110557271346624
0.0011960004821979
0.00126967315763991
0.0013067735798408
0.00133374642243108
0.00138399169608562
0.00153752831211574
0.00188406781761976
0.00241350235114971
0.00311993125111712
0.0037875216256685
0.00406652010214827
0.00379688332462545
0.0028004585955313
0.0010985202643207
0.000852733057620551
0.0116843060087919
0.0274850233611337
0.0297649367153406
0.0284027604775636
0.0178693221806111
0.00400827711909124
3.77465557027026e-05
6.6377663604864e-05
4.54420958550749e-05
3.1517360469242e-05
2.41457164335076e-05
2.43101875323286e-05
3.19793319515351e-05
4.62847005012604e-05
6.63943358837987e-05
8.97217813052412e-05
0.000114838933864069
0.000145190944817102
0.000183792981937256
0.000233467131758799
0.000295828049002473
0.000357542283736427
0.000369292530209575
0.000278861673342192
0.000171785620627334
0.000104539437014724
6.02199148789801e-05
3.29857513720123e-05
1.63129350684577e-05
6.65605383906255e-06
1.81837749001263e-06
5.06560936081888e-07
1.9259082510054e-06
5.55354817214891e-06
1.10300032519167e-05
1.80797312385667e-05
2.65072464606253e-05
3.61600543966928e-05
4.68782799158506e-05
5.85098983669917e-05
7.09181211988568e-05
8.39740560983242e-05
9.75550460461006e-05
0.000111544845444747
0.000125834973758524
0.0001403274074176
0.000154933291054561
0.000169575941108876
0.000184195223110198
0.000198743936284866
0.000213184413037129
0.000227486751702737
0.000241627830866027
0.000255591264676364
0.000269366205761853
0.000282948934291587
0.000296338439897863
0.000309536835632531
0.000322555564870197
0.00033541400462031
0.000348134830261045
0.000360738583264274
0.000373244443632366
0.000385665629326396
0.000398014702145731
0.000410286588610758
0.000422464419872267
0.000434544386779341
0.000446536692034142
0.000458459604659804
0.000470325358612398
0.000482127801756278
0.000493850529960182
0.000505477491756488
0.000517000989415115
0.000528418878479691
0.000539720462821785
0.000550885177988605
0.000561891630319644
0.000572721609698205
0.000583363368782794
0.000593795592640252
0.000604001992199542
0.000613952576449887
0.000623645528559106
0.000633048185341372
0.000642194064159147
0.000651021833137699
0.000659652551890165
0.00066794987622628
0.000676280551266788
0.000684254554367889
0.000692956722886868
0.000701427294616055
0.000712536795960408
0.000723077639410389
0.000741043763049475
0.000756809809275289
0.000792171286348822
0.000820440743162238
0.000892769559637109
0.00102158456322238
0.00107863028077845
0.0011332094312794
0.00120223995786039
0.00129003177823954
0.00135404949411892
0.00136602511316167
0.0013489387464705
0.0013353242235489
0.00139597416312411
0.00161822308493516
0.00199518650449452
0.00251715682798554
0.00300704045297331
0.00319727463657385
0.00305935479750658
0.00260896329762466
0.00157294937134656
2.71500115527141e-05
0.00518770566576518
0.0204949366699888
0.0225696787829917
0.0271372502197033
0.0218129196447414
0.00822090874573217
0.000271966972283176
3.86783916183139e-05
4.54686572340725e-05
4.15444321343123e-05
3.60513763309365e-05
3.70709189607883e-05
4.65437757191492e-05
6.15989459481147e-05
7.88083516343158e-05
9.52049997501941e-05
0.000111948519256206
0.000135592053915022
0.000169583689274802
0.00021436567861104
0.000266630044922719
0.000306398119418213
0.000287664846207098
0.000184709643034988
9.22100692930648e-05
4.59640178151307e-05
2.19692989936591e-05
1.10775834970715e-05
8.39835752046122e-06
1.06196293936066e-05
1.62878112031833e-05
2.43701430246995e-05
3.43488783538705e-05
4.58312420117486e-05
5.85622904848818e-05
7.23348557266792e-05
8.70264324639265e-05
0.000102507615402899
0.00011862698319305
0.000135237016313895
0.000152204934244902
0.000169402967399481
0.000186708316101908
0.000204003998570109
0.000221181305227703
0.000238143741335742
0.000254803903776904
0.000271086664723757
0.000286937691230578
0.000302318835890702
0.000317203060174681
0.000331572136520699
0.000345415394300928
0.000358730162760263
0.000371520554026946
0.000383800266127801
0.000395585726847908
0.000406894747130252
0.000417756098600894
0.00042820883301363
0.000438295840923657
0.000448057194906917
0.000457531044138566
0.000466748078847735
0.000475740214962782
0.000484512940234731
0.000493061660174112
0.000501395394630269
0.000509541152028861
0.000517532319154244
0.000525399314308541
0.000533150874804314
0.000540779647613767
0.000548279432877663
0.000555654050151941
0.000562915417473813
0.000570066238170082
0.000577095752708705
0.000583992585438474
0.000590750096434934
0.00059736987018795
0.000603843667556637
0.000610167185974352
0.000616324157651357
0.000622327426642649
0.000628163509906394
0.000633883808697264
0.000639452739689746
0.000645011575502344
0.000650467793899171
0.000656210697363606
0.000661945483791726
0.000668722810597675
0.000675811455601777
0.000686055781024361
0.000696812851813414
0.000715776760885446
0.000734976978199455
0.000775122518256009
0.000814962845791031
0.000902129308120155
0.00105615866598031
0.00114420957871552
0.00121686533558575
0.00129850951259177
0.00139623978370782
0.00146617865493526
0.00147403710958144
0.00144075080722633
0.00139940374889288
0.00141454280677747
0.00157383662410273
0.00187785924038323
0.00232372603111478
0.00279994355209826
0.00313460057259552
0.00336546778989067
0.00350732826127456
0.00287775458864556
0.00071575263886739
0.00193249986549968
0.0131023625907186
0.0156676504943062
0.0229802618616908
0.0235711150739146
0.0130226769911392
0.00106191367776066
6.22902688360338e-06
3.291325291896e-05
4.16178817091486e-05
4.22948567034843e-05
4.4738143448519e-05
5.36004090230468e-05
6.49609465200405e-05
7.48086774752491e-05
8.26901729248035e-05
9.26906365812282e-05
0.000111889252947602
0.000142172843909742
0.000180980143562468
0.000220963008912834
0.00024106101075892
0.000208080817360572
0.000119348438252216
5.54966309147689e-05
2.96304970709523e-05
2.26540978351195e-05
2.43904830448014e-05
3.2354607533485e-05
4.34969175929547e-05
5.70439742110427e-05
7.21602906591563e-05
8.85501049427362e-05
0.000105917275225098
0.000124085655565359
0.000142908907003373
0.000162301435379724
0.000182151030394346
0.000202311126557715
0.000222634610995881
0.000242988340956772
0.000263241949888618
0.000283269242564447
0.000302949389942261
0.000322170508808985
0.000340834872784505
0.000358853345155562
0.000376148866161383
0.000392670374076804
0.000408386928780066
0.000423280498740695
0.000437342987895501
0.000450574645479982
0.000462985126587841
0.00047459224422866
0.00048542637195286
0.000495520421674136
0.000504905923667273
0.000513626994271273
0.000521740775888972
0.000529308985523994
0.000536389773228307
0.000543038921604413
0.00054930305897905
0.000555230187669373
0.000560838770784721
0.000566133421981101
0.000571135005708027
0.000575881771691351
0.000580419890576938
0.000584796284791815
0.000589032803721185
0.000593128100324177
0.000597082421329463
0.000600907840331651
0.000604627304242195
0.000608253920629658
0.000611783033990619
0.000615209221735993
0.000618533370807834
0.000621766343778357
0.000624908628617483
0.000627963007770087
0.000630921574649928
0.000633806253335741
0.000636616528435559
0.000639415267576855
0.000642184326422269
0.000645077265397294
0.000648033016502422
0.000651453006196103
0.000655117061893111
0.000660047618319611
0.000665674464296249
0.000674803037666269
0.000685232862814052
0.000704336073825758
0.000725455506094742
0.000767988185596143
0.000815446577169983
0.000909490994322748
0.00108108822856931
0.00120024652302368
0.00129734443562808
0.00139882445982121
0.00151397392517898
0.0015983451159032
0.00161387135518592
0.00158077430879744
0.00153344812688145
0.00153297259457622
0.00166984527058589
0.00195517684339953
0.00239968158697047
0.00296006867190294
0.00354473621402243
0.00419415472335805
0.0048067634031474
0.00431291224610583
0.00164391130665938
0.00088908239636501
0.00780399363077159
0.0104521415167165
0.0179500372287739
0.0234114458057232
0.0174405360124053
0.00262062362450236
7.59785762729267e-06
1.90119246837116e-05
3.169424895704e-05
3.90554061687915e-05
4.32029252917573e-05
5.00184984258866e-05
5.64001555351425e-05
5.98762559573423e-05
6.26315024168573e-05
6.94962626402457e-05
8.62181798378692e-05
0.000113181882855218
0.000145804118050007
0.000174753453559858
0.000181939100918246
0.000148071306340101
8.3377027384229e-05
4.64096221206232e-05
3.67902093613855e-05
4.3364025892156e-05
5.50946656428855e-05
7.16715753181609e-05
9.01136267886367e-05
0.000110191167241146
0.000131187873691349
0.000152978868473836
0.000175334908854505
0.000198136076170727
0.000221283942785979
0.000244710501585873
0.000268321298338657
0.000291969456078334
0.000315503756005886
0.000338787198311107
0.000361683901273952
0.000384061747628457
0.000405793657092609
0.000426762400898098
0.000446867168121958
0.000466014850603111
0.000484123841101394
0.00050114472385154
0.000517052837267245
0.000531838414592846
0.000545502807350178
0.000558056474325852
0.000569520808573635
0.000579926860780711
0.000589321822620606
0.00059775514958444
0.000605271121338306
0.00061192820365811
0.000617801061383609
0.000622969858646143
0.00062751037798827
0.000631495697726889
0.000634987219899417
0.000638047535622625
0.000640711738601457
0.000642994711522688
0.00064492390938823
0.000646547633958308
0.000647923934995599
0.00064911595297653
0.000650158314469279
0.000651054177966222
0.000651808448630056
0.000652439935640782
0.00065298139092639
0.0006534551415742
0.000653860774062821
0.000654196717556633
0.000654469458981539
0.000654697340768741
0.000654887560627853
0.000655047572803204
0.000655175165905602
0.000655298784771681
0.000655427995486136
0.000655634499178513
0.000655913533779581
0.000656428178702673
0.000657142448195587
0.000658467974808485
0.00066024518526309
0.000663486656916345
0.000667736643479329
0.000675778097414816
0.00068576152428722
0.000704795711610164
0.000727254705271535
0.000771305102158785
0.000824521537519366
0.000921939296147748
0.00110494423935905
0.00125215745289295
0.00137641612979657
0.00150206537357832
0.00163902160598068
0.00174234189748575
0.00177233688563686
0.00174978988018608
0.00171057375383806
0.00171390553997036
0.00185426172907489
0.00215495394262177
0.00264462764859442
0.0033453024236786
0.00422642289664498
0.00528483177272721
0.00622470427618509
0.0056572369533473
0.00249570787849405
0.000748102915958777
0.00468806292435727
0.00702567884584516
0.0132762737317435
0.0218926403910011
0.0210350901066296
0.00496073258587418
8.76261782346946e-05
1.29507435368704e-05
1.86716572843079e-05
2.85433975230816e-05
3.38853319062497e-05
3.88374462799496e-05
4.18734310101303e-05
4.23171608972893e-05
4.33012236937357e-05
4.8944766378599e-05
6.36441526286921e-05
8.71499185322904e-05
0.000113965609075576
0.000134526491050165
0.000135329228506246
0.000108020719152454
6.80676537132129e-05
5.31592401107374e-05
5.66451879173208e-05
7.45483431350123e-05
9.48153424324033e-05
0.000118970397766047
0.000143939266352645
0.000169939543058689
0.000196319929346845
0.000223096055958111
0.000250085976954123
0.000277215095921906
0.000304413715578016
0.00033163495135879
0.000358799278004214
0.000385755254835605
0.000412344019466155
0.000438422476850801
0.000463847334897424
0.000488478898818052
0.000512182196283923
0.000534833236977139
0.000556327088622359
0.00057656521322372
0.000595459445975939
0.000612961003524925
0.000629051183193068
0.00064372829423578
0.00065700297217654
0.000668895641123909
0.000679439270352551
0.000688678084597144
0.000696676704877468
0.000703501739484808
0.000709209748462692
0.000713873016888432
0.000717583643401636
0.00072044030901271
0.000722536437392604
0.000723962387654472
0.00072479146371505
0.000725104891041604
0.000724956861392192
0.000724370837416127
0.000723378493368141
0.000722037717576522
0.000720418199251493
0.000718599634270054
0.000716629712533576
0.000714515221526464
0.000712264644774016
0.000709902822501719
0.000707471973400775
0.000705003305057539
0.000702499582648798
0.00069996186059979
0.000697401293643609
0.000694842988978551
0.000692299923285166
0.000689782929461275
0.000687294064256635
0.000684867115800453
0.000682520428738103
0.000680333574267967
0.000678313123373994
0.000676630998482292
0.000675272878927267
0.000674661827330261
0.00067468932373754
0.000676374035569114
0.000679349978830454
0.000686392918541375