/*--------------------------------*- C++ -*----------------------------------*\
  =========                 |
  \\      /  F ield         | OpenFOAM: The Open Source CFD Toolbox
   \\    /   O peration     | Website:  https://openfoam.org
    \\  /    A nd           | Version:  7
     \\/     M anipulation  |
\*---------------------------------------------------------------------------*/
FoamFile
{
    version     2.0;
    format      ascii;
    class       volSymmTensorField;
    location    "20000";
    object      tauij_B_bouss;
}
// * * * * * * * * * * * * * * * * * * * * * * * * * * * * * * * * * * * * * //

dimensions      [0 2 -2 0 0 0 0];

internalField   nonuniform List<symmTensor> 
15600
(
(1.08113863245722e-06 -3.86931940357834e-09 1.12690691718442e-30 1.08121264923994e-06 -1.13108773072433e-31 1.08116296512073e-06)
(7.54746112239252e-07 -2.86406190015991e-09 -2.20720917611329e-32 7.55415312074174e-07 -6.79551479947018e-31 7.55086188512129e-07)
(3.13317667772125e-07 -6.40557408569903e-11 2.16762776072844e-31 3.1330827695506e-07 1.22112983891803e-30 3.13307904344907e-07)
(6.93983203269854e-08 1.20131370271242e-10 -7.88824319330872e-32 6.90851491713238e-08 -1.27223180217092e-31 6.92400991406614e-08)
(4.27629648165597e-08 4.1178547782823e-11 1.83567988311629e-28 4.25643997356288e-08 -1.20455277734001e-30 4.2662871686496e-08)
(3.89700849387841e-08 1.6787319233203e-11 -1.1670509706958e-27 3.88383682876763e-08 -1.48779629389668e-27 3.8903803570427e-08)
(1.87521174769414e-08 4.79763748115039e-12 -8.83065998730364e-29 1.87002002857947e-08 1.74001915874434e-30 1.87259769981899e-08)
(1.0780725770298e-08 2.08680736652862e-12 -1.33374043116071e-31 1.07571672154698e-08 -1.32025883632295e-31 1.07688921649073e-08)
(8.03176196491793e-09 1.54926835002605e-12 1.39971445728333e-27 8.01660522802979e-09 1.51396627319571e-27 8.02415812663134e-09)
(7.83044448539191e-09 1.57399306373028e-12 2.0203123934119e-27 7.81656419316594e-09 2.27955985625408e-27 7.8234988858346e-09)
(9.66639542184598e-09 2.22733480915983e-12 -8.27831924399361e-28 9.64803793791101e-09 -7.82035131917803e-28 9.65721637291089e-09)
(1.32915705245307e-08 3.72764366168124e-12 -1.70576162147083e-28 1.32619494716304e-08 1.52218352512009e-29 1.32767759324025e-08)
(1.93402748105566e-08 6.97371641389327e-12 -3.25330068609445e-28 1.92870340092302e-08 3.73607102722325e-29 1.93136637145697e-08)
(2.82681580004063e-08 1.37430035390524e-11 -5.07110244987302e-27 2.81749248409665e-08 -6.79272669171683e-27 2.82215440061373e-08)
(4.05295310319662e-08 2.77785234217254e-11 -1.25057846616573e-26 4.03763988271695e-08 -1.63137573346658e-26 4.04529371094755e-08)
(5.59066264980909e-08 5.31682518203262e-11 -2.41145920841918e-26 5.56839805612515e-08 -3.55804339141975e-26 5.5795269599606e-08)
(7.31559040579838e-08 9.26726195517454e-11 1.83234436109373e-27 7.2876386058331e-08 -1.18431510545337e-28 7.30162385053152e-08)
(9.10226887447857e-08 1.42219604922179e-10 -1.99691166238672e-26 9.07213912979926e-08 -4.02579756420555e-26 9.08723484966484e-08)
(1.0723398155387e-07 1.88658229507702e-10 3.96743408252841e-27 1.06964707806667e-07 -4.20511327940465e-28 1.07099908973386e-07)
(1.18408490981645e-07 2.13892804624079e-10 -1.96704786472858e-29 1.18225407422916e-07 -9.39171680313334e-29 1.18317659521136e-07)
(1.29318603170488e-07 2.36108041041009e-10 5.17941108757108e-29 1.29223340033384e-07 1.02386340739436e-28 1.29270792782276e-07)
(1.64160991537846e-07 4.96923959247236e-10 3.88605037188946e-29 1.64110273186393e-07 -3.03764824349082e-28 1.64137543393634e-07)
(2.48031295625155e-07 1.20157215065604e-09 -8.04117504995492e-29 2.47966021562383e-07 7.75532506682705e-30 2.47999364457728e-07)
(3.4567878440381e-07 2.13980445432285e-09 -0 3.45599982137325e-07 -0 3.45642193726776e-07)
(4.51129943911622e-07 3.34813189027572e-09 -0 4.51039651339902e-07 -0 4.51087893898106e-07)
(5.60508009214935e-07 4.71692074751113e-09 1.27247904508974e-24 5.60411428980883e-07 -1.09806095541521e-25 5.60464395909933e-07)
(6.72478506317763e-07 6.22683194573936e-09 5.0074039824259e-24 6.72378243748067e-07 -7.8042804082366e-24 6.72434093908657e-07)
(7.8536158292779e-07 7.82031323577329e-09 2.53835896816106e-24 7.85259736389378e-07 -8.1197140081597e-24 7.85317897590873e-07)
(8.98960988861774e-07 9.47973410310744e-09 -2.12374066411963e-24 8.98859039961426e-07 1.71741224482871e-25 8.98918610711452e-07)
(1.01261773022579e-06 1.11735320576066e-08 -4.94554051116093e-29 1.01251703346775e-06 8.35860769960146e-28 1.0125774932822e-06)
(1.12615308326301e-06 1.2883600804185e-08 3.16993453405444e-24 1.12605501947254e-06 -2.34073381890548e-25 1.1261155991135e-06)
(1.23912903425811e-06 1.45860498864537e-08 1.20049506884245e-23 1.23903502418251e-06 -1.6375380228683e-23 1.2390950269954e-06)
(1.35126665275741e-06 1.62615095914792e-08 5.53101917825954e-24 1.35117823548969e-06 -1.65440981621284e-23 1.35123680327869e-06)
(1.46220598546595e-06 1.78888788319276e-08 -4.34124839792451e-24 1.46212473823058e-06 3.00356931396647e-25 1.46218101771832e-06)
(1.57175074788063e-06 1.94502960839601e-08 -4.77318001509768e-29 1.57167832524243e-06 -1.56841444012712e-27 1.5717313710517e-06)
(1.67980392742054e-06 2.09294041457358e-08 -6.2588500327029e-30 1.67974193558967e-06 -7.00506114551128e-28 1.67979082333252e-06)
(1.78649973236109e-06 2.23144833621803e-08 1.15156232080098e-28 1.78644965901115e-06 7.38285090891364e-28 1.78649349732748e-06)
(1.89164995258716e-06 2.35912171255431e-08 -6.97893382772928e-24 1.8916131834136e-06 3.89680628328248e-25 1.89165111735172e-06)
(1.99286624328655e-06 2.47193377798973e-08 -2.13183185874928e-23 1.99284405145891e-06 3.29814965527162e-23 1.99287525239583e-06)
(2.08885057969882e-06 2.56746162140767e-08 -6.4633797352991e-24 2.08884402116354e-06 3.3152025532283e-23 2.08886775621532e-06)
(2.17909036027727e-06 2.64452771950284e-08 8.4573800890907e-24 2.179100236554e-06 -4.26703097127259e-25 2.1791158962606e-06)
(2.26312436782515e-06 2.70229627516776e-08 -2.67292239242897e-28 2.2631512042941e-06 -1.47241307948643e-27 2.26315831662806e-06)
(2.34054807571561e-06 2.74029126265282e-08 -6.05047178706602e-29 2.34059209409839e-06 -2.56264439686971e-27 2.34059034750095e-06)
(2.41104332543342e-06 2.7584267196898e-08 2.70518022213744e-28 2.41110444785927e-06 1.33581161399159e-27 2.41109368658585e-06)
(2.47436981085458e-06 2.75699069618966e-08 -1.00892234092759e-28 2.47444762611864e-06 4.09708160810836e-30 2.47442787916096e-06)
(2.53042599679285e-06 2.73669937039633e-08 1.3275783413828e-23 2.53051979766679e-06 -4.71720866119069e-25 2.53049126165603e-06)
(2.57923613335497e-06 2.69860932733045e-08 2.94870155253798e-23 2.57934499211816e-06 -6.20655782986125e-23 2.57930799450787e-06)
(2.62090065203148e-06 2.64400571070898e-08 1.40409899014657e-24 2.62102346915884e-06 -6.26719184641261e-23 2.62097844590536e-06)
(2.65557772569884e-06 2.57433833673941e-08 -1.44781586295505e-23 2.65571327129376e-06 4.42094343921378e-25 2.65566074528493e-06)
(2.68346745633235e-06 2.49116704612128e-08 5.24831040298725e-42 2.68361439900299e-06 2.50269115692013e-27 2.68355496567118e-06)
(2.70481000692594e-06 2.39612910993559e-08 5.3696011531659e-42 2.70496694460622e-06 -1.28532505726313e-27 2.70490125707159e-06)
(2.71988420519488e-06 2.29089887515312e-08 1.64897879649264e-23 2.7200497054468e-06 -3.36183987131237e-25 2.71997844970436e-06)
(2.72898075272427e-06 2.17713835295761e-08 2.9007824624413e-23 2.72915337055009e-06 -8.06010046274704e-23 2.72907726009055e-06)
(2.73240752046656e-06 2.05647442265292e-08 -5.23215950913137e-24 2.73258584072067e-06 -8.19206707723927e-23 2.73250558723076e-06)
(2.73043846994273e-06 1.93044424675891e-08 -1.70364582248224e-23 2.73062108773421e-06 2.59434441958859e-25 2.73053741131745e-06)
(2.72336131923174e-06 1.80055308119307e-08 -7.54138571196784e-30 2.72354683064858e-06 1.33375115898229e-27 2.72346046724707e-06)
(2.71154637196197e-06 1.66828418230049e-08 -6.87391067756193e-29 2.71173343592064e-06 -1.04515739464659e-27 2.71164509755052e-06)
(2.69539394118216e-06 1.53502683689722e-08 2.50066204552366e-29 2.69558130305076e-06 1.15673274642209e-28 2.69549167169508e-06)
(2.67534676406239e-06 1.40205634708205e-08 1.24109613805287e-29 2.6755333005162e-06 -4.89593294148487e-29 2.67544299383139e-06)
(2.65181232973006e-06 1.27048278425428e-08 -1.31625155929984e-29 2.65199703645888e-06 -3.49799042884229e-28 2.65190662316898e-06)
(2.62522663712826e-06 1.14127905026146e-08 1.05991779299219e-29 2.62540866031173e-06 -0 2.62531862972123e-06)
(2.5959578694114e-06 1.015244472573e-08 -2.25179999223661e-29 2.59613647176692e-06 -1.14302756006014e-31 2.5960472636229e-06)
(2.56437349483234e-06 8.93040053762688e-09 1.89999284313779e-29 2.56454808988622e-06 -3.04003138346693e-28 2.56446006132301e-06)
(2.53065021187655e-06 7.751373798009e-09 2.51792018488378e-29 2.53082027268035e-06 3.00699273594347e-28 2.53073375221275e-06)
(2.49496326640248e-06 6.61974012803089e-09 -2.16678348183334e-29 2.49512828347003e-06 -2.19974531035575e-31 2.49504359062305e-06)
(2.45745977649743e-06 5.53929715480274e-09 -0 2.4576192939642e-06 -0 2.45753671881812e-06)
(2.41840085564696e-06 4.51337632983445e-09 -0 2.41855449696132e-06 -0 2.41847428937768e-06)
(2.37814371208402e-06 3.54456334825131e-09 -0 2.37829121091012e-06 -0 2.37821356063309e-06)
(2.33693747141661e-06 2.63419323023022e-09 2.59408686992661e-39 2.33707867365947e-06 5.92548520340332e-41 2.33700370761852e-06)
(2.29483725927011e-06 1.78259205533143e-09 1.2347239245626e-40 2.2949720837713e-06 -1.74115764603577e-27 2.29489987469274e-06)
(2.25200994864076e-06 9.90060025214893e-10 -2.50340870913778e-39 2.25213833338544e-06 1.71663143110862e-27 2.2520689437103e-06)
(2.20844985194175e-06 2.56446370216469e-10 -1.91248866108336e-23 2.20857173783384e-06 -5.8247462177745e-25 2.20850523646941e-06)
(2.16425798781899e-06 -4.18541607872951e-10 -3.75656308892237e-23 2.16437333717511e-06 1.11804394203804e-22 2.16430978707463e-06)
(2.11955111988759e-06 -1.03560743168371e-09 8.628738549536e-25 2.11965994819478e-06 2.24095187694024e-22 2.11959938042488e-06)
(2.07436806948681e-06 -1.59576466664249e-09 3.71040435330935e-23 2.07447040177936e-06 1.12785135116043e-22 2.07441284542864e-06)
(2.02872568492741e-06 -2.10003809172739e-09 1.78340090211979e-23 2.02882155881219e-06 6.84442754768346e-25 2.02876703022251e-06)
(1.98262395242457e-06 -2.54951504097438e-09 -4.91219741452635e-28 1.98271342128447e-06 -8.5891226004008e-31 1.98266192363659e-06)
(1.9360620817765e-06 -2.94534566620389e-09 1.69565471779045e-28 1.93614520845957e-06 -1.22348642282159e-27 1.93609673665989e-06)
(1.88903625698544e-06 -3.28871736169931e-09 -1.7411571809955e-23 1.88911311557777e-06 -8.40552607685209e-25 1.88906765721651e-06)
(1.84150933512776e-06 -3.58086808622502e-09 -1.50001495381443e-23 1.84157999483734e-06 9.58607026539672e-23 1.84153753460202e-06)
(1.79340743775849e-06 -3.82273085949823e-09 1.86323643674741e-23 1.79347195591613e-06 9.96287309001739e-23 1.79343248864265e-06)
(1.74465804920468e-06 -4.01544257296774e-09 1.60819923860008e-23 1.74471647995e-06 8.57148441705003e-25 1.74467998862586e-06)
(1.69512733192159e-06 -4.15948490396642e-09 -1.47256253708634e-28 1.69517970071199e-06 -8.59604096762903e-30 1.69514620092179e-06)
(1.64472920320676e-06 -4.25605803802177e-09 4.39913045644593e-28 1.64477554035204e-06 -1.92756974656162e-27 1.6447450115749e-06)
(1.59321595213599e-06 -4.30471531908527e-09 -1.681318350807e-28 1.59325621823432e-06 2.7441790314078e-28 1.5932287273119e-06)
(1.54048235933382e-06 -4.30701314336555e-09 -1.11726369622359e-28 1.54051653816258e-06 1.54612526804819e-27 1.54049205416059e-06)
(1.48605535923316e-06 -4.26039782530125e-09 -2.23971294924169e-29 1.48608329270769e-06 -1.52152001710896e-27 1.48606199625306e-06)
(1.42990090009561e-06 -4.16818030228835e-09 -4.93304440976663e-28 1.42992253208666e-06 1.42862690428144e-27 1.42990432576118e-06)
(1.37108348357832e-06 -4.02312504678714e-09 2.58995374570694e-28 1.37109847202686e-06 -8.16139517226754e-27 1.37108377383532e-06)
(1.31227960506768e-06 -3.84147327600695e-09 2.34329386331619e-28 1.31228797689171e-06 9.22477211738613e-27 1.31227640294629e-06)
(1.25208853906278e-06 -3.60658628693114e-09 4.6040657497805e-28 1.25208955016263e-06 -4.4087083234233e-27 1.25208209473144e-06)
(1.18977625432179e-06 -3.33718187650873e-09 -2.45807240251281e-28 1.18977000286349e-06 5.94947435707795e-27 1.18976565778241e-06)
(1.12211272087012e-06 -2.99019237492284e-09 -3.98525705830575e-28 1.12209766112219e-06 1.20384207473919e-27 1.12209882685335e-06)
(1.05124423858853e-06 -2.62774173056841e-09 3.91732846454035e-28 1.05122132979084e-06 -3.78149266925696e-27 1.05122502792989e-06)
(9.70409054258797e-07 -2.14849655570919e-09 -6.32645284099079e-30 9.70375525698172e-07 -1.08379097163533e-27 9.70387239640578e-07)
(8.86850342514491e-07 -1.71648187754795e-09 -3.34097854615964e-28 8.86809909311896e-07 -3.81826514483412e-29 8.86821607128841e-07)
(7.85116892606931e-07 -1.10250659300268e-09 -1.70253845919362e-23 7.85064996389413e-07 -1.59492487147433e-24 7.85088598256528e-07)
(6.87692352558984e-07 -6.9520694399047e-10 -1.40091754391485e-23 6.87640646045283e-07 8.64437415871861e-23 6.87656649610413e-07)
(5.49989392118784e-07 -3.76695425248414e-11 1.16565761614706e-23 5.49913609068705e-07 7.92028341619352e-23 5.49952055173062e-07)
(6.1954237374643e-07 3.90970842912968e-10 1.32616597982033e-23 6.19677077654467e-07 1.30841255962554e-24 6.19605127985676e-07)
(8.5647528195259e-07 1.97064818130686e-10 -2.21209887206402e-25 8.56706635896595e-07 1.07192329531892e-24 8.56598315664447e-07)
(1.11261129590957e-06 -3.43746866122442e-10 -2.36253533903372e-25 1.11224304309835e-06 2.03454905727801e-24 1.11244299007703e-06)
(1.3507601175491e-06 -1.2196549353012e-09 3.15641940749902e-25 1.34840420549333e-06 -1.3261303973108e-24 1.34960575182296e-06)
(1.57192137732803e-06 -2.12871539885756e-09 -1.12412837872283e-24 1.56594485469995e-06 1.21727776322462e-24 1.56895471079152e-06)
(1.76837811436406e-06 -2.94509875301807e-09 -6.44840845949581e-25 1.75693552091699e-06 1.22078634565475e-24 1.76265647514495e-06)
(1.87295068217886e-06 -3.45688231110317e-09 4.36229600578833e-24 1.85544419776674e-06 -6.19766890444598e-24 1.86416448859965e-06)
(1.89723777023185e-06 -3.70044742699621e-09 -2.12971745245287e-25 1.87444128718543e-06 1.01814070915289e-24 1.88577201185195e-06)
(1.85185336886846e-06 -3.83680607265385e-09 7.61344390761239e-25 1.82532871447416e-06 -8.38720011626161e-25 1.83849642345928e-06)
(1.73453316969828e-06 -3.81105679242044e-09 -1.4763323201725e-24 1.70682389482833e-06 1.58355949573853e-24 1.72057878849863e-06)
(1.62801956395267e-06 -3.58825322784782e-09 8.46883495164997e-25 1.60030388747558e-06 -1.32092225276167e-24 1.61406133747279e-06)
(1.56810646884637e-06 -3.34792111452404e-09 2.14790838970563e-24 1.5398046639523e-06 -2.57186798753467e-24 1.55384447212273e-06)
(1.56181298365859e-06 -3.11337340275663e-09 -1.84559678138171e-24 1.5319055056687e-06 2.57214145818455e-24 1.54673401089817e-06)
(1.71312070032821e-06 -3.26165436041177e-09 -7.61629724132102e-25 1.67691970689111e-06 1.19034307080664e-24 1.69482985996503e-06)
(1.99601331181755e-06 -4.59361121231211e-09 -2.84916250474722e-26 1.94730745472562e-06 -6.25549361069777e-28 1.97136148538638e-06)
(2.5079693069647e-06 -9.4124011048022e-09 5.00294337751491e-25 2.43521514801133e-06 -6.10151371767512e-25 2.47109183910532e-06)
(3.28821252478914e-06 -2.37395513735761e-08 -3.91550127554373e-25 3.17528767971836e-06 -4.97795484577463e-25 3.23093526684886e-06)
(3.40330001254907e-06 -4.90524504010458e-08 1.02375099799431e-26 3.27986440612064e-06 -9.66566003777014e-26 3.34068441576158e-06)
(2.32048445103354e-06 -4.40740790286342e-08 -2.29842330218115e-26 2.27337768443907e-06 8.75177108610744e-26 2.29673587407024e-06)
(1.42376801124323e-06 -1.6052471598112e-08 -1.59849298680767e-26 1.41834745136555e-06 2.42240738236565e-26 1.42103343513992e-06)
(1.03896699046581e-06 -3.9291476057439e-09 2.01996354914266e-27 1.03867025677465e-06 -4.14676044355886e-30 1.03882274886531e-06)
(3.48099046608403e-05 -1.06946463358058e-06 -2.2522350374432e-28 3.48065182397723e-05 8.92925001947458e-30 3.48051492626186e-05)
(2.43581817740266e-05 -6.6478522275724e-07 2.06752209738487e-26 2.44752818433114e-05 3.09499280004186e-25 2.44186140869571e-05)
(1.01946780992897e-05 -7.94546874934475e-08 1.71231337189382e-29 1.02247335409938e-05 -6.65740626521058e-29 1.02103759142345e-05)
(2.33091888460631e-06 1.60021408696982e-08 1.6893804031734e-29 2.2826032473667e-06 3.89259352992917e-29 2.30706029858939e-06)
(1.40716313393138e-06 6.91059002895292e-09 -5.42866206585365e-26 1.37418151328089e-06 3.58976923308493e-28 1.3907947438673e-06)
(1.28362552423861e-06 3.08146583362983e-09 7.99643291514436e-27 1.26101770413712e-06 4.25213343747346e-25 1.27241150238551e-06)
(6.26626985890015e-07 9.16668724545716e-10 2.64696538049095e-26 6.17439393667443e-07 -5.87300888554715e-28 6.22060007324542e-07)
(3.58089604498594e-07 4.16632436423545e-10 3.04975074231595e-25 3.53818418632793e-07 3.31055863744707e-25 3.55964748021652e-07)
(2.64179309249146e-07 3.05846520351744e-10 3.23151325528902e-26 2.61386675824278e-07 -8.4367789747259e-27 2.62786450184961e-07)
(2.55186051274837e-07 3.05607284913099e-10 -6.44953470923293e-25 2.52580074677758e-07 -7.69169426987554e-25 2.53884810648443e-07)
(3.13139390425563e-07 4.2091259856808e-10 8.14831480743501e-26 3.0965306591427e-07 1.66453251154676e-25 3.11395093344282e-07)
(4.29531183605727e-07 6.86564118012864e-10 5.03622552481855e-26 4.23891051228306e-07 -3.91794862137224e-27 4.26709831348941e-07)
(6.25081652744474e-07 1.25997225896881e-09 2.03918554221643e-28 6.1504965081112e-07 3.82199466651609e-28 6.20063749871625e-07)
(9.15214139399285e-07 2.48880338874516e-09 7.5621865135172e-25 8.97782365287751e-07 1.25533613970723e-24 9.06500906668069e-07)
(1.3155759075914e-06 5.08944508001908e-09 3.91796092249289e-24 1.28711078345408e-06 6.20393673451726e-24 1.30135459371948e-06)
(1.81985810012865e-06 9.99758725524466e-09 7.4763452226558e-24 1.77817379007384e-06 1.16925588331786e-23 1.79902735353335e-06)
(2.38661227515054e-06 1.80361275783211e-08 1.10199440898479e-27 2.33311169875009e-06 2.50793355142851e-27 2.35986270013925e-06)
(2.97043069843059e-06 2.8885700409937e-08 7.68723188527665e-24 2.91073994954876e-06 1.88547616053022e-23 2.94055713613842e-06)
(3.49737460159489e-06 4.05760339567111e-08 2.38820646233412e-24 3.44126155089681e-06 7.40286159077626e-24 3.46927487976406e-06)
(3.85683254632569e-06 5.01446309456123e-08 5.80727549415769e-28 3.81473054968349e-06 -6.73736745465743e-28 3.83576239871884e-06)
(4.21515005589749e-06 6.36090392540691e-08 -7.77006731985646e-27 4.18598560655135e-06 2.08037028154112e-26 4.2003187943776e-06)
(5.342446029744e-06 1.15863737152031e-07 -9.96005457176149e-27 5.3192881357844e-06 -1.63685002130182e-25 5.3311233041353e-06)
(8.05854149648518e-06 2.43578297714478e-07 2.25180379494665e-26 8.02656438623625e-06 -2.17175603167368e-27 8.0421503937436e-06)
(1.12184435552366e-05 4.10894642195546e-07 -0 1.11817862245256e-05 -0 1.11999403808968e-05)
(1.46292815230861e-05 6.15071139326644e-07 -0 1.45891013419337e-05 -0 1.46086023874745e-05)
(1.81640729844766e-05 8.41051418027536e-07 -3.43527278696024e-22 1.81232362346749e-05 2.96440160105079e-23 1.81429546589779e-05)
(2.17812211005441e-05 1.08416174320466e-06 -1.05243850850251e-21 2.17409311543476e-05 -3.9893212495916e-21 2.1760064634681e-05)
(2.54262521916507e-05 1.33632661536762e-06 -3.02899164255359e-22 2.53876854920045e-05 -4.92328990271069e-21 2.54057452906285e-05)
(2.9093380768426e-05 1.59444779635785e-06 5.55636788001018e-22 2.90572604914108e-05 -4.51342041063745e-23 2.90738247921504e-05)
(3.27612485250388e-05 1.85395149545643e-06 4.22079038049914e-26 3.27282994968436e-05 4.55389852991752e-27 3.27430458292464e-05)
(3.64242769547492e-05 2.11197792156408e-06 -8.36905445670693e-22 3.63951457753182e-05 6.1736799681517e-23 3.64077417757333e-05)
(4.00683310053849e-05 2.36502203543499e-06 -2.49460794004526e-21 4.00436774152119e-05 -9.11576846667237e-21 4.00538210691902e-05)
(4.36845173067693e-05 2.61020751451926e-06 -6.91770608521259e-22 4.36649914126252e-05 -1.06235783121945e-20 4.36723711837856e-05)
(4.72612771119171e-05 2.84451919361585e-06 1.11951902410818e-21 4.72475216673232e-05 -7.66913015349812e-23 4.72518463381514e-05)
(5.07923818668482e-05 3.06546804829153e-06 -9.73877483723753e-26 5.07850235973114e-05 -7.57392227674566e-27 5.07860050862325e-05)
(5.42748002652796e-05 3.27088568904177e-06 2.42549919786494e-26 5.42744156828605e-05 1.26612678740932e-25 5.42717958165161e-05)
(5.77129962453892e-05 3.4593010789666e-06 2.17642406456934e-37 5.77200738143068e-05 1.90243008335411e-25 5.77136385311026e-05)
(6.10969908393816e-05 3.62864070506231e-06 1.82534851312271e-21 6.11119354886939e-05 -1.02265448698955e-22 6.11015189253896e-05)
(6.4331201605072e-05 3.77210780104806e-06 4.50766890860002e-21 6.43543022506709e-05 1.92628143499442e-20 6.43398021317465e-05)
(6.73954938009807e-05 3.88780244660067e-06 5.67693836344529e-22 6.74269152912085e-05 2.14481157908412e-20 6.74082895968646e-05)
(7.02739321764905e-05 3.97447386738733e-06 -2.17627348427511e-21 7.03137112526843e-05 1.10042063854878e-22 7.02909813447819e-05)
(7.29522323122746e-05 4.03137820355279e-06 -5.91075319081903e-26 7.30002735208426e-05 2.23127143459203e-25 7.29735248172015e-05)
(7.54179640151628e-05 4.05828769911808e-06 2.28930448646773e-26 7.54740372233947e-05 1.9976018769527e-25 7.54434204316098e-05)
(7.76614282373038e-05 4.05552425350544e-06 -2.01948626830769e-41 7.77251741285597e-05 -2.57624373120545e-25 7.7690900215343e-05)
(7.96754767584533e-05 4.02392141628307e-06 -5.6729792236157e-40 7.97464063489646e-05 2.96114439031097e-25 7.97087476765265e-05)
(8.14573244172282e-05 3.96486896212842e-06 -3.49736154798633e-21 8.15348442455639e-05 1.24269759990178e-22 8.14941206868175e-05)
(8.30080769557302e-05 3.88019073322052e-06 -6.52902553011096e-21 8.30915245689804e-05 -3.55652620333948e-20 8.30480854460954e-05)
(8.43311918896052e-05 3.77199152250996e-06 8.50390241691531e-22 8.44198588780942e-05 -3.77978829576999e-20 8.43740717647378e-05)
(8.54318987731099e-05 3.64257041982104e-06 3.78827374246334e-21 8.55250489008384e-05 -1.15368697101285e-22 8.54772904778712e-05)
(8.63167200081855e-05 3.4943482272038e-06 -1.58402619693485e-27 8.64136025285591e-05 1.78481853212323e-26 8.6364252262396e-05)
(8.69934120702633e-05 3.32982001437201e-06 -7.27511976099252e-26 8.70932755793345e-05 -7.31164525607465e-27 8.70427093584428e-05)
(8.7470899118515e-05 3.15150441044006e-06 -4.42151065471202e-21 8.75730065026123e-05 8.97658194668199e-23 8.75215888640607e-05)
(8.7758470966576e-05 2.96187662299719e-06 -6.77127920214265e-21 8.78621076493831e-05 -4.3643915004492e-20 8.78101892380628e-05)
(8.7865890846758e-05 2.76334215447338e-06 2.36206564241937e-21 8.79703760612793e-05 -4.514248824408e-20 8.79182871485886e-05)
(8.78018784236792e-05 2.55817721745944e-06 4.56355095368653e-21 8.79065557128969e-05 -6.94945696726532e-23 8.78546118842888e-05)
(8.75756245583737e-05 2.34858825576402e-06 -5.4135714610243e-27 8.76798610516597e-05 -2.19943174265358e-25 8.76283646907618e-05)
(8.71988629229321e-05 2.13672035393914e-06 -1.10361435501756e-26 8.73020721708182e-05 4.29176910855951e-26 8.72513000097269e-05)
(8.66842796585944e-05 1.92456536487903e-06 1.06835806664323e-26 8.67859321904573e-05 1.79989533623431e-25 8.67361324267546e-05)
(8.60458394122152e-05 1.71393784514863e-06 -1.0066550394909e-26 8.61454752275756e-05 -2.84882123030647e-26 8.60968595902616e-05)
(8.52964293515774e-05 1.5064144992243e-06 1.72067869974613e-27 8.53936541954015e-05 2.56114784380261e-26 8.53464028560216e-05)
(8.44497833637059e-05 1.30336785098574e-06 2.91959218794532e-27 8.45442746818053e-05 -0 8.44985306085448e-05)
(8.35175544936115e-05 1.10592930171219e-06 -0 8.3609050146253e-05 -6.81031818694662e-26 8.3564928421817e-05)
(8.25112947951658e-05 9.15029567344331e-07 1.17669041617169e-40 8.25995975952363e-05 -1.39284098707249e-26 8.25571800255838e-05)
(8.14365990441485e-05 7.31371579411372e-07 2.3163464160414e-40 8.15215374663247e-05 2.21323519743985e-25 8.14808942073187e-05)
(8.02990935769021e-05 5.55600133420361e-07 -0 8.03805053060047e-05 -1.38719264324295e-25 8.03417026262175e-05)
(7.91034209609335e-05 3.88271034988046e-07 -0 7.9181168623007e-05 -0 7.91442609010583e-05)
(7.78578541288377e-05 2.29843940173806e-07 8.20273425203587e-40 7.79318394368179e-05 -2.85440618978642e-25 7.78968621413583e-05)
(7.65737301610143e-05 8.06466071279125e-08 -0 7.66439076629831e-05 2.83270662396041e-25 7.66108681937592e-05)
(7.52589097364304e-05 -5.91542499139786e-08 -2.57280997415905e-26 7.53252806570629e-05 -5.87688392765883e-28 7.52941631290989e-05)
(7.3915097822502e-05 -1.89496240654335e-07 2.47274263755249e-26 7.39776699503767e-05 -1.11359876619448e-26 7.39484604435876e-05)
(7.2547678727985e-05 -3.10344631495777e-07 2.54402092507427e-26 7.2606461733412e-05 1.22441240276535e-26 7.25791492063652e-05)
(7.11564154895803e-05 -4.21700849612463e-07 5.46965884345765e-21 7.12114302810198e-05 1.66586015209494e-22 7.11859974698579e-05)
(6.97445393097853e-05 -5.23612653045388e-07 1.07808730151e-20 6.97958192256872e-05 5.01684780299155e-20 6.97722445799529e-05)
(6.83157609744809e-05 -6.16195499878129e-07 -1.08551544438003e-22 6.83633628735149e-05 9.84007932674545e-20 6.83416117263787e-05)
(6.68713199824739e-05 -6.9959015947232e-07 -1.05369649588224e-20 6.69153055851343e-05 4.81088134296083e-20 6.68953419896749e-05)
(6.54116640205328e-05 -7.73937635439683e-07 -5.1225323763522e-21 6.54520940947104e-05 -1.95413778993753e-22 6.54338830984723e-05)
(6.39368628240448e-05 -8.3938568692687e-07 1.02300243055148e-27 6.39737988492092e-05 -3.50798882663174e-27 6.39573061286508e-05)
(6.24468896198087e-05 -8.96092564456391e-07 -5.04905672502735e-26 6.24803938919218e-05 8.27730094501882e-25 6.24655851502527e-05)
(6.09416214529274e-05 -9.44224354909569e-07 4.89644192310602e-21 6.09717580928125e-05 2.35702311121284e-22 6.09585990064148e-05)
(5.9419877955875e-05 -9.83943133855167e-07 4.48040954368822e-21 5.94467046681273e-05 4.53276992393374e-20 5.94351637297008e-05)
(5.78793284178136e-05 -1.01536625958344e-06 -5.04004919418887e-21 5.79028962961245e-05 4.37038198580705e-20 5.78929473439374e-05)
(5.63176217618125e-05 -1.03862749073863e-06 -4.58775998514686e-21 5.63379733776556e-05 -2.44998828717069e-22 5.63295917108155e-05)
(5.47305520315465e-05 -1.05377010774484e-06 -0 5.47477211668865e-05 -9.43003049138041e-25 5.4740891874968e-05)
(5.31152602791773e-05 -1.06092099006513e-06 -8.12474627832094e-26 5.31292689934195e-05 1.27197899581281e-24 5.31239746101918e-05)
(5.14640227443666e-05 -1.05997723080637e-06 9.1673031283182e-26 5.14748775748337e-05 -1.98749414290637e-24 5.14711223597746e-05)
(4.97731914650798e-05 -1.05107758583389e-06 -1.36425887416476e-26 4.97808772719758e-05 1.59015197297604e-24 4.97786535624345e-05)
(4.80281170175095e-05 -1.03380153816996e-06 1.38018416451628e-26 4.80326002260534e-05 -7.00676731126773e-25 4.8031946366737e-05)
(4.62269389417855e-05 -1.00846663351712e-06 -1.33347713045089e-26 4.62281519321599e-05 -1.60134806149446e-25 4.62290625008257e-05)
(4.43407333337983e-05 -9.73975208210422e-07 8.32691896081847e-26 4.43386025541722e-05 1.40005281642304e-24 4.43411738465012e-05)
(4.24438117993603e-05 -9.32806608471503e-07 -2.32444429534386e-26 4.24382127471679e-05 -7.16257860038364e-25 4.24424051590726e-05)
(4.05016420025894e-05 -8.82919664629298e-07 -1.17140280343089e-25 4.04924329717945e-05 7.14092107535535e-25 4.04984789586863e-05)
(3.84916169396413e-05 -8.25976130986809e-07 1.23587513178673e-25 3.84785000827771e-05 -1.09249367635426e-24 3.84862801893803e-05)
(3.63083197020164e-05 -7.56122738116738e-07 -6.78089250006333e-26 3.62911179668078e-05 5.44289100126196e-25 3.6301146131882e-05)
(3.40227769286611e-05 -6.80740360399824e-07 -1.03544412413421e-25 3.40010417285984e-05 6.23672724713011e-25 3.4012845207681e-05)
(3.14137406349206e-05 -5.86481145476829e-07 5.68649525046018e-26 3.1387586404971e-05 -1.7125229664771e-24 3.14021947583786e-05)
(2.87195008217593e-05 -4.93831048832655e-07 1.43775622276128e-25 2.86884342081804e-05 5.1165996511439e-27 2.87043713814213e-05)
(2.543332035359e-05 -3.72831894661076e-07 4.83524817937488e-21 2.53987209446813e-05 4.5499701447391e-22 2.54178868646141e-05)
(2.22944448290307e-05 -2.75083733986575e-07 4.21104186305215e-21 2.22563815589308e-05 4.00655310269843e-20 2.22749270516033e-05)
(1.78519062470847e-05 -1.3576341231945e-07 -3.51103491632203e-21 1.78085489633479e-05 3.11395067934691e-20 1.78319228606118e-05)
(2.01451377446959e-05 -9.22029433226975e-08 -3.91313987340295e-21 2.01038610139404e-05 -3.87454966034911e-22 2.01239046647464e-05)
(2.78437030353919e-05 -1.67373655735951e-07 5.33295741894846e-23 2.77371857136474e-05 -1.45012491045468e-22 2.77901383399684e-05)
(3.62021264199406e-05 -2.89404942792554e-07 -1.44815499249798e-23 3.5877715174443e-05 -3.43895134307705e-22 3.60377275488945e-05)
(4.4042787821931e-05 -4.2944966436581e-07 2.82919376867836e-22 4.32993989787698e-05 -5.72143177947481e-22 4.36685790994038e-05)
(5.1394205366085e-05 -5.51035105069682e-07 1.88327859385129e-22 5.00175394107033e-05 -1.36239460156557e-22 5.07044020971719e-05)
(5.79614009319257e-05 -6.38176643984175e-07 -5.8922825099069e-23 5.57414116410078e-05 -1.48921900078845e-22 5.68531904796992e-05)
(6.1614304356718e-05 -6.69452516930552e-07 -2.90815388086302e-22 5.85249670871284e-05 4.70266592996735e-22 6.00776813993992e-05)
(6.2673516310555e-05 -6.66287898580447e-07 -3.38010822668401e-22 5.8843481504301e-05 4.26513814975786e-22 6.07724379564325e-05)
(6.14364477659013e-05 -6.55299963833107e-07 -8.9216472288022e-23 5.70895263789785e-05 1.02567160328168e-22 5.9281144522188e-05)
(5.78314879194733e-05 -6.33071902726533e-07 5.62590402076865e-22 5.33091989399063e-05 -6.82990508941123e-22 5.55903036444358e-05)
(5.44951004685016e-05 -5.92817031009029e-07 -2.12174608283337e-22 4.99512640045991e-05 2.40208040884721e-22 5.22426805340192e-05)