/*--------------------------------*- C++ -*----------------------------------*\
  =========                 |
  \\      /  F ield         | OpenFOAM: The Open Source CFD Toolbox
   \\    /   O peration     | Website:  https://openfoam.org
    \\  /    A nd           | Version:  7
     \\/     M anipulation  |
\*---------------------------------------------------------------------------*/
FoamFile
{
    version     2.0;
    format      ascii;
    class       volVectorField;
    location    "20000";
    object      U;
}
// * * * * * * * * * * * * * * * * * * * * * * * * * * * * * * * * * * * * * //

dimensions      [0 1 -1 0 0 0 0];

internalField   nonuniform List<vector> 
15600
(
(0.0136281920875015 -0.000108621090339157 1.80786263028534e-24)
(0.0166666702676374 -0.00112692694791179 1.71587036647096e-23)
(-0.00187582562527162 0.000172994941208595 -1.87529265008463e-23)
(-0.0151280794122801 0.00691199612108801 2.72336776540974e-23)
(-0.0120605825389154 0.00778616577617975 -2.64254844003022e-23)
(-0.00772816637069711 0.00585636781895691 -2.1265836883675e-18)
(-0.00579190986505852 0.00469916758602003 -2.94776191920899e-22)
(-0.00419764104243268 0.00346681905887239 3.13937508952703e-22)
(-0.00337634453975208 0.00273344073972083 0)
(-0.00296256537957478 0.00236364724914572 -6.19956770023056e-18)
(-0.0029965764960943 0.002358133454633 -3.31536939638596e-18)
(-0.00334841585221593 0.00261090205402549 0)
(-0.00399199836541489 0.0030696159782445 -3.63608502451838e-21)
(-0.00465595298794011 0.00346334181674427 3.93577757325935e-18)
(-0.00527904333944507 0.00368047979400981 0)
(-0.00561459073760452 0.00353668126665833 8.99861332113336e-18)
(-0.00563803256399713 0.0030493996981471 -4.72661125319197e-21)
(-0.00540306842072645 0.00237633643005075 5.13351003295051e-18)
(-0.00492856565458137 0.00163835436843251 0)
(-0.00422903952388818 0.000918496947340901 0)
(-0.00356102212432491 0.00033440575179506 0)
(-0.00650586802220526 6.72677770664746e-05 -4.24355911886925e-20)
(-0.0113679641605696 4.37643487722735e-05 0)
(-0.0149308283054961 5.88952983521494e-05 0)
(-0.0182943958469601 6.62936654954645e-05 0)
(-0.02102999960104 7.48603605556491e-05 0)
(-0.023385791326808 8.04891232148735e-05 -2.97097138499023e-16)
(-0.025351359818488 8.57956450337579e-05 -3.0915549440993e-16)
(-0.0270254114460703 8.97330352672936e-05 0)
(-0.0284358790906399 9.29853133077727e-05 0)
(-0.029625346963871 9.52669863455157e-05 6.391184460132e-21)
(-0.0306137420567781 9.67949264291866e-05 -3.68360276744566e-16)
(-0.0314210434186198 9.7495863218737e-05 -3.88516397425553e-16)
(-0.0320590858058482 9.7469207693836e-05 0)
(-0.0325382772731336 9.67041239512474e-05 0)
(-0.0328657081463463 9.52587645985323e-05 3.97397701175929e-21)
(-0.0330486852580371 9.31745231326765e-05 -3.97339240602183e-21)
(-0.0330940593065108 9.04929794042183e-05 6.1789655123145e-32)
(-0.0330083984397532 8.7269262147715e-05 4.82770054143976e-16)
(-0.032798280124472 8.35745541256852e-05 5.07864053190156e-16)
(-0.0324703888613687 7.94683141913794e-05 -4.92573201137176e-21)
(-0.0320315577797449 7.50085834690803e-05 -2.0029790504369e-22)
(-0.0314889225612427 7.02595442539578e-05 1.04627824019386e-20)
(-0.0308499018364615 6.5277716767644e-05 -5.33554512403868e-21)
(-0.0301223036171512 6.01298668799546e-05 0)
(-0.0293144711279821 5.48795865667391e-05 0)
(-0.0284348165513591 4.95814019397616e-05 -6.86516808903877e-16)
(-0.0274915963365592 4.42843090372744e-05 -7.13405733013138e-16)
(-0.0264928228731678 3.90307712225849e-05 0)
(-0.025446217149206 3.38589821944439e-05 0)
(-0.0243592387531407 2.88035820901159e-05 0)
(-0.0232389849988614 2.38911594430241e-05 0)
(-0.0220922129772595 1.91480364858059e-05 -7.93314635796259e-16)
(-0.0209252666227015 1.45896027120465e-05 -8.16447179382618e-16)
(-0.0197440585785508 1.02313503223279e-05 0)
(-0.0185544625104168 6.09164102152901e-06 -1.97969383851592e-21)
(-0.017362129575732 2.17768509444302e-06 9.70039666984471e-22)
(-0.0161723473877347 -1.50251692411266e-06 1.01347185897108e-21)
(-0.0149898927327278 -4.95352016299373e-06 -5.27637743291097e-22)
(-0.0138190348736058 -8.17424814321749e-06 5.28306581293399e-22)
(-0.0126634674455914 -1.11769987491116e-05 0)
(-0.011526390452577 -1.39641103712951e-05 0)
(-0.0104104597980091 -1.65531583765006e-05 1.13504499195066e-21)
(-0.00931777688865807 -1.89509715328322e-05 -1.13640526487151e-21)
(-0.00825064941681251 -2.11614263444289e-05 0)
(-0.00721140890307887 -2.31934582686263e-05 0)
(-0.00620217224542946 -2.50561042324058e-05 0)
(-0.00522476521997377 -2.67615181309393e-05 0)
(-0.00428053060544069 -2.83267245616503e-05 0)
(-0.00337037177778756 -2.9777933985505e-05 -1.4525161592043e-31)
(-0.00249534475114775 -3.11253906723178e-05 0)
(-0.0016564148707224 -3.23807962473516e-05 0)
(-0.000854543850609691 -3.35502809163091e-05 1.13317319840682e-15)
(-9.04934736195352e-05 -3.46396383063278e-05 2.28515812040782e-15)
(0.000635174719835335 -3.56495344423882e-05 1.15030421161191e-15)
(0.00132176893552082 -3.65953337459771e-05 -1.06927065615328e-20)
(0.00196857266175077 -3.74931837730386e-05 -9.58920561911056e-23)
(0.00257482832881624 -3.83545534751085e-05 2.16432348264128e-20)
(0.00313969766120527 -3.91902064586748e-05 -1.08622253886279e-20)
(0.00366238324116357 -4.00125115966439e-05 1.2061296069747e-15)
(0.00414160209692795 -4.08263058270481e-05 1.2062016852008e-15)
(0.00457629420748815 -4.16524863032979e-05 0)
(0.00496436603561448 -4.24828031718957e-05 0)
(0.00530458964824157 -4.33593316565702e-05 1.13674341059597e-20)
(0.00559322654896467 -4.42391152325136e-05 -3.42621404697307e-20)
(0.00582922146280184 -4.52204627669658e-05 2.28929651103457e-20)
(0.00600498872830844 -4.616753290885e-05 -2.32254761516425e-20)
(0.00612143615975726 -4.73381220726938e-05 2.32237800311497e-20)
(0.00616173739167038 -4.83349481427189e-05 2.35603123703097e-20)
(0.00613528726946171 -4.98673856460108e-05 1.6965805749081e-22)
(0.0060020839317389 -5.07594239685522e-05 1.72007054997444e-22)
(0.00579853469862277 -5.30200393919214e-05 -4.79935914042369e-20)
(0.00541935243754509 -5.32965235152513e-05 2.40914796557348e-20)
(0.00498839003991665 -5.73222808965497e-05 0)
(0.00422367942842123 -5.54705475854081e-05 -2.46714909435233e-20)
(0.00351753997999216 -6.40269091615053e-05 -1.94700092952443e-22)
(0.00210362687406997 -5.56887810313503e-05 2.49139229349659e-20)
(0.00115952304267621 -7.62052326767155e-05 2.83775048162612e-15)
(-0.00129376435400255 -4.69558458137637e-05 2.81480887706182e-15)
(-0.00324722494650594 -0.000325685718562671 2.5904963806499e-20)
(-0.00222154159356915 -0.000408231532597609 2.62831449248814e-17)
(-0.000629732885925968 -7.99029603851469e-05 0)
(0.00186870355457706 0.000964909978565318 -2.4902249041194e-17)
(0.00498967262183662 0.00280568862414428 2.36785950433043e-17)
(0.0090332251821404 0.00566272892167887 2.22942682014677e-17)
(0.013645542894868 0.00924948126701582 2.09397269204221e-17)
(0.0183122040789594 0.0130383448102038 1.96360719405107e-17)
(0.0228564311576017 0.0166670271535056 -1.83578038216784e-17)
(0.0266486945917717 0.0196211922422169 -1.7086462506705e-17)
(0.0296289824096156 0.0221325743131785 1.5765680132663e-17)
(0.0329859174267939 0.0251090095997509 1.43448817414425e-17)
(0.0369535077405835 0.028827327324784 -1.46168762865796e-20)
(0.0437409533108431 0.0348024764877118 -2.04063619835529e-20)
(0.0550217888823103 0.0430443817571162 4.80883878056681e-22)
(0.0721476408400814 0.0524060299529995 6.5105334024248e-18)
(0.0966211926785173 0.0600797508024733 -3.33567643111856e-18)
(0.125715118716623 0.0566741375875457 6.55534377388385e-19)
(0.112102689859799 0.0262007317729172 2.43674058159276e-18)
(0.0500993239768278 0.00362866321280385 1.02167651489962e-18)
(0.0106144310691009 8.83247284527554e-05 4.34588515170679e-22)
(0.056928744515503 -0.000343104426319181 0)
(0.058380257285691 -0.00316271795769882 0)
(0.00585834376782703 -0.000195334581617823 -6.08677487246754e-23)
(-0.0380976750873695 0.019033967190909 1.74281810539508e-23)
(-0.0332488973154165 0.0221480886439546 4.0212885136354e-23)
(-0.021805809871209 0.0169053633922348 3.24780074707956e-18)
(-0.0164431084674009 0.0136620789713149 4.29890373403385e-22)
(-0.0121849429307583 0.0102052446285138 0)
(-0.0099663312661251 0.0081244936487779 -4.41808849021028e-18)
(-0.00889690306164529 0.00710216523524285 5.14420361563871e-22)
(-0.00907404468242257 0.00713511617932623 5.09679457885159e-18)
(-0.0101433467529021 0.00791944901046991 -2.6386105334429e-21)
(-0.011986245979234 0.00927206263507984 -2.80158654520224e-21)
(-0.0139046032004055 0.0104284493880844 5.83016888216783e-21)
(-0.01571011162122 0.0110473511216839 6.37722241461731e-18)
(-0.0168252264300958 0.0106358127612188 -6.16084187694065e-22)
(-0.0172014414041762 0.00924599538787648 -7.15243023138659e-21)
(-0.0169567914989906 0.00730679809335182 7.9022936744177e-21)
(-0.0161293295379673 0.00514791802760107 0)
(-0.0148620583477764 0.00303163009572592 8.1327200549991e-21)
(-0.0145780916378007 0.00147087290315806 -8.19227542615397e-21)
(-0.0233216606924814 0.00075204210280219 6.22862354511598e-20)
(-0.0363422666668073 0.000621511152933796 0)
(-0.0459895965375511 0.000544916193067206 0)
(-0.0547129691929556 0.000461900714402011 0)
(-0.0617276379147493 0.000391283196383033 0)
(-0.0676527398129425 0.000328628495900531 4.20976955611869e-16)
(-0.0725346017310422 0.000278486674170262 4.24785154681767e-16)
(-0.076623905037207 0.00023573870669543 8.19605877609965e-21)
(-0.0800096718365906 0.00019981025621345 -8.15304189919262e-21)
(-0.0828013472501682 0.000168097654158106 0)
(-0.0850557083158069 0.000139862211520722 5.1078830152793e-16)
(-0.086825624293291 0.000113921930186262 5.26133810831352e-16)
(-0.0881446754903949 8.98638991146946e-05 -1.94396224767048e-20)
(-0.0890418389939912 6.71357448616368e-05 9.91962513806758e-21)
(-0.0895385565386906 4.55789640747799e-05 0)
(-0.0896562074816479 2.50909908478983e-05 0)
(-0.0894150913271813 5.61676711318378e-06 -8.41445360830223e-32)
(-0.0888343388646494 -1.28562808704216e-05 -6.62618446470755e-16)
(-0.0879331872508275 -3.03265731431687e-05 -6.85913471671607e-16)
(-0.0867307748124805 -4.67878085176175e-05 -6.70909543504364e-21)
(-0.0852464437443435 -6.22231457854726e-05 6.71686011260619e-21)
(-0.0835000437110739 -7.65902672009296e-05 0)
(-0.081511964795532 -8.98628216497683e-05 0)
(-0.0793033434549509 -0.00010197136518154 0)
(-0.0768961925039615 -0.000112878289955737 0)
(-0.0743123872876261 -0.000122597659569744 9.48747162803255e-16)
(-0.0715732119890999 -0.000131161508413907 9.78633906237643e-16)
(-0.0686991981054713 -0.000138613648902618 -4.26717208988046e-21)
(-0.0657100536095912 -0.000144997096244202 -9.25276850777321e-21)
(-0.0626247081770981 -0.000150355474642941 4.71450924029282e-21)
(-0.0594611294670039 -0.000154746678473586 5.00185375634152e-21)
(-0.0562363536024694 -0.000158217203484101 1.11447399395566e-15)
(-0.0529663645332278 -0.00016083593920533 1.14505317240141e-15)
(-0.049666176262161 -0.000162638130235482 0)
(-0.0463505992087888 -0.000163632741804792 -2.80559482488565e-21)
(-0.0430337983516324 -0.000163870775457886 2.82047378220577e-21)
(-0.0397289614465575 -0.000163400956689984 -1.47725357988352e-21)
(-0.0364480037189544 -0.000162309213251005 7.28306641775428e-22)
(-0.0332015711252705 -0.000160653673254007 7.61056385813846e-22)
(-0.0299989071374546 -0.000158528536422393 0)
(-0.0268480464568807 -0.000155984002079414 0)
(-0.0237556918883557 -0.000153116317044687 0)
(-0.0207273745121403 -0.000149942356487539 0)
(-0.0177691205973052 -0.000146441902760943 0)
(-0.0148869651866089 -0.000142629545224641 0)
(-0.0120863420227147 -0.000138533666025147 0)
(-0.00937192501288512 -0.000134215839621129 0)
(-0.00674722394802722 -0.000129750928417704 0)
(-0.00421474255253639 -0.000125205877987648 7.52747436100754e-21)
(-0.0017774011169384 -0.000120566654534515 -7.5625857372341e-21)
(0.000562123356307848 -0.000115792038141328 0)
(0.00280117148802539 -0.000110865053241802 -1.69314844796016e-15)
(0.00493761329557711 -0.000105828092183874 -3.41852561260276e-15)
(0.00696974586713065 -0.000100667189165249 -1.7259331088364e-15)
(0.00889554426753779 -9.53797343225599e-05 -1.57799025003821e-20)
(0.010712881338077 -8.99655871816118e-05 0)
(0.0124195153942007 -8.44183178761889e-05 -1.6132588242463e-20)
(0.014012995607947 -7.87301631596026e-05 1.6099392680104e-20)
(0.0154908966947864 -7.28819577479732e-05 -1.77162892994884e-15)
(0.0168496071701629 -6.68270597232589e-05 -1.79711423806776e-15)
(0.0180858879049582 -6.05588747517849e-05 0)
(0.0191940373334621 -5.39747164939817e-05 0)
(0.0201701233203194 -4.71085189572387e-05 0)
(0.0210043387547506 -3.9713930328573e-05 3.37564403066324e-20)
(0.0216925680933955 -3.19429834991638e-05 -3.37417537993077e-20)
(0.0222156308488982 -2.32068103306661e-05 3.42322284502147e-20)
(0.0225727872011635 -1.40638579008366e-05 -3.42386173448679e-20)
(0.0227228635751732 -3.0446633912103e-06 3.47543536611819e-20)
(0.0226825045310094 7.97143563156734e-06 -6.97891781398625e-20)
(0.0223567893543601 2.31154263779645e-05 3.50433335498996e-20)
(0.0218196730135814 3.68775906288089e-05 0)
(0.0208246672409189 6.04467843866333e-05 -3.59178891521058e-20)
(0.0196357719037209 7.69053515296366e-05 3.60040716026627e-20)
(0.0175972024055475 0.000117448685566007 3.66618335581796e-20)
(0.015570439186544 0.000131828161907005 2.90276312393461e-22)
(0.0117688513234622 0.000206967480629366 -7.48732562365018e-20)
(0.00885200798718409 0.000194402302281533 -4.20971931367131e-15)
(0.00207378113756409 0.000397268844456934 -4.32565219659107e-15)
(-0.00292239131986838 -0.00023660305743964 3.93203049094074e-20)
(-0.000230369155628406 -0.000226550445894994 -4.00683948061812e-17)
(0.00418155263267763 0.00104794203948973 -1.94519626796258e-17)
(0.0106944780787983 0.00421783164205471 3.71146079814153e-17)
(0.0186567897718248 0.00948793117385128 -3.49909551378272e-17)
(0.028661570420943 0.0173567596545618 -3.27174368213952e-17)
(0.0399377639058641 0.0270971526015268 3.05549063078761e-17)
(0.0514637628474103 0.0374023961190169 -2.85438981069034e-17)
(0.0628676105660723 0.0473406176638069 2.66649251429212e-17)
(0.0728153933074569 0.0556648931661589 -1.22644481580953e-20)
(0.0810035864564601 0.0629275606494513 -1.10001259150775e-20)
(0.089819969833771 0.0713319360748867 2.08848628022055e-17)
(0.10005492053682 0.0817328974851984 -3.71501344398575e-17)
(0.116613744907176 0.0978681653386438 -1.59647839783734e-17)
(0.143782276577134 0.119671452302246 0)
(0.185440172052567 0.144008282613504 -2.14032071819386e-22)
(0.245269201773736 0.163222425752491 4.67768098697111e-18)
(0.319365891539982 0.154402371553966 2.97732040461346e-23)
(0.308529031346729 0.0779871303630019 -3.31409816799053e-18)
(0.17477494032277 0.0150092213148908 -1.42319247198222e-18)
(0.0641796975663115 0.00136413642162886 -5.71841456647433e-22)
(0.118944355888308 -0.000167746985857293 9.83212830257795e-25)
(0.110439137903277 -0.00510267032480073 -4.42213036389334e-20)
(0.0258086975484839 -0.00237686315813536 0)
(-0.0542287318591656 0.0281549248763875 -4.19222031220903e-23)
(-0.0522885684096325 0.0345310914640329 -5.46948383071394e-23)
(-0.0351002951825657 0.0268042916590971 -3.33359833645698e-18)
(-0.0266315712421525 0.0218482159884827 0)
(-0.0200430942631273 0.0165861696715321 -4.1405580247958e-18)
(-0.016571523271581 0.0133889309537167 1.6889531011113e-21)
(-0.014952458481976 0.0118875244568611 4.92911548928072e-18)
(-0.0153238046255751 0.0120623239232425 -5.2530424058319e-18)
(-0.0171233775594309 0.013435888534672 0)
(-0.0201106779092061 0.0156513802428495 -5.69528373873762e-21)
(-0.0232398574446287 0.0175246111770059 1.19545479815281e-20)
(-0.0261967041717677 0.0184896630125772 -1.29864417613255e-17)
(-0.0281995544519717 0.0178452775162407 -6.90464565388663e-18)
(-0.0292199800537328 0.0156835508745217 -7.17346600977482e-21)
(-0.0294348789359412 0.0126307272591864 -7.8031320370145e-18)
(-0.028907454913546 0.00916393237752079 -4.06452867123583e-18)
(-0.028038962403908 0.00573543899685243 0)
(-0.029752047526749 0.00325349551732074 -7.97242339602665e-21)
(-0.0440119576290938 0.00197717645604652 7.56340936454797e-21)
(-0.063560370184034 0.00171526498856524 0)
(-0.0780501322281543 0.00145677984748877 0)
(-0.0906522801870266 0.00121737360725807 0)
(-0.100635311452939 0.00101209863888519 0)
(-0.108892592005325 0.000838932150821123 0)
(-0.115581124592371 0.000699191683565901 0)
(-0.121064509073146 0.000581603740585855 0)
(-0.12549327066961 0.000482055723053724 0)
(-0.129027868960882 0.000394413899503195 0)
(-0.131758581480717 0.000316062542366139 -8.14688543571397e-21)
(-0.133765437944324 0.000244156494491786 8.08342715865764e-21)
(-0.135102404900424 0.000177393872718297 0)
(-0.135815631530368 0.000114431338533267 0)
(-0.135941087605653 5.47652501632279e-05 0)
(-0.13551347079285 -1.75583530227411e-06 -9.86916734206178e-21)
(-0.134566647038478 -5.51847855059073e-05 9.8181424541571e-21)
(-0.133134123781667 -0.000105609802797 0)
(-0.131247141640126 -0.000153083840143114 0)
(-0.12893632921005 -0.000197598539954557 5.7601486708997e-21)
(-0.126232161118426 -0.000239110662067289 -5.75127662105255e-21)
(-0.123165332852939 -0.000277524118110597 6.21591170508717e-21)
(-0.119766850895097 -0.000312765656824929 2.35997062204865e-22)
(-0.116068263710728 -0.000344689313291849 -6.45888883115287e-21)
(-0.112101621142609 -0.000373236535489813 0)
(-0.107898269058657 -0.000398468258005989 0)
(-0.103488392194792 -0.000420486229141603 0)
(-0.0989008838018526 -0.00043941580840237 0)
(-0.0941633172979857 -0.000455381518480445 0)
(-0.089302008375427 -0.000468512539226396 0)
(-0.0843418320319113 -0.000478966638999259 0)
(-0.0793062845967791 -0.00048688175502194 -4.38982362983739e-21)
(-0.0742173835048597 -0.000492430572978447 4.41805564049656e-21)
(-0.0690959111921758 -0.000495706315861719 0)
(-0.0639622624510312 -0.00049675749542966 2.40146172445364e-21)
(-0.0588358189223566 -0.000495729223617558 5.14168655665037e-23)
(-0.0537345642287431 -0.000492773157175299 -2.49063084344273e-21)
(-0.0486747326215993 -0.000488114560200018 0)
(-0.0436708665303577 -0.000481927559989737 0)
(-0.0387356170773745 -0.000474452264965026 0)
(-0.0338800661831401 -0.000465842676942768 1.41109076004625e-21)
(-0.0291135197105021 -0.000456330735076187 1.46888861043394e-21)
(-0.0244439496399905 -0.000445955619961996 -5.88111396627021e-21)
(-0.0198800183228346 -0.000434672872605946 2.98948825964834e-21)
(-0.0154303740732637 -0.000422531867459195 0)
(-0.0111027517782678 -0.000409644052331604 6.34496550613598e-21)
(-0.00690382077065594 -0.000396222058723471 -6.40281365737574e-21)
(-0.00283872455817347 -0.000382466347954522 0)
(0.00108867136929122 -0.000368339788526767 0)
(0.00487384186589307 -0.000353760926857302 0)
(0.00851261253802246 -0.000338782891017825 0)
(0.0120008444653909 -0.000323415824807717 0)
(0.0153351481669082 -0.000307780376924856 0)
(0.0185126332280489 -0.000291864060639546 0)
(0.0215299557292583 -0.000275641800260539 0)
(0.0243835616933422 -0.000259092064533402 0)
(0.0270697117431173 -0.000242193560333937 0)
(0.0295843613285609 -0.000224921737015114 0)
(0.0319233857234575 -0.000207211562826985 0)
(0.0340810415264825 -0.000188945685464879 -1.46956409692288e-20)
(0.0360518281045372 -0.000170064284566216 1.47018002479904e-20)
(0.037826984978445 -0.000150338081699194 2.98857762002829e-20)
(0.0393996333665887 -0.00012974951686891 -2.99209260471921e-20)
(0.0407552795084888 -0.000107783526393062 3.04199392658019e-20)
(0.0418858829467826 -8.45591932733228e-05 -3.04828717777995e-20)
(0.0427641777609462 -5.89214690045441e-05 0)
(0.0433846239190061 -3.1574413689264e-05 3.1334155235282e-20)
(0.0436907079021658 2.19569039790751e-07 -3.14569117028819e-20)
(0.0436947320214476 3.36222397290044e-05 3.20261535641029e-20)
(0.0432707229711493 7.59997816728788e-05 -3.21468079058976e-20)
(0.0424984994616774 0.000119025301600212 0)
(0.0410556234087769 0.000182260544426202 0)
(0.0392476125488944 0.000238892579259848 -3.36652928773774e-20)
(0.0362226010859983 0.000342147591100071 6.81289415539251e-20)
(0.0330190350884897 0.00041077111759195 2.72352887816018e-22)
(0.0273095154112711 0.000590083345837054 -3.52281213830492e-20)
(0.0224158437104287 0.000636505730818734 0)
(0.0119846591611271 0.00108274785786188 -3.3441252240701e-19)
(0.00487326477481882 0.000543997727534668 3.83277523946807e-20)
(0.00870183455408918 0.00128333038976164 3.82279482804972e-17)
(0.0153487677084819 0.00405886740089732 1.81539324133674e-17)
(0.024690211372761 0.009470383437823 -2.74434713888455e-22)
(0.035998109904648 0.0177788410967263 3.21840511172064e-17)
(0.0500159260864819 0.0295551808880413 2.99898824690212e-17)
(0.0658598520910686 0.0438487498851836 -1.08763769404937e-20)
(0.0823385802139864 0.0589900654846929 0)
(0.0989527814624657 0.0737280789622351 -2.48254618270051e-17)
(0.113998320483626 0.0864906928077454 2.33567148215018e-17)
(0.126882383122627 0.0979632865955777 0)
(0.140457839005519 0.110910289352031 -1.99332612054916e-17)
(0.156030914818981 0.126673834654626 1.7786735553968e-17)
(0.180124905486145 0.150027232050614 -3.85584875754383e-21)
(0.218919162058557 0.180666864541801 0)
(0.277989595406504 0.213906957403625 0)
(0.361667063154719 0.23850693943936 0)
(0.466118899825513 0.224845166212667 -9.57818871057095e-19)
(0.474659590312437 0.123134113755187 3.02477878906349e-18)
(0.314642752029822 0.0303537720297173 6.45919013107983e-19)
(0.149794902708125 0.00430420161714721 5.39841413699758e-22)
(0.199492369531244 0.000881967360565398 -9.11047920828885e-25)
(0.173695206482642 -0.00674334591768928 8.31256091530246e-20)
(0.0587220765063895 -0.00609850652210224 -7.00902339803176e-19)
(-0.0623250965501831 0.0343067760842194 -5.9616413033133e-23)
(-0.0687537325723367 0.0450153413892512 3.04761175185392e-18)
(-0.0473968234682049 0.035552902344399 4.29396053790137e-22)
(-0.0362180335868195 0.0292592712558489 5.01227645205828e-22)
(-0.0276868715003428 0.0225984759937271 4.25920035707824e-18)
(-0.0231452048681626 0.0185182040408043 9.39282746080132e-18)
(-0.0211043686109675 0.0167088149431017 0)
(-0.0217286295862005 0.017127496849032 -2.64287510165176e-21)
(-0.0242665664621697 0.0191389779006003 -5.66238214938431e-18)
(-0.028329439492509 0.0221825737083442 -4.34922457096437e-23)
(-0.0326056375016335 0.0247203634572777 -5.34535574096478e-23)
(-0.0366735167073306 0.0259839823864024 6.52449050553189e-18)
(-0.0396717614348505 0.0251531069464361 6.7092335364185e-21)
(-0.0416365668348458 0.0223589158500663 7.30566225334932e-18)
(-0.0428005070282071 0.0183565320515879 -7.65153565872237e-18)
(-0.0432778194382091 0.0137233114305569 3.94288584082633e-18)
(-0.0438421722005507 0.00910718926407947 0)
(-0.0486875640435682 0.00570490831928421 0)
(-0.0675537032979453 0.00371055973362544 5.48878978874381e-20)
(-0.0914495519251615 0.00326889771648352 0)
(-0.108842231102972 0.00271479421742713 0)
(-0.123313178372463 0.00223847554187577 6.09593967925338e-21)
(-0.134461816962813 0.00183462921735227 1.21679707841075e-22)
(-0.143395565435181 0.00150337225482579 -5.8228479805549e-21)
(-0.150405064838495 0.00123552073746187 0)
(-0.155934453789082 0.00101148227316903 0)
(-0.160189733977311 0.00082101363170319 -6.13831815712196e-21)
(-0.163368489215862 0.000653423228162694 6.00133993335684e-21)
(-0.165589906828791 0.00050328362435206 -6.39183118326134e-21)
(-0.166955856818287 0.000365629085797433 -2.81535486684612e-22)
(-0.167538631169379 0.000237876185754929 -2.93455864479163e-22)
(-0.167399326697027 0.000117689241906136 6.62041086240455e-21)
(-0.166586890672989 4.31115073372194e-06 0)
(-0.165151547611929 -0.000102379844938809 0)
(-0.163140840169949 -0.000202664350266578 -7.55346151325256e-21)
(-0.160596455218992 -0.000296863679492026 7.45677840727096e-21)
(-0.157557692551402 -0.000385138708308184 0)
(-0.15406233521689 -0.000467525282432841 0)
(-0.15014719404367 -0.000543992829850921 4.27179669540885e-21)
(-0.145848570152995 -0.000614427803291137 -4.24154181672101e-21)
(-0.141202403167749 -0.000678742409769301 4.54919313908967e-21)
(-0.13624456761163 -0.000736756507907621 -4.52891834031984e-21)
(-0.131010708583914 -0.000788444154003976 -4.84391108979756e-21)
(-0.125535144939224 -0.000833967745279218 4.83414076745136e-21)
(-0.119850592132114 -0.000873547472973418 0)
(-0.113988134187369 -0.000907432975582038 0)
(-0.107977273986003 -0.000935869217041568 0)
(-0.101846026882508 -0.000959108238648408 -2.82337788497016e-21)
(-0.0956207738672806 -0.00097744106764316 -8.47885211566372e-16)
(-0.0893263809571652 -0.000991128500682035 -8.76732454874246e-16)
(-0.0829861244129028 -0.00100046777590837 3.01041638672389e-21)
(-0.0766220557785451 -0.00100562280910903 0)
(-0.07025578511452 -0.00100670151940726 0)
(-0.0639077531841457 -0.00100396945449063 0)
(-0.0575969056669293 -0.000997713351251152 0)
(-0.0513403384192567 -0.000988325099145104 0)
(-0.0451534474546 -0.000976127144345764 0)
(-0.0390496504063271 -0.000961530353480924 0)
(-0.0330408306546167 -0.000944821258908501 0)
(-0.0271370483446401 -0.000926383340448716 0)
(-0.0213471650224658 -0.000906272607888983 0)
(-0.0156808650156417 -0.000884409292410054 4.15761025019528e-21)
(-0.0101478632685318 -0.00086089487101687 5.82058495176657e-23)
(-0.00475686478307178 -0.000835980533657003 -8.68456772507225e-21)
(0.000484498915683613 -0.000809906460581965 1.31492329799724e-15)
(0.00557018647287565 -0.000782897218129226 1.33102237173519e-15)
(0.010495409327481 -0.000755010929736018 0)
(0.015254653134909 -0.000726201651043385 0)
(0.0198426910543172 -0.000696600027938047 0)
(0.0242543410355731 -0.0006662497753871 0)
(0.0284851763591974 -0.000635331170242554 0)
(0.0325312398931943 -0.000603824280980585 0)
(0.036388046918394 -0.000571676547040636 0)
(0.0400507870139312 -0.000538844596980489 -1.00359220201298e-20)
(0.0435143854203145 -0.000505286856381028 -8.7721933168158e-23)
(0.0467733870328002 -0.00047095605282913 -8.63620093440039e-23)
(0.0498221177234078 -0.000435720380763786 1.03491983925262e-20)
(0.0526531302142118 -0.000399371878202533 0)
(0.0552589203952039 -0.000361755042342145 0)
(0.0576285475369301 -0.0003224938797527 0)
(0.0597524673650166 -0.000281439641222706 0)
(0.0616133418743905 -0.000237788760243607 0)
(0.0631992824164246 -0.000191452180663989 2.2727197796454e-20)
(0.0644790620097571 -0.000140721670699264 1.66779538363798e-22)
(0.0654410341641365 -8.60571336987475e-05 1.68443632795111e-22)
(0.0660229448065418 -2.35537491456312e-05 1.71068558822898e-22)
(0.0662245281678154 4.39876022799211e-05 1.74107024612357e-22)
(0.0659089992294102 0.000126285434802604 1.78457800012174e-22)
(0.0651398895394702 0.000214499345764632 -2.5103875204078e-20)
(0.0635801434514426 0.000334378964418974 2.58324683036365e-20)
(0.0614987004640457 0.000455633744138248 -5.26866435795525e-20)
(0.0580101350611476 0.000646150323294359 2.69428745923731e-20)
(0.0540850864011827 0.000811213020755219 0)
(0.0472914432482624 0.00113094376680267 0)
(0.0408832609853042 0.00131713841259625 -3.01475008073025e-20)
(0.0280146099996407 0.00201970011519042 6.31285929427653e-20)
(0.0196825237847005 0.00198995329455351 8.27762734430651e-18)
(0.0236974193876411 0.00389398906212465 -1.54490063379118e-17)
(0.0314658705521399 0.00840690182058388 -2.79954751494745e-20)
(0.0421326944501067 0.0158770734889936 2.65404101993832e-17)
(0.0550752585143483 0.0265731895261422 0)
(0.0710672728591458 0.0410271151338894 -2.31418015209596e-17)
(0.0893589390310072 0.0582717711277753 -2.19425358365618e-17)
(0.108823723937563 0.0765994714639876 0)
(0.128931883248319 0.0946752512918754 2.01179960433241e-17)
(0.147923189036757 0.110933974827764 -1.93867255541598e-17)
(0.16490078955388 0.126064830254425 -1.84135066488285e-17)
(0.182604581231281 0.14285522857674 1.71744876302602e-17)
(0.202635580661314 0.162898368187723 0)
(0.232080406737717 0.191046786562262 1.33001504148768e-17)
(0.278308149886537 0.226579252969529 0)
(0.347732957846941 0.263535774935216 0)
(0.444223421683223 0.28818130913708 0)
(0.56475256632318 0.269108525250319 8.08490815111777e-19)
(0.600292492785349 0.157313543209704 -2.51950600676877e-18)
(0.450723657007579 0.0468498149552495 0)
(0.258621815783396 0.00898345931344895 -5.40869823093741e-22)
(0.290770032472125 0.0030359918637427 0)
(0.24560174407184 -0.00775522802465911 -3.64843217421496e-20)
(0.103799369245642 -0.0108577306044852 1.26776213866793e-18)
(-0.0607881097668259 0.0371684670106059 -1.15278714689119e-22)
(-0.0821780802794316 0.0535955614903635 -9.61253928940658e-21)
(-0.0585085404908155 0.0431205756733525 -3.41475803723329e-18)
(-0.0450995925769931 0.035876264820999 4.60135213844398e-22)
(-0.0350458458994956 0.0282239176237377 0)
(-0.0296438049057597 0.023498232123672 -4.81917306333085e-18)
(-0.0273175888109519 0.0215484803587961 2.55844045774565e-21)
(-0.0282506530756832 0.0223042779899434 2.07589549470775e-23)
(-0.0315160840228932 0.024982274212783 5.73552419753129e-18)
(-0.0365585254272819 0.0287987446019313 5.9498393286038e-18)
(-0.0418759521556852 0.0319239024213044 -1.20351983043548e-20)
(-0.046970233517578 0.0334236508729366 6.22151631695786e-21)
(-0.0510032322298889 0.0324341652551216 0)
(-0.054106259836082 0.029121441343504 -1.38141990316074e-17)
(-0.0565697494950342 0.0243196449267071 7.09620054805564e-18)
(-0.0586098078663814 0.0186864065770914 -1.40242025914691e-20)
(-0.0613854397759264 0.0130368939968947 3.615292667219e-18)
(-0.0696452078970326 0.0086663687237216 -2.64772738585184e-20)
(-0.0913766957951011 0.00579719545434978 -2.34111639814306e-20)
(-0.116580933538635 0.0050829215323933 -1.07663681046507e-20)
(-0.134155443630774 0.00411447023564841 0)
(-0.148098492264333 0.00332816972487778 0)
(-0.158443927095839 0.00267768202490405 0)
(-0.166437090469083 0.00215740945585964 -4.4631392271413e-21)
(-0.172460951245924 0.00173916905565991 4.25088974299107e-21)
(-0.176982959523834 0.00139235012539769 0)
(-0.180229515087273 0.00109827659754084 0)
(-0.182403340542485 0.000840858235358973 0)
(-0.18362994725786 0.000611119364142449 0)
(-0.184013602489562 0.000401624715378387 0)
(-0.183629562300196 0.000208206690923479 0)
(-0.182540901383565 2.749372589338e-05 0)