1 	0.721893629950546 	-4.33680868994202e-17 	0.0784857418402362 	2.63920865089413e-07 	2583.43254227838 	5.53554548174508e-09 	3.73923932658892e-38
1 	0.727037705966318 	-3.98986399474666e-17 	0.0784488196220836 	2.79550432283069e-06 	838.000192569358 	1.18046585795479e-07 	0
1 	0.732369815217141 	-3.64291929955129e-17 	0.0784055021635038 	1.44547190580939e-05 	204.293703551704 	9.9932514230578e-07 	0
1 	0.737896815960281 	-3.81639164714898e-17 	0.078363048897733 	4.82593500902803e-05 	84.5133482048803 	4.66433710309404e-06 	0
1 	0.743625815522393 	-4.33680868994202e-17 	0.0783204223568538 	0.000122311120998815 	44.513740848265 	1.39657528271093e-05 	0
1 	0.749564179269197 	-4.16333634234434e-17 	0.0782770143946774 	0.000256982898310656 	26.7578000751637 	2.86350608087481e-05 	0
1 	0.755719539893017 	-3.46944695195361e-17 	0.0782328624103473 	0.000468655638029034 	17.4499855346474 	4.01975165896943e-05 	0
1 	0.762099807029125 	-4.16333634234434e-17 	0.0781883050001012 	0.000760915325003723 	12.0627751111522 	3.66395682725844e-05 	0
1 	0.768713177212174 	-4.85722573273506e-17 	0.0781440749858929 	0.00112060867840826 	8.78057130888764 	1.95718502179456e-05 	0
1 	0.775568144184384 	-5.20417042793042e-17 	0.0781014144431741 	0.00152515909037649 	6.73745786224695 	8.22189502499688e-06 	0
1 	0.782673509567507 	-5.89805981832114e-17 	0.0780619536658998 	0.00195491468082716 	5.4538937533345 	2.04990001705553e-05 	0
1 	0.790038393911009 	-5.89805981832114e-17 	0.0780274145602722 	0.00240062699503812 	4.64584772466164 	6.21872548109045e-05 	0
1 	0.797672248129287 	-5.89805981832114e-17 	0.0779994154646284 	0.00286239465716 	4.14642381756735 	0.000133521495269935 	0
1 	0.80558486534117 	-5.20417042793042e-17 	0.0779794845945029 	0.00334693344350226 	3.86138852449967 	0.000237199667758445 	0
1 	0.81378639312537 	-4.85722573273506e-17 	0.0779690841279218 	0.00386570667786693 	3.74143899153638 	0.000381851756634531 	0
1 	0.822287346205993 	-5.20417042793042e-17 	0.0779694589525075 	0.00443416944800743 	3.76540195372416 	0.000583617730252208 	0
1 	0.831098619582676 	-5.55111512312578e-17 	0.077982053030509 	0.00507065799549568 	3.92694357433899 	0.00086921256453764 	0
1 	0.840231502120371 	-5.55111512312578e-17 	0.0780108195030079 	0.00579565736608807 	4.22245351072773 	0.00128256232034342 	0
1 	0.849697690614295 	-4.85722573273506e-17 	0.0780632541361106 	0.00663087050901978 	4.6441873022828 	0.00189204795981254 	0
1 	0.859509304346052 	-5.55111512312578e-17 	0.0781411843644705 	0.00759412897222666 	5.17317410626886 	0.00281432791895225 	0
1 	0.869678900147442 	-6.59194920871187e-17 	0.0782324188056918 	0.00870103680989077 	5.79369676273157 	0.00416698971959047 	0
1 	0.880219487989019 	-6.59194920871187e-17 	0.0783345861506298 	0.00996817435666674 	6.50741804016828 	0.00605953691152843 	0
1 	0.891144547110971 	-6.59194920871187e-17 	0.0784649072905553 	0.0113935150142365 	7.31347206156142 	0.00867775416745542 	0
1 	0.902468042714502 	-6.59194920871187e-17 	0.0786038962014036 	0.012931998825385 	8.19179690326377 	0.012196683966549 	0
1 	0.914204443232434 	-6.24500451351651e-17 	0.0787072120901367 	0.0145270237458133 	9.10662770343569 	0.0163236133618149 	0
1 	0.926368738198386 	-5.89805981832114e-17 	0.0787972058301147 	0.0161251100384416 	10.0076022675813 	0.0210080019569643 	0
1 	0.938976456734471 	-5.20417042793042e-17 	0.0789300099704092 	0.017624612366275 	10.8141901531946 	0.0257504085072936 	0
1 	0.952043686678135 	-4.85722573273506e-17 	0.079120560544429 	0.0189140281165205 	11.411911005169 	0.0298777093731491 	0
1 	0.965587094369388 	-4.5102810375397e-17 	0.079352982402468 	0.0199195764692826 	11.7063520217953 	0.0326749552332874 	0
1 	0.979623945120381 	-3.81639164714898e-17 	0.0796050095693441 	0.0206232574387542 	11.6537235556482 	0.0335771428854976 	0
1 	0.994172124390006 	-2.77555756156289e-17 	0.0798570451907014 	0.0210530875430672 	11.2525576201744 	0.0323758621614845 	0
1 	1.00925015968694 	-2.08166817117217e-17 	0.0800909215884464 	0.0212710736793247 	10.5376423651813 	0.0293077653325081 	0
1 	1.02487724322524 	-2.77555756156289e-17 	0.0802792540952776 	0.0213569226699956 	9.57348309288512 	0.0249559058638414 	0
1 	1.04107325535758 	-2.42861286636753e-17 	0.0804117633597667 	0.0213921136425997 	8.44211067140872 	0.0200463427758035 	0
1 	1.05785878881176 	-6.93889390390723e-18 	0.0805053375198565 	0.0214499157983103 	7.23374056092115 	0.015447829618692 	0
1 	1.07525517375733 	1.04083408558608e-17 	0.0805573882026616 	0.0215757884795542 	6.04157194360863 	0.0114753759158109 	0
1 	1.09328450372974 	1.38777878078145e-17 	0.0805524617602015 	0.0217898656210342 	4.95171151142373 	0.0083603903996057 	0
1 	1.11196966244057 	6.93889390390723e-18 	0.0804908890708047 	0.0220904455922905 	4.02486334616776 	0.00614125864687081 	0
1 	1.13133435150325 	0 	0.0803777313452865 	0.0224601393508333 	3.29364529598568 	0.00468159772755404 	0
1 	1.15140311910487 	0 	0.080221552893428 	0.0228737576265153 	2.76866933782759 	0.00378709790348591 	0
1 	1.17220138965546 	6.93889390390723e-18 	0.0800459004432051 	0.0233081561324189 	2.4230904075411 	0.00328215122783855 	0
1 	1.19375549444752 	0 	0.0798838704033805 	0.0237460423267093 	2.20464948559334 	0.00302743142241371 	0
1 	1.21609270335951 	-6.93889390390723e-18 	0.0797595354759309 	0.0241735241196182 	2.06329059872608 	0.00291541964938577 	0
1 	1.2392412576385 	0 	0.0796801543642499 	0.0245776566843125 	1.96317743893885 	0.00287018799371297 	0
1 	1.26323040379814 	1.04083408558608e-17 	0.0796423801647775 	0.0249456698021394 	1.88243665464112 	0.00284556728070218 	0
1 	1.28809042866969 	6.93889390390723e-18 	0.0796401543848394 	0.0252652805329113 	1.80948190983765 	0.00281918409118871 	0
1 	1.31385269564521 	1.04083408558608e-17 	0.0796688691997852 	0.0255252667959329 	1.73943847716479 	0.0027842870150498 	0
1 	1.34054968215346 	1.38777878078145e-17 	0.079726847044982 	0.0257158267529224 	1.67125987312436 	0.00274192226163516 	0
1 	1.36821501841066 	3.46944695195361e-18 	0.0798155435964547 	0.0258286200210039 	1.60554387114751 	0.00269496572069148 	0
1 	1.39688352748993 	3.46944695195361e-18 	0.0799389333781299 	0.0258566101656688 	1.54308957419322 	0.00264460628378789 	0
1 	1.42659126675493 	6.93889390390723e-18 	0.0801023698007966 	0.025793897477699 	1.4841828705543 	0.00258920609281819 	0
1 	1.45737557070508 	3.46944695195361e-18 	0.0803113731326821 	0.0256356848509836 	1.42845766959864 	0.00252490794580567 	0
1 	1.48927509528184 	-6.93889390390723e-18 	0.0805707591593827 	0.0253784206809215 	1.37509276788551 	0.00244708455596556 	0
1 	1.52232986368717 	-1.04083408558608e-17 	0.0808842680904431 	0.0250200735030251 	1.32311589867202 	0.00235180386457759 	0
1 	1.55658131376809 	-1.04083408558608e-17 	0.0812545928551864 	0.024560449481707 	1.27166243862873 	0.00223680281547043 	0
1 	1.59207234702299 	-1.04083408558608e-17 	0.0816835827728393 	0.02400146772035 	1.22012488700047 	0.00210183349365406 	0
1 	1.62884737928812 	-1.04083408558608e-17 	0.0821724257287089 	0.0233473379973805 	1.16819669941168 	0.00194851867542278 	0
1 	1.66695239316511 	-1.38777878078145e-17 	0.0827217173919103 	0.0226046143840806 	1.11584747867583 	0.00177995785619386 	0
1 	1.70643499225333 	-6.93889390390723e-18 	0.0833314276130118 	0.021782110636777 	1.06326901141071 	0.00160028199040817 	0
1 	1.74734445725344 	-3.46944695195361e-18 	0.0840008292155182 	0.0208906592285036 	1.01081588958013 	0.00141425174174524 	0
1 	1.78973180401193 	-3.46944695195361e-18 	0.0847284355751018 	0.0199427113439631 	0.958950397011206 	0.00122691854921903 	0
1 	1.83364984357938 	-3.46944695195361e-18 	0.0855118457532559 	0.0189519600266172 	0.908231103060484 	0.00104332079583065 	0
1 	1.86216499372493 	-6.93889390390723e-18 	0.0860317900943134 	0.0183106416476689 	0.876887173447813 	0.000930448323317411 	0
1 	1.88531996242308 	-6.93889390390723e-18 	0.0864617612828032 	0.0177961987575488 	0.853043597462445 	0.00084544065095932 	0
1 	1.92629854425245 	-1.38777878078145e-17 	0.0872293989716805 	0.0168999897226032 	0.813140021714031 	0.000705292824257094 	0
1 	1.9751444495264 	-2.08166817117217e-17 	0.0881308290937221 	0.0158898105130342 	0.770844744493309 	0.000560871916534134 	0
1 	2.02025965173184 	-2.08166817117217e-17 	0.0889870587628728 	0.014978952437394 	0.734978667717282 	0.000442633322020133 	0
1 	2.06006301192217 	-2.08166817117217e-17 	0.0897629794696038 	0.0141948376319525 	0.705957059945272 	0.000350524558045826 	0
1 	2.09845978584128 	-2.08166817117217e-17 	0.0904864070436164 	0.0134975212652749 	0.681916392302257 	0.000276576778531302 	0
1 	2.13549967996946 	-2.42861286636753e-17 	0.0911766393379024 	0.0128620341233112 	0.661802412764379 	0.000215944888862518 	0
1 	2.17123064424048 	-2.77555756156289e-17 	0.0918333861769612 	0.0122813895343076 	0.645282110014236 	0.000166531552480369 	0
1 	2.20569893411515 	-2.77555756156289e-17 	0.0924564083501319 	0.0117492405876959 	0.632077565572322 	0.000126413035345001 	0
1 	2.23894917046122 	-2.77555756156289e-17 	0.0930460481037606 	0.0112600465569169 	0.621964473257594 	9.39688574186849e-05 	0
1 	2.27102439731726 	-2.42861286636753e-17 	0.0936029929222872 	0.0108090866344901 	0.614769656194691 	6.78777968106546e-05 	0
1 	2.30196613761521 	-1.73472347597681e-17 	0.094128140729908 	0.0103924061107215 	0.61036867999088 	4.70914875834803e-05 	0
1 	2.33181444693392 	-1.38777878078145e-17 	0.0946225388221683 	0.0100067341407869 	0.608683688008927 	3.08027127367522e-05 	0
1 	2.3606079653529 	-6.93889390390723e-18 	0.0950873376587712 	0.00964939172826499 	0.609681546361157 	1.84128612195428e-05 	0
1 	2.38838396747391 	0 	0.0955237529538857 	0.00931820508352453 	0.613372359699174 	9.50186247709093e-06 	0
1 	2.41517841067461 	0 	0.0959330362281897 	0.00901143059667311 	0.619808389341933 	3.80240323053263e-06 	0
1 	2.44102598165722 	0 	0.0963164522147902 	0.00872768869120634 	0.629083359420347 	1.1788659204118e-06 	0
1 	2.46596014135207 	0 	0.0966752616083297 	0.00846590550434917 	0.641332083745954 	1.61062985934561e-06 	0
1 	2.49001316823444 	0 	0.0970107080160986 	0.00822526215591808 	0.656730288577682 	5.17894762839867e-06 	0
1 	2.51321620011054 	3.46944695195361e-18 	0.0973240082259324 	0.00800515016284143 	0.675494444470461 	1.20563790854968e-05 	0
1 	2.535599274427 	6.93889390390723e-18 	0.0976163451249745 	0.00780513118963632 	0.697881357563854 	2.24976241002004e-05 	0
1 	2.55719136715571 	6.93889390390723e-18 	0.0978888627744271 	0.00762489900379336 	0.724187213549475 	3.68305059668938e-05 	0
1 	2.57802043030465 	6.93889390390723e-18 	0.0981426632504649 	0.00746424080850704 	0.754745730161466 	5.54458282173671e-05 	0
1 	2.59811342810315 	3.46944695195361e-18 	0.0983788048898147 	0.00732299660823306 	0.789925070575247 	7.87848862384379e-05 	0
1 	2.61749637190832 	0 	0.0985983016405526 	0.0072010173259825 	0.83012321113337 	0.000107323608576945 	0
1 	2.63619435387806 	3.46944695195361e-18 	0.0988021233159148 	0.0070981205655637 	0.875761573759648 	0.000141552694465527 	0
1 	2.65423157945406 	6.93889390390723e-18 	0.0989911965411464 	0.00701404391147389 	0.927276958044208 	0.00018195376920665 	0
1 	2.67163139869691 	1.38777878078145e-17 	0.099166406171625 	0.00694839768947499 	0.985112142372723 	0.000228972471347324 	0
1 	2.68841633651388 	2.08166817117217e-17 	0.0993285969879234 	0.0069006201389914 	1.04970595621807 	0.000282990437862289 	0
1 	2.70460812181851 	2.42861286636753e-17 	0.0994785754981731 	0.00686993886439692 	1.12148411950251 	0.0003442992126084 	0
1 	2.72022771565972 	2.42861286636753e-17 	0.0996171117043299 	0.00685534294587927 	1.20085262714743 	0.000413079938353905 	0
1 	2.73529533835695 	3.12250225675825e-17 	0.0997449407219899 	0.0068555699499432 	1.28819583225698 	0.000489393061093277 	0
1 	2.74983049567626 	3.81639164714898e-17 	0.099862764178496 	0.00686911114783528 	1.38388155479787 	0.000573181996903935 	0
1 	2.76385200408157 	3.46944695195361e-17 	0.0999712513370691 	0.00689423658468167 	1.48827545046184 	0.000664293735525459 	0
1 	2.77737801509344 	3.81639164714898e-17 	0.100071039919628 	0.00692903954561174 	1.60176651266362 	0.000762517838096928 	0
1 	2.79042603878708 	4.16333634234434e-17 	0.100162736649252 	0.00697149757306532 	1.72480502637595 	0.00086764358829298 	0
1 	2.80301296646003 	4.16333634234434e-17 	0.100246917540359 	0.00701954480084904 	1.85795370330007 	0.000979533570289327 	0
1 	2.81515509249873 	4.16333634234434e-17 	0.100324127932847 	0.00707114909292806 	2.00195229326526 	0.00109821100885805 	0
1 	2.82686813547238 	4.16333634234434e-17 	0.100394882262662 	0.00712438730613459 	2.15779586274389 	0.00122395802050564 	0
1 	2.83816725848143 	4.5102810375397e-17 	0.100459663575941 	0.00717751256914716 	2.32682730678856 	0.00135742261290433 	0
1 	2.84906708878692 	4.85722573273506e-17 	0.100518922812969 	0.00722900870199243 	2.51084561568851 	0.00149973382995626 	0
1 	2.85958173674617 	4.85722573273506e-17 	0.100573077913587 	0.00727762843982019 	2.71223299975074 	0.0016526266878419 	0
1 	2.86972481407933 	5.20417042793042e-17 	0.100622512809496 	0.00732241365423614 	2.9341061994053 	0.00181858118672656 	0
1 	2.87950945149043 	5.20417042793042e-17 	0.100667576384716 	0.0073626971877691 	3.18050017458537 	0.00200098239938751 	0
1 	2.88894831566567 	4.85722573273506e-17 	0.100708581522107 	0.00739808677451002 	3.45659590712744 	0.00220431102347887 	0
1 	2.89805362567107 	4.85722573273506e-17 	0.100745804391845 	0.00742843146966918 	3.76900837281679 	0.00243437529299026 	0
1 	2.90683716877067 	4.85722573273506e-17 	0.100779484221025 	0.00745377004176133 	4.12615606772601 	0.00269859484853939 	0
1 	2.9153103156857 	4.85722573273506e-17 	0.10080982404435 	0.00747425894102188 	4.53874021205598 	0.00300634329828196 	0
1 	2.92348403531449 	4.85722573273506e-17 	0.100836992844604 	0.00749007482259302 	5.02037070203767 	0.00336934556071188 	0
1 	2.9313689089323 	4.85722573273506e-17 	0.10086112644949 	0.00750128352915186 	5.58838869731235 	0.00380210365257894 	0
1 	2.93897514388925 	4.85722573273506e-17 	0.100882320779469 	0.00750766504205243 	6.26495717609192 	0.00432228769235894 	0
1 	2.94631258682425 	4.85722573273506e-17 	0.100900640921419 	0.00750848478392815 	7.07853048755926 	0.00495284372786503 	0
1 	2.95339073641193 	5.55111512312578e-17 	0.100916290010863 	0.00750211253741286 	8.06611610748883 	0.00573056778798805 	0
1 	2.96021875565916 	6.24500451351651e-17 	0.100929676893273 	0.00748494779300893 	9.27775014109364 	0.0066977482369638 	0
1 	2.96680548376697 	6.24500451351651e-17 	0.100940948907346 	0.00744987865691724 	10.7813753377144 	0.00789032778629474 	0
1 	2.97315944757337 	6.24500451351651e-17 	0.100949768564493 	0.00738485217529199 	12.661347197393 	0.00934723306489641 	0
1 	2.97928887259171 	6.93889390390723e-17 	0.100955824182263 	0.00727085859143685 	15.0146812847848 	0.0110723299193635 	0
1 	2.98520169365903 	7.63278329429795e-17 	0.100959164881435 	0.00708051028945986 	17.956581122675 	0.013019806675204 	0
1 	2.99090556520807 	7.63278329429795e-17 	0.10096009904251 	0.00677740223076856 	21.6368771157827 	0.0150743245736344 	0
1 	2.99640787117633 	7.63278329429795e-17 	0.100959072072453 	0.00631674334914103 	26.2732568921663 	0.0169990265838235 	0
1 	3.00171573456492 	7.63278329429795e-17 	0.100956597845275 	0.00564972992692987 	32.229713910233 	0.0183714329908222 	0
1 	3.00683602665963 	7.63278329429795e-17 	0.100953222146993 	0.00473599971817335 	40.2307904051131 	0.0185135905515879 	0
1 	3.01177537592613 	7.97972798949331e-17 	0.100949537969123 	0.00357105384167162 	52.0093089786577 	0.016241299390487 	0
1 	3.01654017659085 	8.32667268468867e-17 	0.100946164973038 	0.00226972888005269 	72.5517689955622 	0.0110026793031388 	0
1 	3.02113659691864 	8.32667268468867e-17 	0.10094349514806 	0.00112226318229525 	119.330310602056 	0.00507101725952598 	0
1 	3.02557058719784 	9.0205620750794e-17 	0.100941403274444 	0.000395242263924071 	272.547103399745 	0.00139337986777798 	0
1 	3.02984788744324 	9.71445146547012e-17 	0.10093952278043 	8.81514370975461e-05 	1191.6338927472 	0.000187537034460855 	0
