# Probe 0 (-0.46 1.3 0)
# Probe 1 (2.95 0.43 0)
# Probe 2 (5.27 0.29 0)
#                Probe                      0                      1                      2
#                 Time
                     1    0.00668128291926095    0.00668988483964254     0.0066793081237528
                     2    0.00669179250949346    0.00675569424290617    0.00667945405527246
                     3    0.00672330749247331    0.00695691458936178    0.00668038847639489
                     4    0.00674649568296776    0.00708503500933303    0.00668029154901921
                     5    0.00676888156631319    0.00786329334560455    0.00667959674881009
                     6    0.00677593210613649    0.00890872807491674    0.00667888490686643
                     7    0.00678167820653555    0.00959484778807999    0.00667785711891741
                     8    0.00679214058635313     0.0104152328205755    0.00667660314677998
                     9    0.00680024680367405     0.0111446776500722    0.00667518199185094
                    10    0.00680682098066929     0.0114336014962614    0.00667359002338631
                    11    0.00681008504739793     0.0110593872923863    0.00667183811061349
                    12    0.00681244075565915      0.010240443678898    0.00666996509445147
                    13    0.00681618062721054    0.00940301381438645    0.00666796565392624
                    14    0.00682024053090604    0.00888799023285985    0.00666588052972242
                    15    0.00682342915652033    0.00887074527721344    0.00666372264002022
                    16    0.00682561432939336    0.00936357287658576    0.00666147961750369
                    17    0.00682705810826434     0.0105588163945825    0.00665911540478979
                    18     0.0068279296636737     0.0117167596229436    0.00665673564769097
                    19    0.00682787406480956     0.0130794737808417    0.00665429401568828
                    20    0.00682683161606319     0.0149060759140384    0.00665177436797468
                    21     0.0068249350702383     0.0163751178549147    0.00664925414628455
                    22    0.00682200582706474     0.0180089889231226    0.00664668907349329
                    23      0.006817937061531     0.0201965891931471    0.00664430948215746
                    24    0.00681276632957357     0.0220995710315692    0.00664189538658975
                    25    0.00680683084795489     0.0241237551465479    0.00663979885518125
                    26    0.00679988794048997     0.0263413102653768    0.00663792940123822
                    27    0.00679193113690031     0.0289673790181527    0.00663719148732157
                    28    0.00678307692681242     0.0314564382706704    0.00663838725976062
                    29    0.00677346167193713     0.0337813051114583      0.006642127357583
                    30    0.00676374837669799     0.0357170627167297    0.00665068765889794
                    31    0.00675269131631699      0.037477726276638    0.00666508003683494
                    32    0.00674124464457819     0.0387871012326365    0.00668943364864255
                    33    0.00672934754601344     0.0396449739042486     0.0067240938945509
                    34    0.00671705974108424     0.0400515879510677     0.0067658930264621
                    35    0.00670443822715382     0.0400348771311436    0.00680573391637613
                    36    0.00669157219278171     0.0396617656723847    0.00683111105052635
                    37    0.00667781261194708     0.0391094037216681    0.00683518527795774
                    38    0.00666330375964438     0.0382466780313729    0.00682922826294919
                    39      0.006649688465843     0.0372692885958209    0.00683141101983688
                    40    0.00663536760599366      0.036199461458271    0.00684403950204942
                    41    0.00662085676248625     0.0350846023495882    0.00687753905325351
                    42    0.00660620124872829      0.033937123413066    0.00693087974045962
                    43    0.00659143387374259     0.0327855170955152     0.0069997733144087
                    44    0.00657657051475948     0.0316826738188362    0.00708062246867217
                    45    0.00656160625550126      0.030698858734257    0.00717132760291332
                    46    0.00654697426877433     0.0299127232389775    0.00728198352480735
                    47    0.00653168838370104     0.0292535186626454    0.00739327725630281
                    48    0.00651628486056329     0.0287589625127845    0.00751280845443897
                    49    0.00650074747035796     0.0283705523233697    0.00763962796103824
                    50    0.00648506954659153     0.0280185254238292    0.00777277112964004
                    51    0.00646922994033264     0.0276391532757283    0.00791154051839334
                    52    0.00645319610587901     0.0271718995735963    0.00805543074329937
                    53    0.00643692790310935      0.026622487668428    0.00820391116941562
                    54    0.00642037257499749     0.0260879315861676    0.00835630914328929
                    55    0.00640348310257429     0.0256481837383752    0.00851150427910096
                    56    0.00638621287361707     0.0253274690264682    0.00866785498837573
                    57    0.00636851702429994     0.0251186852834085    0.00882310225076751
                    58    0.00635036204173797     0.0250031363769547    0.00897430344824383
                    59    0.00633171433486058     0.0249539305069365    0.00911809735941272
                    60    0.00631253104819463     0.0248120078312739    0.00925095681656551
                    61    0.00629275385478625     0.0245296162614436    0.00936934193693971
                    62    0.00627230322838621     0.0241437573339725    0.00946995515027652
                    63    0.00625105970109614     0.0236785335704325    0.00954998957454651
                    64    0.00622887242014066      0.023105943623912    0.00960692712142251
                    65    0.00620555476780823     0.0223415807955806    0.00963859737619191
                    66    0.00618088013067419     0.0212894877977168     0.0096435528365205
                    67     0.0061545711628021     0.0199353115019331    0.00962111216257466
                    68    0.00612628887657408     0.0184489124632051     0.0095706648833237
                    69    0.00609563759077002     0.0169143238203888    0.00949377890222363
                    70    0.00606214966207711     0.0153956682415114    0.00939114697352567
                    71    0.00602528509171169     0.0139464269463458    0.00926366247584598
                    72    0.00598447178117826     0.0126170763788239    0.00911809709340155
                    73    0.00593899884655072     0.0114365221847179     0.0089636211020628
                    74    0.00588771169579225     0.0104055988726683     0.0088070326909536
                    75    0.00582940244780603    0.00950618063267512    0.00865662006515894
                    76    0.00576277826640007    0.00872767900107648    0.00851747785256497
                    77    0.00568632881714545    0.00806502766618577    0.00839209561347469
                    78    0.00559838831505058    0.00750958205072883    0.00828645597052258
                    79     0.0054972239284673    0.00704461892423992    0.00820093376851221
                    80      0.005381269022704    0.00665109989276134    0.00813516747256714
                    81     0.0052494192664446    0.00631559573503108    0.00808784051263127
                    82    0.00510143892576213    0.00602897097587215    0.00805581624710918
                    83    0.00493862013301583     0.0057867736992708    0.00803581965191762
                    84    0.00476421926835833    0.00558662151475639    0.00802443703383159
                    85    0.00458354982475193    0.00542614936017282    0.00801898983562237
                    86    0.00440469754761149    0.00529083488176168      0.008016880464915
                    87    0.00423794274174593    0.00518093728976526    0.00801622037118185
                    88    0.00409437098566295    0.00510151418534095    0.00801563260991494
                    89    0.00398355256397368    0.00505120659241378    0.00801436199511645
                    90    0.00391113909200586    0.00502664780828115    0.00801220695985217
                    91    0.00387752052959454    0.00502322505908723    0.00800938477882421
                    92    0.00387798150019726    0.00503595259026759    0.00800643181057895
                    93    0.00390444622858406    0.00506011133546326    0.00800406929900528
                    94    0.00394779607403434    0.00509104448870044    0.00800310153565506
                    95    0.00399981285623128    0.00512488882133537     0.0080043085144876
                    96    0.00405427547372266      0.005158287037099    0.00800837081104802
                    97    0.00410721111637371    0.00518795141146583    0.00801581571442695
                    98    0.00415665646263172    0.00521199551208393    0.00802699713521669
                    99    0.00420211418841167    0.00522966403255582    0.00804206772949506
                   100    0.00424396139285257    0.00524072397260088    0.00806096534055268
                   101    0.00428292116510775    0.00524500760090868    0.00808344927090913
                   102    0.00431971358739518    0.00524165818560735    0.00810911758993837
                   103    0.00435490006210927    0.00523146863310077    0.00813742203520462
                   104     0.0043889793703906     0.0052152520437917    0.00816767838607308
                   105    0.00442228868877584    0.00519379531769436    0.00819907204684704
                   106    0.00445757321110045    0.00515983053436776    0.00823008444595445
                   107    0.00448873313713605    0.00512846399230913    0.00826006650019909
                   108    0.00452069103981611     0.0050858948081532    0.00828746619799161
                   109    0.00455104397559077    0.00503683724478763    0.00831182518313729
                   110    0.00457980648395756    0.00498062835058862    0.00833248538714144
                   111    0.00460591157730252    0.00492531797514174    0.00835123807765032
                   112    0.00463128188506284    0.00486435483676447    0.00836615175631059
                   113    0.00465598044462821    0.00479771198357308     0.0083768117977563
                   114    0.00467993365227217    0.00472540346771669    0.00838283596150643
                   115    0.00470298346051959    0.00464746410152378    0.00838385622016458
                   116    0.00472494970146283    0.00456396846699545    0.00837953450289011
                   117     0.0047456759474949    0.00447515681255731    0.00836957966540284
                   118    0.00476508510478956    0.00438149714799373    0.00835372226461506
                   119    0.00478321948386629    0.00428558441114256    0.00833168234777699
                   120     0.0048000679062278    0.00419079793447649    0.00830314712594785
                   121    0.00481567759566145    0.00410105854494939     0.0082677402479748
                   122    0.00483025262575904    0.00402047675680279    0.00822502766387548
                   123    0.00484373528168985    0.00396877013098157     0.0081652071022949
                   124    0.00485630309393477    0.00393774972579879    0.00809494609943957
                   125    0.00486803272848581    0.00393052340288618     0.0080134165556629
                   126    0.00487896345886174    0.00394963392121764    0.00791977592746601
                   127    0.00488911191869221    0.00399727305102418    0.00781319195740119
                   128    0.00489849123027214    0.00407457058834523    0.00769283970852541
                   129    0.00490711798434193    0.00418137900438675    0.00755800920960759
                   130     0.0049150144483375    0.00431704884747635    0.00740811007691464
                   131    0.00492220739982055    0.00448039411910785     0.0072427842954827
                   132    0.00492872473367072    0.00466974227736349    0.00706207090853004
                   133    0.00493460378498617    0.00488380843994114    0.00686638061106035
                   134    0.00493987363260385    0.00512168120234793    0.00665675432007326
                   135    0.00494456168452717    0.00538255595429994    0.00643479067417082
                   136    0.00494869664790239    0.00566582930931583    0.00620241726694587
                   137    0.00495230546697075    0.00597065797595763    0.00596194004254601
                   138    0.00495580924712451    0.00623136388025146    0.00573553132780318
                   139    0.00495886102466975    0.00651471146779449    0.00550501574125657
                   140    0.00496147448451806    0.00682521803264217    0.00527324959608743
                   141    0.00496366755759411    0.00716475983917983    0.00504279361838502
                   142    0.00496546000136857    0.00753246105244336    0.00481575202317734
                   143    0.00496687203172678    0.00792534221353117    0.00459389689596237
                   144    0.00496792568758389    0.00833969844859993    0.00437855600522718
                   145    0.00496864191609339    0.00877167783999454    0.00417104607453215
                   146    0.00496904127078182    0.00921800774442024    0.00397266991512211
                   147    0.00496914352337962    0.00967622151980343    0.00378503683557856
                   148    0.00496896777466611     0.0101446809976159    0.00361033588238385
                   149    0.00496853240592727     0.0106221877236012    0.00345126186861549
                   150    0.00496785480895503     0.0111076867874905    0.00331055072772644
                   151    0.00496695110632598     0.0116001002506218    0.00319040307932448
                   152    0.00496583593473469     0.0120985089771057    0.00309206545016984
                   153    0.00496452273878528     0.0126018468961858    0.00301567142935833
                   154    0.00496302397710216     0.0131091787861272    0.00295979416151304
                   155    0.00496135274641629     0.0136197418170536    0.00292203951901966
                   156     0.0049595231472245     0.0141329368652774    0.00289938906377221
                   157    0.00495754989811171     0.0146480232634373    0.00288873440729816
                   158    0.00495544914004898     0.0151630898767649    0.00288722055160011
                   159    0.00495323912294803     0.0156773209157151    0.00289244851391506
                   160    0.00495094695826869     0.0161896320017069    0.00290263378525083
                   161    0.00494859150922707     0.0166988062270202    0.00291653509475195
                   162    0.00494618932165816     0.0172035621571366    0.00293334148357316
                   163    0.00494376231864647     0.0177026499103799    0.00295260260689516
                   164    0.00494131909506635     0.0181950507122319    0.00297408522746579
                   165    0.00493886933153031     0.0186795198818725    0.00299763805679685
                   166    0.00493642260940635     0.0191523588068239     0.0030231301503189
                   167     0.0049339900809103      0.019613073815406     0.0030504068394862
                   168     0.0049315844547971     0.0200612960917425    0.00307927978388393
                   169    0.00492921868347778     0.0204965227177022    0.00310953667370002
                   170    0.00492690557508064     0.0209183776063672    0.00314096670486101
                   171    0.00492466003631389     0.0213265708227067    0.00317338012140802
                   172    0.00492249177295673     0.0217206943512059    0.00320662785143629
                   173    0.00492040689981494     0.0221002073590442    0.00324060812507765
                   174    0.00491840892713542     0.0224640776758739    0.00327526494054322
                   175    0.00491650047772381     0.0228115642043705    0.00331057834452297
                   176    0.00491468341476726     0.0231426190146436    0.00334655436230373
                   177     0.0049129591019629     0.0234574246753841    0.00338321021265405
                   178    0.00491132883841891     0.0237562847364868    0.00342056968619299
                   179    0.00490979391129399     0.0240395045138583    0.00345865755939822
                   180    0.00490835515250055     0.0243073473074087    0.00349749946865891
                   181    0.00490701748183503     0.0245595695026372    0.00353712046337909
                   182    0.00490577784490488     0.0247968080475626     0.0035775226293262
                   183     0.0049046334624257     0.0250194143066352    0.00361872239323405
                   184     0.0049035816587533     0.0252278720500155    0.00366074859471644
                   185    0.00490261907627548     0.0254229722399232    0.00370363377521463
                   186    0.00490174151790808     0.0256056423936942    0.00374741069921602
                   187    0.00490094437281362      0.025776724980962     0.0037921169394587
                   188    0.00490022300099703     0.0259368467966582    0.00383779372204181
                   189    0.00489957262570145     0.0260864253247072    0.00388448580288825
                   190    0.00489898843629118      0.026225692810604    0.00393223464442566
                   191    0.00489846576464779     0.0263545882910499    0.00398107801107304
                   192    0.00489800023934159     0.0264734016879889    0.00403104952607386
                   193    0.00489758774495804     0.0265826451780433    0.00408218317070256
                   194    0.00489722432528427     0.0266830074175106    0.00413451222674274
                   195    0.00489690608934474     0.0267753205405171    0.00418807269930302
                   196     0.0048966291269851     0.0268604384493149    0.00424290556914475
                   197    0.00489638955391609     0.0269390561588582    0.00429905758288788
                   198    0.00489618366844996     0.0270117027188368    0.00435657569241896
                   199    0.00489600804016923     0.0270788059476745    0.00441550674014446
                   200     0.0048958595377458     0.0271405745429047    0.00447589787381927
                   201    0.00489573536024062     0.0271970978334941     0.0045377893967326
                   202    0.00489563298386843      0.027248489535517    0.00460121589203343
                   203    0.00489555011594628     0.0272949002501473    0.00466620154588027
                   204     0.0048954846343087     0.0273365498045977    0.00473276173488093
                   205    0.00489543455323834     0.0273737203872213    0.00480089988511231
                   206    0.00489539800735131     0.0274067400891841    0.00487060788369158
                   207    0.00489537326235074     0.0274359568475555    0.00494186777696824
                   208     0.0048953587332674     0.0274617096102695    0.00501465381412148
                   209    0.00489535301842961      0.027484312658033    0.00508893741629152
                   210    0.00489535491411453     0.0275039658345215     0.0051647057296562
                   211    0.00489536341883691      0.027520839094769    0.00524197781348332
                   212    0.00489537771983791     0.0275350584663959     0.0053208136610718
                   213    0.00489539843656009     0.0275458065511938    0.00540141591807852
                   214    0.00489542544344002     0.0275541517831426    0.00548398996701142
                   215    0.00489545805886478      0.027560148731779    0.00556874259430172
                   216    0.00489549544050551     0.0275637502507608    0.00565582127918423
                   217    0.00489553702001107     0.0275650259142293    0.00574525259029222
                   218    0.00489558243657396     0.0275642007209868    0.00583690018432886
                   219    0.00489563128677632     0.0275615523103695    0.00593051043684552
                   220    0.00489568308386739     0.0275573230434405     0.0060258107391195
                   221    0.00489573742402545     0.0275517529442731     0.0061226053747489
                   222    0.00489579407855496      0.027545094265406    0.00622078626459286
                   223    0.00489585293807523     0.0275375911817314    0.00632031933714374
                   224    0.00489591392230376     0.0275294616067527    0.00642121603324571
                   225    0.00489597693539404     0.0275208940819246    0.00652349643421543
                   226    0.00489604190078609     0.0275120549076369    0.00662718967595584
                   227    0.00489610877363867      0.027503065187653    0.00673231535519557
                   228    0.00489617753780709     0.0274940352225498    0.00683889149777222
                   229    0.00489624818499659      0.027485028179754    0.00694693016710133
                   230    0.00489632068326372     0.0274761080671425    0.00705642423434121
                   231     0.0048963949688511     0.0274673699233525    0.00716735877000973
                   232    0.00489647095481699     0.0274588186404321    0.00727971882445978
                   233    0.00489654853750461     0.0274505015757736    0.00739348457358489
                   234     0.0048966276221431      0.027442427718074    0.00750865271632009
                   235    0.00489670811817659     0.0274346311376133    0.00762521528490294
                   236    0.00489678993799153     0.0274270374512149    0.00774315227863203
                   237    0.00489687298781101      0.027419561384138    0.00786241319712034
                   238    0.00489695716602461     0.0274121815826525    0.00798292271615368
                   239      0.004897042366302     0.0274047866969765    0.00810459069614426
                   240    0.00489712848768147     0.0273972289241424    0.00822733244994618
                   241    0.00489721542540068     0.0273893850618264    0.00835106103223261
                   242    0.00489730310518934     0.0273811150790965    0.00847572800777293
                   243    0.00489739146815671     0.0273722548691489    0.00860129226328859
                   244    0.00489748049593869     0.0273626320991871    0.00872775026655359
                   245    0.00489757023454176     0.0273520497886238    0.00885517464069574
                   246    0.00489766079300834     0.0273403024699085    0.00898372167344876
                   247    0.00489775233551863     0.0273271713983163    0.00911362682727029
                   248    0.00489784509123609     0.0273124214093235    0.00924523140249882
                   249    0.00489793927602325     0.0272958123511246     0.0093788794499959
                   250    0.00489803499700186     0.0272771157625686    0.00951479413948706
                   251    0.00489813219742157     0.0272561400553578    0.00965300340641485
                   252    0.00489823062236216     0.0272327519055007    0.00979328427320481
                   253    0.00489832992342201     0.0272068774588463    0.00993529394715772
                   254    0.00489842975636902     0.0271784852204315     0.0100786911255882
                   255    0.00489852985883298     0.0271475700606374     0.0102232348352899
                   256    0.00489863003739126     0.0271141300144112     0.0103687650944589
                   257    0.00489873018177238     0.0270781643241403     0.0105152250467113
                   258    0.00489883021968938     0.0270396728236701     0.0106625997189321
                   259    0.00489893011758617     0.0269986419205288     0.0108109179839508
                   260    0.00489902986906529     0.0269550519606449     0.0109602466337301
                   261    0.00489912948470205     0.0269088829765789     0.0111106886775404
                   262    0.00489922897276332     0.0268601202857615     0.0112623621803819
                   263    0.00489932834369479     0.0268087564112118     0.0114154004980987
                   264    0.00489942759273392     0.0267547758680444     0.0115699163467963
                   265     0.0048995267137224     0.0266981756477048     0.0117260135808824
                   266    0.00489962570188402     0.0266389637527963     0.0118837875284576
                   267    0.00489972455186742     0.0265771557700441      0.012043311647362
                   268    0.00489982325704081      0.026512775578816     0.0122046324527583
                   269    0.00489992180767405     0.0264458577231306     0.0123677653465849
                   270    0.00490002018071681     0.0263764525457714     0.0125326819958363
                   271    0.00490011835267813     0.0263046160161899     0.0126993343584162
                   272    0.00490021631546155     0.0262303969972947     0.0128676856052914
                   273    0.00490031405813044     0.0261538485552893     0.0130376838429173
                   274     0.0049004115730677      0.026075023171851     0.0132092783681649
                   275    0.00490050883176467     0.0259939916185629      0.013382381943232
                   276    0.00490060581807595     0.0259108177829752     0.0135569288084994
                   277    0.00490070250908297     0.0258255769968014     0.0137328428807547
                   278    0.00490079888246114     0.0257383487151452     0.0139100685523833
                   279    0.00490089494404334      0.025649188309333     0.0140886247854109
                   280    0.00490099065795756     0.0255581807749417     0.0142684787059553
                   281    0.00490108603549852     0.0254653594258539     0.0144496976864066
                   282    0.00490118104069036     0.0253708047740165     0.0146322637200677
                   283    0.00490127565569434     0.0252745855864904      0.014816188424415
                   284    0.00490136985146314     0.0251767896409096     0.0150014491837523
                   285    0.00490146360765524     0.0250775014547625      0.015188023639996
                   286    0.00490155691129508     0.0249768007869865     0.0153758860039423
                   287    0.00490164973742672     0.0248747820163554     0.0155649652351973
                   288    0.00490174208520809     0.0247715172519148     0.0157552166136148
                   289    0.00490183395303518     0.0246670810854363     0.0159465667867872
                   290    0.00490192537124529     0.0245615153950371     0.0161389773472466
                   291    0.00490201640062819      0.024454832851628     0.0163323666235897
                   292    0.00490210694527109     0.0243472747951983     0.0165265573977643
                   293    0.00490219694232232     0.0242388367556957     0.0167215818578526
                   294     0.0049022864415627     0.0241294522324268     0.0169174205966034
                   295     0.0049023754715608     0.0240191914006549     0.0171140010662739
                   296    0.00490246406230212     0.0239081020037748     0.0173112454228114
                   297    0.00490255222698684      0.023796217811246     0.0175090602666649
                   298    0.00490263997415678     0.0236835646229239     0.0177073534905886
                   299    0.00490272731363636     0.0235701742341329     0.0179060260492104
                   300    0.00490281425728829     0.0234560836416596     0.0181049463647526
                   301    0.00490290081174056     0.0233413364780437     0.0183039881380134
                   302    0.00490298698335607     0.0232259732792169     0.0185030398298848
                   303    0.00490307277426042     0.0231100393864772     0.0187019912815694
                   304    0.00490315818691764     0.0229935827026554     0.0189007319033635
                   305    0.00490324322245792     0.0228766546846358     0.0190991423871956
                   306    0.00490332788486589     0.0227593022015655     0.0192971178626535
                   307    0.00490341217405883     0.0226415775398973     0.0194945486821107
                   308    0.00490349608821199     0.0225235457200694     0.0196913240920492
                   309    0.00490357962582369     0.0224052533533449     0.0198873350362555
                   310    0.00490366278429469      0.022286747501601     0.0200824708856609
                   311    0.00490374555944874     0.0221680792160089      0.020276618582416
                   312    0.00490382794617753     0.0220493008044468     0.0204696652608815
                   313    0.00490390994129723     0.0219304646786882     0.0206615024833791
                   314    0.00490399154270239     0.0218115205354027     0.0208520242987085
                   315    0.00490407274838015     0.0216925183669223     0.0210411248666011
                   316    0.00490415355658921     0.0215735137746992     0.0212286978532665
                   317    0.00490423396699709     0.0214545730549795     0.0214146402235483
                   318    0.00490431397950824     0.0213357645522339     0.0215988509054342
                   319    0.00490439359686635     0.0212171495458693     0.0217812365364997
                   320    0.00490447282314961     0.0210987840243177     0.0219617079557443
                   321    0.00490455166321523     0.0209807210204327     0.0221401802069699
                   322     0.0049046303984303     0.0208630155828978     0.0223165904043908
                   323    0.00490470923175797     0.0207457038667301     0.0224908836289384
                   324     0.0049047880991054     0.0206288263501857     0.0226630019340912