# Probe 0 (-0.46 1.3 0)
# Probe 1 (2.95 0.43 0)
# Probe 2 (5.27 0.29 0)
#                Probe                      0                      1                      2
#                 Time
                     1      0.110032611358982      0.110848780966761      0.110372543366614
                     2      0.110718229975202      0.148627919374248      0.111440392137845
                     3      0.113709682312395      0.230286312756601      0.113260137894901
                     4      0.116713987839363      0.386251972160596       0.11612872330297
                     5      0.119665047760658      0.919438698848467      0.119362158974912
                     6      0.121800322705679       2.04248953028067      0.122838631223166
                     7      0.124499656554061       3.10335489741578      0.126701767190306
                     8      0.129009817497566       4.18766889308121      0.130972421038345
                     9      0.133829772727354       5.41608668840973      0.135577729109518
                    10      0.137003739855072       6.91409860956539      0.140566725403807
                    11      0.139962883219096       8.58620372418334      0.146016561651503
                    12      0.143780854244097       10.2384537254774      0.151818059803289
                    13      0.149914635271836        11.459145679751      0.158040971588491
                    14      0.157114328248912         12.05637128931      0.164533921927582
                    15      0.163997838122171       12.2001757705524      0.171329059935355
                    16      0.170640969505487       12.0940902786803      0.178486238098078
                    17      0.177750580454636       11.9015111316416      0.186049101697275
                    18      0.185731547438596       11.7252341737582      0.193998877871154
                    19      0.193870188901717       11.5905730602356      0.202307220010839
                    20       0.20217392498667       11.4922128222002      0.210938725059599
                    21      0.210662335194218       11.4319084994758      0.219882996597159
                    22      0.219343930597512       11.4169444943047      0.229129974838428
                    23      0.228171516365618       11.4535059658919      0.238631576715664
                    24      0.237187356831549        11.534278308471      0.248488056786917
                    25      0.245456372041751        11.640011995812      0.258629052263252
                    26      0.252887622066271       11.7502697482808      0.269182984378683
                    27      0.259770218139229        11.853476327508      0.280856844764458
                    28      0.265916547618316       11.9331480301719      0.294044145789494
                    29      0.271633477312002       11.9814163977621      0.310912401238137
                    30      0.276849178038664       11.9864736875689      0.334727442696372
                    31      0.281958816026459       11.8936071660632      0.385329920002689
                    32      0.286505744616116       11.8087447063632      0.454134195796668
                    33      0.290774465029247       11.6733598772616      0.567100104195219
                    34      0.294813861037759       11.4948941853471      0.738974061891855
                    35       0.29867367627298       11.2820075519201      0.968007710460809
                    36      0.302717036998874       11.0055943698248       1.24005048019397
                    37      0.306622382383522       10.7419074700681       1.48299514386618
                    38      0.310540430111092       10.4618621301269       1.64077100230762
                    39      0.314004519475778       10.2253225465524       1.71741655622919
                    40      0.317891939839561       9.97060678696246       1.74504653573948
                    41      0.321421278763665       9.75251653747146       1.74452286816817
                    42      0.324978917439108       9.55020573301688       1.73868617206355
                    43      0.328964545213928       9.35036447212264       1.74756693728648
                    44      0.333001741356159       9.17040444335728        1.7711115811592
                    45      0.337094804597886        9.0073695284739       1.80709574385893
                    46      0.340861923805816       8.86743790176173       1.84037996947818
                    47      0.345064180866179       8.71429420723389       1.88870303954798
                    48      0.349329060702037       8.55998761497693       1.94009378322626
                    49      0.353654527100111       8.40509982912095       1.99250583825544
                    50      0.358042622248071       8.25136247367518       2.04439382560775
                    51      0.362495180932784        8.0988518997791       2.09447320000881
                    52      0.367017250629238        7.9455784454286       2.14164499076142
                    53      0.371617631941475       7.78738302947268       2.18500372112045
                    54       0.37630812434981       7.62378698481928       2.22382030966806
                    55      0.381104041424793       7.44815853661811       2.25756292873152
                    56      0.386026256391566       7.25774222793284        2.2859138789654
                    57      0.391102478840387       7.05102855369927       2.30875933027458
                    58      0.396368916980415       6.82778395511137       2.32616668004689
                    59      0.401873624582223       6.58813764396621       2.33836132802057
                    60      0.407677052499326       6.33125163972805       2.34567070066678
                    61      0.413854120877096       6.06117003911822       2.34847472273074
                    62      0.420497244954942       5.78804425409506       2.34717320609074
                    63        0.4277190134422       5.51718099330174       2.34216932197304
                    64       0.43565668575566       5.24886032922559       2.33385189039503
                    65      0.444474258084605       4.97813173023977       2.32256398728937
                    66      0.454377890823928       4.69747230878623       2.30859135314808
                    67      0.465622761057329         4.415398079038       2.29214669045108
                    68      0.478502335601152       4.15126879967273       2.27347470998668
                    69      0.493348423835016       3.90085521130921       2.25282725674939
                    70      0.510518959488154       3.66080955960253       2.23057946211676
                    71      0.530298962513634       3.43354729009382       2.20721735617796
                    72      0.551418685993837        3.2249617908327       2.18427751882037
                    73      0.579112966296413       3.02905610526744       2.15788615230657
                    74       0.61289094777589       2.84976161721181       2.13012682699843
                    75      0.651164879571807       2.68395094524907       2.10293943555376
                    76       0.69442976806558       2.51920142207432        2.0762525031879
                    77      0.742578652848659       2.35687614859729       2.05024436282565
                    78      0.794925619062886        2.2078761527061       2.02515994529658
                    79      0.849978291100743       2.08336241016213       2.00108669446298
                    80       0.90545155722145       1.98920263619442       1.97798375985044
                    81      0.958547830221952       1.92475005890331       1.95563809323204
                    82       1.00628057414886       1.88477654351184       1.93381213240004
                    83       1.04391387528491       1.86125927704687       1.91503908484312
                    84       1.07449144167917       1.85347965014324       1.89624138893613
                    85       1.09746667634582       1.85638497660449       1.87707821157892
                    86       1.11336123453894       1.86672947081227       1.85730064287806
                    87       1.12360771238344       1.88148719012246       1.83675680804074
                    88       1.13013423051406       1.89847620485983       1.81537898849403
                    89       1.13485993724628       1.91622235075218       1.79321360805932
                    90       1.13930851804438       1.93392373893856       1.77034454581682
                    91       1.14437450982882       1.95110618932631       1.74698099557708
                    92       1.15035511746407        1.9675372340658       1.72336304970296
                    93       1.15712270500407       1.98311545394301       1.69975556288258
                    94        1.1643574205352       1.99791790602318       1.67642552629379
                    95       1.17173083069749       2.01200143953343       1.65361572568485
                    96       1.17899170798155       2.02541754665663       1.63157273980911
                    97       1.18601094953206       2.03838574137156        1.6104639401033
                    98       1.19274287412804       2.05117164524501       1.59043010367326
                    99       1.19918463762567       2.06402453439963       1.57160609983222
                   100       1.20535663591152       2.07721253254263       1.55410749864863
                   101       1.21127519332589       2.09103534534349       1.53798500428317
                   102       1.21694784111868       2.10597258053703       1.52321797339375
                   103       1.22236376476536       2.12206286918332       1.50976659089448
                   104       1.22753523640782       2.13947285211622        1.4975191276244
                   105       1.23245289340403       2.15834923826363       1.48640973852111
                   106       1.23711478418611       2.17889775444006        1.4764317965506
                   107       1.24151636616683       2.20134708225969       1.46746138891599
                   108       1.24565874771982       2.22580689379645       1.45934335050932
                   109       1.24953960562229       2.25253110625788       1.45197137315003
                   110       1.25315970610983       2.28167603958267       1.44523929128091
                   111       1.25651928528595       2.31336477332982       1.43906157000806
                   112       1.25961241248099       2.34754280054171       1.43335815877491
                   113        1.2624275362342       2.38436259722008        1.4280583579901
                   114       1.26496375046193       2.42410205196662       1.42308927524858
                   115        1.2672281893111       2.46730514070036       1.41838281259099
                   116       1.26922800958495       2.51449110576965       1.41388857127293
                   117       1.27098824040984       2.56609411492385       1.40955503574215
                   118       1.27253252868092       2.62231923255889       1.40534684893991
                   119       1.27387074929313       2.68306283783624       1.40125087370212
                   120       1.27503158329271       2.74827950686098        1.3972599657406
                   121       1.27603998798892       2.81812802165174       1.39338215613042
                   122       1.27688112292047       2.89282075818388       1.38965129099033
                   123       1.27755575511388        2.9722993290549       1.38609730628252
                   124       1.27807181851643       3.05654824371849       1.38276468144954
                   125       1.27843153590793       3.14453699778088       1.37972898290672
                   126       1.27864128427489       3.23525527605884       1.37706990594604
                   127       1.27871141602078       3.32635681549552       1.37489510783678
                   128       1.27865890555801       3.41786726183809       1.37325349078892
                   129       1.27849120875379       3.50871784240489       1.37223993629401
                   130       1.27821589949141       3.59919241390066       1.37193231088838
                   131       1.27784249375001       3.68852866501366       1.37239827628812
                   132       1.27737981925482       3.77684346462676       1.37366665533117
                   133       1.27667993195216       3.86349858667225       1.37562943549475
                   134       1.27597569145314       3.94654651279816       1.37805223975405
                   135       1.27525806547776       4.02560758132908       1.38086361916713
                   136       1.27452121644389       4.10103311386361       1.38400094735101
                   137       1.27376344663312       4.17351675623224       1.38740755565479
                   138       1.27298498387176       4.24371831458401        1.3910320100803
                   139       1.27218445504584       4.31217661139883       1.39481929942095
                   140       1.27136437976906       4.37895239398374       1.39872504104638
                   141       1.27052716120259        4.4439918792014       1.40271504929651
                   142       1.26967475871613       4.50718408683062       1.40676505371121
                   143       1.26880887144119       4.56837673627658        1.4108580590787
                   144       1.26793084546902       4.62735778473582       1.41497132148098
                   145       1.26704174277783       4.68389098322305       1.41905688730474
                   146        1.2661424246194       4.73764259495909       1.42303008092088
                   147       1.26523369290152       4.78836519594268       1.42677910171002
                   148       1.26431562132057       4.83590627833428        1.4301838353824
                   149       1.26338889266425       4.88016717377591       1.43314240552629
                   150       1.26245427049599       4.92107486745923       1.43559099835314
                   151       1.26151273183756       4.95861228441555       1.43752021320005
                   152       1.26056547924719       4.99277514901476       1.43898607563584
                   153       1.25961408349257       5.02351701262643       1.44009273266041
                   154        1.2586605386291       5.05082077810524       1.44095536917069
                   155       1.25770537049025       5.07470560033956       1.44167789204408
                   156       1.25675055174274       5.09521516089856       1.44234695069606
                   157        1.2557988513871        5.1124034144539       1.44302092900991
                   158       1.25485329874407       5.12634253387995       1.44375277956781
                   159       1.25391651387686       5.13710894008353       1.44459365335213
                   160       1.25300592775615       5.14474197569097       1.44558714579059
                   161       1.25212677146377       5.14929903984924       1.44676925372408
                   162        1.2512724455488       5.15085928685915       1.44817029854562
                   163       1.25044843266946       5.14952012289841       1.44981211679579
                   164       1.24965551532504       5.14541418174675       1.45170731814353
                   165       1.24889209900283       5.13869364890267       1.45385715597991
                   166       1.24815679782832       5.12955234623676       1.45625696816988
                   167       1.24744922643745       5.11811855274937       1.45890102908464
                   168       1.24677266066565       5.10448260625386       1.46178623310932
                   169       1.24613019259258       5.08872308051372       1.46491413048226
                   170       1.24552419942569       5.07092348963187       1.46829169045817
                   171       1.24495439965417       5.05117526590545       1.47193081097916
                   172       1.24441968012883       5.02956871839225       1.47584673644004
                   173       1.24391876214441       5.00620830583453       1.48005623360608
                   174       1.24344981303751       4.98120935070634       1.48457668278409
                   175        1.2430112734709       4.95473581738948        1.4894247912016
                   176       1.24260183764354       4.92694148793877        1.4946162783887
                   177        1.2422202841321       4.89796945317885       1.50016547218602
                   178       1.24186542447755       4.86796066739858       1.50608492752131
                   179       1.24153619274348       4.83704310696883       1.51238552674125
                   180       1.24123174613238       4.80533487640667         1.519078419706
                   181        1.2409515297849       4.77294366213178       1.52618850807137
                   182       1.24069453476299       4.74006761855333       1.53371616928017
                   183       1.24045991183028       4.70687345614639       1.54166352034034
                   184       1.24024679988651       4.67349698484946       1.55003467140451
                   185       1.24005424997398       4.64006665725523       1.55882912735146
                   186       1.23988129662629       4.60671384145126       1.56804151094744
                   187        1.2397270347133       4.57355795391212       1.57766668801747
                   188       1.23959055244519       4.54068254152496       1.58769706348576
                   189       1.23947086215769       4.50813913705212       1.59812571134699
                   190       1.23936691326682       4.47595483493561       1.60894422257888
                   191       1.23927763692493       4.44411548509599       1.62014376523711
                   192       1.23920201011956       4.41263907012809       1.63171502243668
                   193       1.23913908368302        4.3815508727468       1.64364721114958
                   194       1.23908797495779         4.350884615703       1.65592945362908
                   195       1.23904782935533       4.32068650151915       1.66855141083549
                   196       1.23901781678959       4.29099422184204       1.68150234181071
                   197       1.23899712563418       4.26182023635878       1.69477031672262
                   198       1.23898495650617       4.23315194246002       1.70834413805415
                   199       1.23898053678076       4.20496374760383       1.72221215253013
                   200       1.23898312599693       4.17720506868215       1.73636231041517
                   201       1.23899203302626       4.14982467978813       1.75078176477752
                   202       1.23900661444435       4.12278574908359       1.76545821716611
                   203       1.23902627853576        4.0960604307193       1.78037823107958
                   204       1.23905048389524       4.06963065518746       1.79552814519342
                   205       1.23907873863311       4.04348376090131       1.81089501077132
                   206       1.23911059546546       4.01761262697419       1.82646477900614
                   207        1.2391456466032       3.99201579690219       1.84222321186153
                   208       1.23918352332403       3.96669425466165        1.8581580951715
                   209       1.23922389496333       3.94165098693753       1.87425573032192
                   210       1.23926646709742       3.91687901794912       1.89050158533296
                   211       1.23931098235876       3.89237346376232       1.90688352421219
                   212       1.23935721070649       3.86812653212778        1.9233885450902
                   213       1.23940601740615        3.8439983719002       1.94001611623913
                   214       1.23945702719719       3.82006274334986       1.95676116122455
                   215       1.23950982544628       3.79635547174796       1.97361186984985
                   216       1.23956409913243       3.77288686062374       1.99055334649877
                   217       1.23961965177074       3.74967583559838       2.00757130662767
                   218       1.23967633108448       3.72676252375673       2.02465296071026
                   219       1.23973398185324       3.70419561313225       2.04178385667209
                   220       1.23979245524896       3.68201674349108       2.05894889364937
                   221       1.23985164127871       3.66026450306614       2.07613259301949
                   222       1.23991146825986       3.63897991739597       2.09332043736915
                   223        1.2399718792662       3.61820454892949       2.11049831824518
                   224       1.24003281682384       3.59797811147392       2.12765325562155
                   225       1.24009422043747       3.57833633799501       2.14477278162779
                   226       1.24015603599485       3.55931320415817       2.16184455343968
                   227       1.24021822020884         3.540931467335       2.17885879574283
                   228        1.2402807380614       3.52321632292689       2.19580671297512
                   229       1.24034355874482        3.5061820033336        2.2126793226836
                   230       1.24040665064409       3.48982247897705       2.22946814757419
                   231       1.24046998102758       3.47420397094838       2.24616456485343
                   232       1.24053351998404       3.45927196671907       2.26276021415622
                   233       1.24059724059495       3.44500675166232       2.27924740648873
                   234       1.24066112031557       3.43141281093236       2.29561957193606
                   235       1.24072514125156       3.41845508143862       2.31187124253221
                   236       1.24078928830513       3.40609637262328       2.32799820876011
                   237       1.24085354995743       3.39430789679466       2.34399639680008
                   238       1.24091791647536       3.38306110514432       2.35986259506566
                   239       1.24098237475487       3.37231931004517        2.3755923917755
                   240       1.24104691224819       3.36203942615616       2.39118259647149
                   241       1.24111150348815       3.35218153550204       2.40662752572022
                   242       1.24117612195117       3.34270588605645         2.421922556256
                   243       1.24124074111553       3.33357129096297       2.43706368365863
                   244       1.24130533706989       3.32473666051184       2.45204806254629
                   245       1.24136988452933       3.31616113573422       2.46687373358485
                   246       1.24143435801526       3.30780623848542       2.48153995647384
                   247       1.24149873548162       3.29963564879629       2.49604650503034
                   248       1.24156299419554        3.2916158289959       2.51039253109407
                   249       1.24162711755756       3.28371678912356       2.52457718194184
                   250       1.24169109320421       3.27591119862253       2.53860036822413
                   251       1.24175490401178       3.26817564052557        2.5524614824936
                   252       1.24181853431026       3.26048915019768       2.56616179766743
                   253       1.24188196698803       3.25283347288785       2.57970375564799
                   254       1.24194518358996       3.24519280628848       2.59309044366877
                   255       1.24200816998893       3.23755473134717       2.60632650618809
                   256       1.24207091028946       3.22990796563034       2.61941699933086
                   257       1.24213338857183       3.22224342077857       2.63236760459134
                   258       1.24219559220715       3.21455376532793       2.64518441724857
                   259        1.2422575120745       3.20683219270783        2.6578729671977
                   260       1.24231913479308       3.19907194081447       2.67043619784522
                   261       1.24238045013839       3.19126746050949       2.68287585329398
                   262       1.24244144621394       3.18341519461965        2.6951920086902
                   263       1.24250211252024       3.17551353900614        2.7073837851765
                   264       1.24256244446714       3.16755986058319       2.71945086712353
                   265       1.24262243448785       3.15955359163444       2.73139224915367
                   266       1.24268207838847        3.1514963687015       2.74320767237777
                   267       1.24274137751439       3.14339068050389       2.75489745379765
                   268       1.24280033157911       3.13524071407465       2.76646141722694
                   269       1.24285894907519       3.12705131474141       2.77790111124717
                   270       1.24291724253931       3.11882833390774         2.789218919694
                   271       1.24297521943949       3.11057860886585       2.80041644799695
                   272       1.24303289631889       3.10231005632607       2.81149714483865
                   273       1.24309026944575       3.09403211183451       2.82246002171474
                   274       1.24314732251701       3.08575442310916       2.83330106981353
                   275       1.24320404936652       3.07748733567267       2.84401860860565
                   276       1.24326042025429        3.0692390948152        2.8546055333495
                   277       1.24331641480165       3.06101741542546       2.86505492797474
                   278       1.24337203787177       3.05282941426096       2.87536376846575
                   279       1.24342729447762       3.04468174358655       2.88552916287994
                   280       1.24348219047703       3.03657925508672        2.8955483541422
                   281       1.24353673184375       3.02852531196307       2.90541871848278
                   282       1.24359092709003       3.02052236271598       2.91513782417392
                   283       1.24364478633278       3.01257290890807       2.92470321550321
                   284       1.24369831931797       3.00467962358652       2.93411191717421
                   285       1.24375153756196       2.99684505771788       2.94336082983521
                   286       1.24380445201132       2.98907139930667        2.9524463949211
                   287       1.24385707405095       2.98136026262381       2.96136480243253
                   288       1.24390941455375       2.97371296970618       2.97011193219751
                   289       1.24396149287118       2.96613014784878       2.97868437845222
                   290       1.24401332633484       2.95861036330947       2.98707797698612
                   291       1.24406497360645       2.95114549622047       2.99529116956476
                   292       1.24411638482346       2.94375616425342       3.00329661581423
                   293       1.24416747740094       2.93644379523404       3.01110337570872
                   294       1.24421830187181       2.92919519688872       3.01871209152872
                   295       1.24426888574952       2.92200594382742        3.0261213570866
                   296       1.24431923379897       2.91487252653415       3.03332548482772
                   297       1.24436933820005       2.90778933022166       3.04031733135832
                   298        1.2444191917516       2.90074910652672       3.04709103330878
                   299       1.24446879156443       2.89374328176846       3.05364236252428
                   300       1.24451814222225       2.88676245376009       3.05996723756794
                   301       1.24456724309694       2.87979744675584       3.06606357088349
                   302       1.24461609047822       2.87283873940985       3.07192990810939
                   303       1.24466468220615        2.8658762671904       3.07756544381863
                   304        1.2447130218275       2.85889946202178       3.08297067812357
                   305        1.2447611166244       2.85189752772692       3.08814702721939
                   306       1.24480896936984       2.84485994222236       3.09309562286349
                   307       1.24485658358734       2.83777619019437       3.09781768254191
                   308       1.24490396416487       2.83063590322455       3.10231469865936
                   309       1.24495111516193       2.82342847932092       3.10658841228168
                   310       1.24499804004888       2.81614430130534        3.1106409225462
                   311       1.24504474068688       2.80877359597396       3.11447464504633
                   312       1.24509121957234       2.80130739156446       3.11809247964814
                   313        1.2451374650093       2.79373809578447       3.12149719925439
                   314        1.2451834909487       2.78605154851114       3.12469292924676
                   315       1.24522928948092       2.77824325149549       3.12768327030415
                   316       1.24527484905712       2.77031098017809       3.13047197228962
                   317       1.24532015997968       2.76225329007787       3.13306306136746
                   318       1.24536521294277       2.75406922393956       3.13546080326431
                   319       1.24540999401226        2.7457582334814        3.1376695867203
                   320       1.24545448737361       2.73731990069039       3.13969404632039
                   321       1.24549868913732       2.72875390453559       3.14153927174096
                   322       1.24553691579331       2.72002947940458       3.14313985976596
                   323       1.24557554314933       2.71119891218192       3.14457079776218
                   324       1.24561451875971       2.70224550288757        3.1458369541101