# Probe 0 (-0.46 1.3 0)
# Probe 1 (2.95 0.43 0)
# Probe 2 (5.27 0.29 0)
#                Probe                      0                      1                      2
#                 Time
                     1        65.486827007172       23.0630688619806       34.3114857636543
                     2       30.6614681524103       16.5463583052809        17.374175481501
                     3      -11.7720556735709      -3.48750713569529      -5.64961026213014
                     4       -19.492984030145      -8.82339825851008      -10.7050874731349
                     5      -3.90932475844743       -2.2157715290389      -2.26014928526955
                     6        8.0832662019942       3.68824087795875       4.72926987214923
                     7       6.14848975258444       2.61569451098007       3.65455862876086
                     8      -1.03943925488009     -0.799758323082283     -0.271704511584085
                     9       -3.7465326741638      -1.64300056479353      -1.68154109396925
                    10      -1.37164835546332    -0.0018016610942666     -0.429244533284486
                    11       1.22184241661764       1.29211013204795       0.88076702663447
                    12       1.33039911153804       1.01972242887814      0.846914338558708
                    13     0.0259761317771656      0.120107252181036      0.161660300705658
                    14     -0.714708009364954     -0.254223522602001     -0.150524161001467
                    15     -0.426090219372514    -0.0147377126255809     0.0376461113383162
                    16      0.107548082889997      0.285712031861399      0.283120381984761
                    17      0.243253292289862      0.323106163359007      0.307324331880864
                    18     0.0422636702304688      0.204231511478916      0.194722353255948
                    19     -0.148673273327965      0.118825741405342      0.119122978249642
                    20     -0.158588428625937      0.122351326380384      0.132693964036148
                    21    -0.0691028122667758      0.153906312728373      0.174567278846987
                    22    -0.0136089060145454      0.160686755730525      0.187810172744406
                    23    -0.0281451323050762      0.142447634278688      0.169679745252717
                    24    -0.0648651822724571      0.126444663328926      0.149728220709788
                    25    -0.0790380328546375      0.123726667131025      0.145008517747266
                    26    -0.0687605655853478      0.124245869885282       0.14917246492196
                    27    -0.0558783947177998      0.117242100876265      0.150272181946905
                    28    -0.0544414146935301      0.105659957169385      0.145582913592687
                    29    -0.0606057522536933     0.0986178345593288      0.140074145127235
                    30    -0.0654694921937157     0.0997109357974268      0.137441455973789
                    31    -0.0659825184005571      0.104188092405858       0.13694042886198
                    32    -0.0644063083918618      0.105280471015722      0.136125242331837
                    33    -0.0632632131470025     0.0997785276369461      0.134075405094224
                    34    -0.0631908299305905     0.0901575742572201      0.131677542557633
                    35    -0.0636392978050211     0.0792964105822099      0.129454266170843
                    36    -0.0638829690833989     0.0675071917769078      0.127151994028028
                    37    -0.0641438159281384     0.0561644585247884      0.125461156407268
                    38    -0.0648629479140466     0.0456349279227781      0.124425077137453
                    39      -0.06572164857603     0.0348382028406409      0.123822239640288
                    40    -0.0663321639645507     0.0220257594629622      0.123157587809819
                    41    -0.0669110189938425    0.00836090446919113      0.122541853279939
                    42    -0.0676926047547735   -0.00369745019335583      0.121962697473934
                    43    -0.0686860890766009    -0.0101204645475677      0.121520196631678
                    44    -0.0697193553824297    -0.0101721042247994      0.121104011436963
                    45    -0.0707774409011547   -0.00638588792969032      0.120597132599392
                    46    -0.0718150211453306   -0.00212279734798074      0.119819145284026
                    47    -0.0726289588857611    0.00228107637039544      0.118933960549361
                    48    -0.0730394531186507    0.00875252603911307       0.11809048527507
                    49    -0.0729917685856774     0.0178125618775669      0.117282540574037
                    50    -0.0727002984315784     0.0280313049800379       0.11651215621584
                    51    -0.0723851196999778     0.0371230795716778      0.115780812975028
                    52    -0.0720901194645542     0.0442978152245904      0.115057929722463
                    53    -0.0717682808234817     0.0508109285255113      0.114262461607048
                    54    -0.0713742499691072     0.0587706943296968      0.113376555145681
                    55    -0.0709090885343133     0.0672828456076373      0.112131540105716
                    56    -0.0703763684660677     0.0759792153929811      0.110713504904219
                    57    -0.0698693143787686     0.0841453065144786      0.109387287149197
                    58    -0.0694032962052031      0.090923372381274      0.108135120097619
                    59     -0.069016705272261     0.0960710060648985      0.106721907795917
                    60    -0.0687032261833321        0.1003002194159       0.10504812815611
                    61    -0.0684432396264891      0.104016192327108      0.103186238645644
                    62     -0.068282705350925      0.106688842307768      0.101199620212875
                    63    -0.0682481138126151      0.108323239598878     0.0990259010935992
                    64    -0.0683000860273439      0.109697758596483     0.0966340183678383
                    65    -0.0684166283399068      0.110550436251587     0.0941830167503849
                    66    -0.0685804041894552      0.110289024937205     0.0917104112148812
                    67     -0.068757013204891      0.108851558466736     0.0891938419923472
                    68    -0.0689976717384498      0.106215188985907     0.0866346318015967
                    69    -0.0693422922823663      0.102782694211582     0.0841311097951867
                    70    -0.0697040620471393     0.0992051184616391      0.081634306066579
                    71    -0.0700494327228111     0.0957578557824466     0.0791522916985753
                    72    -0.0703774916403568     0.0919479778659536      0.076684013634865
                    73    -0.0706825554453795     0.0875060705809496     0.0742133141318583
                    74    -0.0709895350596145     0.0824381786032851     0.0718347400758147
                    75    -0.0713282129279487     0.0770861008190082     0.0695998518374344
                    76    -0.0716786097095719     0.0718746125581676     0.0675202478639707
                    77    -0.0720019047790627     0.0672343286465519     0.0655995551709427
                    78    -0.0722944097144126     0.0634408142894445     0.0637862038994337
                    79    -0.0725484406595018      0.060602466576957     0.0620358181300192
                    80    -0.0727926276449292     0.0585319519164681     0.0604358548424414
                    81    -0.0730338575194868      0.056992602407118     0.0590583898308347
                    82    -0.0732604646047706     0.0559576105423349     0.0579330176121032
                    83    -0.0734540972672275     0.0554599061004869     0.0569774714507613
                    84    -0.0736170563713537     0.0554655366049623     0.0561336472314543
                    85    -0.0737230729626687     0.0559048011622761     0.0553844839818932
                    86    -0.0737919243106074     0.0565702422636945     0.0547065329849412
                    87    -0.0738329083681521     0.0573001428528044     0.0541422049967422
                    88    -0.0738496002152287     0.0580776330588881      0.053746675425419
                    89    -0.0738257200781909     0.0589680658841751     0.0535206943998451
                    90    -0.0737502136341716     0.0599896411435882     0.0533972643500624
                    91    -0.0736191610546876     0.0611132168248297     0.0533390602480694
                    92    -0.0734180093196961     0.0623124165434593     0.0533657820395585
                    93    -0.0731460067353987     0.0635369464018252     0.0535323518501611
                    94    -0.0728188353578016     0.0647113822494195     0.0538753662115152
                    95    -0.0724583978030092     0.0658325543686788     0.0543601489545059
                    96    -0.0720535271357475     0.0669528508000863     0.0549595135829959
                    97    -0.0716291592893892     0.0680741365114115      0.055625287992646
                    98    -0.0711854495906505     0.0692397274023843     0.0563357926901261
                    99    -0.0707382618882977     0.0704419120938281     0.0571181240050525
                   100    -0.0703104341939833     0.0716208239145898     0.0579660501869748
                   101    -0.0699168136541237     0.0727218506179566     0.0588687328762877
                   102    -0.0695219724219027     0.0737700680779778     0.0598499577681577
                   103    -0.0691160980683248     0.0747750586070653     0.0609139775763542
                   104    -0.0687153143597698      0.075723997821729     0.0620359582188155
                   105    -0.0682987602497999     0.0766614669223914     0.0631784445964426
                   106    -0.0678604128704374     0.0775915032447679     0.0643158428555741
                   107    -0.0674044299612826     0.0784976078686937     0.0654767923554241
                   108    -0.0669246882323038     0.0793568090065671     0.0667009504411878
                   109    -0.0664368419429719     0.0801494943196775     0.0679602764518239
                   110    -0.0659447956249342     0.0808819539599226     0.0692236420888869
                   111    -0.0654239122128981      0.081594402649157     0.0704763888178929
                   112    -0.0648999611367229     0.0822656485560501     0.0716792413498223
                   113    -0.0643828847652981     0.0828884970891935     0.0728502678260171
                   114    -0.0638777838655411     0.0834595675352229     0.0740109135133256
                   115    -0.0633954469344695     0.0839711084464878     0.0751409417169178
                   116     -0.062928530881308     0.0844273613857335     0.0762268075552575
                   117    -0.0624764876205508     0.0848254009446043     0.0772606517922846
                   118    -0.0620259205458869     0.0851834195012037     0.0782505015617198
                   119    -0.0615831166946244     0.0854977666683788     0.0791786662319972
                   120    -0.0611336770168214      0.085781724639189     0.0800661399431134
                   121    -0.0606607662904357     0.0860455142067955      0.080930150431905
                   122    -0.0601912856303496     0.0862570160631178     0.0817474206082378
                   123    -0.0597362860812228     0.0864037727559244     0.0825058222877919
                   124    -0.0592832483396932     0.0865137169033549     0.0832223528354717
                   125    -0.0588241860564086     0.0865872777486203     0.0838897106832901
                   126    -0.0583678327380909      0.086599406805145     0.0844963477857346
                   127    -0.0579004277955612     0.0865578078476776     0.0850746368019569
                   128    -0.0574431418863123     0.0864419516575006     0.0856139849334657
                   129    -0.0569933259992895     0.0862536295874015     0.0861180122274711
                   130    -0.0565652183442497     0.0859770889859175     0.0865705510519713
                   131    -0.0561543223819983     0.0856168547142456     0.0869786220679019
                   132    -0.0557585063128053     0.0851804500434477     0.0873562324147006
                   133    -0.0553721620081954     0.0846715534972867     0.0877114603494963
                   134    -0.0550037312150764     0.0840715184119088     0.0880470558423748
                   135     -0.054650511623905     0.0833769562774272     0.0883775756371667
                   136    -0.0543229513388351     0.0825795903253454     0.0886971318796831
                   137    -0.0540082857080542     0.0816955387979974     0.0890314460084964
                   138    -0.0537115243931962     0.0807200929905803     0.0893778975215666
                   139    -0.0534307584712441     0.0796482581354101      0.089718227405646
                   140    -0.0531670502719383     0.0784746198986221     0.0900648109119968
                   141     -0.052914184268047     0.0771996290504064     0.0904504226913582
                   142    -0.0526692168815393     0.0758236583306726     0.0908810362488283
                   143    -0.0524324560124423     0.0743471912927919     0.0913450218860561
                   144    -0.0522074082033881     0.0727658945010199     0.0918204240994157
                   145    -0.0519893435553964     0.0710804344915818     0.0923075877154353
                   146    -0.0517742237478033     0.0692912667465619     0.0928342438398285
                   147    -0.0515647454900616     0.0673915396148402     0.0934193714806462
                   148    -0.0513631683097477     0.0653759972021313      0.094061780615687
                   149    -0.0511711514952175     0.0632493086170511      0.094750801156906
                   150    -0.0509846343150752     0.0610134385401194     0.0954778535450569
                   151    -0.0507994765693692     0.0586689583650133     0.0962506046328924
                   152    -0.0506161176298199     0.0562144396593004     0.0970694807284838
                   153    -0.0504370367687131     0.0536476810568446     0.0979236692172348
                   154    -0.0502609262010984     0.0509708394514947     0.0987973603836654
                   155    -0.0500839270163359     0.0481933125719599     0.0996794142811555
                   156    -0.0499059950197673     0.0453203190902497      0.100562395394777
                   157     -0.049726596443957      0.042359111971657      0.101444475056182
                   158    -0.0495501381498649     0.0393065851440958      0.102317276973647
                   159    -0.0493737146528358     0.0361685475809502      0.103180990272476
                   160    -0.0491965220352662     0.0329533826526613      0.104037113941054
                   161    -0.0490205613379165     0.0296681759097503        0.1048852061317
                   162    -0.0488458683926741     0.0263249274967701      0.105725997008739
                   163    -0.0486726454649293     0.0229296105406574      0.106559826767843
                   164    -0.0485004020727638     0.0194906297722014      0.107393137995411
                   165    -0.0483297647670408     0.0160083306951981      0.108227845808832
                   166    -0.0481628854942821     0.0125065140114984      0.109061099133719
                   167    -0.0479992837177402    0.00899018496925643      0.109889592586407
                   168    -0.0478384825409475    0.00545737690728051      0.110715032197842
                   169     -0.047681551084145    0.00190830884475836      0.111534627311091
                   170    -0.0475277094218039   -0.00164515725047171      0.112345284198184
                   171    -0.0473760188658626   -0.00518708079996844      0.113148489912926
                   172    -0.0472276029943827    -0.0087123508988384      0.113942440852863
                   173    -0.0470843194103779    -0.0122125769520695       0.11472531381336
                   174    -0.0469460859117635    -0.0156746085491702      0.115500223854925
                   175    -0.0468116029456464    -0.0190888240549998      0.116267958043311
                   176    -0.0466815190470737    -0.0224515760250341       0.11702458819052
                   177    -0.0465577213842071     -0.025758662285015      0.117770620818477
                   178    -0.0464395443977489    -0.0289980545424396      0.118507274016087
                   179    -0.0463248069239308    -0.0321654453643476      0.119234585245281
                   180    -0.0462128318787522    -0.0352607978556605      0.119953990352271
                   181    -0.0463968307247802     -0.038644312335628      0.120777580021249
                   182     -0.046450888066397    -0.0417396972383107      0.121539776659922
                   183    -0.0462945385800661    -0.0444342047160551      0.122205480189919
                   184    -0.0460988877649286     -0.046955330639232       0.12284902145966
                   185    -0.0459919130755439    -0.0494899815954299      0.123526352491039
                   186    -0.0459537518440664    -0.0520337359520844      0.124225712463958
                   187     -0.045908341527354    -0.0544894903716886      0.124912211870101
                   188     -0.045828002559451    -0.0568101057234782       0.12557182667235
                   189    -0.0457351378856782    -0.0590155900625142      0.126219139016678
                   190    -0.0456537333394914    -0.0611383724194692      0.126871777901913
                   191    -0.0455864134407741    -0.0631914205051603      0.127529093879178
                   192    -0.0455226098627014     -0.065163800835901      0.128181664245281
                   193    -0.0454539998867882    -0.0670468560511793        0.1288253351872
                   194    -0.0453808443710649    -0.0688422460716197      0.129464466841666
                   195    -0.0453076851288662     -0.070555608175327       0.13010349315378
                   196    -0.0452376597959351    -0.0721911176294029      0.130740768668842
                   197    -0.0451678194872745     -0.073746000338006      0.131376011895467
                   198    -0.0450962384709849    -0.0752236236870422        0.1320089194879
                   199    -0.0450237837024244    -0.0766362548765877      0.132636913153219
                   200    -0.0449498576917634    -0.0779914817387659       0.13326181743496
                   201     -0.044873802835085    -0.0792975853139641      0.133884309439012
                   202    -0.0447964598580297    -0.0805517118915567      0.134503974788276
                   203    -0.0447185313418208    -0.0817512210770547      0.135120316833199
                   204    -0.0446398368574806    -0.0828947654729396      0.135733092885642
                   205    -0.0445596584158058    -0.0839871497575585      0.136342039229303
                   206    -0.0444785511747304    -0.0850325902635826      0.136947132415835
                   207    -0.0443963369465654    -0.0860344569101975      0.137548957694454
                   208    -0.0443131216313147    -0.0869926753978262      0.138146631852484
                   209     -0.044228657715322     -0.087907518987104      0.138738971858945
                   210    -0.0441420279274052     -0.088781154830535      0.139326680878263
                   211    -0.0440543550285736    -0.0896140917304903      0.139909631267117
                   212    -0.0439669225587604     -0.090407008475487      0.140488960375285
                   213    -0.0436507300540565    -0.0905216375894848      0.140759852068041
                   214    -0.0434607251976144    -0.0909446793440349      0.141222480938691
                   215    -0.0434362780586103    -0.0918090421992314      0.141917869885966
                   216    -0.0434213972922294    -0.0926927343276543       0.14261464733973
                   217    -0.0433273094994426    -0.0933136056821361      0.143187233441555
                   218    -0.0431911601341169     -0.093741229976847      0.143696838002532
                   219    -0.0430747626625132    -0.0941552487102111      0.144232601083732
                   220    -0.0429879564482404    -0.0946066998236593      0.144807257420419
                   221    -0.0429023705521231    -0.0950301947249125      0.145382920779796
                   222    -0.0428027012748813    -0.0953635078887856      0.145930936450918
                   223    -0.0426953048276038    -0.0956048864962623      0.146457299062125
                   224    -0.0425894801869241    -0.0957806165672324      0.146981303099571
                   225    -0.0424879271614761    -0.0959080310245428      0.147508194153906
                   226    -0.0423851255498403    -0.0959792643612722      0.148032341783029
                   227     -0.042278133560495    -0.0959815636254144      0.148548150848559
                   228    -0.0421692351930484    -0.0959117464087576      0.149053766242721
                   229    -0.0420582638801995    -0.0957727339915434      0.149553441774308
                   230    -0.0419459248098355    -0.0955687863563107      0.150048914711709
                   231    -0.0418325044302691    -0.0952990290852148      0.150538739160009
                   232    -0.0417162412774105      -0.09496008217355      0.151022370400928
                   233    -0.0415987894661138    -0.0945521293501129      0.151497677086745
                   234     -0.041479280267165     -0.094077432797304      0.151966146515922
                   235    -0.0413571745857901    -0.0935375762225185       0.15242845005273
                   236    -0.0412336354714324    -0.0929336457741208      0.152883142298998
                   237    -0.0411069724489675    -0.0922667316223575      0.153330454107307
                   238    -0.0409775634662689    -0.0915365069151301      0.153770258489973
                   239    -0.0408462298606244    -0.0907499810878331       0.15420220868454
                   240     -0.040712209390839    -0.0899087939824213      0.154626416028655
                   241    -0.0405765165186343    -0.0890144715212098      0.155042644832152
                   242    -0.0404389992400451    -0.0880686047045563      0.155449833032696
                   243    -0.0402981510421282    -0.0870745707812236      0.155847447299909
                   244    -0.0401537443945304    -0.0860383558639811      0.156235292577984
                   245    -0.0400064714066312    -0.0849621898544765      0.156613703387849
                   246    -0.0398574087662378    -0.0838470104800007      0.156982409906869
                   247    -0.0397062733340615     -0.082696294447374      0.157340909771055
                   248    -0.0395526749117897    -0.0815133981524735      0.157688895715249
                   249    -0.0393961426048763    -0.0803056406060568      0.158025601095174
                   250    -0.0392367857650344    -0.0790752237066503      0.158352386887764
                   251    -0.0390758940969881    -0.0778225566825869      0.158668198397653
                   252     -0.038914321401379    -0.0765483571969694      0.158970951274669
                   253    -0.0387507596574247    -0.0752552933256233      0.159260987871908
                   254    -0.0385856011365497    -0.0739466939224629      0.159535970701278
                   255    -0.0384188415797466     -0.072625136000726      0.159794997731692
                   256    -0.0382496504543075    -0.0712903870607399      0.160039223070457
                   257    -0.0380792935568889    -0.0699443180075218      0.160267234855586
                   258    -0.0379076220957767    -0.0685893415707862      0.160477874134018
                   259    -0.0377328218847555    -0.0672267735706667      0.160671009920757
                   260    -0.0375575441358714    -0.0658614681758338      0.160845328454161
                   261    -0.0373806541240182    -0.0644910618946038      0.161002836904901
                   262    -0.0372023799343492    -0.0631146383046335      0.161142053323127
                   263    -0.0370235343079533    -0.0617356785730989      0.161260433526208
                   264    -0.0368428363300186    -0.0603546231684075      0.161359553654089
                   265    -0.0366613637215475    -0.0589719902087749      0.161439233775963
                   266    -0.0364801852567095    -0.0575889211780313       0.16149782286915
                   267    -0.0362974851542826    -0.0562046166528902      0.161536131094005
                   268    -0.0361139259192003    -0.0548199619124158      0.161552602684562
                   269     -0.035930009888505    -0.0534362614568991       0.16154669979172
                   270    -0.0357456379017233    -0.0520530039869412       0.16151850855233
                   271    -0.0355627096424386    -0.0506721941735992      0.161465515504675
                   272    -0.0353800622609666     -0.049293255601365      0.161388736811159
                   273    -0.0351989619476666    -0.0479176262063285      0.161286544914846
                   274    -0.0350214430394416    -0.0465471905814757      0.161156040996539
                   275    -0.0348476864452542    -0.0451822623901285      0.160996472830894
                   276    -0.0346797644203102    -0.0438250194460856      0.160805228940509
                   277    -0.0345187316458387    -0.0424780941066663      0.160581300573885
                   278    -0.0343652658911002    -0.0411425945762789      0.160324322182538
                   279    -0.0342220863930567    -0.0398199962931942      0.160031770591894
                   280    -0.0340883690784648    -0.0385097150067222      0.159704287054687
                   281    -0.0339643684130472    -0.0372129543426162      0.159341367918117
                   282    -0.0338495206176669    -0.0359303743138816      0.158942664414236
                   283      -0.03374492808725    -0.0346640766803989      0.158506706285117
                   284    -0.0336501230912275    -0.0334142536883193      0.158034475289876
                   285    -0.0335651038032266    -0.0321811959849423      0.157526430532801
                   286    -0.0334888665599417    -0.0309641312259239      0.156984046756942
                   287    -0.0334212703293193     -0.029762896496722      0.156407509093601
                   288    -0.0333621860860114    -0.0285782349763432      0.155797372492666
                   289    -0.0333114281894618      -0.02740963103777      0.155152077843089
                   290    -0.0332676063954669    -0.0262539700773304        0.1544709890299
                   291    -0.0332278819775721    -0.0250923258464707      0.153738255000138
                   292    -0.0333290648595566    -0.0241117948507664      0.152961976254746
                   293    -0.0332670660876725    -0.0230399800680074      0.152280561222719
                   294    -0.0331648444186658    -0.0219053678796871      0.151553569633467
                   295    -0.0331323007703964    -0.0208127467238945      0.150727118095267
                   296    -0.0331634685378823      -0.01979483526487      0.149843808955847
                   297    -0.0331999413220714    -0.0188162074228497      0.148956635802969
                   298     -0.033213133169417    -0.0178423321516407      0.148074677105644
                   299    -0.0332170438598486    -0.0168743898004566      0.147175143034022
                   300    -0.0332329809577307    -0.0159303599994734      0.146240764595521
                   301     -0.033264747482218    -0.0150189428262733      0.145274843657716
                   302     -0.033303368880787    -0.0141362906360183      0.144289479068951
                   303    -0.0333419024812986    -0.0132765677576207      0.143291205521545
                   304    -0.0333806111952136    -0.0124389235983666      0.142278590880089
                   305    -0.0334229234850619    -0.0116260314759653       0.14124866408706
                   306      -0.03347034313319    -0.0108401657139124      0.140201555732081
                   307    -0.0335213500341469    -0.0100808651103756      0.139140311624452
                   308      -0.03357400480989   -0.00934663600483015      0.138067853321144
                   309    -0.0336278922476347   -0.00863732937012749      0.136985291066865
                   310    -0.0336834198892346     -0.007952982242977      0.135893058466634
                   311    -0.0337408591965491   -0.00729405781889647      0.134792003502454
                   312    -0.0338000752584754   -0.00666081882292839      0.133683874953315
                   313    -0.0338604135226526   -0.00605329257582901       0.13257000692014
                   314    -0.0339212820564746   -0.00547139822542343      0.131451596516775
                   315    -0.0339825862894502   -0.00491462485031419      0.130329222800279
                   316    -0.0340444168489666   -0.00438294094886268      0.129203529656231
                   317    -0.0341067075747888   -0.00387634888245873      0.128075768877146
                   318    -0.0341693652407612   -0.00339430641869538      0.126947074153562
                   319    -0.0342322655965509   -0.00293602241936174      0.125818462137362
                   320    -0.0342952998280449   -0.00250070520154337      0.124690814071152
                   321      -0.03435833252632   -0.00208786895106161      0.123565140864459
                   322    -0.0344214038937646   -0.00169728598665478       0.12244222058407
                   323    -0.0344846367356225   -0.00132848154732968      0.121321599222217
                   324    -0.0345478493974608  -0.000980445512890189      0.120204805791948