9.9999999999681e-07 	1.00593832351247 	0 	-0.0438813925153756 	0.000760330913209104 	1316.98207185464 	0.00312591201053335 	0
9.9999999999681e-07 	1.01006699173612 	-3.46944695195361e-18 	-0.0429323514543113 	0.00306828299653111 	315.093614184621 	0.0161237091202497 	0
9.9999999999681e-07 	1.01434690516738 	-3.46944695195361e-18 	-0.041264485996132 	0.00760177041042049 	147.934814565867 	0.0361363902560702 	0
9.9999999999681e-07 	1.01878360436113 	-3.46944695195361e-18 	-0.0388987735747972 	0.013615560843296 	90.3255010058547 	0.0448556690972657 	0
9.9999999999681e-07 	1.02338283283899 	-6.93889390390723e-18 	-0.0360414537236049 	0.0199388539543518 	60.6138917593069 	0.0364244715249041 	0
9.9999999999681e-07 	1.02815054452459 	-3.46944695195361e-18 	-0.0329112652046772 	0.025935532665973 	42.9268241974065 	0.0232943455877096 	0
9.9999999999681e-07 	1.03309291145122 	0 	-0.0296512213723356 	0.0313798914705273 	31.850300272053 	0.0142520283261993 	0
9.9999999999681e-07 	1.03821633175185 	-3.46944695195361e-18 	-0.0263402308647483 	0.0362008159061517 	24.6392421667879 	0.00947662242331567 	0
9.9999999999681e-07 	1.04352743794176 	-3.46944695195361e-18 	-0.0230171989971508 	0.040415599235848 	19.7641729927157 	0.00709876768749247 	0
9.9999999999681e-07 	1.0490331055047 	-3.46944695195361e-18 	-0.01969398314321 	0.0440883363293769 	16.3497538786508 	0.00586444515647165 	0
9.9999999999681e-07 	1.05474046179355 	-1.04083408558608e-17 	-0.0163678253374041 	0.0472953721335349 	13.8786226154191 	0.00517380835644742 	0
9.9999999999681e-07 	1.06065689525696 	-1.04083408558608e-17 	-0.0130325212282381 	0.0501069128995129 	12.0326708349653 	0.00475347679952325 	0
9.9999999999681e-07 	1.06679006500412 	-1.04083408558608e-17 	-0.00968389156485121 	0.0525809327340228 	10.6089239599497 	0.0044662316403181 	0
9.99999999996809e-07 	1.0731479107198 	-1.04083408558608e-17 	-0.00632081793545394 	0.0547632850730552 	9.47477815956781 	0.00423531654745111 	0
9.99999999996809e-07 	1.07973866294268 	-1.38777878078145e-17 	-0.00294490486634741 	0.0566901346365523 	8.54312211091978 	0.00401641356778889 	0
9.9999999999681e-07 	1.08657085372019 	-2.08166817117217e-17 	0.000440419854778276 	0.0583906539437952 	7.75719945162322 	0.00378488922843682 	0
9.9999999999681e-07 	1.09365332765363 	-2.77555756156289e-17 	0.00383072611073419 	0.0598891463262201 	7.08053409664225 	0.00352952222834715 	0
9.9999999999681e-07 	1.10099525334794 	-3.46944695195361e-17 	0.00722043410437715 	0.0612064283222356 	6.48985371399443 	0.0032499247136047 	0
9.9999999999681e-07 	1.10860613528092 	-2.42861286636753e-17 	0.0106033177355983 	0.0623604969782694 	5.96998215332359 	0.00295520764526408 	0
9.9999999999681e-07 	1.11649582610723 	-1.73472347597681e-17 	0.0139740239550557 	0.0633667586546623 	5.51041762300999 	0.00266144245532872 	0
9.9999999999681e-07 	1.1246745394131 	-2.08166817117217e-17 	0.017328477074851 	0.0642381209181174 	5.10333160077905 	0.00238664444921761 	0
9.9999999999681e-07 	1.13315286293836 	-1.73472347597681e-17 	0.0206630266306926 	0.0649851285015352 	4.7425234607151 	0.00214500928282027 	0
9.9999999999681e-07 	1.14194177228276 	-1.38777878078145e-17 	0.0239733008089002 	0.0656162632457691 	4.42294130879009 	0.00194417787683431 	0
9.9999999999681e-07 	1.15105264511438 	-1.38777878078145e-17 	0.0272533255103278 	0.0661383858081177 	4.14042911691272 	0.00178657265169011 	0
9.9999999999681e-07 	1.16049727589862 	-6.93889390390723e-18 	0.0304953009216057 	0.0665572078681108 	3.89150129404908 	0.00167222325291913 	0
9.9999999999681e-07 	1.17028789116671 	-6.93889390390723e-18 	0.0336900605929307 	0.0668776817417002 	3.67308931538992 	0.00160077625524395 	0
9.9999999999681e-07 	1.18043716534348 	-1.73472347597681e-17 	0.0368282985102235 	0.067104243078438 	3.48230133592763 	0.00157239945170147 	0
9.9999999999681e-07 	1.19095823715509 	-1.73472347597681e-17 	0.0399028224756286 	0.0672409006094139 	3.31627001551748 	0.00158808498773513 	0
9.9999999999681e-07 	1.20186472663771 	-2.08166817117217e-17 	0.0429113268197196 	0.0672912213115498 	3.17212264443943 	0.00164915504244656 	0
9.9999999999681e-07 	1.21317075276932 	-2.77555756156289e-17 	0.0458578854981144 	0.0672582879561563 	3.04703080555544 	0.00175554442447738 	0
9.9999999999681e-07 	1.2248909517474 	-2.77555756156289e-17 	0.0487518968961365 	0.067144689986065 	2.9382736910206 	0.0019043256021967 	0
9.9999999999681e-07 	1.23704049593624 	-2.77555756156289e-17 	0.0516049916959138 	0.0669525701494529 	2.84328052824013 	0.00209001126525019 	0
9.9999999999681e-07 	1.24963511350823 	-2.77555756156289e-17 	0.0544277317334324 	0.0666837098644543 	2.75964851202215 	0.00230567472397737 	0
9.9999999999681e-07 	1.2626911088048 	-2.42861286636753e-17 	0.0572274082266266 	0.0663396245092032 	2.68514788136822 	0.00254360459957697 	0
9.9999999999681e-07 	1.27622538344313 	-2.42861286636753e-17 	0.0600069263835315 	0.0659216572791297 	2.61772863849822 	0.002795750023965 	0
9.9999999999681e-07 	1.29025545819617 	-2.77555756156289e-17 	0.0627648207589401 	0.0654310643972939 	2.55553783963977 	0.00305426999653238 	0
9.9999999999681e-07 	1.30479949567406 	-3.12250225675825e-17 	0.0654962115925082 	0.0648690799668316 	2.49694701150829 	0.00331196934494187 	0
9.9999999999681e-07 	1.31987632383657 	-2.77555756156289e-17 	0.0681940757528284 	0.0642369535949349 	2.44058207406149 	0.0035625551560641 	0
9.9999999999681e-07 	1.33550546036675 	-2.08166817117217e-17 	0.0708504590151998 	0.0635359624547096 	2.38534580141408 	0.00380072089173519 	0
9.9999999999681e-07 	1.35170713793756 	-2.08166817117217e-17 	0.0734574675792255 	0.0627674084521011 	2.33042443102014 	0.00402205859589407 	0
9.9999999999681e-07 	1.36850233040401 	-2.77555756156289e-17 	0.0760080001891771 	0.0619326172167462 	2.2752743068389 	0.00422284275403001 	0
9.9999999999681e-07 	1.38591277995485 	-3.12250225675825e-17 	0.0784962483329719 	0.0610329549850617 	2.21958942699284 	0.00439983945127146 	0
9.9999999999681e-07 	1.40396102525888 	-2.77555756156289e-17 	0.0809180565311737 	0.0600698688684312 	2.16325451094393 	0.00455022675560972 	0
9.9999999999681e-07 	1.42267043064234 	-2.42861286636753e-17 	0.0832711627613363 	0.0590449415251202 	2.10629011862255 	0.00467149072899119 	0
9.99999999996809e-07 	1.44206521633518 	-2.08166817117217e-17 	0.0855551516745135 	0.0579599479998926 	2.04879725635008 	0.00476125159725866 	0
9.99999999996809e-07 	1.46217048982529 	-2.42861286636753e-17 	0.0877710344793175 	0.0568169115928013 	1.99090910298995 	0.00481721351626621 	0
9.99999999996809e-07 	1.48301227836137 	-2.77555756156289e-17 	0.089920623226247 	0.0556181614494271 	1.93275617297358 	0.00483733014721255 	0
9.9999999999681e-07 	1.50461756264649 	-2.77555756156289e-17 	0.0920059181256933 	0.0543663916223831 	1.87444818028848 	0.00482008480314579 	0
9.99999999996809e-07 	1.52701431176587 	-2.42861286636753e-17 	0.0940286476560236 	0.0530647166992729 	1.81607198587797 	0.00476476578818802 	0
9.99999999996809e-07 	1.55023151939425 	-2.08166817117217e-17 	0.0959900246515491 	0.0517167165634479 	1.75770146828873 	0.00467165769554839 	0
9.99999999996809e-07 	1.57429924132957 	-2.08166817117217e-17 	0.09789070775813 	0.05032646236276 	1.6994130235739 	0.00454211179076125 	0
9.99999999996809e-07 	1.5992486344017 	-1.73472347597681e-17 	0.0997309052759609 	0.0488985169294838 	1.64130034906907 	0.00437851284605625 	0
9.99999999996809e-07 	1.62511199680642 	-1.38777878078145e-17 	0.101510540586191 	0.0474379044241215 	1.58348406256042 	0.00418419969012893 	0
9.99999999996809e-07 	1.65192280991703 	-1.38777878078145e-17 	0.103229418315094 	0.0459500439422753 	1.52611462345983 	0.00396338943611149 	0
9.99999999996809e-07 	1.67971578162758 	-1.73472347597681e-17 	0.104887374732863 	0.0444406398734162 	1.46936971664588 	0.00372109941674512 	0
9.99999999996809e-07 	1.70852689128395 	-2.08166817117217e-17 	0.10648441828363 	0.042915522289282 	1.41344887342301 	0.00346300859809121 	0
9.99999999996809e-07 	1.73839343626083 	-2.42861286636753e-17 	0.108020835025707 	0.0413804420572838 	1.35856842350147 	0.00319524041719856 	0
9.9999999999681e-07 	1.76935408024498 	-2.77555756156289e-17 	0.109497247393803 	0.0398408507929718 	1.30495865166851 	0.00292414821268882 	0
9.9999999999681e-07 	1.80144890328725 	-3.12250225675825e-17 	0.110914706489195 	0.0383017544366508 	1.25286205187256 	0.00265605911584008 	0
9.9999999999681e-07 	1.83471945368815 	-3.46944695195361e-17 	0.112274742882058 	0.0367680001797246 	1.20252976484439 	0.00239679584846451 	0
9.9999999999681e-07 	1.86920880178414 	-3.81639164714898e-17 	0.113579273666917 	0.0352444443307527 	1.1542149103854 	0.00215101845788442 	0
9.9999999999681e-07 	1.90496159570423 	-4.5102810375397e-17 	0.11483064405288 	0.0337358185452137 	1.10816397752825 	0.00192161444936346 	0
9.9999999999681e-07 	1.94202411916921 	-4.85722573273506e-17 	0.116031550862379 	0.0322480270592901 	1.06461080058557 	0.0017097121988902 	0
9.9999999999681e-07 	1.98044435140811 	-5.20417042793042e-17 	0.117183559168188 	0.030789382255943 	1.02377673798611 	0.00151531551434195 	0
9.9999999999681e-07 	2.02025965173184 	-5.55111512312578e-17 	0.118278330932726 	0.0293779501201543 	0.986153641842117 	0.0013394612369486 	0
9.9999999999681e-07 	2.06006301192217 	-5.20417042793042e-17 	0.11929247742129 	0.0280453917459814 	0.952646828236387 	0.00118477479100864 	0
9.9999999999681e-07 	2.09845978584128 	-4.5102810375397e-17 	0.120209432792624 	0.0268113015226317 	0.923774934282257 	0.00105114856271393 	0
9.9999999999681e-07 	2.13549967996945 	-4.5102810375397e-17 	0.121034589590853 	0.0256690971769613 	0.899272472395185 	0.000934878171480442 	0
9.9999999999681e-07 	2.17123064424048 	-5.20417042793042e-17 	0.12178108721138 	0.0246049622519153 	0.878668344782373 	0.000832157537866874 	0
9.9999999999681e-07 	2.20569893411515 	-6.24500451351651e-17 	0.122459941803259 	0.023608304934302 	0.86159008844084 	0.000740234398205633 	0
9.9999999999681e-07 	2.23894917046122 	-6.93889390390723e-17 	0.123080219677678 	0.0226709278860928 	0.847746683434397 	0.000657155226397813 	0
9.9999999999681e-07 	2.27102439731725 	-7.28583859910259e-17 	0.123649443280277 	0.0217864115913692 	0.836915517556708 	0.000581537441822128 	0
9.9999999999681e-07 	2.30196613761521 	-7.97972798949331e-17 	0.124173884599831 	0.0209496614647648 	0.828931924889063 	0.00051239885778265 	0
9.9999999999681e-07 	2.33181444693391 	-8.32667268468867e-17 	0.124658796341074 	0.0201565761301737 	0.823680840266629 	0.000449041887847548 	0
9.9999999999681e-07 	2.3606079653529 	-8.32667268468867e-17 	0.125108597950395 	0.0194038051867222 	0.821090433634019 	0.000390973377837335 	0
9.9999999999681e-07 	2.3883839674739 	-8.67361737988404e-17 	0.125527023911393 	0.0186885732621313 	0.821127585035847 	0.000337849810847915 	0
9.9999999999681e-07 	2.41517841067461 	-9.0205620750794e-17 	0.125917242713516 	0.018008553156297 	0.823795009712247 	0.00028944109091548 	0
9.9999999999681e-07 	2.44102598165722 	-9.0205620750794e-17 	0.126281953148305 	0.0173617752084528 	0.829129827432572 	0.000245607846627252 	0
9.9999999999681e-07 	2.46596014135207 	-9.0205620750794e-17 	0.126623462768599 	0.0167465632519003 	0.837203392671826 	0.000206288577770644 	0
9.9999999999681e-07 	2.49001316823443 	-9.0205620750794e-17 	0.126943752176264 	0.0161614899715032 	0.848122244909559 	0.00017149403414366 	0
9.9999999999681e-07 	2.51321620011054 	-8.67361737988404e-17 	0.127244527979412 	0.0156053463397497 	0.862030086032963 	0.000141307011062676 	0
9.9999999999681e-07 	2.535599274427 	-7.97972798949331e-17 	0.127527266639603 	0.0150771212035385 	0.879110735460609 	0.000115886337388362 	0
9.9999999999681e-07 	2.55719136715571 	-7.63278329429795e-17 	0.12779325096069 	0.0145759881196262 	0.899592048480904 	9.54742615002841e-05 	0
9.9999999999681e-07 	2.57802043030465 	-7.97972798949331e-17 	0.128043600613024 	0.0141012972648414 	0.92375080686967 	8.04067355635987e-05 	0
9.9999999999681e-07 	2.59811342810315 	-8.32667268468867e-17 	0.128279297809428 	0.0136525707347248 	0.951918601011222 	7.11262755807024e-05 	0
9.9999999999681e-07 	2.61749637190832 	-8.32667268468867e-17 	0.128501209032564 	0.0132294998348851 	0.984488716792415 	6.8197141683521e-05 	0
9.9999999999681e-07 	2.63619435387806 	-8.32667268468867e-17 	0.128710103542523 	0.0128319430959741 	1.02192401462635 	7.23225387158466e-05 	0
9.9999999999681e-07 	2.65423157945406 	-7.97972798949331e-17 	0.128906669257807 	0.0124599237313349 	1.06476573703459 	8.43633731838493e-05 	0
9.9999999999681e-07 	2.67163139869691 	-7.63278329429795e-17 	0.129091526493113 	0.0121136251288968 	1.11364309948294 	0.000105357807672871 	0
9.99999999996809e-07 	2.68841633651388 	-7.63278329429795e-17 	0.129265239945933 	0.0117933827521578 	1.16928340139056 	0.000136540420195225 	0
9.99999999996809e-07 	2.7046081218185 	-7.63278329429795e-17 	0.129428329244383 	0.0114996705571297 	1.23252223820887 	0.000179359211400896 	0
9.99999999996809e-07 	2.72022771565972 	-7.63278329429795e-17 	0.129581278295427 	0.0112330797717067 	1.3043132060746 	0.000235488047031108 	0
9.99999999996809e-07 	2.73529533835694 	-7.63278329429795e-17 	0.129724543601918 	0.0109942877194533 	1.3857362855436 	0.000306831468833743 	0
9.99999999996809e-07 	2.74983049567625 	-7.63278329429795e-17 	0.129858561646667 	0.0107840144236011 	1.47800390799769 	0.000395518318054443 	0
9.99999999996809e-07 	2.76385200408156 	-7.97972798949331e-17 	0.129983755373143 	0.0106029651493664 	1.58246361158879 	0.000503880532728802 	0
9.99999999996809e-07 	2.77737801509343 	-8.32667268468867e-17 	0.130100539729723 	0.0104517579875592 	1.70059627589498 	0.000634414100010963 	0
9.99999999996809e-07 	2.79042603878708 	-9.0205620750794e-17 	0.130209326195707 	0.0103308371594469 	1.83400930025757 	0.000789720754257584 	0
9.99999999996809e-07 	2.80301296646003 	-1.00613961606655e-16 	0.130310526182487 	0.0102403749265371 	1.98442487398415 	0.00097243177394973 	0
9.99999999996809e-07 	2.81515509249872 	-1.04083408558608e-16 	0.130404553211985 	0.0101801676227991 	2.15366475178376 	0.00118511904806131 	0
9.99999999996809e-07 	2.82686813547237 	-1.07552855510562e-16 	0.130491823821228 	0.0101495339563027 	2.3436346813169 	0.00143020299028442 	0
9.99999999996809e-07 	2.83816725848142 	-1.11022302462516e-16 	0.130572757222844 	0.0101472257076367 	2.55631369036365 	0.00170987104947584 	0
9.99999999996809e-07 	2.84906708878691 	-1.11022302462516e-16 	0.130647773851181 	0.0101713615635361 	2.79375555852667 	0.00202602347764895 	0
9.99999999996808e-07 	2.85958173674616 	-1.11022302462516e-16 	0.130717293018479 	0.010219393499114 	3.05811163488688 	0.00238026378742253 	0
9.99999999996808e-07 	2.86972481407933 	-1.11022302462516e-16 	0.130781729969301 	0.0102881116961442 	3.35168544116197 	0.00277394956676905 	0
9.99999999996808e-07 	2.87950945149043 	-1.11022302462516e-16 	0.130841492644977 	0.0103736888465372 	3.67703016381892 	0.00320831532930636 	0
9.99999999996808e-07 	2.88894831566566 	-1.17961196366423e-16 	0.130896978458104 	0.0104717587380578 	4.03710049078926 	0.00368467377320976 	0
9.99999999996809e-07 	2.89805362567106 	-1.2490009027033e-16 	0.130948571245575 	0.0105775184159102 	4.43547101350817 	0.00420469630776571 	0
9.99999999996809e-07 	2.90683716877067 	-1.2490009027033e-16 	0.130996638130641 	0.0106858390442481 	4.87663573951752 	0.00477076901789187 	0
9.99999999996809e-07 	2.91531031568569 	-1.21430643318376e-16 	0.131041526097298 	0.0107913685973709 	5.36640874248515 	0.00538641841679179 	0
9.99999999996809e-07 	2.92348403531448 	-1.21430643318376e-16 	0.131083561317672 	0.0108886099844647 	5.91245685636949 	0.00605680782355078 	0
9.99999999996809e-07 	2.93136890893229 	-1.2490009027033e-16 	0.131123055054505 	0.0109719609024102 	6.52501490331754 	0.00678932821883894 	0
9.99999999996809e-07 	2.93897514388925 	-1.2490009027033e-16 	0.131160278402427 	0.0110357051869201 	7.21786715976185 	0.00759425437673575 	0
9.99999999996809e-07 	2.94631258682425 	-1.31838984174237e-16 	0.131195392496102 	0.0110739558746935 	8.00972821300382 	0.00848532797221018 	0
9.99999999996809e-07 	2.95339073641193 	-1.38777878078145e-16 	0.13122849185798 	0.011080559514699 	8.92626793025695 	0.00948050375957316 	0
9.99999999996809e-07 	2.96021875565916 	-1.45716771982052e-16 	0.131259751171317 	0.0110489253156135 	10.0032471825565 	0.0106062766259033 	0
9.99999999996809e-07 	2.96680548376697 	-1.52655665885959e-16 	0.13128941924388 	0.010971552945274 	11.2915003740315 	0.0119033827702671 	0
9.99999999996809e-07 	2.97315944757337 	-1.52655665885959e-16 	0.131317737521067 	0.0108389274955408 	12.8645448677394 	0.0134287951475665 	0
9.99999999996809e-07 	2.97928887259171 	-1.56125112837913e-16 	0.131344859442838 	0.0106375601800881 	14.8295437799179 	0.0152542214624634 	0
9.99999999996809e-07 	2.98520169365902 	-1.56125112837913e-16 	0.131370655014539 	0.010347005713741 	17.3432366497612 	0.0174533750085986 	0
9.99999999996809e-07 	2.99090556520806 	-1.52655665885959e-16 	0.131394650717024 	0.00993577890662285 	20.6365661300552 	0.0200681405984151 	0
9.99999999996809e-07 	2.99640787117633 	-1.52655665885959e-16 	0.131416230385554 	0.00935650990883824 	25.0558336743726 	0.0230361971878493 	0
9.99999999996809e-07 	3.00171573456492 	-1.52655665885959e-16 	0.131434841486308 	0.00854227666966691 	31.141348163694 	0.0260461793262396 	0
9.99999999996809e-07 	3.00683602665963 	-1.52655665885959e-16 	0.131450120450311 	0.00741030480377647 	39.8142195225135 	0.0283202079192808 	0
9.99999999996809e-07 	3.01177537592613 	-1.52655665885959e-16 	0.13146189891169 	0.00588234196271038 	52.9320724593598 	0.0277911517736533 	0
9.99999999996809e-07 	3.01654017659085 	-1.52655665885959e-16 	0.131470185541425 	0.00400278756098801 	75.3007156981716 	0.0218684004670208 	0
9.99999999996809e-07 	3.02113659691864 	-1.52655665885959e-16 	0.131475390141953 	0.00213366110152594 	123.763347054268 	0.0119942994824308 	0
9.99999999996809e-07 	3.02557058719784 	-1.52655665885959e-16 	0.13147843041617 	0.000801950080919888 	279.027139245748 	0.00393500340508854 	0
9.9999999999681e-07 	3.02984788744324 	-1.59594559789866e-16 	0.131480287621579 	0.000186553492781313 	1218.67810740173 	0.000618545061101228 	0
