# wallShearStress  FACE_DATA 47
#  x  y  z  wallShearStress_x  wallShearStress_y  wallShearStress_z  
0.0005 0.001 4.59758e-05 -8.18125 2.53221e-18 -3.32484e-17
0.0005 0.001 0.000133748 -8.14264 1.74896e-16 1.31374e-16
0.0005 0.001 0.000213541 -8.07392 3.27127e-16 1.30519e-16
0.0005 0.001 0.000286079 -7.98064 3.92344e-18 -5.44937e-17
0.0005 0.001 0.000352024 -7.86674 1.32855e-17 -7.05613e-17
0.0005 0.001 0.000411973 -7.73503 -1.28413e-16 -6.22244e-17
0.0005 0.001 0.000466473 -7.58752 -1.64132e-16 -7.67638e-17
0.0005 0.001 0.000516018 -7.42582 -1.34363e-16 -9.59878e-17
0.0005 0.001 0.000561059 -7.251 -1.44711e-16 -1.14531e-16
0.0005 0.001 0.000602005 -7.06368 -1.12314e-16 -1.04606e-16
0.0005 0.001 0.000639229 -6.86518 -1.47312e-16 -7.21514e-17
0.0005 0.001 0.000673069 -6.65622 -1.16164e-16 -6.92689e-17
0.0005 0.001 0.000703833 -6.4369 -1.27274e-16 -4.76534e-17
0.0005 0.001 0.000731799 -6.20722 -1.00584e-16 -4.94938e-17
0.0005 0.001 0.000757224 -5.96787 -9.42089e-17 -3.32493e-17
0.0005 0.001 0.000780337 -5.71961 -8.43676e-17 -5.98004e-17
0.0005 0.001 0.000801349 -5.46367 -1.00969e-16 -6.35949e-17
0.0005 0.001 0.000820451 -5.20143 -1.04707e-16 -4.60766e-17
0.0005 0.001 0.000837816 -4.93429 -1.11916e-16 -5.28212e-17
0.0005 0.001 0.000853602 -4.66383 -1.24176e-16 -3.88473e-17
0.0005 0.001 0.000867954 -4.39161 -1.2446e-16 -1.43102e-17
0.0005 0.001 0.000881001 -4.11945 -1.32738e-16 8.73161e-18
0.0005 0.001 0.000892861 -3.84931 -1.1773e-16 2.11976e-17
0.0005 0.001 0.000903644 -3.58314 -1.11733e-16 3.31077e-17
0.0005 0.001 0.000913446 -3.32301 -9.33919e-17 3.32907e-17
0.0005 0.001 0.000922357 -3.07078 -8.62638e-17 3.14077e-17
0.0005 0.001 0.000930458 -2.82808 -7.55664e-17 3.02042e-17
0.0005 0.001 0.000937823 -2.5961 -7.2616e-17 3.27079e-17
0.0005 0.001 0.000944518 -2.37569 -6.66921e-17 3.74804e-17
0.0005 0.001 0.000950604 -2.16725 -6.25542e-17 4.00064e-17
0.0005 0.001 0.000956137 -1.97083 -5.38768e-17 3.97654e-17
0.0005 0.001 0.000961167 -1.78625 -4.50182e-17 3.40269e-17
0.0005 0.001 0.00096574 -1.6131 -3.53586e-17 2.69145e-17
0.0005 0.001 0.000969897 -1.45086 -2.73089e-17 1.76474e-17
0.0005 0.001 0.000973676 -1.29894 -1.99656e-17 7.83052e-18
0.0005 0.001 0.000977112 -1.15672 -1.42386e-17 -1.03695e-18
0.0005 0.001 0.000980235 -1.02356 -9.7708e-18 -7.82094e-18
0.0005 0.001 0.000983075 -0.898829 -7.00583e-18 -1.24955e-17
0.0005 0.001 0.000985656 -0.781902 -4.83072e-18 -1.57885e-17
0.0005 0.001 0.000988002 -0.67217 -3.08081e-18 -1.72567e-17
0.0005 0.001 0.000990136 -0.569021 -1.67514e-18 -1.73223e-17
0.0005 0.001 0.000992075 -0.471837 -4.74973e-19 -1.65252e-17
0.0005 0.001 0.000993838 -0.379976 8.94162e-19 -1.48184e-17
0.0005 0.001 0.000995441 -0.292719 2.15385e-18 -1.23414e-17
0.0005 0.001 0.000996898 -0.209176 3.28605e-18 -9.2574e-18
0.0005 0.001 0.000998222 -0.127988 3.78099e-18 -5.2831e-18
0.0005 0.001 0.000999427 -0.0464667 2.49067e-18 -1.26078e-18
