/*--------------------------------*- C++ -*----------------------------------*\
  =========                 |
  \\      /  F ield         | OpenFOAM: The Open Source CFD Toolbox
   \\    /   O peration     | Website:  https://openfoam.org
    \\  /    A nd           | Version:  7
     \\/     M anipulation  |
\*---------------------------------------------------------------------------*/
FoamFile
{
    version     2.0;
    format      ascii;
    class       volVectorField;
    location    "20000";
    object      C;
}
// * * * * * * * * * * * * * * * * * * * * * * * * * * * * * * * * * * * * * //

dimensions      [0 1 0 0 0 0 0];

internalField   nonuniform List<vector> 
15600
(
(0.0335685081986856 1.00047658303879 0)
(0.0996215684768388 0.991791836953714 1.90947401762458e-18)
(0.158733591306196 0.962917889843891 1.5927963586462e-17)
(0.206587815599667 0.916457114884821 -1.52696868648624e-17)
(0.246498505439019 0.86261306782839 0)
(0.282640666431264 0.806173212220935 0)
(0.317050395213997 0.7486820580008 -8.6831093106727e-18)
(0.350989343913727 0.690914780687017 -9.13694501831374e-20)
(0.385318193247765 0.633372630568071 -8.21894178510049e-18)
(0.420337653100904 0.576229224602957 -4.94843109050527e-18)
(0.455964878965295 0.519445292847842 0)
(0.492062693008938 0.462946362156036 -8.28249636240347e-18)
(0.528478886640726 0.406641085501568 -5.81397734900573e-18)
(0.565170421726979 0.350507996603683 -3.39743696040132e-18)
(0.602434216073771 0.294757066776456 -3.33094566746745e-18)
(0.64087493970062 0.239820414434814 0)
(0.681302405085932 0.186342678798564 0)
(0.724841221823314 0.135414372439325 -1.89306084003086e-19)
(0.772789268298548 0.0887131383609553 -7.02143094998384e-18)
(0.826306594570798 0.0487298181423495 -9.53425436355641e-20)
(0.886024489728552 0.0193749375029929 0)
(0.950807351398919 0.00534817974792023 0)
(1.01773837282555 0.00273757197730317 2.01639228608967e-18)
(1.08487868288354 0.00273757197730322 0)
(1.15201899294152 0.00273757197730311 3.84003751806227e-18)
(1.2191593029995 0.00273757197730304 -2.01639228608967e-18)
(1.28629961305749 0.00273757197730315 0)
(1.35343992311547 0.00273757197730301 0)
(1.42058023317346 0.00273757197730318 6.04917685826903e-18)
(1.48772054323144 0.00273757197730298 2.0163922860897e-18)
(1.55486085328943 0.00273757197730308 1.92001875903087e-18)
(1.62200116334742 0.00273757197730316 0)
(1.6891414734054 0.00273757197730314 -9.63735270586759e-20)
(1.75628178346339 0.00273757197730296 0)
(1.82342209352138 0.00273757197730312 4.03278457217933e-18)
(1.89056240357936 0.00273757197730313 0)
(1.95770271363735 0.00273757197730311 0)
(2.02484302369533 0.00273757197730305 0)
(2.09198333375332 0.00273757197730311 -3.42549230888246e-16)
(2.1591236438113 0.00273757197730319 -3.49954014212871e-16)
(2.22626395386929 0.00273757197730323 -9.63735270586728e-20)
(2.29340426392728 0.00273757197730313 -5.95280333121016e-18)
(2.36054457398526 0.00273757197730329 0)
(2.42768488404325 0.00273757197730315 -3.93641104512052e-18)
(2.49482519410123 0.00273757197730317 9.63735270586762e-20)
(2.56196550415921 0.00273757197730311 -3.50422052978487e-16)
(2.6291058142172 0.00273757197730308 -3.56462595627512e-16)
(2.69624612427518 0.00273757197730314 -9.637352705867e-20)
(2.76338643433317 0.0027375719773031 -3.84003751806192e-18)
(2.83052674439116 0.00273757197730309 -3.93641104512069e-18)
(2.89766705444914 0.00273757197730296 9.63735270586744e-20)
(2.96480736450712 0.00273757197730311 -4.03278457217963e-18)
(3.03194767456511 0.00273757197730303 -9.63735270586757e-20)
(3.09908798462309 0.00273757197730302 2.01639228608988e-18)
(3.16622829468108 0.00273757197730316 2.01639228608957e-18)
(3.23336860473907 0.00273757197730316 9.63735270586699e-20)
(3.30050891479705 0.00273757197730311 9.637352705868e-20)
(3.36764922485503 0.00273757197730305 -9.63735270586721e-20)
(3.43478953491302 0.00273757197730311 -2.01639228608982e-18)
(3.501929844971 0.00273757197730311 0)
(3.56907015502899 0.00273757197730304 -3.42452857361213e-16)
(3.63621046508698 0.00273757197730318 -3.50913715296765e-16)
(3.70335077514497 0.00273757197730305 -1.92001875903089e-18)
(3.77049108520295 0.00273757197730304 1.92001875903099e-18)
(3.83763139526094 0.00273757197730329 0)
(3.90477170531892 0.00273757197730309 0)
(3.97191201537691 0.00273757197730308 0)
(4.0390523254349 0.00273757197730314 3.9364110451209e-18)
(4.10619263549288 0.00273757197730316 0)
(4.17333294555087 0.00273757197730298 1.92001875903104e-18)
(4.24047325560885 0.00273757197730312 0)
(4.30761356566684 0.0027375719773031 0)
(4.37475387572482 0.00273757197730317 3.50614800032651e-16)
(4.44189418578281 0.00273757197730308 3.48824919883103e-16)
(4.50903449584079 0.00273757197730302 2.01639228608987e-18)
(4.57617480589878 0.00273757197730311 0)
(4.64331511595676 0.00273757197730322 -5.95280333121051e-18)
(4.71045542601475 0.00273757197730323 0)
(4.77759573607273 0.00273757197730312 -9.6373527058673e-20)
(4.84473604613072 0.00273757197730314 3.52534818791684e-16)
(4.9118763561887 0.00273757197730316 3.48637974089811e-16)
(4.97901666624669 0.00273757197730317 0)
(5.04615697630467 0.00273757197730305 0)
(5.11329728636266 0.00273757197730311 5.95280333121082e-18)
(5.18043759642064 0.00273757197730322 9.63735270586781e-20)
(5.24757790647863 0.00273757197730306 0)
(5.31471821653661 0.00273757197730308 0)
(5.3818585265946 0.00273757197730316 9.6373527058676e-20)
(5.44899883665258 0.00273757197730323 -5.85642980415184e-18)
(5.51613914671057 0.00273757197730311 0)
(5.58327945676855 0.00273757197730305 9.63735270586736e-20)
(5.65041976682654 0.00273757197730311 3.50325679451426e-16)
(5.71756007688453 0.00273757197730305 3.40851459201197e-16)
(5.78470038694251 0.0027375719773031 2.01639228608982e-18)
(5.85184069700049 0.00273757197730305 9.63735270586817e-20)
(5.91898100705848 0.00273757197730299 1.92001875903124e-18)
(5.98612131711646 0.00273757197730312 -2.11276581314817e-18)
(6.05326162717445 0.00273757197730315 6.86825733481502e-16)
(6.12019781167106 0.00530244630728036 6.56955078653432e-16)
(6.18500433594165 0.0192329537707881 5.73231874689635e-18)
(6.2447610548127 0.0485039551887597 -9.73989563081823e-20)
(6.29831619079755 0.0884332253717491 1.95514917846361e-19)
(6.34629618608478 0.135100293811475 0)
(6.38985962594292 0.186008355770666 -2.53602274058594e-18)
(6.4303030357366 0.23947391459923 7.36202981169467e-18)
(6.46875321779455 0.294403084737121 -4.85291068832203e-18)
(6.50602261753008 0.350150655678333 -8.62399281479943e-18)
(6.54271646296486 0.406282259097265 3.6501558496609e-18)
(6.57913431441825 0.462586670907301 4.04574418138714e-18)
(6.61523461382327 0.519084005725137 -2.10338191636117e-18)
(6.65086525316112 0.575865792782079 -4.95262178769889e-18)
(6.68588899054744 0.633006719964093 2.60601779493754e-18)
(6.72022192921314 0.690546598262529 9.39126661841521e-18)
(6.75416099926533 0.748313340503373 8.77748518211365e-18)
(6.78856364551298 0.80580765334812 5.73067381101356e-18)
(6.82468988827411 0.862258064323624 4.35794228686125e-18)
(6.86456679812578 0.916128247495601 -3.53137715522417e-17)
(6.9123536416476 0.962666207353306 0)
(6.97139990642135 0.991679251452267 9.79909846420417e-20)
(7.03743175566366 1.00045974187459 3.45507091183694e-18)
(0.0335521528989649 1.00207090485639 1.71718532299574e-18)
(0.0995775382472324 0.993420800652677 9.95822681486037e-18)
(0.158689826569848 0.964662287540057 -1.73652872650225e-17)
(0.2065885221335 0.918387732641863 1.90208824501729e-17)
(0.24657506992565 0.864758988014156 -6.70663497180146e-18)
(0.282808055699056 0.808544357793456 1.10537120018173e-17)
(0.317315489972816 0.751282423179654 -1.82056018179112e-17)
(0.351354002404778 0.693745399415648 -5.90480384629291e-18)
(0.385780857886275 0.63643263041137 2.60952617484974e-18)
(0.420895587678599 0.579517091636189 -4.67860674139009e-18)
(0.456615677262212 0.522959646031558 4.24894476939262e-18)
(0.492804493528361 0.466686099407664 6.04144765099565e-18)
(0.529310432799169 0.410605458035199 0)
(0.566090621764368 0.354696325718348 3.17505435541452e-18)
(0.603440783843362 0.29916782022776 6.24117221608914e-18)
(0.641963174244629 0.244450336991223 -1.62987980490029e-18)
(0.682464370712067 0.191185945669804 1.90717744337809e-19)
(0.72606448840852 0.140460812673799 0)
(0.774056223679343 0.0939459000947686 -4.14155861405201e-18)
(0.827594986551739 0.0541221179914012 -4.13952076588092e-18)
(0.88730952323797 0.0248843866558729 -3.88180088139295e-18)
(0.952068760833475 0.0109136181477337 0)
(1.01896776086072 0.00831343038112118 -4.09168318620407e-18)
(1.08607528723777 0.00831343038112111 3.89891483206026e-18)
(1.15318281361482 0.00831343038112119 -3.70614647791647e-18)
(1.22029033999186 0.00831343038112112 1.92768354143697e-19)
(1.28739786636891 0.00831343038112105 4.09168318620382e-18)
(1.35450539274595 0.00831343038112112 0)
(1.421612919123 0.00831343038112104 0)
(1.48872044550005 0.00831343038112099 0)
(1.5558279718771 0.00831343038112109 -4.09168318620357e-18)
(1.62293549825415 0.00831343038112118 -3.89891483206053e-18)
(1.69004302463119 0.00831343038112108 -2.04584159310197e-18)
(1.75715055100824 0.00831343038112113 2.87717561602575e-16)
(1.82425807738529 0.00831343038112105 3.07453712318496e-16)
(1.89136560376234 0.0083134303811213 0)
(1.95847313013939 0.00831343038112105 0)
(2.02558065651643 0.00831343038112106 0)
(2.09268818289348 0.00831343038112115 6.28670552374958e-16)
(2.15979570927053 0.00831343038112117 6.26322960412391e-16)
(2.22690323564758 0.00831343038112111 2.04584159310198e-18)
(2.29401076202463 0.00831343038112128 0)
(2.36111828840168 0.00831343038112116 0)
(2.42822581477872 0.00831343038112123 5.75198807101906e-18)
(2.49533334115576 0.00831343038112118 0)
(2.56244086753281 0.00831343038112117 9.24185943641631e-16)
(2.62954839390986 0.00831343038112114 9.31324644515934e-16)
(2.69665592028691 0.00831343038112108 1.92768354143706e-19)
(2.76376344666396 0.00831343038112125 0)
(2.83087097304101 0.00831343038112099 2.04584159310191e-18)
(2.89797849941805 0.00831343038112106 -2.04584159310204e-18)
(2.96508602579509 0.00831343038112112 -1.92768354143696e-19)
(3.03219355217214 0.00831343038112104 2.23860994724545e-18)
(3.09930107854919 0.00831343038112104 1.927683541437e-19)
(3.16640860492624 0.00831343038112105 -1.92768354143703e-19)
(3.23351613130329 0.00831343038112125 -3.70614647791656e-18)
(3.30062365768033 0.00831343038112112 -2.04584159310206e-18)
(3.36773118405738 0.008313430381121 -1.92768354143703e-19)
(3.43483871043443 0.00831343038112119 1.9276835414369e-19)
(3.50194623681148 0.00831343038112105 2.04584159310195e-18)
(3.56905376318852 0.00831343038112117 3.39099917533482e-16)
(3.63616128956557 0.00831343038112117 3.40055468941431e-16)
(3.70326881594262 0.008313430381121 -2.0458415931019e-18)
(3.77037634231967 0.00831343038112119 0)
(3.83748386869672 0.00831343038112116 0)
(3.90459139507376 0.00831343038112118 2.04584159310211e-18)
(3.97169892145081 0.00831343038112109 2.04584159310177e-18)
(4.03880644782786 0.00831343038112115 0)
(4.10591397420491 0.00831343038112111 3.70614647791654e-18)
(4.17302150058196 0.00831343038112114 -3.89891483206013e-18)
(4.240129026959 0.00831343038112099 -1.92768354143705e-19)
(4.30723655333605 0.00831343038112118 1.92768354143698e-19)
(4.3743440797131 0.00831343038112124 -3.37439612648656e-16)
(4.44145160609015 0.00831343038112108 -3.37739583105677e-16)
(4.50855913246719 0.00831343038112109 0)
(4.57566665884424 0.00831343038112112 0)
(4.64277418522129 0.00831343038112124 -2.04584159310214e-18)
(4.70988171159833 0.00831343038112116 -2.04584159310201e-18)
(4.77698923797538 0.0083134303811212 0)
(4.84409676435243 0.00831343038112122 -3.31687624577634e-16)
(4.91120429072947 0.00831343038112111 -3.34777312662213e-16)
(4.97831181710652 0.00831343038112118 0)
(5.04541934348357 0.00831343038112106 3.89891483205986e-18)
(5.11252686986062 0.00831343038112112 -4.28445154034784e-18)
(5.17963439623766 0.00831343038112122 0)
(5.24674192261471 0.0083134303811213 -2.95322622912561e-16)
(5.31384944899176 0.00831343038112112 -2.86764776018094e-16)
(5.38095697536881 0.0083134303811211 -1.9276835414371e-19)
(5.44806450174585 0.00831343038112116 3.89891483206072e-18)
(5.5151720281229 0.00831343038112105 0)
(5.58227955449995 0.00831343038112107 -3.89891483206041e-18)
(5.64938708087699 0.00831343038112108 -6.2291856430399e-16)
(5.71649460725404 0.00831343038112122 -6.25052080405875e-16)
(5.78360213363109 0.00831343038112111 0)
(5.85070966000813 0.008313430381121 1.8530732389582e-18)
(5.91781718638518 0.00831343038112108 0)
(5.98492471276223 0.00831343038112104 0)
(6.05203223913928 0.00831343038112115 -6.43880674995013e-16)
(6.11893638291127 0.0108680672557731 -6.62696599336628e-16)
(6.18371918885183 0.0247429696098407 3.68851387589104e-18)
(6.24347239393167 0.0538971563295625 1.97281752478191e-18)
(6.29704881538838 0.0936671039071314 -7.07759353982507e-18)
(6.34507237185663 0.140147987029531 0)
(6.3886970142836 0.190852956306074 8.10069604224127e-18)
(6.42921409151081 0.244105219467788 0)
(6.46774590253338 0.298815250315411 3.11883038647314e-18)
(6.5051016476217 0.354340410372449 -6.92200428228479e-18)
(6.54188413771296 0.410248063130485 7.2276420149714e-18)
(6.57839172827091 0.466327842971781 0)
(6.61458302007665 0.522599799873631 -1.96194769070361e-19)
(6.65030650962182 0.579155109014417 -1.40255435662419e-17)
(6.68542549999913 0.636068178393487 -5.41172797886661e-18)
(6.71985642857093 0.693378684053713 9.04672811255596e-18)
(6.75389506177091 0.750915174922313 -7.95645095823821e-18)
(6.78839544158409 0.808180256179603 5.41677711303996e-18)
(6.82461257225856 0.864405401392148 -3.27722730627729e-17)
(6.8645654741641 0.918060181610201 0)
(6.91239705400631 0.964411613226038 1.33728194618431e-17)
(6.97144384369006 0.99330866427658 1.6604644358279e-18)
(7.03744810826047 1.00205413089501 -3.62718428948993e-18)
(0.0335351984585526 1.00372363116951 0)
(0.0995318950611219 0.995109438070446 -4.99593289744594e-18)
(0.15864445864224 0.966470586069909 0)
(0.206589254545737 0.920389063660685 -1.62839708017577e-17)
(0.246654438589164 0.866983502598549 3.51817250334089e-15)
(0.282981575730273 0.811002348435221 3.08786061734851e-15)
(0.317590294502771 0.753978033360213 -4.64231678097641e-18)
(0.351732018088809 0.696679701786787 -8.34165031362016e-18)
(0.386260470226304 0.639604720005332 -5.02718645984815e-18)
(0.421473960194361 0.582925397920711 -2.06494560181768e-18)
(0.457290315536453 0.526602736645318 4.28343792443999e-18)
(0.49357346782982 0.470562831447338 -5.639536374457e-18)
(0.530172440478737 0.414715054999785 5.2271963237075e-18)
(0.567044531058585 0.359038083931113 -3.79947086590385e-19)
(0.604484224873209 0.303740151334201 0)
(0.64309127384747 0.249249866491376 -1.57824965054267e-18)
(0.683668902476082 0.196206635315698 1.90717917074177e-19)
(0.727332566823726 0.145692118762238 4.61803055421189e-18)
(0.775369591337646 0.0993703531804606 2.28158505955054e-18)
(0.828930576039357 0.0597119533047428 4.00152397307211e-18)
(0.888641631148559 0.0305956624675504 0)
(0.953376379234031 0.0166829341678931 0)
(1.02024218483925 0.0140935481693424 0)
(1.08731572657687 0.0140935481693425 1.92769145659402e-19)
(1.15438926831449 0.0140935481693423 1.98126351149639e-18)
(1.22146281005211 0.0140935481693425 0)
(1.28853635178973 0.0140935481693424 -3.76975787733367e-18)
(1.35560989352735 0.0140935481693425 0)
(1.42268343526497 0.0140935481693423 -3.76975787733328e-18)
(1.48975697700259 0.0140935481693424 1.92769145659403e-19)
(1.55683051874021 0.0140935481693424 0)
(1.62390406047783 0.0140935481693426 3.76975787733319e-18)
(1.69097760221545 0.0140935481693426 -1.92769145659405e-19)
(1.75805114395307 0.0140935481693424 -2.85120161676771e-16)
(1.82512468569069 0.0140935481693425 -2.78784462241961e-16)
(1.89219822742831 0.0140935481693423 0)
(1.95927176916593 0.0140935481693425 1.92769145659402e-19)
(2.02634531090355 0.0140935481693424 0)
(2.09341885264117 0.0140935481693424 -2.85120161676749e-16)
(2.1604923943788 0.0140935481693424 -2.81071922713839e-16)
(2.22756593611641 0.0140935481693424 0)
(2.29463947785403 0.0140935481693423 0)
(2.36171301959165 0.0140935481693425 -1.98126351149638e-18)
(2.42878656132927 0.0140935481693424 -3.76975787733363e-18)
(2.49586010306689 0.0140935481693425 0)
(2.56293364480451 0.0140935481693424 -5.64874840256034e-16)
(2.63000718654213 0.0140935481693425 -5.62017474922817e-16)
(2.69708072827975 0.0140935481693424 0)
(2.76415427001737 0.0140935481693424 3.9625270229925e-18)
(2.83122781175499 0.0140935481693424 0)
(2.89830135349261 0.0140935481693425 -1.927691456594e-19)
(2.96537489523023 0.0140935481693424 0)
(3.03244843696785 0.0140935481693424 0)
(3.09952197870547 0.0140935481693424 1.92769145659409e-19)
(3.16659552044309 0.0140935481693424 -3.76975787733363e-18)
(3.23366906218071 0.0140935481693425 1.98126351149622e-18)
(3.30074260391833 0.0140935481693426 -1.78849436583702e-18)
(3.36781614565595 0.0140935481693426 0)
(3.43488968739357 0.0140935481693425 -3.7697578773332e-18)
(3.50196322913119 0.0140935481693426 3.76975787733319e-18)
(3.56903677086881 0.0140935481693426 -3.76975787733352e-18)
(3.63611031260643 0.0140935481693426 3.96252702299237e-18)
(3.70318385434405 0.0140935481693426 5.55825224317008e-18)
(3.77025739608167 0.0140935481693424 0)
(3.83733093781929 0.0140935481693425 1.92769145659401e-19)
(3.90440447955691 0.0140935481693425 0)
(3.97147802129454 0.0140935481693423 -1.92769145659414e-19)
(4.03855156303216 0.0140935481693425 0)
(4.10562510476977 0.0140935481693424 1.98126351149652e-18)
(4.1726986465074 0.0140935481693424 -3.96252702299249e-18)
(4.23977218824502 0.0140935481693424 5.75102138883018e-18)
(4.30684572998263 0.0140935481693425 -3.96252702299274e-18)
(4.37391927172026 0.0140935481693423 0)
(4.44099281345787 0.0140935481693424 -1.98126351149653e-18)
(4.50806635519549 0.0140935481693425 -5.75102138882988e-18)
(4.57513989693311 0.0140935481693423 0)
(4.64221343867073 0.0140935481693425 7.73228490032609e-18)
(4.70928698040835 0.0140935481693424 1.92769145659408e-19)
(4.77636052214597 0.0140935481693425 0)
(4.84343406388359 0.0140935481693423 -1.98126351149641e-18)
(4.91050760562121 0.0140935481693425 -5.75102138882976e-18)
(4.97758114735883 0.0140935481693424 7.73228490032665e-18)
(5.04465468909645 0.0140935481693424 0)
(5.11172823083407 0.0140935481693424 0)
(5.17880177257169 0.0140935481693425 0)
(5.24587531430931 0.0140935481693424 2.75792151556272e-16)
(5.31294885604693 0.0140935481693425 2.77942633846535e-16)
(5.38002239778455 0.0140935481693424 -3.57698873167424e-18)
(5.44709593952217 0.0140935481693423 -5.55825224317064e-18)
(5.51416948125979 0.0140935481693423 1.92769145659412e-19)
(5.58124302299741 0.0140935481693424 0)
(5.64831656473503 0.0140935481693425 2.74003657190429e-16)
(5.71539010647265 0.0140935481693423 2.82917193281588e-16)
(5.78246364821027 0.0140935481693425 -3.96252702299281e-18)
(5.84953718994789 0.0140935481693424 -3.3842195860148e-18)
(5.91661073168551 0.0140935481693424 0)
(5.98368427342313 0.0140935481693424 -3.57698873167423e-18)
(6.05075781516075 0.0140935481693425 -1.78849436583698e-18)
(6.11762874447741 0.0166375725124462 -1.96398875592044e-18)
(6.18238696320051 0.0304548328651813 0)
(6.24213652569386 0.059487925949552 3.80771867079999e-18)
(6.29573501231505 0.0990927147052293 6.46074995353563e-18)
(6.34380372573652 0.145380592002883 0)
(6.38749181281971 0.195875028474614 0)
(6.42808525622783 0.248906181921367 5.54816784310607e-18)
(6.46670168662835 0.303389045283101 0)
(6.50414694025317 0.358683646391761 4.86265543454973e-18)
(6.54102132239883 0.414359144039024 -3.48296900861741e-18)
(6.57762193956086 0.470206062391659 -1.95895274581797e-19)
(6.61390755721198 0.526244384247584 -1.24709406166986e-17)
(6.64972729850844 0.582564917599436 -4.70080146054747e-18)
(6.68494503149214 0.639241780026072 2.70852399920469e-18)
(6.71947753988382 0.696314507259978 -7.49655552371738e-18)
(6.75361938363403 0.753612308196454 6.83009337843842e-18)
(6.78822107705187 0.810639757486733 3.80275601901797e-18)
(6.82453242454107 0.866631384761187 -1.99273240849227e-19)
(6.8645641017093 0.920062877156418 0)
(6.91244205664709 0.966220956829106 1.97228190803236e-19)
(6.9714893905099 0.994997767274983 -1.94383978227488e-19)
(7.037465059899 1.00370692687283 1.92829824791969e-19)
(0.0335176229293268 1.005436901492 6.23205473779911e-18)
(0.0994845798312521 0.996859935230687 7.91882835045126e-18)
(0.15859742879664 0.968345126194287 1.61550746426862e-17)
(0.206590013784101 0.922463697616451 0)
(0.24673671411365 0.869289489571725 -3.43491199404983e-15)
(0.283161451031617 0.813550364386413 -2.91104737904033e-15)
(0.317875164403861 0.756772376690876 0)
(0.352123880188134 0.699721485331149 -1.87726484183253e-19)
(0.386757651037798 0.64289300503649 2.79774510106751e-18)
(0.422073519290525 0.586458555150196 9.25153503601696e-18)
(0.457989667068613 0.530379280461171 8.26841098454889e-18)
(0.494370611329722 0.474581576599742 -5.62416319441092e-18)
(0.531066025541902 0.418975196237764 1.89757038467182e-19)
(0.568033384452132 0.363538891679488 1.89974588632165e-19)
(0.605565889919664 0.308479979074505 -5.60934917898943e-18)
(0.64426069887138 0.254225216084935 -5.35198599825712e-18)
(0.684917559695434 0.201411247231915 1.90718096009438e-19)
(0.728647098656956 0.151115062880012 4.45432912007379e-18)
(0.776731071490471 0.104993519831039 -4.22471298159258e-18)
(0.830315092011639 0.0655065603643944 -1.83833533267356e-18)
(0.890022537922831 0.0365161583938853 1.92158807895313e-19)
(0.954731899358454 0.0226635963902555 0)
(1.02156329454891 0.0200854079127752 -1.72619854061424e-18)
(1.08860160669428 0.0200854079127751 3.4523970812282e-18)
(1.15563991883964 0.0200854079127753 0)
(1.222678230985 0.0200854079127752 7.48310406350967e-18)
(1.28971654313036 0.0200854079127753 5.56413555587816e-18)
(1.35675485527572 0.0200854079127752 7.48310406350965e-18)
(1.42379316742109 0.0200854079127753 7.48310406351015e-18)
(1.49083147956645 0.0200854079127752 7.48310406350966e-18)
(1.55786979171181 0.0200854079127754 2.71240865493635e-16)
(1.62490810385717 0.0200854079127754 2.79633321743968e-16)
(1.69194641600254 0.0200854079127753 0)
(1.7589847281479 0.0200854079127753 0)
(1.82602304029326 0.0200854079127752 -2.71433635460625e-16)
(1.89306135243863 0.0200854079127753 -2.80219434599382e-16)
(1.96009966458399 0.0200854079127753 -1.91896850763173e-18)
(2.02713797672935 0.0200854079127752 3.64516704824644e-18)
(2.09417628887471 0.0200854079127752 7.2903340964919e-18)
(2.16121460102007 0.0200854079127753 0)
(2.22825291316544 0.0200854079127752 -1.91896850763184e-18)
(2.2952912253108 0.0200854079127752 0)
(2.36232953745616 0.0200854079127752 7.48310406350963e-18)
(2.42936784960152 0.0200854079127753 3.64516704824619e-18)
(2.49640616174689 0.0200854079127752 7.48310406350967e-18)
(2.56344447389225 0.0200854079127753 0)
(2.63048278603761 0.0200854079127752 0)
(2.69752109818297 0.0200854079127753 -3.64516704824619e-18)
(2.76455941032834 0.0200854079127752 0)
(2.8315977224737 0.0200854079127752 -1.91896850763202e-18)
(2.89863603461906 0.0200854079127751 -5.75690552289578e-18)
(2.96567434676442 0.0200854079127752 3.83793701526403e-18)
(3.03271265890978 0.0200854079127752 0)
(3.09975097105515 0.0200854079127753 9.20930260412434e-18)
(3.16678928320051 0.0200854079127753 0)
(3.23382759534587 0.0200854079127753 0)
(3.30086590749123 0.0200854079127754 -3.64516704824635e-18)
(3.36790421963659 0.0200854079127754 5.37136558886025e-18)
(3.43494253178196 0.0200854079127754 0)
(3.50198084392732 0.0200854079127753 3.83793701526397e-18)
(3.56901915607268 0.0200854079127754 -3.6451670482464e-18)
(3.63605746821804 0.0200854079127754 -1.72619854061415e-18)
(3.70309578036341 0.0200854079127754 -5.56413555587804e-18)
(3.77013409250877 0.0200854079127754 0)
(3.83717240465413 0.0200854079127752 5.56413555587779e-18)
(3.9042107167995 0.0200854079127753 1.91896850763173e-18)
(3.97124902894486 0.0200854079127753 3.64516704824619e-18)
(4.03828734109022 0.0200854079127752 7.48310406350967e-18)
(4.10532565323559 0.0200854079127753 7.48310406351017e-18)
(4.17236396538095 0.0200854079127752 7.48310406350959e-18)
(4.23940227752631 0.0200854079127752 5.56413555587861e-18)
(4.30644058967167 0.0200854079127753 0)
(4.37347890181703 0.0200854079127752 0)
(4.44051721396239 0.0200854079127753 7.48310406351012e-18)
(4.50755552610775 0.0200854079127752 7.48310406350967e-18)
(4.57459383825312 0.0200854079127753 7.48310406351015e-18)
(4.64163215039848 0.0200854079127752 7.48310406350971e-18)
(4.70867046254384 0.0200854079127752 0)
(4.7757087746892 0.0200854079127752 0)
(4.84274708683457 0.0200854079127753 1.11282711117563e-17)
(4.90978539897993 0.0200854079127752 7.48310406350964e-18)
(4.97682371112529 0.0200854079127753 3.64516704824617e-18)
(5.04386202327065 0.0200854079127752 7.48310406350967e-18)
(5.11090033541601 0.0200854079127753 7.48310406351017e-18)
(5.17793864756138 0.0200854079127752 7.48310406350965e-18)
(5.24497695970674 0.0200854079127753 7.48310406351018e-18)
(5.3120152718521 0.0200854079127752 7.48310406350962e-18)
(5.37905358399746 0.0200854079127753 7.48310406351024e-18)
(5.44609189614282 0.0200854079127753 7.48310406351013e-18)
(5.51313020828819 0.0200854079127752 7.48310406350959e-18)
(5.58016852043355 0.0200854079127753 7.48310406351017e-18)
(5.64720683257891 0.0200854079127752 7.48310406350967e-18)
(5.71424514472427 0.0200854079127753 7.48310406351011e-18)
(5.78128345686963 0.0200854079127752 7.48310406350967e-18)
(5.848321769015 0.0200854079127753 7.48310406351018e-18)
(5.91536008116036 0.0200854079127752 7.48310406350967e-18)
(5.98239839330572 0.0200854079127753 7.4831040635101e-18)
(6.04943670545108 0.0200854079127752 -5.56413555587787e-18)
(6.11627320358568 0.0226184309041943 -5.32130883238125e-18)
(6.18100593437278 0.0363759377529313 0)
(6.24075172076048 0.0652835015400249 0)
(6.2943730807969 0.104717081477674 6.04612329480626e-18)
(6.34248860540147 0.150804882588438 -4.45135671373681e-18)
(6.38624246136679 0.201081073562018 2.45059543183421e-18)
(6.42691506857293 0.253883016964936 -5.73905149075186e-18)
(6.46561921831992 0.308130390514381 0)
(6.50315725954878 0.363185986087335 0)
(6.54012690011438 0.418620823586767 1.95653969216313e-19)
(6.57682395181733 0.474226349417759 3.42512227260559e-18)
(6.6132073508811 0.530022476553729 8.08108488978553e-18)
(6.64912687009293 0.586099632177004 4.33936259174561e-18)
(6.684446963148 0.642531632507857 0)
(6.71908477279916 0.699357867383801 1.97606364432851e-19)
(6.75333360812389 0.756408230449126 -7.94019841501408e-18)
(6.78804032631664 0.813189339467454 -1.08046292287554e-17)
(6.82444934142956 0.868938894322019 -1.09904408168226e-17)
(6.86456267898556 0.922138925570663 -1.37223784948569e-17)
(6.91248870782372 0.968096580272412 -1.95335641141755e-17)
(6.97153660584346 0.996748747074165 2.89808199122883e-18)
(7.03748263252363 1.00542026941212 0)
(0.0334994035591582 1.00721293371333 -1.45725283327756e-18)
(0.0994355313056783 0.998674558237603 -4.66552937493276e-18)
(0.158548676155182 0.97028833441477 -6.46513363439952e-18)
(0.206590800831025 0.924614319001075 1.52889192504119e-17)
(0.246822002942139 0.871679932278732 3.1079390690807e-17)
(0.28334791432893 0.816191702314955 -8.72660007176989e-18)
(0.318170468296444 0.759669069039218 1.87068337097672e-19)
(0.352530095840706 0.702874686647626 0)
(0.387273043826363 0.646301741561744 6.80708765448476e-18)
(0.422695041030343 0.590121136607741 4.18336542331358e-18)
(0.458714637126816 0.534294165985957 1.881602644658e-17)
(0.495196955906803 0.478747537011836 0)
(0.531992344726188 0.4233913964622 -6.47336781930365e-18)
(0.569058462021555 0.368204575285629 0)
(0.606687179219867 0.31339343925096 -2.79519309948192e-18)
(0.645472963175115 0.259382826523864 0)
(0.686211958809585 0.206806519008225 4.53859195816891e-18)
(0.730009785632366 0.156736665286944 -4.48743923146138e-18)
(0.778142426638723 0.110822679503536 -4.08281840678162e-18)
(0.831750326783723 0.0715134405370106 -3.73999152156468e-18)
(0.891454031194585 0.0426535387311399 -3.51014706137475e-18)
(0.956137075974365 0.0288633469886504 0)
(1.02293280021322 0.0262967662869611 0)
(1.08993459220753 0.026296766286961 0)
(1.15693638420185 0.0262967662869612 -3.52498105910061e-18)
(1.22393817619616 0.0262967662869611 0)
(1.29093996819047 0.026296766286961 0)
(1.35794176018479 0.0262967662869611 -1.85887593923874e-18)
(1.4249435521791 0.0262967662869612 0)
(1.49194534417342 0.0262967662869612 1.92770819376742e-19)
(1.55894713616773 0.0262967662869611 -2.5832885177735e-16)
(1.62594892816205 0.0262967662869611 -2.59484214510015e-16)
(1.69295072015636 0.026296766286961 1.66610511986204e-18)
(1.75995251215067 0.0262967662869611 0)
(1.82695430414499 0.0262967662869612 2.72236005194367e-16)
(1.8939560961393 0.0262967662869612 2.65619430206188e-16)
(1.96095788813362 0.0262967662869611 -5.19108617896229e-18)
(2.02795968012794 0.0262967662869612 -1.92770819376736e-19)
(2.09496147212225 0.026296766286961 3.3322102397242e-18)
(2.16196326411656 0.0262967662869611 3.52498105910072e-18)
(2.22896505611088 0.0262967662869611 -1.92770819376742e-19)
(2.29596684810519 0.0262967662869611 -3.52498105910073e-18)
(2.3629686400995 0.0262967662869611 0)
(2.42997043209382 0.0262967662869612 -1.92770819376742e-19)
(2.49697222408813 0.0262967662869612 -3.71775187847737e-18)
(2.56397401608245 0.0262967662869611 1.92770819376743e-19)
(2.63097580807676 0.026296766286961 5.38385699833983e-18)
(2.69797760007107 0.0262967662869611 1.666105119862e-18)
(2.76497939206539 0.0262967662869611 3.52498105910072e-18)
(2.8319811840597 0.026296766286961 1.92770819376744e-19)
(2.89898297605401 0.0262967662869611 0)
(2.96598476804833 0.0262967662869611 -8.90883805744005e-18)
(3.03298656004264 0.026296766286961 0)
(3.09998835203696 0.026296766286961 0)
(3.16699014403127 0.0262967662869612 1.85887593923867e-18)
(3.23399193602559 0.0262967662869611 0)
(3.3009937280199 0.026296766286961 0)
(3.36799552001421 0.0262967662869611 1.666105119862e-18)
(3.43499731200853 0.0262967662869611 3.52498105910074e-18)