/*--------------------------------*- C++ -*----------------------------------*\
  =========                 |
  \\      /  F ield         | OpenFOAM: The Open Source CFD Toolbox
   \\    /   O peration     | Website:  https://openfoam.org
    \\  /    A nd           | Version:  7
     \\/     M anipulation  |
\*---------------------------------------------------------------------------*/
FoamFile
{
    version     2.0;
    format      ascii;
    class       volScalarField;
    location    "20000";
    object      Cy;
}
// * * * * * * * * * * * * * * * * * * * * * * * * * * * * * * * * * * * * * //

dimensions      [0 1 0 0 0 0 0];

internalField   nonuniform List<scalar> 
15600
(
1.00047658303879
0.991791836953714
0.962917889843891
0.916457114884821
0.86261306782839
0.806173212220935
0.7486820580008
0.690914780687017
0.633372630568071
0.576229224602957
0.519445292847842
0.462946362156036
0.406641085501568
0.350507996603683
0.294757066776456
0.239820414434814
0.186342678798564
0.135414372439325
0.0887131383609553
0.0487298181423495
0.0193749375029929
0.00534817974792023
0.00273757197730317
0.00273757197730322
0.00273757197730311
0.00273757197730304
0.00273757197730315
0.00273757197730301
0.00273757197730318
0.00273757197730298
0.00273757197730308
0.00273757197730316
0.00273757197730314
0.00273757197730296
0.00273757197730312
0.00273757197730313
0.00273757197730311
0.00273757197730305
0.00273757197730311
0.00273757197730319
0.00273757197730323
0.00273757197730313
0.00273757197730329
0.00273757197730315
0.00273757197730317
0.00273757197730311
0.00273757197730308
0.00273757197730314
0.0027375719773031
0.00273757197730309
0.00273757197730296
0.00273757197730311
0.00273757197730303
0.00273757197730302
0.00273757197730316
0.00273757197730316
0.00273757197730311
0.00273757197730305
0.00273757197730311
0.00273757197730311
0.00273757197730304
0.00273757197730318
0.00273757197730305
0.00273757197730304
0.00273757197730329
0.00273757197730309
0.00273757197730308
0.00273757197730314
0.00273757197730316
0.00273757197730298
0.00273757197730312
0.0027375719773031
0.00273757197730317
0.00273757197730308
0.00273757197730302
0.00273757197730311
0.00273757197730322
0.00273757197730323
0.00273757197730312
0.00273757197730314
0.00273757197730316
0.00273757197730317
0.00273757197730305
0.00273757197730311
0.00273757197730322
0.00273757197730306
0.00273757197730308
0.00273757197730316
0.00273757197730323
0.00273757197730311
0.00273757197730305
0.00273757197730311
0.00273757197730305
0.0027375719773031
0.00273757197730305
0.00273757197730299
0.00273757197730312
0.00273757197730315
0.00530244630728036
0.0192329537707881
0.0485039551887597
0.0884332253717491
0.135100293811475
0.186008355770666
0.23947391459923
0.294403084737121
0.350150655678333
0.406282259097265
0.462586670907301
0.519084005725137
0.575865792782079
0.633006719964093
0.690546598262529
0.748313340503373
0.80580765334812
0.862258064323624
0.916128247495601
0.962666207353306
0.991679251452267
1.00045974187459
1.00207090485639
0.993420800652677
0.964662287540057
0.918387732641863
0.864758988014156
0.808544357793456
0.751282423179654
0.693745399415648
0.63643263041137
0.579517091636189
0.522959646031558
0.466686099407664
0.410605458035199
0.354696325718348
0.29916782022776
0.244450336991223
0.191185945669804
0.140460812673799
0.0939459000947686
0.0541221179914012
0.0248843866558729
0.0109136181477337
0.00831343038112118
0.00831343038112111
0.00831343038112119
0.00831343038112112
0.00831343038112105
0.00831343038112112
0.00831343038112104
0.00831343038112099
0.00831343038112109
0.00831343038112118
0.00831343038112108
0.00831343038112113
0.00831343038112105
0.0083134303811213
0.00831343038112105
0.00831343038112106
0.00831343038112115
0.00831343038112117
0.00831343038112111
0.00831343038112128
0.00831343038112116
0.00831343038112123
0.00831343038112118
0.00831343038112117
0.00831343038112114
0.00831343038112108
0.00831343038112125
0.00831343038112099
0.00831343038112106
0.00831343038112112
0.00831343038112104
0.00831343038112104
0.00831343038112105
0.00831343038112125
0.00831343038112112
0.008313430381121
0.00831343038112119
0.00831343038112105
0.00831343038112117
0.00831343038112117
0.008313430381121
0.00831343038112119
0.00831343038112116
0.00831343038112118
0.00831343038112109
0.00831343038112115
0.00831343038112111
0.00831343038112114
0.00831343038112099
0.00831343038112118
0.00831343038112124
0.00831343038112108
0.00831343038112109
0.00831343038112112
0.00831343038112124
0.00831343038112116
0.0083134303811212
0.00831343038112122
0.00831343038112111
0.00831343038112118
0.00831343038112106
0.00831343038112112
0.00831343038112122
0.0083134303811213
0.00831343038112112
0.0083134303811211
0.00831343038112116
0.00831343038112105
0.00831343038112107
0.00831343038112108
0.00831343038112122
0.00831343038112111
0.008313430381121
0.00831343038112108
0.00831343038112104
0.00831343038112115
0.0108680672557731
0.0247429696098407
0.0538971563295625
0.0936671039071314
0.140147987029531
0.190852956306074
0.244105219467788
0.298815250315411
0.354340410372449
0.410248063130485
0.466327842971781
0.522599799873631
0.579155109014417
0.636068178393487
0.693378684053713
0.750915174922313
0.808180256179603
0.864405401392148
0.918060181610201
0.964411613226038
0.99330866427658
1.00205413089501
1.00372363116951
0.995109438070446
0.966470586069909
0.920389063660685
0.866983502598549
0.811002348435221
0.753978033360213
0.696679701786787
0.639604720005332
0.582925397920711
0.526602736645318
0.470562831447338
0.414715054999785
0.359038083931113
0.303740151334201
0.249249866491376
0.196206635315698
0.145692118762238
0.0993703531804606
0.0597119533047428
0.0305956624675504
0.0166829341678931
0.0140935481693424
0.0140935481693425
0.0140935481693423
0.0140935481693425
0.0140935481693424
0.0140935481693425
0.0140935481693423
0.0140935481693424
0.0140935481693424
0.0140935481693426
0.0140935481693426
0.0140935481693424
0.0140935481693425
0.0140935481693423
0.0140935481693425
0.0140935481693424
0.0140935481693424
0.0140935481693424
0.0140935481693424
0.0140935481693423
0.0140935481693425
0.0140935481693424
0.0140935481693425
0.0140935481693424
0.0140935481693425
0.0140935481693424
0.0140935481693424
0.0140935481693424
0.0140935481693425
0.0140935481693424
0.0140935481693424
0.0140935481693424
0.0140935481693424
0.0140935481693425
0.0140935481693426
0.0140935481693426
0.0140935481693425
0.0140935481693426
0.0140935481693426
0.0140935481693426
0.0140935481693426
0.0140935481693424
0.0140935481693425
0.0140935481693425
0.0140935481693423
0.0140935481693425
0.0140935481693424
0.0140935481693424
0.0140935481693424
0.0140935481693425
0.0140935481693423
0.0140935481693424
0.0140935481693425
0.0140935481693423
0.0140935481693425
0.0140935481693424
0.0140935481693425
0.0140935481693423
0.0140935481693425
0.0140935481693424
0.0140935481693424
0.0140935481693424
0.0140935481693425
0.0140935481693424
0.0140935481693425
0.0140935481693424
0.0140935481693423
0.0140935481693423
0.0140935481693424
0.0140935481693425
0.0140935481693423
0.0140935481693425
0.0140935481693424
0.0140935481693424
0.0140935481693424
0.0140935481693425
0.0166375725124462
0.0304548328651813
0.059487925949552
0.0990927147052293
0.145380592002883
0.195875028474614
0.248906181921367
0.303389045283101
0.358683646391761
0.414359144039024
0.470206062391659
0.526244384247584
0.582564917599436
0.639241780026072
0.696314507259978
0.753612308196454
0.810639757486733
0.866631384761187
0.920062877156418
0.966220956829106
0.994997767274983
1.00370692687283
1.005436901492
0.996859935230687
0.968345126194287
0.922463697616451
0.869289489571725
0.813550364386413
0.756772376690876
0.699721485331149
0.64289300503649
0.586458555150196
0.530379280461171
0.474581576599742
0.418975196237764
0.363538891679488
0.308479979074505
0.254225216084935
0.201411247231915
0.151115062880012
0.104993519831039
0.0655065603643944
0.0365161583938853
0.0226635963902555
0.0200854079127752
0.0200854079127751
0.0200854079127753
0.0200854079127752
0.0200854079127753
0.0200854079127752
0.0200854079127753
0.0200854079127752
0.0200854079127754
0.0200854079127754
0.0200854079127753
0.0200854079127753
0.0200854079127752
0.0200854079127753
0.0200854079127753
0.0200854079127752
0.0200854079127752
0.0200854079127753
0.0200854079127752
0.0200854079127752
0.0200854079127752
0.0200854079127753
0.0200854079127752
0.0200854079127753
0.0200854079127752
0.0200854079127753
0.0200854079127752
0.0200854079127752
0.0200854079127751
0.0200854079127752
0.0200854079127752
0.0200854079127753
0.0200854079127753
0.0200854079127753
0.0200854079127754
0.0200854079127754
0.0200854079127754
0.0200854079127753
0.0200854079127754
0.0200854079127754
0.0200854079127754
0.0200854079127754
0.0200854079127752
0.0200854079127753
0.0200854079127753
0.0200854079127752
0.0200854079127753
0.0200854079127752
0.0200854079127752
0.0200854079127753
0.0200854079127752
0.0200854079127753
0.0200854079127752
0.0200854079127753
0.0200854079127752
0.0200854079127752
0.0200854079127752
0.0200854079127753
0.0200854079127752
0.0200854079127753
0.0200854079127752
0.0200854079127753
0.0200854079127752
0.0200854079127753
0.0200854079127752
0.0200854079127753
0.0200854079127753
0.0200854079127752
0.0200854079127753
0.0200854079127752
0.0200854079127753
0.0200854079127752
0.0200854079127753
0.0200854079127752
0.0200854079127753
0.0200854079127752
0.0226184309041943
0.0363759377529313
0.0652835015400249
0.104717081477674
0.150804882588438
0.201081073562018
0.253883016964936
0.308130390514381
0.363185986087335
0.418620823586767
0.474226349417759
0.530022476553729
0.586099632177004
0.642531632507857
0.699357867383801
0.756408230449126
0.813189339467454
0.868938894322019
0.922138925570663
0.968096580272412
0.996748747074165
1.00542026941212
1.00721293371333
0.998674558237603
0.97028833441477
0.924614319001075
0.871679932278732
0.816191702314955
0.759669069039218
0.702874686647626
0.646301741561744
0.590121136607741
0.534294165985957
0.478747537011836
0.4233913964622
0.368204575285629
0.31339343925096
0.259382826523864
0.206806519008225
0.156736665286944
0.110822679503536
0.0715134405370106
0.0426535387311399
0.0288633469886504
0.0262967662869611
0.026296766286961
0.0262967662869612
0.0262967662869611
0.026296766286961
0.0262967662869611
0.0262967662869612
0.0262967662869612
0.0262967662869611
0.0262967662869611
0.026296766286961
0.0262967662869611
0.0262967662869612
0.0262967662869612
0.0262967662869611
0.0262967662869612
0.026296766286961
0.0262967662869611
0.0262967662869611
0.0262967662869611
0.0262967662869611
0.0262967662869612
0.0262967662869612
0.0262967662869611
0.026296766286961
0.0262967662869611
0.0262967662869611
0.026296766286961
0.0262967662869611
0.0262967662869611
0.026296766286961
0.026296766286961
0.0262967662869612
0.0262967662869611
0.026296766286961
0.0262967662869611
0.0262967662869611
0.026296766286961
0.026296766286961
0.0262967662869611
0.0262967662869611
0.026296766286961
0.0262967662869612
0.0262967662869611
0.0262967662869611
0.026296766286961
0.026296766286961
0.0262967662869611
0.0262967662869612
0.026296766286961
0.026296766286961
0.026296766286961
0.0262967662869611
0.0262967662869612
0.0262967662869611
0.0262967662869611
0.0262967662869611
0.026296766286961
0.0262967662869609
0.026296766286961
0.0262967662869611
0.0262967662869612
0.0262967662869612
0.0262967662869612
0.0262967662869611
0.026296766286961
0.0262967662869611
0.0262967662869611
0.0262967662869612
0.0262967662869612
0.026296766286961
0.026296766286961
0.0262967662869611
0.0262967662869612
0.0262967662869612
0.0262967662869611
0.0288183848588642
0.0425139493574536
0.0712913857211999
0.110547485235007
0.156427880789186
0.206477831013638
0.25904216727382
0.313045423776466
0.367853257764929
0.423038618478722
0.478393908193714
0.533938967304483
0.5897638280477
0.645941993927089
0.702512703068311
0.759306559595048
0.815832300819546
0.871330915390521
0.924291013170178
0.970040911455882
0.998563870403402
1.00719637649581
1.00905402696958
1.00055565620946
0.972302726114025
0.926843710593523
0.874157923274515
0.818929779577359
0.762671858667039
0.706143386494868
0.649835341514817
0.593917883083825
0.538352460787895
0.48306610538592
0.42796937239473
0.373041174497908
0.318486892431868
0.264729374499946
0.212399435050466
0.162564203415352
0.116865378322613
0.0777403699845814
0.0490157485373785
0.035290211751035
0.0327356641131403
0.0327356641131404
0.0327356641131406
0.0327356641131404
0.0327356641131404
0.0327356641131403
0.0327356641131405
0.0327356641131404
0.0327356641131404
0.0327356641131405
0.0327356641131405
0.0327356641131404
0.0327356641131404
0.0327356641131405
0.0327356641131404
0.0327356641131404
0.0327356641131405
0.0327356641131405
0.0327356641131403
0.0327356641131403
0.0327356641131404
0.0327356641131404
0.0327356641131405
0.0327356641131405
0.0327356641131405
0.0327356641131403
0.0327356641131404
0.0327356641131405
0.0327356641131406
0.0327356641131404
0.0327356641131404
0.0327356641131405
0.0327356641131404
0.0327356641131405
0.0327356641131404
0.0327356641131404
0.0327356641131403
0.0327356641131403
0.0327356641131402
0.0327356641131404
0.0327356641131404
0.0327356641131404
0.0327356641131405
0.0327356641131405
0.0327356641131404
0.0327356641131404
0.0327356641131405
0.0327356641131405
0.0327356641131403
0.0327356641131403
0.0327356641131404
0.0327356641131402
0.0327356641131404
0.0327356641131404
0.0327356641131405
0.0327356641131402
0.0327356641131403
0.0327356641131402
0.0327356641131403
0.0327356641131404
0.0327356641131403
0.0327356641131405
0.0327356641131405
0.0327356641131405
0.0327356641131403
0.0327356641131405
0.0327356641131404
0.0327356641131404
0.0327356641131404
0.0327356641131405
0.0327356641131404
0.0327356641131403
0.0327356641131404
0.0327356641131405
0.0327356641131403
0.0327356641131403
0.0352454604277402
0.048876813553772
0.077519355954534
0.116591473712311
0.162256865844506
0.21207228715889
0.264390311533598
0.318140507674574
0.372691503229236
0.427618247501392
0.482714133491738
0.537998926147098
0.593562248093486
0.649477278323389
0.705783097191321
0.762311046018589
0.818572061003605
0.873810542564595
0.92652192462599
0.972056467211493
1.00044548702898
1.00903754735692
1.01096256461969
1.00250566431967
0.974390908811178
0.929154757056987
0.876726668320073
0.821768138635333
0.765784631076525
0.709531815069311
0.653498378414267
0.59785370901095
0.54255941805489
0.48754287195925
0.432715050164952
0.378054950308737
0.323766932184948
0.270271781287661
0.218197235622028
0.168605221291021
0.123129438849343
0.0841954097308599
0.0556110239172932
0.0419525104687665
0.0394104367670244
0.0394104367670244
0.0394104367670244
0.0394104367670245
0.0394104367670244
0.0394104367670246
0.0394104367670244
0.0394104367670244
0.0394104367670244
0.0394104367670247
0.0394104367670245
0.0394104367670244
0.0394104367670245
0.0394104367670243
0.0394104367670245
0.0394104367670245
0.0394104367670245
0.0394104367670244
0.0394104367670244
0.0394104367670243
0.0394104367670244
0.0394104367670245
0.0394104367670245
0.0394104367670245
0.0394104367670245
0.0394104367670245
0.0394104367670243
0.0394104367670245
0.0394104367670245
0.0394104367670246
0.0394104367670245
0.0394104367670246
0.0394104367670245
0.0394104367670243
0.0394104367670244
0.0394104367670243
0.0394104367670245
0.0394104367670244
0.0394104367670244
0.0394104367670245
0.0394104367670244
0.0394104367670244
0.0394104367670243
0.0394104367670245
0.0394104367670247
0.0394104367670245
0.0394104367670246
0.0394104367670245
0.0394104367670245
0.0394104367670244
0.0394104367670244
0.0394104367670247
0.0394104367670245
0.0394104367670245
0.0394104367670243
0.0394104367670243
0.0394104367670243
0.0394104367670244
0.0394104367670244
0.0394104367670244
0.0394104367670246
0.0394104367670246
0.0394104367670245
0.0394104367670243
0.0394104367670245
0.0394104367670245
0.0394104367670247
0.0394104367670244
0.0394104367670245
0.0394104367670244
0.0394104367670245
0.0394104367670245
0.0394104367670245
0.0394104367670244
0.0394104367670243
0.0394104367670244
0.0419079776751563
0.0554727672934547
0.083975474610846
0.122856871140051
0.168299383653383
0.217871684255252
0.26993437308566
0.323422237887943
0.377706985604339
0.432365638924976
0.487192617694782
0.542207608424813
0.597499808915005
0.65314206139841
0.709173282146172
0.765425577422253
0.821412164662758
0.876380983723027
0.928834546562502
0.97414585656053
1.00239603279608
1.01094616545486
1.01294101733068
1.00452710694922
0.976555585536371
0.931550448667723
0.879389490524729
0.824710451634093
0.7690114140337
0.713044357476364
0.657295593280496
0.60193370882292
0.546920483392998
0.492183631739295
0.437634572980827
0.383252393058718
0.329240393612324
0.276017221703693
0.224207426216546
0.174867539299296
0.129622970207883
0.090886916096541
0.0624479026837666
0.0488588677064343
0.0463297249688446
0.0463297249688445
0.0463297249688446
0.0463297249688445
0.0463297249688445
0.0463297249688445
0.0463297249688446
0.0463297249688445
0.0463297249688447
0.0463297249688446
0.0463297249688446
0.0463297249688446
0.0463297249688445
0.0463297249688446
0.0463297249688446
0.0463297249688446
0.0463297249688447
0.0463297249688445
0.0463297249688447
0.0463297249688446
0.0463297249688445
0.0463297249688447
0.0463297249688447
0.0463297249688447
0.0463297249688446
0.0463297249688445
0.0463297249688446
0.0463297249688446
0.0463297249688445
0.0463297249688446
0.0463297249688447
0.0463297249688446
0.0463297249688446
0.0463297249688446
0.0463297249688445
0.0463297249688446
0.0463297249688446
0.0463297249688448
0.0463297249688447
0.0463297249688446
0.0463297249688447
0.0463297249688446
0.0463297249688446
0.0463297249688446
0.0463297249688448
0.0463297249688446
0.0463297249688445
0.0463297249688446
0.0463297249688447
0.0463297249688446
0.0463297249688445
0.0463297249688447
0.0463297249688448
0.0463297249688447
0.0463297249688446
0.0463297249688446
0.0463297249688444
0.0463297249688446
0.0463297249688445
0.0463297249688447
0.0463297249688447
0.0463297249688445
0.0463297249688447
0.0463297249688446
0.0463297249688445
0.0463297249688446
0.0463297249688447
0.0463297249688446
0.0463297249688447
0.0463297249688446
0.0463297249688446
0.0463297249688447
0.0463297249688445
0.0463297249688446
0.0463297249688446
0.0463297249688446
0.0488145614486836
0.0623103492672633
0.0906680994072138
0.12935178837295
0.174563256543044
0.223883529863486
0.275681528889263
0.328897451707683
0.382906197440612
0.437286938176384
0.49183515803472
0.546570461977933
0.601581607193727
0.656941086435724
0.712687645315995
0.768654183853045
0.824356286203539
0.879045564170504
0.931231871288639
0.976311784090279
1.00441803278208
1.01292470156079
1.01499194627588
1.00662260095464
0.978799558328913
0.93403388518025
0.882149834639904
0.827760525148122
0.772356382775761
0.716685559401864
0.66123190076938
0.606163163546987
0.551441301873878
0.496994392003975
0.442734309080016
0.388640230837659
0.33491436219812
0.281973133394613
0.230437787273932
0.181359264308908
0.136354378583095
0.0978235515166967
0.0695352354099764
0.0560182239661928
0.0535024859686462
0.0535024859686462
0.0535024859686461
0.053502485968646
0.0535024859686461
0.0535024859686461
0.053502485968646
0.0535024859686462
0.0535024859686461
0.0535024859686462
0.0535024859686461
0.0535024859686461
0.0535024859686462
0.0535024859686462
0.0535024859686461
0.053502485968646
0.0535024859686462
0.0535024859686463
0.0535024859686462
0.0535024859686461
0.053502485968646
0.0535024859686461
0.0535024859686463
0.0535024859686462
0.0535024859686461
0.053502485968646
0.0535024859686462
0.0535024859686462
0.0535024859686462
0.0535024859686461
0.0535024859686462
0.0535024859686462
0.0535024859686461
0.0535024859686462
0.0535024859686461
0.0535024859686461
0.0535024859686461
0.0535024859686461
0.0535024859686461
0.0535024859686462
0.0535024859686462
0.0535024859686462
0.0535024859686461
0.0535024859686462
0.0535024859686462
0.0535024859686462
0.0535024859686461
0.0535024859686461
0.0535024859686462
0.0535024859686461
0.0535024859686462
0.0535024859686461
0.0535024859686462
0.0535024859686461
0.0535024859686462
0.0535024859686461
0.0535024859686462
0.0535024859686461
0.053502485968646
0.0535024859686462
0.0535024859686461
0.0535024859686462
0.0535024859686462
0.0535024859686462
0.0535024859686461
0.0535024859686461
0.0535024859686462
0.0535024859686463
0.053502485968646
0.0535024859686461
0.0535024859686461
0.0535024859686462
0.0535024859686462
0.053502485968646
0.053502485968646
0.0535024859686462
0.0559741525438291
0.0693984109584047
0.0976058942262464
0.136084633389808
0.181056593395209
0.230115606566371
0.281639218812122
0.334573236887023
0.388295869118631
0.44238851579365
0.496647764095336
0.551093134194325
0.60581292628696
0.660879270437428
0.716330734747645
0.77200104291305
0.827408234544771
0.881807730934319
0.933717000665794
0.978557053453786
1.00651410456548
1.01497571695602
1.01711800645036
1.00879485905566
0.981125731863523
0.936608279834011
0.885011271509995
0.830922305100559
0.775823865408943
0.720460132991123
0.665312395530466
0.610547547637391
0.556127725340303
0.501981380076581
0.448020859972447
0.394225438193264
0.34079618298017
0.288147226464785
0.236896384252322
0.188088800166703
0.143332378102726
0.105014295754484
0.0768821968863381
0.0634398472610444
0.0609380051413016
0.0609380051413017
0.0609380051413016
0.0609380051413014
0.0609380051413016
0.0609380051413017
0.0609380051413017
0.0609380051413015
0.0609380051413016
0.0609380051413017
0.0609380051413016
0.0609380051413016
0.0609380051413017
0.0609380051413017
0.0609380051413016
0.0609380051413016
0.0609380051413016
0.0609380051413017
0.0609380051413017
0.0609380051413016
0.0609380051413017
0.0609380051413016
0.0609380051413017
0.0609380051413016
0.0609380051413016
0.0609380051413017
0.0609380051413017
0.0609380051413016
0.0609380051413016
0.0609380051413016
0.0609380051413018
0.0609380051413016
0.0609380051413017
0.0609380051413017
0.0609380051413017
0.0609380051413017
0.0609380051413016
0.0609380051413016
0.0609380051413016
0.0609380051413017
0.0609380051413016
0.0609380051413016
0.0609380051413018
0.0609380051413016
0.0609380051413017
0.0609380051413018
0.0609380051413017
0.0609380051413016
0.0609380051413017
0.0609380051413018
0.0609380051413016
0.0609380051413014
0.0609380051413016
0.0609380051413018
0.0609380051413016
0.0609380051413015
0.0609380051413017
0.0609380051413016
0.0609380051413017
0.0609380051413015
0.0609380051413016
0.0609380051413017
0.0609380051413017
0.0609380051413016
0.0609380051413018
0.0609380051413017
0.0609380051413017
0.0609380051413016
0.0609380051413017
0.0609380051413016
0.0609380051413016
0.0609380051413017
0.0609380051413015
0.0609380051413016
0.0609380051413017
0.0609380051413017
0.0633960192776997
0.0767461281006417
0.104797840331633
0.143064122178021
0.187787800143485
0.23657598204345
0.28781515526111
0.340456940816098
0.393882977560776
0.447676975671271
0.501636665590372
0.55578147931783
0.610199243064426
0.664961710485343
0.720107265034348
0.77547048516001
0.830571958039909
0.884671057217884
0.936293150117299
0.98088457099852
1.00868696161434
1.01710186674755
1.01932195010775
1.01104669334693
0.983537117209388
0.939276963506531
0.887977502686049
0.834199881862613
0.779418348503943
0.724372962943196
0.669542358797945
0.615092536059081
0.560985819979227
0.507151051385457
0.453501068984768
0.400015245158836
0.346893470057645
0.294547493456947
0.243591578068979
0.195064858576789
0.150566002118246
0.112468457525616
0.0844982979971201
0.0711333451120493
0.0686459080062509
0.0686459080062509
0.0686459080062508
0.068645908006251
0.0686459080062509
0.0686459080062509
0.0686459080062508
0.068645908006251
0.0686459080062509
0.0686459080062509
0.0686459080062509
0.0686459080062509
0.0686459080062509
0.0686459080062509
0.0686459080062509
0.068645908006251
0.0686459080062509
0.0686459080062509
0.0686459080062509
0.0686459080062511
0.068645908006251
0.0686459080062509
0.0686459080062508
0.068645908006251
0.0686459080062509
0.0686459080062509
0.0686459080062509
0.068645908006251
0.0686459080062509
0.0686459080062509
0.0686459080062509
0.0686459080062509
0.0686459080062509
0.0686459080062509
0.068645908006251
0.068645908006251
0.0686459080062509
0.0686459080062509
0.0686459080062509
0.0686459080062509
0.0686459080062509
0.068645908006251
0.0686459080062509
0.0686459080062509
0.0686459080062509
0.0686459080062509
0.0686459080062509
0.0686459080062509
0.068645908006251
0.068645908006251
0.0686459080062509
0.0686459080062509
0.0686459080062509
0.0686459080062509
0.0686459080062509
0.0686459080062509
0.068645908006251
0.0686459080062509
0.0686459080062509
0.068645908006251
0.0686459080062508
0.0686459080062509
0.0686459080062509
0.068645908006251
0.0686459080062508
0.0686459080062509
0.0686459080062509
0.0686459080062511
0.0686459080062508
0.0686459080062509
0.068645908006251
0.0686459080062509
0.0686459080062508
0.0686459080062509
0.068645908006251
0.0686459080062509
0.0710897694866053
0.0843630125561264
0.112253247994578
0.150299290016839
0.194765590655179
0.243273019514774
0.294217333165824
0.346556180032571
0.399674755262113
0.453159163607907
0.506808320426118
0.560641566024564
0.614746234995165
0.669193690335088
0.724022123412796
0.779066999706147
0.833851549579587
0.887639247017942
0.938963652784189
0.983297349527367
1.01093941679918
1.01930590330501
1.02160663032296
1.01338101893845
0.986036835726808
0.942043389018583
0.891052365208233
0.837597495539516
0.783144482896095
0.728429112828186
0.673927265222932
0.619804011630877
0.566021874172181
0.51251009781884
0.45918203011775
0.406017146611616
0.353214116446966
0.301182219698387
0.250532035923668
0.20229647037824
0.158064614898918
0.120195686548668
0.0923933980320993
0.0791086769849894
0.0766361726875244
0.0766361726875244
0.0766361726875246
0.0766361726875243
0.0766361726875243
0.0766361726875244
0.0766361726875245
0.0766361726875244
0.0766361726875244
0.0766361726875244
0.0766361726875242
0.0766361726875243
0.0766361726875244
0.0766361726875246
0.0766361726875244
0.0766361726875243
0.0766361726875243
0.0766361726875243
0.0766361726875245
0.0766361726875244
0.0766361726875243
0.0766361726875243
0.0766361726875243
0.0766361726875243
0.0766361726875244
0.0766361726875244
0.0766361726875244
0.0766361726875244
0.0766361726875243
0.0766361726875243
0.0766361726875244
0.0766361726875245
0.0766361726875243
0.0766361726875243
0.0766361726875244
0.0766361726875244
0.0766361726875243
0.0766361726875244
0.0766361726875244
0.0766361726875243
0.0766361726875244
0.0766361726875242
0.0766361726875244
0.0766361726875244
0.0766361726875245
0.0766361726875243
0.0766361726875243
0.0766361726875245
0.0766361726875244
0.0766361726875243
0.0766361726875244
0.0766361726875245
0.0766361726875242
0.0766361726875243
0.0766361726875243
0.0766361726875245
0.0766361726875244
0.0766361726875243
0.0766361726875243
0.0766361726875243
0.0766361726875244
0.0766361726875243
0.0766361726875244
0.0766361726875243
0.0766361726875243
0.0766361726875243
0.0766361726875244
0.0766361726875244
0.0766361726875245
0.0766361726875244
0.0766361726875244
0.0766361726875244
0.0766361726875245
0.0766361726875243
0.0766361726875244
0.0766361726875244
0.0790653629631327
0.0922589246283277
0.119981768546103
0.157799503173892
0.201998998011816
0.250215388567276
0.300854040327915
0.352878850080733
0.405678699651757
0.458842176166938
0.512169423059677
0.565679685276332
0.619459787493869
0.673580687251812
0.728080376083902
0.782795240021634
0.837251251880956
0.890716139909695
0.941731963833354
0.985798512197544
1.01327438603429
1.0215906798236
1.02397500468544
1.01580085772933
0.988628123106543
0.94491113559682
0.894239836563229
0.841119541449921
0.787007089697859
0.732633831635817
0.678472789955886
0.624688072637473
0.571242406633142
0.518065456385703
0.465071097228095
0.412238911973905
0.359766304298716
0.308059994026093
0.257726742518516
0.209792997235916
0.165837923754259
0.128205986036807
0.100577717449192
0.0873761671825825
0.084919142830175
0.084919142830175
0.0849191428301748
0.0849191428301749
0.0849191428301749
0.084919142830175
0.0849191428301749
0.084919142830175
0.084919142830175
0.0849191428301749
0.0849191428301749
0.0849191428301749
0.0849191428301749
0.0849191428301751
0.0849191428301749
0.084919142830175
0.084919142830175
0.0849191428301749
0.084919142830175
0.084919142830175
0.084919142830175
0.0849191428301748
0.0849191428301749
0.0849191428301748
0.0849191428301749
0.084919142830175
0.0849191428301749
0.0849191428301749
0.0849191428301749
0.084919142830175
0.0849191428301751
0.0849191428301749
0.084919142830175
0.084919142830175
0.084919142830175
0.0849191428301747
0.084919142830175
0.0849191428301751
0.0849191428301751
0.084919142830175
0.0849191428301747
0.0849191428301749
0.084919142830175
0.0849191428301751
0.0849191428301749
0.0849191428301749
0.0849191428301748
0.084919142830175
0.0849191428301751
0.0849191428301751
0.0849191428301749
0.084919142830175
0.0849191428301749
0.0849191428301748
0.084919142830175
0.0849191428301749
0.084919142830175
0.0849191428301749
0.0849191428301749
0.0849191428301749
0.084919142830175
0.0849191428301749
0.0849191428301751
0.084919142830175
0.0849191428301748
0.0849191428301749
0.0849191428301749
0.084919142830175
0.0849191428301748
0.084919142830175
0.084919142830175
0.0849191428301749
0.084919142830175
0.084919142830175
0.084919142830175
0.084919142830175
0.0873331243487828
0.100444085825962
0.127993406870869
0.16557447103029
0.209497386202877
0.257412076377724
0.307733868149359
0.359433135731649
0.41190258279749
0.464733369861535
0.517726913163016
0.570902358462092
0.624346001536292
0.678128379095818
0.732287274764712
0.786660029950486
0.840775462970297
0.893905716007863
0.944601664923163
0.988391296562372
1.01569489205251
1.02395915401745
1.0264301391277
1.01830934231975
0.991314333557281
0.94788391349964
0.897544039823042
0.844770575805818
0.791011166531293
0.73699256056372
0.68318481598832
0.629751040720161
0.576654174844437