/*--------------------------------*- C++ -*----------------------------------*\
  =========                 |
  \\      /  F ield         | OpenFOAM: The Open Source CFD Toolbox
   \\    /   O peration     | Website:  https://openfoam.org
    \\  /    A nd           | Version:  7
     \\/     M anipulation  |
\*---------------------------------------------------------------------------*/
FoamFile
{
    version     2.0;
    format      ascii;
    class       volScalarField;
    location    "20000";
    object      Cz;
}
// * * * * * * * * * * * * * * * * * * * * * * * * * * * * * * * * * * * * * //

dimensions      [0 1 0 0 0 0 0];

internalField   nonuniform List<scalar> 
15600
(
0
1.90947401762458e-18
1.5927963586462e-17
-1.52696868648624e-17
0
0
-8.6831093106727e-18
-9.13694501831374e-20
-8.21894178510049e-18
-4.94843109050527e-18
0
-8.28249636240347e-18
-5.81397734900573e-18
-3.39743696040132e-18
-3.33094566746745e-18
0
0
-1.89306084003086e-19
-7.02143094998384e-18
-9.53425436355641e-20
0
0
2.01639228608967e-18
0
3.84003751806227e-18
-2.01639228608967e-18
0
0
6.04917685826903e-18
2.0163922860897e-18
1.92001875903087e-18
0
-9.63735270586759e-20
0
4.03278457217933e-18
0
0
0
-3.42549230888246e-16
-3.49954014212871e-16
-9.63735270586728e-20
-5.95280333121016e-18
0
-3.93641104512052e-18
9.63735270586762e-20
-3.50422052978487e-16
-3.56462595627512e-16
-9.637352705867e-20
-3.84003751806192e-18
-3.93641104512069e-18
9.63735270586744e-20
-4.03278457217963e-18
-9.63735270586757e-20
2.01639228608988e-18
2.01639228608957e-18
9.63735270586699e-20
9.637352705868e-20
-9.63735270586721e-20
-2.01639228608982e-18
0
-3.42452857361213e-16
-3.50913715296765e-16
-1.92001875903089e-18
1.92001875903099e-18
0
0
0
3.9364110451209e-18
0
1.92001875903104e-18
0
0
3.50614800032651e-16
3.48824919883103e-16
2.01639228608987e-18
0
-5.95280333121051e-18
0
-9.6373527058673e-20
3.52534818791684e-16
3.48637974089811e-16
0
0
5.95280333121082e-18
9.63735270586781e-20
0
0
9.6373527058676e-20
-5.85642980415184e-18
0
9.63735270586736e-20
3.50325679451426e-16
3.40851459201197e-16
2.01639228608982e-18
9.63735270586817e-20
1.92001875903124e-18
-2.11276581314817e-18
6.86825733481502e-16
6.56955078653432e-16
5.73231874689635e-18
-9.73989563081823e-20
1.95514917846361e-19
0
-2.53602274058594e-18
7.36202981169467e-18
-4.85291068832203e-18
-8.62399281479943e-18
3.6501558496609e-18
4.04574418138714e-18
-2.10338191636117e-18
-4.95262178769889e-18
2.60601779493754e-18
9.39126661841521e-18
8.77748518211365e-18
5.73067381101356e-18
4.35794228686125e-18
-3.53137715522417e-17
0
9.79909846420417e-20
3.45507091183694e-18
1.71718532299574e-18
9.95822681486037e-18
-1.73652872650225e-17
1.90208824501729e-17
-6.70663497180146e-18
1.10537120018173e-17
-1.82056018179112e-17
-5.90480384629291e-18
2.60952617484974e-18
-4.67860674139009e-18
4.24894476939262e-18
6.04144765099565e-18
0
3.17505435541452e-18
6.24117221608914e-18
-1.62987980490029e-18
1.90717744337809e-19
0
-4.14155861405201e-18
-4.13952076588092e-18
-3.88180088139295e-18
0
-4.09168318620407e-18
3.89891483206026e-18
-3.70614647791647e-18
1.92768354143697e-19
4.09168318620382e-18
0
0
0
-4.09168318620357e-18
-3.89891483206053e-18
-2.04584159310197e-18
2.87717561602575e-16
3.07453712318496e-16
0
0
0
6.28670552374958e-16
6.26322960412391e-16
2.04584159310198e-18
0
0
5.75198807101906e-18
0
9.24185943641631e-16
9.31324644515934e-16
1.92768354143706e-19
0
2.04584159310191e-18
-2.04584159310204e-18
-1.92768354143696e-19
2.23860994724545e-18
1.927683541437e-19
-1.92768354143703e-19
-3.70614647791656e-18
-2.04584159310206e-18
-1.92768354143703e-19
1.9276835414369e-19
2.04584159310195e-18
3.39099917533482e-16
3.40055468941431e-16
-2.0458415931019e-18
0
0
2.04584159310211e-18
2.04584159310177e-18
0
3.70614647791654e-18
-3.89891483206013e-18
-1.92768354143705e-19
1.92768354143698e-19
-3.37439612648656e-16
-3.37739583105677e-16
0
0
-2.04584159310214e-18
-2.04584159310201e-18
0
-3.31687624577634e-16
-3.34777312662213e-16
0
3.89891483205986e-18
-4.28445154034784e-18
0
-2.95322622912561e-16
-2.86764776018094e-16
-1.9276835414371e-19
3.89891483206072e-18
0
-3.89891483206041e-18
-6.2291856430399e-16
-6.25052080405875e-16
0
1.8530732389582e-18
0
0
-6.43880674995013e-16
-6.62696599336628e-16
3.68851387589104e-18
1.97281752478191e-18
-7.07759353982507e-18
0
8.10069604224127e-18
0
3.11883038647314e-18
-6.92200428228479e-18
7.2276420149714e-18
0
-1.96194769070361e-19
-1.40255435662419e-17
-5.41172797886661e-18
9.04672811255596e-18
-7.95645095823821e-18
5.41677711303996e-18
-3.27722730627729e-17
0
1.33728194618431e-17
1.6604644358279e-18
-3.62718428948993e-18
0
-4.99593289744594e-18
0
-1.62839708017577e-17
3.51817250334089e-15
3.08786061734851e-15
-4.64231678097641e-18
-8.34165031362016e-18
-5.02718645984815e-18
-2.06494560181768e-18
4.28343792443999e-18
-5.639536374457e-18
5.2271963237075e-18
-3.79947086590385e-19
0
-1.57824965054267e-18
1.90717917074177e-19
4.61803055421189e-18
2.28158505955054e-18
4.00152397307211e-18
0
0
0
1.92769145659402e-19
1.98126351149639e-18
0
-3.76975787733367e-18
0
-3.76975787733328e-18
1.92769145659403e-19
0
3.76975787733319e-18
-1.92769145659405e-19
-2.85120161676771e-16
-2.78784462241961e-16
0
1.92769145659402e-19
0
-2.85120161676749e-16
-2.81071922713839e-16
0
0
-1.98126351149638e-18
-3.76975787733363e-18
0
-5.64874840256034e-16
-5.62017474922817e-16
0
3.9625270229925e-18
0
-1.927691456594e-19
0
0
1.92769145659409e-19
-3.76975787733363e-18
1.98126351149622e-18
-1.78849436583702e-18
0
-3.7697578773332e-18
3.76975787733319e-18
-3.76975787733352e-18
3.96252702299237e-18
5.55825224317008e-18
0
1.92769145659401e-19
0
-1.92769145659414e-19
0
1.98126351149652e-18
-3.96252702299249e-18
5.75102138883018e-18
-3.96252702299274e-18
0
-1.98126351149653e-18
-5.75102138882988e-18
0
7.73228490032609e-18
1.92769145659408e-19
0
-1.98126351149641e-18
-5.75102138882976e-18
7.73228490032665e-18
0
0
0
2.75792151556272e-16
2.77942633846535e-16
-3.57698873167424e-18
-5.55825224317064e-18
1.92769145659412e-19
0
2.74003657190429e-16
2.82917193281588e-16
-3.96252702299281e-18
-3.3842195860148e-18
0
-3.57698873167423e-18
-1.78849436583698e-18
-1.96398875592044e-18
0
3.80771867079999e-18
6.46074995353563e-18
0
0
5.54816784310607e-18
0
4.86265543454973e-18
-3.48296900861741e-18
-1.95895274581797e-19
-1.24709406166986e-17
-4.70080146054747e-18
2.70852399920469e-18
-7.49655552371738e-18
6.83009337843842e-18
3.80275601901797e-18
-1.99273240849227e-19
0
1.97228190803236e-19
-1.94383978227488e-19
1.92829824791969e-19
6.23205473779911e-18
7.91882835045126e-18
1.61550746426862e-17
0
-3.43491199404983e-15
-2.91104737904033e-15
0
-1.87726484183253e-19
2.79774510106751e-18
9.25153503601696e-18
8.26841098454889e-18
-5.62416319441092e-18
1.89757038467182e-19
1.89974588632165e-19
-5.60934917898943e-18
-5.35198599825712e-18
1.90718096009438e-19
4.45432912007379e-18
-4.22471298159258e-18
-1.83833533267356e-18
1.92158807895313e-19
0
-1.72619854061424e-18
3.4523970812282e-18
0
7.48310406350967e-18
5.56413555587816e-18
7.48310406350965e-18
7.48310406351015e-18
7.48310406350966e-18
2.71240865493635e-16
2.79633321743968e-16
0
0
-2.71433635460625e-16
-2.80219434599382e-16
-1.91896850763173e-18
3.64516704824644e-18
7.2903340964919e-18
0
-1.91896850763184e-18
0
7.48310406350963e-18
3.64516704824619e-18
7.48310406350967e-18
0
0
-3.64516704824619e-18
0
-1.91896850763202e-18
-5.75690552289578e-18
3.83793701526403e-18
0
9.20930260412434e-18
0
0
-3.64516704824635e-18
5.37136558886025e-18
0
3.83793701526397e-18
-3.6451670482464e-18
-1.72619854061415e-18
-5.56413555587804e-18
0
5.56413555587779e-18
1.91896850763173e-18
3.64516704824619e-18
7.48310406350967e-18
7.48310406351017e-18
7.48310406350959e-18
5.56413555587861e-18
0
0
7.48310406351012e-18
7.48310406350967e-18
7.48310406351015e-18
7.48310406350971e-18
0
0
1.11282711117563e-17
7.48310406350964e-18
3.64516704824617e-18
7.48310406350967e-18
7.48310406351017e-18
7.48310406350965e-18
7.48310406351018e-18
7.48310406350962e-18
7.48310406351024e-18
7.48310406351013e-18
7.48310406350959e-18
7.48310406351017e-18
7.48310406350967e-18
7.48310406351011e-18
7.48310406350967e-18
7.48310406351018e-18
7.48310406350967e-18
7.4831040635101e-18
-5.56413555587787e-18
-5.32130883238125e-18
0
0
6.04612329480626e-18
-4.45135671373681e-18
2.45059543183421e-18
-5.73905149075186e-18
0
0
1.95653969216313e-19
3.42512227260559e-18
8.08108488978553e-18
4.33936259174561e-18
0
1.97606364432851e-19
-7.94019841501408e-18
-1.08046292287554e-17
-1.09904408168226e-17
-1.37223784948569e-17
-1.95335641141755e-17
2.89808199122883e-18
0
-1.45725283327756e-18
-4.66552937493276e-18
-6.46513363439952e-18
1.52889192504119e-17
3.1079390690807e-17
-8.72660007176989e-18
1.87068337097672e-19
0
6.80708765448476e-18
4.18336542331358e-18
1.881602644658e-17
0
-6.47336781930365e-18
0
-2.79519309948192e-18
0
4.53859195816891e-18
-4.48743923146138e-18
-4.08281840678162e-18
-3.73999152156468e-18
-3.51014706137475e-18
0
0
0
-3.52498105910061e-18
0
0
-1.85887593923874e-18
0
1.92770819376742e-19
-2.5832885177735e-16
-2.59484214510015e-16
1.66610511986204e-18
0
2.72236005194367e-16
2.65619430206188e-16
-5.19108617896229e-18
-1.92770819376736e-19
3.3322102397242e-18
3.52498105910072e-18
-1.92770819376742e-19
-3.52498105910073e-18
0
-1.92770819376742e-19
-3.71775187847737e-18
1.92770819376743e-19
5.38385699833983e-18
1.666105119862e-18
3.52498105910072e-18
1.92770819376744e-19
0
-8.90883805744005e-18
0
0
1.85887593923867e-18
0
0
1.666105119862e-18
3.52498105910074e-18
0
-7.04996211820155e-18
0
-1.92770819376742e-19
1.85887593923886e-18
-1.85887593923871e-18
1.85887593923857e-18
3.33221023972403e-18
3.33221023972406e-18
0
0
0
-1.66610511986187e-18
1.66610511986228e-18
0
-7.04996211820156e-18
-1.92770819376741e-19
-3.52498105910096e-18
0
1.8588759392387e-18
0
0
3.5249810591008e-18
-1.85887593923875e-18
0
-1.92770819376749e-19
-1.92770819376742e-19
0
-8.90883805744105e-18
0
0
0
3.52498105910068e-18
1.92770819376749e-19
-1.66610511986204e-18
0
0
-1.66610511986196e-18
1.92770819376742e-19
0
-1.85187480823645e-18
-1.77316930060925e-18
4.27723676934747e-18
0
-1.94740946128332e-19
-2.7734907295994e-18
-1.59203811036363e-18
-2.81606038175724e-18
-6.66563208546142e-18
8.91922764682166e-18
-7.59719672770215e-18
0
4.65975817269864e-18
1.05346959031463e-17
0
0
1.4417439544303e-17
7.35229949994253e-18
0
-5.77412594189298e-18
-1.65005933217596e-18
-1.59934476370901e-18
-5.56601651940282e-18
-6.97234181804582e-18
-1.81789302103998e-18
3.2045192809843e-17
1.42147669708621e-18
0
5.45152331158946e-18
-1.88350983238358e-19
-6.0447645382211e-18
0
-8.78966596171422e-18
2.9294128414211e-18
0
0
7.46164022507702e-18
3.98823342468674e-18
0
-3.94593837096731e-18
5.5200433469975e-18
0
0
1.80090801533074e-18
-3.40904432672033e-18
-1.92771703941503e-19
-1.80090801533071e-18
3.40904432671991e-18
5.20995234205076e-18
1.92771703941506e-19
1.9277170394151e-19
6.8180886534395e-18
0
0
0
0
-1.92771703941504e-19
0
1.80090801533063e-18
-5.20995234205103e-18
0
-1.92771703941511e-19
0
-5.20995234205123e-18
3.40904432672009e-18
0
0
0
0
3.40904432671974e-18
0
0
-5.20995234205068e-18
-3.40904432671963e-18
5.20995234205098e-18
3.4090443267201e-18
6.81808865343959e-18
-1.92771703941506e-19
0
0
1.927717039415e-19
0
0
3.40904432671974e-18
0
0
0
0
1.80090801533055e-18
0
-1.92771703941507e-19
0
1.92771703941511e-19
0
3.40904432671978e-18
0
3.40904432672006e-18
3.40904432672009e-18
-3.40904432672011e-18
0
0
-3.40904432672008e-18
3.60181603066112e-18
5.20995234205074e-18
0
0
0
0
5.01718063810896e-18
6.81808865343986e-18
6.62531694949802e-18
5.2099523420508e-18
0
1.92771703941504e-19
0
7.20363206132236e-18
0
1.92771703941504e-19
-5.20995234205097e-18
-1.59269670621361e-18
-3.58856048085824e-18
-1.71126827227591e-18
3.75216817886152e-18
-4.53023783238144e-18
7.03084329658522e-18
0
-5.77605225381819e-18
-3.90872997697347e-19
-1.9500626018192e-18
-3.55820257848411e-18
3.659840523182e-18
-4.22345463162551e-18
-2.44086768790418e-18
1.26786192127918e-17
0
-2.12846355271719e-17
-1.03520197141921e-17
-2.3433572587805e-17
4.14534595480502e-15
4.35338979905058e-15
1.59935667307652e-18
0
1.91155079683062e-19
5.14558332741548e-18
-1.22531219404967e-17
1.54273127620498e-17
1.25656213976509e-17
0
-1.87746532537403e-19
2.16269685349248e-18
-1.75204480188432e-18
-3.71747600827303e-18
-4.8624927703629e-18
1.50291030422755e-18
1.20936166331972e-18
-5.19398672625367e-18
7.57429893009235e-18
2.00800047606568e-18
1.01838382499191e-17
-3.81389567643757e-18
-3.29969049875153e-16
-3.57056752579845e-16
-3.47622127146961e-16
-3.67413830727076e-16
-1.74498969551179e-18
3.59465790511834e-16
3.70871078343563e-16
0
5.04219646456803e-18
1.92772621966903e-19
-3.59080245267918e-16
-3.68297370481713e-16
-3.59273017889862e-16
-3.62350060930152e-16
-3.10443414708962e-18
1.92772621966888e-19
3.61210780207337e-16
3.66837853761554e-16
0
3.5752802819437e-16
3.66873885233208e-16
-3.48997939102352e-18
0
3.62377452036943e-16
3.6320279970633e-16
6.5944135381127e-18
0
3.62570224658941e-16
3.66900984658444e-16
3.64315214354426e-16
7.51883739278872e-18
-3.68573504121314e-16
6.09910912827236e-16
6.1346011986639e-16
0
3.57720800816335e-16
3.65407548295298e-16
-1.74498969551182e-18
-3.62570224658917e-16
-3.60594966144623e-16
6.5944135381126e-18
0
1.74498969551152e-18
-5.04219646456809e-18
5.04219646456859e-18
3.6412244173246e-16
3.70449744759831e-16
4.84942384260142e-18
-6.16119781121367e-16
-6.09457433684707e-16
0
-3.7052408264862e-16
-3.59736702036804e-16
-1.927726219669e-19
0
-1.74498969551166e-18
1.74498969551178e-18
3.63736896488519e-16
3.63395572328289e-16
-5.04219646456765e-18
0
-1.74498969551183e-18
3.29720676905653e-18
0
-6.14374791425801e-16
-6.07697844936286e-16
6.78718616007991e-18
0
3.29720676905647e-18
0
3.70138537404661e-16
-2.49962981676938e-16
-5.99763762578958e-16
-1.92772621966894e-19
0
-3.6820077508717e-16
-7.1889303147469e-16
-3.56786322233157e-16
3.682007750872e-16
3.58750666986765e-16
2.51318213513455e-16
2.2432296340815e-16
2.00425158636592e-18
1.18150704651829e-15
1.1045519393206e-15
-1.94987463814604e-19
7.7866457917703e-18
-5.78990626579145e-18
6.20414912843584e-18
3.23980443906659e-18
-1.09703226816992e-17
-7.95443316115883e-18
2.16091449249805e-18
-5.08007786603976e-18
1.38088992017047e-17
7.73093847469695e-18
0
1.98984809345863e-19
-7.94094215738067e-15
-8.40787147179572e-15
0
-2.6209095294973e-18
4.05977828080446e-15
3.8516896709648e-15
-3.55715211894828e-18
4.88904546021786e-18
-3.16448661821798e-18
0
-1.8775365476249e-19
-6.43620154257286e-18
0
3.58828924870668e-18
0
-6.17248743597562e-18
-1.15484938302098e-17
0
2.50199813415196e-18
-4.24024764581481e-18
-5.97407489159823e-18
5.43409684702057e-18
3.42370150589302e-16
3.2976965601758e-16
3.51477552170761e-16
3.40911294838265e-16
0
-3.60235032969372e-16
-3.39317120063529e-16
-1.30550144332348e-18
0
-3.1893236109254e-18
3.5235811072947e-16
3.45391551538645e-16
3.53856385747507e-16
3.47075447469063e-16
-1.92773574759484e-19
4.68759862900781e-18
-3.63809903729819e-16
-3.52539638462426e-16
3.18932361092521e-18
-3.47670512100441e-16
-3.48072758470293e-16
0
6.37864722185074e-18
-3.49361560693253e-16
-3.47075229762437e-16
0
0
-3.51438156435648e-16
-3.52348310608671e-16
-3.5574020791513e-16
3.69712374788318e-18
3.46144258764183e-16
-5.94527137259829e-16
-5.92420731445093e-16
0
-3.51438156435649e-16
-3.4308154796323e-16
0
3.51438156435639e-16
3.51632139495845e-16
-1.69104859284248e-18
2.99655003616593e-18
0
1.49827501808294e-18
6.3786472218505e-18
-3.52743657878964e-16
-3.5095847020317e-16
0
5.91916134373229e-16
5.96722782924564e-16
0
3.49939881417555e-16
3.55928550469099e-16
6.37864722185115e-18
-1.92773574759488e-19
-1.92773574759489e-19
-6.57142079661019e-18
-3.49554334268034e-16
-3.56643200595207e-16
-1.92773574759504e-19
0
1.92773574759488e-19
0
0
5.76355063468079e-16
5.90783580607444e-16
1.69104859284244e-18
1.9277357475949e-19
0
4.68759862900802e-18
-3.49747107842827e-16
2.15595214599084e-16
5.96744046717093e-16
-1.92773574759486e-19
0
3.43561234195705e-16
7.01435975200485e-16
3.54818143786393e-16
-3.40371910584783e-16
-3.47658824868727e-16
-2.23406077281369e-16
-2.31580207787785e-16
-3.68707312690846e-18
-1.0466057046196e-15
-1.15940072378075e-15
-7.51584753834876e-18
0
-2.50032874523315e-18
-3.09061008437577e-18
9.36487435245713e-18
6.98995053502038e-18
3.73623197091555e-18
-2.27787891819185e-18
7.44554049017459e-18
-1.98189547268272e-19
-1.35893347777985e-17
1.48573599572249e-17
-2.88503639048817e-17
3.81821806429447e-15
4.06019130362767e-15
0
9.6400968410686e-20
-3.91941615963039e-15
-3.6909656566544e-15
0
8.02694957761077e-18
0
5.49430170007299e-18
2.07654163127174e-18
-8.02149337195064e-18
1.88843562234826e-19
6.73813954458675e-18
-1.89521778933212e-19
-1.89764558425354e-19
-5.57836618822963e-18
0
-2.03789512889405e-18
3.81438183091276e-19
0
-3.56364461001113e-18
-2.18738196496951e-16
-2.59263534634728e-17
2.11221807387581e-16
3.08525519660621e-18
6.1705103932136e-18
-3.29932980184117e-16
-5.67096070304808e-16
-2.28661324882339e-16
0
0
0
0
1.9277456367999e-19
2.24551073823695e-16
2.30140993131159e-16
0
0
-2.21465818627089e-16
-2.30545170937073e-16
0
-3.08525519660653e-18
-9.06299102613903e-18
-3.08525519660635e-18
9.0629910261398e-18
-2.29275343900451e-16
-2.31072221229544e-16
0
0
-1.92774563679995e-19
0
0
-2.27443554456638e-16
-2.24075192644681e-16
1.92774563679999e-19
1.92774563679989e-19
-2.24743848387378e-16
-4.6083630814614e-16
3.41275878041943e-16
5.67371772817072e-16
0
-3.08525519660637e-18
0
0
-5.6663230023056e-16
-3.33564933403558e-16
-2.08713226795383e-18
-2.27222243296281e-16
0
-1.92774563679989e-19
0
0
0
0
0
3.46612721919933e-16
3.38383077158876e-16
2.33806839413538e-16
2.28179740596602e-16
-2.8924806329264e-18
1.9277456367998e-19
-1.9277456367999e-19
2.28889794773109e-16
2.21149471077703e-16
2.33614064849838e-16
2.24800432786464e-16
-2.28697020209408e-16
-2.25486853921022e-16
-5.97773582953303e-18
0
7.61675070967585e-18
-5.73670727249233e-16
-3.25309889218106e-16
2.20798302746655e-16
2.89248063292627e-18
2.31975049969698e-16
2.19765815556362e-16
-1.92774563679987e-19
0
0
-2.25164182063918e-16
-2.12511437777652e-16
1.07924333123491e-15
9.90617550545242e-16
-1.94453680878649e-19
-1.11909962192956e-15
-1.05897209651332e-15
0
-2.40244462081289e-18
8.36868845001909e-18
3.00763026999612e-18
-3.07621710436457e-18
-7.590166833133e-18
2.00373027340701e-18
0
5.1157031265982e-18
7.35661954461009e-18
2.17417646434937e-17
0
1.05482654708255e-17
0
0
0
1.91155015378806e-19
-4.08429777143974e-18
1.07486186082136e-17
6.22151297798343e-18
1.12135557695314e-17
0
-2.36724318881176e-18
3.86175218310177e-18
-1.9229898153805e-18
-1.40408183223288e-15
-1.39636419058841e-15
-8.25759626253143e-18
-1.29036013695111e-17
-2.70563563733562e-18
-1.90451337718109e-19
-6.10422819953792e-18
2.17540285197116e-18
0
2.17896854070541e-16
-5.96569120469184e-19
-2.02687011096334e-16
7.36577922762264e-18
7.36577922762296e-18
3.28369346124311e-16
5.38788408337892e-16
2.15288532915159e-16
0
0
-1.58882119961201e-18
0
1.92775590145709e-19
-2.25540755161006e-16
-2.19514817333267e-16
0
-3.17764239922382e-18
2.23566382781102e-16
2.17937153246381e-16
1.58882119961192e-18
0
-1.9277559014571e-19
5.96973361815663e-18
0
2.19571021542847e-16
2.20220362228079e-16
0
0
0
0
-9.14737601738077e-18
2.2077429156217e-16
2.20211523298787e-16
8.76182483708938e-18
0
2.19956572723138e-16
4.4184486358358e-16
-3.26456830508315e-16
-5.49361854069227e-16
0
1.78159678975762e-18
3.17764239922384e-18
-1.92775590145708e-19
5.50300291227359e-16
3.36992685390648e-16
-2.07649209424747e-18
2.22273842040727e-16
0
0
-1.92775590145705e-19
0
8.76182483708871e-18
1.3960456094663e-18
0
-3.24566760476227e-16
-3.30774476831527e-16
-2.21159842742475e-16
-2.21616407837552e-16
3.17764239922402e-18
0
0
-2.2096706715233e-16
-2.28570964515887e-16
-2.2115984274246e-16
-2.22318065664904e-16
2.16971705914059e-16
2.28382428817794e-16
8.76182483708941e-18
-1.92775590145712e-19
3.38527216570874e-16
8.63405871323662e-16
3.40425967352169e-16
-2.18294750538696e-16
8.76182483708941e-18
0
-1.57789261580468e-17
1.92775590145708e-19
-1.58882119961211e-18
4.57368800869013e-18
2.06748828489199e-16
2.17710266704652e-16
-9.69947832873533e-16
-1.05955755426425e-15
-3.58435144078399e-18
9.88611730901726e-16
1.13362954484125e-15
-2.32393572410385e-18
-1.04046193717961e-17
1.4026294896716e-17
-7.24418322884774e-18
3.15225476179294e-18
7.12809212877518e-18
9.44953910927052e-18
-6.73010480717199e-18
2.46130468791349e-18
1.98740773711792e-19
-7.73876301435173e-18
-1.98939106008995e-19
0
7.49382276238277e-18
-2.63486606079902e-18
-2.4537722054049e-18
0
-8.61369338149784e-18
-1.20302694738381e-17
-5.80657292248338e-18
2.17758267274096e-17
1.87127042014042e-19
0
1.67064849018285e-18
1.85891092448108e-18
1.44664280812443e-15
1.25476651215106e-15
-1.8976794056547e-19
4.63721037732871e-18
0
0
2.09133747126342e-18
0
-3.13940437857388e-18
7.55267376898893e-18
-2.6849275211544e-18
1.9263915045481e-19
1.92776655633162e-19
8.4713088313035e-18
0
5.77605699129137e-18
0
1.92776655633164e-19
5.58328033565824e-18
0
3.08080515127869e-18
0
3.08080515127869e-18
0
0
0
-5.58328033565782e-18
0
5.77605699129108e-18
2.88802849564555e-18
0
-1.92776655633158e-19
0
1.92776655633163e-19
-2.88802849564574e-18
0
2.88802849564555e-18
8.85686214256981e-18
-5.96883364692421e-18
0
2.05231935829909e-16
2.05525804125262e-16
1.92776655633162e-19
3.08080515127911e-18
0
2.8880284956456e-18
5.77605699129197e-18
-2.88802849564553e-18
1.92776655633163e-19
0
1.92776655633165e-19
1.92776655633165e-19
0
0
0
5.39050368002481e-18
0
3.08080515127866e-18
6.16161030255739e-18
5.77605699129179e-18
-5.58328033565799e-18
0
-3.08080515127867e-18
0
0
-2.69525184001239e-18
-1.92776655633165e-19
-5.77605699129192e-18
0
0
0
0
0
0
0
2.69525184001256e-18
2.88802849564572e-18
1.92776655633164e-19
-3.18628911104924e-16
-3.27961262333304e-16
0
-5.77605699129099e-18
0
-1.96567850342974e-16
-2.05822710669737e-16
3.08080515127871e-18
2.88802849564574e-18
2.69525184001236e-18
0
-2.87752035001734e-18
-3.05996212996109e-18
1.95700378470104e-18
-7.1088289429804e-18
1.94731862661544e-19
0
-1.15890428160367e-17
0
-1.95620538614299e-19
4.18741720222887e-18
-1.32206161917495e-18
8.34431963501649e-18
-5.76947939015834e-18
2.29331053103923e-18
1.44073423494221e-17
-7.94993443455811e-18
8.70452871150571e-18
-1.05262140015081e-17
-5.29915035935228e-18
0
0
0
-4.84244099069581e-18
-8.12843221624615e-18
-1.86403222453181e-19
-5.58592790701745e-18
7.83966714354203e-18
0
2.20655461287759e-18
5.55756613028079e-18
8.23010975877697e-18
-1.27402233960682e-18
2.69083222142571e-18
-5.18274369889785e-18
2.51567632364322e-18
-4.31936925253391e-18
1.90452458100385e-19
-2.02328004707337e-18
-3.71873986472634e-18
0
5.72746770973542e-18
1.92164118263176e-19
-5.34739220763586e-18
0
2.60183713805673e-18
0
0
0
2.79461489973762e-18
-5.58922979947565e-18
0
-2.98739266141847e-18
1.92777761680832e-19
2.79461489973769e-18
0
0
-2.7946148997378e-18
-2.60183713805665e-18
2.60183713805686e-18
0
-2.79461489973767e-18
-2.601837138057e-18
0
0
0
0
0
2.60183713805677e-18
0
2.98739266141849e-18
2.79461489973788e-18
-1.92537273505473e-16
-2.01357805237693e-16
0
0
3.85555523361679e-19
5.58922979947525e-18
5.7820075611565e-18
0
0
2.6018371380568e-18
-5.58922979947525e-18
0
0
2.60183713805687e-18
-2.601837138057e-18
0
0
2.60183713805684e-18
1.92777761680837e-19
0
0
2.79461489973767e-18
-5.58922979947524e-18
5.58922979947562e-18
-3.18017042309937e-18
0
-2.79461489973769e-18
2.98739266141848e-18
0
0
0
0
-5.58922979947581e-18
5.58922979947535e-18
0
0
0
2.79461489973766e-18
0
2.79461489973765e-18
-2.79461489973783e-18
1.9277776168084e-19
-2.98739266141846e-18
0
1.92777761680833e-19
0
-2.60183713805677e-18
2.60183713805677e-18
2.96352808218451e-18
0
-2.57260022584319e-18
0
0
0
-4.18480360606459e-18
0
2.3245065509957e-18
5.18601348691407e-18
0
-4.38697372579021e-18
5.21427816879691e-18
-3.57655095671465e-18
1.97499782680454e-19
-2.08030030300891e-18
-4.70074553265723e-18
6.77903441622869e-18
1.03310910911708e-17
1.07934142405825e-17
-6.97989249240074e-18
0
0
-9.16933939739116e-18
-7.8419270314165e-18
-1.25389735211161e-17
-8.0597500110877e-18
1.22683181250754e-17
4.38740248011347e-18
-3.69757777203078e-18
-6.70318771734105e-18
-7.93204063545742e-18
0
-5.18418795163312e-18
2.59495418900626e-18
-1.8998578715156e-19
-2.08128435337863e-18
1.73348762368415e-18
0
3.21826696772162e-18
-1.65271351740237e-18
0
0
-2.68090852349234e-18
-5.40901019731541e-18
2.8972840085498e-18
-5.21623128742328e-18
1.92778909892063e-19
1.9277890989206e-19
-2.89728400854979e-18
5.21623128742375e-18
2.70450509865771e-18
5.2162312874233e-18
0
1.9277890989206e-19
-2.51172618876552e-18
5.21623128742365e-18
-5.40901019731543e-18
-1.92778909892064e-19
-5.02345237753104e-18
1.92778909892059e-19
1.92778909892069e-19
5.21623128742322e-18
0
1.92778909892058e-19
-2.70450509865777e-18
0
-3.8555781978414e-19
0
-5.40901019731553e-18
2.89728400854976e-18
0
-2.51172618876578e-18
0
1.92778909892062e-19
2.04016957299368e-16
2.05081700713937e-16
2.51172618876559e-18
0
0
1.92778909892064e-19
-5.21623128742323e-18
2.70450509865766e-18
-2.70450509865762e-18
-2.70450509865762e-18
0
2.89728400854972e-18
0
0
-1.92778909892061e-19
-2.51172618876576e-18
2.11937693685433e-16
2.05018950153714e-16
2.70450509865754e-18
0
0
1.92778909892062e-19
0
0
0
-1.92778909892058e-19
0
2.51172618876552e-18
0
5.40901019731519e-18
-2.51172618876573e-18
0
2.70450509865762e-18
0
-1.92778909892064e-19
0
-1.92778909892066e-19
-8.1135152959738e-18
-1.92778909892061e-19
0
0
0
0
2.7045050986577e-18
2.70450509865791e-18
-5.36297903681167e-18
5.00357621546113e-18
-2.86397887245835e-18
1.65458198309593e-18
-3.60508781648237e-18
-3.53155819477433e-18
-4.04080110873895e-18
0
0
0
-1.95838972527513e-19
0
-3.0950682770047e-18
0
0
-1.11573164637688e-17
0
1.07397469362233e-17
-9.75217759256118e-18
1.9718790581821e-19
7.12526536802859e-18
0
4.33802949304473e-18
0
1.22954968431646e-17
8.04522550560267e-18
7.75201954267105e-18
-7.07931093941892e-18
6.33042735744864e-18
1.87801443505392e-19
0
1.68000234140578e-18
0
0
2.5068863048734e-18
1.89987255000245e-19
1.90212125967819e-19
9.65314432336609e-18
-3.59787578526453e-18
-3.10403230145015e-18
1.60139166662095e-18
-1.91737012448029e-19
-2.60830679723011e-18
-2.40231044884775e-18
-4.84960469027483e-18
-1.92780101938087e-19
2.61758244707587e-18
-2.61758244707548e-18
0
5.23516489415092e-18
0
5.23516489415129e-18
0
-1.92780101938088e-19
2.61758244707551e-18
-2.6175824470757e-18
0
1.92780101938088e-19
0
-2.42480234513742e-18
1.92780101938089e-19
-4.84960469027565e-18
-5.04238479221295e-18
1.92780101938088e-19
-1.92780101938094e-19
4.84960469027519e-18
0
-2.81036254901358e-18
0
-2.42480234513756e-18
0
1.99767590669131e-16
1.98240593366971e-16
0
0
-1.99574810567225e-16
-1.93451917412387e-16
0
1.92780101938088e-19
0
0
0
-2.61758244707555e-18
0
-2.6175824470757e-18
-1.92780101938089e-19
0
2.61758244707569e-18
2.81036254901358e-18
-5.23516489415097e-18
2.61758244707582e-18
-1.9715000822206e-16
-2.00499881950368e-16
1.92780101938094e-19
-1.92780101938079e-19
-5.23516489415135e-18
-4.84960469027481e-18
-1.92780101938083e-19
2.4248023451376e-18
-2.61758244707554e-18
0
0
-2.8103625490136e-18
1.92780101938096e-19
0
2.61758244707571e-18
-1.92780101938095e-19
2.81036254901361e-18
0
0
2.61758244707548e-18
-2.61758244707568e-18
0
1.9278010193809e-19
0
0
2.81036254901357e-18
0
2.6175824470755e-18
5.23516489415178e-18
1.92920800579797e-19
0
-8.11965316191587e-18
6.02489169459392e-18
8.14398201653764e-18
-7.19942573393312e-18
-5.75535389511589e-18
8.01825927592551e-18
-1.95400527263252e-19
4.63184613271062e-18
0
0
-2.78369559305726e-18
0
5.60299295779801e-18
-2.10836083203569e-18
7.27251943253894e-18
-7.54821146602039e-18
2.68162835329808e-18
-1.27004274090778e-17
2.5560157176558e-18
6.7480005698328e-18
3.21448152042062e-14
3.16944367545935e-14
-9.2926741944223e-18
2.06461939691858e-17
2.27958692417218e-15
2.05459312442025e-15
0
-1.61074682745026e-18
-3.38094790773862e-18
0
0
7.21497955332765e-18
-2.23216359086898e-18
0
0
3.76527907385603e-18
0
2.99383467138667e-18
2.72103778760051e-18
0
7.19059300375901e-18
0
2.72651576562096e-18
7.40842193861827e-18
7.40842193861874e-18
2.53373442606004e-18
0
0
-4.87468751255877e-18
-2.53373442606002e-18
0
0
0
0
5.06746885211968e-18
-2.72651576562119e-18
0
5.06746885212009e-18
0
-2.53373442606004e-18
0
-1.9278133956129e-19
-1.92781339561284e-19
-1.92781339561285e-19
2.5337344260602e-18
2.53373442605972e-18
0
2.53373442605989e-18
-7.40842193861842e-18
-1.92288561748469e-16
-1.86316107800464e-16
-2.53373442606003e-18
0
-1.92781339561285e-19
1.92781339561283e-19
0
-2.34095308649873e-18
0
2.34095308649893e-18
0
0
0
0
5.26025019168128e-18
0
2.53373442606019e-18
-4.87468751255841e-18
5.06746885212005e-18
2.53373442606002e-18
0
-2.34095308649854e-18
-2.53373442606021e-18
0
1.92781339561282e-19
0
0
1.92781339561283e-19
0
-4.87468751255874e-18
0
0
0
0
5.06746885211973e-18
-5.0674688521198e-18
-7.40842193861875e-18
0
2.53373442606019e-18
0
1.92781339561277e-19
2.53373442606003e-18
-5.06746885211943e-18
0
-5.0674688521197e-18
-2.53373442606002e-18
0
0
-4.68190617299728e-18
0
-1.93401386427134e-19
-5.36321959149704e-18
-5.43870284091386e-18
-1.94450714135719e-19
0
0
-4.25369088563795e-18
-1.95395309814668e-19
4.65763800150336e-18
-2.40364081866415e-18
-2.61262508990751e-18
-1.63112325122255e-18
6.57686379648551e-18
1.67651524442495e-17
1.82980341066728e-18
-9.26861952174722e-18
-1.99029439777954e-19
2.38179736726011e-18
7.11673272095652e-18
1.94400282744271e-19
-2.04743221641982e-18
-3.09931786572876e-14
-3.04731971096006e-14
-1.88262793848725e-19
0
-2.25935251219369e-15
-1.8809763893271e-15
-7.99471961210353e-18
3.27283415962284e-18
1.88407124008865e-19
-2.76439563634502e-18
2.70672801415105e-18
-7.13870331068504e-18
-4.11067226191345e-18
1.81412781129183e-18
1.8623439355648e-18
0
1.9072081369933e-19
1.25273893526539e-18
-2.43415621148431e-18
0
-2.44459248539288e-18
2.4320574422263e-18
-2.45285249745467e-18
4.90570499490989e-18
4.90570499490932e-18
0
0