/*--------------------------------*- C++ -*----------------------------------*\
  =========                 |
  \\      /  F ield         | OpenFOAM: The Open Source CFD Toolbox
   \\    /   O peration     | Website:  https://openfoam.org
    \\  /    A nd           | Version:  7
     \\/     M anipulation  |
\*---------------------------------------------------------------------------*/
FoamFile
{
    version     2.0;
    format      ascii;
    class       volScalarField;
    location    "20000";
    object      Dk;
}
// * * * * * * * * * * * * * * * * * * * * * * * * * * * * * * * * * * * * * //

dimensions      [0 2 -3 0 0 0 0];

internalField   nonuniform List<scalar> 
15600
(
0.00524203127807603
0.00217184734213204
0.000383050686982415
0.000200828843901564
0.000175155540390748
1.33819960692779e-05
5.55290536381048e-06
6.19312332996164e-06
6.91152324154554e-06
8.70081604837666e-06
1.14131646949544e-05
1.53503598089654e-05
2.06625336925806e-05
2.71202767134758e-05
3.4228252935068e-05
4.22399194239435e-05
4.86317325860214e-05
5.03373665608725e-05
4.51457754816713e-05
3.1753651877496e-05
1.67662350394637e-05
9.07350906843189e-06
1.10051430986919e-05
1.83888735117076e-05
2.94828200510471e-05
4.59161955589954e-05
6.88137168042069e-05
9.84033760941259e-05
0.000134282035926877
0.000175510276343397
0.000221094537009932
0.000270094781614578
0.000321780050793825
0.000375555359173751
0.000430957437033229
0.000487587807395893
0.000545102959077396
0.000603187850795836
0.000661555202958649
0.00071993692460248
0.000778084350222307
0.000835764872413972
0.000892760697986802
0.000948866936053049
0.00100389117356267
0.00105765513779812
0.0011100003295014
0.00116079424400064
0.00120993875407417
0.00125738703243041
0.00130316651655756
0.00134735298751082
0.00138995509328234
0.0014304645786242
0.00146841371130909
0.00150367939646987
0.00153621491735658
0.00156598921606711
0.00159298657495548
0.00161720562489532
0.00163865858264679
0.0016573700507593
0.0016733754693998
0.0016867196341268
0.00169745507633772
0.00170564055519572
0.00171133921584333
0.00171461674855303
0.0017155393863303
0.00171417151693464
0.00171057273928614
0.00170479469807704
0.00169687709475665
0.00168684424115812
0.00167470161478525
0.00166043378004108
0.00164400389792733
0.00162535158064594
0.0016043905441989
0.00158099895901826
0.00155500824610576
0.00152619243313483
0.00149425680550548
0.00145883606563583
0.00141949231229104
0.00137574267364102
0.00132708115052645
0.00127309061175283
0.00121350244759168
0.00114851785037449
0.00107884401935779
0.00100646663356611
0.000934248180881338
0.000867661590866791
0.000812334111736932
0.00077832964949731
0.000767166679400063
0.000766244151024486
0.000659854937231872
0.000476449441590211
0.000475363563737025
0.000604097572632725
0.000814574728021817
0.00111639702749718
0.00150697177413809
0.00197190062809193
0.00250128922096309
0.00299280209616865
0.00335985180496459
0.00360623314726175
0.003818113250443
0.00403984897192794
0.0045301209225016
0.0054032776080473
0.00703255431682302
0.0104723136483302
0.0204274116520871
0.0255144995582756
0.0117576339520503
0.00617703418991428
0.028535176731458
0.0119061280184503
0.00217831495391379
0.00111187950084616
0.000975743516046649
8.53694615627493e-05
3.11580336166354e-05
3.39166213385414e-05
3.77174298926622e-05
4.73217989261793e-05
6.19491899023147e-05
8.32252839275904e-05
0.000112022872745992
0.000147171294599496
0.000185878544291528
0.000229687592984472
0.000265224544412339
0.000275790751864435
0.000249054914972512
0.000176784489470535
9.36651486956012e-05
5.01300087156417e-05
6.08015437256338e-05
0.000101544700212205
0.000162808636836758
0.000253565117419261
0.000379932512985394
0.000543112954217674
0.000740790557032997
0.00096777553290857
0.00121860223786464
0.00148814083309383
0.0017724001349038
0.00206813192384904
0.00237279214795304
0.00268418401071597
0.00300040271692322
0.00331969664067519
0.00364046368911179
0.00396120707506739
0.00428053700326027
0.00459715308956145
0.00490983808691397
0.00521744791204715
0.00551891018782394
0.00581323444852278
0.006099542779327
0.00637710360671327
0.00664537712843519
0.00690410788109816
0.00715345078878734
0.00739383024622226
0.00762531163469456
0.00784369187711885
0.00804747778042163
0.00823641420802155
0.00841028479977787
0.00856895922816926
0.00871239054231899
0.00884060940855761
0.00895371921710961
0.00905188887989809
0.00913534420653987
0.00920435937809208
0.00925924807661656
0.00930035498501742
0.00932804571380971
0.00934269687215965
0.0093446851088496
0.00933437426699646
0.00931209979925778
0.00927815158877036
0.00923275340119306
0.00917604430271161
0.0091080612343293
0.0090287283463948
0.00893785403437268
0.00883512005093938
0.00872006709605449
0.00859204381404108
0.00845014740402495
0.00829316697365315
0.00811952450342556
0.00792726327450609
0.0077140408989266
0.00747726844126874
0.00721423873528796
0.00692269601581349
0.00660119580220603
0.00625073542083973
0.00587509523385893
0.00548471887747881
0.00509503237596989
0.00473493833750924
0.00443483150219665
0.00424666131201904
0.00417819840301663
0.0041559723802661
0.00358845590555152
0.00263183461673858
0.00264331942088485
0.00336969469149893
0.0045447461019475
0.00621497146967182
0.00836148827580902
0.0109066372180041
0.0137853545701056
0.016442545454644
0.0184259110113636
0.0197768829109019
0.0209557748227031
0.0222190009349872
0.0249703721690164
0.0298441802837275
0.0389282279206713
0.0581579391561678
0.11186089302082
0.138027585857352
0.0642474532214968
0.0338378109982366
0.0689589071778075
0.0289759614158113
0.00548915129589124
0.00270926564753328
0.00239567267281557
0.000236673259852708
7.78028649921524e-05
8.23669569277854e-05
9.1247749406814e-05
0.000114061048555506
0.00014897846703457
0.00019985410988801
0.000268880674764226
0.000353363142519975
0.000446119665886739
0.000550127266434661
0.000634042743796596
0.000658656447636833
0.00059642681038749
0.000428331641568413
0.000229792080064689
0.000122541884237852
0.000149142362506293
0.00024964284974009
0.000401419405543805
0.000626721198875812
0.000940816389520172
0.00134584762067901
0.00183478578060285
0.00239380164590257
0.00300857839197525
0.00366606068634259
0.00435608565259495
0.00507044166151061
0.00580264244067722
0.0065471157562754
0.00729904331399242
0.00805405817225084
0.00880822423449646
0.00955793760355788
0.0102999207952842
0.0110311767745344
0.0117489673211849
0.0124507846620664
0.0131343442671118
0.0137976037157648
0.014438819345755
0.0150566097857424
0.0156500439513296
0.0162188419280815
0.0167637011388409
0.0172860880890074
0.0177772251701655
0.0182339198744177
0.0186567149706639
0.0190454059781588
0.0193999555722669
0.0197204896388595
0.0200072864386698
0.0202607616132118
0.0204814546807109
0.020670011730588
0.0208271667059592
0.020953723400378
0.0210505373180055
0.0211184982932862
0.0211585107583111
0.021171474476028
0.0211582629666921
0.0211196984720327
0.021056521754587
0.0209693583379469
0.0208586796575671
0.0207247667327482
0.0205676781511522
0.0203872298989882
0.0201829868370522
0.0199542392306232
0.0196999625806747
0.0194187133696931
0.0191085049028383
0.0187666867840972
0.0183898239929576
0.0179736550310476
0.0175130817822393
0.017002405608398
0.0164356295924481
0.0158075030415378
0.0151144617331835
0.0143576742414137
0.0135445393716126
0.0126958545563602
0.0118447314062548
0.0110509592835846
0.0103809441561458
0.00993350733053442
0.00970831610982712
0.00948416430445851
0.00817013534800719
0.00629221902340013
0.00646564685501197
0.00826504942603694
0.0111031395247427
0.0150869651291091
0.0201568360090214
0.0261471119994108
0.0328850868815323
0.0391304320492222
0.0438948015423725
0.0473094580906022
0.0503626353241011
0.0536948835303971
0.0605585920861206
0.0725411498372352
0.094690153291094
0.141141655060209
0.264212105357985
0.323451843479879
0.15868565139945
0.0837484455995584
0.121950000155326
0.0513430219392771
0.0100447499940637
0.00471733131355236
0.00419690488824898
0.000465138110560668
0.000140045419447746
0.000143589000297684
0.00015843455788013
0.000197310054996837
0.000257121486414782
0.000344345119661076
0.00046270910730914
0.000607353310322179
0.000764474629021914
0.00093566915535844
0.00106852351380463
0.00109979348101583
0.000991992304526982
0.000722604325904373
0.000397638007607731
0.000215111386661889
0.000266572347931188
0.000450377794830528
0.000728068621638488
0.00114329583403152
0.00171664246280318
0.00244194075629195
0.00329426107899743
0.00424009308818676
0.00524902964687233
0.00629680900684897
0.00736607948886889
0.00844417948638012
0.00952190198831813
0.010592083399087
0.0116490713414944
0.0126882218562192
0.0137057274516235
0.0146984216627559
0.0156636870706617
0.0165993460265231
0.0175035875492689
0.0183749030779991
0.0192120552462936
0.0200140801662741
0.0207803223723008
0.0215104906339916
0.0222047479434394
0.0228639914035522
0.0234905447475126
0.0240730893185813
0.0246115252307497
0.025108829493997
0.0255655980145311
0.0259823790095401
0.0263598172264485
0.0266986461695937
0.0269996795483243
0.0272638002963958
0.0274919498201916
0.0276851145723072
0.0278443118341726
0.0279705761690436
0.0280649455322399
0.0281284473382703
0.028162082734949
0.0281668104042457
0.0281435275316189
0.0280930469257283
0.0280160689489765
0.0279131491465215
0.0277846615685494
0.0276307630603032
0.0274513619660514
0.0272460962770624
0.0270143170171736
0.0267550573521335
0.0264669732939119
0.0261482305651975
0.0257963656913512
0.0254081426605794
0.0249794131418154
0.0245050295190318
0.023978813798355
0.0233937109984992
0.0227421168644222
0.0220167765532236
0.0212120135088311
0.0203265526631004
0.0193663115838652
0.0183511496204673
0.0173175459177031
0.0163296816930913
0.0154639887695397
0.0148077613225513
0.0143161532093949
0.0136403280332172
0.0118342673592278
0.00995912841058347
0.0107030529950159
0.0137054344333118
0.0183044258377194
0.0246494449817216
0.0326364935692352
0.0420756017249958
0.0527047592610247
0.0628190101782506
0.071093111362719
0.0777126881064314
0.0839107071632115
0.0907197362063864
0.103203316015741
0.124226789726692
0.162206689522595
0.239679637062003
0.428543167439187
0.514574313291979
0.280298455938555
0.15444511768979
0.188190942656064
0.0792093414049066
0.0159493993959367
0.0069976822662355
0.00624207591955421
0.000773531963349519
0.000216617820425033
0.000214219061758012
0.000235376327810318
0.000292052301813417
0.00037968140776295
0.000507326314991049
0.00067975587732216
0.000888351613841886
0.00110947416813964
0.00133679313837394
0.00149696051166339
0.00150959145293535
0.00134466125096753
0.000995828821123316
0.000572364839685572
0.000323945191707717
0.000418686186057859
0.000716100217525417
0.00116447653989255
0.00182152260772644
0.00268177977917796
0.00369696476969312
0.00480388266255235
0.00594985970400838
0.00710083796949456
0.00823792409033199
0.00935156270024842
0.0104371840466164
0.0114925718092505
0.0125166246059606
0.0135087099063282
0.014468444812525
0.0153955601428325
0.016289870317453
0.0171512358585309
0.0179795531270574
0.0187747409178307
0.0195367430497359
0.0202655431578353
0.0209611975595082
0.0216238771783049
0.0222539502199485
0.0228520936063682
0.0234195887320645
0.0239481313921166
0.024438589838822
0.0248934846814914
0.0253138566451752
0.0257002423849829
0.0260532001900943
0.0263733382982298
0.0266613136878233
0.0269178269226223
0.027143617745335
0.0273394573433279
0.0275061399838571
0.0276444740302713
0.0277552718363456
0.0278393404785679
0.027897470607536
0.0279304249685913
0.027938925739971
0.0279236394559828
0.027885159175012
0.0278239834764155
0.0277404910913338
0.0276349147137848
0.0275073132704553
0.0273575486658033
0.0271852672238357
0.0269898806132974
0.0267705387877884
0.0265260752284711
0.0262549205938775
0.0259549978621144
0.0256236075539611
0.0252573247148907
0.0248519210339194
0.0244023499083949
0.0239028287079378
0.0233471222397238
0.0227291105249268
0.022043877165595
0.0212894720816054
0.0204696721155489
0.0195978290568324
0.0187008813901885
0.0178221385769364
0.0170124269143539
0.0163002580706736
0.0155957720340703
0.0145809455941654
0.0128823708290213
0.0118768725189069
0.0134144074872656
0.0171961414251669
0.0228417115783587
0.0304802400424989
0.0399934112700062
0.0512813968318746
0.0641064146825253
0.076920909782707
0.0886674923319153
0.0996331085881542
0.110790937769879
0.12333733784362
0.14317792413498
0.174430237397254
0.228125663680378
0.331481971443603
0.551277635763946
0.629845855523482
0.395181509413278
0.243614915807578
0.260482942343032
0.112793769931111
0.0234952162629147
0.00946224517534794
0.00841402866194645
0.00116600630489121
0.000308202318950366
0.000292872034124065
0.00032037590101229
0.00039604024216558
0.000513440658730305
0.000683528949610109
0.000910279253979367
0.00117786746280828
0.00144842113147675
0.001698550399311
0.00184124818827444
0.00179870362165461
0.0015727829087231
0.00119031498641653
0.000731822481450177
0.000452151143743721
0.000622892489454183
0.00106662022327364
0.00171779060642796
0.00259743932720418
0.00363031885850906
0.004724728904311
0.00581667711224833
0.0068792903249783
0.0079049151674381
0.00889450654283864
0.00985035179420484
0.0107750447385941
0.0116702452292308
0.0125371965894624
0.0133765430496489
0.0141886936301367
0.014973798709256
0.0157319149987603
0.0164630036136291
0.0171669930819076
0.0178437867757018
0.0184932933453683
0.0191154478961163
0.0197102426484534
0.0202777578534329
0.0208182538095813
0.0213322550225303
0.0218148706364543
0.0222652540766995
0.0226852647323797
0.0230759080123688
0.0234376871149406
0.0237709654772856
0.0240761511079258
0.0243536957034902
0.0246040956151563
0.0248278856280231
0.0250256360789785
0.0251979451650466
0.0253454319975739
0.0254687294420689
0.0255684747492055
0.0256453021819308
0.025699832939382
0.0257326656730164
0.0257443657524123
0.025735452723161
0.0257063859384436
0.0256575486698827
0.0255892279435237
0.0255015958993864
0.0253946879150697
0.0252683852598836
0.0251223990863249
0.0249562524082066
0.0247692580761459
0.024560474700237
0.0243286434433886
0.0240721132434658
0.0237887556374162
0.0234758952187571
0.0231302557538258
0.0227479664262476
0.0223246272157815
0.0218555581780609
0.0213361962065623
0.0207629922643649
0.0201345210106656
0.0194537212572511
0.0187297609517067
0.0179812056861527
0.0172335190984974
0.0165119493234119
0.0158031583743666
0.0150041293136794
0.0138949101472237
0.0125060497658025
0.0122193188695291
0.0141920216710399
0.0181206204295428
0.0238561310421585
0.0314727079833062
0.040858774000483
0.0520074800678011
0.0647539466527424
0.0780136721779627
0.0913529981279071
0.105457306125258
0.121237657568609
0.140171437267847
0.167793673359153
0.208661072455816
0.274044455503822
0.388948462074446
0.589525686056402
0.630436712103697
0.458468098767881
0.329159169082276
0.319015102005233
0.149838498938339
0.0330253187432647
0.0120253800624073
0.0105633188107704
0.00164356284844845
0.000416040460050749
0.000378659484876249
0.000412252746210908
0.000507564671917704
0.000655463013331193
0.000866922524668063
0.00114122639966605
0.00144982009334071
0.00173652895984628
0.00195761135037479
0.00203296690689526
0.00191721175739875
0.00165386246849077
0.00129020966053639
0.00086788373067848
0.000611200979693829
0.000890596024110544
0.0014966893314192
0.00231649008375953
0.00329474605039848
0.00431005012611641
0.0052946294073039
0.00623210324450753
0.0071303454865059
0.00799650452768838
0.00883650403162951
0.00965285864153419
0.0104473883346938
0.0112205663075704
0.011972706757052
0.0127036380189264
0.0134131726109561
0.0141009691337429
0.0147667118946264
0.0154100566318965
0.0160306936897966
0.0166283346823343
0.0172027373556823
0.0177537128561012
0.0182811428793532
0.0187849954706187
0.0192654145279759
0.0197203174931725
0.020146944740594
0.0205465632612043
0.0209200667346847
0.0212679755163722
0.0215905921344303
0.0218881884655517
0.0221610849353486
0.0224096424147709
0.0226342638314614
0.0228353875422116
0.0230134848047306
0.0231690524940007
0.0233026069003094
0.0234146775392177
0.023505798484751
0.0235765019579924
0.0236273092358206
0.0236587224732639
0.0236712152931992
0.023665222249908
0.0236411268774598
0.02359924925365
0.0235398296808306
0.0234630146057839
0.0233688388038539
0.0232572114678171
0.0231279018197464
0.0229805229799196
0.0228145135858849
0.0226291033177333
0.0224232655442102
0.0221956616237394
0.0219445765763285
0.0216678699574361
0.0213629391785929
0.0210267357791005
0.0206558241676305
0.0202465956147266
0.0197955700198097
0.0193001186598831
0.0187592121980524
0.0181751335594302
0.0175542858428525
0.0169092231647078
0.0162539254604308
0.0155970335209442
0.0149061386870005
0.0140864927695248
0.0130081572620336
0.0118986682621499
0.0120089518422908
0.0140907534056723
0.0178383849390135
0.0232082808997671
0.0302211490050328
0.0387768338697003
0.048905292636243
0.0604821270358291
0.0727566137578722
0.0857296140182097
0.100375238996244
0.117787278797126
0.139974238997619
0.171952154580818
0.218114594518902
0.287588161989102
0.398127656673532
0.552440619980374
0.562603835213683
0.460762693564838
0.383965989587453
0.349980467193518
0.185783893785353
0.0448668569144875
0.014601108787825
0.0124889333879446
0.00220014661586514
0.000541303407448966
0.000470657572077736
0.000509692099287103
0.000624474147365552
0.000801482446842712
0.00104818081189762
0.00135330003818397
0.00167036244962656
0.00192698243153809
0.00207348885287003
0.00206441613757946
0.00190023478988131
0.00164373050755499
0.00133304393606011
0.000991981252871249
0.000813294814430207
0.00121286403467592
0.00195525844461477
0.00285003784810529
0.00378968476784327
0.00467886629475603
0.00551196562330626
0.00630712197591048
0.00708001238279204
0.0078352498834323
0.00857537816697877
0.0093000637553464
0.0100093218026777
0.0107023542792972
0.0113786844070757
0.0120375721904671
0.012678454465916
0.0133007083880254
0.0139038193818665
0.0144872906642033
0.0150507015703237
0.015593680148754
0.0161159224968349
0.0166171899431168
0.0170973168361968
0.017556211335355
0.0179934742988145
0.0184057700851853
0.018793414087587
0.0191571085807487
0.0194973691681073
0.0198145141764336
0.0201087605946311
0.0203803351919467
0.0206295107582436
0.0208565974626012
0.0210619443521613
0.0212459330289914
0.0214089751420589
0.0215515057806712
0.0216739778256187
0.0217768563674533
0.0218606108145069
0.0219257090357065
0.0219726091769891
0.0220017524682083
0.0220135547943947
0.0220083977949195
0.0219866187060989
0.0219485003385771
0.0218942577395372
0.0218240269621747
0.0217378502686568
0.0216356642635031
0.0215172867217338
0.021382402376197
0.021230547327364
0.0210610823415079
0.0208731568137202
0.020665665522001
0.0204371989292493
0.0201860068034035
0.0199099727436317
0.0196066339667667
0.0192732344025959
0.0189069052831306
0.0185049029558987
0.0180651841610082
0.0175869276440169
0.0170718044262647
0.0165241924165289
0.0159522604641957
0.0153625335482013
0.0147534984221737
0.0140860250583218
0.0132809968277003
0.0122760128660456
0.0113840588552166
0.0117045330454403
0.0137558581297458
0.0172437256019371
0.0221625399725403
0.0284956010568109
0.0361542534712368
0.0451742765058741
0.0554454738237421
0.0664073565605789
0.0782795400315939
0.0920749892270389
0.108938952123173
0.131119949194936
0.163108308853652
0.208990963712336
0.275336801590861
0.372981975197927
0.484948286060772
0.483989229791549
0.426214462374431
0.402487144833774
0.35464586787941
0.216490706633335
0.0592359007544156
0.0171353821519846
0.0139500090659576
0.00281803574817217
0.00068453997668309
0.000567592465895737
0.000610817792315711
0.000743470048770057
0.000944856958081151
0.00121394324979033
0.00152345769749886
0.00181012963001088
0.00200016995450853
0.00206240098498303
0.0019957284375057
0.00182747697175847
0.0016117747799227
0.00136904067321773
0.00111884745884626
0.00105435290806215
0.00156204032090474
0.00237978843069391
0.00325378961698606
0.00408204001191194
0.00483620377364864
0.00555259466680762
0.00625278546271687
0.00694530377085913
0.00762917762548219
0.00830382470257747
0.00896719492177783
0.00961836674640974
0.0102559795176831
0.0108792229919359
0.0114871341363806
0.0120790052393299
0.0126541095690526
0.0132118608906026
0.0137517103526682
0.0142732021537634
0.0147759406676311
0.015259606336273
0.0157239469537907
0.0161687801579769
0.0165940312039463
0.0169979200497034
0.0173788078543872
0.0177373431476639
0.0180739704052028
0.0183890219623539
0.0186827175889853
0.0189552333111827
0.0192067710795994
0.0194375750517083
0.019647924190951
0.019838133316839
0.020008547360257
0.0201595387764777
0.0202915016204955
0.0204048463420031
0.0204999946093101
0.020577372133018
0.0206374031748659
0.0206805031366464
0.0207070721318927
0.0207174873341745
0.0207120953846069
0.020691203641656
0.0206550719235077
0.0206039015194925
0.0205378258910871
0.0204568981872245
0.0203610806952379
0.0202502326784827
0.0201240978536953
0.0199822911653678
0.0198242783042526
0.0196493481286785
0.0194565781936167
0.019244795584133
0.0190125490345948
0.0187580908257848
0.0184793969677307
0.0181742144943427
0.017840212234862
0.0174751703092181
0.0170774336575221
0.016646276153135
0.0161828165171589
0.0156898754354213
0.0151723536504483
0.0146317824318116
0.0140605143739444
0.01341865690273
0.0126436731887033
0.0117212270816694
0.0109954295102348
0.0114289780810896
0.0134017298972196
0.0166373387126571
0.0211390078527603
0.0268667330725221
0.0337421699456137
0.0417961947606316
0.0509190724351498
0.0606754677565071
0.0713834089674373
0.0839820843779423
0.0995542139211314
0.120291912746281
0.150067841672022
0.192514352434368
0.252240546404519
0.335804560422618
0.418625712946351
0.417502617060784
0.379695852285758
0.396101318549641
0.341612140354586
0.23991409321375
0.0760631743023185
0.0196674257941026
0.0147275381329427
0.00346290542939995
0.000844988034326485
0.000667565326554779
0.000712832644569984
0.000859637776497593
0.00107649609842594
0.00134915891880201
0.00163379508837786
0.00186167978265118
0.00197767161578557
0.00198009898953376
0.00189577623621837
0.00175474549900832
0.00159374967101135
0.00142118389989787
0.00126162467031715
0.0013167684580656
0.00190466222512188
0.00273001320534152
0.0035235216310819
0.00423149744916613
0.00488466669981444
0.0055261047320199
0.00616661908598251
0.0068067668007094
0.00744232339410551
0.00807118572483468
0.00869071333223268
0.00929965132015493
0.00989648624666858
0.010480305276048
0.0110500879347977
0.0116050838186666
0.0121445392416748
0.0126678481345262
0.0131744499030116
0.0136638823581428
0.0141357481258337
0.0145897277813764
0.0150255675185454
0.0154430729009784
0.0158419953611823
0.0162198671687084
0.0165765711345323
0.0169125322638829
0.0172280511868921
0.0175233585087859
0.0177986207471186
0.018053992075638
0.0182896589467959
0.0185058465287885
0.0187028127742188
0.0188808489376386
0.0190402744483352
0.0191814342371487
0.0193046933996179
0.0194104323542623
0.0194990419546337
0.0195709169150419
0.0196264505922147
0.0196660282136669
0.0196900210413247
0.0196987793732555
0.0196926259802583
0.019671848504984
0.0196366925491914
0.0195873525519429
0.0195239639136302
0.0194465923069488
0.0193552240549027
0.0192497548328157
0.0191299785574266
0.0189955762745463
0.0188461007140148
0.0186809552430778
0.018499365997283
0.0183003504628627
0.0180826955485632
0.0178449443914681
0.0175854154153953
0.017302243670552
0.0169935054865731
0.0166573690219856
0.0162924476132773
0.0158980464190535
0.0154747982947635
0.0150242956868228
0.0145489667250449
0.01404693224648
0.0135069359584221
0.0128911590824763
0.0121522959227497
0.0113096258549456
0.0107116183039964
0.0112053982322475
0.0130861068868381
0.0160970567383286
0.0202379490437131
0.0254550269126275
0.0316787086247079
0.0389319570529916
0.0470984154360024
0.0558416211096138
0.0655181091069594
0.0769663676663385
0.0911729676678831
0.110152442149584
0.137178685592872
0.17537790062337
0.228032111125146
0.299446382098193
0.363498485300874
0.365524576004215
0.334648737625114
0.377525254164115
0.319332539649878
0.255843493136114
0.0948906531261215
0.0223612151898749
0.0147342908415754
0.00408127121202376
0.0010197178760388
0.00076781980182402
0.000811821189404752
0.000966565017437994
0.00118648154176306
0.00144244184770346
0.00168077896958237
0.00184296671554355
0.00190194956507651
0.00187724848753982
0.00180328602629278
0.00170271585999869
0.00159839944818175
0.00149361087382182
0.00142120358734698
0.00158317144647064
0.00221404498420689
0.00299353401248438
0.00368725365819184
0.00429861163391014
0.00488739396108379
0.00548238649892324
0.00608385900240827
0.00668751270659412
0.00728808395196208
0.00788293312679304
0.00846939914861225
0.00904615496409456
0.00961170589002802
0.0101651228514778
0.0107053907622131
0.0112317514174981
0.0117434511386603
0.0122398805572013
0.0127204801855138
0.0131847895712287
0.0136324153250986
0.0140630415474516
0.0144764155995189
0.0148723428354042
0.0152500708411722
0.0156075839735411
0.0159452426798797
0.0162633432165572
0.0165620974703694
0.0168416744592646
0.0171022096745067
0.0173438443641489
0.0175667542375584
0.0177711509226714
0.0179572772924846
0.0181254074864647
0.0182758423466761
0.0184089066802586
0.0185249444005957
0.0186243139840413
0.018707383797185
0.0187745260083474
0.0188261115857197
0.0188625040542113
0.0188840541121778
0.0188910932027989
0.0188839277540529
0.0188628325412361
0.0188280448324014
0.0187797567677866
0.0187181086026564
0.0186431794342015
0.018554978281332
0.018453433528165
0.0183383829699133
0.0182095646153249
0.0180666053998983
0.017909005320182
0.0177361147598691
0.0175471088808964
0.0173409699909114
0.0171164776112472
0.0168722256436585
0.0166066577187917
0.0163181690550415
0.0160052243683818
0.0156666285446159
0.015301681685675
0.0149105946119969
0.0144939765468098
0.0140523679492189
0.0135815486269863
0.0130682810241204
0.0124781185392044
0.0117769745541018
0.0110073522492789
0.0105087227817617
0.0110321778587411
0.0128201153595916
0.0156349494590504
0.0194679021771548
0.0242575012292822
0.0299413852787187
0.0365340454847454
0.0439081720459351
0.0518167731505452
0.0606210545197311
0.0710641708707644
0.0840392624130776
0.101360414506173
0.125791026715483
0.159992617995527
0.206379851056741
0.268068391451564
0.31980456187612
0.325141541461893
0.295765605047122
0.354720078364352
0.293675204195536
0.265037620633898
0.114947424853365
0.0254180954057906
0.0141025740944374
0.00460570727879833
0.00120279062722777
0.000864662303739272
0.00090294350150782
0.00105741680020559
0.00126716040509839
0.00149094033262042
0.00167577944093885
0.00178296759032567
0.00180898198917302
0.0017811828871173
0.00173111950528737
0.00167377612148887
0.00162351207206622
0.00158265815666494
0.0015914119317916
0.00183805706650892
0.00247456820036134
0.00317741018144502
0.00377975128486766
0.00432512223938335
0.00487559712093357
0.00544063042433868
0.00601473054880218
0.00659129235556878
0.00716521647228887
0.00773375629411991
0.00829445453840558
0.00884600041922463
0.00938697528066385
0.00991645748323671
0.0104334552688088
0.0109372100720867
0.0114269743161323
0.0119021377325533
0.0123621436435593
0.0128065333721743
0.0132349169598043
0.0136469807668774
0.0140424722581428
0.014421244301684
0.0147818416839833
0.0151232164567053
0.01544571880536
0.0157495583463766
0.016034888038485
0.0163018371886148
0.0165505220085455
0.016781075289888
0.0169936647018687
0.0171884917281441
0.0173657879605371
0.0175258147043368
0.0176688588961452
0.0177952303262734
0.0179052571602146
0.0179992816393941
0.0180776555728081
0.0181407346332853
0.0181888735298707
0.0182224202029625
0.0182417107845886
0.0182470636717938
0.0182387743943066
0.0182171097961834
0.0181823030341861
0.0181345471836147
0.0180739894013776
0.0180007227925441
0.0179147780492731
0.0178161135244195
0.0177046062185824
0.0175800443087284
0.0174421193702633
0.0172904147213458
0.0171243869556639
0.016943344755479
0.0167464344065432
0.0165326319816478
0.0163007582264941
0.016049507975512
0.0157775320893397
0.0154835273172513
0.015166438467049
0.0148255399553725
0.0144606784647064
0.0140716694352757
0.0136576071632854
0.0132126797441739
0.0127227386774692
0.0121572195241259
0.0114931891550147
0.0107888997260928
0.010368311102523
0.0109028912146139
0.0126019702334866
0.0152456367347705
0.0188149900009228
0.0232445726236232
0.028477816688049
0.0345200668675808
0.0412333711465808
0.0484532005922969
0.0565262438340417
0.06611444596159
0.0780304889757314
0.0939013976557336
0.116078318079864
0.146831488973731
0.188013512982994
0.242043368991613
0.28535642790512
0.293257952873718
0.263624444312252
0.331509296839448
0.268125894195763
0.268563451583709
0.135294226229542
0.0292422286095532
0.0131489688485377
0.00497266927155713
0.00138494603666673
0.000953718937529177
0.00098121464709329
0.00112680607533054
0.00131590188832251
0.00150066162145416
0.00163706737545721
0.00170653080852896
0.00171912732104256
0.00170159600715067
0.00168004146055849
0.00166426814554149
0.00166394014841416
0.00168214060524658
0.00176330332437742
0.00206927166377753
0.00268126741290037
0.00329802832231105
0.00383009649220432
0.00433493901985924
0.0048627483589423
0.0054070153730789
0.00596068780585719
0.00651623542952906
0.00706922400853773
0.00761694865846517
0.00815721581543505
0.00868874849687849
0.00921021236718432
0.00972069271760464
0.0102192205343177
0.0107050338418632
0.0111773887877944
0.0116356711591471
0.0120793243353183
0.0125078883755052
0.0129209738288509
0.0133182663697389
0.0136995064761333
0.0140645018665479
0.014411426120263
0.0147399763049531
0.0150503999280992
0.0153428443413956
0.0156174211904218
0.0158742328017892
0.0161133826332305
0.0163349973933458
0.0165392384103579
0.0167262993226018
0.0168964030797084
0.0170498012185452
0.0171867701798934
0.0173076085088362
0.0174126326763289
0.0175021729772976
0.0175765691468293
0.0176361649575274
0.0176813035307517
0.0177123218945615
0.0177295462027433
0.0177332862478951
0.0177238308227277
0.0177014426020168
0.0176663538418176
0.0176187610041035
0.0175588197015882
0.0174866375040957
0.0174022660379284
0.0173056915870726
0.0171968268398928