/*--------------------------------*- C++ -*----------------------------------*\
  =========                 |
  \\      /  F ield         | OpenFOAM: The Open Source CFD Toolbox
   \\    /   O peration     | Website:  https://openfoam.org
    \\  /    A nd           | Version:  7
     \\/     M anipulation  |
\*---------------------------------------------------------------------------*/
FoamFile
{
    version     2.0;
    format      ascii;
    class       volScalarField;
    location    "20000";
    object      k;
}
// * * * * * * * * * * * * * * * * * * * * * * * * * * * * * * * * * * * * * //

dimensions      [0 2 -2 0 0 0 0];

internalField   nonuniform List<scalar> 
15600
(
2.49705474255511e-06
9.9870004238475e-07
1.32752542063226e-07
5.6254796415397e-08
5.20187817142392e-08
4.75450409502477e-09
2.47551328226135e-09
3.54185054565438e-09
5.0611494577166e-09
7.92968902094778e-09
1.26136668340849e-08
2.01259454209809e-08
3.1540320769071e-08
4.77982580332976e-08
7.0169272974093e-08
1.01781341541599e-07
1.39708042461299e-07
1.75674340147149e-07
1.92614493280518e-07
1.63533662520261e-07
9.91406040096737e-08
5.42373243230622e-08
6.41376194213459e-08
1.07169762383313e-07
1.71824925395729e-07
2.67598108414312e-07
4.01044124531301e-07
5.73491705569036e-07
7.82591379154859e-07
1.02286823603274e-06
1.28853183858798e-06
1.5741036854802e-06
1.87532376908839e-06
2.18872453382211e-06
2.51160605867292e-06
2.84164603265947e-06
3.17684248366665e-06
3.51535936125351e-06
3.8555224092103e-06
4.1957692020393e-06
4.534650525189e-06
4.87081075020177e-06
5.20298058537974e-06
5.52996593322846e-06
5.85064541669303e-06
6.16398006811832e-06
6.4690461589354e-06
6.76507145618598e-06
7.05148407758272e-06
7.32801111517984e-06
7.59481247377313e-06
7.85232980291306e-06
8.10061350281708e-06
8.33670147827643e-06
8.55786780093924e-06
8.76339507788517e-06
8.95301104540122e-06
9.12653469903338e-06
9.28387443684862e-06
9.42502227962161e-06
9.55004942623672e-06
9.65909925956129e-06
9.75237832374321e-06
9.8301476858569e-06
9.89271349719519e-06
9.94041820426283e-06
9.97362981492055e-06
9.99273116995932e-06
9.99810827320039e-06
9.99013637443039e-06
9.9691628142395e-06
9.93548857622653e-06
9.88934503916094e-06
9.83087389162122e-06
9.76010705632429e-06
9.67695457510945e-06
9.58120175148042e-06
9.47249664729499e-06
9.35033640219242e-06
9.21401099737732e-06
9.06253795987841e-06
8.89460033025633e-06
8.70848052131675e-06
8.50204959052332e-06
8.27275546358661e-06
8.01778397903583e-06
7.73418619007525e-06
7.41953106954145e-06
7.07225316859025e-06
6.69352502964696e-06
6.28746818719572e-06
5.86565511461803e-06
5.44476829906656e-06
5.05670379771323e-06
4.73425703185545e-06
4.53608012146038e-06
4.47102269137666e-06
4.46564622572543e-06
3.94298113541718e-06
2.81896457695818e-06
2.45096007967988e-06
2.58078846597998e-06
2.84668334450924e-06
3.21121056528903e-06
3.63543743596359e-06
4.04692561716519e-06
4.41303792485664e-06
4.57313446089666e-06
4.41023244587107e-06
3.9907486942931e-06
3.48484090110244e-06
2.96323324170257e-06
2.5955343614465e-06
2.41306767463448e-06
2.5025947860436e-06
3.11372738135069e-06
5.72177082424872e-06
8.82424692981604e-06
5.40220232715723e-06
2.94263592267834e-06
8.06055972808266e-05
3.2472010309544e-05
4.49193579692611e-06
1.85395760669653e-06
1.72025578424523e-06
1.79661674126963e-07
8.21684172809086e-08
1.14633921284798e-07
1.63173581508881e-07
2.5486204246833e-07
4.04698255404052e-07
6.45161284719972e-07
1.01122209500126e-06
1.53371283130035e-06
2.25216615300012e-06
3.26950279389439e-06
4.49842838942465e-06
5.67888953040642e-06
6.26644589823608e-06
5.3645922750134e-06
3.26025737758896e-06
1.76485317793375e-06
2.09520717175201e-06
3.50080824898337e-06
5.60758214934984e-06
8.72389518273746e-06
1.30593082007545e-05
1.86539887895931e-05
2.542976611803e-05
3.32085128049876e-05
4.1802885132887e-05
5.10360028924704e-05
6.07705516162129e-05
7.08947512674022e-05
8.13216018456661e-05
9.19762523345162e-05
0.000102794214857763
0.000113716372758376
0.000124688869798908
0.000135661487688904
0.000146587693228355
0.000157423996808093
0.000168129715431792
0.000178666608103921
0.000188998792138788
0.000199093050238506
0.000208919883481041
0.000218454671129643
0.000227679234426195
0.000236585005218974
0.000245177345950578
0.000253470695240262
0.000261466965259553
0.000269021728571422
0.000276083277641134
0.000282642223958931
0.000288690435281283
0.000294222654671519
0.000299236436547806
0.000303731959662052
0.000307711879141556
0.000311181098966235
0.000314146483749021
0.000316616585106272
0.000318601342260034
0.000320111801989459
0.000321159780444722
0.000321757523610525
0.000321917338156333
0.000321651149844383
0.000320969961507061
0.000319883268845331
0.000318398328584519
0.00031651952620344
0.000314247747435088
0.000311580005447579
0.000308509339722115
0.000305024424461353
0.000301109092251168
0.000296740556472216
0.000291887342295118
0.000286507307473478
0.000280545576810372
0.000273934144119615
0.000266591576671513
0.000258427931296588
0.000249349056912289
0.000239276676635116
0.000228160407529844
0.000216035281337676
0.000203032001892976
0.00018951432290354
0.000176015745971466
0.000163543013339156
0.000153147698894039
0.000146656883699288
0.000144364108536712
0.0001437954685884
0.000127137177662616
9.17144285185292e-05
8.00514064592421e-05
8.45841571800444e-05
9.34353763706767e-05
0.000105371420710612
0.000119124603720193
0.000132387881834355
0.000144020261372163
0.000148846153267551
0.000143256040586993
0.00012955822389212
0.000113163340387898
9.63731214915725e-05
8.46180682675231e-05
7.88972664315825e-05
8.21101058599767e-05
0.000102709992999082
0.000186708133282643
0.000283786301137893
0.000173257451605969
9.49696239776051e-05
0.000588012537673486
0.000238049644970514
3.42781197997884e-05
1.37598886259878e-05
1.28412285739349e-05
1.51017922922031e-06
6.21314923982783e-07
8.42333854487413e-07
1.19396789084401e-06
1.85822408952564e-06
2.94416489265532e-06
4.68722818796059e-06
7.34514216146317e-06
1.11485244010812e-05
1.63738667062825e-05
2.37470537962671e-05
3.26609727956494e-05
4.12538166534484e-05
4.56823224645829e-05
3.94929595556081e-05
2.41966965960599e-05
1.29853347589951e-05
1.55145753530462e-05
2.59314719519074e-05
4.14666318316783e-05
6.43442412262345e-05
9.60705741612685e-05
0.000136835703215217
0.000185976614481269
0.00024212633366686
0.00030387192685514
0.000369902996177658
0.000439210456760711
0.000510982118680182
0.000584591689582566
0.00065950709114657
0.000735276056875331
0.000811490030175194
0.000887782515373537
0.000963816938414487
0.00103928626735961
0.00111390781887183
0.0011874210003502
0.00125958414291828
0.00133017333945261
0.00139898393387076
0.0014658370020342
0.00153058646060033
0.00159312847888429
0.00165342203091699
0.00171152101625957
0.00176754525638649
0.00182058231855487
0.00187028494696052
0.00191668117659862
0.0019597224535518
0.00199937679797026
0.002035628722813
0.00206847862248099
0.00209794154900331
0.00212404620668841
0.00214683347774072
0.00216635467589231
0.00218266989009277
0.00219584621267265
0.00220595605884077
0.00221307516113301
0.00221728055699698
0.00221864834876015
0.00221725100587102
0.00221315404885148
0.00220641238089756
0.00219706581208023
0.00218513504613063
0.00217061782369144
0.00215348657652833
0.00213368749620448
0.0021111379013167
0.0020857223431984
0.00205728100210269
0.00202559604019967
0.00199037822258258
0.00195125323668934
0.0019077573648254
0.00185933533820622
0.00180536792692083
0.00174520198346248
0.00167827091007404
0.00160418717522851
0.00152309414581545
0.0014357933029404
0.00134458341667913
0.00125302974131068
0.0011677289668158
0.00109586061896871
0.00104889279396854
0.00102791477248732
0.0010119168687894
0.000892957333488204
0.000664940272431649
0.000589054517989231
0.000624788355642367
0.000689263212246938
0.000775046699059464
0.000872964114053283
0.000967173929909622
0.00104885037901172
0.00108191748159093
0.00104151163203129
0.00094432809693262
0.000827298169031462
0.000707336281012567
0.000622953358501876
0.000582234762790673
0.000606887576398415
0.000758924237680032
0.0013478008215319
0.00201122944407284
0.00124433971837405
0.000691719608171766
0.00219140992908833
0.000895584527900304
0.000135340642786363
5.25487644769853e-05
4.93637284178286e-05
6.48582105638441e-06
2.43980348762563e-06
3.19952036544327e-06
4.51259654105782e-06
6.99434339342043e-06
1.1051357646488e-05
1.75597176204699e-05
2.74918760862809e-05
4.17235343213835e-05
6.12155066719751e-05
8.84017118086621e-05
0.000120987297059849
0.000152052028028513
0.000168082529658664
0.00014684134601576
9.13163359634163e-05
4.89658555719162e-05
5.94912323804486e-05
9.95746221713042e-05
0.000158029076060555
0.000243511962009332
0.000360101420415241
0.000507022113784196
0.000680331343487541
0.000874003592602981
0.00108233941105621
0.00130047706549219
0.00152489590965235
0.00175295073822643
0.00198273906730931
0.0022127541462247
0.00244180628878392
0.00266888921599988
0.00289316010680743
0.00311389058699053
0.00333045638178875
0.00354231386983352
0.00374898754722342
0.00395005574037468
0.00414514328812854
0.00433392184545636
0.00451612312090496
0.00469155354709437
0.00486011228981537
0.00502184172270719
0.00517704151924547
0.0053231520577112
0.00546004721128154
0.00558825383054834
0.00570777547612139
0.00581861234558473
0.00592079148191111
0.00601436567494951
0.00609941239844122
0.00617603148943459
0.00624434334540312
0.0063044860661548
0.0063566121290812
0.00640088531736764
0.00643747733370485
0.00646656458797681
0.00648832423701967
0.00650293015728912
0.00651054825938634
0.00651133068967071
0.00650540850262666
0.00649288334605843
0.00647381725208877
0.00644822309651782
0.00641605539387907
0.00637720415679098
0.00633149128922294
0.00627866297494263
0.00621837732296295
0.00615017471201561
0.00607344163094806
0.00598737345642974
0.00589093535330075
0.00578284042097178
0.00566153414859343
0.00552523898315694
0.00537201780873249
0.00520002976309615
0.00500778230563529
0.00479495159773828
0.00456289374799725
0.00431671149311535
0.00406534542697587
0.00382573206703504
0.00361757707560581
0.00346924487657929
0.00337930945782353
0.00327595575655553
0.00290385569842743
0.00230002468409816
0.00211070805168782
0.00225231902174211
0.00248533856706341
0.00278819040432191
0.003130232458152
0.00346131603671892
0.00374926962615549
0.00387587283582498
0.00375766713136123
0.00344377303479567
0.00304885013602171
0.00263376476855249
0.00233531179596298
0.00219143840330488
0.00228554034602034
0.00283932760513503
0.00484832404187267
0.00701017706657214
0.00445841036203919
0.00256268126621508
0.00562663704307158
0.0023639684461355
0.000381004155373707
0.000142301972983643
0.000134485131461032
1.96282324106243e-05
6.85137046013294e-06
8.65132818174977e-06
1.21313596197714e-05
1.87165950053781e-05
2.94731118423522e-05
4.66958582479288e-05
7.29459329230202e-05
0.000110492598422506
0.000161531867984892
0.000231104319279144
0.00031263124262123
0.000387808407582445
0.000424709790311903
0.000374850341739248
0.000239114729641891
0.000130350940640447
0.000163193735069588
0.0002710701334212
0.000422689990289531
0.000637652401414891
0.000917847178821751
0.0012542807518624
0.00163253671653022
0.00203689987749298
0.00245505510895526
0.00287814681043616
0.00330076724878148
0.00371945613201408
0.0041321503220169
0.00453742274375205
0.00493430353356701
0.00532203455485873
0.00570003923492197
0.00606784443530928
0.00642507103311959
0.00677140165247503
0.0071065678523129
0.00743033368751239
0.00774249043750828
0.00804286135398049
0.00833132281103766
0.00860782888743303
0.00887243329520245
0.0091253505466449
0.00936331942614923
0.00958672368761953
0.00979640501177247
0.00999262402511107
0.0101754780334503
0.010345076329487
0.0105015538681457
0.0106450702737237
0.0107758091876881
0.0108939758296674
0.0109997950624417
0.0110935080035489
0.011175368001552
0.0112456369365789
0.0113045809934381
0.0113524665936669
0.0113895553375195
0.0114160987877826
0.0114323322863294
0.011438467280781
0.0114346815463282
0.0114211080073255
0.0113978210073188
0.0113648231419815
0.0113220324505292
0.0112692733300172
0.011206270162168
0.0111326357925025
0.0110478520071721
0.0109512276821504
0.0108418464093681
0.0107185108710708
0.0105796839737536
0.0104234480782382
0.0102474738739798
0.0100490579390903
0.00982519725483715
0.00957289125801136
0.00928949897440873
0.00897377958914181
0.00862676272445881
0.00825447216766097
0.00786872733960066
0.00749234410062715
0.0071528654816352
0.00688549233566631
0.00667885118712082
0.00640799664143014
0.00575475202601007
0.00489163990497235
0.00470917294389117
0.00507836850739417
0.00563161741471238
0.00632495680281851
0.00709690481320602
0.00785608149930909
0.00853403031924881
0.00890191803511799
0.00879079136361656
0.00826344104289695
0.00750811295922852
0.00664838537091727
0.00599753986890193
0.00568494477123048
0.00593823527490105
0.0072790100507441
0.0117342235691856
0.0161697612488417
0.0107190489495466
0.00645300294617317
0.0110558438110143
0.00493970494181568
0.000874140907854467
0.000313779870001797
0.000297839956145321
4.81197474067232e-05
1.58015034790816e-05
1.91283540126703e-05
2.66407039888672e-05
4.08831933976086e-05
6.40946221520874e-05
0.000101093945198749
0.000157192034036485
0.00023679823158191
0.000343305138998403
0.000482721776280186
0.00063894564200982
0.000773697596661443
0.000831365549921248
0.000740343445982811
0.000491834964887101
0.000280953657330351
0.000364545372611102
0.000587156679173269
0.000885239239465852
0.00128208548497621
0.00176649139313756
0.00231515492370666
0.0029027863293939
0.00350747714182926
0.00411468407367245
0.00471530416813897
0.00530467258486174
0.00588025331621351
0.00644091188292663
0.00698600367110729
0.00751522729781449
0.00802837489735645
0.00852533780145444
0.00900603891711389
0.00947044178342908
0.00991852570218444
0.0103502817914032
0.0107657020334371
0.0111647799844815
0.0115475203416775
0.0119139637891771
0.0122642227681366
0.0125984945310399
0.0129139779845453
0.0132105280142428
0.013489271120284
0.0137507021781815
0.0139950760120107
0.0142225873600272
0.0144334454340753
0.0146278824390766
0.0148061528545883
0.0149685330080342
0.0151153187342083
0.0152468232869081
0.0153633737115463
0.0154653064668206
0.0155529633134789
0.0156266866390967
0.0156868148214206
0.0157336765614006
0.0157675849879238
0.0157888306418261
0.015797672868242
0.015794328885974
0.0157789612209509
0.0157516624212388
0.0157124400268322
0.0156612019192828
0.0155977454827654
0.0155217493676274
0.0154327601666226
0.0153301692290166
0.0152131656495517
0.0150806766235993
0.0149313029732725
0.0147632518767893
0.0145742869376838
0.0143616920054721
0.0141223031996989
0.0138525934349512
0.0135489819498642
0.0132082515050181
0.0128286259049421
0.0124108376043208
0.0119608968897315
0.0114912984686389
0.0110256836471445
0.010592236089861
0.0102213515255671
0.00988830838932335
0.00943793491186647
0.00858225413006591
0.00767014044680019
0.00764794428827022
0.0083208199485138
0.00926722048959558
0.010419401559983
0.0116872496812365
0.012953599306157
0.0141179247732283
0.014872904605175
0.014998881000182
0.0145465311862207
0.0137042149882505
0.0126121989588947
0.0117381092259636
0.0113565294239635
0.0119310444069197
0.0143671185314909
0.0215876347885478
0.0281413831308063
0.0197795128031006
0.012355910371945
0.0176569425936334
0.00862102225886983
0.00173788103906816
0.000603558084621419
0.000573490176619596
0.000102445429753178
3.20669863486628e-05
3.70637831049151e-05
5.12004022533365e-05
7.80667657087978e-05
0.000121638923968488
0.000190484012015029
0.000293616716473151
0.00043729835442304
0.000623705669029635
0.000852732695084057
0.00109128382152539
0.00127691365379153
0.00133807252075439
0.00119948300581269
0.000841696207512201
0.000523461410481734
0.000690971153542385
0.00106001597408261
0.00152476705601475
0.00210524762974743
0.00277709860427975
0.00350865217252755
0.00426999929600882
0.00503729397826831
0.0057957967171563
0.00653708328932214
0.00725755239731882
0.00795572513372929
0.00863140764928209
0.00928473195574087
0.00991603401153051
0.0105256252722564
0.0111138257476957
0.0116809151655003
0.0122271579455272
0.0127527896827345
0.0132580224889366
0.0137430411325621
0.0142080093552945
0.0146530826955266
0.0150784327674188
0.0154842936797134
0.0158691553740244
0.0162313872923771
0.0165723299448929
0.0168927109908462
0.0171929420697227
0.0174733192237756
0.0177341137351356
0.0179756117339211
0.0181981202890205
0.0184019670640185
0.0185874999490117
0.0187550848615782
0.0189051034721678
0.0190379494227985
0.01915402370352
0.019253730163924
0.0193374705236476
0.0194056392669609
0.0194586175420963
0.019496766788488
0.0195204211802165
0.0195298784905578
0.0195253885910864
0.019507140142155
0.0194752445927013
0.01942972001932
0.0193704753282847
0.0192972981031583
0.0192098450017254
0.0191076276410401
0.0189899878150834
0.0188560485595982
0.0187046513796521
0.0185342874530425
0.0183430269916621
0.0181284652173624
0.0178876858076205
0.0176172903291388
0.0173134917557764
0.0169724214952325
0.0165905816059504
0.0161658988086346
0.0156988857639877
0.0151952374001248
0.0146671704854762
0.0141370500997379
0.0136305396680946
0.0131696423857195
0.0127182745013046
0.0121101506441023
0.0111204745682427
0.0102542828848366
0.0104351413222437
0.0113980165163617
0.0127074417424933
0.014273169434586
0.0159833069113243
0.017707835308349
0.0193222179575397
0.0204768591264846
0.0209549551465491
0.0208082580777872
0.0202075066196983
0.0192885660131745
0.0185781963795383
0.0184488287007341
0.0195760141049283
0.0231769234628433
0.0325456584208278
0.0404122363402364
0.030485484241028
0.0194623915342173
0.024426915256928
0.013066506073495
0.00308802377437892
0.00105242609048946
0.000995192121306382
0.000196826349324066
5.94917909773326e-05
6.54170241293893e-05
8.94725714446614e-05
0.000135311186125259
0.000208984239308921
0.000323605174152682
0.00049156144744134
0.000717927448383007
0.000997063898149058
0.00131265293715736
0.00161237717627433
0.00181956823662491
0.00186388541138289
0.00167860629024242
0.00125063152540719
0.000868485020544658
0.00113433454936358
0.00164992390480277
0.00226765812721098
0.00300732091570101
0.00383778319938086
0.00472274026210771
0.0056283020250008
0.00652885671859039
0.00740987428850783
0.00826418436222174
0.00908957487551984
0.00988577252901342
0.0106535098357198
0.011393623196793
0.0121069759545451
0.0127942865541326
0.013456192183379
0.0140932281976765
0.0147058683381288
0.0152945246051519
0.015859560759311
0.0164012949528116
0.0169200099015028
0.017415967172074
0.0178894246934805
0.0183402377062862
0.0187656186376367
0.0191665593211618
0.019543993397395
0.0198984980028157
0.0202304759215922
0.0205402677712813
0.0208282048734235
0.0210946336998088
0.0213399204968515
0.0215644512575663
0.0217686312959067
0.0219528831303681
0.0221176440033796
0.0222633619444018
0.022390490916458
0.0224994859586568
0.0225907979139534
0.0226648679093776
0.0227221208957337
0.0227629588913836
0.0227877530495543
0.0227968341978808
0.0227904810606338
0.0227689065495204
0.022732241427786
0.0226805173831256
0.0226136503615629
0.0225314272834385
0.0224334953705971
0.0223193477399594
0.0221882982559026
0.0220394322593388
0.0218715425591836
0.0216830584388423
0.0214719736583276
0.0212357904361302
0.0209714837221999
0.0206755288425332
0.0203440009103434
0.0199728744498799
0.0195584920688715
0.0190985720463358
0.0185933978911057
0.0180481781343892
0.017474363965647
0.0168922278935207
0.01632384776695
0.0157828788234517
0.0152252583266665
0.0144851360110912
0.0134051051689646
0.0126127400883901
0.0129846577139333
0.0141950831150389
0.0158092151607653
0.0177169959640499
0.0197907617988356
0.0218927837353445
0.0238780831334189
0.0253732294414177
0.0261934601817359
0.0263996660705797
0.0261601663095531
0.025627372162173
0.0253494768018567
0.0257436564440866
0.0275894577325034
0.0322441229787763
0.0429119661862074
0.0513964366563539
0.0414800665411294
0.0269817796364703
0.030897573364419
0.0178543260107353
0.00499551531547358
0.00170306371371768
0.00158772366875634
0.000349033388908878
0.000103217310927608
0.000107647632951521
0.000145428604740621
0.000217607617756891
0.000331900602492254
0.000505476833980153
0.000751273870120273
0.00106683133057661
0.00143086704252188
0.00180732773120426
0.00213493297147286
0.00233891388198991
0.00235914443236583
0.00213892955805674
0.00167777219209677
0.00129913028185847
0.00165857222912109
0.0023022716929806
0.00305307956698029
0.00393216833408731
0.00490202358301696
0.00591983465697703
0.00694729077183398
0.00795843889355149
0.00894029349146222
0.00988764049276625
0.01079977952802
0.0116775336734556
0.0125223596084267
0.0133355999909798
0.0141184657712386
0.0148719330958632
0.0155968317993179
0.0162938515150302
0.0169635920312682
0.0176065739756673
0.0182232572550627
0.0188140478852398
0.0193793097122812
0.01991937928149
0.0204346277801904
0.0209233521583318
0.0213844491600152
0.0218192433771652
0.0222284784030389
0.0226126757561368
0.0229722530734825
0.0233075928630431
0.0236190765957858
0.0239071012378823
0.0241720829255061
0.0244144571681307
0.0246346783272638
0.024833217529003
0.0250105599907258
0.025167200924902
0.0253036404586015
0.0254203784292959
0.0255179088422109
0.0255967139837029
0.025657257650862
0.0256999780734592
0.0257252797222246
0.0257335236525288
0.0257250156297184
0.0256999922503646
0.0256586044828464
0.025600900211992
0.0255268068469166
0.0254361170173163
0.0253284770351453
0.0252033725071359
0.0250601036501078
0.0248977366409325
0.0247150394121132
0.024510409642428
0.0242818023396052
0.0240266727748823
0.0237419416695353
0.023424020921298
0.0230689156414833
0.0226725127843217
0.0222310522758164
0.0217420768019508
0.0212056067184194
0.020626248390153
0.0200144067339423
0.0193879391165601
0.0187650887698319
0.0181522301938414
0.0175003792830456
0.016650625378479
0.0155080388852138
0.0147939358382138
0.0153335323218797
0.0167517829582319
0.0186191165623836
0.0208083499028759
0.023180134833942
0.025590505214169
0.0278734166548165
0.0296466173570474
0.030762942117849
0.0312928827815574
0.0314111533610352
0.0312998373519028
0.0315216146466628
0.0325215094412785
0.0351076939811479
0.0406509631302012
0.0520275952192309
0.0607615045690889
0.0517170877415773
0.0345109457129968
0.0370170595954949
0.0226986860554285
0.00745905533413306
0.00259758969446996
0.00235518775963093
0.000578939216323546
0.000169819299533345
0.000167591434811553
0.000222959029941494
0.000329011200641252
0.000493298587594014
0.000734604718786907
0.00106125396797023
0.00145667966581366
0.00188196724744761
0.00228908483448215
0.00262104706359678
0.00281271558014159
0.00281308983893003
0.00257318817971777
0.00210985117730376
0.00178141609824724
0.00222655673772957
0.00298092247532776
0.00385293807662203
0.00486064507149727
0.00595619986646903
0.00708961702538166
0.0082203855345268
0.00932448255396226
0.0103913793572955
0.0114179000365565
0.0124046014804521
0.0133531091766448
0.0142653447262862
0.0151429543198217
0.0159873393611474
0.0167996137161689
0.0175807068276407
0.0183313902870833
0.0190523329535892
0.0197441190205529
0.0204072685458279
0.0210422463721574
0.0216494735294544
0.0222293354640648
0.0227820277147789
0.0233048036359543
0.0237984215352442
0.0242639142866333
0.0247019319085065
0.0251129801710917
0.025497500180056
0.0258559135364376
0.0261886458597693
0.0264961386093382
0.0267788521346204
0.0270372660362214
0.0272718785511966
0.0274832044605213
0.0276717722489827
0.0278381198524023
0.0279827893528967
0.0281063214545705
0.0282092496811066
0.0282920941627128
0.0283553545933586
0.0283995028785613
0.0284249747720476
0.0284321601177814
0.0284213910030303
0.0283929278809756
0.0283469431333704
0.0282835032651409
0.0282025508788312
0.0281038894368084
0.0279871709992783
0.027851882080872
0.0276973200313338
0.0275225456644213
0.0273263195352675
0.0271070296454152
0.02686261911629
0.0265905285254097
0.0262876617425829
0.025950409255875
0.0255747499487395
0.0251565257922392
0.0246919049230832
0.0241782668907414
0.023615334442011
0.0230070328550759
0.0223625562616853
0.021697246577768
0.021025602162009
0.0203479682339106
0.0196128432585238
0.0186717523604958
0.0174850676639419
0.0168460052294476
0.0175309302733411
0.0191254533072108
0.0212061220607511
0.023630871679035
0.0262512648784393
0.0289171376515896
0.0314389329558514
0.0334406797899543
0.0348080210544581
0.0356193310964649
0.0360584440055856
0.0363388296596059
0.0370334210589006
0.0386098063432108
0.0418715408293305
0.0481479262606182
0.0599021328032912
0.068723287426744
0.0607468369858291
0.0418692093740011
0.0428527358963756
0.0274719037492928
0.0104073266893917
0.00377147390127822
0.00327236477438629
0.000905134878394968
0.000267194792251309
0.000249182460293417
0.00032525241411702
0.000471508490447866
0.000691672879224167
0.00100217086097004
0.00140159658379454
0.00185713385559212
0.00231804532224124
0.00273522440974158
0.00306207244363145
0.00324274203370066
0.00323183356375592
0.00298680683402057
0.00254487669457473
0.00228992011038302
0.00281482161680498
0.00367047768782143
0.0046591441956279
0.00578774835811922
0.00699597280387892
0.00822941238263369
0.00944843761019781
0.0106323459605041
0.011773148270065
0.0128693652016694
0.0139224384196857
0.0149344988338964
0.0159077168596466
0.016843886416932
0.0177444866006064
0.0186106854927368
0.019443449489701
0.020243584177573
0.0210117903822395
0.0217486867733324
0.0224548305456166
0.0231307268898332
0.0237768394649919
0.0243936055880902
0.0249804513029476
0.0255351426454941
0.0260590706570721
0.0265531068220643
0.0270178566288108
0.0274538287900422
0.0278614913218798
0.028241302749223
0.028593729011096
0.0289192522178341
0.0292183732874676
0.0294916124080764
0.0297395083460618
0.0299626163304157
0.0301615050726886
0.030336752363721
0.0304889395478847
0.0306186457027969
0.0307264415889283
0.0308128831429831
0.0308785041911016
0.0309238088622552
0.0309492631185714
0.030955284969211
0.0309422327440431
0.0309103913512407
0.030859955978756
0.0307910140829802
0.03070352680343
0.03059731286117
0.0304720356671003
0.0303271895961025
0.0301620778962491
0.0299757670847833
0.0297670242043676
0.0295342447171958
0.0292753805728029
0.0289878821428952
0.0286686643341981
0.0283141268958111
0.0279202534936795
0.0274828699721664
0.0269980915047504
0.0264631389582708
0.0258774088970134
0.0252440935470196
0.0245710851668642
0.0238712248079229
0.0231555048947721
0.0224194260343697
0.0216107699647358
0.0205931952498189
0.0193751628057024
0.0188055685759051
0.0196168089107514
0.0213631267299467
0.0236267197303022
0.0262524267579145
0.0290843255673785
0.0319654561344835
0.0346794790687393
0.0368731757191634
0.0384547795529203
0.0395097142559088
0.0402313702581908
0.0408616740645346
0.041979233557577
0.0440701732828044
0.0479207965891548
0.0548015375722523
0.0667482476301985
0.0755805753821171
0.0685622623021783
0.0489410770402958
0.0484453798829442
0.0321456715394528
0.0137287379737799
0.00523058057977125
0.00428921770417097
0.00133961636661362
0.000403984823563658
0.000355983880998944
0.000454028469862411
0.000644065952389939
0.000920838870375192
0.00129451390997086
0.00175159174364221
0.00224623448501139
0.00272424419971794
0.00314191813109687
0.00346280406670448
0.00363772421321333
0.00362445655388157
0.00338693593701337
0.00298373610805799
0.00281048340495366
0.00341276333838787
0.00436747490988308
0.0054705738739011
0.00671144123101448
0.00801931478334182
0.00933939521777901
0.0106350728034004
0.0118892740625306
0.013096177222333
0.0142555485292288
0.0153693778053107
0.0164400638454752
0.01746986776578
0.0184606202693516
0.0194138004103526
0.0203305731364123
0.021211899379582
0.0220585862471178
0.0228713415911526
0.0236507989867148
0.0243975373328566
0.0251120897272471
0.0257949523148825
0.0264466912235948
0.0270654570462338
0.0276505168146038
0.0282031933821925
0.0287242633408026
0.029214313605977
0.0296738654188224
0.0301034152008236
0.030503456836477
0.0308744940660435
0.0312170471246175
0.0315316551003966
0.0318188764582458
0.0320792882898349
0.0323134841677042
0.0325220710497714
0.0327056647324621
0.0328648841067546
0.0330003450617553
0.0331126541991143
0.0332024020590467
0.0332701556098098
0.0333164504607323
0.0333417823349625
0.0333465973142487
0.0333312803056713
0.0332961415428728
0.033241400529593
0.0331671679463108
0.0330734265711588
0.0329600143737156
0.0328266110491985
0.0326727248432642
0.0324976723628676
0.0323005351188979
0.0320800981550805
0.0318347784437855
0.0315625535371518
0.0312609031524552
0.0309267751643977
0.0305566022280581
0.030146396109131
0.0296919873716527
0.0291894507404818
0.0286358497264519
0.0280302331538017
0.0273750286753482
0.0266767851609565
0.0259459220214973
0.0251902289214647
0.0244014100975923
0.0235278460153968
0.0224459303371418
0.0212056533759666
0.0206994766475245
0.0216212296302004
0.0235001260573905
0.025923074651754
0.0287232185991724
0.031738077352358
0.0348022016338903
0.037671928550718
0.0400303186106954
0.041797264575574
0.0430654374234579
0.0440375243426741
0.0449798249340402
0.0464725100264302
0.049016142520407
0.0533752471323349
0.0607569249328227
0.0727824164497004
0.0815793790537031
0.0753295350772868
0.0556447892604345
0.0537891700205669
0.0367383052789501
0.0173038760160727
0.00699082272995896
0.00535224232120078
0.00188232521243863
0.000588370993891432
0.000490570347796104
0.000608897156641618
0.000842475497197571
0.00117149012981163
0.00159748167831129
0.00209574863384288
0.00261309270409563
0.00309792063158886
0.00351357181813291
0.00383126060514718
0.00400635303717167
0.00399867483925369
0.00377923826797703
0.0034274609415542
0.00333695628153843
0.00401790398368302
0.00507293593623035
0.00628688885692754
0.00762987185472034
0.00902530058062932
0.0104211666083507
0.0117848039096987
0.0131024407966117
0.0143699282108134
0.0155878644679851
0.0167585241909071
0.0178843968634685
0.0189677216614913
0.0200102869319692
0.0210135169055711
0.0219785325221743
0.022906259141927
0.0237974821753717
0.0246528986982137
0.0254731431541337
0.0262588050978434
0.027010436526303
0.0277285497585945