/*--------------------------------*- C++ -*----------------------------------*\
  =========                 |
  \\      /  F ield         | OpenFOAM: The Open Source CFD Toolbox
   \\    /   O peration     | Website:  https://openfoam.org
    \\  /    A nd           | Version:  7
     \\/     M anipulation  |
\*---------------------------------------------------------------------------*/
FoamFile
{
    version     2.0;
    format      ascii;
    class       volScalarField;
    location    "20000";
    object      k_conv;
}
// * * * * * * * * * * * * * * * * * * * * * * * * * * * * * * * * * * * * * //

dimensions      [0 2 -3 0 0 0 0];

internalField   nonuniform List<scalar> 
15600
(
-1.01811320492253e-05
-4.41855774263219e-07
2.73132949037717e-08
-3.1784106780166e-07
-1.83732105208475e-07
-3.82933220407435e-09
-5.466374042041e-10
-7.47558396383783e-11
-1.52098417373619e-10
-2.7797479791432e-10
-5.23587147176654e-10
-9.22554640680535e-10
-1.45412459593111e-09
-2.02155863182649e-09
-9.7247926253089e-09
-5.66555914977726e-08
-1.41955633433633e-07
-2.33188089439087e-07
-2.62024002034376e-07
-1.42707998433459e-07
-2.33989049703759e-08
-3.86823852900385e-09
6.5404597229455e-10
2.42233906854679e-09
2.49155291444246e-09
-3.99651448263862e-09
-1.55966135361772e-08
-3.1640788144652e-08
-5.13847871799179e-08
-7.30680647268101e-08
-9.50760961722052e-08
-1.16505549115069e-07
-1.3675520457427e-07
-1.55566089393077e-07
-1.72726514207251e-07
-1.88135131883686e-07
-2.01694098215229e-07
-2.13361835351894e-07
-2.23109499450367e-07
-2.30942716560233e-07
-2.36881365690754e-07
-2.40962445309194e-07
-2.43233187827946e-07
-2.43754212606802e-07
-2.42607012597674e-07
-2.39911827757894e-07
-2.35830480447351e-07
-2.30575608576674e-07
-2.24449710177213e-07
-2.17872814858136e-07
-2.11146303352107e-07
-2.04016063919708e-07
-1.94065738649449e-07
-4.69730588476744e-07
-8.21792257586605e-07
-1.17118595745657e-06
-1.51501100439219e-06
-1.85056797670315e-06
-2.17538506751116e-06
-2.4872276926311e-06
-2.78413512489785e-06
-3.06444522483054e-06
-3.32679483367513e-06
-3.57010867123968e-06
-3.79358907885456e-06
-3.99671582734784e-06
-4.17921980580437e-06
-4.34106547935823e-06
-4.48242943619173e-06
-4.60368011048704e-06
-4.70533416326001e-06
-4.78801600999089e-06
-4.85237267443402e-06
-4.89899619650039e-06
-4.92831792580332e-06
-4.94049500477176e-06
-4.93545969247974e-06
-4.912855727624e-06
-4.87228045144921e-06
-4.81312767821835e-06
-4.73439073640047e-06
-4.63454088058535e-06
-4.51106496670155e-06
-4.36067033968043e-06
-4.17852237007585e-06
-3.95958698420564e-06
-3.69670799561237e-06
-3.3857877305774e-06
-3.01920041501765e-06
-2.60262402340641e-06
-2.13092413148064e-06
-1.63825019121717e-06
-1.11810146491612e-06
-6.7586161543045e-07
-3.08257066759276e-07
-4.47102236156291e-07
-1.27456514011892e-06
-5.74022378879613e-06
-8.85169946936809e-06
-1.77487610774577e-06
-2.29209260176938e-08
-5.2560839251479e-08
-4.12346867783597e-07
-1.80553961713521e-06
-4.02084694758617e-06
-6.64814365798314e-06
-9.81631299407262e-06
-1.17528651169474e-05
-1.18399044151096e-05
-9.75325351072406e-06
-7.77949155966159e-06
-5.49562253784518e-06
-5.88991415901961e-06
-7.48877723371737e-06
-1.33107486098564e-05
-3.623370491544e-05
-0.000164107511618093
-0.000181645918484027
-7.87561917482792e-06
-2.67219929040274e-06
-3.91079758406781e-05
-3.78525105825396e-05
3.72453373412546e-06
-6.66130469592732e-06
-4.30803980171065e-06
-9.99159984772788e-08
-1.78398381242453e-08
-7.13281175398353e-09
-1.32283887651533e-08
-2.41394140108935e-08
-4.43546460660487e-08
-7.8064391685837e-08
-1.24596169141304e-07
-1.82523304572787e-07
-3.70641755619642e-07
-1.40561886141359e-06
-3.22586855708368e-06
-5.30158867804543e-06
-6.14031932860806e-06
-3.81165890002546e-06
-1.01120284491301e-06
-2.91280819155633e-07
7.44683852838678e-08
2.28960731848626e-07
1.06809446454917e-07
-4.87714503119337e-07
-1.36848168499313e-06
-2.61647232277125e-06
-4.12484397351532e-06
-5.76460423768625e-06
-7.43236670923877e-06
-9.06381298237436e-06
-1.06176737795298e-05
-1.20721097311633e-05
-1.3410489495328e-05
-1.46235997098652e-05
-1.57038608908196e-05
-1.66479161036759e-05
-1.74538886387505e-05
-1.81224732324493e-05
-1.86555363239883e-05
-1.90562193204631e-05
-1.93284716085353e-05
-1.9477304896876e-05
-1.95093546281199e-05
-1.94340597723308e-05
-1.92640655476638e-05
-1.90162022641684e-05
-1.87150107547624e-05
-1.83951485071208e-05
-1.80801953284893e-05
-1.77442551956017e-05
-2.2901495407728e-05
-2.99921121474116e-05
-3.69335119924996e-05
-4.37415488442757e-05
-5.03682033840956e-05
-5.67692509499188e-05
-6.2904859060082e-05
-6.87397906058565e-05
-7.4243799834096e-05
-7.93918541802485e-05
-8.41640581941125e-05
-8.854534751086e-05
-9.25253017236179e-05
-9.60979706286354e-05
-9.92614036502968e-05
-0.000102017274086188
-0.000104370393986344
-0.000106328173785562
-0.000107899772436499
-0.00010909505316453
-0.000109923147230097
-0.000110390884893645
-0.000110501174715764
-0.000110251471219789
-0.000109634270191926
-0.000108636518467315
-0.000107241912017922
-0.000105427848690467
-0.000103161661909081
-0.000100397672074975
-9.70707527638639e-05
-9.30984301770117e-05
-8.83734671946047e-05
-8.27830526480253e-05
-7.61941394507755e-05
-6.85270232694228e-05
-5.96973872404159e-05
-4.98438877455994e-05
-3.90710892301252e-05
-2.8093694670623e-05
-1.73024862743603e-05
-8.75276954374658e-06
-3.55905470373232e-06
-9.47008720540034e-06
-3.38906582968413e-05
-0.000111516296976488
-0.000152326842190905
-3.42224145982726e-05
-1.68573765649033e-06
-5.22632440783366e-06
-2.66700024048747e-05
-6.17898720013241e-05
-0.000111563903739627
-0.000169147565232028
-0.00023375563801721
-0.000273172418314605
-0.000271398091246203
-0.000227444264634008
-0.000183586301762757
-0.000137585256908141
-0.000143064664305504
-0.000179278728587219
-0.000306760629615023
-0.000810478686848948
-0.00341526966474127
-0.00379914922626543
-0.000474528982543512
-0.000195165580886066
-0.000254914547301764
-0.000385811353318334
3.61398780105937e-05
-4.02874367127644e-05
-2.82662770034811e-05
-7.11415350087917e-07
-1.55637226338876e-07
-8.39050948967125e-08
-1.41994678651094e-07
-2.543211911192e-07
-4.59601522038115e-07
-8.11605340405996e-07
-1.32958052848369e-06
-2.05984531309945e-06
-3.60500992794662e-06
-1.01578928158296e-05
-2.10170398113061e-05
-3.33356171539073e-05
-3.91984807353788e-05
-2.62218102219235e-05
-8.80260235057135e-06
-2.63969618401424e-06
1.29614893389211e-06
3.20233747277594e-06
9.14293907980132e-08
-4.41831402383701e-06
-1.24167993219966e-05
-2.34852043154703e-05
-3.67399419408573e-05
-5.11544651137473e-05
-6.59073516958425e-05
-8.04582018925793e-05
-9.44256384761633e-05
-0.000107596575723925
-0.000119808184143595
-0.000130980593224471
-0.00014105570914495
-0.00015002107920462
-0.000157878255749882
-0.000164652638724048
-0.000170377822115965
-0.000175097092958237
-0.000178858117082522
-0.000181715188012526
-0.000183733250234323
-0.000184997792456387
-0.00018562010979874
-0.000185747670441659
-0.00018560205718932
-0.000185515990271898
-0.000185714328246901
-0.000208499836164686
-0.000237589937177452
-0.000263912116543578
-0.000289267751606654
-0.000313553132969798
-0.000336677787950277
-0.000358563466680512
-0.000379143729224623
-0.000398364240942165
-0.000416182539480689
-0.0004325678238328
-0.000447500393859879
-0.00046097021410754
-0.000472976455789004
-0.000483526466003452
-0.00049263444142891
-0.000500320112345455
-0.000506606813867382
-0.000511519120911187
-0.000515079739237676
-0.000517304988306109
-0.000518200556403638
-0.000517756167262639
-0.000515941881016757
-0.000512704615568267
-0.000507968094543475
-0.000501629958887832
-0.0004935605176318
-0.000483589006092939
-0.000471488491520296
-0.000456962038781897
-0.000439624805070374
-0.000419006976453852
-0.000394546277585052
-0.000365647421599239
-0.000331694265774321
-0.000292282654235261
-0.000247211899782312
-0.000197180448257407
-0.000143417410844928
-8.95550278872859e-05
-3.96787267275985e-05
-4.07295364397549e-06
6.79640676133523e-06
-4.04704904003922e-05
-0.000178520620045838
-0.000482733507451707
-0.000606113182936836
-0.000158663976963141
-2.00742539776775e-05
-9.73684833169237e-05
-0.000247872301174904
-0.000472235565279653
-0.000767831533319114
-0.00110482750271514
-0.00146856116234458
-0.00170186200950964
-0.00169240368802305
-0.00146496665227185
-0.00122111862621243
-0.000972755380998142
-0.00100454902201883
-0.00123876213462005
-0.00202628677283137
-0.00507413088831008
-0.0191653854259781
-0.0204979536263548
-0.00334389694174488
-0.00145959127719853
-0.000696524261372301
-0.00187463291409353
9.14244273024288e-05
-0.000136667522997745
-0.000104615118477774
-2.85266711015455e-06
-7.05384407248053e-07
-4.31000716936144e-07
-6.84750943076074e-07
-1.19941133555029e-06
-2.1452368624742e-06
-3.79359596801005e-06
-6.34866686112268e-06
-1.01949074851307e-05
-1.70168424449401e-05
-4.01352522096414e-05
-7.55159286799163e-05
-0.000113727329603698
-0.000132389216637662
-9.34733799621989e-05
-3.545305562996e-05
-9.34651862342722e-06
8.86328814100581e-06
1.08061142938479e-05
-7.85334397067474e-07
-1.97796055359395e-05
-5.03281793789058e-05
-8.95813884697063e-05
-0.000133975004966585
-0.00018041251728536
-0.000226537630380086
-0.000270988584698128
-0.00031273680034503
-0.000351375459236402
-0.000386613510379615
-0.000418483664756314
-0.000447051547423206
-0.00047252335138072
-0.000495101962199322
-0.000515034376042042
-0.000532549252064341
-0.0005478725376388
-0.000561208986863992
-0.000572753689792112
-0.000582703690090309
-0.00059128811271047
-0.000598790352138149
-0.000605575742572522
-0.000612230474604178
-0.000619821213457656
-0.000671960947720178
-0.000716304153239884
-0.000747731746170899
-0.000777005808493301
-0.000804051447560851
-0.000828909310848146
-0.000851620876764115
-0.000872231243962114
-0.000890786390064745
-0.000907334990171345
-0.000921926589034069
-0.000934611247731961
-0.000945439812494444
-0.000954461954102028
-0.000961726754426576
-0.000967280944441499
-0.000971167970963436
-0.000973426095096897
-0.000974085201220218
-0.000973162353050199
-0.000970657128611381
-0.000966543723697751
-0.000960766591895197
-0.00095323414401015
-0.000943817690598814
-0.000932349635863634
-0.000918619363034802
-0.00090236338710176
-0.000883245748833327
-0.000860830088780512
-0.000834554766396322
-0.000803706877941544
-0.000767402556707198
-0.000724584303352856
-0.000674034507731875
-0.000614451352259192
-0.000544561038360515
-0.000463433417054724
-0.000370804880885988
-0.000268011668982958
-0.000158502134131681
-5.0170685196846e-05
4.47757649182063e-05
0.000103895007785532
9.84847748909785e-05
-2.37116504551664e-05
-0.00029284852907793
-0.00074288981881213
-0.000915823717837678
-0.000316416128821875
-0.000136973477520666
-0.000467919710807179
-0.000938954771648534
-0.00158939912714067
-0.00239987876893843
-0.00331836714746794
-0.00430531692315293
-0.00501748351175291
-0.00512986966017031
-0.00470555352387392
-0.00416592307155462
-0.00357018537242264
-0.00374730495627385
-0.00459969609124966
-0.00724971542019757
-0.0169851151740811
-0.0554230166584413
-0.0555149527821049
-0.0101110202108949
-0.00400703835685412
0.000961460141696377
-0.00593535534555213
-6.92362609712824e-05
-0.000329113207768049
-0.000280873345554644
-8.37259245056289e-06
-2.2094278018428e-06
-1.45518455406399e-06
-2.21742884077797e-06
-3.80744860085972e-06
-6.75471194909505e-06
-1.19247060391809e-05
-2.01862730471223e-05
-3.29386643071592e-05
-5.30292020878788e-05
-0.000109782973029773
-0.000187160397088781
-0.000261205869019587
-0.000293856864733852
-0.000215611614542153
-8.77847973130292e-05
-1.57375400229565e-05
3.27333063369532e-05
1.7131240895278e-05
-7.16496395024765e-06
-5.05008777727765e-05
-0.000108851398708074
-0.000176016328365818
-0.000248685041610938
-0.000324898516272837
-0.000401835272942088
-0.000477365512350466
-0.000549211800048058
-0.00061642094942324
-0.000678244669985393
-0.00073469760513461
-0.000785838075700479
-0.000832013014808771
-0.000873535219790164
-0.000910797419220326
-0.000944145177186318
-0.000973920184236096
-0.0010004231349396
-0.00102393724808709
-0.00104474268500316
-0.00106316094751967
-0.00107960650704481
-0.00109460120671575
-0.00110896332195765
-0.00117695180363597
-0.00121399339127025
-0.00123270780555879
-0.00124946321312479
-0.0012635940987764
-0.00127522695112697
-0.00128452929337857
-0.00129165609580874
-0.00129675546339449
-0.0012999641058722
-0.00130141026142287
-0.00130121087368703
-0.00129947128993486
-0.00129628665858506
-0.00129173987326049
-0.00128590319439348
-0.00127883633243371
-0.00127058617466061
-0.00126118471298628
-0.00125064547617865
-0.00123895797064051
-0.00122608268055825
-0.00121194171668478
-0.00119641533291637
-0.00117933649222647
-0.00116049291751191
-0.00113962727536984
-0.00111643053924238
-0.00109052545363396
-0.00106143375624314
-0.00102853878224384
-0.000991056190426163
-0.000948003315302713
-0.000898180325221349
-0.000840164697229078
-0.000772334599103231
-0.000692946771218365
-0.000600298774782434
-0.000493067012749742
-0.000370837018257768
-0.000235127244397482
-9.06277149371335e-05
5.23260157889072e-05
0.000176072294427461
0.000251426269757589
0.000241051861919013
9.99451307494723e-05
-0.000168315717138908
-0.000576086161795943
-0.000827242074713089
-0.000480636776684941
-0.000543543253280884
-0.00114354613909566
-0.00197195182985258
-0.00303502425508135
-0.00429069319967167
-0.00569804158174992
-0.00722638430441573
-0.00851162001998166
-0.00903503862927976
-0.00891055566642328
-0.00858036642134824
-0.00809489220434525
-0.00890579156754947
-0.0111207355519243
-0.0170864320389657
-0.0370455106086983
-0.100384488257481
-0.0931627413416022
-0.0192622166767848
-0.00525588469550905
0.00914040719669933
-0.0124829566964988
-0.00105812299782948
-0.00061794814807157
-0.000608723681614557
-2.01371719535864e-05
-5.47203993431784e-06
-3.82111902141811e-06
-5.6594298959627e-06
-9.5421713165002e-06
-1.67689115828643e-05
-2.93934901948652e-05
-4.97225465293309e-05
-8.09487800996193e-05
-0.000126871398351185
-0.000228409665603154
-0.000346886302153419
-0.000436766643549908
-0.000460508478210004
-0.000355283183602836
-0.000146639237225691
1.81018056279427e-06
5.80034457891249e-05
3.03122743002922e-05
-7.77299385604646e-06
-6.17546960871735e-05
-0.000133697817071855
-0.000227058483362335
-0.000341222216117496
-0.00046877995257724
-0.00059876282478697
-0.000723931391282185
-0.000839294960948921
-0.000943474431970982
-0.00103594896316084
-0.00111747333593415
-0.00118879381074251
-0.00125096441079962
-0.00130487964908701
-0.00135145259739198
-0.00139145440205116
-0.00142559116325374
-0.00145446461879806
-0.00147861305556593
-0.00149853216944811
-0.00151473099324004
-0.00152783956341894
-0.00153853290291933
-0.00159123240590339
-0.00161734057005444
-0.00162049229095784
-0.00162231416225499
-0.00162182507512776
-0.00161891404708996
-0.0016137989484279
-0.00160670999492226
-0.00159785692367849
-0.00158743525787053
-0.00157562156124702
-0.00156257611349366
-0.00154844023351946
-0.00153333602500515
-0.00151736822828227
-0.00150062265959362
-0.00148316815498831
-0.00146505506288509
-0.00144631543854915
-0.00142696105093641
-0.00140698010534512
-0.00138633145541382
-0.00136493953674452
-0.00134268496982858
-0.00131940103080233
-0.001294869067058
-0.00126882179761178
-0.00124094452952205
-0.00121086883991519
-0.0011781524485822
-0.00114224167619923
-0.00110242958230383
-0.00105782433449615
-0.00100731948480075
-0.000949575656583386
-0.000883017427690169
-0.000805857363803674
-0.000716178423370818
-0.000612099373802327
-0.000492127033339643
-0.000355709639863996
-0.000204315724489492
-4.27846443953986e-05
0.00011809698478169
0.000259809921699461
0.000352815248053533
0.000362377958736236
0.000256129024214433
5.6300850575229e-05
-0.000300464863374824
-0.000720765905921063
-0.00072597075487342
-0.00104955896879225
-0.00188101365801195
-0.00293376945263077
-0.00419092748228202
-0.00559900949482517
-0.00713614607037308
-0.00880945286278899
-0.0104432551689638
-0.0112535831640655
-0.0116352345466087
-0.0119546264666193
-0.0122843755071847
-0.0143447143197716
-0.0185722940839179
-0.0282254890492507
-0.0566934353234862
-0.126194986074644
-0.111612063648561
-0.0253911819050689
-0.00748336563655917
0.0217524826055465
-0.0178527365082153
-0.00330895382786187
-0.000925369460199548
-0.00111725250822603
-4.18367207642404e-05
-1.14890342835913e-05
-8.47199644456647e-06
-1.22920341845039e-05
-2.03345759246024e-05
-3.52210960464996e-05
-6.0740381708597e-05
-0.000101065686664217
-0.000160712852862058
-0.000243006195306881
-0.000375259765111681
-0.000500359047954993
-0.00056252080267478
-0.000548021732810417
-0.000456222497232518
-0.000172577322490718
7.01225012216027e-05
8.05622917437384e-05
5.66211714553312e-05
1.30075363456537e-05
-5.90719804957576e-05
-0.000178018706258469
-0.000341266112152858
-0.000530248015346322
-0.000723986126525366
-0.000906473689824407
-0.00107130033008294
-0.00121570877340878
-0.0013407492519861
-0.00144771781088961
-0.00153878139020328
-0.00161568609354742
-0.00168025511036816
-0.00173396123105729
-0.00177817892723046
-0.00181404587223918
-0.00184256898297112
-0.00186459626033532
-0.0018808699180235
-0.00189205099293709
-0.00189877363374579
-0.00190182175276326
-0.00191662461920663
-0.00195069199619
-0.00194045935871493
-0.00192971054365753
-0.00191711210194074
-0.00190233435284614
-0.00188547898209857
-0.00186680706781571
-0.00184657728387094
-0.00182502446495735
-0.00180236466891819
-0.00177879100740352
-0.00175447532782768
-0.00172956603989859
-0.00170418780227461
-0.00167844324583458
-0.00165241212200277
-0.00162615313954799
-0.00159970300542381
-0.00157307693384199
-0.00154626684557411
-0.0015192385943669
-0.00149192637374803
-0.00146422751705563
-0.00143599352062774
-0.0014070256930618
-0.00137707099666872
-0.00134582531517254
-0.00131293537054918
-0.00127799408085141
-0.00124051937530069
-0.00119991545827085
-0.00115542852195258
-0.00110611298850001
-0.00105080371687652
-0.000988097564487216
-0.000916353159538431
-0.000833712343777612
-0.000738185597038633
-0.000627805446040407
-0.000500984087087902
-0.000357024902957674
-0.000197220540793861
-2.60750321874774e-05
0.000146099030768173
0.000301924247387258
0.000414010769686616
0.000453069859788898
0.000394904089283051
0.000262057091305513
-8.23699640313232e-05
-0.000694679730632331
-0.000995552868499002
-0.0015202801209199
-0.00250525032359953
-0.00366773039421971
-0.00497281771519218
-0.00636455235379318
-0.00783208748191011
-0.0094621973007367
-0.0112012767953609
-0.0119974024603931
-0.0126046211901014
-0.0133012594281034
-0.0142673659111082
-0.0172514708686666
-0.0230043368876949
-0.0348437326479591
-0.0659758630916712
-0.124578397246804
-0.109973732240456
-0.0226414549787083
-0.0226258610432963
0.0295521050383038
-0.0197030929471841
-0.00604845129731466
-0.00104103377979446
-0.00176605572468976
-7.66707994453832e-05
-2.12372499311238e-05
-1.6581164403121e-05
-2.36633759576314e-05
-3.82524217577548e-05
-6.47246241536699e-05
-0.00010836171226355
-0.000173941507507487
-0.000263835081788298
-0.000372726971457425
-0.000502985944302407
-0.000593179859695042
-0.000605019455807369
-0.00055064733698265
-0.00043935647140311
-0.000186309316215053
0.000145670729993125
0.000112396960361951
8.56125744086256e-05
1.11534323186847e-05
-0.000122054183886353
-0.00032214461659515
-0.000562309600067751
-0.000811553237288535
-0.00104819762972727
-0.00125995145891787
-0.0014441125872724
-0.00160072004784986
-0.00173272069259602
-0.00184271994424825
-0.00193377359065781
-0.00200828076403311
-0.00206854493995647
-0.00211642077694298
-0.00215358288335258
-0.00218141715861662
-0.00220113355412025
-0.00221374832124803
-0.00222013982162197
-0.00222107337499433
-0.00221722680094042
-0.00220714015138419
-0.00224331527358719
-0.00222233469252072
-0.00220151667388628
-0.00217935859512849
-0.00215527697181195
-0.0021292357413493
-0.00210143730054455
-0.00207216740194091
-0.00204170027245586
-0.00201028479036811
-0.00197814783595869
-0.00194549088222783
-0.00191249063873571
-0.00187929737974459
-0.00184603455273612
-0.00181280018426903
-0.00177966670506727
-0.00174668261786782
-0.00171387207752974
-0.00168123564517292
-0.00164874882022584
-0.00161635979203645
-0.00158398426126995
-0.00155150010840769
-0.00151873883520905
-0.0014854800832369
-0.00145144740420074
-0.00141631084989899
-0.00137968954031227
-0.00134114919920918
-0.0013001817068604
-0.00125616655758227
-0.00120832470876597
-0.00115568271835588
-0.00109704625773962
-0.00103098086761179
-0.000955813307387394
-0.000869648851032751
-0.000770456127454616
-0.000656203818472651
-0.00052521304538329
-0.000376610791912247
-0.000211414299198105
-3.35741819381131e-05
0.000147472784445119
0.000316097699061152
0.000447573244089851
0.000517293382142283
0.000504377819918021
0.000421866127033798
6.51571434099838e-05
-0.000718243251086217
-0.00124201126764414
-0.00191044521854178
-0.00299458101884938
-0.00420631870897643
-0.00550112449314929
-0.00682325885490836
-0.00816860915940644
-0.00984388332363145
-0.0113651828729058
-0.0120913141372832
-0.012702894531868
-0.0134432766734092
-0.01454252640663
-0.0176193232409679
-0.0236123048767743
-0.0354532589145782
-0.0645466096790922
-0.108442571333238
-0.0991503758791698
-0.015290832316223
-0.0515304316246726
0.0282628345268657
-0.0199126898588772
-0.00747235108777143
-0.000568867784541529
-0.00239343779732533
-0.00012360691721653
-3.52322813860679e-05
-2.93702020974647e-05
-4.12779097466335e-05
-6.47216053303281e-05
-0.000105701619652397
-0.000169175674967038
-0.000257309979391021
-0.00036643007160906
-0.000480464266005414
-0.000580467234348634
-0.000622304186841347
-0.000590978978426594
-0.000507529354885932
-0.000379088708079596
-0.000127954946245999
0.000172164467531432
0.000131117587855195
7.91996635498231e-05
-6.0437431042682e-05
-0.000271353365802585
-0.000541830868379781
-0.000833999679563828
-0.00111911026845935
-0.00137891896147877
-0.00160487280757692
-0.00179677673511051
-0.00195672012137885
-0.00208886348553577
-0.00219670129701213
-0.00228381591189231
-0.00235301728616489
-0.00240688734104998
-0.00244751767065187
-0.00247676379413273
-0.0024961698384178
-0.00250707538455658
-0.00251060645586636
-0.00250772803893352
-0.00249927147031972
-0.00248619234086687
-0.0024816991147044
-0.00248132457316618
-0.00245247432110447
-0.00242274568407753
-0.00239135594476892
-0.00235810485678777
-0.00232311072310244
-0.00228663256016488
-0.00224897195440157
-0.00221041290898812
-0.00217121322906767
-0.00213160631816477
-0.00209179842407489
-0.00205196844582636
-0.00201226664944997
-0.00197281419589582
-0.00193370422576957
-0.00189500223194576
-0.00185674762018742
-0.00181895378112247
-0.00178160904438999
-0.00174467567135667
-0.0017080880926317
-0.00167174825737064
-0.00163552023445945
-0.00159922192140204
-0.00156261836877128
-0.00152541702406504
-0.00148726933253727
-0.00144777393290397
-0.00140647656145987
-0.00136285157458976
-0.00131626424051504
-0.00126592280648819
-0.00121084053331975
-0.00114980967553407
-0.00108138084662146
-0.00100386452421318
-0.000915343287481141
-0.000813752799459062
-0.000697000367308038
-0.000563303505667175
-0.000411584184295479
-0.000242515942567026
-5.93976416776021e-05
0.000129376345615075
0.000310011336199373
0.000460282172489594
0.000558780322809934
0.000584578548848554
0.000537326376728987
0.000158362564774722
-0.000763912569852578
-0.0014535669109678
-0.0022259295594609
-0.00337483085982968
-0.0046055012809963
-0.00586976137436294
-0.00711250964960197
-0.00833562644314566
-0.0101189544020366
-0.0113311542224358
-0.0119535060513811
-0.0124829836525719
-0.0131140618146073
-0.0140582529453084
-0.0167175466808455
-0.0220369000679874
-0.0324731905383987
-0.0575340224185948
-0.0893393061914736
-0.0864412339353593
-0.0123061738083893
-0.0812360784070081
0.0202870319255711
-0.0208832733383815
-0.00634926919119086
0.000785511002344226
-0.00271734981077237
-0.000170022938468336
-5.27335812007397e-05
-4.77143666073101e-05
-6.59939774406606e-05
-9.93970941083475e-05
-0.000154781837572755
-0.000234029578890136
-0.000334520466117196
-0.000447280947020123
-0.000549685598481389
-0.000613333543020168
-0.000615884344648651
-0.000555340501793905
-0.000450636191119825
-0.000306645438939343
-6.59838498655371e-05
0.000171758630356686
0.000116958943858501
1.53398681614405e-05
-0.000198967515288698
-0.000472004440218659
-0.000789496723287018
-0.00111382698659526
-0.00142003325448799
-0.00169160203668206
-0.00192318094290796
-0.00211655080906351
-0.00227542214673962
-0.00240470665590499
-0.00250844652947196
-0.00259047625430961
-0.00265382744632517
-0.00270121738776477
-0.00273487370587258
-0.00275675630865424
-0.00276851161093519
-0.00277156582430264
-0.00276712147015381
-0.00275620230796257
-0.00273965157886281
-0.00271732582742029
-0.00272539144724499
-0.00268956747118918
-0.0026538483362796
-0.00261671467538232
-0.00257780664305256
-0.00253714133047144
-0.00249492858020201
-0.00245146279006291
-0.00240705607539936
-0.00236199883408534
-0.00231655467082106
-0.00227096100205051
-0.00222542677172112
-0.00218013164063392
-0.00213522496623005
-0.00209082524258395
-0.00204702091343552
-0.00200387115892282
-0.00196140742017263
-0.00191963391202375
-0.00187852874947171
-0.00183804348697617
-0.00179810180166792
-0.0017585954243142
-0.001719378755594
-0.001680260689635
-0.00164099676592493
-0.00160128352045127
-0.00156075893083637
-0.00151900616724926
-0.00147555595927148
-0.00142987092433791
-0.00138130905717398
-0.00132907400272033
-0.00127217491753586
-0.00120940023110183
-0.00113929512992723
-0.00106016207211425
-0.000970067387801197
-0.000866915962382515
-0.00074855146928213
-0.000613075214940423
-0.0004591849263268
-0.000287170096572808
-9.96429976146245e-05
9.60911062776527e-05
0.000287960211518976
0.000455881810282766
0.000580280054016297
0.000638169827091588
0.000615110098090433
0.000212505992497259
-0.000816757692064914
-0.0016311255191986
-0.00248084441792238
-0.00367198609321949
-0.00490512941383909
-0.00613196147740539
-0.00729801547750185
-0.0084126539684307
-0.0103628613799005
-0.0112176127141127
-0.0117357620258551
-0.0121604201699455
-0.0126345629596392
-0.0133181706133784
-0.0153869220274879
-0.0196799597716217
-0.0282199164030011
-0.0489166432894428
-0.0719119946449835
-0.0743183900444838
-0.0148244115049787
-0.102824919266477
0.00938543146347316
-0.0232434725367675
-0.00316489977692652
0.00198925952144156
-0.00246025821176455
-0.000182299840326477
-7.05087984452295e-05
-7.14998316777595e-05
-9.72450934401832e-05
-0.000139411688643629
-0.000205426615672307
-0.000292716749589056
-0.000395320389454253
-0.000502369247148936
-0.000587724686274345
-0.000621701114074986
-0.000597989102460765
-0.000517627190048756
-0.000395111359438989
-0.000237983790344489
-1.70215980470733e-05
0.000144184169240436
6.12359385013843e-05
-0.000101701181157269
-0.000377148527115029
-0.000691086267322298
-0.00104040783141495
-0.00138539853180364
-0.00170328736011927
-0.00197933192824781
-0.00221145416077866
-0.00240301697355961
-0.00255885797806014
-0.00268424212553645
-0.00278347590632768
-0.00286045764491472
-0.00291831430090827
-0.00295981420147027
-0.00298726238730769
-0.00300268211325338
-0.00300779223434498
-0.00300408370996187
-0.00299281862568468
-0.00297506854532417
-0.00295175322721956
-0.00291859475631072
-0.00291660225466225
-0.0028758028693841
-0.0028342143377539
-0.00279093245926792
-0.0027458571652084
-0.00269913943393853
-0.00265104812216816
-0.00260190090613398
-0.00255201670621108
-0.00250168986055543
-0.00245118745501933
-0.00240074910255157
-0.00235058495687751
-0.002300874454052
-0.00225176545283827
-0.00220337357597416
-0.00215578280384826
-0.00210904656905704
-0.00206318929471985
-0.0020182072985281
-0.00197407008250105
-0.00193072045866194
-0.00188807365427423
-0.00184601384481672
-0.00180438886537002
-0.00176300204103899
-0.00172160320535183
-0.00167988188261512
-0.00163746646473358
-0.00159392838694592
-0.00154878701701855
-0.00150149736647958
-0.00145141502203401
-0.00139774463840244
-0.00133949747383716
-0.00127546444533914
-0.00120419131901044
-0.001123977391196
-0.00103287607806096
-0.000928761643655596
-0.000809411470915391
-0.000672801641740766
-0.000517395426971284
-0.000343079526058089
-0.000151781959272435
5.02615230339131e-05
0.000252516031039543
0.000436649739571443
0.000583853440485611
0.000668031728176677
0.000661551499543907
0.000238428673431103
-0.000869251678364154
-0.00177845172630489
-0.00268722254193981
-0.00390492912121063
-0.00513060285184211
-0.00631767941192799
-0.00741241267993667
-0.00852828714416738
-0.0104981198502958
-0.0110655344466269
-0.0114883460531314
-0.0118079413598701
-0.0121180133011655
-0.0125168214619392
-0.013979664695357
-0.0171971575759353
-0.0238326161667183
-0.0404784805068279
-0.0571344741586394
-0.0633021286171098
-0.0198769945444678
-0.115779556462215
-0.00240457684332769
-0.0260529796983194
0.000238662092458552
0.00616225025759382
-0.00155551175571211
-0.000102562852347403
-8.13088591645399e-05
-9.88638629879167e-05
-0.000132557666319823
-0.000180075639312182
-0.000251324524741531
-0.000340172148510875
-0.000439941721529419
-0.000538870938540239
-0.000608235422570245
-0.000621111471979633
-0.000580801645061556
-0.000485602547271159
-0.000346901102658487
-0.0001803202688431
1.52079372063445e-05
9.1674079959463e-05
-3.45538981666093e-05
-0.000254442645141061
-0.000570891899697957
-0.000912827128429157
-0.00128543201478287
-0.00164298401430427
-0.00196576408026353
-0.00224163791753963
-0.0024714733043529
-0.00265971330046763
-0.00281183802864759
-0.00293317943984921
-0.00302811214678962
-0.00310048939491937
-0.00315345920655753
-0.0031897974878007
-0.00321185519863112
-0.00322169854285823
-0.00322110318006526
-0.00321161377727233
-0.00319454280806735
-0.00317100233680713
-0.00314241261137854
-0.0031210026150831
-0.00309034245032047
-0.00304512729088486
-0.00299857890835474
-0.00295019497982838
-0.00290004476228956
-0.0028483671167124
-0.00279547092193847
-0.00274168928316717