/*--------------------------------*- C++ -*----------------------------------*\
  =========                 |
  \\      /  F ield         | OpenFOAM: The Open Source CFD Toolbox
   \\    /   O peration     | Website:  https://openfoam.org
    \\  /    A nd           | Version:  7
     \\/     M anipulation  |
\*---------------------------------------------------------------------------*/
FoamFile
{
    version     2.0;
    format      ascii;
    class       volScalarField;
    location    "20000";
    object      k_diff;
}
// * * * * * * * * * * * * * * * * * * * * * * * * * * * * * * * * * * * * * //

dimensions      [0 2 -3 0 0 0 0];

internalField   nonuniform List<scalar> 
15600
(
0.00523179870652212
0.00217137311790233
0.000383072971864566
0.00020050936239909
0.000174971607934686
1.3378159189936e-05
5.55235651265301e-06
6.19304617697863e-06
6.91136762726751e-06
8.70053103001896e-06
1.141262627352e-05
1.53494040516925e-05
2.06610123549538e-05
2.71181408349593e-05
3.42183750793592e-05
4.21831115865723e-05
4.84896984577686e-05
5.01041758569385e-05
4.48836835163542e-05
3.16107364738277e-05
1.67426373492608e-05
9.06955565516309e-06
1.10057466994859e-05
1.83912471014727e-05
2.94853061387062e-05
4.59121192317191e-05
6.87972557638537e-05
9.83681516386309e-05
0.000134220657578883
0.000175415370912133
0.000220958908786106
0.000269911268156742
0.000321541651503821
0.000375255302898158
0.000430589394226625
0.000487146023221998
0.000544582418629366
0.000602584378866466
0.000660865561610587
0.000719158869823947
0.000777216675982052
0.000834807431996101
0.000891714410003497
0.000947733770461457
0.00100267411194768
0.00105635809368197
0.00110862803918364
0.00115935212597033
0.00120843270791328
0.00125582318151864
0.00130155115294023
0.00134569297586896
0.00138826000260021
0.00142845630921608
0.00146602399586299
0.00150091916643298
0.00153309795711089
0.00156253185305671
0.00158920735316492
0.00161312498026852
0.00163429849394456
0.00165275367889779
0.0016685268099344
0.00168166319383595
0.00169221557248724
0.00170024262652809
0.0017058071706677
0.00170897433986546
0.00170980961676054
0.00170837647128742
0.00170473346689254
0.00169893114029899
0.00169100810103918
0.00168098766376909
0.00166887450868413
0.00165465271325985
0.00163828520868637
0.00161971169523382
0.00159884605104225
0.00157556684176448
0.00154970631302185
0.00152103986573282
0.00148927516464206
0.00145405008505717
0.00141493144656726
0.00137144129370755
0.00132308065395338
0.00126943634433712
0.0012102472080631
0.0011457085620265
0.00107653251950621
0.00100467037223107
0.00093299084737171
0.000866861217328951
0.000811911760222593
0.000777774962863076
0.000765788191224136
0.000760414974539334
0.000650956646069045
0.000474653479138757
0.000475319341403966
0.000604016952690108
0.000814126286205799
0.00111454828449004
0.0015029063629119
0.00196521521062282
0.00249145095428984
0.00298104338667251
0.00334801175055207
0.00359647045299087
0.00381030377362747
0.00403429881225047
0.00452414297027852
0.0053956406584742
0.00701895753535078
0.0104353653374377
0.020260038761679
0.0253188034649087
0.0117426730194448
0.00617418469075317
0.0284733086770842
0.011861393117042
0.00218140515574299
0.00110495770105808
0.000971399686184075
8.52679786396806e-05
3.11397787987296e-05
3.39090442176328e-05
3.77035431037193e-05
4.7296349078472e-05
6.19020922185775e-05
8.31412213434781e-05
0.000111886410960101
0.000146968924065642
0.000185481244011562
0.000228254206747841
0.000261980927923307
0.00027048538556698
0.000242911362689011
0.000172956508847737
9.26343880956335e-05
4.98296739954971e-05
6.08724418046614e-05
0.0001017729062453
0.00016290801648363
0.000252994002797947
0.000378182209388161
0.000539352671292946
0.000734017102226424
0.000956890432852423
0.00120246709637099
0.00146563110690965
0.00174244204165616
0.0020297316916683
0.00232505867621882
0.00262634583278552
0.00293182165018219
0.00323987663978581
0.00354905686715892
0.00385801599488976
0.00416551451808508
0.00447039969690106
0.00477159727071411
0.00506809930448133
0.00535896009765498
0.00564330293445699
0.00592034773348898
0.00618944181249412
0.00645009990441949
0.00670209156212298
0.00694558497209233
0.00718104845682458
0.007403046666004
0.00761104736354302
0.00780566779532442
0.00798662125364036
0.00815371216621504
0.00830681570187047
0.00844587592289802
0.00857090139138665
0.00868196143430177
0.00877918032156513
0.00886273029737378
0.00893282481911923
0.00898971124173341
0.00903366371372673
0.00906497468631571
0.00908394631552351
0.00909088079978723
0.00908606875975468
0.00906977505650987
0.00904222302915211
0.00900357562900397
0.00895391839693641
0.00889324349625748
0.00882144020645127
0.00873829101306879
0.00864346102241778
0.00853648105262021
0.00841669977726719
0.00828322799112328
0.00813488459546194
0.00797014352177924
0.00778711927370408
0.00758356674745505
0.00735700014471694
0.00710483567413561
0.00682488643335655
0.00651578112124756
0.00617836516757456
0.00581630225595449
0.00543930557429114
0.0050623990152816
0.00471241004717773
0.00441862509926972
0.00422526546957662
0.00413299967506092
0.00403474467995943
0.0034299036870247
0.00259401071426358
0.00263826946809228
0.00336042217898419
0.00451327013135375
0.00614786029803177
0.008244834728644
0.0107336014325027
0.0135496326770748
0.0161690544641251
0.0181542592211406
0.0195473011991833
0.0207667263556312
0.0220721094789581
0.0248127937987596
0.0296411600721793
0.0385768289278418
0.0572396041016511
0.107997311466854
0.132536314975878
0.0627729350457136
0.0335530368810918
0.067787552448613
0.0284170386251962
0.00551724294887369
0.00266432899527436
0.00236667309913306
0.000235925222975931
7.7638290439044e-05
8.22735233573489e-05
9.10915003753388e-05
0.000113778532123292
0.000148460229371846
0.000198917276045227
0.000267309349354119
0.00035090594345
0.000441978676491686
0.00053938270508129
0.000612569123947228
0.000625113138385584
0.000557189482365441
0.000402041220698035
0.000220850969212814
0.000119824582760618
0.00015042739161111
0.000252767226270673
0.000400573642524201
0.000617743123746244
0.00091375688779823
0.00128681491045578
0.00172717162052608
0.00222036594634204
0.00275293407582473
0.00331364207161205
0.00389454489619906
0.00448977934075315
0.00509520886488236
0.00570754425623728
0.00632416337906041
0.00694277310955568
0.00756137839239127
0.00817816215226775
0.00879147450763538
0.00939977904638488
0.0100016298574369
0.0105956383728275
0.0111804585678161
0.0117547925097507
0.012317435935848
0.0128673297769502
0.0134036109606647
0.0139257705319849
0.0144341787614823
0.0149075788086872
0.0153542672850079
0.0157800934950069
0.016183251310302
0.0165631253985134
0.0169191800974778
0.0172509706140458
0.0175581458107252
0.0178404462815101
0.0180977033317306
0.0183298335771852
0.0185368315403826
0.0187187624421169
0.0188757528384027
0.0190079812418656
0.0191156657039199
0.0191990506681931
0.0192583910686957
0.0192939325036797
0.0193058860680447
0.019294399842101
0.0192595242097859
0.0192011792293142
0.0191191238924588
0.0190129360470401
0.0188820004302658
0.0187254859366232
0.0185423050680745
0.0183310232748771
0.0180897485844818
0.0178160223300305
0.0175067130662022
0.0171579671350762
0.0167652031413802
0.0163232833883269
0.0158268046820025
0.0152709036752762
0.0146522150421445
0.0139712085257902
0.013234082838638
0.0124580217105402
0.0116721369725962
0.0109259888837139
0.0102758496094207
0.00978751006043515
0.00943084520261834
0.00891114552458769
0.00748613191833811
0.00607461286037513
0.00639426688285727
0.00811217247289703
0.0107957259408018
0.0145553574160807
0.0193382851753158
0.025009061614609
0.0314042446001422
0.0374274858034705
0.0421883450199767
0.0457912121787603
0.049029105226129
0.0525423713918067
0.059283668070053
0.0708743087638929
0.0918856198943653
0.134274065653679
0.238483945291211
0.282343257247605
0.140716032074713
0.0791430899542932
0.110335747598728
0.0478457679483046
0.0101054648113643
0.0045508382868783
0.00408677511543574
0.000461973145132519
0.000139268520752181
0.000143082286204371
0.000157635446512634
0.000195885911258943
0.000254512891379326
0.000339586903537551
0.000454547445996862
0.000594232990115573
0.000743489954830555
0.000890956623871884
0.000988749332611136
0.000982981146217442
0.000858004330435794
0.000628732015839475
0.000362130335754036
0.000205674423454438
0.00027513242926115
0.00045761114587458
0.00070860225194306
0.00106054347073209
0.00150857015258869
0.00203596513997054
0.00262168242796532
0.00324678918884044
0.00389871280615008
0.00456955537168326
0.00525537020009834
0.00595373438908477
0.00666328954333749
0.0073827047908743
0.0081107213976051
0.0088458551610638
0.00958653233164837
0.0103310224585094
0.0110775250994451
0.0118241568808708
0.0125689812222407
0.0133100037354489
0.0140451866159786
0.0147724716929248
0.0154898327438691
0.0161953398198647
0.0168871447598644
0.017563488816806
0.0181808114279206
0.0187804985262744
0.0193659378260088
0.0199273102222973
0.020463657473124
0.020973893984133
0.0214570741428939
0.0219123914420363
0.0223391802799755
0.0227369097857566
0.0231051794993314
0.0234437098150129
0.0237523297688591
0.0240309663495126
0.0242796302152109
0.0244984027178505
0.0246874197933173
0.024846855729265
0.0249769048925403
0.0250777605125798
0.0251495881341653
0.0251924974546583
0.0252065061661851
0.0251915061209226
0.0251472287869337
0.0250732210492965
0.0249688292934357
0.0248331762679342
0.0246651197736915
0.0244631662307342
0.0242253549233805
0.0239491384763005
0.0236312610460968
0.0232676725703852
0.022853483855855
0.0223830440849384
0.0218501577492567
0.0212486682681419
0.020573367041178
0.019821884437294
0.0189969810047498
0.0181109812750154
0.0171886464964797
0.0162724376819573
0.0154111005726264
0.0146406211384847
0.0138862887359236
0.0127418635822447
0.0106985430105824
0.00941419827989987
0.010378431230018
0.0130600357498443
0.0172003634968384
0.0229200375384115
0.0301389602225342
0.0387106196899934
0.0483869696184557
0.0577611278669153
0.0657898660397681
0.0725855397983805
0.078972361016046
0.0859612055502389
0.0977059689736706
0.116927924680035
0.150226493368043
0.212468307483893
0.341768570692979
0.383878765954935
0.204992583635264
0.122412192815427
0.131743403763701
0.0647081241812778
0.0158275800060739
0.00655955986935415
0.00593695679918789
0.000763610756450469
0.000214070084345755
0.00021240934659596
0.000232618396509163
0.000287190424318891
0.000370778297275823
0.000491056156814825
0.000651647756780348
0.000842900171038086
0.00103940814831456
0.00120638556372269
0.00128761203374911
0.00122695243481396
0.00103274119957973
0.000770030443474428
0.000482244314887711
0.000307437262599359
0.000444216487892871
0.000692175855960939
0.00101487907554272
0.00141093861117292
0.0018645893485705
0.00236873946019955
0.00292387515948245
0.00353077347066108
0.00418817064803328
0.00489112105156188
0.00563378435259735
0.00640931624623863
0.00721131209560312
0.00803338939009021
0.00886974632405588
0.00971490840759558
0.0105639539961764
0.0114123821278499
0.0122561750124557
0.0130917135529114
0.0139157609963308
0.0147254032423131
0.0155180165778828
0.0162912307422753
0.0170428966058928
0.0177711279841144
0.0184741689031453
0.0190971767134073
0.0197157501580979
0.0203173807785666
0.020887246458056
0.0214261638737437
0.0219337587765133
0.0224097214310192
0.0228538817306826
0.0232661961460011
0.0236467407875269
0.0239956983918204
0.024313347925051
0.0246000516144637
0.0248562401063817
0.0250824001999872
0.0252790602579202
0.0254467776202134
0.0255861244387
0.0256976744315379
0.0257819890042116
0.0258396029741967
0.025871006884425
0.0258766296392104
0.0258568148871421
0.0258117981494412
0.0257416813698152
0.0256464141480129
0.0255257815635736
0.0253793940192081
0.0252066659899153
0.0250067683136447
0.024778553979397
0.024520475745327
0.0242305037270967
0.0239060548588323
0.0235439544512242
0.0231404396549414
0.0226912734549008
0.0221919666787473
0.021638315331185
0.0210271277847219
0.0203577170419942
0.0196332952131918
0.0188633008659766
0.0180621255880605
0.0172434991348233
0.0163908433645133
0.0154146164197758
0.0139557635287951
0.0118674593924033
0.0111186022717433
0.0126665518432471
0.0159019397487608
0.0207678726014052
0.0273882792478163
0.0356748661006714
0.0455456198024299
0.0567537096419838
0.0680616775002868
0.0788722358131934
0.0892813733601139
0.0997641122391475
0.111443420046451
0.128574612792986
0.154528706945033
0.196095577150714
0.264636541497699
0.37912528192341
0.419541726827792
0.245386605736951
0.134858974943279
0.112627039817007
0.0713256890101632
0.0223233970509301
0.00856753174594447
0.00772859956240996
0.00114035972325065
0.000301564488119527
0.000287846147718788
0.000312865058786835
0.000382919651197167
0.000489504652856332
0.000640134027554756
0.000835979920595408
0.0010592267361268
0.00127054609151267
0.00140654882080565
0.00141916209793787
0.00127694599582185
0.0010240886777521
0.000766940452130977
0.000553917890822434
0.000439639723720321
0.000623496128621312
0.000882973134913042
0.00117321140596407
0.00150382417137189
0.0019058761482543
0.00241337819038122
0.00303653273435436
0.00375869364925231
0.00455330103951414
0.00539411748844826
0.00626169018849286
0.00714170139121575
0.00802451164157035
0.00890298138786946
0.00977202664700206
0.0106276667310057
0.011466875389587
0.012287200602692
0.0130866949029444
0.0138637529504444
0.0146170610432202
0.0153455214257233
0.0160482116975069
0.0167243306339291
0.0173731001656162
0.0179939075541858
0.0185425878433033
0.019082754778134
0.0196103036369805
0.0201054847069713
0.020570214539594
0.0210050917567731
0.0214102717797576
0.021785951650594
0.022132401542069
0.0224499584675212
0.022739023596496
0.023000055544138
0.0232335641974539
0.0234401031814606
0.0236202602138698
0.0237746487263251
0.0239038981365501
0.0240086450774511
0.0240895237188625
0.0241471571486198
0.0241821484074737
0.0241950724835198
0.0241864663282499
0.0241568192307475
0.0241065591382862
0.0240360369425612
0.0239455074686388
0.0238351135067338
0.0237048750627674
0.0235546883003123
0.0233843201088983
0.0231933891086138
0.0229813248570631
0.0227473143140675
0.0224902513218056
0.0222086840517518
0.0219007915849325
0.0215643557315378
0.0211968259899633
0.0207953358684897
0.0203570096372716
0.0198789474892683
0.019359081099798
0.0187954340324833
0.0181876051659732
0.0175310972032929
0.0168169216258935
0.0160019628417015
0.0150103374507966
0.0135676483093503
0.0117071500022244
0.0113396060979393
0.0130618291005589
0.0162134048663537
0.0209197641330286
0.0272555067781459
0.0351430460924207
0.0445794937600582
0.055370043557011
0.0665813038382894
0.0785114789728153
0.0912638715779272
0.105164058546957
0.121282463963843
0.143025475847144
0.173544031475067
0.218073500927253
0.281824400244768
0.373326868697901
0.432162675958075
0.299521579773575
0.120054642196121
0.0792461392285635
0.0652835272963045
0.0289461126989519
0.0105682347841117
0.00925277491631587
0.00158607260273581
0.000401296127590356
0.000366884377895323
0.000394858690162344
0.000477498819206824
0.000601241147282721
0.000770692778885358
0.000980975023434355
0.0012024370849992
0.00137944245993151
0.00144027230164328
0.00135764773147546
0.00114338001609115
0.000868512296534682
0.000622823685487601
0.00056019888601521
0.000596253646397564
0.00073958029688534
0.000936624311555069
0.00116085101274396
0.00148221252013607
0.00196558949502042
0.00261800893446028
0.00339379417582592
0.00423369841920576
0.00509545249667803
0.00595524603321061
0.00680264169432675
0.00763299117297035
0.00844471169779057
0.0092369228303729
0.0100091957022723
0.0107610176987131
0.0114919208169763
0.0122013682995714
0.012888848909984
0.0135538573077631
0.0141959358342599
0.0148146703790043
0.0154096950143141
0.0159806700104991
0.0165271321561709
0.0170340932900356
0.0174922196978278
0.0179627242761276
0.0184033926638945
0.0188166268334859
0.0192034522451771
0.019564249226023
0.0198991994941126
0.0202085243940721
0.0204924998082945
0.0207514536520073
0.0209857640417043
0.0211958555777033
0.0213821945691722
0.0215452836087113
0.0216856542327418
0.021803859695742
0.0219004673456404
0.0219760512191815
0.0220311842434745
0.0220664315930767
0.0220823440209499
0.0220794527889276
0.0220582639369794
0.0220192526292252
0.021962855292644
0.0218894578111462
0.0217993801276724
0.0216928613000046
0.0215700487834077
0.0214310017858234
0.0212756957618812
0.0211040208137728
0.0209157612161378
0.020710558796773
0.020487879703036
0.0202469705060359
0.0199868396420054
0.0197062077941373
0.0194035356532638
0.01907692015481
0.0187242506078362
0.0183427917773079
0.0179296456519243
0.0174799631371092
0.0169880238330124
0.0164400180323798
0.0158175466965413
0.0150723743825227
0.0141459333359244
0.0128148713895575
0.0111689752724539
0.0109602776217238
0.0125601193215515
0.0153279532579987
0.0194800744059678
0.0250492394320215
0.0319809909539971
0.0403132517674753
0.0498392578843437
0.0598741551036318
0.0714493612213178
0.0845663467648191
0.099750865267163
0.118214283550942
0.142545662355925
0.175319471527077
0.219982110273148
0.278155143675093
0.357294167149796
0.417733560724263
0.367501448254949
0.113075264927514
0.0660066460016539
0.0534000622421188
0.0349948661966245
0.0127712826972515
0.010315291862369
0.00208579730596007
0.000512247138182104
0.000446326421629107
0.000474055710929779
0.0005638398585504
0.000694676608944284
0.000865837323498966
0.00106448767541843
0.00124971739099393
0.00135849569343038
0.00133249624812693
0.00117473258046662
0.00092723934256605
0.00066617429642627
0.000483797640714254
0.00048336786415703
0.000688971935532647
0.000757722137610927
0.000889059158975974
0.00112984709206671
0.00155900848421365
0.00219341400106033
0.00296327770832369
0.00378107162165355
0.00459332241778744
0.0053810766623012
0.00614205024750551
0.00687940541719071
0.00759632775111188
0.00829522959081692
0.00897730754470216
0.00964307206063465
0.0102924297393393
0.0109250162534241
0.0115402702047412
0.0121375803743109
0.0127163250916648
0.0132759301382664
0.0138158810080246
0.0143357313382566
0.0148351106928059
0.0153157954136484
0.0157252453668299
0.0161638841949993
0.016575016518687
0.0169610941197574
0.0173234403317047
0.0176626236285335
0.0179788587342931
0.0182722722025199
0.0185430349314208
0.0187913685317762
0.0190175442440856
0.0192218805983828
0.0194047408575048
0.019566528582351
0.0197076829227626
0.0198286723732026
0.01992998792443
0.0200121364567049
0.0200756339456957
0.020120998683813
0.020148745605485
0.0201593810135341
0.0201533990994338
0.0201312789307464
0.0200934814153989
0.0200404454167814
0.0199725789607794
0.0198902465358826
0.0197937548646702
0.0196833418400286
0.019559181596113
0.0194213952221278
0.0192700607771816
0.0191052061417715
0.0189267835071167
0.0187346463926889
0.0185285101248126
0.0183079334335808
0.0180722534665455
0.0178205834445114
0.0175516347495405
0.0172637660833075
0.0169543459095278
0.0166199572055255
0.0162541363725183
0.0158482615664189
0.0153841500864477
0.0148399317777455
0.0141698230048928
0.0133271694143891
0.0121109907684241
0.0106220078874342
0.0104536315789048
0.0118396039649096
0.0141871562338015
0.0177521552820171
0.0225396404853166
0.0285171103152291
0.0357332561486
0.0437974932638634
0.0526785893963839
0.0632567453822696
0.0756707886746276
0.0905684820977145
0.109338325415244
0.134161001148621
0.167309020668486
0.211021498514275
0.265198313940483
0.331231478205815
0.368068008534135
0.394678363857199
0.127109437593942
0.0762167680466995
0.0437243644786693
0.0395866224402594
0.0156997893290148
0.0108236191911151
0.00261509710840395
0.000632578424856127
0.000522121546944191
0.000544849075211263
0.000633980789866117
0.000759452284510872
0.000915544165495379
0.0010836988585556
0.00121641821914855
0.0012532752861488
0.00116387388391269
0.000969816169564541
0.00072249078308462
0.000493515041663394
0.000371988818756658
0.000440111095410444
0.000664244790881499
0.000708068910742467
0.000846295744352111
0.00118652676944833
0.00175291097866466
0.00247495957245782
0.00324079093618386
0.0039816883223847
0.00468308051533465
0.00535132983485753
0.00599628315893411
0.00662487882502084
0.00724104482715856
0.00784658889489953
0.00844193012144919
0.00902674826583572
0.00960027032345561
0.0101615445829964
0.0107095472339742
0.0112432858717714
0.0117618389010058
0.0122643924419643
0.0127502466739011
0.0132188110767144
0.0136693739521994
0.0140890308276746
0.0144808089347349
0.0148759442673139
0.0152477370035363
0.0155976538622227
0.0159264602985582
0.0162344728500836
0.0165218050944779
0.0167885389419188
0.0170348034744155
0.0172607768375512
0.0174666857906506
0.0176528029546515
0.0178194449007692
0.0179669679852152
0.0180957640338767
0.0182062548278452
0.0182988855857559
0.0183741190285318
0.0184324289960753
0.0184742944198628
0.0185001942113737
0.0185106030028902
0.0185059886509926
0.0184868111189952
0.0184535214683136
0.0184065610213893
0.0183463553094759
0.0182733037588348
0.0181877662131565
0.0180900512896175
0.0179804215463485
0.0178591078332748
0.0177263276110154
0.0175822874645145
0.0174271656130513
0.0172610958700296
0.0170841308219855
0.0168962220847329
0.0166971449139434
0.0164864721933407
0.0162633513089845
0.0160264755957766
0.0157733304340716
0.0155002215077001
0.0151998414689181
0.0148620276946463
0.0144667314603273
0.0139909754845688
0.0133932693890687
0.012634025025799
0.0115200642832592
0.0101499136897986
0.00997345826879088
0.0111395653041388
0.0131117112433568
0.0161588011918603
0.0202675396270304
0.0254218617606245
0.0316667871709698
0.0383549373486592
0.0462565837120813
0.0557669620822184
0.0671628219396141
0.0811211022461382
0.0990747034346105
0.122935675363764
0.154827493061808
0.196142538825566
0.245253906981195
0.294206801002426
0.305203404424819
0.36645506845303
0.149679529541221
0.097394851201533
0.0395836198131449
0.0417407150549534
0.0198350399926115
0.0108841968583771
0.00314475104696039
0.000759736842947983
0.000589659498516983
0.000601367856084242
0.000681390432222179
0.000791390008826437
0.000924357827160617
0.00105874009469403
0.00114213619872314
0.00112272486472719
0.000997436399614228
0.000792754576017254
0.000559442236323353
0.000365691799359727
0.000296150256021401
0.000403458694674918
0.000597500939423098
0.000656678969969978
0.000867639454607888
0.00132827312062015
0.00197806252571674
0.00268532401471719
0.00336046920195372
0.00398155236511183
0.00456459367905183
0.00512545793631144
0.00567521987730976
0.00621896178686186
0.00675873886622414
0.00729466224024089
0.00782594942027054
0.0083513341990214
0.00886937098468791
0.00937858089275386
0.00987755075158728
0.0103649803789703
0.0108397131026046
0.0113007505820628
0.0117472534583682
0.0121785555320698
0.0125949876216176
0.0129604834804031
0.0133471508218762
0.0137111181567102
0.0140545663333379
0.0143783939770315
0.014683048180753
0.0149686982883786
0.0152353974913605
0.0154831986122453
0.0157122026779151
0.0159225583773012
0.0161144618333816
0.0162881536650953
0.0164439175193509
0.0165820762148787
0.0167029877084202
0.0168070401259724
0.0168946456125399
0.0169662349178042
0.0170222513244135
0.0170631452195717
0.0170893693429612
0.017101375283669
0.0170996116208363
0.0170845241575423
0.01705655656553
0.0170161520489065
0.0169637498967896
0.0168997774553229
0.0168246375531095
0.0167386960901183
0.016642286268095
0.0165357246183146
0.0164193353392958
0.0162934604064346
0.016158448186382
0.0160146426200144
0.0158623484580491
0.0157018098990035
0.0155331287912864
0.0153562203556226
0.0151705645791294
0.0149751207375287
0.0147675222047414
0.0145439777900958
0.0142968341763833
0.0140151982264271
0.0136785039603932
0.0132635935608611
0.0127332785609594
0.0120521684915002
0.0110286228741787
0.00975657284030932
0.00955496160868349
0.0105192269372598
0.01217080835424
0.0147769978574944
0.0183121090056654
0.0227712805960347
0.0281884984368205
0.0336147121345581
0.0407451522480026
0.0492706305897855
0.0596376587770125
0.0724947307528981
0.0892045317056336
0.111390854688494
0.140956805459681
0.178532898173388
0.221105267137945
0.252892355297553
0.245390203734617
0.311547195827082
0.166003719645783
0.117596584061309
0.0407066961413582
0.0410039382211969
0.0240904460413121
0.0107996122054035
0.0036535954251122
0.000891286711319671
0.000644750450143432
0.000639321417047437
0.0007043593390065
0.000796225524300734
0.000909109824508807
0.00101535574698062
0.00105734489853394
0.000998290370529678
0.000855062546806781
0.000650689748588527
0.00043471419155445
0.000274116148770531
0.000246602221174532
0.000371939818976744
0.00053516822240203
0.000644433157384508
0.000955848913576056
0.00150499198277614
0.00215786925017107
0.00277976065542583
0.003337285816254
0.00384457061923232
0.00432924875506585
0.00480612887090311
0.00528329103613883
0.0057628677397676
0.00624494023089019
0.00672816766979011
0.00721082791708229
0.00769095234992276
0.00816661199805702
0.00863595384910905
0.00909729167093905
0.00954910917659751
0.00999008425712524
0.0104190879265005
0.0108351794342865
0.0112375731218517
0.0116307034927298
0.0119731342752661
0.0123330763873157
0.0126731081816538
0.0129946634290583
0.0132982946446825
0.0135842545064714
0.0138526223288177
0.0141034151702347
0.0143366681747088
0.0145524647719124
0.0147509347080608
0.0149322537543561
0.0150966407176425
0.0152443563141382
0.0153756996486832
0.0154910043846312
0.0155906341913324
0.0156749769882153
0.0157444399747834
0.0157994438028758
0.0158404176212629
0.0158677945794488
0.0158820088735139
0.0158834942946555
0.0158726854165416
0.0158500195960597
0.0158159407728635
0.0157708985206382
0.0157153422952561
0.0156497099914571
0.015574414648898
0.0154898470503934
0.0153963918561232
0.0152944561544327
0.0151844859135186
0.0150669593892266
0.0149423805655794
0.0148112462413041
0.0146740232467582
0.0145310634468329
0.0143825456368483
0.0142282155564598
0.0140672587716153
0.0138974870516313
0.013715143993715
0.0135125626053368
0.0132786215749281
0.0129930016860897
0.0126327237550899
0.0121644183437017
0.0115556135492687
0.0106141367865557
0.0094296753658819
0.00919880831638037
0.00998337643083918
0.0113621804484586
0.0135920066094949
0.0166387303185859
0.0205043623141732
0.0251130251068668
0.0295690222285981
0.0360074520725616
0.0436554301157402
0.0530709520276887
0.0648485079524226
0.0802213246400439
0.100499497201718
0.127271298615329
0.160420853361626
0.195792222313982
0.212205586207
0.193281450781193
0.253856974775473
0.170377206746943
0.129846848193871
0.0458043929269355
0.0377120154071986
0.0309176724149351
0.010891849995351
0.00414524577097342
0.00102695904096423
0.000685395135486753
0.000658397798309048
0.000708032811346801
0.000786843070202264
0.00088641713819057
0.000967590452460403
0.000973822030476919
0.000888504889872838
0.000738056289098705
0.000538324947560881
0.000340211276485103
0.000209904501665071
0.000215266361620494
0.000349820731984449
0.000502547401927709
0.000682378622188801
0.00108617656392575
0.00166678135627305
0.00225824578432529
0.00276898488666419
0.0032166717793545
0.00363100611588885
0.00403922814994922
0.0044516811708586
0.00487297166325509
0.00530279123243758
0.00573974351387588
0.00618147128508319
0.00662560770770086
0.00706970401162715
0.00751149911496124
0.00794888009648326
0.0083799688716286
0.00880309509151434
0.00921681648805537
0.00961990785252425
0.0100113520575741
0.0103898329431844
0.0107433064425251
0.0110870533242899
0.0114255671153837
0.0117462132875901
0.0120499402585957
0.0123370777934163
0.0126077542172751
0.0128619924049496
0.0130997883984973
0.0133211677515755
0.0135262039627384
0.0137150155625856
0.0138877655447013
0.0140446583721437
0.0141859391432849
0.0143118904253761
0.0144228285525909
0.0145190993845908
0.0146010729616938
0.0146691389435835
0.0147237009762304
0.0147651720959267
0.0147939704425621
0.0148105166860126
0.0148152328131999
0.0148085439570019
0.0147908814882424
0.014762688674942
0.0147244221294676
0.0146765483628455
0.0146195337650951
0.0145538304065035
0.0144798765203166
0.0143981114261788
0.0143090067308326
0.0142130883123261
0.0141109335619661
0.0140031685190738
0.0138904368003629
0.013773375785772
0.0136525310167628
0.0135282879453752
0.0134006109378944
0.0132688860856497
0.0131311283362435
0.0129837112358651
0.0128191809364928
0.0126265087547008
0.0123860742866323
0.0120752297773723
0.0116638970035195
0.0111222776473869
0.0102576990725567
0.00915606640495856
0.00889721293901292
0.00952283273500147
0.0106675976017925
0.0125719416038535
0.0151960668670621
0.0185454789052762
0.0222123416230727
0.0262221878455766
0.0318812995215381
0.0387469791224739
0.0472994845792921
0.0580683708121949
0.072131836514364
0.0904799797180524
0.114329017622898
0.14283640266809
0.170905510766357
0.173956429775774
0.148882521962114
0.202603164345311
0.164712736166867
0.131966295426993
0.053856510368263
0.0325563503299596
0.0391572261141512
0.0113196461144937
0.00465162412001939
0.00117187376659817
0.00071385626311739
0.000663614109928234
0.000702401045717893
0.00077518010679347
0.000863536916727725
0.000918346627153512
0.000894706135372321
0.000794010658739486
0.00064318596886365
0.000450265075838677
0.000270257241714757
0.000167723223207022
0.000198767762028678
0.000346379221776933
0.000508219731732113
0.000762891401697255
0.0012272789062489
0.00178229083615728
0.00227863468375884
0.00268184780147366
0.00303864299034331
0.00338037856405098
0.00372927960302905
0.00409127428589788
0.00446816240448183
0.00485794476700296
0.00525822198145369
0.00566596736452919
0.00607837968330369
0.00649268168444203
0.00690637743516564
0.00731716681001453
0.00772302982039888
0.00812218022222447
0.00851308274625701
0.00889443691364925
0.00926520845653424
0.00962437369990171
0.00994867502943052
0.0102874975241047
0.010608091943781
0.010912380069888
0.0112009835213766
0.0114740832151309
0.0117317257408377
0.0119738987162684
0.0122005872372945
0.0124118132571376
0.0126076461921775
0.0127881992763027
0.0129536285457481
0.0131041298258948
0.0132399381728486
0.0133613250875677
0.0134685948629069
0.0135620805580429
0.0136421390784196
0.0137091470179212
0.0137634951820943
0.0138055842496792
0.0138358206823073
0.0138546143993167