/*--------------------------------*- C++ -*----------------------------------*\
  =========                 |
  \\      /  F ield         | OpenFOAM: The Open Source CFD Toolbox
   \\    /   O peration     | Website:  https://openfoam.org
    \\  /    A nd           | Version:  7
     \\/     M anipulation  |
\*---------------------------------------------------------------------------*/
FoamFile
{
    version     2.0;
    format      ascii;
    class       volScalarField;
    location    "20000";
    object      nut;
}
// * * * * * * * * * * * * * * * * * * * * * * * * * * * * * * * * * * * * * //

dimensions      [0 2 -1 0 0 0 0];

internalField   nonuniform List<scalar> 
15600
(
1.07053045868985e-10
4.13317077945342e-11
4.14068274012828e-12
1.41819364809967e-12
1.39039751782749e-12
1.52030968813044e-13
9.93236701913183e-14
1.82302759971792e-13
3.33554697630668e-13
6.50421418604803e-13
1.25464002078641e-12
2.37485189739043e-12
4.33302451729714e-12
7.58180362847927e-12
1.2946480765898e-11
2.20727157261618e-11
3.61214838160641e-11
5.51783462369531e-11
7.39610924018701e-11
7.5798944299126e-11
5.27606430796259e-11
2.91785525840674e-11
3.3641278167239e-11
5.6212373018853e-11
9.0125111649825e-11
1.40359783905485e-10
2.10354501342849e-10
3.00806206524557e-10
4.10482561014276e-10
5.36511881283748e-10
6.75856983785314e-10
8.25644300881136e-10
9.8363938572597e-10
1.14802344611587e-09
1.31738032731259e-09
1.49049193749335e-09
1.66630820804931e-09
1.84386609912704e-09
2.02228743471416e-09
2.20075269591871e-09
2.37850174492645e-09
2.5548235314294e-09
2.72905229022692e-09
2.9005616967627e-09
3.06876356959632e-09
3.23311295242541e-09
3.39312533381961e-09
3.54839566438697e-09
3.69862398208786e-09
3.84366714203839e-09
3.98360901703761e-09
4.11868125982831e-09
4.24891030618526e-09
4.37274248651909e-09
4.48874800479461e-09
4.59655057615711e-09
4.6960073936337e-09
4.78702351729232e-09
4.86955090035345e-09
4.94358535757642e-09
5.00916423399351e-09
5.06636273637159e-09
5.11528920064645e-09
5.1560805609644e-09
5.18889739891445e-09
5.21391933354158e-09
5.23133939126426e-09
5.24135837862367e-09
5.24417876122447e-09
5.23999736399601e-09
5.22899637301959e-09
5.2113336593378e-09
5.18713058507294e-09
5.15646146830639e-09
5.11934305304972e-09
5.07572815470988e-09
5.02550416130258e-09
4.96848647525353e-09
4.9044113377044e-09
4.83290633165615e-09
4.75345613323429e-09
4.66536997469218e-09
4.56774695217458e-09
4.45947039891636e-09
4.33920170831069e-09
4.2054648045418e-09
4.05671291458847e-09
3.89167092313149e-09
3.70951772548202e-09
3.51086834019268e-09
3.29788458258105e-09
3.07663641283011e-09
2.85587408072855e-09
2.65232761369978e-09
2.48319877102957e-09
2.37925159261728e-09
2.34512785802869e-09
2.3423078098548e-09
2.1205251974819e-09
1.5010837526979e-09
1.13733680774003e-09
9.92293706693341e-10
8.95343939189864e-10
8.31306939787149e-10
7.89315700523196e-10
7.47494373996106e-10
7.00735173154106e-10
6.28915722218736e-10
5.21009146239323e-10
3.9746369803587e-10
2.86259306062456e-10
1.95618107884034e-10
1.33840108531946e-10
9.69893909268002e-11
8.01512841974855e-11
8.33222597971656e-11
1.44241452272741e-10
2.74669704300747e-10
2.23390276413636e-10
1.26164034656273e-10
2.04923773093454e-08
7.97058713561808e-09
8.33659909955072e-10
2.78217461904009e-10
2.72956153241703e-10
3.4029130444661e-11
1.95021418661039e-11
3.48703433639978e-11
6.35331092293059e-11
1.23535444443291e-10
2.37941142356839e-10
4.50115346313867e-10
8.2154036074725e-10
1.43849216640176e-09
2.4559193531706e-09
4.18859527515067e-09
6.86673709541346e-09
1.05242135468599e-08
1.41902478735938e-08
1.46511525569878e-08
1.02133509469998e-08
5.59193213310151e-09
6.49803202552448e-09
1.08623025460557e-08
1.73826649220778e-08
2.7013065969242e-08
4.03995373830942e-08
5.76628057854278e-08
7.85654863996885e-08
1.02557334495136e-07
1.2906041331796e-07
1.57525832232064e-07
1.87528418888623e-07
2.18721984288191e-07
2.50838769809868e-07
2.83649252948254e-07
3.169569702681e-07
3.50582398023652e-07
3.84362653263277e-07
4.18146161103888e-07
4.51792768306395e-07
4.85171645568558e-07
5.1816049001421e-07
5.50644331300116e-07
5.82515170438109e-07
6.13672796166176e-07
6.44028042159137e-07
6.73506369871582e-07
7.02052712860773e-07
7.29641238123342e-07
7.56288670573263e-07
7.8203924198242e-07
8.06897861719992e-07
8.3041790039215e-07
8.52438247678768e-07
8.72927978998228e-07
8.91859817667389e-07
9.09215126308938e-07
9.24983792572226e-07
9.39163683758785e-07
9.51760251153536e-07
9.62785887838157e-07
9.72259062369011e-07
9.80203532498566e-07
9.86647436216966e-07
9.91622463273881e-07
9.9516283437958e-07
9.973042567359e-07
9.98082805987402e-07
9.97533560506713e-07
9.95688905506039e-07
9.92576745888907e-07
9.88218163273847e-07
9.82625480509072e-07
9.7580022580699e-07
9.6773196028354e-07
9.58397967753453e-07
9.47761989462483e-07
9.35772809931832e-07
9.22358681881802e-07
9.074208397403e-07
8.9082727680314e-07
8.72406242153628e-07
8.51945008566647e-07
8.29188783350672e-07
8.03856335758512e-07
7.75652969328989e-07
7.44334216982607e-07
7.09741928759465e-07
6.71986825171703e-07
6.31475626124181e-07
5.89348541814185e-07
5.47266170052445e-07
5.08384350016879e-07
4.7597740519408e-07
4.55826729764433e-07
4.48923063028727e-07
4.47775427870151e-07
4.05396530778275e-07
2.87646598706636e-07
2.18187967103948e-07
1.91086501026844e-07
1.72884302566651e-07
1.60786300002808e-07
1.52743191990042e-07
1.4462657752006e-07
1.3541655401173e-07
1.21268690807608e-07
1.00239623630034e-07
7.63861530066759e-08
5.49984314323044e-08
3.76209565672413e-08
2.58073675713594e-08
1.87718366933775e-08
1.55873073602737e-08
1.63252146369726e-08
2.80472768303938e-08
5.25121103813855e-08
4.20504295947027e-08
2.39888642058611e-08
4.51258412800424e-07
1.76010967821413e-07
1.92651011113383e-08
6.28956712512761e-09
6.19481274897284e-09
8.67261969184447e-10
4.46550408294606e-10
7.75278963788749e-10
1.40606579369948e-09
2.72459102345683e-09
5.23652604226317e-09
9.89376565160012e-09
1.80585689460467e-08
3.16560000829826e-08
5.40870932788815e-08
9.22568900995939e-08
1.51419638337558e-07
2.32547583057024e-07
3.14906555921269e-07
3.27719069241492e-07
2.29308213493372e-07
1.23840944560875e-07
1.45251717826095e-07
2.42425174389489e-07
3.85515343440137e-07
5.94548779866663e-07
8.82914008539401e-07
1.25211862383504e-06
1.69657795202093e-06
2.20413606113826e-06
2.76224589524585e-06
3.35906616008428e-06
3.98557917913605e-06
4.63455589744007e-06
5.30056267158523e-06
5.97903958808335e-06
6.66618583972451e-06
7.35858184149089e-06
8.05317844162739e-06
8.74716718579533e-06
9.43797889606219e-06
1.01232315361618e-05
1.08007089829697e-05
1.14683293506184e-05
1.21241302139374e-05
1.2766277962405e-05
1.33931331819585e-05
1.40033211462536e-05
1.4595821726206e-05
1.51701581530891e-05
1.57266808108384e-05
1.62662286317112e-05
1.67802789930201e-05
1.72654548568095e-05
1.77217696933977e-05
1.81485282562285e-05
1.85451807290671e-05
1.89113248997547e-05
1.92467051556382e-05
1.95512041667174e-05
1.98248372619583e-05
2.00677417947236e-05
2.02801628431576e-05
2.04624399314562e-05
2.06149917466766e-05
2.07383018402166e-05
2.08329005396095e-05
2.08993462718109e-05
2.09382048653266e-05
2.09500236312161e-05
2.09352988633682e-05
2.08944401850936e-05
2.08277246483073e-05
2.07352570393715e-05
2.06169288128262e-05
2.04723938094506e-05
2.030105916133e-05
2.01020588566584e-05
1.98742201036772e-05
1.96159474468394e-05
1.93250879911428e-05
1.89987980460101e-05
1.86334044068819e-05
1.82243641656789e-05
1.77662341134478e-05
1.72529586927986e-05
1.66781378915521e-05
1.6036270346933e-05
1.53235681477559e-05
1.45415905404328e-05
1.36981562605237e-05
1.2816105451937e-05
1.19299892153064e-05
1.11052064753292e-05
1.04115717253518e-05
9.96786382662235e-06
9.79518889568608e-06
9.71702033855799e-06
8.78364297431584e-06
6.32417606303059e-06
4.82993750896088e-06
4.25072401025098e-06
3.85094141371857e-06
3.58340887331658e-06
3.40261591489551e-06
3.21979295321835e-06
3.01072157529783e-06
2.69225469309837e-06
2.22411720155157e-06
1.69644724666625e-06
1.22308936073437e-06
8.38612775345916e-07
5.7673698504285e-07
4.20585540463979e-07
3.5006942731314e-07
3.67268896247014e-07
6.18787071415478e-07
1.12552751280314e-06
8.78178454675153e-07
5.14192725146701e-07
3.54411621490062e-06
1.40596414992229e-06
1.64119372215196e-07
5.2683079013596e-08
5.22551731186174e-08
8.13936472594359e-09
3.82545675076944e-09
6.41639505317053e-09
1.15676624048122e-08
2.2314501688868e-08
4.27499299184245e-08
8.05904596216484e-08
1.47008760995625e-07
2.57966484748356e-07
4.41166299490011e-07
7.51694799957064e-07
1.23292873527462e-06
1.89197678145956e-06
2.56318148666834e-06
2.68558353639254e-06
1.88734621661434e-06
1.00314983050736e-06
1.194904903622e-06
1.98135763905946e-06
3.08705379197863e-06
4.66793164891384e-06
6.79848787475481e-06
9.47460665798041e-06
1.2645192753368e-05
1.62141263787354e-05
2.00858598937647e-05
2.41728236703458e-05
2.84109991605368e-05
3.27509933445205e-05
3.71577946556461e-05
4.16032677844188e-05
4.60652699210086e-05
5.05245948186996e-05
5.49648888747417e-05
5.93715660715179e-05
6.37317746126036e-05
6.80339380788178e-05
7.22675670385126e-05
7.64229680954019e-05
8.04910843372089e-05
8.44634905318186e-05
8.83327549495701e-05
9.2092772562912e-05
9.57390841670598e-05
9.92696526976659e-05
0.000102686350027479
0.000105937184501197
0.00010901764008091
0.000111935615293791
0.000114688617025763
0.000117274190535762
0.000119690490734464
0.000121936276536322
0.000124010910521013
0.000125914318948328
0.000127646971798189
0.000129209832269532
0.000130604290744198
0.000131832105776548
0.000132895333564506
0.00013379626454612
0.000134537337386655
0.000135121052122343
0.000135549869259137
0.000135826080795377
0.000135951642169392
0.000135927983373739
0.000135755761282311
0.000135434634615584
0.00013496303091049
0.000134337995430439
0.000133555120893929
0.00013260837908387
0.000131489893049732
0.000130189245519327
0.000128692639565154
0.000126982035826414
0.000125034192059573
0.000122820170355672
0.000120304833536426
0.000117447972408739
0.000114205366010747
0.00011053515724496
0.000106402417899527
0.000101799872733714
9.67556436279405e-05
9.13871809132342e-05
8.58916740700816e-05
8.06666260337408e-05
7.61651969856183e-05
7.3151462779238e-05
7.17913466015249e-05
7.08098623691257e-05
6.41285167488031e-05
4.78064143409897e-05
3.74620179249879e-05
3.33126753504008e-05
3.03708898761731e-05
2.8384432845712e-05
2.70204263799167e-05
2.56268179024929e-05
2.40041328981207e-05
2.15223881706725e-05
1.78752284145569e-05
1.37347139878229e-05
9.97004878108747e-06
6.8816835580944e-06
4.75596449360098e-06
3.479251180394e-06
2.89835469782103e-06
3.02720882478502e-06
4.93663719804905e-06
8.59512865523247e-06
6.38236860806191e-06
3.82699164169142e-06
1.51405479832749e-05
6.34964518538503e-06
8.1913899406214e-07
2.60441467190792e-07
2.60772629738288e-07
4.48256533973708e-08
1.95030812242914e-08
3.14448820869157e-08
5.62728201404085e-08
1.07953210359298e-07
2.05908920879457e-07
3.86822603474496e-07
7.04517368187331e-07
1.23686980519147e-06
2.11661439369934e-06
3.59579087973168e-06
5.87620473561196e-06
8.96638786800717e-06
1.20729711867055e-05
1.26991203858889e-05
8.99046638972646e-06
4.72062291545354e-06
5.72480689536157e-06
9.23489672132956e-06
1.3808792156234e-05
2.00898152443968e-05
2.82722356694162e-05
3.82989363504481e-05
4.99316633279908e-05
6.27588747566973e-05
7.63933222038116e-05
9.05004230972586e-05
0.000104854753177297
0.000119293848518613
0.000133714193049468
0.000148038190992343
0.000162211020720562
0.000176187883031712
0.000189933995777987
0.000203420050842883
0.000216622197426603
0.000229520122183266
0.000242096421860112
0.000254335498555247
0.000266223026628117
0.000277745852631445
0.000288892899679529
0.000299655772034652
0.000310028772594788
0.000320009122263654
0.00032948113703129
0.000338459561300432
0.000346968683349631
0.000355012208041531
0.000362589256912058
0.000369699473131296
0.000376343598063468
0.000382523420313844
0.000388241805644001
0.000393502588497061
0.000398310547669746
0.000402671286873861
0.000406591078021669
0.000410076744229069
0.000413135492135761
0.000415774783370356
0.000418002138668017
0.00041982494771215
0.000421250244044898
0.000422284411651014
0.000422932783722686
0.000423199203348534
0.000423085406828007
0.000422590470398718
0.000421710213656549
0.000420436806108564
0.000418758583900751
0.000416659607054823
0.000414119049384416
0.000411109409322829
0.000407594216612572
0.000403525645427521
0.000398841693739075
0.000393464323028766
0.000387297326171013
0.000380227838417687
0.000372127451489462
0.000362866035797962
0.000352321470005298
0.000340430461710083
0.00032721057384609
0.000312905472908193
0.000297981585935931
0.000283477192660607
0.000270667650008714
0.000261768887640098
0.000257418150086008
0.00025345529631295
0.000231366215026468
0.000181321529128514
0.000148785392518274
0.000134977047776742
0.000124962628729478
0.000118124301683867
0.00011334229988261
0.000108316501310437
0.000102246719716708
9.27182614389681e-05
7.84393577506622e-05
6.1682319214315e-05
4.5793081283472e-05
3.22537569982599e-05
2.26106337459129e-05
1.66752839305627e-05
1.39117948634382e-05
1.43855752936667e-05
2.24792000355208e-05
3.73607381705341e-05
2.61672691867661e-05
1.53837552174307e-05
4.22325213108648e-05
1.94697069123507e-05
2.92702176651876e-06
9.36479920932208e-07
9.48865029305866e-07
1.7872622752521e-07
7.29127417810487e-08
1.12439733447249e-07
1.99376543648237e-07
3.79833105828351e-07
7.20104352288754e-07
1.34566168492343e-06
2.44303074148482e-06
4.28452808365773e-06
7.32332429507528e-06
1.23468978047786e-05
1.99552880724541e-05
2.99519702682389e-05
3.95510280780772e-05
4.14426082035491e-05
2.97492185516807e-05
1.57118836905645e-05
1.92013867317223e-05
2.90897980872431e-05
4.10576037231724e-05
5.69548961630751e-05
7.73607709759019e-05
0.000102099997404832
0.000130376011601806
0.000160949106482785
0.000192760607808757
0.00022497801268552
0.000257103468367748
0.000288812175833402
0.000319931677200272
0.000350348040329609
0.000379999354208102
0.000408841889573551
0.000436851379106506
0.000464011299861875
0.000490313570417746
0.000515753903272184
0.000540330934555873
0.00056404397149522
0.000586892242867533
0.000608874814875639
0.000629992136094152
0.00065024687149087
0.000669642557024121
0.000688034080733759
0.000705432081899997
0.00072189764480521
0.000737451498170855
0.000752104661433904
0.000765866208784021
0.000778745371501115
0.000790752469485373
0.000801898794428972
0.0008121967588885
0.000821659732220598
0.000830302062083223
0.000838138906612057
0.000845185992458082
0.000851459475712931
0.000856975676191169
0.000861750906473842
0.000865801169439335
0.000869141873092345
0.000871787483772237
0.000873751066309514
0.000875043619135848
0.000875673373130255
0.000875644736158539
0.000874957373684696
0.000873605173937856
0.000871575588693698
0.000868849334994686
0.000865399670290801
0.00086119133409591
0.000856177487484348
0.000850295628858328
0.00084346331809008
0.000835573014583238
0.000826488292227926
0.000816039438671961
0.000804024636841039
0.000790210476344701
0.000774352743527711
0.000756211412298743
0.000735633483754571
0.000712593745965539
0.000687444699898193
0.00066093980859877
0.000634862382273153
0.000611532393100593
0.000594997671230137
0.00058651039778693
0.000576953380850637
0.000530060079714359
0.00043331342435388
0.000370926340679548
0.000343875864495435
0.000323997373697812
0.000310451633310947
0.000300872034483837
0.000290373925614447
0.000277024381037758
0.000255189836213619
0.000221634530098697
0.000180586267176523
0.000139416218516198
0.000102132652066134
7.3903196049091e-05
5.56278577194567e-05
4.67496553945478e-05
4.77628024076263e-05
7.11459039203288e-05
0.000113055551236063
7.68005920153426e-05
4.1743229997412e-05
8.79553531527726e-05
4.46412789657367e-05
8.23067742809217e-06
2.72635146381443e-06
2.80216747893147e-06
5.74700229960703e-07
2.22445300638285e-07
3.26507499646398e-07
5.72302572511205e-07
1.08064611681611e-06
2.03160586805863e-06
3.76685828557877e-06
6.79879983462805e-06
1.18709118802744e-05
2.0161361746177e-05
3.34304224489448e-05
5.27214849181986e-05
7.6541238893003e-05
9.7432180390954e-05
0.000100362256826674
7.34668979988738e-05
4.03485386362943e-05
4.82482528432654e-05
6.75671602349409e-05
9.03273073460001e-05
0.000121067322436551
0.000161043347269781
0.000209260652798851
0.000263307649846564
0.000320277574268553
0.000378066860629656
0.000435241267369048
0.000491096595115072
0.000545248289220183
0.000597573031247433
0.000648020738462182
0.000696611138747842
0.000743373037288143
0.000788352980711911
0.000831596106631842
0.000873150926673929
0.000913062672490689
0.000951373948790567
0.000988122169743046
0.0010233396153734
0.00105705398458427
0.0010892907670351
0.00112007460504055
0.00114930747506932
0.00117691363700359
0.00120301339294475
0.00122766011894418
0.00125088319340389
0.00127270801335815
0.00129315823198033
0.00131225685175707
0.00133002757621799
0.00134649465479444
0.00136168321358361
0.00137561907740032
0.00138832886518481
0.00139983980246519
0.0014101794102373
0.00141937536356877
0.00142745514252829
0.00143444582893785
0.00144037370305907
0.00144526387617499
0.00144913981844846
0.00145202274091955
0.00145393065678377
0.00145487741209953
0.00145487117698354
0.00145391313996404
0.0014519960119321
0.00144910310189832
0.00144520788661549
0.0014402730499811
0.00143424893571005
0.00142706917474988
0.00141864473449222
0.00140885757889858
0.00139755304000815
0.00138453385814905
0.00136955339251071
0.0013523160558502
0.0013324773321564
0.00130967070921022
0.00128352919786053
0.00125379815196255
0.00122040100603594
0.00118378906178145
0.00114501594283244
0.00110662847204593
0.00107207854785086
0.00104718958939444
0.00103346559035925
0.0010146723406074
0.000935385849143161
0.000788039513996211
0.000695512540402746
0.00065545901636426
0.000626203934288102
0.00060669774371261
0.000592930022631594
0.000577055514780232
0.000555558001324511
0.000518676673124409
0.000460983214727354
0.000388228459235049
0.000312010766493402
0.000239218232839135
0.000180651672206306
0.00014044147438267
0.000119927848569019
0.000121431604908243
0.000172561151255414
0.000261255588643286
0.000181531249415545
8.87855239924604e-05
0.000153439068865319
8.27091195802719e-05
1.91283774666312e-05
6.82715691550664e-06
7.13725179557521e-06
1.58473759693988e-06
5.88458493053526e-07
8.18312201872844e-07
1.41356064708581e-06
2.6387329965665e-06
4.90428345703863e-06
8.99160495925537e-06
1.60695621675582e-05
2.77710887916134e-05
4.64312886640496e-05
7.47895006977528e-05
0.000113338783790789
0.000156809344130942
0.000190217431003346
0.000190237328363865
0.00014190502965995
8.34678391863354e-05
9.54800661725723e-05
0.000125304356016136
0.000162385423996812
0.000214782539436486
0.000283310551356463
0.000364186742023963
0.000452028760900088
0.000541854603813077
0.000630683309524438
0.00071678551847664
0.000799546500239489
0.000878737344845146
0.000954439948184076
0.00102677234393459
0.00109591018853463
0.00116200592100867
0.00122521442102393
0.00128566955610586
0.00134349694316184
0.00139880678401697
0.00145169772992
0.00150225485735463
0.00155055134136553
0.00159665007030196
0.00164060661366785
0.00168243154258829
0.00172192522834453
0.00175924020536975
0.00179448223450139
0.00182770915100772
0.00185896528742956
0.00188829310646686
0.00191573250757255
0.00194132191756492
0.00196509994914402
0.00198710525124434
0.0020073770215949
0.00202595484876781
0.00204287887405562
0.00205818959560535
0.00207192749733305
0.00208413289742605
0.00209484552860834
0.00210410429590109
0.00211194676820279
0.00211840873542369
0.00212352359539143
0.00212732158024535
0.00212982853983864
0.00213106468584294
0.00213104263985793
0.00212976571357276
0.0021272259487955
0.00212340291689516
0.00211826311711611
0.00211175881747356
0.0021038259779762
0.00209437853978672
0.00208330061312574
0.00207043794211171
0.00205558777199838
0.00203849056514822
0.00201882086048204
0.00199618670945424
0.00197012959105685
0.00194015685068563
0.00190577160874115
0.00186661317674695
0.0018225548562669
0.00177414455837692
0.00172275306700472
0.00167168147155026
0.00162552093384348
0.00159157275833282
0.00157087336672817
0.00153826206272672
0.00142064585389764
0.00122322770782668
0.00110310240860279
0.00105168888884549
0.00101494754607611
0.000991390744234265
0.000975007899418723
0.00095488985121481
0.000925497670639589
0.00087252486029854
0.000788823772359603
0.000681236171776936
0.000565379838161774
0.000450797904646759
0.000354571990096468
0.000285400981843906
0.000248808134698318
0.000250874085673137
0.000341746368717324
0.000491216371053853
0.000363323271482627
0.000162791482293563
0.000242268164850251
0.000132522668538272
3.7915614778161e-05
1.52338791661052e-05
1.62636439357788e-05
3.8907198387036e-06
1.40071175887698e-06
1.83744715067706e-06
3.11623718375333e-06
5.73227769507998e-06
1.04928273103466e-05
1.89429074844527e-05
3.33433075277972e-05
5.65880013302542e-05
9.21242937323564e-05
0.000142542124280751
0.000205546247491501
0.000269413317306594
0.000310775814951432
0.00030075933969283
0.000226431901479073
0.000144066140350416
0.000158496270688873
0.000200455191391902
0.000257827528684908
0.000340901926150431
0.00044718652686739
0.000568022699691948
0.000694704214954697
0.000820742713937515
0.000942905860545971
0.00105961884088739
0.00117061929604675
0.00127597872550483
0.00137606106665043
0.00147119334281608
0.00156172954916673
0.00164795817754021
0.001730149756993
0.00180853128452496
0.00188330834857007
0.00195465810291924
0.00202273683421397
0.00208767874494916
0.00214959947031988
0.00220859891949047
0.00226476982382715
0.00231797771630469
0.00236820156329452
0.00241564613048151
0.00246041526534158
0.00250257895884339
0.00254219959105376
0.00257933779308324
0.00261405053058147
0.00264639256321899
0.0026764182747813
0.00270418157981469
0.00272973659119235
0.00275313750831493
0.00277443882899276
0.00279369514771356
0.002810960731427
0.00282628934239162
0.00283973375693502
0.0028513454735162
0.00286117409246834
0.00286926679905868
0.00287566759445635
0.00288041636407206
0.0028835473845844
0.00288508776330321
0.00288505506253986
0.00288345514114311
0.00288027973464578
0.00287550495479234
0.00286909047165994
0.0028609781652613
0.00285108949130061
0.00283931842015073
0.00282552178680854
0.00280950847408038
0.00279102676557542
0.00276975364387281
0.00274528338614911
0.00271712585247072
0.00268470674945529
0.00264740511350363
0.00260459343998183
0.00255580352856041
0.0025008624440469
0.00244041395970955
0.00237615624791248
0.00231211041064402
0.0022539410184949
0.00221000594216589
0.00218003853335658
0.00212877876357522
0.00196853922675141
0.00172346540897285
0.00157894162725528
0.00151803129943853
0.00147596497234151
0.00145045057045294
0.00143318223637428
0.00141014406880868
0.00137322733304352
0.00130370602467887
0.00119316625430433
0.00104941436977925
0.000891970781494907
0.000732976819721635
0.000595897802604405
0.000494448183560634
0.000439776703158404
0.000442891758587179
0.000581947912544666
0.000795866722259544
0.000633978863222176
0.000270613801673204
0.000361004860572785
0.00019328056454169
6.58317987504325e-05
3.08770708597555e-05
3.38971686899739e-05
8.71099603288499e-06
3.07160977318268e-06
3.78662568507464e-06
6.27631976032692e-06
1.13330911921518e-05
2.03446298774571e-05
3.5998700880164e-05
6.20416840085926e-05
0.000102580696299763
0.000161180482289159
0.000238165792035527
0.000326140755459821
0.000405770070093815
0.000446878648965163
0.000419310102502817
0.000317552825780264
0.000216902141457787
0.000234256728402882
0.000292940301822544
0.00037918367017242
0.000502500207442022
0.000653651254559622
0.000818594739035801
0.000986233520420888
0.0011496115512739
0.00130581114668405
0.0014537095430637
0.00159350238358828
0.00172560203270484
0.00185065739070224
0.0019691998805669
0.00208175282604984
0.00218873316970517
0.00229052022285818
0.00238742902235578
0.00247974112226348
0.00256769784100858
0.00265151122681934
0.00273136363556139
0.00280741298571017
0.00287979615526104
0.00294861030739752
0.00301360350350066
0.00307499287202037
0.00313296539270891
0.00318763213583364
0.00323907997135194
0.00328739104114841
0.00333264485662017
0.0033749161565405
0.00341427680220852
0.00345079768093885
0.00348454871608309
0.00351559965984957
0.00354402004705352
0.00356987944430786
0.00359324724197546
0.00361419218242287
0.00363278214415413
0.00364908360505085
0.00366316129049375
0.00367507743737234
0.00368489119869008
0.00369265771076637
0.00369842699776034
0.00370224220841282
0.00370413774074274
0.00370413646380999
0.00370224710782387
0.00369846138921049
0.00369275218049487
0.00368507243420241
0.00367535362871636
0.00366350256588025
0.00364939297265197
0.00363285404217578
0.00361365730082433
0.00359150146317529
0.00356599926889552
0.00353666392980816
0.00350290620125874
0.00346403543348727
0.00341930175281753
0.00336794792828028
0.00330939863293754
0.00324343884273482
0.00317080557149121
0.00309352230166674
0.00301627039068968
0.00294565956981149
0.00289063091797508
0.0028488218260632
0.00277437031617895
0.00256875127812113
0.00227933981173903
0.00211369330096238
0.00204512336097943
0.00199985507768463
0.00197436949646516
0.00195783238607916
0.00193306687341846
0.00188873839305913
0.00180233155544898
0.00166433145220153
0.00148358706225269
0.00128348377334412
0.00107892250388147
0.000899794922555651
0.000765002561044136
0.00069196541245636
0.000696752623377488
0.000888432577723608
0.00116287699659789
0.000992431768000599
0.000417913134774737
0.000517554921974484
0.000265488458480357
0.000102730037918685
5.72491867750419e-05
6.54088764678501e-05
1.80664845577058e-05
6.30113022586194e-06
7.27810204078331e-06
1.17279791218391e-05
2.07009593041493e-05
3.62896698779666e-05
6.26653887336139e-05
0.000105190850036242
0.000168426891036516
0.000254265454414062
0.000358679597249573
0.000467960088527423
0.000555808431092166
0.000588105393562953
0.000537550556044935
0.000410128267577163
0.000298095364924865
0.000322075599721555
0.000405045199438126
0.000529848607748575
0.000701348028591196
0.000901283429903493
0.00111175863575235
0.0013206367194673
0.00152137434387439
0.0017116476565347
0.00189090154929659
0.00205977849589874
0.00221901272611883
0.00236950560830521
0.00251197021811434
0.00264707875257987
0.00277536282162523
0.00289729953516472
0.00301328455449705
0.00312366982822673
0.00322875717074034
0.00332881197151936
0.00342406350846702
0.00351471178726388
0.00360093362663542
0.00368274126998005
0.00375996156694079
0.00383291530539352
0.00390178529262997
0.0039666963698821
0.00402775534790424
0.00408506527582035
0.00413872523187375
0.00418882848210364
0.0042354647553783
0.0042787221653629
0.00431868736065621
0.00435544641882788
0.00438908487973267
0.00441968802561431
0.00444734066602236
0.00447212662309842
0.00449412846870766
0.00451342693671577
0.00453010050186863
0.00454422452866466
0.00455587058861606
0.00456510536394786
0.0045719893811666
0.0045765749876748
0.00457890416138504
0.00457900535200466
0.0045768904195981
0.00457255130934673
0.00456595786147809
0.00455705643893684
0.0045457681356177
0.00453198501098643
0.00451556039339455
0.00449629565314647
0.0044739247658534
0.00444809671730285
0.00441835988217812
0.00438414645974257
0.00434476832065025
0.00429941923796551
0.0042472214826254
0.00418729051078725
0.00411894564348645
0.00404193312060137
0.00395707714344167
0.00386671061854574
0.00377609248056093
0.0036926024574155
0.00362528690457816
0.00356902223649163
0.00346742534347851
0.00321501715659577
0.00288505563082973
0.00270151447894519
0.00262709429530024
0.00258065657060051
0.00255702726240799
0.00254266189507087
0.00251713527778086
0.00246514393835126
0.0023615287183158
0.00219543040608795
0.00197696779025277
0.0017333646152275
0.00148254007636198
0.00126084545653702
0.00109252675389538
0.00100143616762133
0.00100828286901668
0.00125382692542244
0.00158121322008472
0.00143042509291078
0.000607720355052333
0.000719250150719604
0.00035089727134805
0.000147572180876456
9.68722301503465e-05
0.000117408705329386
3.50676825721014e-05
1.22118813181414e-05
1.31903600613488e-05
2.05469850540184e-05
3.53066885122855e-05
6.02251932434094e-05
0.000101156941280574
0.000164775041708891
0.000254688444710287
0.000369232853267967
0.000498796875521441
0.000623406458709799
0.000711548787998281
0.000728237072166058
0.000652333006582106
0.000503478256396874
0.000386763577807198
0.000423599488667528
0.000540293899725752
0.000712598756607645
0.000937293718278926
0.00118710523448274
0.00144288192006771
0.00169241656553571
0.00193011244377716
0.00215428065086176
0.00236493872481264
0.00256311003605797
0.0027498091543194
0.00292614653352993
0.00309299012449517
0.00325113850585793
0.00340122372339636
0.00354380955585823
0.00367936512196144
0.00380830746782781
0.00393099560051761
0.00404774617584937
0.00415883450792202
0.00426450269885423
0.00436498207672026
0.00446010099894204
0.00454993138578091
0.00463479954723497
0.00471489395253699
0.00479035778533636
0.00486131992876496
0.00492790526882924
0.00499023320383973
0.00504841633927496
0.00510256305168685
0.00515277940780324
0.00519916947959699
0.00524183632292276
0.00528088210110638
0.00531640839509915
0.00534851598147116
0.00537730427875594
0.00540287103355264
0.0054253116867217
0.00544471887482997
0.00546118146831111
0.00547478379064581
0.00548560436526444
0.00549371447168017
0.00549917587587092
0.00550203833256033
0.00550233607073013
0.00550008429123185
0.00549527539740853
0.00548787641829896
0.00547782730496379
0.00546503886419832
0.00544938844831164
0.00543070902117349
0.00540877422516602
0.00538328069145537
0.00535382807731719
0.00531990103144366
0.00528085177328236
0.0052358947516245
0.00518411037860861
0.00512449577162242
0.00505604287218734
0.00497796844379285
0.00488998199715657
0.00479298478819979
0.0046895900007522
0.00458553294503497
0.00448875736806232
0.00440796460253376
0.00433477233857605
0.00420281790860662
0.00390335279863464
0.00353687377542936
0.00333860345528898
0.00326014807310966
0.00321448599989003
0.00319438421195855