/*--------------------------------*- C++ -*----------------------------------*\
  =========                 |
  \\      /  F ield         | OpenFOAM: The Open Source CFD Toolbox
   \\    /   O peration     | Website:  https://openfoam.org
    \\  /    A nd           | Version:  7
     \\/     M anipulation  |
\*---------------------------------------------------------------------------*/
FoamFile
{
    version     2.0;
    format      ascii;
    class       volScalarField;
    location    "20000";
    object      omega;
}
// * * * * * * * * * * * * * * * * * * * * * * * * * * * * * * * * * * * * * //

dimensions      [0 0 -1 0 0 0 0];

internalField   nonuniform List<scalar> 
15600
(
23325.39651054
24163.0480731507
32060.5442133229
39666.512743712
37412.8844789071
31273.2605214896
24923.6992299317
19428.3978267933
15173.37184476
12191.6173024521
10053.6142838633
8474.61075071504
7279.05430563897
6304.33870032648
5419.94957880168
4611.18345401251
3867.72711698979
3183.75508016765
2604.26782549318
2157.46622901378
1879.06360163297
1858.80790922706
1906.51553435342
1906.51553435343
1906.51553435344
1906.51553435353
1906.51553435338
1906.51553435357
1906.51553435334
1906.51553435361
1906.51553435347
1906.51553435335
1906.51553435339
1906.51553435364
1906.51553435333
1906.51553435333
1906.51553435343
1906.51553435351
1906.51553435344
1906.51553435347
1906.51553435342
1906.51553435341
1906.51553435318
1906.51553435337
1906.51553435335
1906.51553435343
1906.51553435347
1906.51553435339
1906.51553435345
1906.51553435338
1906.51553435356
1906.51553435344
1906.51553435355
1906.51553435355
1906.51553435351
1906.51553435352
1906.51553435343
1906.51553435351
1906.51553435344
1906.51553435343
1906.51553435353
1906.51553435333
1906.51553435351
1906.51553435353
1906.51553435318
1906.51553435345
1906.51553435347
1906.51553435339
1906.51553435336
1906.51553435361
1906.51553435341
1906.51553435345
1906.51553435335
1906.51553435347
1906.51553435356
1906.51553435343
1906.51553435328
1906.51553435327
1906.51553435341
1906.51553435339
1906.51553435335
1906.51553435335
1906.51553435351
1906.51553435343
1906.51553435328
1906.5155343535
1906.51553435347
1906.51553435336
1906.51553435326
1906.51553435343
1906.51553435351
1906.51553435344
1906.51553435352
1906.51553435345
1906.51553435352
1906.5155343536
1906.51553435342
1906.51553435338
1859.43611521308
1877.95289362879
2154.99934847805
2600.83123431271
3179.42995971471
3862.8458534356
4605.8090996465
5413.9880619172
6297.725722819
7271.45831998477
8464.78891532788
10040.5363156787
12173.7209142193
15148.0518534574
19392.7992880174
24879.7074770339
31223.3897572674
37369.6943521521
39668.0062082961
32126.7573075843
24182.799779317
23323.8888617932
3933.44296096221
4073.97971530061
5388.21135967567
6663.69966144032
6302.31545914976
5279.6434049096
4213.3022026531
3287.43310864994
2568.32356370203
2063.06816328592
1700.83345568346
1433.32434675555
1230.88547236009
1066.19477472496
917.035875014611
780.572621396747
655.104211347965
539.602271003026
441.602285883752
366.154966590309
319.215250166908
315.607045279873
322.437187678049
322.289701850973
322.596228742097
322.950945023079
323.253904541474
323.501233342814
323.67604763064
323.804367268951
323.901683391476
323.984975475547
324.060491611704
324.131803659894
324.198695071367
324.260513216635
324.315993968564
324.364181999531
324.404227987001
324.435568966514
324.457812323685
324.470727516677
324.474209577772
324.468260087367
324.452995784886
324.428671895363
324.395631563847
324.354276220573
324.305041851391
324.248401621977
324.184872113362
324.115059236324
324.039730012677
323.95945275792
323.874812507443
323.786418535113
323.694856032798
323.600703681591
323.504518620461
323.406840484329
323.308184775114
323.209036294624
323.109854058413
323.01106311993
322.913059483158
322.816206616173
322.7208345707
322.627243829895
322.535701672429
322.446444489542
322.359684568278
322.275602536767
322.194370046492
322.11613934483
322.041068575491
321.969324394627
321.901078781793
321.836524204084
321.77585099219
321.719264209455
321.667003348363
321.619369920564
321.576764647872
321.5397019351
321.508903671178
321.485220431506
321.469867030869
321.464029431698
321.469534607654
321.487376307528
321.519934410025
321.565778919484
321.627309714025
321.691675469016
321.754136273743
321.73822666143
321.578730134152
321.133004712574
313.611903433262
318.844126545945
366.891939650844
442.648521614627
540.450318412541
655.350740136265
779.901232704106
915.377270930665
1063.5351225943
1227.40793420204
1429.13585864732
1696.0956769324
2057.57396058079
2561.68716282696
3278.83376844026
4202.95934384601
5267.75433127373
6291.49418755385
6656.90770664459
5404.20674539277
4120.23023964051
3958.90456349332
1303.05058253516
1352.47051883748
1779.28574585131
2187.73221626259
2072.90019800261
1741.31840537231
1391.36570573434
1086.49130678197
849.155065285082
682.019456691894
562.236274372253
473.755731944442
406.739990494713
352.177292515057
302.731496807496
257.401412194054
215.698393908712
177.399464277952
145.066279521993
120.508579641138
105.520409528459
104.854939576241
106.811647980792
106.966910582665
107.561560226505
108.223653643129
108.810793839592
109.283338343863
109.618667541764
109.850901646163
110.009006576185
110.120783143008
110.199907471395
110.254818366184
110.28861005953
110.303181879079
110.29936376717
110.278046457221
110.24001539374
110.186180044626
110.117460401743
110.03480606887
109.939171791638
109.831528587061
109.712887933478
109.584323480233
109.446907017157
109.301675267929
109.14962574693
108.99174644269
108.829131642326
108.66349517187
108.495354535652
108.325263508646
108.154050625806
107.982444961025
107.811125013007
107.640724994335
107.471829892663
107.304978819396
107.140662928125
106.979325312287
106.821364929189
106.667137321069
106.516958127167
106.371103855904
106.229814563042
106.093297281152
105.961727045388
105.835250828417
105.713993542455
105.598061558579
105.487558011229
105.382587830069
105.283276835154
105.189778810049
105.10227467682
105.020979013671
104.946122782071
104.877982961469
104.816911629487
104.76337596528
104.71802114533
104.681696847245
104.655568891712
104.641062386268
104.640098001976
104.65469050882
104.687574053269
104.740546887254
104.816537031204
104.913573138236
105.031925737453
105.151486324002
105.25410071376
105.227440122842
104.940780972588
104.138597381959
101.661387661053
105.142593407339
121.959035059226
146.983985348293
178.985639665021
216.287542521524
256.556759824622
300.383889263091
348.371761645866
401.862975432614
468.280912222034
556.650434482034
676.400429593088
843.45993980452
1080.13422869975
1384.3432709274
1733.62061650573
2066.39942950574
2178.13345461275
1786.92161781443
1416.95541691961
1345.25358750343
618.323383379735
636.989590346103
824.647577916044
997.450518475275
944.666823814259
796.846102216229
637.78096226938
498.647657902905
390.104446614949
313.443853281728
258.511713763654
217.888292273158
187.008419770976
161.740135979619
138.758347459315
117.603197220084
98.1300002168421
80.3667515999921
65.5757426982436
54.6776311464165
48.3834577670789
48.8121057122153
49.7874200700979
50.2557540387166
51.1909045677068
52.1669939331681
52.9678697747517
53.5137902909282
53.8015795216989
53.9038349762232
53.8856397874308
53.7991375450092
53.6727307982341
53.5235899499735
53.3599769761373
53.1870274635833
53.0075324202173
52.8235649504329
52.6365133458306
52.4475063238116
52.257392831646
52.06686500684
51.8764876258463
51.686761700274
51.4981668126485
51.3111856752322
51.1262568849263
50.9437756789155
50.7641401847413
50.5878844766551
50.4160632631318
50.2481926697895
50.0840708643964
49.9238228680046
49.7675848235161
49.6154551909729
49.4675178084658
49.3238423034673
49.1844820170699
49.0494769857675
48.9188521861332
48.7926186066368
48.6707756143423
48.5533116509342
48.440205995496
48.3314284588848
48.2269410340157
48.1266986538942
48.0306494943187
47.9387364454702
47.8509005027032
47.7670836048971
47.6872376607732
47.6113301063674
47.5393546706457
47.4713362839567
47.4073270035935
47.3474075945957
47.2916752667146
47.2402669474154
47.193387683009
47.1513424514199
47.1145952660211
47.083800683759
47.059905925386
47.0441410765966
47.03822592913
47.0441250793375
47.0645536491851
47.1017445206518
47.1589416069949
47.2354158425542
47.331076859194
47.4264544724461
47.4964579463884
47.4255024407241
47.0712644043335
46.2641169880864
45.2818160414045
48.111215112113
56.342614963086
67.6114721513957
81.8329188639691
98.2295619390231
115.846893536757
135.066165838023
156.192670740005
180.085630139616
210.216453978353
250.734965274771
305.800924645943
382.720993535745
491.028013162226
629.859210985945
788.564749420974
937.935824541826
982.110665087709
815.598852299267
698.551060872218
669.633358562143
371.627040797141
372.299298168131
465.12760121978
546.387541579145
515.71797084687
437.879448998183
351.296822350277
275.126749015529
215.581156044819
173.37691897336
143.136643698921
120.716467518961
103.540290441248
89.3324406164165
76.3161530346454
64.2707896562631
53.2029186673109
43.2513530856922
35.1785640621412
29.5178193724171
26.59647667613
27.6130805139565
28.5064174307457
29.3528061656735
30.6102072872974
31.7400829055776
32.464612616916
32.7497542068874
32.6954202548076
32.4559655568969
32.1370381354191
31.8025785066561
31.4794241439898
31.178943241434
30.9028550206947
30.6503525430592
30.4190400359248
30.2065866464881
30.0106319122814
29.8291363617639
29.6602615495882
29.5024313688201
29.3542870138709
29.2146937007237
29.082722616341
28.9576289898844
28.8387939623288
28.7257236160885
28.6180963816505
28.5159075531808
28.4183777879218
28.3245763564349
28.2342628654498
28.1472687382685
28.0633742988097
27.9823940290361
27.904165029465
27.8285451515358
27.7554066332798
27.6846357511288
27.6161279855488
27.5497865508945
27.4855219547055
27.4232496595738
27.3628899201991
27.3043653625203
27.2476006314534
27.1925211924517
27.1390520194237
27.0871170357907
27.0366403041146
26.9875460940304
26.9397639894307
26.8932310074543
26.847897167011
26.8037269008919
26.7606936144
26.7187786001002
26.677961382348
26.6382316575751
26.5996080598796
26.5621553240189
26.526023080914
26.4914694120212
26.4589326636739
26.4290431255883
26.4027746824676
26.3813372253484
26.3665423917226
26.3600958153506
26.3645597483551
26.380082428545
26.4067570312633
26.4301478023926
26.4267469030929
26.3037078154722
25.9455333079245
25.282551734559
24.8729142470163
26.9777115187759
31.6507747446563
37.623941188831
45.0664128305418
53.5449243945234
62.6147944814633
72.52894438303
83.4650768542386
96.0104071944629
112.071179771259
133.967742266396
163.957365365986
206.127471329183
265.253063505398
340.920418201157
426.848967598524
505.993670892586
522.003610032545
432.800903853516
409.635750411726
419.468644356844
261.785076236262
253.712342155606
298.645168223031
335.063104918948
313.890750471859
269.237190719173
216.717998707719
170.120947695454
133.620051292843
107.634623655169
89.0074083684835
75.1258257044756
64.3430438132542
55.2682178663078
46.8783198948687
39.0966041764238
32.0188633554134
25.831275529873
21.0200743272731
17.8643062798207
16.5327019945979
17.8816024140424
18.9853669271106
20.184281699458
21.5609085575112
22.5105402932401
22.8344595180912
22.6753671160926
22.2647271820185
21.7924610982815
21.3460837276189
20.9589555523817
20.6324427225315
20.3601295521747
20.132148023888
19.9401819531653
19.7769475515973
19.6368696606176
19.5154192231036
19.4090939591229
19.3150717312602
19.231120965361
19.1554492431765
19.0866361090579
19.0235603216203
18.9653440404429
18.9112896917123
18.8608716255988
18.8137602649201
18.7693870785776
18.7268602509002
18.6858500195327
18.6462461765801
18.6078836226447
18.5705900024087
18.534229495648
18.4986870146565
18.4638672079956
18.4296881811235
18.3960806906746
18.362983765997
18.3303430855494
18.2981102441633
18.2662402112048
18.234690987438
18.2034213176621
18.1723900553163
18.1415548785193
18.1108709814318
18.0802902306798
18.0497617953855
18.0192314910137
17.9886451328897
17.95794915204
17.927093825107
17.8960329833733
17.8647191664391
17.833101509545
17.8011187782219
17.7687055218557
17.7358040095393
17.7023738353941
17.6684163072845
17.6339907954371
17.5992621494429
17.5645155043812
17.5302578865185
17.4971704602468
17.466347756995
17.4388825253937
17.4164279080285
17.3990677235606
17.3863010203624
17.3670451345165
17.3208095096258
17.1788092959
16.8595619559939
16.3582279350743
16.1910969312965
17.701137365493
20.6184987409063
24.1971618471184
28.6027642256106
33.5620768003723
38.8445862085076
44.6100636575634
50.9627517994672
58.2817279318481
67.6739359769563
80.5517020405625
98.2971359724431
123.488411431125
158.830874082447
204.15183847699
255.211387254658
300.801414642222
303.427654988012
248.916420495322
257.543754339149
295.997946797865
200.74892500249
193.117725535747
211.146780353291
221.379412240924
204.659493385556
178.258898139266
144.156726425102
113.515870676951
89.4638687865308
72.2408237941988
59.8732883582012
50.568404111269
43.186551099458
36.8378064662148
30.9356915907678
25.507685294326
20.6990342403785
16.6826886036759
13.7333734643449
11.9515348073947
11.4568088545824
12.9734911888697
14.3211642458227
15.6883309938849
16.8804661714768
17.3890657477021
17.2444168067839
16.7668987246264
16.216768857635
15.72790099267
15.3300839632006
15.0194473259339
14.7782584312527
14.5910134722433
14.4441050682358
14.3278315101064
14.2346762203007
14.159277703499
14.0975248646355
14.0463802948895
14.0034873376402
13.9670474623028
13.935658534471
13.90824085663
13.8839629990385
13.8621895468182
13.8424314459767
13.8243413519342
13.8075804066855
13.7914854429779
13.7756820016167
13.7600877719922
13.7446423138338
13.7292442888536
13.7138002887533
13.6982418570362
13.6825135165753
13.6665726807714
13.6503848792363
13.6339232057046
13.617165173362
13.6000915170949
13.5826856955008
13.5649319116783
13.5468148507962
13.5283179576953
13.5094229370961
13.4901086991032
13.4703504325182
13.4501188860099
13.4293808992778
13.4080988404406
13.3862330224181
13.3637419493991
13.3405843880448
13.3167185122156
13.2920980985737
13.2666702617888
13.2403708605035
13.2131286227966
13.18487350982
13.1555437048025
13.1251025660931
13.0935513860224
13.0609627236425
13.0274947582892
12.9934606300261
12.9593044846116
12.9257531761682
12.8935417422098
12.8637109329991
12.8361022167733
12.8095775236053
12.7748837634743
12.7141240680723
12.5761777228278
12.3064324733672
11.9350357346422
11.8886495647003
13.0123968439556
15.0035272062831
17.3893656686346
20.2928168391975
23.5259972243232
26.9564810369794
30.6865368318903
34.7798392093597
39.479043858163
45.4570892758921
53.5979719745097
64.7654144977256
80.6316716926226
102.83988048736
131.36310895217
163.231595817898
190.86401337079
188.603623608513
154.684676986622
167.935186581807
219.206810514178
159.196190628403
157.981443156501
161.436785726645
154.152907793736
139.43631944208
124.201224041215
101.097684339006
79.9414013131803
63.2958844950285
51.2788471972441
42.6125938966653
35.9897010176792
30.5895980435435
25.8516133008013
21.4739656562893
17.5512996464863
14.2261732687251
11.6036977688364
9.79870983196118
8.82374823426749
8.81315854979986
10.4050258040805
11.8803284793851
13.1673307876887
13.9646654939639
14.00170108609
13.5462063837931
12.9679082655814
12.4512033566042
12.049093377903
11.7489620806601
11.5295079897615
11.36841306015
11.249974280717
11.1620535749674
11.0965427381232
11.0474161853844
11.0105175221711
10.9827242909314
10.9617810663287
10.9459633778693
10.9339794315484
10.9248367841595
10.9177846039341
10.9122538868024
10.9078172456287
10.9041524911848
10.9010305869986
10.8980450072609
10.8947938221622
10.8911601472752
10.8871250066481
10.8826539464679
10.8776903865914
10.8721884663403
10.8661183438698
10.8594580678438
10.8521937849354
10.8443162702994
10.8358205237001
10.8267035722341
10.8169636033233
10.8065996253627
10.7956100047383
10.7839922349602
10.7717416639138
10.7588511404904
10.7453101522596
10.7311042359074
10.7162144217291
10.7006177419148
10.6842869204199
10.6671922009507
10.6493015821342
10.6305822258174
10.6109994971581
10.5905140817157
10.569079932462
10.5466414466689
10.5231369786587
10.4985053147793
10.4726917903789
10.4456613095403
10.4174092336729
10.3879864393676
10.3575125235585
10.3262247329781
10.2944637918432
10.2627680983194
10.2316710737143
10.201831690921
10.1728903933852
10.1432783956838
10.1049321781711
10.0422254965077
9.91652988581205
9.69222513357515
9.41655935102167
9.43592319802069
10.3110320406324
11.7710355925883
13.4974166463067
15.5763864072437
17.8708506883774
20.2980527754025
22.9270252558371
25.8002628109451
29.0802366739855
33.2057185642156
38.7525900184056
46.2700728674867
56.8489158845012
71.4931734877308
90.2017094607145
110.886477911809
128.527117068548
125.566707108751
104.630952234121
114.168482442262
165.744418911389
127.534599453119
134.72658080062
131.753509594969
111.794487480703
97.6241041076578
89.7092063624855
73.6891871389457
58.5854308309523
46.668015354807
37.9618066905
31.6311888755645
26.6842265050928
22.5314741044799
18.8526066568505
15.5319187214493
12.6792535211875
10.3866307340937
8.68150804634578
7.59114551025959
7.11176437693095
7.40961048835173
9.01759621447872
10.4644243168147
11.485218601695
11.8415577364955
11.5346028650837
10.9619214544686
10.4218276139096
10.0003578822205
9.69663057424033
9.48163954170941
9.33131812235971
9.2256975128391
9.15182474444111
9.10014817794985
9.06447820478405
9.04027574990283
9.02446026759094
9.01472935292328
9.00943857286383
9.00733650129467
9.00749545374314
9.00920819101227
9.0119458900263
9.01531191268731
9.01901160310513
9.02282764685495
9.02655448805941
9.02982646893715
9.0324667598627
9.03444175304811
9.03574917236084
9.03636880216802
9.03627005564947
9.03543229921111
9.03384538263757
9.03150421339926
9.02840894648937
9.02456244560336
9.01996992667549
9.01463738517732
9.00857094071253
9.00177657257986
8.99425902649622
8.98602158737336
8.97706511590745
8.96738780013467
8.95698444002859
8.94584609563957
8.93395967802002
8.92130844363639
8.90787191199342
8.89362730576718
8.87854985038638
8.8626137731917
8.84579140610567
8.82805100966066
8.80935507064035
8.78965873451972
8.76891315332318
8.74707090474399
8.72409172940858
8.69995323552516
8.6746605886894
8.64826625525127
8.62088184100793
8.59271339268763
8.56405114150302
8.53532529666949
8.50694372982469
8.47931751260353
8.45194656754378
8.42301795242861
8.38538636706357
8.32545688456503
8.21365673616764
8.02755502495657
7.82167957675169
7.87794252431839
8.5838310192896
9.71127244807296
11.0352026103993
12.6148769864407
14.3461282492226
16.1738920882692
18.1474402369316
20.2977438506413
22.740262602031
25.7826116074537
29.8193770570724
35.2154510133072
42.7023563498088
52.897685658339
65.7733419244939
79.8307271144884
91.78532303215
89.4024947898367
76.3463314518052
81.5754132223382
127.528402097808
102.53895068549
117.439050890874
113.304747488524
84.1268171540068
69.480368144362
66.4607369970076
55.2867428069763
44.2587804419464
35.5238481236782
29.0310203158952
24.2471153599414
20.4064230326625
17.1054990677437
14.2003292857062
11.6761485058181
9.61130821902704
8.03655176398118
6.93179657013954
6.29497481126992
6.13671877772246
6.6440951111665
8.21299451575001
9.50477176433657
10.1758701577823
10.161139257052
9.67292152224254
9.11219832429121
8.66071657598522
8.33513094446297
8.11098543993378
7.95779648816995
7.85432006760661
7.78448881420512
7.73823217843231
7.70825804817018
7.68990211164457
7.67974908504563
7.67549646923472
7.67542091625937
7.67829749719423
7.68319433933428
7.68942462980673
7.69646695794223
7.70393443706827
7.71153857293209
7.71906560936769
7.7263610106846
7.73320166667016
7.73934201662321
7.74471187683743
7.7493044541811
7.75312137804673
7.75615065591611
7.7583764993968
7.75979154593703
7.76039558134222
7.76019187752982
7.75918726905144
7.7573902576733
7.75481066574968
7.75145846818585
7.7473432741293
7.74247409669777
7.73685851209084
7.73050243136689
7.72340935031538
7.71558016846375
7.70701259474278
7.69770095104437
7.68763588817599
7.67680486664182
7.6651922439802
7.65278045512754
7.63955037073836
7.62548203453102
7.61055388045082
7.59474108012637
7.57801422515075
7.56033864676133
7.54167771754682
7.52199764097907
7.50127291794706
7.47949552345175
7.45668367274946
7.43289785637303
7.40825125335927
7.38293543463937
7.35721138724011
7.33143903910985
7.30593971064767
7.28095567299146
7.25589517753241
7.22883305209622
7.19340237027186
7.13782487884525
7.03928270723841
6.88454542123011
6.73008655391461
6.80683560641616
7.39073881949829
8.29398014620151
9.3517357789368
10.6038293961295
11.9688192718449
13.4083311038752
14.959201903063
16.6454671919549
18.554122125229
20.9141160004007
24.008925396249
28.0941954658573
33.6806670811625
41.1576239547074
50.4701661266507
60.5110314411432
69.103329711516
67.4245117809343
59.0976411329838
61.2100891411534
100.186392553968
82.7984317739485
103.476828735007
101.307532833089
65.87820917174
50.029368353311
50.1002215181318
42.4042644214291
34.2372858881488
27.7330314743959
22.7771323792399
19.0597732509029
15.9924143330571
13.3243203502172
11.0263500333179
9.1166349262153
7.62581543727556
6.5434478681017
5.83428003661021
5.49533059742288
5.55632730806979
6.2050750844574
7.68183735751878
8.73963013416256
9.061896531333
8.79334988804722
8.25231999260784
7.76223391195379
7.40215737300268
7.15445623381501
6.98864549892917
6.87825454328621
6.80594143383968
6.75919204293417
6.7302447877429
6.71351728558457
6.70544829531308
6.70342224737834
6.70567658676011
6.71088689785595
6.71811234931705
6.72663614840741
6.7359313888401
6.74559895173882
6.75534400358976
6.7649471433621
6.7742447146638
6.78311330382515
6.79133075987001
6.79875984225451
6.80537365093361
6.81117335673812
6.81616096775273
6.82032952736225
6.82367182332546
6.82618759236859
6.82788168195986
6.82876152230591
6.82883708525621
6.82811943627703
6.82662038931466
6.82435160533674
6.82132416693272
6.81754836511339
6.81303303098535
6.80778530809377
6.80181005482616
6.79510970382781
6.78768377212595
6.7795287624658
6.77063798457736
6.7610020216808
6.75060893650388
6.73944527390555
6.72749645723087
6.7147473535549
6.70118161170787
6.68678039770107
6.67152144397297
6.65537900569623
6.63832713402138
6.62034405667627
6.60141738247629
6.58155216340582
6.56077886724905
6.53916665363445
6.51683238464911
6.49395928806686
6.47078803980292
6.44762799122684
6.42473614579465
6.40223579284837
6.37947976042324
6.35451876047174
6.32167377542006
6.27078196524273
6.18417979720655
6.05509535462556
5.9390450290589
6.02645704890044
6.51826896332556
7.26141172428986
8.13184618769279
9.15531341886547
10.2667762459412
11.4385344051289
12.6991411294608
14.0679327195529
15.6141127707567
17.5158271682331
19.9850065593922
23.2099870418264
27.5619355699345
33.2945115041102
40.3378435591378
47.8520729913112
54.3513524391199
53.2356151210499
47.7991041448968
47.9313895162875
80.5322326846883
67.3553976102403
91.6099216615678
93.0306639926485
53.994633670076
36.5323652291176
38.2008809352966
33.0812929669991
26.9881852613008
22.0970847386496
18.2420379686933
15.2899280315047
12.7970843481747
10.6302005781723
8.81953826985171
7.37811973015535
6.29899320803145
5.55464900679902
5.11240307702149
4.97702835026105
5.19203520723134
5.92624620854733
7.26667030253477
8.05658040127253
8.08351697492785
7.6769343521507
7.16044618685606
6.75535289576588
6.47273701879965
6.28395692879197
6.15988674694189
6.07914164623549
6.02787225718
5.99637845784748
5.97861994155164
5.97026415649302
5.96853514763958
5.97138521640116
5.97742894610614
5.98562057165767
5.99521534719515
6.00564470814591
6.01649083087262
6.02743755980132
6.03825174563016
6.04875975850901
6.05883157336266
6.06835070610594
6.07712830593776
6.08509453208564
6.09223953496274
6.09856610197347
6.10407581760644
6.10876499417277
6.11263153253163
6.11567905480586
6.11791501808048
6.11934891927372
6.11999216088494
6.11985691913937
6.11895580114056
6.11730112377209
6.11490455404157
6.11177690587337
6.10792759198178
6.1033643984283
6.09809300027149
6.09211684373834
6.08543674686417
6.07805086092008
6.06995457921025
6.06114098876543
6.0516011576711
6.04132501219287
6.03030175359047
6.01852030687226
6.00596876850446
5.99263343323224
5.97849816902576
5.96354484014369
5.94775654393617
5.93112169589513
5.91363896263394
5.89532444474157
5.87621893108262
5.85639902276122
5.83598480824649
5.81515320999437
5.79412857281999
5.77318101890498
5.75251732705511
5.73217512254663
5.71147831362722
5.68851118257196
5.65821297818621
5.61184908337753
5.5357545483841
5.42770050597987
5.34068589818667
5.43267659110499
5.85247819453541
6.47612989076265
7.20830021532583
8.06445405350681
8.99178580073233
9.96973389124527
11.0210354667668
12.1615374078482
13.4490284902735
15.0265665064798
17.0578774785331
19.6878785991046
23.1959298279058
27.7531617948491
33.2841571104413
39.1387233854853
44.2644319070961
43.5630902542891
39.9417320454459
38.8846219394968
66.1955356558154
55.3861790586472
81.2241699303386
86.8747082406239
46.4771692500298
27.2969056901488
29.3529940681707
26.1540583340458
21.6011365775861
17.9051336482428
14.8610464581102
12.4807983613343
10.4376896727752
8.67930304777371
7.25632634402154
6.1658825224499
5.38102628331102
4.87231991331003
4.61563624379164
4.62358771705456
4.94556041300119
5.71626037286507
6.89008348791011
7.41477652634912
7.22358011168179
6.76910768738434
6.31281757107736
5.98656375362666
5.76499262007998
5.61993776196974
5.5258876576935
5.46606303635466
5.42940073963671
5.40833609511923
5.39809369599246
5.39525488590856
5.39760860148969
5.40351695225505
5.41186361487704
5.42180231105266
5.43272746876697
5.44417581396197
5.45580640224451
5.467361341888
5.47865034678129
5.48953118532727
5.49989781713309
5.50963054803559
5.5185889261226
5.52673844714174
5.53407550675816
5.54060252149587
5.54632065673264
5.55122847692269
5.55532704306881
5.55862217040468
5.5611226885885
5.56283912593536
5.56378351080131
5.56396846737862
5.563406877597
5.5621112855887
5.56009358626954
5.55736482900171
5.55393475509107
5.54981157535797
5.54500157208637
5.53950899338158
5.53333573090955
5.52648131774442
5.51894290865362
5.51071571690097
5.50179335691338
5.49216862970005
5.48183394846848
5.47078170588164
5.45900381432812
5.44649095446418
5.43323222653796
5.41921592342081
5.40443272032238
5.38887952200678
5.37256411675257
5.35551162560831
5.33777109142879
5.31942486528274
5.30059503689812
5.28145268065323
5.26220773559271
5.24309829296595
5.22429067001333
5.20576019893501
5.18682122980908
5.16562869884895
5.13768081575443
5.09549954111978
5.02855779110772
4.93780751824878
4.87293201200065
4.96564855390522
5.32761939655477
5.85898215954654
6.48525180932475
7.21437155408342
8.00287613928884
8.83514094267876
9.72959742226319
10.6994590272369
11.7948860741229
13.1333904579146
14.8449540759724
17.0452220146982
19.9507344900577
23.6809138015573
28.1604759917685
32.8784647426333
37.0589288769116
36.6611190814929
34.2078892190898
32.4712659826162
55.5021406409407
46.1672616273368
71.9806089784905
81.86936727094
41.9134702253484
21.124347789161
22.7086444820894
20.9023378877082
17.5119377490927
14.7176460425146
12.2870282634957
10.3499697105506
8.67029252465643
7.24526934345713
6.12587713764055
5.29651945234553
4.72384499579789
4.38301231622248
4.25870240037579
4.36854917421434
4.76013038603979
5.52559149986859
6.51799435659264
6.80599981094169
6.47608758242977
6.03247278872687
5.64597769111469
5.38577577010364
5.21113933734627
5.09862623149186
5.02654520007925
4.98186867006223
4.95567969943688
4.94201839916428
4.93704532726303
4.93801822478893
4.94314022491106
4.95107547196876
4.96090450350367
4.97192765141674
4.98364102633632
4.99565842492476
5.00769485709807
5.01953475280009
5.03101870106232
5.04202664651916
5.05246927308633
5.06222651462884
5.07120283222838
5.07938087325663
5.08675893823558
5.09333864299415
5.09912095214604
5.10410608595306
5.10829715676671
5.11170128509171
5.11432806336977
5.11618855903817
5.11729507664535
5.11766042061435
5.11729756386474
5.11621914204861
5.11443717860824
5.11196289375343
5.10880630412512
5.1049760036321
5.10047883201468
5.09531977560122
5.08950170913073
5.08302541550582
5.07588962321522
5.06809142875435
5.0596266766178
5.05049067573136
5.04067862702322
5.0301859316566
5.0190078056722
5.00713869817223
4.99457216972418
4.98130193332882
4.96732498963932
4.95264526593592
4.93727798848269
4.9212554963145
4.90463320929599
4.88749757150036
4.86997134208786
4.85221963300601
4.83443904329657
4.81684060961288
4.79955742722577
4.78251952918844
4.76504584247115
4.74538503807405
4.71954121713799
4.68113724840041
4.62212702584208
4.54565955152824
4.497747263464
4.5887222218031
4.90328543186036
5.36142530413899
5.90418296207786
6.5340077132139
7.21469677369611
7.93412486646906
8.70736225399997
9.54574253587877
10.4939726080302
11.6502526648825
13.1201887410646
14.9988944549497
17.458392234428
20.5848049318178
24.3061031248636
28.2165061738215
31.7198449108345
31.5482950710303
29.8595140635342
27.7671334483759
47.3163996493464
39.0887737578549
63.6680265331064
77.3984339313278
39.2900680344126
17.1106530818302
17.7270628664678
16.8653147793761
14.358176351585
12.2527947939677
10.2971933975256
8.71238666792853
7.32976755713882
6.17420467222843
5.29005897384986
4.65544964713582
4.23812648453301
4.01945069574475
3.99105812386647
4.17216931466804
4.60238910772487
5.3300178698251
6.14016379320119
6.23554689473138
5.83462454413935
5.43359684244743
5.11326422491641
4.90599836505776
4.76735852013261
4.67937456042056
4.62373684524879
4.59034531458686
4.5719286499597
4.56373620877087
4.5626315650135
4.56638088674883
4.57349752563286
4.58287297208807
4.593735366213
4.60549548003772
4.61772576755927
4.63009802238356
4.64236921476821
4.65435549792976
4.66592050164813
4.67696041298736
4.68739716232351
4.69711722182031
4.70605918737392
4.71421368168223
4.72157929456112
4.72815695453115
4.73394767440342
4.73895298308765
4.74317742102142
4.7466289644696