/*--------------------------------*- C++ -*----------------------------------*\
  =========                 |
  \\      /  F ield         | OpenFOAM: The Open Source CFD Toolbox
   \\    /   O peration     | Website:  https://openfoam.org
    \\  /    A nd           | Version:  7
     \\/     M anipulation  |
\*---------------------------------------------------------------------------*/
FoamFile
{
    version     2.0;
    format      ascii;
    class       volScalarField;
    location    "20000";
    object      p;
}
// * * * * * * * * * * * * * * * * * * * * * * * * * * * * * * * * * * * * * //

dimensions      [0 2 -2 0 0 0 0];

internalField   nonuniform List<scalar> 
15600
(
2.74132378038249e-08
-0.0457241072279294
0.0106796742814973
0.0788056628821263
0.0914344181215689
0.0975467617575647
0.10079244749985
0.103204577561904
0.104794040429525
0.10658149842321
0.108170269295386
0.109989137700508
0.11197746204728
0.114239161480424
0.116554531307801
0.118761828322035
0.120625548758682
0.121919426241502
0.122817001441596
0.123471099766281
0.124621432120945
0.126054920026655
0.128203696390858
0.129667795436065
0.130901197860154
0.131720444744469
0.132361661539402
0.132942068809499
0.133687577274829
0.134726611155417
0.136167665422116
0.138057532610871
0.140421531423741
0.1432609203417
0.146568880090456
0.150331216681811
0.154531425672959
0.159150978180131
0.164170845994785
0.16957161386237
0.175333941925927
0.181438633143977
0.187866750150745
0.194599612178453
0.201618763786084
0.20890588025685
0.216442782262532
0.224211463613854
0.232194127815599
0.240373225043102
0.248731491845392
0.257252003226725
0.265918151081436
0.274713672850697
0.283622701921571
0.292629812933789
0.301720044605472
0.310878930592471
0.320092529713614
0.32934745042088
0.338630875242262
0.347930580372418
0.357234948618552
0.36653297587396
0.375814272121115
0.385069058431852
0.394288156360734
0.403462972923286
0.412585479930625
0.42164818842265
0.430644115490422
0.439566746079924
0.448409985079676
0.45716810585877
0.46583569324063
0.474407585237245
0.482878834165434
0.491244663359734
0.499500463014817
0.507641755627076
0.515664158018617
0.523563351578342
0.531335025422463
0.53897491072634
0.546478741493446
0.553842507772773
0.561062385441863
0.568135619688182
0.575060006771504
0.581836617335553
0.588467006836162
0.594961590050203
0.601328094720136
0.607598006362317
0.613782809457084
0.61997209851141
0.626064956188822
0.632490765792912
0.638579123584592
0.641956895982334
0.6451795522285
0.648926313396067
0.653365915706454
0.658995071657166
0.665952940200228
0.673922894339191
0.682526915492163
0.69059210148285
0.697256918775849
0.701283706822948
0.702480351477341
0.698880631498799
0.690229075861206
0.669735155805489
0.629337869410549
0.549365651502703
0.390502324863677
0.0340478352261196
-0.424772678551273
-0.226016031941741
5.33593929259705e-06
-0.0456267968660185
0.00965682012949218
0.0779169504334749
0.091196668983937
0.0974448252494462
0.100751333235598
0.103197825497496
0.104805986357411
0.106599643567956
0.108193507054181
0.110008050771749
0.111988733333157
0.114243705557541
0.116562065094817
0.118784263445799
0.120677318707442
0.122003209911504
0.122920878412713
0.123568011916738
0.124692097371446
0.126100708233315
0.128245781914117
0.129703158676934
0.130933661064343
0.131750568959365
0.13239146809158
0.132973130660943
0.133721607411827
0.134764625796978
0.136210257202222
0.138104787972349
0.140473251607953
0.143316690642489
0.146628180083333
0.150393463071512
0.154596014000387
0.159217300571972
0.164238306009735
0.169639633293573
0.175401966007242
0.181506132901377
0.187933223851377
0.194664585854335
0.20168179151707
0.208966544559313
0.216500694567278
0.224266264598346
0.232245487665272
0.240420842633109
0.248775093703421
0.257291345502291
0.265953020624081
0.274743884549393
0.283648097029673
0.292650258760032
0.301735433906219
0.310889180633962
0.320097581166521
0.329347266162772
0.338625439074716
0.34791989567752
0.357219036984991
0.366511875711265
0.375788037272477
0.385037756810314
0.394251868630594
0.403421791239321
0.412539506752164
0.42159753543225
0.430588902644388
0.439507100832686
0.448346041814729
0.457100005544633
0.465763583326714
0.474331619649775
0.482799173358535
0.491161474247964
0.499413918893791
0.507552036446711
0.515571450874502
0.523467851626066
0.531236936757856
0.538874447437
0.546376127545457
0.553737977017925
0.56095617715254
0.568027975926597
0.574951155518531
0.581726767698098
0.588356299740921
0.59485010249933
0.601215697816481
0.607484417654271
0.613667072107069
0.619853488655104
0.625939504010701
0.632350833379643
0.63846768996807
0.641894189249667
0.645153803659497
0.648952032606657
0.653461060986257
0.659171851173187
0.66619740584577
0.674207065439262
0.682803174892857
0.690808974364603
0.697371343308361
0.70127452654265
0.702313767086903
0.698527173659549
0.689576810207181
0.668572744425406
0.627332252473977
0.54593701670178
0.384537720081386
0.0271034165867506
-0.424877342386141
-0.22556367354622
1.99850968429801e-05
-0.0455034264942728
0.00868064936049798
0.0770235274773067
0.0909437018086293
0.0973384072410883
0.100707839282849
0.103189833307905
0.104817332378321
0.1066177131757
0.108216809319902
0.110027332305189
0.112000233769797
0.114247933591348
0.116568320112485
0.118804491354432
0.120726629872411
0.122085206220967
0.123023676044611
0.123662411785275
0.1247576084598
0.12614055498351
0.128290440192481
0.129741413454658
0.130969470736173
0.131783730085599
0.132423709943165
0.133005701615242
0.13375639619534
0.134802847341039
0.136252760993872
0.138151808758161
0.140524686312716
0.143372155691275
0.146687161734314
0.150455365651606
0.154660216262795
0.1592831749351
0.164305237236864
0.16970702532336
0.175469247816322
0.18157276077392
0.187998682989867
0.19472839107707
0.201743488007911
0.209025707866431
0.216556930616765
0.22431920967737
0.232294807453529
0.240466229972774
0.248816273393724
0.257328080938511
0.265985108173904
0.274771146376617
0.283670379769077
0.292667435868826
0.301747405191949
0.310895871113797
0.320098939871154
0.32934326482884
0.338616070753688
0.347905173306352
0.357198991940577
0.36648655635685
0.375757507496382
0.385002094609478
0.394211164743957
0.403376147848509
0.412489036266901
0.421542359415301
0.430529150893071
0.439442910699309
0.448277557777777
0.457027379064245
0.4656869729947
0.474251191349356
0.482715100535233
0.491073937884545
0.499323107695414
0.50745814756883
0.515474690949742
0.523368438575588
0.531135101303726
0.5387704354732
0.546270200057867
0.553630412054006
0.560847262454025
0.567918010057459
0.57484041805385
0.581615525799535
0.588244715763045
0.594738282245054
0.601103410949115
0.607371333165739
0.613551699120452
0.6197348318893
0.625814040827683
0.63220145380028
0.638330283819591
0.641807708176474
0.645109261163386
0.648963830103362
0.653546641446405
0.659342738634354
0.666437397348785
0.674485947142055
0.68307239966759
0.691016921398538
0.69747629708058
0.701255237019223
0.702136587716877
0.698159944911069
0.688905449988884
0.667384761968584
0.625297585516004
0.542496052826932
0.37878281470057
0.0211450966803825
-0.423348965344502
-0.224829610903702
-1.2315645070118e-05
-0.0453391325375505
0.00777008615347775
0.0761539040342652
0.0906895113731996
0.097231562577283
0.100663903531947
0.103181255466989
0.10482807729099
0.106635279556411
0.108239547969718
0.110046272124227
0.112011561329929
0.114251796260234
0.116573561849968
0.118822913873615
0.120773625119467
0.122165299314772
0.123124693408767
0.123753329536119
0.124815956185925
0.126172449233368
0.128336500147334
0.129781896414673
0.131007272032867
0.131817833994587
0.13245545145181
0.133036394101112
0.133788470864534
0.134838059591109
0.13629237103236
0.138196227517922
0.140573842229686
0.143425597787702
0.146744275471657
0.150515443582648
0.154722533153258
0.159347009614525
0.164369893494874
0.169771837245318
0.175533584495838
0.181636027295695
0.188060321290833
0.194787880334283
0.201800345604771
0.209079488301322
0.216607224070466
0.224365640252274
0.232337029723571
0.240503934951955
0.248849214835379
0.257356053404019
0.266007915772702
0.274788620625214
0.283682386713486
0.29267387242263
0.301748197143145
0.310890971628915
0.32008832796416
0.32932694370216
0.338594066053693
0.347877531387482
0.357165778147913
0.366447853318037
0.375713413409039
0.384952721616405
0.394156637387893
0.403316601624533
0.412424616299566
0.421473219359361
0.430455452075455
0.439364821648909
0.448195254144542
0.456941043970465
0.465596797814634
0.474157376392525
0.482617855884604
0.490973483721862
0.499219675165345
0.507351980697793
0.515366049203726
0.523257600919983
0.531022369900711
0.538656141241277
0.546154704304109
0.553514112283843
0.560730582396149
0.567801404678077
0.574724325145774
0.581500377886119
0.588130781387343
0.594625738484177
0.600991854770672
0.607260173144642
0.613438339714356
0.619616927967399
0.625687743406165
0.632038104008508
0.638152382781489
0.641688771696509
0.64503895125594
0.64895493221407
0.653615230206159
0.659498344253697
0.66666086429178
0.674745092713739
0.683318628796792
0.691200737675519
0.697559533083944
0.701218286148918
0.701946452478851
0.697782842230842
0.688227510598136
0.666199479273825
0.623290851328981
0.539165625136381
0.373517358687616
0.016750395760819
-0.419392769607664
-0.223562605220817
-0.000110478649586602
-0.0450701725775183
0.00688245441549191
0.0752680502389729
0.0904249051773368
0.0971201161973315
0.100617828735423
0.103171877583856
0.104838806726877
0.106653165781498
0.108262765754181
0.110065665721824
0.11202311930773
0.114255194368421
0.116577429597601
0.118839117071775
0.120818119887083
0.1222438474797
0.123225756481051
0.123844602884505
0.124873110831312
0.126202116922651
0.128386434715148
0.129827523344615
0.131050233504084
0.131855717100363
0.132489200516164
0.133067741303916
0.133820876984948
0.134874130859676
0.136333877190702
0.138243668804724
0.140627004652484
0.143483758197003
0.146806520184784
0.150580772686779
0.154789958085336
0.15941557596003
0.164438701944443
0.169840045089291
0.17560040725323
0.18170073690588
0.188122245145636
0.194846400628846
0.201854900013834
0.20912956720874
0.21665236675802
0.224405430655857
0.23237109966645
0.240532002729114
0.248871053891612
0.257371439756681
0.266016656733951
0.274790572887262
0.283677451190623
0.292661987834196
0.301729337487789
0.310865143887468
0.320055569825711
0.329287321155083
0.338547670890122
0.34782447878115
0.357106204311744
0.366381913214616
0.375641278484437
0.384874577687816
0.39407268267403
0.403227044934697
0.412329675422587
0.421373119809167
0.430350426234577
0.439255108542355
0.448081099871812
0.456822702857411
0.465474534267495
0.474031466630037
0.482488589854905
0.49084116626003
0.499084628016324
0.507214546382514
0.515226596266001
0.523116531833194
0.530880129059978
0.538513226214473
0.546011672045686
0.553371591657599
0.560589264129086
0.567662051367395
0.574587702549728
0.581367265123964
0.58800172851753
0.594501132445138
0.600871157181075
0.607142382913195
0.61331925289807
0.619491673052771
0.625549234258145
0.631846978546775
0.637921339916151
0.641537228018581
0.644947936366613
0.648931473427428
0.653672116651967
0.659641194389852
0.666865691018466
0.674976441641218
0.683526406593113
0.691337613398725
0.697592258293769
0.701130631502697
0.701706066435447
0.697353518361747
0.68748976445988
0.664943185508544
0.621204047018028
0.535781879449585
0.36844868005233
0.0135877318721551
-0.412916093722893
-0.221445644180706
-0.000236133208037888
-0.0445923334566729
0.00601789253925201
0.0743524006164129
0.0901459444145136
0.097002893706157
0.100569061555243
0.103161575091594
0.104849621679915
0.106671562593599
0.108286713338277
0.110085701333689
0.112034894291874
0.114257635433194
0.116578572598881
0.118850295664517
0.120855301327715
0.122314298083179
0.123321094095528
0.123934468738829
0.124933772963014
0.126236972632003
0.128442555667775
0.129881710362402
0.13110127710165
0.131899032986699
0.132525788948651
0.133100765650582
0.133855749302869
0.134914661594414
0.136382216714684
0.138300029655348
0.140690616076875
0.143553265238723
0.146880430528719
0.1506575881483
0.154868280705558
0.159494117964228
0.164516295594929
0.16991563174478
0.175673029437016
0.181769528836817
0.188186426273413
0.194905271169679
0.201907839099979
0.209176026763221
0.216691864138045
0.224437545682254
0.232395501706054
0.240548440806977
0.248879297859226
0.257371291370451
0.266007976396951
0.274773275311718
0.283651498670673
0.292627385795007
0.301686131281682
0.310813415721117
0.319995435774477
0.329218928062399
0.338471193202068
0.347740115527498
0.357014176241452
0.366282460037039
0.375534656171753
0.384761055997722
0.393952542878033
0.403100577767266
0.412197179302823
0.421234899542814
0.430206792270112
0.439106377093722
0.447927593976571
0.456664754465317
0.465312487331867
0.473865680118159
0.482319440984469
0.490669052750543
0.498909971507044
0.507037798442796
0.515048246644573
0.52293712059965
0.530700259531848
0.538333582661003
0.545833031802678
0.553194845691172
0.560415409590742
0.567492208465231
0.574423030493518
0.581208970902477
0.587850747059411
0.594358172848485
0.600735669131019
0.607013021083017
0.613190315538216
0.619355701216015
0.625395065444772
0.631628843400307
0.637644323329085
0.641362029193993
0.644844529929322
0.648899545587883
0.653718151066595
0.659764848560825
0.667037028236587
0.675156473265388
0.683663671082975
0.691388290846558
0.697530322122451
0.700945427090906
0.701367137541867
0.696822509568124
0.686639266179827
0.663556034078097
0.618964605927575
0.532244452218628
0.363369311147394
0.0112907874897117
-0.404283759564278
-0.218288209887226
-0.000322795378626715
-0.0437842042144296
0.0052003788933785
0.0734024989606865
0.0898504593179085
0.096880023748066
0.100517606399733
0.103150332897847
0.104860493041126
0.10669044308268
0.10831135801624
0.110106318046348
0.112046643701049
0.114258271141502
0.116574824486011
0.118852040116707
0.120877898456686
0.122367257508714
0.123402186688234
0.124019973644325
0.125003190586144
0.126285516807608
0.128507854179358
0.129947033026767
0.13116052248819
0.131945725445083
0.132562770955606
0.133134310030576
0.133893808751722
0.134961852495451
0.136440298645235
0.138368269129318
0.140767269069594
0.143636142058685
0.146967396968565
0.150746667216411
0.154957728188252
0.15958239700927
0.164602062124094
0.169997703747733
0.175750365440684
0.181841208702132
0.18825163819573
0.194963302950012
0.201958073483225
0.209217932088603
0.216724985351935
0.224461510472506
0.232410029763275
0.240553304471331
0.248874303198936
0.257356302784574
0.265982917798561
0.274738123952381
0.283606280571776
0.292572171852869
0.301621033663656
0.310738584379612
0.319911055099142
0.329125213421833
0.338368387444021
0.347628485672939
0.356894010386219
0.366154064392481
0.375398352187404
0.384617177752999
0.393801434715773
0.402942592189755
0.412032675188287
0.421064240920947
0.430030347753298
0.438924520333232
0.447740705233257
0.456473223435317
0.465116717189115
0.473666091524654
0.482116476391909
0.49046317952145
0.498701686457068
0.506827635414482
0.51483678689323
0.522725007924258
0.530488216595132
0.538122433190755
0.545623716720626
0.552988449445303
0.560213154566466
0.56729547778732
0.574233273892383
0.581027716797447
0.587679229182057
0.59419737442196
0.600585095704706
0.606871199296347
0.61305074857898
0.619209650711214
0.625229570279856
0.631396904894709
0.637341645716031
0.641173694074305
0.644732327801216
0.648860138112178
0.653750407541313
0.659861741329568
0.667162393728783
0.675267724230693
0.683708002382868
0.691325306533359
0.697340882193598
0.700624489487008
0.700886717080361
0.696142325558959
0.685622941275155
0.661977805111196
0.616500932691688
0.52845522692656
0.358085096053753
0.00945721052779889
-0.394087041220786
-0.21411160895586
-0.000310558914656581
-0.0425541749708921
0.00447129906268899
0.0724121258089693
0.0895341215602519
0.0967515421162393
0.100463492864981
0.103138163281626
0.10487142568259
0.106709812639556
0.108336703461951
0.110127455353032
0.112058008258818
0.114255920011572
0.116563494827539
0.118839615004451
0.12087937943748
0.12239599036084
0.123464282439206
0.124101860201947
0.12508934551202
0.126354240003303
0.128585104558256
0.130022563012486
0.131223494936763
0.13198999040861
0.132595460595499
0.13316575775258
0.133933856256293
0.135014838706333
0.136506846512139
0.138446437951478
0.1408543698794
0.143729307093795
0.147064035910287
0.150844499540128
0.155054813200191
0.159677071519587
0.164692903683419
0.170083483967376
0.175830018512998
0.181913805673682
0.188316369992445
0.195019469411706
0.202005077367351
0.209255267975511
0.216752231613628
0.224478334771
0.232416176192176
0.240548565665617
0.24885852917491
0.257329404932425
0.265944864232714
0.274688935927403
0.283546029013528
0.292500973368794
0.301539046748715
0.310646005716033
0.319808116038564
0.329012176335652
0.338245542051548
0.347496145588566
0.356752509905325
0.366003755434493
0.375239601327637
0.3844503635616
0.393626945356618
0.402760823309385
0.41184402815699
0.420869121679867
0.42982916637367
0.438717691698994
0.447528650932592
0.456256375058563
0.46489552098047
0.473441013042107
0.481888005542069
0.490231834222367
0.49846801792704
0.506592236648573
0.51460030420814
0.522488157702049
0.530251803224267
0.53788737347055
0.545391057466919
0.552759396393843
0.55998906617089
0.567077890868351
0.574023800993914
0.580828063128045
0.587490785539335
0.594021280413243
0.600420905108535
0.606717480680312
0.612900869671355
0.619054763999917
0.625057046078554
0.631161531583763
0.637027866798464
0.640977940501493
0.644610573659178
0.648811487016691
0.653766894822476
0.659930509347001
0.667241546442266
0.675311175911539
0.683661302890833
0.691149750472463
0.697021016902873
0.700157716213909
0.700245634348143
0.695283241061008
0.684399464927237
0.660153416415548
0.613739086432522
0.524308953829142
0.352426710783613
0.00775181997344656
-0.382899095219012
-0.209100342653266
-0.000158808427947905
-0.0408753726315906
0.0038877616394213
0.0713753424113491
0.0891892666381401
0.0966171233482332
0.100406731556551
0.103125085565956
0.104882455659238
0.10672971947449
0.108362804205943
0.110149063058738
0.112068539940404
0.114249286086706
0.116542164893991
0.118809840150779
0.120857130973171
0.122400328986686
0.123510140839183
0.124185434987581
0.125201966192143
0.126444677226912
0.128673989495164
0.130102613307832
0.131282336898541
0.132025029413703
0.132619458358797
0.133192467116722
0.133973581658718
0.135070798912688
0.136578372779113
0.138530581179815
0.140947762777865
0.1438286349856
0.147166420710709
0.15094747113516
0.155156306327394
0.159775338979523
0.164786466438392
0.170171075148617
0.175910546527174
0.181986325080984
0.188380062616143
0.195073632543537
0.202049117330593
0.209288688093971
0.21677462327485
0.224489374805861
0.232415611465068
0.240536207356547
0.248834252822608
0.257293146875345
0.265896617652106
0.274628748452643
0.283473999409634
0.292417247404894
0.301443813242136
0.31053949263337
0.319690586830312
0.328883926108028
0.338106893738697
0.347347446365794
0.356594127863862
0.365836076427696
0.37506302591068
0.384265304274648
0.393433824280168
0.402560069932611
0.411636077623261
0.420654413672598
0.429608144746524
0.438490805299437
0.447296355684963
0.456019137569714
0.464653823598025
0.473195358955118
0.481638924353247
0.489979885945103
0.498213798793266
0.506336388096871
0.51434352501557
0.522231221539736
0.529995577184471
0.537632843325856
0.545139345230677
0.552511789816548
0.559747010263578
0.566843014172375
0.573797804695916
0.580612742769775
0.587287600942255
0.593831449283319
0.600244011974926
0.606552211814032
0.612740782921938
0.618891353661977
0.624878608201401
0.630925768369635
0.636708042004752
0.640776748285496
0.644478330414393
0.648752599413914
0.653767650836653
0.659973489534239
0.667279859621649
0.675295654899042
0.683535920153699
0.690876109189971
0.696584816578165
0.699555707732346
0.69944810442437
0.694239916236482
0.682951740496023
0.658050856596508
0.610628345449273
0.519734607021363
0.346317271158437
0.00602781923971174
-0.371126347595183
-0.203473751028066
0.000156327008230251
-0.0387776150273936
0.00350961190987207
0.0702920459576835
0.0888047851511488
0.0964758221079663
0.100347342344902
0.103111127720722
0.104893639556449
0.106750243574985
0.108389750319713
0.110171101177055
0.112077808873449
0.114237386068081
0.116509637051077
0.118762457589989
0.120813451579883
0.122385915132568
0.123547118184803
0.12427712266957
0.12534576637782
0.126553885239428
0.128770011287388
0.13017912979785
0.131329563247405
0.132046010510037
0.132632163438224
0.133212554078226
0.134010690759032
0.135126836779466
0.136651610584252
0.138617348201165
0.141044221116497
0.143931150823567
0.147271895670298
0.151053275634401
0.15526025773552
0.159875600384825
0.164881489401209
0.170259538017332
0.175991314162482
0.182058417539209
0.188442634948443
0.195125962521806
0.202090598723008
0.209318817577622
0.216792983297749
0.224495634357671
0.232409516089443
0.240517578235654
0.248802976151195
0.257249171337983
0.265839950603148
0.274559453643036
0.283392193572367
0.292323096005932
0.301337526344968
0.310421320788833
0.319560817259418
0.328742878688778
0.337954917020715
0.347184913852547
0.356421434575624
0.365653635648231
0.374871266033499
0.384064666029647
0.393224758241039
0.402343034358164
0.411411536696311
0.420422836407646
0.429370004658614
0.438246581320111
0.447046534362347
0.455764216887499
0.464394318323059
0.472931806053827
0.481371888987095
0.489709965669469
0.497941629761708
0.506062654334868
0.514068970812572
0.521956669362665
0.529721946209058
0.537361174807744
0.544870819220708
0.552247754216021
0.559488969334695
0.566592654382033
0.573556876199759
0.58038308609383
0.587070700446885
0.593628562141361
0.600054746819195
0.606375398686891
0.612570287052396
0.618719097541372
0.624693650814901
0.63068926608889
0.636383166350419
0.640571000717321
0.644335589062636
0.648683453855824
0.653753196006844
0.659992662801812
0.667281332424263
0.6752276672612
0.683341265793195
0.690516090904109
0.696045263525621
0.698831342455626
0.698505256369928
0.693019477616129
0.681281052841398
0.655662822681063
0.607151518397565
0.514711880376099
0.339769374772833
0.00428693778147365
-0.358988877210866
-0.197404530529586
0.000641231189062965
-0.036314540393781
0.0033826723710728
0.0691728703210085
0.0883675858579754
0.096325524947731
0.10028532873425
0.103096329781488
0.104905062854163
0.106771508042384
0.108417678026821
0.110193573705094
0.112085552576519
0.114219906498826
0.116466360476415
0.118699951430571
0.120753640358355
0.122360011377754
0.123581900555955
0.124380456900308
0.125516708345899
0.12667671973273
0.1288667729518
0.130245007801676
0.131360163883669
0.132050448620585
0.132632412576996
0.133224787230936
0.134043393981235
0.135180764054057
0.136724232070536
0.138704462758459
0.141141627926615
0.144034951574969
0.147378793495179
0.15116048607497
0.15536547585065
0.159976890140362
0.164977221570674
0.170348324321841
0.17607196428689
0.182129906006561
0.188504079707128
0.195176612276733
0.202129825902003
0.209346100947419
0.216807885569517
0.224497809472986
0.232398709402805
0.240493611164544
0.248765737608523
0.257198615549268
0.265776092647422
0.274482367115925
0.283302007028433
0.292219988578299
0.301221723426814
0.310293089718115
0.319420463361194
0.328590741085132
0.337791364499636
0.347010341035892
0.356236258383327
0.365458291954772
0.374666206430496
0.383850355006617
0.393001670650764
0.402111653234455
0.411172351485447
0.420176341892306
0.429116700647338
0.437986973624748
0.446781137062374
0.455493556294054
0.464118938526025
0.472652274553037
0.481088803019701
0.489423956494874
0.497653369177894
0.50577286406954
0.513778434930991
0.521666252205295
0.52943261049975
0.537074006602204
0.544587043239785
0.551968761770883
0.559216303475832
0.56632803474274
0.573302073765466
0.580139955199105
0.586840721042464
0.593413006043759
0.599853242616496
0.606186924127597
0.612389051411193
0.618537455962033
0.624501144073379
0.630450982167389
0.636053397162356
0.640361362598799
0.644182658084248
0.64860418921368
0.653723684168327
0.659988785031123
0.667247684288334
0.675110324179104
0.683082237129495
0.690076064452789
0.695409786685154
0.697992549246022
0.697424933739425
0.691628882434104
0.679393116384429
0.652992937331676
0.603311352489081
0.509251047659343
0.332834270904703
0.00257971955198402
-0.346577962860786
-0.191010294264115
0.00128185965518133
-0.0335391836184381
0.0035308266029923
0.0680396445352185
0.0878670512748543
0.0961622652873306
0.100220583540632
0.103080751916653
0.104916860564404
0.10679369761127
0.108446780429418
0.110216556176227
0.112091774569846
0.114197306304887
0.116414143555656
0.118626192221293
0.120683287874826
0.122328239353596
0.123617926377379
0.124494875168361
0.125706190923143
0.126806600449512
0.128958381225627
0.130295227052115
0.131371276225626
0.132037372868697
0.132619827933658
0.133228395434484
0.134070436937623
0.135231057801197
0.136794631332737
0.138790355089526
0.141238514689227
0.144138705077332
0.147485934430855
0.151268081177063
0.15547109779743
0.160078500597431
0.165073105650546
0.170437021566141
0.176152223400838
0.182200650254628
0.188564384384135
0.195225691829656
0.20216702689672
0.209370873104023
0.216819768702584
0.224496442850189
0.232383832870171
0.240465040392286
0.248723359305973
0.257142384613332
0.265706027051354
0.274398545525332
0.283204565069976
0.292109114308211
0.301097652837426
0.310156102232835
0.31927087775585
0.328428911134728
0.337617674718679
0.346825202754195
0.356040106129246
0.365251580034482
0.374449405619199
0.383623949697537
0.392766156286994
0.401867534108661
0.410920138966073
0.419916553361631
0.428849859198843
0.437713609078963
0.446501788251862
0.455208775116768
0.463829295613603
0.472358365024523
0.480791253057792
0.489123427601949
0.497350564939259
0.50546853952338
0.51347340878643
0.521361424530576
0.529128980054534
0.536772694924016
0.544289308181852
0.551676023746594
0.558930127068274
0.566050152092921
0.573034253631787
0.57988404033187
0.586598163826116
0.593185071548351
0.599639572383071
0.605986632970335
0.612196691778809
0.618345809161036
0.624299981910281
0.630209770760031
0.635718670570103
0.640148291783438
0.644019772284892
0.648514785833813
0.653678894916644
0.659961862078097
0.66717941061004
0.674945026941934
0.682761332148757
0.689559449964112
0.69468230233017
0.697043280728141
0.696210783921999
0.690071213028978
0.677290905724736
0.650044682601271
0.599114772620684
0.503370002715835
0.32556753794409
0.000956796038702127
-0.333923206318899
-0.184368193162872
0.00204596351318903
-0.0304946820386341
0.00396050317510306
0.0669192497544447
0.0873026510001171
0.0959797989167821
0.10015271338892
0.103064488581646
0.104929242775272
0.106817067338714
0.108477299616368
0.110240204601306
0.112096779905251
0.114170680730758
0.116355466450268
0.118545068488855
0.120606742947079
0.122293749978057
0.12365557363168
0.124616683665058
0.125903914681263
0.126936934091052
0.129040204161405
0.130326387648742
0.131361437556872
0.132006745342689
0.132594468712104
0.133222935990905
0.134090961893959
0.135276634321123
0.136861636278931
0.138873855121925
0.141333766618173
0.14424138432742
0.147592396973695
0.151375254382313
0.155576435699157
0.160179863089694
0.165168690683542
0.170525293952681
0.176231867689773
0.18227053503478
0.188623538776879
0.195273292632583
0.202202391515143
0.209393414126359
0.216828999880005
0.224491992243404
0.232365427575234
0.240432486533913
0.248676537524592
0.257081246476241
0.265630589434043
0.274308888185002
0.283100826708267
0.291991487876001
0.300966380878834
0.310011472207275
0.319113217860257
0.328258585800763
0.337435080242109
0.346630763301909
0.355834270060137
0.365034816414757
0.374222200854075
0.383386804663277
0.392519583738135
0.401612056464885
0.410656286536462
0.419644863296159
0.428570875184049
0.437427882374573
0.446209879959254
0.45491126027582
0.463526768922751
0.472051446631313
0.480480595307402
0.488809719147917
0.497034537704968
0.50515097793725
0.513155161636477
0.521043422178889
0.528812250702924
0.536458387474471
0.543978703666079
0.551370559437002
0.558631374502678
0.565759838589589
0.57275412669324
0.579615910046063
0.586343435936925
0.592944984645711
0.599413770874918
0.605774347191332
0.611992792095029
0.618143495315334
0.62408904214105
0.629964429452847
0.635378735116447
0.639932015765349
0.643847045784514
0.648415063708337
0.653618367580099
0.659911496667445
0.667076392108384
0.674732405146433
0.682379868279991
0.688968228964914
0.693864918068642
0.695985281334208
0.694863802119435
0.68834647620247
0.674974005835815
0.646818394348913
0.594566643102395
0.497085291669676
0.31802148109228
-0.000537268302803927
-0.321032143427234
-0.177526752475471
0.00289118535061734
-0.0272124369608411
0.00468931725429267
0.0658257111843829
0.086691502590257
0.0957699061437557
0.100080805990396
0.103047677999504
0.104942513217043
0.106841933784009
0.108509510794081
0.110264768307826
0.112101157454525
0.114141488226892
0.116292846902731
0.118459776093695
0.120526836620266
0.122257669893291
0.123693158053906
0.124740400418505
0.126099336495297
0.127061975206031
0.129108595860723
0.130336159257981
0.13133024320589
0.131959127284061
0.132556628892282
0.133208179255442
0.134104369161071
0.135316685978807
0.13692434350992
0.138954040509261
0.141426489998103
0.144342155298706
0.147697425112355
0.151481338653426
0.155680917020484
0.160280501921419
0.165263598010492
0.170612858872789
0.176310708826033
0.182339464160552
0.188681536486352
0.195319495695598
0.202236083623262
0.209413968706555
0.216835902088149
0.224484858159993
0.232343967225257
0.240396493614487
0.248625883360789
0.257015875942335
0.265550514917152
0.274214187119355
0.282991637406038
0.291868004660367
0.300828849280394
0.309860184130398
0.318948507329958
0.328080824323247
0.337244672340851
0.346428142480523
0.355619895080457
0.364809167761324
0.373985777317903
0.383140120472515
0.392263165950027