/*--------------------------------*- C++ -*----------------------------------*\
  =========                 |
  \\      /  F ield         | OpenFOAM: The Open Source CFD Toolbox
   \\    /   O peration     | Website:  https://openfoam.org
    \\  /    A nd           | Version:  7
     \\/     M anipulation  |
\*---------------------------------------------------------------------------*/
FoamFile
{
    version     2.0;
    format      ascii;
    class       surfaceScalarField;
    location    "20000";
    object      phi;
}
// * * * * * * * * * * * * * * * * * * * * * * * * * * * * * * * * * * * * * //

dimensions      [0 3 -1 0 0 0 0];

internalField   nonuniform List<scalar> 
30950
(
6.61245913221679e-06
-2.71708041260549e-06
-9.71322551584333e-07
7.58365832926493e-06
-6.3659719555109e-06
5.39457527965645e-06
-3.51388804322698e-06
-2.8520774220299e-06
-1.64145629007372e-06
-1.87243234402554e-06
-1.22836813714816e-06
-4.1308312133607e-07
-1.10373952640194e-06
-1.24631466499484e-07
-1.13289029478872e-06
2.91470842783096e-08
-1.3815771497583e-06
2.48684645394492e-07
-1.72529997379245e-06
3.43722512943072e-07
-2.23148383670542e-06
5.0618539430285e-07
-2.81863978044536e-06
5.87158341173471e-07
-3.36578896044807e-06
5.47150980593972e-07
-3.6542050101784e-06
2.88416751643018e-07
-3.51070130544918e-06
-1.43503658014449e-07
-2.69739052157087e-06
-8.13310631007201e-07
-1.02452967875742e-06
-1.67286025117675e-06
1.38575560421982e-06
-2.41028441653805e-06
4.10178105160788e-06
-2.71602466760192e-06
5.97259909143454e-06
-1.87081753809692e-06
6.39765137828817e-06
-4.25051988560282e-07
4.85739432433164e-06
1.54025731408191e-06
4.13890333196079e-06
7.18491606945758e-07
2.83341392531625e-06
1.30549039288776e-06
6.12932184639704e-07
2.22048287289709e-06
-2.64190913076533e-06
3.25484232857948e-06
-6.64992749683559e-06
4.0080191876972e-06
-1.11259627912544e-05
4.47603607846164e-06
-1.57241177464552e-05
4.59815591191552e-06
-2.02227041962208e-05
4.4985876701554e-06
-2.44793366366119e-05
4.25663384545435e-06
-2.84384800009743e-05
3.95914477474043e-06
-3.20839251033935e-05
3.64544634858826e-06
-3.54254522101806e-05
3.34152809958968e-06
-3.84800926066807e-05
3.0546411286988e-06
-4.12680660342514e-05
2.78797393324619e-06
-4.38083074777644e-05
2.54024175836948e-06
-4.61182904070647e-05
2.30998307540669e-06
-4.82133825840387e-05
2.09509216876649e-06
-5.01072077201505e-05
1.893824993145e-06
-5.18117338508543e-05
1.70452588516621e-06
-5.3337507320024e-05
1.52577316270135e-06
-5.4693797597273e-05
1.35628994947464e-06
-5.58887623785278e-05
1.19496445796544e-06
-5.69296430887364e-05
1.0408803982869e-06
-5.78230847417907e-05
8.93441343029252e-07
-5.85753157371306e-05
7.52230668853642e-07
-5.91922338316946e-05
6.16917732768505e-07
-5.96794693675261e-05
4.87235125853855e-07
-6.00424627293525e-05
3.62992899935981e-07
-6.0286559034064e-05
2.44095797028694e-07
-6.04170637496489e-05
1.30504177767879e-07
-6.04391639924788e-05
2.20996975200809e-08
-6.03578844941124e-05
-8.12800251368832e-08
-6.01782564767712e-05
-1.79628498643801e-07
-5.99053108707719e-05
-2.72946016563018e-07
-5.95440399906842e-05
-3.61271197996752e-07
-5.90993936574847e-05
-4.4464654099729e-07
-5.85762722396722e-05
-5.23121502742841e-07
-5.79795210481025e-05
-5.96751145228492e-07
-5.73139175827558e-05
-6.65603283222238e-07
-5.65841540744844e-05
-7.29763189168751e-07
-5.57948207220206e-05
-7.89332898228591e-07
-5.49503910330814e-05
-8.44429104422863e-07
-5.40552082019134e-05
-8.95182124531547e-07
-5.31134688662818e-05
-9.41738518533801e-07
-5.21292099648807e-05
-9.84257989141477e-07
-5.11062957561743e-05
-1.02291322005607e-06
-5.00484051351575e-05
-1.05788957789692e-06
-4.89590182115661e-05
-1.08938585018556e-06
-4.78414073427458e-05
-1.11760979064714e-06
-4.66986310202756e-05
-1.14277526516661e-06
-4.55335419532205e-05
-1.16508805508428e-06
-4.43488078388724e-05
-1.18473316967662e-06
-4.3146953624169e-05
-1.2018533555328e-06
-4.19304298496786e-05
-1.2165230141765e-06
-4.07016679817412e-05
-1.22876121404522e-06
-3.94631518780774e-05
-1.23851555752014e-06
-3.82174253886652e-05
-1.24572604632015e-06
-3.69671345489254e-05
-1.25029048988774e-06
-3.57151194627595e-05
-1.25201481605118e-06
-3.44645429961017e-05
-1.25057626083975e-06
-3.32191644525758e-05
-1.24537838667921e-06
-3.19836006713378e-05
-1.23556366013467e-06
-3.07638837287836e-05
-1.21971684743551e-06
-2.95677671207587e-05
-1.19611653301378e-06
-2.84058193681986e-05
-1.16194769515335e-06
-2.7291242557168e-05
-1.11457677030235e-06
-2.62422051369115e-05
-1.04903739510619e-06
-2.52790602797567e-05
-9.63144844263277e-07
-2.44303235517409e-05
-8.48736721379698e-07
-2.37200642199081e-05
-7.10259323258584e-07
-2.31853458134438e-05
-5.3471838712982e-07
-2.28253546473049e-05
-3.59991128023384e-07
-2.26424045180871e-05
-1.82950066159335e-07
-2.24008410543937e-05
-2.41563371829858e-07
-2.17301067246762e-05
-6.70734208231017e-07
-1.8631013828894e-05
-3.09909275039871e-06
-1.31754230612743e-05
-5.45559058751357e-06
-1.16520626311741e-05
-1.52336019419163e-06
-1.2191765346648e-05
5.3970300539061e-07
-1.24357398787448e-05
2.43974839048579e-07
-1.22258409214622e-05
-2.09898658192526e-07
-1.1360017740575e-05
-8.65822887792594e-07
-9.74777217171444e-06
-1.61224528116165e-06
-7.50885537331385e-06
-2.23891655198226e-06
-4.66936286427126e-06
-2.83949235061223e-06
-1.60038802938956e-06
-3.06897484566583e-06
1.37515367380676e-06
-2.97554181742269e-06
3.85901829164217e-06
-2.48386458955405e-06
5.90480453761976e-06
-2.04578598168923e-06
7.40609641772177e-06
-1.50129128572363e-06
9.02776433960817e-06
-1.62166844593436e-06
1.09978241719001e-05
-1.97006292068027e-06
1.40451272041148e-05
-3.04730497681511e-06
2.01664897602353e-05
-6.12136006683323e-06
3.50412306923755e-05
-1.48747438474604e-05
4.72035097630143e-05
-1.21622668200489e-05
2.2833146046079e-05
2.43704233540499e-05
1.89366844612988e-05
2.19093350623411e-05
-1.00972337813778e-06
-3.92249356625116e-07
2.98851315024742e-05
-1.71942660008487e-05
2.21965658939113e-05
-1.05842562028437e-05
-9.46208569678023e-06
-5.08193355768319e-06
-7.37475720659663e-06
-3.80168273949406e-06
-1.69332868667013e-06
-3.43471276407555e-06
-4.91601711341659e-07
-3.57994452955183e-06
1.74377871369385e-07
-4.33140292851823e-06
1.00014151034241e-06
-5.42764525684534e-06
1.43996308413752e-06
-6.95391813136011e-06
2.03245705273117e-06
-8.71940439924332e-06
2.35264430008382e-06
-1.03365752888231e-05
2.16432217919902e-06
-1.12546201631806e-05
1.20646202117071e-06
-1.1003466640181e-05
-3.94657038019257e-07
-8.99028884067394e-06
-2.82648842364831e-06
-4.72936923219579e-06
-5.93377970045062e-06
1.64878107714255e-06
-8.78843422220002e-06
9.10854609293511e-06
-1.01757888029813e-05
1.49847726645072e-05
-7.74704285702133e-06
1.6749577961604e-05
-2.18985568524158e-06
1.27556887443812e-05
5.53414848868693e-06
9.25759066762013e-06
4.21659203403152e-06
4.08044209486667e-06
6.48264160602405e-06
-4.02063462544528e-06
1.03215623410298e-05
-1.49188447609275e-05
1.41530551210873e-05
-2.77029673544638e-05
1.67921442872865e-05
-4.13618932466053e-05
1.81349644088844e-05
-5.49668811132434e-05
1.82031462443249e-05
-6.79460033823659e-05
1.74777124260186e-05
-8.00025290532845e-05
1.63131619022387e-05
-9.10502243941506e-05
1.50068422366158e-05
-0.000101102585121028
1.36978088129029e-05
-0.000110222098937512
1.24610432356142e-05
-0.000118481960970951
1.13145040946599e-05
-0.000125954457571511
1.02604711324024e-05
-0.000132704093444051
9.28987794037497e-06
-0.000138787551340428
8.39344102289753e-06
-0.000144253785834642
7.56132648205823e-06
-0.000149145308680313
6.78534745823186e-06
-0.000153499067179845
6.05828384570011e-06
-0.000157347312724472
5.37401805363987e-06
-0.000160718282330523
4.72725882318487e-06
-0.000163636849009121
4.11353034725082e-06
-0.000166125219171338
3.52924972190489e-06
-0.000168203744265822
2.97196554935118e-06
-0.000169891400336836
2.43988580210888e-06
-0.000171206028597265
1.93154501296353e-06
-0.000172164521434353
1.44572695785626e-06
-0.000172783051835993
9.81522299670064e-07
-0.000173077372305819
5.38415305824686e-07
-0.000173063141341678
1.16272337988633e-07
-0.000172755514899469
-2.8552748734922e-07
-0.000172169135298463
-6.67660189379581e-07
-0.000171318636321886
-1.03012781744871e-06
-0.000170218462146345
-1.37312027771629e-06
-0.000168882817798139
-1.69691534755108e-06
-0.000167325689757002
-2.00177408038555e-06
-0.000165560836015584
-2.28797442951412e-06
-0.00016360177391528
-2.55581211690853e-06
-0.000161461753146806
-2.80562261625337e-06
-0.000159153719488488
-3.03779512019331e-06
-0.000156690280763936
-3.25276962606348e-06
-0.000154083676870504
-3.45103076123443e-06
-0.000151345751313518
-3.63310524123794e-06
-0.000148487919285882
-3.79956794454576e-06
-0.000145521141493203
-3.95103306620213e-06
-0.000142455899187931
-4.08815274675254e-06
-0.000139302170381283
-4.21161559600924e-06
-0.000136069407576646
-4.32214590929035e-06
-0.000132766527637279
-4.42048707818675e-06
-0.0001294019155621
-4.50738482876826e-06
-0.000125983463705443
-4.58353758074425e-06
-0.000122518648818824
-4.649545938358e-06
-0.000119014660087476
-4.70584020550254e-06
-0.000115478576964344
-4.75260450602288e-06
-0.000111917524756825
-4.78981204349468e-06
-0.000108338840059592
-4.81719912281456e-06
-0.000104750136547634
-4.83442865626783e-06
-0.000101159453279584
-4.84097306223482e-06
-9.75755364617284e-05
-4.83593111551803e-06
-9.40082476114432e-05
-4.81786473830195e-06
-9.04692785473255e-05
-4.78434719168401e-06
-8.69729370427611e-05
-4.73190499011829e-06
-8.35374784866924e-05
-4.65517528876932e-06
-8.01861412748512e-05
-4.547453671089e-06
-7.69494341008943e-05
-4.39865482316601e-06
-7.38654649360347e-05
-4.19854590827793e-06
-7.09839115081747e-05
-3.930590808864e-06
-6.8361777730085e-05
-3.58527861504862e-06
-6.60714842640561e-05
-3.1390301798624e-06
-6.417880269754e-05
-2.60294087346615e-06
-6.27627814524131e-05
-1.95073959809472e-06
-6.18187952991169e-05
-1.30397722046937e-06
-6.12921185337202e-05
-7.09626736842467e-07
-6.05801023853826e-05
-9.53579386988143e-07
-5.82911541860136e-05
-2.95968223327575e-06
-5.06324598646916e-05
-1.07577868631823e-05
-3.8982051124335e-05
-1.71059990830843e-05
-3.52188761461505e-05
-5.2865348895712e-06
-3.58524741646841e-05
1.17330132114729e-06
-3.55226622314356e-05
-8.58368207889394e-08
-3.37675610359551e-05
-1.9649996225388e-06
-3.03131717263157e-05
-4.3202120096896e-06
-2.51058947520968e-05
-6.81952211051388e-06
-1.84299664660924e-05
-8.91484474394707e-06
-1.04815614884593e-05
-1.07878972808178e-05
-2.10115100133182e-06
-1.14493853213923e-05
5.86283617472376e-06
-1.09395289662263e-05
1.25612955119495e-05
-9.18232375527357e-06
1.79897933070348e-05
-7.47428354994141e-06
2.20905645502887e-05
-5.60206232277171e-06
2.63459955035368e-05
-5.87709979981131e-06
3.16011244218421e-05
-7.225193598739e-06
3.97686146706957e-05
-1.12147951972435e-05
5.61769895568054e-05
-2.25297308471202e-05
9.44856440537278e-05
-5.31834003814698e-05
0.000128263227021369
-4.59398555545315e-05
7.65447976374583e-05
7.60888969765294e-05
7.18646399757452e-05
4.18487662704362e-05
1.25971869161123e-05
2.58124623158547e-06
6.91525611325883e-05
-2.71947352662886e-05
5.19725593977065e-05
-1.82167323270624e-05
-1.84400885467649e-05
-8.96594618719979e-06
-1.66255469002561e-05
-6.66957604851179e-06
-3.98969468972556e-06
-6.01596764808018e-06
-1.1452093558692e-06
-6.28495090794643e-06
4.43361703022458e-07
-7.55491231398518e-06
2.2701021567089e-06
-9.46082650507338e-06
3.3458753683447e-06
-1.20527753928322e-05
4.62440375823822e-06
-1.50435284753701e-05
5.34339584351498e-06
-1.77660542461928e-05
4.88684743144747e-06
-1.93777130039775e-05
2.81812096004523e-06
-1.91479807035683e-05
-6.24389059024778e-07
-1.62197912523417e-05
-5.75467772855386e-06
-9.90789809898906e-06
-1.22456726753256e-05
-3.13956223308157e-07
-1.83823755984602e-05
1.11396321100043e-05
-2.1629376130058e-05
2.08530920389197e-05
-1.74605011754588e-05
2.4308565947836e-05
-5.64532740514996e-06
1.80787660662263e-05
1.1763951120247e-05
1.05437822989896e-05
1.17515789791668e-05
-1.5910746487365e-07
1.71855347959384e-05
-1.58628775422165e-05
2.60253358729997e-05
-3.58046775078632e-05
3.40948583866884e-05
-5.82370080417723e-05
3.92244779543073e-05
-8.13373495348518e-05
4.12353089667021e-05
-0.00010369546627211
4.05612660328261e-05
-0.000124530480144048
3.8312729264106e-05
-0.000143530537484435
3.53132219525553e-05
-0.00016067587236025
3.21521793988004e-05
-0.000176074317433463
2.90962556681872e-05
-0.000189879179972086
2.62659070683954e-05
-0.000202243243747258
2.36785687455096e-05
-0.000213304925179741
2.13221530957566e-05
-0.000223183523381443
1.91684763830198e-05
-0.000231981092459993
1.71910100911522e-05
-0.000239784638344149
1.53648721393487e-05
-0.000246668877218654
1.36695859275446e-05
-0.000252698340245533
1.2087746329175e-05
-0.000257929126695868
1.06048038566721e-05
-0.000262410326791625
9.20845818934859e-06
-0.000266185289399583
7.88849215098626e-06
-0.000269292851414038
6.6368108559403e-06
-0.000271768531972567
5.44764514828223e-06
-0.00027364524695483
4.31659974909783e-06
-0.000274953672492951
3.23996945490698e-06
-0.000275722499837776
2.21455317232975e-06
-0.000275978754573609
1.23777590869689e-06
-0.000275748245005679
3.07904661734742e-07
-0.000275056693339294
-5.75280301941366e-07
-0.000273930268335405
-1.41195331103376e-06
-0.000272394186041756
-2.20374310027841e-06
-0.000270472277589843
-2.95203663948032e-06
-0.000268187597464572
-3.65780048826915e-06
-0.000265562600803942
-4.32191177904224e-06
-0.000262619170611962
-4.94520370799909e-06
-0.00025937862410118
-5.52852002904124e-06
-0.000255861711487436
-6.07272347010333e-06
-0.000252088596891518
-6.57873560904761e-06
-0.000248078829225053
-7.04756085667871e-06
-0.000243851316341103
-7.48028027776815e-06
-0.000239424303203767
-7.87804139713551e-06
-0.000234815350948636
-8.24205476683479e-06
-0.000230041313159983
-8.57360282361906e-06
-0.000225118318424028
-8.87402476630203e-06
-0.000220061754881932
-9.14471318444731e-06
-0.00021488625741457
-9.38710994992694e-06
-0.000209605700559664
-9.60269970071678e-06
-0.000204233210618271
-9.79297406217801e-06
-0.000198781203450881
-9.95938919580763e-06
-0.000193261472367502
-1.01032660646332e-05
-0.000187685331709519
-1.022568423275e-05
-0.000182063825781789
-1.03273440304903e-05
-0.000176407990938867
-1.0408437521257e-05
-0.000170729092629726
-1.04687088030536e-05
-0.000165038860844921
-1.05074296284544e-05
-0.000159349644591812
-1.05236438832287e-05
-0.000153674692301773
-1.05159245538312e-05
-0.00014802862879133
-1.04819940242381e-05
-0.000142428136294867
-1.04183567955647e-05
-0.00013689301718984
-1.03194659856296e-05
-0.00013144742471364
-1.01774972512284e-05
-0.000126121693952419
-9.98090590360367e-06
-0.000120953985685013
-9.7151618395193e-06
-0.00011599309735721
-9.35954308426823e-06
-0.000111299389404721
-8.89225381640392e-06
-0.000106948707193011
-8.28127299160121e-06
-0.000103027981299153
-7.5060044892938e-06
-9.96406295602034e-05
-6.52638190135173e-06
-9.68808500922864e-05
-5.36272031707364e-06
-9.4841277967087e-05
-3.99031168158488e-06
-9.34963050001893e-05
-2.64895011743952e-06
-9.26922448209882e-05
-1.5136868083232e-06
-9.15326388824771e-05
-2.11318517321601e-06
-8.79015507700716e-05
-6.59077014488028e-06
-7.77443740270168e-05
-2.09149633596939e-05
-6.36117896004705e-05
-3.12385832179228e-05
-5.84881961232352e-05
-1.04101280342021e-05
-5.83685016674954e-05
1.0536071843548e-06
-5.66555393889943e-05
-1.79879883418101e-06
-5.26939041016137e-05
-5.92663471101687e-06
-4.62317800830553e-05
-1.07823358910149e-05
-3.72973483092865e-05
-1.57539537989153e-05
-2.62726920734125e-05
-1.99395009288646e-05
-1.35439308862805e-05
-2.35166584161585e-05
-2.9993159586745e-07
-2.46933845108836e-05
1.21703043208307e-05
-2.34097647134549e-05
2.27375969627097e-05
-1.9749616153559e-05
3.12932594991046e-05
-1.60299459012683e-05
3.79342874723298e-05
-1.22430902846058e-05
4.47657821694923e-05
-1.27085946868391e-05
5.32996002339583e-05
-1.57590123546651e-05
6.65097710860876e-05
-2.44249649423153e-05
9.24950338551433e-05
-4.85149901924333e-05
0.00014980054004312
-0.000110488909716244
0.000202311800774576
-9.84511256264401e-05
0.000137194299678966
0.000141206445200224
0.000153603101613688
6.81251711168424e-05
4.27281079492424e-05
8.44609584817263e-06
0.000128831576718224
-3.60828526744994e-05
9.65015495124197e-05
-2.6179677953858e-05
-2.83432622236963e-05
-1.32788703226046e-05
-2.95263585076711e-05
-9.82930845610807e-06
-7.43925392858207e-06
-8.85870334168643e-06
-2.11581366254422e-06
-9.2587745392383e-06
8.43433970477032e-07
-1.10799159639311e-05
4.09124324946548e-06
-1.38468131140207e-05
6.11277091783944e-06
-1.75556417122577e-05
8.33323018300647e-06
-2.18077660560848e-05
9.59551840214268e-06
-2.56691934653418e-05
8.74827403154322e-06
-2.8039528530147e-05
5.18845607228762e-06
-2.79913953698684e-05
-6.72521884868459e-07
-2.45040690564911e-05
-9.24200374720277e-06
-1.67858762293276e-05
-1.99638651799738e-05
-4.92596755882901e-06
-3.02422836597609e-05
9.55762018758217e-06
-3.61129627591553e-05
2.26885924560625e-05
-3.05914716747341e-05
2.82223930070711e-05
-1.11791255555687e-05
1.97677516693268e-05
2.02185954796043e-05
6.87848252189632e-06
2.46408516064364e-05
-1.12491575780238e-05
3.53131785867066e-05
-3.62388751333622e-05
5.10150570044831e-05
-6.62694281206279e-05
6.41254146685581e-05
-9.85049659005711e-05
7.14600188193093e-05
-0.000130350284867999
7.3080630963476e-05
-0.000160107678762939
7.03186629517153e-05
-0.000187022382404182
6.52274358043041e-05
-0.000210953598167613
5.9244440282829e-05
-0.000232075008644903
5.32735919531059e-05
-0.000250666295672929
4.76875442442694e-05
-0.000267018175898899
4.26177883712956e-05
-0.000281391110913354
3.80515044589056e-05
-0.000294007506285205
3.39385488700848e-05
-0.000305053331159434
3.02143014192204e-05
-0.00031468428291397
2.68219618059522e-05
-0.000323031293435254
2.37118824530103e-05
-0.000330205484078699
2.08437762292589e-05
-0.000336301933452175
1.81841952577231e-05
-0.00034140264347496
1.57055133539161e-05
-0.000345578929621683
1.33847437413064e-05
-0.000348893443784987
1.12030056522417e-05
-0.000351401970353669
9.14533669283382e-06
-0.000353154969706937
7.20064369925826e-06
-0.000354198526508622
5.36015568411148e-06
-0.000354574869095972
3.61631112670883e-06
-0.000354322669760263
1.96235289697332e-06
-0.000353477463098152
3.9256831628558e-07
-0.00035207563567715
-1.09392364158204e-06
-0.000350153832488577
-2.49708428501462e-06
-0.000347745102704946
-3.82068376163096e-06
-0.000344880123575582
-5.06872273183029e-06
-0.000341588131925213
-6.24402859369982e-06
-0.000337897169604791
-7.34876288566112e-06
-0.000333834213731863
-8.38486747954306e-06
-0.000329425251906157
-9.35416509609181e-06
-0.000324695331804766
-1.02584394189529e-05
-0.000319668597287106
-1.10994570009925e-05
-0.00031436830368279
-1.18790279571614e-05
-0.000308816822027457
-1.25990409994451e-05
-0.000303035644523534
-1.32614560328124e-05
-0.000297045391022962
-1.38682929392124e-05
-0.000290865813582762
-1.44216300716172e-05
-0.000284515797832815
-1.49236162991295e-05
-0.000278013369296801
-1.53764509308435e-05
-0.000271375701477651
-1.57823785797777e-05
-0.00026461912779353
-1.61436812036563e-05
-0.000257759163257885
-1.64626618445592e-05
-0.000250810549957044
-1.67415850526105e-05
-0.000243787336375604
-1.69826005870376e-05
-0.000236703012894808
-1.71875875087946e-05
-0.0002295707095618
-1.73579857094679e-05
-0.0002224034609814
-1.74945909542273e-05
-0.000215214516729133
-1.75973803277556e-05
-0.000208017631644755
-1.76655926554881e-05
-0.000200827351851392
-1.76977083984983e-05
-0.000193659262673917
-1.76917322334422e-05
-0.000186530399634768
-1.76447869430162e-05
-0.000179459890538663
-1.75525026243223e-05
-0.000172469851454705
-1.74083955114937e-05
-0.000165586671440218
-1.72026457336429e-05
-0.000158842541789475
-1.6921626712329e-05
-0.00015227751409241
-1.65459334665763e-05
-0.000145941533623381
-1.60511422134142e-05
-0.000139897249739209
-1.54038269006097e-05
-0.000134221402921403
-1.45681005860727e-05
-0.000129007623808676
-1.34950520708341e-05
-0.000124362414049055
-1.21512142255384e-05
-0.00012040512985575
-1.04836660758237e-05
-0.000117241769058244
-8.52608109269087e-06
-0.00011495283274319
-6.27924796213378e-06
-0.000113476981152567
-4.12480165048008e-06
-0.000112546733683504
-2.44393418669489e-06
-0.000111165754992649
-3.49416373272471e-06
-0.000107141933807495
-1.0614591154346e-05
-9.71206196333113e-05
-3.09362773115244e-05
-8.40320145508788e-05
-4.4327188032183e-05
-7.86642812988742e-05
-1.57778609718521e-05
-7.7147854992086e-05
-4.62818828098875e-07
-7.3400808022849e-05
-5.54584557117416e-06
-6.68311364276817e-05
-1.24963061414352e-05
-5.72630770646496e-05
-2.03503951488812e-05
-4.48234715259616e-05
-2.81935592760946e-05
-2.99445802294337e-05
-3.481839217613e-05
-1.31551805500873e-05
-4.0306058012193e-05
4.13603554902126e-06
-4.19846004389368e-05
2.0365457619259e-05
-3.96391865340697e-05
3.42498842038551e-05
-3.36340424982764e-05
4.55795278187967e-05
-2.73595893867224e-05
5.45728027354048e-05
-2.12363652645859e-05
6.38225590765584e-05
-2.19583509906334e-05
7.54458622683516e-05
-2.73823155073723e-05
9.33500617287074e-05
-4.23291629958038e-05
0.000127612489150551
-8.27774158485872e-05
0.000199261440692562
-0.000182137866436981
0.000268297848073412
-0.000167487532441578
0.00020100686532151
0.000208497494179231
0.00025635372323072
0.000101029293600514
9.11415895006978e-05
1.79074685746504e-05
0.000211953368365069
-4.34612377158218e-05
0.000157870319283404
-3.43572766481499e-05
-3.7447220693747e-05
-1.8020430508932e-05
-4.5863208104789e-05
-1.32915393032237e-05
-1.21681434261751e-05
-1.19755936072199e-05
-3.43175864330913e-06
-1.25182138738043e-05
1.38605526575085e-06
-1.49263949370199e-05
6.49942392163874e-06
-1.86065668785382e-05
9.79294126081813e-06
-2.3479698649984e-05
1.32063597945873e-05
-2.90189827051611e-05
1.51348006474611e-05
-3.40401707869572e-05
1.37694612292445e-05
-3.72280885606291e-05
8.37637381628059e-06
-3.75314577459019e-05
-3.69152386756926e-07
-3.38743375830429e-05
-1.28991235749516e-05
-2.54622815907455e-05
-2.83759207877315e-05
-1.24081921710801e-05
-4.32963724092295e-05
3.90838886123464e-06
-5.24295425753429e-05
1.97252492093813e-05
-4.64083300839455e-05
2.75103112002796e-05
-1.89641849182923e-05
1.66877773906099e-05
3.10411325603645e-05
-3.05755897021067e-06
4.43861917000976e-05
-3.03686544241762e-05
6.26242778770573e-05
-6.56337712983747e-05
8.6280177429469e-05
-0.000105474676758189
0.000103966323267558
-0.00014588230369944
0.000111867648626617
-0.000183802320874349
0.000111000650912915
-0.000217698751014597
0.000104215095813183
-0.000247233539877348
9.4762227203131e-05
-0.000272692708168267
8.47036107433204e-05
-0.000294581585723415
7.51624712060049e-05
-0.000313413325581054
6.65192853322511e-05
-0.000329635358055613
5.88398216833631e-05
-0.000343613943984227
5.20300909215764e-05
-0.000355643725067794
4.59683302555387e-05
-0.000365961361062897
4.05319375313553e-05
-0.00037475874397607
3.56193446833436e-05
-0.000382193172364018
3.1146310678581e-05
-0.000388395199064913
2.70458026651904e-05
-0.000393474409690801
2.32634055366449e-05
-0.000397523768666534
1.97548719156496e-05
-0.000400623014489469
1.6483989092218e-05
-0.00040284139307966
1.34213837173437e-05
-0.000404239935401503
1.05438784403579e-05
-0.000404873271085535
7.83397876526945e-06
-0.000404790772308434
5.27765625482296e-06
-0.000404037268651741
2.86280679818465e-06
-0.000402653791257211
5.78874830551378e-07
-0.000400681081582281
-1.58014200706895e-06
-0.000398158462958849
-3.61654286489268e-06
-0.000395120656132404
-5.53489163739443e-06
-0.000391599970704576
-7.34136961698424e-06
-0.000387627377451489
-9.04131629134008e-06
-0.000383232517296829
-1.0638888913611e-05
-0.000378443779318802
-1.21375008710792e-05
-0.000373288428218129
-1.35402184170843e-05
-0.000367792691272326
-1.48499017001212e-05
-0.000361981818805653
-1.60693113619216e-05
-0.00035588012907284
-1.72011460298069e-05
-0.000349511031908285
-1.82481242439094e-05
-0.000342897041843431
-1.92130300238207e-05
-0.000336059791711574
-2.00987049769881e-05
-0.000329020046407507
-2.09080369277637e-05
-0.000321797713764421
-2.16439612940006e-05
-0.000314411852961573
-2.23094756014153e-05
-0.000306880687912914
-2.29076144262739e-05
-0.000299221623311383
-2.34414416036598e-05
-0.000291451266011962
-2.39140369293837e-05
-0.000283585459272914
-2.43284670414272e-05
-0.000275639343243261
-2.46876995973868e-05
-0.000267627453900616
-2.49944885252647e-05
-0.000259563880302291
-2.52511598029344e-05
-0.000251462486747971
-2.54593780756064e-05
-0.000243337203153513
-2.56198734878255e-05
-0.000235202356554013
-2.57322260002283e-05
-0.000227072990873891
-2.57949575440156e-05
-0.00021896518082206
-2.58055177908322e-05
-0.000210896335949873
-2.57605765703844e-05
-0.000202885684326032
-2.56554381441581e-05
-0.000194955000055637
-2.54831865700178e-05
-0.000187129609412086
-2.52337859121469e-05
-0.000179439768056385
-2.4892486911751e-05
-0.000171922334440303
-2.44390602006893e-05
-0.000164622877480368
-2.38453903354323e-05
-0.000157597914736083
-2.30761048929692e-05
-0.000150917541545773
-2.20842000452207e-05
-0.000144667192614253
-2.08184494861555e-05
-0.000138949319754023
-1.92129249105534e-05
-0.000133880268724008
-1.72202652428619e-05
-0.000129585546313465
-1.47783884776022e-05
-0.000126176108674115
-1.19355187218612e-05
-0.00012371931138754
-8.73604523037302e-06
-0.000122138569660999
-5.70554334296312e-06
-0.000121106340166922
-3.47616362335425e-06
-0.000119722859490452
-4.87764432224138e-06
-0.000116096142188293
-1.42413083369328e-05
-0.000107702040130396
-3.93303792115467e-05
-9.72971859938095e-05
-5.4732041971275e-05
-9.22897124202468e-05
-2.07853343113486e-05
-8.92380334881604e-05
-3.51449754308909e-06
-8.34109035979704e-05
-1.13729752940825e-05
-7.44341511636021e-05
-2.14730584633772e-05
-6.22354778625028e-05
-3.25490683876292e-05
-4.7031627844575e-05
-4.33974092673411e-05
-2.92538696363125e-05
-5.25961503601904e-05
-9.52053702213715e-06
-6.00393905580334e-05
1.0702267395107e-05
-6.2207404693491e-05
2.97529159345181e-05
-5.8689834834384e-05
4.63273115715912e-05
-5.02084379477673e-05
6.00858478161348e-05
-4.1118125578342e-05
7.13095191558115e-05
-3.24600367400103e-05
8.28454007940291e-05
-3.34942324237849e-05
9.73249612449231e-05
-4.18618753207307e-05
0.000119384881400682
-6.43890816833803e-05
0.000160146915358485
-0.000123539449319056
0.000240880606098972
-0.000262871562192605
0.000323064957796115
-0.000249671868712263
0.000263614671614111
0.000267947863614427
0.000370525489908829
0.000139308766309664
0.000156033627385949
3.14648808806427e-05
0.000319797244648924
-4.8939159520614e-05
0.000238274440705685
-4.26402095487631e-05
-4.37461660745537e-05
-2.31963081513693e-05
-6.53071122814788e-05
-1.70722204856609e-05
-1.82922299115219e-05
-1.53814189442455e-05
-5.12255944954595e-06
-1.60792061374309e-05
2.0838433374196e-06
-1.91108098994589e-05
9.53102706032091e-06
-2.37535736815026e-05
1.44357032556267e-05
-2.98286680792515e-05
1.92814519272753e-05
-3.66630203828209e-05
2.19691511026541e-05
-4.28413909025773e-05
1.99478308345662e-05
-4.68817404522415e-05
1.2416723293542e-05
-4.7681595412637e-05
4.30702864433628e-07
-4.42084074841584e-05
-1.63723111644724e-05
-3.57576026142444e-05
-3.68267252835452e-05
-2.24968691528371e-05
-5.65571052386801e-05
-5.58020796285081e-06
-6.93462025749728e-05
1.18123541934969e-05
-6.38008902825257e-05
2.1407350856104e-05
-2.85591788535051e-05
7.75440922350117e-06
4.46940775954916e-05
-2.01855726764332e-05
7.2326177441206e-05
-5.74796956359784e-05
9.99184045849101e-05
-0.000102284439345154
0.000131084924452023
-0.000149503856388263
0.000151185743139234
-0.000194422725564329
0.000156786520316681
-0.000234314106880856
0.000150892034602631
-0.000268457509554951
0.000138358500744808
-0.000297275244976935
0.000123579964661289
-0.000321567128627827
0.000108995496089226
-0.000342122966267609
9.5718310149725e-05
-0.000359596578647535
8.39928986518485e-05
-0.000374496996728499
7.37402404075922e-05
-0.000387213846339121
6.47469409504182e-05
-0.000398047050615966
5.68015347806352e-05
-0.000407230823582922
4.97157106128284e-05
-0.000414951429564196
4.33399506690602e-05
-0.000421359615829847
3.75544968564423e-05
-0.000426579407502968
3.2265594173551e-05
-0.000430714344785936
2.73983425907631e-05
-0.000433852004429504
2.2892531276285e-05
-0.000436067454359996
1.86994386931636e-05
-0.000437425968666069
1.47798976533321e-05
-0.000437985243203973
1.11031525737166e-05
-0.000437797103963186
7.6458390925598e-06
-0.000436908584191445
4.38913603264181e-06
-0.000435362778766852
1.31700091575078e-06
-0.000433200913754004
-1.58299063390624e-06
-0.000430462475688671
-4.31858050285433e-06
-0.000427183171600748
-6.89584734691837e-06
-0.00042339573720886
-9.32232637183182e-06
-0.000419131567793459
-1.16055393088557e-05
-0.000414420872966365
-1.37520113153846e-05
-0.000409292659633874
-1.57671023516251e-05
-0.00040377481161576
-1.7655348893431e-05
-0.000397894192723542
-1.94208372048642e-05
-0.00039167671851897
-2.10673756870553e-05
-0.000385147404949676
-2.25986245989037e-05
-0.00037833040350874
-2.40181470254439e-05
-0.000371249017194833
-2.53295100042943e-05
-0.000363925707839622
-2.65363387250037e-05
-0.000356382105218673
-2.76423068537553e-05
-0.000348639017546995
-2.86511237777546e-05
-0.000340716439799611
-2.95665381566778e-05
-0.000332633560860304
-3.03923536088834e-05
-0.000324408776588976
-3.11323977354315e-05
-0.000316059706905479
-3.17905103118421e-05
-0.000307603219363569
-3.23705234999235e-05
-0.000299055467333075
-3.28762181209489e-05
-0.000290431955479943
-3.33112105352649e-05
-0.000281747645755965
-3.36787973834153e-05
-0.000273017122566046
-3.39816821881614e-05
-0.000264254824561933
-3.42216753455534e-05
-0.000255475347098766
-3.43993502941303e-05
-0.000246693786066192
-3.45137864572482e-05
-0.000237926076536616
-3.45626665804173e-05
-0.000229189323176489
-3.45422707383328e-05
-0.000220502129900248
-3.44477695099557e-05
-0.000211885110884915