/*--------------------------------*- C++ -*----------------------------------*\
  =========                 |
  \\      /  F ield         | OpenFOAM: The Open Source CFD Toolbox
   \\    /   O peration     | Website:  https://openfoam.org
    \\  /    A nd           | Version:  7
     \\/     M anipulation  |
\*---------------------------------------------------------------------------*/
FoamFile
{
    version     2.0;
    format      ascii;
    class       volScalarField;
    location    "20000";
    object      Pk;
}
// * * * * * * * * * * * * * * * * * * * * * * * * * * * * * * * * * * * * * //

dimensions      [0 2 -3 0 0 0 0];

internalField   nonuniform List<scalar> 
15600
(
5.13633628640118e-08
3.22184280496588e-08
5.01905526996383e-09
1.63910088193309e-09
1.99598902127777e-10
7.56551848853842e-12
2.23429721217252e-12
2.39767977652453e-12
3.52443798620987e-12
7.06048650857376e-12
1.48615789232854e-11
3.32355366350732e-11
6.72433039844323e-11
1.14339324294938e-10
1.53104886907257e-10
1.52230429192112e-10
7.83965738036516e-11
2.42193224111323e-12
6.76983882025164e-11
2.07139509166533e-10
1.9860365512654e-10
8.50864980125691e-11
5.04180442506547e-11
4.86971531243521e-11
5.36825499054704e-12
7.9664803154e-11
8.64210438465292e-10
3.58335985130777e-09
9.99314164239929e-09
2.18368285480703e-08
4.05514867748875e-08
6.70072047342953e-08
1.01643371717631e-07
1.44489516591356e-07
1.95315713651974e-07
2.53648593624463e-07
3.18846065916459e-07
3.90110002459361e-07
4.66531966328831e-07
5.47112389075074e-07
6.30793390707652e-07
7.16478638277551e-07
8.03055558682529e-07
8.8941218398312e-07
9.74455396467311e-07
1.0571330229694e-06
1.13646046390121e-06
1.21154288571288e-06
1.28159668921214e-06
1.34597805265446e-06
1.40421693451789e-06
1.45599480753178e-06
1.50102371547998e-06
1.53853803535466e-06
1.56792266428528e-06
1.58904375193148e-06
1.60194902467516e-06
1.60679483253322e-06
1.60383644469248e-06
1.59341649805549e-06
1.57595292143091e-06
1.55192571962644e-06
1.52186343255002e-06
1.48633013487917e-06
1.44591301241105e-06
1.40121082842448e-06
1.35282313498062e-06
1.30134078568813e-06
1.24733756384757e-06
1.19136286441573e-06
1.13393550435022e-06
1.07553904071075e-06
1.0166183689357e-06
9.57578626486022e-07
8.98785770060613e-07
8.40569579077447e-07
7.83227597804044e-07
7.27028007984565e-07
6.72211318199861e-07
6.18988482280685e-07
5.67541543147698e-07
5.18025995137735e-07
4.70575635625888e-07
4.25310231829159e-07
3.82343592993265e-07
3.41793431132041e-07
3.03789299068093e-07
2.68480638598366e-07
2.36040280100809e-07
2.06665669337039e-07
1.80577191143238e-07
1.58012678088572e-07
1.39233576061324e-07
1.24513395489263e-07
1.14095821910766e-07
1.07585665928274e-07
1.03924205694997e-07
8.89538663574053e-08
4.65928019615633e-08
2.10872130650221e-08
2.13021961893205e-08
2.80599622074683e-08
3.60965019073866e-08
4.3205449207213e-08
4.45668347523258e-08
3.72768291013452e-08
2.19570312162736e-08
5.84803040060121e-09
1.53351898647187e-10
9.44325903342825e-09
2.9987239228436e-08
5.45386236546549e-08
8.80432512434709e-08
1.48189382294059e-07
2.86048615991086e-07
7.14583481137082e-07
3.26539092416215e-06
1.4050096114232e-05
7.08538299034482e-06
1.77385114263244e-07
2.27708379542434e-05
6.88119491592023e-06
6.34365874089502e-07
2.60488184531718e-07
3.57853884463756e-08
1.5663816233753e-09
4.15115193956856e-10
4.44340994759319e-10
6.58480804744725e-10
1.31056541164804e-09
2.74322416278875e-09
5.99840212650833e-09
1.18658235045813e-08
1.98474117958623e-08
2.66590329256884e-08
2.77676954725961e-08
1.77477986673219e-08
3.77686515307177e-09
3.23146719615051e-09
1.63197247740374e-08
1.95562230877764e-08
9.05330366311056e-09
3.57006210406396e-09
7.54199423899225e-10
7.42888111463422e-09
8.33987936739321e-08
3.81819995999344e-07
1.1438078681738e-06
2.64860706845129e-06
5.12049101928733e-06
8.70276928231745e-06
1.34459075882415e-05
1.9340414378758e-05
2.63281183771154e-05
3.43229794787817e-05
4.32145769193347e-05
5.28772060680764e-05
6.3172086518787e-05
7.3952936477314e-05
8.50686113394696e-05
9.63669541438699e-05
0.000107697179086492
0.000118912350311329
0.000129871307950344
0.000140440740117785
0.000150497458051477
0.000159930983193906
0.000168645593936279
0.000176562214158775
0.00018362117010117
0.000189785619394153
0.000195037529349548
0.000199363476920053
0.000202652408088087
0.000204876480865973
0.000206051411816649
0.000206204432101416
0.000205374270026754
0.00020360974515933
0.000200968199324447
0.000197513942180796
0.00019331664904672
0.00018844978158507
0.000182989128592295
0.000177011438294154
0.000170593195851232
0.000163809511543114
0.000156733165455119
0.000149433795964357
0.000141977215036425
0.000134424855095018
0.000126833396652245
0.000119254522403269
0.000111734926960923
0.000104316478999437
9.70365943808674e-05
8.9928686783558e-05
8.30224553335594e-05
7.63440855801561e-05
6.99161502012286e-05
6.37577200296119e-05
5.78846810518437e-05
5.23102087973161e-05
4.70455547931371e-05
4.21006721983872e-05
3.74852353196054e-05
3.32089165508648e-05
2.92825575105096e-05
2.57172955291931e-05
2.25263706794186e-05
1.97218968010037e-05
1.73196189844536e-05
1.5330886410714e-05
1.37755334704595e-05
1.26473608252286e-05
1.1925767385899e-05
1.13080811717088e-05
9.71141489654265e-06
6.22538740517987e-06
3.60149614473212e-06
3.36422066775839e-06
4.04619711704073e-06
4.80597912270411e-06
5.32131296597885e-06
5.08965837003658e-06
3.88823630936607e-06
1.96627103226856e-06
3.18589326722081e-07
2.53714579773623e-07
2.13745654260193e-06
5.46217069787351e-06
9.30620702232902e-06
1.45137537659741e-05
2.37416537078693e-05
4.46383968604488e-05
0.000107856035823874
0.000448312807828292
0.00169212160361341
0.000999988664411759
8.96094461692451e-05
0.000916440889042895
0.000173114633217079
8.04850565308647e-06
4.64919314843154e-06
7.33291074391595e-07
3.66177126113065e-08
8.93759160785488e-09
9.52863050379233e-09
1.42547353886424e-08
2.819587637763e-08
5.86369722170163e-08
1.25229334948797e-07
2.41745638736006e-07
3.97354519719581e-07
5.35981521982103e-07
5.86670831568662e-07
4.56581664238941e-07
2.07691937575762e-07
3.88437282211356e-08
6.86030244856409e-08
1.38501814671938e-07
7.76029991555349e-08
1.11186131105039e-08
7.79580152517978e-08
9.37187556539111e-07
4.55975335876249e-06
1.46426906046212e-05
3.55474887153382e-05
7.08741950250656e-05
0.00012228120702686
0.000189736936733034
0.000271960389829543
0.000367115103754661
0.000473065741863045
0.000587625399726976
0.000708590925179454
0.000833824252942351
0.000961264017727837
0.00108896762581239
0.00121512285514437
0.0013380685088803
0.00145630067691089
0.00156847938477227
0.00167343113466912
0.00177015247802709
0.00185781343931467
0.00193576332439294
0.00200353236256192
0.00206083095822903
0.00210755543085744
0.00214380807006816
0.00217000949897195
0.00218536801504175
0.00218991433751999
0.00218419598038739
0.00216872750295799
0.00214409771486769
0.00211095554552457
0.002069996834612
0.00202195096662764
0.00196756861974445
0.00190761007185942
0.00184283444709152
0.00177399035688933
0.00170180758109453
0.00162699009681631
0.00155021008981874
0.00147210315021046
0.00139326452949662
0.00131424629594104
0.00123555541053831
0.00115765299573895
0.00108095441300728
0.00100583089766413
0.000932611983306834
0.000861588888220983
0.000793018010294009
0.000727123077529543
0.000664096778458683
0.000604100909036599
0.000547267679234856
0.000493702295028872
0.000443486024448536
0.000396680841737225
0.000353332302378418
0.000313474752960635
0.000277130613994014
0.000244316696274666
0.00021503479063914
0.000189285281687181
0.000167039150303451
0.000148277857841271
0.000132915755519133
0.000120897500046273
0.000111891009198846
0.000105526835333446
9.89503409344241e-05
9.02853231123335e-05
7.78902917514477e-05
5.89422204987674e-05
5.1305740326979e-05
5.55085012096763e-05
5.95413168647495e-05
5.93721837705163e-05
5.07193356005206e-05
3.32229164092425e-05
1.22811502023917e-05
1.08426842898119e-06
1.40528626886099e-05
5.32792720702904e-05
0.000112411474360655
0.000179756792348598
0.000270375173594165
0.000428079561066623
0.000778246489349142
0.00179345724682632
0.00656277889670383
0.020610634215023
0.0146257143617682
0.0031457685403402
0.0109177880466711
0.00162264515159445
3.07099392073998e-05
2.98254265590651e-05
5.51467512202962e-06
3.12285656411025e-07
7.15144385701546e-08
7.571367698522e-08
1.14361515087055e-07
2.24734435056548e-07
4.63360917649168e-07
9.64622899363552e-07
1.81299682719544e-06
2.92541510789194e-06
3.96783749771489e-06
4.5772870586171e-06
4.25826048900669e-06
3.08500991433577e-06
1.59875255791191e-06
3.98910768614428e-07
5.45972833914203e-08
9.04384092836331e-08
3.03202560148062e-07
3.57275162392243e-06
1.86810157386062e-05
6.29727255411026e-05
0.000157744082804501
0.000316394163369237
0.000538603570652104
0.000812891308785117
0.00112377915646921
0.00145626503093689
0.00179797251110737
0.00213906970301764
0.00247199903638858
0.00279089507411521
0.00309129854768717
0.00336984350776374
0.00362409332721771
0.00385236499593924
0.00405361287816149
0.00422731675205454
0.00437339746492707
0.00449214575703926
0.00458416502650046
0.00465032043450104
0.00469169934470789
0.00470957514046867
0.00470537278199064
0.00468068144803752
0.00463777249495588
0.00457628678720302
0.00449785583299844
0.00440451365200527
0.00429788928160652
0.00417957588320793
0.00405112233716357
0.00391402355696942
0.00376971287776254
0.00361955543214092
0.00346484354565326
0.00330679321997163
0.00314654185900784
0.00298514737137131
0.00282358797676421
0.00266276301078298
0.00250349424173161
0.00234652780510167
0.00219253663638974
0.00204212325134761
0.00189582288884117
0.00175410719927396
0.00161738808480917
0.0014860221248129
0.00136031488170089
0.00124052505402217
0.00112686789355856
0.00101951729933422
0.000918607439055109
0.000824233972953404
0.000736455781486824
0.000655297131610261
0.000580749402725635
0.000512772541539219
0.000451295359063928
0.000396215510852853
0.00034739805042256
0.000304674865710931
0.000267841608958067
0.000236656603510853
0.000210828514865055
0.000189997750332456
0.000173675291714966
0.000161139134344678
0.000151373091221323
0.000143428652648615
0.000137016057730336
0.000155574731245837
0.000219900714159278
0.000228514074299657
0.000187648367184368
0.00017747904469848
0.000165107641349236
0.000140008385824264
9.76546425475313e-05
4.66149522765971e-05
1.24727824490641e-05
4.03988640617527e-05
0.000173375716706397
0.000421594821589192
0.000772423103050965
0.00118834541395425
0.00175004251085723
0.0026991703218258
0.00473048001009558
0.0102262117704151
0.0313515924262092
0.0751805926895266
0.0651948142954827
0.0280258983717567
0.0574091491648292
0.00856592329689276
5.25817871074743e-05
0.000109008984012059
2.42458730817334e-05
1.54858372715779e-06
3.38307701044936e-07
3.54530999296285e-07
5.40504910704449e-07
1.05443390130758e-06
2.14840549988038e-06
4.34545923341718e-06
7.92185359383701e-06
1.25127845548221e-05
1.70368307207458e-05
2.06246205726261e-05
2.21881021840131e-05
2.14331649715656e-05
1.80631817462579e-05
1.01867245789383e-05
2.33568643604156e-06
7.70375906064193e-07
7.20298717391334e-06
4.10555681341822e-05
0.000142432440799263
0.000360083032637182
0.000708338925952114
0.0011522088691368
0.00163132236333077
0.00209418765533863
0.00251083204258433
0.002869437586904
0.00316856667426517
0.00341144703457245
0.0036030152700388
0.00374853786453572
0.00385312577364647
0.00392152365815225
0.00395807118501148
0.00396669100873751
0.00395091587850774
0.00391391956371562
0.00385855692089569
0.00378740265541542
0.00370278395940825
0.00360680591344178
0.00350137410022124
0.00338822106224601
0.00326896141274517
0.00314546027552304
0.00301838794365472
0.0028885013890118
0.00275677516992617
0.00262409884668537
0.00249125683105508
0.00235894962175446
0.00222780059176062
0.00209836214449142
0.0019711220252042
0.00184650900476072
0.00172489836442767
0.00160661680117615
0.00149194688809994
0.00138113129063189
0.0012743764663742
0.0011718560191416
0.00107371365816759
0.000980065853792639
0.000891004207334905
0.000806597453623541
0.000726893144320611
0.000651918994145132
0.00058168379260964
0.000516177979663002
0.00045537379029304
0.000399225279022207
0.000347668058470777
0.000300618931968807
0.000257975165397915
0.000219613242200051
0.000185387491440333
0.000155128340738639
0.000128640551770761
0.000105701403239597
8.60608153488572e-05
6.94422682923994e-05
5.55500246795184e-05
4.40768762830888e-05
3.4724887729745e-05
2.72171528207043e-05
2.13274863451996e-05
1.68600113173454e-05
1.3652989474563e-05
1.14394419830291e-05
9.97983014857289e-06
9.3600244247142e-06
1.28400740481908e-05
4.90960502906374e-05
0.000187669472964259
0.000277633571406658
0.000204312502443413
0.000150655658503785
0.000101887272981029
5.69366686952407e-05
2.7852105596324e-05
3.77356039810922e-05
0.00012632091454311
0.00034761245579555
0.000760218079655778
0.00144117976169302
0.00244645933652383
0.00379902602689794
0.00569752056687055
0.00878079696288354
0.0149436529436196
0.0297999156113817
0.0717678884812718
0.11714136371874
0.130532581633505
0.103500078026341
0.156996560298734
0.0289852258833989
0.000113689691171699
0.000276764832976889
7.67056619209847e-05
5.50934726645045e-06
1.16578827227781e-06
1.20476785013113e-06
1.85141725930447e-06
3.57843020085566e-06
7.16710903942247e-06
1.40014469056358e-05
2.45767995608282e-05
3.76919589930594e-05
5.10036499708324e-05
6.3591948298475e-05
7.51998287936024e-05
8.49910130795516e-05
8.81857501209142e-05
6.80912847937634e-05
3.12652791603558e-05
1.43215738858549e-05
5.7399756353153e-05
0.000213959277325954
0.00053680608774835
0.00103186033181875
0.00159074478256292
0.00208429215158763
0.00243892211863028
0.00265181671923229
0.00275285134490467
0.00277645775602653
0.00274936678807004
0.00268986910082085
0.00260978483870861
0.00251674209397983
0.00241572282094214
0.00231006270696012
0.00220204386971538
0.00209326197065749
0.00198485444708894
0.00187764906879235
0.00177226117549454
0.00166915889099427
0.00156870403010877
0.0014711810084243
0.00137681810749169
0.00128581332406357
0.00119843473902569
0.00111477530331067
0.00103445818932281
0.000957465923564532
0.000883868471233226
0.000813681387753062
0.000746894816084009
0.000683489505421291
0.000623437242300995
0.000566701842401254
0.000513240359530302
0.00046300423851468
0.000415940473710677
0.000371992451266125
0.000331100582148429
0.00029320287247857
0.000258235334423118
0.000226132188331761
0.000196825862535976
0.000170246871158454
0.000146323514415191
0.000124981303767459
0.000106142123154693
8.9723087936089e-05
7.56351131989218e-05
6.37813356118117e-05
5.40554783344745e-05
4.63405943242344e-05
4.05081119933176e-05
3.64169962397781e-05
3.39126448508018e-05
3.28245394876753e-05
3.29638917011793e-05
3.41217261095178e-05
3.60681707386505e-05
3.85542432222349e-05
4.13174815036929e-05
4.40930979665723e-05
4.66328836803482e-05
4.87334065331132e-05
5.02731218144434e-05
5.12579641336547e-05
5.18557114459947e-05
5.24241303340518e-05
5.34106910547785e-05
5.52374089431332e-05
5.74059309703819e-05
5.73248327129829e-05
5.00929779614199e-05
2.67972001126776e-05
7.81340255903252e-05
0.000153742163929597
8.06337722699008e-05
2.62021020356968e-05
2.59767822131271e-06
2.62739741012498e-05
0.000116718706258613
0.000291840592776913
0.00057445065498981
0.000989113638796295
0.00158793648537467
0.00255820055186763
0.0041189732176112
0.00660459878793972
0.010423484434375
0.0165447490801882
0.0277454640758389
0.0504306233203783
0.0900038563345666
0.0866619106345783
0.133555127442646
0.201621184248363
0.261521735842031
0.0667023626622553
0.000770235358160555
0.000531774913146592
0.000193291849307682
1.56534138507925e-05
3.25529078534404e-06
3.30311103467042e-06
5.10203101272809e-06
9.73129677781226e-06
1.90007977702587e-05
3.54893919781076e-05
5.9185712029469e-05
8.66701758209269e-05
0.00011408033236014
0.000142079334738551
0.000174960185934333
0.000211310981483974
0.000237328434676533
0.000211163404706114
0.000135107394828029
8.50697705240869e-05
0.000231577916517703
0.000616686047785301
0.00116864646366059
0.00175346144988067
0.00216644187544383
0.00233535433715769
0.00230806103115228
0.00217266091678238
0.00199457832972235
0.00180995768608658
0.0016345082287111
0.00147364799893035
0.00132813691234882
0.00119700266202607
0.00107875634988572
0.000971899921589328
0.000875087192297868
0.000787164756540065
0.000707161916569513
0.000634267441386878
0.000567802605145469
0.000507197054515089
0.000451966830613123
0.000401699211948152
0.000356041533932289
0.000314696545809963
0.000277405774617588
0.000243761092191529
0.000213460047526522
0.000186327797854918
0.000162188915898794
0.000140863914640488
0.000122181873021755
0.000105983197534546
9.21180423537375e-05
8.04453632072306e-05
7.08322905584565e-05
6.31536366716497e-05
5.72915601968069e-05
5.31351027873043e-05
5.05796152348863e-05
4.95261679938868e-05
4.98809274817924e-05
5.15544285387269e-05
5.44606861191004e-05
5.85162285701899e-05
6.3639003820717e-05
6.97470904901592e-05
7.67571925913596e-05
8.45829512116952e-05
9.31330765016539e-05
0.000102309496320214
0.0001120055753528
0.000122104754292511
0.000132479778333879
0.000142992145981881
0.000153491876573042
0.000163816043051562
0.000173787306028747
0.000183213998219757
0.000191892670256544
0.000199615534726968
0.000206183853704343
0.000211430873810981
0.000215254649006119
0.000217665947694127
0.000218843355188787
0.0002192001219458
0.000219413151569472
0.000220422043794317
0.000223123912501867
0.000227918551275472
0.000232557050585074
0.000228668764818847
0.000202616887440883
0.000110916232297131
3.50135116918501e-05
5.31215723288352e-05
1.03542167922318e-05
5.1816601097904e-06
6.04764589797221e-05
0.000199092289046825
0.000431291086969459
0.000759954033103136
0.00118067261711713
0.0016811827375568
0.00228285127962298
0.00320427208702418
0.0047351553284004
0.00749259116833802
0.0121550231056832
0.0197907880754879
0.0327623193387306
0.0539966490307796
0.0705680719129995
0.0348964507604577
0.0706194826638073
0.248264869437745
0.31352618078856
0.112680865609054
0.00382350544508924
0.000788790533299056
0.000407586539872224
3.76783357798517e-05
7.81900212852395e-06
7.74998623295441e-06
1.19730280815283e-05
2.23819018363058e-05
4.20812616363765e-05
7.39818232832471e-05
0.000114870890580607
0.000156810004247614
0.000195759801901167
0.000238006719606758
0.000296503765476327
0.000367976039769893
0.000426908866857134
0.000409889739827176
0.000322303935160407
0.000269993469241724
0.000567538699056445
0.00115181169861152
0.00173134408191804
0.00210862206416847
0.0021633076677591
0.0019863782796529
0.00171449703596253
0.00143849222365622
0.00119422164986151
0.000989215244498167
0.000819938239233872
0.000680273343776888
0.000564404756660234
0.000467603301519444
0.000386219404245428
0.000317479827585574
0.000259271397064086
0.000209966328441349
0.000168293158172057
0.000133242940920225
0.000104001693751131
7.99016613611839e-05
6.03852187564387e-05
4.49793313397426e-05
3.32757432487838e-05
2.49136339881563e-05
1.95511718604343e-05
1.68808638873339e-05
1.66558296065693e-05
1.86518211722316e-05
2.26547513234015e-05
2.84644865725149e-05
3.58954892680919e-05
4.47754239688866e-05
5.49439711620643e-05
6.62520582396616e-05
7.85612857269198e-05
9.17433319806525e-05
0.000105679453107725
0.000120259934561939
0.000135383347769792
0.000150955681304518
0.000166889422586364
0.000183102588236359
0.00019951755547549
0.000216059776062077
0.000232656397450472
0.000249234763759378
0.000265720737251307
0.000282036954853611
0.000298100964060815
0.000313823448537109
0.000329106471463471
0.000343841964023594
0.000357911040938544
0.000371183786590428
0.000383520382118648
0.000394771204760412
0.000404776593071211
0.000413369146765866
0.000420379573447126
0.000425649386788203
0.000429051800131842
0.000430524967604935
0.0004301182194036
0.000428055400289545
0.000424807565055287
0.000421167753870569
0.000418273394869555
0.000417529218708682
0.000420097016422976
0.000425957148902647
0.000430860486115146
0.000420580341294717
0.00037569400362853
0.000230179668601412
4.38080642611696e-05
8.89050394166549e-06
5.80929269949913e-06
6.19887683363273e-05
0.000204066493051384
0.000454836710367885
0.000813885087126943
0.00127241217523931
0.00180409840979287
0.00236358564989807
0.00293148200082267
0.00370130766851295
0.00492719522925745
0.00723909968174729
0.0113279868876388
0.0180696403752301
0.0288620469821619
0.0432370533821289
0.0452742406038326
0.0167707662875702
0.0162449705435902
0.223847253710491
0.306692115918274
0.152853757091506
0.0121768700259089
0.000866721456354957
0.000732953133496886
7.93314815471162e-05
1.6729234795944e-05
1.6100715621032e-05
2.46908321699062e-05
4.47677095858206e-05
7.97031304451391e-05
0.000129223483177177
0.000182448910990228
0.000227281372269195
0.000266430440630794
0.000318059927066432
0.000403608151489471
0.000514007258957353
0.000610730373669684
0.000617963057225485
0.000550781269251525
0.00056227239556659
0.000985088819001028
0.00161269222311715
0.00200682537106411
0.00205777566581442
0.00181941330121225
0.00147780394912385
0.00115198670430605
0.000883304092300082
0.000672974782988208
0.000510764636335388
0.000385595842824477
0.000288458340441935
0.000212689264581499
0.000153476920616982
0.00010736856224928
7.18475635864383e-05
4.5047311883807e-05
2.55498641022864e-05
1.22546463516247e-05
4.28787119390116e-06
9.41769513740885e-07
1.63161993892444e-06
5.86440348503744e-06
1.32138629477035e-05
2.33012081469585e-05
3.57865238230125e-05
5.03892350819061e-05
6.68604164127473e-05
8.49605422488438e-05
0.000104456736855306
0.000125133927659462
0.000146795545610655
0.000169260044299139
0.000192358496004879
0.000215933913892962
0.000239840955493154
0.000263945684176915
0.000288125086428438
0.000312266596604215
0.000336267679191208
0.000360035082380034
0.000383483806707081
0.000406535988484605
0.000429119800009021
0.000451168094479324
0.000472616873147778
0.000493403714492189
0.000513466171237042
0.000532740029142361
0.000551157618186087
0.000568646026253171
0.000585125422803982
0.000600507222785675
0.000614692206036047
0.000627569734462657
0.000639017836436809
0.000648906082958496
0.000657097623125772
0.000663450165114995
0.000667820319586481
0.000670072393793704
0.000670095604519774
0.000667831767295661
0.000663316998028068
0.000656739935795072
0.000648515800378601
0.000639374227266912
0.000630430169539715
0.000623197802098154
0.000619410784269951
0.000620337797057496
0.000625333676074279
0.000628319764502408
0.000609966627089775
0.000546975103423395
0.000359525893997879
8.160369427441e-05
1.95329365160945e-06
3.6235474130102e-05
0.00015079714481915
0.000374706043064906
0.000729432904061934
0.00120779958473616
0.00179378246301566
0.00244518228307907
0.00308773169103942
0.00366294291806404
0.00433628110548385
0.0053190524706477
0.00715895944097252
0.010414622978732
0.0156499624520457
0.0236248222858707
0.0330166349622041
0.0350796033476199
0.0258579531855885
0.000934435005765003
0.165185659478135
0.264504424570196
0.179447276132651
0.0279731101724189
0.000617892931824101
0.00112599277888958
0.000148131159954143
3.25175422744532e-05
3.01914561834223e-05
4.54708471510789e-05
7.8850333843067e-05
0.000130324365436235
0.000190771620237099
0.000240534598896276
0.000272262677195433
0.000305261193908675
0.000369329107750578
0.000487137385957937
0.000639962808417047
0.00077742166932222
0.000818388115833728
0.000792181976915047
0.000891025946906482
0.00136494204284796
0.00187771354964938
0.00199628098760703
0.00178143046488278
0.00140984586960909
0.00105180836600806
0.000765033226458094
0.000550570818575157
0.000393684256064203
0.000279414810759088
0.000196329212536635
0.00013620565324822
9.33773670890887e-05
6.38795185597185e-05
4.49262268851339e-05
3.44953995566496e-05
3.10846094735102e-05
3.35410514456113e-05
4.09578982436262e-05
5.26034210467195e-05
6.78760652114159e-05
8.62720078765635e-05
0.000107360404497151
0.000130759449009131
0.000156120420139859
0.000183148853484547
0.000211604603506852
0.000241251202151904
0.000271850498674048
0.000303168912352593
0.000334993772900132
0.000367131664058498
0.000399404100068537
0.000431644824397942
0.000463699496406258
0.000495425831969209
0.000526693698541833
0.000557384720543911
0.000587391818780041
0.000616618962446863
0.000644980436826301
0.000672399632445004
0.000698807716425507
0.000724142419795359
0.00074834650305645
0.000771365970665591
0.000793148327490562
0.000813640906316531
0.000832789104970693
0.000850534796293359
0.000866814636584068
0.000881558472804222
0.000894687303404104
0.00090611080390251
0.000915726260164015
0.000923418897198005
0.00092906691720397
0.000932545842543757
0.000933730675747414
0.000932502106291579
0.00092875791528694
0.000922434031147073
0.000913538349472582
0.000902199187336547
0.000888733980915778
0.000873729595699844
0.000858142365507796
0.000843354581323434
0.00083117801611051
0.000823553167693744
0.000821729297987344
0.000824310715146253
0.000823623094544365
0.000796051007875796
0.000715238191556495
0.000493509604480088
0.000138288309402905
1.93115832991976e-05
8.60360652342645e-05
0.000254262939984462
0.000555822583059417
0.00101095745773309
0.00160941385765482
0.0023308062987463
0.00312084394249923
0.00387885853183443
0.0045117191879636
0.0051682917453275
0.00604367735961732
0.00762974377283569
0.0104009133621558
0.0147411399591843
0.0212793038144426
0.0294244774564886
0.0386941352341275
0.0458160229506643
0.00827708796663386
0.108696527743206
0.211121420136961
0.191893374343303
0.0507217234342452
0.000260022251646547
0.00147442187420798
0.000245375675927016
5.79222456445177e-05
5.15695057201864e-05
7.52547267105499e-05
0.000122794105436305
0.000184829557201173
0.000240615418735292
0.000270102928165669
0.000283252622442572
0.000315934556752116
0.000400484891001211
0.000554607246445659
0.000750374525186279
0.00092917192874005
0.00100902477733485
0.00103224203055268
0.0011921872114173
0.00163084765669328
0.00193598389425265
0.00180511313853881
0.00144965604870507
0.00106722531641721
0.000759701913730824
0.000536000735032751
0.000378931717518047
0.000270500626456409
0.000196624855727185
0.000147673211195898
0.000116972429671067
0.000100062171721394
9.38371757689807e-05
9.61240199514597e-05
0.000105325144641315
0.000120234844395091
0.000139906728545294
0.000163578741022383
0.00019062157842151
0.000220508752214901
0.000252793551713997
0.000287089241642573
0.000323044572020983
0.000360334296112914
0.000398704687316052
0.000437920116610504
0.000477747270192641
0.000517945587398894
0.0005582804285518
0.000598539112745835
0.000638528152677793
0.00067806919306486
0.00071699609401725
0.000755154896799143
0.000792404357397457
0.00082861635828746
0.000863675555563232
0.000897478900401606
0.000929935584538081
0.000960966326288187
0.000990501943323134
0.00101848178243092
0.0010448524000234
0.00106956584445816
0.00109257759795297
0.00111384466545128
0.00113332385564328
0.0011509700276901
0.00116673463951705
0.00118056417275212
0.00119239862600508
0.00120216916968642
0.00120979485693601
0.0012151810742408
0.00121822003436395
0.00121879842420953
0.0012168044957913
0.00121213140524801
0.00120468514102482
0.00119439826039842
0.00118125418976271
0.00116532658477843
0.00114683294779762
0.00112621231964305
0.00110420759524544
0.00108197482364505
0.00106111563740984
0.00104366923822888
0.00103167608991125
0.00102626307178046
0.00102519738193627
0.00101941143932088
0.000981732673942401
0.000882913261232935
0.000631644863534321
0.000209796366075684
5.49183799282744e-05
0.000149517012102346
0.000367840649880041
0.000745293670036566
0.00130109271617571
0.00202461184047752
0.00289273520048347
0.00384103240856111
0.00474378952094678
0.00547728165539379
0.0061852812229112
0.00707274538874665
0.00862227328477023
0.0113118705470833
0.015524167995131
0.0221263905464173
0.0317976964578292
0.0504645085989957
0.0685580590601151
0.0220316902680929
0.0685631842720922
0.161423751731001
0.193180274472354
0.077473985680253
0.000662665933389073
0.00165521379196982
0.000357898465951165
9.45225271224542e-05
8.04032737358861e-05
0.00011198809327328
0.000169308496852381
0.000228993007003669
0.000264351228219941
0.000268247387890959
0.000270274691013935
0.000312241736471976
0.000422015196789108
0.000611992986062282
0.000847962344805364
0.00106670645803894
0.00118707144864235
0.00125679901504501
0.00142718360129676
0.00175763561877761
0.00183679096495056
0.00154207798549616
0.00115404920112293
0.000821180008084086
0.000580974353510645
0.000417960036067267
0.000310425960159202
0.000242061683240107
0.000201071048714279
0.000179825036299242
0.000173077265129133
0.00017739168382169
0.000190360244205339
0.000210291936897698
0.000235913374329429
0.000266238942392792
0.000300470254094301
0.000337945320677828
0.000378103065637675
0.000420466265744752
0.000464626346839535
0.000510226687975801
0.000556935191725902
0.00060444588875109
0.000652522017105944
0.000700926564930609
0.000749423051599282
0.000797765413021072
0.000845715768976777
0.000893058576773128
0.000939597480211937
0.000985151781446318
0.00102955323665718
0.00107264627261142
0.00111428890379856
0.00115435346231522
0.0011927262461914
0.00122930698913198
0.00126400903168228
0.00129675863717526
0.00132749330745288
0.00135615993863325
0.00138271340241668
0.00140711464259959
0.00142932832036723
0.00144932073680678
0.0014670580904127
0.00148250476681217
0.00149562207334761
0.00150636681991949
0.00151468992909664
0.00152053370923315
0.00152382752923387
0.00152448555992386
0.00152240730707879
0.0015174883517343
0.00150963071412909
0.00149874741006116
0.00148477198907127
0.0014676743668131
0.0014474878109232
0.00142435329440425
0.00139857674600892
0.00137071428304463
0.00134165242555481
0.00131272384457668
0.00128570675390186
0.001262805149499
0.00124606456479993
0.00123640253913791
0.00123068268927045
0.00121859206056635
0.00117002297980246
0.00105266197030201
0.000774658472532501
0.000294529876010482
0.000106253478187473
0.000225125858620039
0.000491332141895117
0.000944802904366101
0.00160379385763988
0.00245922865654182
0.00348611892930594