/*--------------------------------*- C++ -*----------------------------------*\
  =========                 |
  \\      /  F ield         | OpenFOAM: The Open Source CFD Toolbox
   \\    /   O peration     | Website:  https://openfoam.org
    \\  /    A nd           | Version:  7
     \\/     M anipulation  |
\*---------------------------------------------------------------------------*/
FoamFile
{
    version     2.0;
    format      ascii;
    class       volSymmTensorField;
    location    "20000";
    object      tauij_B_bouss;
}
// * * * * * * * * * * * * * * * * * * * * * * * * * * * * * * * * * * * * * //

dimensions      [0 2 -2 0 0 0 0];

internalField   nonuniform List<symmTensor> 
15600
(
(1.66465847622338e-06 -2.34241575909814e-09 2.96410656018902e-28 1.66476245562847e-06 -3.23461055358298e-30 1.66470316170341e-06)
(6.65264542728792e-07 -1.02409097489544e-09 -2.67644947913676e-30 6.66327952597111e-07 -2.67488557227978e-31 6.658000282565e-07)
(8.86423752926254e-08 3.76134361937679e-11 5.2837891999259e-28 8.83640571311634e-08 -1.2255737252812e-27 8.85016947088171e-08)
(3.75511527824173e-08 -8.60748176024746e-12 -4.41545157723561e-28 3.74562758900433e-08 -8.70405964271273e-28 3.75031976102647e-08)
(3.46948643783254e-08 -5.90603844095251e-12 2.62933227552984e-29 3.46637108559558e-08 -1.32502660685363e-30 3.46791878094928e-08)
(3.17063541237641e-09 -4.77071053538243e-13 -2.70440567401749e-29 3.16871424589148e-09 -2.14391014204046e-29 3.16966939668318e-09)
(1.65075656308961e-09 -2.26440837074616e-13 2.17461533494344e-29 1.64993044073131e-09 1.07356914139322e-29 1.65034218817424e-09)
(2.36181295216368e-09 -3.19660185126641e-13 -9.01862063545212e-29 2.3606556241839e-09 -5.13277913997556e-29 2.36123369710292e-09)
(3.37505615794028e-09 -5.07156676263527e-13 -2.98977417583178e-28 3.37313961053542e-09 -2.05226455624643e-28 3.37409963847774e-09)
(5.28837045006681e-09 -9.62472831554106e-13 3.12728112956359e-28 5.28454114375676e-09 1.84605437530094e-28 5.28645934729852e-09)
(8.41299073912954e-09 -1.87446716745736e-12 8.89583946700175e-28 8.40521056640062e-09 5.9229622731353e-28 8.40911122272324e-09)
(1.34253410219885e-08 -3.73968713438639e-12 8.55342941228176e-29 1.34092231642703e-08 -1.64998916756688e-29 1.34172969473206e-08)
(2.10424227251973e-08 -7.01626333385609e-12 -4.0735128588981e-27 2.10113008244826e-08 -2.97488749967138e-27 2.1026880512714e-08)
(3.18925149229708e-08 -1.16904067844921e-11 -1.98752527984412e-27 3.18384691339618e-08 -1.39889405563845e-27 3.18655053555317e-08)
(4.68209333816139e-08 -1.62230503274428e-11 9.89226306133003e-29 4.67380121622069e-08 -3.23099738164399e-29 4.6779515316062e-08)
(6.79092636371192e-08 -1.76152826919575e-11 -5.46771282306018e-27 6.77988130383014e-08 -4.03964970050205e-27 6.78542276943992e-08)
(9.31902338233531e-08 -1.04045635595072e-11 2.39272831239336e-26 9.30858605640928e-08 2.23906805694143e-26 9.31386949741993e-08)
(1.17125957957154e-07 1.9949826854403e-12 1.24557504800168e-26 1.17103252854163e-07 1.19873916357246e-26 1.17116226764766e-07)
(1.28336645328373e-07 -6.50345675310327e-12 -4.40760862826609e-26 1.28477537724603e-07 -5.52202656156223e-26 1.28409662187012e-07)
(1.08906006689538e-07 -5.26652498964477e-11 5.92656116169021e-29 1.09133381900167e-07 8.116089323993e-29 1.09022441680174e-07)
(6.60276016366087e-08 -7.92338347646941e-11 9.14624783891396e-27 6.61572146348369e-08 2.4125048601908e-26 6.60937360064491e-08)
(3.61513060216544e-08 -4.94318796415225e-11 -1.4284931684655e-28 3.61638037065351e-08 -1.09481299891876e-27 3.61582162153748e-08)
(4.27593182809244e-08 -4.11659868642697e-11 -2.24873536792998e-28 4.27568937422932e-08 2.61102049301816e-29 4.27584129475639e-08)
(7.14483525377951e-08 -5.22577827815501e-11 4.88502607508582e-30 7.14432914831606e-08 1.51177226772089e-28 7.14465082555418e-08)
(1.14555573049911e-07 -2.10415463768404e-11 -2.88904023257416e-29 1.14542763214433e-07 -2.99372528779856e-28 1.1454995026382e-07)
(1.78411093728897e-07 1.04858426421047e-10 2.98825478845937e-29 1.78383800240781e-07 8.13051225017093e-29 1.78398738942875e-07)
(2.67385778960085e-07 4.25641404857983e-10 1.37867648740391e-30 2.67336002387259e-07 2.90033272349897e-28 2.67362749687534e-07)
(3.82364274878649e-07 1.03746529790713e-09 -8.7118527657117e-30 3.82285261117051e-07 -4.1730645646038e-28 3.8232780371269e-07)
(5.21778855598592e-07 2.02457019127071e-09 5.76551196795726e-29 5.21667112299113e-07 5.59137640208811e-28 5.21727586103239e-07)
(6.81977616448271e-07 3.42205700961376e-09 -5.9449363501177e-29 6.81832923008901e-07 1.08356478095191e-29 6.81912157355163e-07)
(8.59099365843389e-07 5.23443097658419e-09 2.74437951441986e-40 8.58923666547385e-07 -4.84073603688125e-41 8.59021225725321e-07)
(1.04949123651936e-06 7.4373168849896e-09 -0 1.04928734351558e-06 -0 1.0494024569868e-06)
(1.25031330545361e-06 9.99836110446733e-09 -0 1.25008419945433e-06 -0 1.25021584605893e-06)
(1.4592539665023e-06 1.28787194168554e-08 1.3925110015729e-28 1.45900250555134e-06 -7.03070025133392e-23 1.45914968921474e-06)
(1.67451346722882e-06 1.60401529543476e-08 -2.62709496106578e-29 1.67424241787985e-06 -8.39468423172475e-23 1.67440403911528e-06)
(1.89454370630361e-06 1.94432549400848e-08 -3.3148330155281e-28 1.89425580647701e-06 -2.22486636353535e-27 1.89443068843965e-06)
(2.11801014076637e-06 2.30493516059878e-08 4.2054876532413e-28 2.11770818355225e-06 -5.80568003688487e-29 2.1178949891111e-06)
(2.34368880115525e-06 2.68194994671213e-08 8.85543304914006e-24 2.34337566292763e-06 -1.13844630492422e-24 2.34357290750234e-06)
(2.5704635825648e-06 3.07153907944359e-08 2.7776770248117e-23 2.57014223992124e-06 -1.78447161364076e-22 2.57034827280686e-06)
(2.7972929230201e-06 3.46991582019602e-08 9.471058092823e-24 2.79696644383609e-06 -1.92936357281328e-22 2.7971794680262e-06)
(3.02321073773916e-06 3.87339026813431e-08 -1.20218325424755e-23 3.02288226830215e-06 1.40873546651767e-24 3.023100350126e-06)
(3.24731332841307e-06 4.27837419658393e-08 3.46972228416129e-28 3.24698607929683e-06 7.63968321721081e-27 3.24720716680118e-06)
(3.46875455403914e-06 4.68140289036665e-08 -5.91595667128132e-28 3.46843178510287e-06 -5.87602787653045e-27 3.46865372358649e-06)
(3.68673840131133e-06 5.07914238394099e-08 4.56084941904273e-28 3.68642340513752e-06 3.53577268249534e-27 3.68664395548564e-06)
(3.90051734401506e-06 5.46840806186533e-08 1.86824840632065e-23 3.90021341587003e-06 -1.64448814614124e-24 3.90043027779536e-06)
(4.10939881085717e-06 5.84620217695253e-08 5.41233898239917e-23 4.10910919264802e-06 -6.18084178628297e-22 4.10932004541221e-06)
(4.31276706954841e-06 6.20977675519531e-08 1.51449473150097e-23 4.31249490063656e-06 -6.66451688038819e-22 4.31269743929026e-06)
(4.51010739036916e-06 6.55668830039902e-08 -2.26713122148093e-23 4.50985567157625e-06 1.74195283582919e-24 4.51004763745732e-06)
(4.70103861454514e-06 6.88485998313417e-08 -6.88447537372555e-28 4.70081017257241e-06 1.96777023256711e-28 4.70098938505515e-06)
(4.88537890464618e-06 7.19269067355332e-08 -3.14046166534661e-28 4.88517635480563e-06 -4.55604255409098e-27 4.88534074345323e-06)
(5.06323496970802e-06 7.47919934971668e-08 3.78377740461748e-28 5.06306070117025e-06 -2.22470052486053e-29 5.06320831584875e-06)
(5.23490135177206e-06 7.74388281912631e-08 -3.20249440353792e-39 5.23475751814439e-06 3.42829130871925e-27 5.23488653527537e-06)
(5.40041174048201e-06 7.98605717597465e-08 -4.59889707390544e-39 5.40030027098175e-06 -3.53495809755362e-27 5.40040900187805e-06)
(5.5577914877231e-06 8.20221201246893e-08 1.2657591468462e-28 5.5577141164854e-06 -3.88540733094453e-27 5.55780098551762e-06)
(5.70522341993679e-06 8.38928394925461e-08 9.28734016199336e-29 5.70518158583388e-06 7.6611181408753e-27 5.70524520062616e-06)
(5.84222938929055e-06 8.54641408459437e-08 -2.70739153187454e-28 5.84222420204025e-06 -4.21771058057148e-27 5.84226338525678e-06)
(5.96862799003787e-06 8.67338675755374e-08 -1.71203176834469e-28 5.96866023607476e-06 -1.8174215718087e-27 5.96867403026748e-06)
(6.08429864906941e-06 8.77026975978471e-08 1.72390977199888e-28 6.08436879513017e-06 1.38288081401923e-27 6.08435646602225e-06)
(6.18918038722812e-06 8.83739790050618e-08 1.24514028341443e-28 6.1892885888954e-06 9.63307234762642e-28 6.18924962456574e-06)
(6.28326796533311e-06 8.87535077248769e-08 4.911931477192e-23 6.28341407908192e-06 4.61025217558161e-31 6.28334818641441e-06)
(6.36660892003097e-06 8.88493030914532e-08 1.02167163814733e-22 6.36679252006442e-06 -1.67717798495538e-22 6.36669961749115e-06)
(6.43929890010422e-06 8.86713403670521e-08 5.86716404143179e-25 6.4395192993215e-06 -1.7742295601948e-22 6.4393995063742e-06)
(6.50147565128762e-06 8.82312600895645e-08 -5.21956637803736e-23 6.50173192431772e-06 -6.0848285210237e-25 6.50158554916214e-06)
(6.55331325769982e-06 8.75420857100638e-08 -2.8252224567428e-28 6.55360426495735e-06 -8.42417422518404e-27 6.55343179057127e-06)
(6.59501584961273e-06 8.66179419159804e-08 5.973632494579e-28 6.59534026216142e-06 6.29705445903567e-27 6.59514233146346e-06)
(6.62681174433647e-06 8.54737866979273e-08 -2.28298504519838e-28 6.62716806977828e-06 1.90314145397314e-27 6.62694546950855e-06)
(6.64894629098253e-06 8.41251394203041e-08 -5.94104519344401e-28 6.64933289861849e-06 -1.19096985314062e-26 6.64908654328036e-06)
(6.6616747189165e-06 8.25878293236698e-08 4.12512207478338e-28 6.66208986415303e-06 -1.38610490418989e-28 6.66182077997288e-06)
(6.6652543584166e-06 8.08777548308626e-08 -4.61616805851127e-39 6.66569620615833e-06 6.96609084387022e-27 6.66540551546693e-06)
(6.65993536348436e-06 7.901064689491e-08 6.36301846137879e-39 6.66040201004014e-06 3.3670663194275e-40 6.66009091628693e-06)
(6.64594927630013e-06 7.70018364257432e-08 -0 6.64643876817337e-06 -0 6.64610854282633e-06)
(6.62349673042782e-06 7.48660491355844e-08 -6.95288719119373e-23 6.62400707941293e-06 -4.92081174499611e-24 6.62365905081769e-06)
(6.59273195486313e-06 7.26172112570692e-08 -1.11602076002607e-22 6.59326114639082e-06 2.41102651481004e-22 6.59289669277396e-06)
(6.55374938680924e-06 7.02683386697662e-08 2.85666043738322e-23 6.55429538128571e-06 2.83752299463681e-22 6.55391592774748e-06)
(6.50657029191282e-06 6.78314841853246e-08 6.88307025620456e-23 6.50713101672846e-06 5.68172611777289e-24 6.50673803754952e-06)
(6.45113469031574e-06 6.53178090100759e-08 -7.09779009738735e-28 6.45170802352527e-06 -3.6577144509725e-27 6.45130305007297e-06)
(6.38729945227884e-06 6.27377363430091e-08 -1.25568552660696e-27 6.38788320685477e-06 -1.23242455579359e-26 6.38746783432028e-06)
(6.31482996091307e-06 6.01010482058394e-08 9.68546731657003e-28 6.31542186744309e-06 -1.64361098471639e-26 6.31499776486332e-06)
(6.2333909874375e-06 5.74169474421251e-08 -7.47912466773029e-23 6.23398868997269e-06 -8.33869145191027e-24 6.23355760146162e-06)
(6.14250920327994e-06 5.46938483139408e-08 -1.05101232481165e-22 6.14311024445399e-06 2.6930921188091e-22 6.14267399825155e-06)
(6.04152965580944e-06 5.19392625630262e-08 4.28074363896108e-23 6.04213144583009e-06 3.31853082851698e-22 6.04169197325227e-06)
(5.929574421765e-06 4.9159805393121e-08 7.09637626482714e-23 5.93017419215524e-06 8.72838136766323e-24 5.92973355350422e-06)
(5.80549852069236e-06 4.63613558418602e-08 -2.03245595791548e-27 5.80609325009004e-06 3.2750340391313e-26 5.80565368087783e-06)
(5.66788277243289e-06 4.35495772385566e-08 1.61165291070183e-27 5.66846911075427e-06 -2.44962642142984e-26 5.66803306034888e-06)
(5.51502594436091e-06 4.07305388761041e-08 2.29513638334303e-27 5.51560010900402e-06 -8.59719223553399e-27 5.51517030905774e-06)
(5.34505212298138e-06 3.79119481866253e-08 -1.87299852862361e-27 5.34560984374761e-06 1.03509353951438e-21 5.34518931935722e-06)
(5.155995549194e-06 3.51042383634346e-08 -1.61758071672385e-36 5.15653197687399e-06 9.8989568372017e-22 5.15612412671683e-06)
(4.94623576693309e-06 3.23228572856915e-08 1.8539267410463e-27 4.94674558847359e-06 3.05208467267868e-28 4.94635404636096e-06)
(4.71472927680667e-06 2.95894029384108e-08 2.75828179355779e-28 4.71520671276969e-06 2.20689679500808e-26 4.71483544572684e-06)
(4.46225787434814e-06 2.6935520376115e-08 -3.37596027078142e-27 4.46269730796113e-06 -3.41861142873545e-28 4.46235001976464e-06)
(4.19156900121426e-06 2.44024301963208e-08 -5.99017755158676e-23 4.19196503541603e-06 -1.09102757701812e-23 4.19164545813048e-06)
(3.91037736318267e-06 2.20479624141055e-08 -6.75815507815945e-23 3.91072657961906e-06 1.06217738854128e-21 3.91043674307869e-06)
(3.62980348601012e-06 1.9940087344955e-08 4.05162161784087e-23 3.63010400065343e-06 1.04481563780922e-21 3.62984553271104e-06)
(3.37111055466501e-06 1.81722434189044e-08 4.72486678097169e-23 3.37136650439079e-06 9.16078289739e-24 3.37113586514215e-06)
(3.15615660025778e-06 1.68317310964774e-08 -1.2401180517026e-27 3.15637881695964e-06 2.15142681948192e-26 3.1561713545703e-06)
(3.02404302304738e-06 1.59987010132014e-08 -0 3.02425974802003e-06 2.1295135432757e-26 3.02405341430692e-06)
(2.98062653455764e-06 1.56105902389608e-08 -8.9124353724827e-23 2.98092400008356e-06 -1.94094954894257e-23 2.98068179425111e-06)
(2.97687400320316e-06 1.44310498877353e-08 -1.04039058168108e-22 2.97750438476026e-06 3.5940092122969e-22 2.97709748381695e-06)
(2.62685998148226e-06 9.7618960030305e-09 3.55916058325577e-23 2.6306040890588e-06 4.57464144842932e-22 2.62865409027812e-06)
(1.87567182574865e-06 4.28409291584046e-09 5.60832974553387e-23 1.88296571428753e-06 1.18159308772221e-23 1.87930971797212e-06)
(1.62954373707273e-06 2.14953862983696e-09 1.29499634360922e-25 1.63839975477721e-06 2.44991418933538e-26 1.63397338645325e-06)
(1.71529060127023e-06 7.71519289769052e-10 4.00824838670401e-24 1.72573060410752e-06 -4.91003673983636e-24 1.72052564398665e-06)
(1.89208373752082e-06 -4.01543124211444e-10 2.07594029391673e-24 1.90342519441246e-06 -2.17469071247588e-24 1.89778889633949e-06)
(2.134905688483e-06 -1.31244656880656e-09 5.97838921236391e-25 2.14660073322482e-06 1.45274994868843e-25 2.14080704352602e-06)
(2.41791771982423e-06 -1.83754467149509e-09 -4.55984101657891e-24 2.42919587481742e-06 3.31806964270056e-24 2.42362495730906e-06)
(2.69296085655136e-06 -1.92720536262682e-09 -5.05107342910346e-26 2.70278902265628e-06 -1.23749948080092e-26 2.69795041144346e-06)
(2.93836144994657e-06 -1.5663608421211e-09 -1.12864862327793e-24 2.94555340407147e-06 7.56728783949043e-25 2.94202528323776e-06)
(3.04697381765242e-06 -8.195366818572e-10 2.73683519506478e-24 3.05044108266601e-06 -1.90882558077337e-24 3.04875630726444e-06)
(2.94041063247606e-06 5.5426143008574e-11 -4.09042924801683e-24 2.93985684373793e-06 2.63222387699945e-24 2.94015496391404e-06)
(2.66227833702764e-06 7.6594938270138e-10 -3.83391390719389e-24 2.65871930620341e-06 2.38861119996844e-24 2.66049912952873e-06)
(2.32589716355873e-06 1.24220928797485e-09 5.01023541237965e-28 2.32059020262292e-06 -2.66138588505498e-28 2.32322726740163e-06)
(1.9784300609169e-06 1.46650039794327e-09 -3.61062117989041e-28 1.9725929533091e-06 1.70268160432907e-28 1.97548882780172e-06)
(1.73341485380824e-06 1.61651001765396e-09 6.35846523357036e-25 1.72735835280259e-06 -3.75323535899882e-25 1.73035624096434e-06)
(1.61209235566e-06 1.79087625982468e-09 1.13471142735398e-28 1.60540953432648e-06 -6.13989666069147e-29 1.60871178308965e-06)
(1.67275362843734e-06 2.10579506351101e-09 3.35301810680575e-25 1.664153233733e-06 -2.10081668684003e-25 1.66839652402907e-06)
(2.08312371189685e-06 2.76550897070817e-09 -6.11643585423512e-26 2.06871687659862e-06 1.17519630407357e-25 2.07581825423379e-06)
(3.83621308752306e-06 3.78934547584445e-09 -2.14595002576992e-25 3.79347626426288e-06 4.15169094808764e-25 3.81451388283248e-06)
(5.94334290359876e-06 -1.71589809942266e-08 3.03179614278919e-26 5.8239362294891e-06 -3.99480297201882e-26 5.88283128654403e-06)
(3.62128335418115e-06 -3.45782630806103e-08 9.32393683440018e-28 3.58193133903113e-06 -1.58499206611e-29 3.60146821810482e-06)
(1.96209520609757e-06 -4.7190748656801e-09 -8.5180717793521e-31 1.96143294765797e-06 -3.56516979585263e-30 1.96175728178556e-06)
(5.37356157884273e-05 -6.830804611701e-07 -5.46309454943107e-26 5.37445496047318e-05 6.45377995264811e-28 5.37370648538844e-05)
(2.1549143498955e-05 -2.12685044546032e-07 -2.94927142014741e-26 2.17452159832335e-05 -9.62262947753619e-28 2.16480068730293e-05)
(3.01684605973631e-06 4.66173971004051e-09 -4.779436205917e-25 2.97180915000343e-06 4.35530984069898e-25 2.99462386461741e-06)
(1.24428843734607e-06 -1.50171760252294e-09 -1.82541808864684e-25 1.22752944897847e-06 -5.6130910191792e-26 1.23597173779769e-06)
(1.14977011680026e-06 -1.01900795108757e-09 -2.86398415551428e-23 1.14386104958171e-06 -1.94325243388396e-23 1.14683718949682e-06)
(1.19981602769074e-07 -9.98589894801483e-11 -3.70650540389832e-24 1.19565277973541e-07 -2.28220691026698e-24 1.19774449417975e-07)
(5.48580740421827e-08 -4.23641052469703e-11 -1.79762433050862e-26 5.46993178303309e-08 -1.00790857241543e-26 5.47789448539391e-08)
(7.65320894835905e-08 -5.9232944378438e-11 1.42864338758385e-26 7.63131312930728e-08 9.78530214148069e-27 7.64226141898653e-08)
(1.08963751850451e-07 -9.49033459487839e-11 -3.55796788575965e-26 1.08601380299356e-07 -1.57336456071415e-26 1.08782387672588e-07)
(1.70268571534231e-07 -1.80340213407721e-10 -1.3130595777096e-25 1.69549190624491e-07 -9.77719524468979e-26 1.6990802831222e-07)
(2.70527955037914e-07 -3.51366843310314e-10 -1.60633948970272e-25 2.69072944363331e-07 -1.18435102244389e-25 2.69798836936035e-07)
(4.31599235052564e-07 -6.94917149322551e-10 -4.01250838553609e-25 4.28621276783075e-07 -2.02055544242863e-25 4.30107523146648e-07)
(6.7699670403586e-07 -1.28325704395526e-09 7.97397284805145e-26 6.71304074814975e-07 1.88476131231795e-25 6.74148063334172e-07)
(1.02739440769241e-06 -2.09167279248572e-09 -6.30515494482859e-25 1.0175607383201e-06 -4.90935030413676e-25 1.0224752208669e-06)
(1.50903824270586e-06 -2.81246008448246e-09 -3.71235186577799e-26 1.49386425208918e-06 4.08424328269509e-27 1.50144410200008e-06)
(2.19010595783711e-06 -2.84644870161606e-09 -2.01417174702117e-24 2.16930163573556e-06 -1.51739449165097e-24 2.17966852926293e-06)
(3.01006930846133e-06 -1.09971204567462e-09 -3.81377085454185e-24 2.98810075950745e-06 -4.29254541097213e-24 2.99895225961643e-06)
(3.79214051543014e-06 2.177624374145e-09 3.69723005472518e-24 3.78031227473267e-06 5.1156405954816e-24 3.78592635360428e-06)
(4.17191835668033e-06 2.62286272730037e-09 -1.31230432588602e-24 4.18438997851935e-06 -2.29094772156595e-25 4.17763059882405e-06)
(3.56198904219135e-06 -4.30882012900697e-09 1.66941182567435e-24 3.59168567452418e-06 -4.17723301851653e-25 3.57639485000894e-06)
(2.16434282657712e-06 -1.05150039760659e-08 -3.51328027753206e-24 2.18322601326523e-06 -9.04760599410236e-24 2.17350491839264e-06)
(1.17590881782231e-06 -7.07900646674849e-09 -2.52909997045562e-25 1.17734026223961e-06 -4.34989263345718e-25 1.17656878528916e-06)
(1.397467332643e-06 -4.78560397179987e-09 6.7034821804382e-26 1.39638724000647e-06 2.22317393277612e-27 1.39680478116801e-06)
(2.33529162634197e-06 -2.53114120851457e-09 -3.59316134722451e-27 2.33262014066206e-06 -6.07382031145891e-27 2.33387216598892e-06)
(3.74212295842596e-06 1.07909871773604e-08 2.72932269686085e-27 3.73500098864809e-06 -1.30425826972363e-26 3.73838809956656e-06)
(5.82361539022185e-06 4.6868942656346e-08 4.81065171392757e-27 5.80862838910281e-06 3.69812127767087e-26 5.81593012182498e-06)
(8.71977620153748e-06 1.23489083149446e-07 -6.73728547512157e-27 8.69326005328216e-06 -1.28332898757135e-25 8.70620546716965e-06)
(1.24566216276245e-05 2.56022948573045e-07 -3.39230914571246e-38 1.2416254435244e-05 1.8229368049295e-25 1.24359925263954e-05)
(1.69812364960351e-05 4.55348497468499e-07 -4.78065532100065e-38 1.69265844161125e-05 -1.04843918678861e-25 1.695317741202e-05)
(2.21739386074539e-05 7.23878571743624e-07 1.78537218838785e-38 2.21063107292202e-05 1.80746587437912e-25 2.21390085366584e-05)
(2.79094650505763e-05 1.05907691469428e-06 2.13433300560286e-41 2.78310229656197e-05 -4.47108594188292e-25 2.78685900885914e-05)
(3.40697198434258e-05 1.45471315723227e-06 -0 3.39828679861081e-05 -4.18388457287256e-27 3.40240019283136e-05)
(4.0563242975344e-05 1.9038675590768e-06 -9.54387470693933e-22 4.04702323029541e-05 1.51501648865176e-22 4.05137010774753e-05)
(4.73155888820205e-05 2.39920279672278e-06 -3.51328761395549e-21 4.72184399155693e-05 1.17550952389011e-20 4.72631675116015e-05)
(5.4268859717039e-05 2.93377774485025e-06 -1.68563989095774e-21 5.41693637332877e-05 1.2781553304215e-20 5.4214401230444e-05)
(6.13732126883756e-05 3.50075145459019e-06 1.5020874463863e-21 6.12729848155444e-05 -2.20390552199044e-22 6.13175015563441e-05)
(6.85857095474959e-05 4.09356941789409e-06 5.65517987359282e-26 6.8486220716126e-05 5.46021532072262e-25 6.85294765718422e-05)
(7.5866974658441e-05 4.70580831757122e-06 -4.29839465112887e-21 7.57695761285816e-05 5.55487212952172e-22 7.58109151722505e-05)
(8.31811393631565e-05 5.3312768001538e-06 -1.35468397746635e-20 8.30870732225753e-05 -1.06216000895166e-21 8.31259131992723e-05)
(9.04947557031232e-05 5.96398185071461e-06 -4.66877881836318e-21 9.04051620756976e-05 -3.77028505367036e-21 9.04409917926024e-05)
(9.77768335136964e-05 6.59818870666398e-06 5.68175979120923e-21 9.76927543445052e-05 -6.67762199823392e-22 9.77251288189031e-05)
(0.000104998409969466 7.22842140176836e-06 8.81910378050156e-26 0.00010492079458257 -8.37394796762803e-25 0.000104949331205395)
(0.000112132393326326 7.84948452354771e-06 -9.8736952888777e-26 0.000112062102782484 4.42636868826563e-25 0.000112086476954528)
(0.000119153320056635 8.4564703323883e-06 1.65000648104481e-25 0.000119091130158305 6.00133581878447e-25 0.00011911107206928)
(0.000126037302696791 9.04478327783112e-06 -1.29071306580542e-20 0.000125983900733418 1.13650204159628e-21 0.000125999194759192)
(0.000132762237239892 9.61018554078916e-06 -4.04741180400576e-20 0.000132718212337783 3.63636475829602e-20 0.000132728700159004)
(0.00013930850350172 1.01488768362676e-05 -1.37746180612797e-20 0.000139274341517017 3.45763458776359e-20 0.000139279922320694)
(0.000145659735081465 1.06575651406552e-05 1.5484723333811e-20 0.000145635819492872 -1.18429500631625e-21 0.000145636447419762)
(0.000151803861164855 1.11335481684432e-05 -8.21450091965093e-26 0.000151790476094214 8.08475200700669e-25 0.00015178615628413)
(0.000157735219672173 1.15748666300046e-05 6.56285473473375e-37 0.000157732556267132 8.34645047006046e-25 0.000157723336812649)
(0.000163457437791236 1.19805117818837e-05 5.2313896954589e-26 0.000163465597476038 -2.76825160171039e-27 0.000163451563967052)
(0.000168980196813022 1.23501773965308e-05 2.8775156762636e-26 0.000168999172778183 2.54319693839678e-26 0.000168980463493508)
(0.000174304814750189 1.26832849912364e-05 -2.00804732326258e-25 0.000174334509248223 -1.85300438442152e-26 0.000174311310173035)
(0.000179335052227419 1.29725002816955e-05 6.27445727570897e-26 0.00017937528056211 -6.21760242132268e-25 0.000179347819047614)
(0.000184036497312689 1.321529029733e-05 1.31488589006191e-25 0.000184086978900191 3.47342162063844e-25 0.000184055518427423)
(0.000188402944424017 1.34114549136936e-05 -1.89898439897011e-25 0.000188463314378176 -3.52583297637367e-26 0.000188428149305954)
(0.000192429020849184 1.35611291777008e-05 1.05462193148818e-25 0.000192498839831419 3.18053328243778e-25 0.000192460290187522)
(0.000196111267594743 1.36648396086536e-05 4.80913079606779e-26 0.000196190029917976 1.89216486349123e-25 0.00019614843644768)
(0.000199448095876555 1.37234768778321e-05 -3.74762428119762e-26 0.000199535238772728 -1.7625028560359e-25 0.000199490957698537)
(0.000202439662090065 1.37382598915901e-05 -1.22993201470167e-20 0.000202534575123 -0 0.000202487973108035)
(0.000205087768740427 1.37107008604179e-05 -2.21942026577308e-20 0.00020518980370207 -1.19246116417948e-19 0.000205141252761037)
(0.000207395712446968 1.36425656840373e-05 3.25912324396738e-21 0.000207504193462051 -1.23745712283427e-19 0.00020745406597749)
(0.000209368091847196 1.35358317011357e-05 1.31176476487962e-20 0.000209482325011013 1.53844343999652e-22 0.000209430989166014)
(0.000211010625351113 1.33926480101588e-05 -4.18988858953717e-26 0.000211129907709892 3.91355213703742e-25 0.000211077723404181)
(0.000212329951696317 1.32152956735494e-05 1.38443752226355e-25 0.000212453579635361 4.28924287737106e-26 0.000212400894840023)
(0.000213333443422263 1.30061509935856e-05 -2.52076624899271e-25 0.000213460720557822 -9.67416923932478e-25 0.000213407867992973)
(0.000214028981755342 1.27676486920822e-05 -4.03042703032556e-26 0.000214159225939877 8.99642460567853e-25 0.000214106520296481)
(0.000214424730619706 1.25022479221878e-05 2.18974441697395e-25 0.00021455728015264 1.05344027550208e-24 0.00021450501574035)
(0.000214528890875557 1.2212400494862e-05 8.94894821828253e-26 0.000214663109973946 7.02298591111462e-26 0.000214611558770889)
(0.000214349406399629 1.19005198295943e-05 -1.10115665088662e-25 0.000214484689793059 -1.08208815069361e-24 0.000214434099896255)
(0.000213893603413251 1.15689507558903e-05 -2.41476820331037e-25 0.000214029379624534 -1.5617593389676e-26 0.000213979974338041)
(0.00021316780193446 1.12199442943907e-05 1.76591377989129e-20 0.000213303534988232 1.24354861980456e-21 0.000213255512563554)
(0.000212176829187091 1.08556332705731e-05 2.58211126426873e-20 0.000212312017869376 1.67645932567428e-19 0.000212265552389679)
(0.00021092359957322 1.04780210507345e-05 -9.98583128089164e-21 0.000211057774090446 1.65462780465588e-19 0.00021101301746896)
(0.000209408697411371 1.00889772655177e-05 -1.79925270157967e-20 0.000209541412962342 -1.48332810387419e-21 0.000209498498290059)
(0.000207630129472173 9.69024971670734e-06 -3.9210082457487e-25 0.000207760957596173 6.69664998981119e-26 0.000207720003631719)
(0.000205583257602589 9.28348696353213e-06 -1.54063574145872e-26 0.000205711778187382 -2.09190449863428e-25 0.000205672893148077)
(0.000203260536798588 8.87025060240559e-06 1.37428174544662e-25 0.000203386330993591 -8.33565210619381e-26 0.000203349616307569)
(0.00020065119624117 8.45202463158084e-06 1.92797531712811e-20 0.000200773843389386 2.15387339446732e-21 0.000200739394834112)
(0.000197740055890201 8.03019141867463e-06 2.54763024986269e-20 0.000197859127144485 1.79790286978158e-19 0.000197827037648144)
(0.000194506150245739 7.60601846508309e-06 -1.31160048170438e-20 0.000194621196491915 1.72286933958016e-19 0.000194591561530078)
(0.000190921412589255 7.18066391402663e-06 -1.90947898724346e-20 0.000191031946687069 -2.35785214840381e-21 0.000191004871648985)
(0.000186949301507926 6.75519832238358e-06 7.22748410793699e-25 0.000187054771804315 2.89900473752832e-25 0.000187030384540248)
(0.000182544538768082 6.33067690407671e-06 -1.05030827351337e-24 0.000182644300397646 9.6154619024054e-24 0.00018262276274641)
(0.000177652911825641 5.9082117159938e-06 1.69599564264538e-20 0.000177746191004693 2.48319032678564e-21 0.000177727717781008)
(0.000172214551836925 5.48913864038412e-06 2.25915684113886e-20 0.00017230042152154 -1.49157643846941e-19 0.000172285287531058)
(0.000166166789196868 5.07512085116129e-06 -1.0165091850419e-20 0.000166244140969116 -1.56496117840172e-19 0.000166232704608193)
(0.000159457537492503 4.66847242152838e-06 -1.50936085998858e-20 0.000159525106277744 -2.38623972622221e-21 0.000159517784423411)
(0.000152053261682464 4.27219285512446e-06 1.6857714557054e-36 0.000152109639672278 -8.8448070278624e-24 0.000152106938353229)
(0.000143977327686957 3.89059737456782e-06 4.68485502197553e-25 0.000144021132312872 3.79203502339381e-26 0.000144023520891784)
(0.000135316729095231 3.52895128544067e-06 3.01940170639143e-20 0.000135346670128012 5.50271383887589e-21 0.000135354667928651)
(0.000126313747672157 3.19485208040882e-06 3.46042588819064e-20 0.000126329074114478 1.37398219982965e-20 0.000126342881935694)
(0.000117323478826245 2.89653945108248e-06 -2.07587740774511e-20 0.000117323983522691 -6.20961947343666e-21 0.000117343830647644)
(0.00010901641086412 2.64633879168725e-06 -2.47081867282693e-20 0.00010900364339339 -4.7934114083955e-21 0.000109028675559438)
(0.00010209129099971 2.45349298623946e-06 7.71989376702176e-25 0.000102069343480724 2.88845549674672e-25 0.000102098465929359)
(9.77642331041636e-05 2.33150060994376e-06 -6.03479464636989e-25 9.77447530431458e-05 3.54187646690586e-27 9.77712557995252e-05)
(9.6211912243399e-05 2.2530445442819e-06 2.37394202253387e-20 9.6233133642046e-05 5.16425039092994e-21 9.62427390244747e-05)
(9.57629323525443e-05 2.08378710963604e-06 2.81502070931975e-20 9.59204603579336e-05 2.2063476241571e-19 9.58636457256001e-05)
(8.43996461938165e-05 1.54885765868033e-06 -3.37061784868308e-20 8.51061344334248e-05 1.84660494603779e-19 8.47581184417439e-05)
(6.04772751500408e-05 7.74489299088829e-07 -1.59100132037711e-20 6.17980555092969e-05 -4.17389348298408e-21 6.11429523456861e-05)
(5.26035362221899e-05 3.89338589260626e-07 4.11775157302792e-22 5.41299014711633e-05 -8.71644426748749e-22 5.33676043061614e-05)
(5.55237948222103e-05 1.39021375752478e-07 -7.0889544136363e-22 5.72602792021142e-05 8.00834762242304e-22 5.63894381200296e-05)
(6.13866423060453e-05 -6.55409654965404e-08 -2.86539378103939e-22 6.32049629586695e-05 4.29328112278988e-22 6.22902509137845e-05)
(6.9357770184276e-05 -2.17901089369365e-07 -6.07093425101505e-22 7.11556420607562e-05 4.85408280678389e-22 7.02476138070744e-05)
(7.86000353094014e-05 -3.02135711558362e-07 1.46649284215675e-21 8.025663093472e-05 -1.05404818573538e-21 7.94164024801289e-05)
(8.75902714833052e-05 -3.1348725346291e-07 -6.51591000207688e-22 8.89526412994738e-05 4.03990552607188e-22 8.82585878895699e-05)
(9.55752542049455e-05 -2.51910829639328e-07 7.75000114134043e-22 9.64758280823616e-05 -5.54472829704104e-22 9.60135075814422e-05)
(9.90901212474622e-05 -1.28105984308145e-07 -4.39007942555339e-22 9.93881180629475e-05 3.53865065747457e-22 9.92307688450342e-05)
(9.56663698195693e-05 1.75576348103715e-08 8.29559076442585e-22 9.53493900572995e-05 -4.64577503008163e-22 9.5504027057995e-05)