/*--------------------------------*- C++ -*----------------------------------*\
  =========                 |
  \\      /  F ield         | OpenFOAM: The Open Source CFD Toolbox
   \\    /   O peration     | Website:  https://openfoam.org
    \\  /    A nd           | Version:  7
     \\/     M anipulation  |
\*---------------------------------------------------------------------------*/
FoamFile
{
    version     2.0;
    format      ascii;
    class       volVectorField;
    location    "20000";
    object      U;
}
// * * * * * * * * * * * * * * * * * * * * * * * * * * * * * * * * * * * * * //

dimensions      [0 1 -1 0 0 0 0];

internalField   nonuniform List<vector> 
15600
(
(0.0127627503411342 -0.000206262507775115 -5.20975094831677e-24)
(0.0203208440544852 -0.00518400255235755 5.82453245006834e-24)
(-0.0209274901219234 0.0148515203941293 7.14447665758819e-21)
(-0.0140813164595596 0.0161164204612359 5.56104676757548e-21)
(-0.00434605738903638 0.0061789185790465 -1.51359045104545e-22)
(-0.00259210949987828 0.0040978595413707 -1.39975203002678e-18)
(-0.00186537060836852 0.00311775980517295 -3.24096572846717e-18)
(-0.00158847534521682 0.00269642483119466 1.87874376590654e-18)
(-0.00162056636005986 0.00271951319720239 -2.1569880931229e-18)
(-0.00186542459711428 0.00306030890420991 -2.4463415934549e-18)
(-0.00217528724520341 0.00350755602182664 4.20609009065741e-23)
(-0.00262780716573454 0.00415079774081377 -2.93020077483923e-21)
(-0.00303416835731876 0.0047222116922965 -3.32215314460675e-18)
(-0.00326504695910787 0.00499876568107754 -3.63971214661755e-18)
(-0.00318085669711388 0.00473009656989005 -7.89135194966896e-21)
(-0.00268313859964085 0.00382681699507103 -4.41190969853746e-18)
(-0.00158634971008104 0.00221290177648193 0)
(0.000112897787877456 0.000210075884775763 5.46105856095489e-18)
(0.00235312064830509 -0.00165228502865162 1.18893259905632e-20)
(0.00440522070262652 -0.00240880221695278 -1.30442291734173e-20)
(0.00580150246445709 -0.00182755246847521 0)
(0.00529517592438605 -0.000226985559245383 -9.35358156398919e-19)
(0.00398929749918613 0.000116452368189126 2.88162555687992e-20)
(0.00348110360014834 9.61531258981359e-05 -2.91864062088658e-20)
(0.00178647855923275 7.8728976426087e-05 1.46837691561775e-20)
(-0.000707691147992508 7.25976175934951e-05 1.4877005573505e-20)
(-0.00412336345724585 7.44767974782915e-05 -1.48386879810399e-20)
(-0.00805810418869198 8.6225148789428e-05 1.49310836537764e-20)
(-0.0122637717686421 0.000102810294091394 -1.48792552820162e-20)
(-0.0164439653080435 0.000122207785744941 5.4525881186428e-32)
(-0.0204554705483018 0.000141669462200858 0)
(-0.0242064827938892 0.000160225647572841 0)
(-0.0276749053851769 0.000177008252134926 0)
(-0.0308587721867256 0.000191780191175552 0)
(-0.0337733951924171 0.000204342168118313 -1.62877542548637e-20)
(-0.0364357776871281 0.000214684856909794 1.62538641914931e-20)
(-0.0388643682410581 0.000222811072502945 0)
(-0.0410755662046359 0.000228786119861924 -1.7636353501681e-20)
(-0.0430843794688868 0.000232682561040744 -6.44885771555856e-16)
(-0.0449038710336406 0.000234593493569259 -6.78714742439936e-16)
(-0.0465456513039788 0.000234615684687084 9.68922446742868e-21)
(-0.0480198907918549 0.000232850214283515 -1.9696328485454e-20)
(-0.0493355596143845 0.00022939716976209 1.00079826129363e-20)
(-0.0505005276592968 0.000224354457661169 0)
(-0.0515217299365666 0.000217816256901031 -1.11063304249028e-20)
(-0.0524054163031477 0.000209879224930739 -8.1748385154338e-16)
(-0.0531574093492695 0.000200641774752682 -8.57952922067216e-16)
(-0.0537832012571663 0.000190202742544128 -1.23264111126165e-20)
(-0.0542880129602448 0.000178661637900484 -4.36325892805059e-22)
(-0.0546768533760215 0.000166120366362676 1.27544637127944e-20)
(-0.0549546040523858 0.000152676856817909 0)
(-0.0551260812830276 0.000138418998298721 0)
(-0.0551961338285374 0.000123433202948683 1.04410343762148e-31)
(-0.0551693560763982 0.000107807571744626 0)
(-0.0550503020401744 9.16429943618757e-05 -3.88696385434857e-21)
(-0.0548435720921432 7.50293479816584e-05 -1.22084973710338e-22)
(-0.0545537340960101 5.80503033514e-05 4.01022999980867e-21)
(-0.0541853203108662 4.07861083121361e-05 2.12919274027801e-21)
(-0.0537428235056903 2.33133304034071e-05 -2.12985479639319e-21)
(-0.0532306909575856 5.70475429908199e-06 0)
(-0.0526533170485572 -1.19709569313281e-05 -1.33421028927473e-15)
(-0.0520150279853699 -2.96495309480765e-05 -1.37017737126784e-15)
(-0.0513200654868919 -4.72711958330157e-05 -4.89495010463124e-21)
(-0.0505725724488824 -6.4780683724807e-05 4.89773420783145e-21)
(-0.049776580373634 -8.21271743153775e-05 0)
(-0.0489359953768282 -9.92643261385734e-05 -1.05611002743345e-20)
(-0.0480545841612342 -0.000116150067726667 1.05683278958802e-20)
(-0.0471359625595367 -0.000132746435798817 0)
(-0.0461835836083068 -0.000149019328935246 1.63059251575752e-31)
(-0.045200725128777 -0.000164938278347756 0)
(-0.0441904789426151 -0.000180476007108807 0)
(-0.0431557430742008 -0.000195608067922857 0)
(-0.04209922134749 -0.000210312119275 1.7915528860219e-15)
(-0.0410234362009306 -0.000224567328423346 1.80540652675332e-15)
(-0.0399307556107802 -0.000238353573592103 0)
(-0.0388234480918271 -0.000251650491570276 -2.61528266778947e-20)
(-0.0377037399511166 -0.000264437806346345 2.61763927292599e-20)
(-0.036573878319153 -0.0002766944925884 0)
(-0.0354361662968438 -0.000288400623610759 0)
(-0.0342929691019998 -0.000299536084177716 2.04775132000801e-15)
(-0.0331467808797754 -0.000310079688332609 2.04250850913928e-15)
(-0.0320003123643575 -0.000320009047638225 0)
(-0.0308566829529653 -0.000329297883094292 0)
(-0.0297196468916425 -0.000337919630703784 5.97492470610991e-20)
(-0.0285939978847085 -0.000345842262685235 -5.98048994520933e-20)
(-0.0274858972361941 -0.000353042513205553 0)
(-0.0264036556835844 -0.000359489156375737 0)
(-0.0253578850337358 -0.00036519152203639 -2.28352812980307e-31)
(-0.0243630624614277 -0.000370134812136051 -6.39690335036837e-20)
(-0.023436283734203 -0.000374440889495835 -7.41920959189081e-22)
(-0.0226009138656957 -0.000378124633903059 6.48109987622975e-20)
(-0.0218797280591115 -0.00038162609901901 2.43902277419109e-15)
(-0.021305088159008 -0.000384949650530504 2.39207201161133e-15)
(-0.0208912291257415 -0.00038946134499598 -6.70602046649396e-20)
(-0.0206643855392819 -0.000395074018339305 0)
(-0.020492304516953 -0.000405367276311479 0)
(-0.020371153677369 -0.000424925128406702 0)
(-0.0189102360298413 -0.000459880450550983 5.10320715151072e-15)
(-0.0139380953611591 -0.00143161979809133 5.02441273980649e-15)
(-0.0098219578313045 -0.00371578642054291 -1.86332342038317e-17)
(-0.00974665601984643 -0.00620557620159122 6.82786281294631e-20)
(-0.0100173858364138 -0.00860169841578073 -3.19869251933535e-17)
(-0.0100325615059262 -0.0104857796672709 2.90422842697446e-17)
(-0.0097733709783336 -0.0116364243053572 5.18430794000386e-20)
(-0.00903447279514634 -0.0116239714656561 -4.94615908804795e-17)
(-0.0077571001540151 -0.0104006829489709 4.4842317274676e-20)
(-0.0057970575350447 -0.00787700466397837 -4.34206438961654e-17)
(-0.00321186787168733 -0.00424257614962153 -4.3151507944366e-20)
(-0.000133923870438472 0.000148007598351432 -1.91721795186465e-17)
(0.00298066465773105 0.00470870696243602 1.72101638797852e-20)
(0.00609255425698715 0.00943015232310663 -1.57302291086287e-20)
(0.00895950238349559 0.0140572167383873 -6.97660620548978e-21)
(0.0121306570427413 0.0193237638877668 6.16652620295254e-21)
(0.0165398554998996 0.0261179940585626 0)
(0.0235110854813881 0.0353518115047006 0)
(0.0359705723354585 0.048887188709733 7.16864246287704e-18)
(0.065256423537856 0.0725070933200886 -3.69594876241926e-20)
(0.136173665322246 0.0962099776169537 4.80170140972578e-19)
(0.141590919448679 0.0354310551630545 -8.11358378241456e-23)
(0.019235078197915 0.000405446401426996 8.25254369367034e-23)
(0.0566737041802616 -0.000666656174694147 -1.00694721801023e-23)
(0.0640061653098707 -0.0153009243897746 8.91182051373242e-24)
(-0.0532655133695825 0.0414107059239324 4.24606710638536e-19)
(-0.0394210357393235 0.0470795215784379 1.54603265883149e-18)
(-0.0130032637581426 0.0186880133111902 -5.26655968687531e-23)
(-0.00766395623629592 0.0123308281118252 2.17244314201013e-18)
(-0.00557266481604127 0.00939438702696594 2.51793321367308e-18)
(-0.00480756318057422 0.00813200063346786 1.43586598707438e-21)
(-0.0049335822671477 0.00818708816688405 6.69751885645927e-18)
(-0.00566568469810853 0.00918031632519413 -6.44658631669304e-22)
(-0.00659482122447204 0.0104950824222967 -4.23854684620151e-18)
(-0.00788195214121574 0.0123471361308747 -7.88769031530896e-23)
(-0.00902695040934932 0.013974145625032 1.02597945807145e-17)
(-0.00968945930753275 0.0147385592396506 5.60873204618605e-18)
(-0.00954923601522953 0.0139520486327065 1.1930287255953e-20)
(-0.00838090141899718 0.0113769276444579 6.80506039500823e-18)
(-0.00574498353695357 0.00683351114558953 -7.54144485952352e-18)
(-0.00155658620345966 0.00117686853626604 -8.39532447890919e-18)
(0.0042046406179089 -0.00417203217209935 9.3105854536845e-18)
(0.00993346240505182 -0.00659628828235704 0)
(0.0143606290793756 -0.00525116505884823 -5.4846000313512e-18)
(0.0135868003438639 -0.000812265760981359 1.39670712714776e-18)
(0.00944963191681056 0.000136999161212297 -2.18043232798477e-20)
(0.00672155904940264 0.000218705111183545 -8.11483501698016e-32)
(0.0006801771242971 0.000362631503758786 2.25929237851795e-20)
(-0.00769723895307064 0.000518152506862333 -2.2382560925183e-20)
(-0.0184120407533675 0.000632058241180805 0)
(-0.0302395365823722 0.000699706860889056 0)
(-0.0424200283543606 0.000715480596223453 7.9030688921888e-32)
(-0.0542064941885614 0.000697393473384469 2.21957766656231e-35)
(-0.0652762249441734 0.000658571666702736 0)
(-0.075460242433389 0.000611792591411822 0)
(-0.0847524980581919 0.000563159945634334 0)
(-0.0931889374715948 0.00051636728790855 6.83060001498265e-16)
(-0.100836242164019 0.000472469768333492 7.10746598510327e-16)
(-0.107758352929479 0.000431828247629526 0)
(-0.114016732316502 0.000394204228483397 0)
(-0.119664246073179 0.000359320638652119 -2.39467915402798e-20)
(-0.124747486033412 0.000326832513711946 1.64561951640968e-15)
(-0.129306419009901 0.000296450344008795 1.68790488713353e-15)
(-0.133375959291472 0.000267909086178413 1.29950168603645e-20)
(-0.136986431488097 0.000240981747206669 -1.29375240011893e-20)
(-0.140164390595325 0.000215467495015336 1.38140818226074e-20)
(-0.14293311041762 0.000191192535303572 -1.37659410699123e-20)
(-0.145313191202527 0.000168014384004328 0)
(-0.147323261103195 0.000145838297344163 2.9738679016702e-15)
(-0.148980602415752 0.000124597718471852 3.08573787824052e-15)
(-0.150301411423527 0.000104240500087872 -1.57040864788414e-20)
(-0.151300962563343 8.47289696999427e-05 1.20217599234062e-31)
(-0.151993778255763 6.60372551602771e-05 0)
(-0.152393868570868 4.81277944084178e-05 0)
(-0.152514978451653 3.0968186043585e-05 -9.28390516481039e-21)
(-0.152370984466824 1.45440924794358e-05 9.27935667740537e-21)
(-0.151974771603039 -1.15688812994608e-06 9.89907051117216e-21)
(-0.151339275365946 -1.61281069577071e-05 -1.50061408811932e-20)
(-0.150477349430924 -3.03733413357931e-05 1.03782358288786e-20)
(-0.149401615804937 -4.39009085756987e-05 1.61769792105605e-22)
(-0.148124504440612 -5.67186062504055e-05 -5.43779884875769e-21)
(-0.14665824995533 -6.88349400957062e-05 0)
(-0.145014881533656 -8.02590132614561e-05 0)
(-0.143206207567003 -9.10015186450566e-05 1.75768494554908e-15)
(-0.141243784510496 -0.000101075448900638 1.81082626808983e-15)
(-0.139138884751605 -0.000110496020137282 -6.47157666894202e-21)
(-0.136902468951759 -0.000119280389637181 1.3136840753342e-20)
(-0.134545160974807 -0.000127447524525584 -1.35001199914548e-20)
(-0.132077220727673 -0.000135018565257046 6.8500998668098e-21)
(-0.12950851757067 -0.000142016436212669 1.44014588056798e-20)
(-0.126848508995533 -0.000148465826658166 3.31088541178716e-22)
(-0.124106218619401 -0.000154393187539321 -1.48157215751421e-20)
(-0.121290214815043 -0.000159826869819495 0)
(-0.118408594833378 -0.000164796564395527 0)
(-0.115468979927257 -0.000169332921615991 3.25501502853265e-20)
(-0.112478531230222 -0.000173465636391083 -2.38786892223795e-15)
(-0.109444000063005 -0.000177221616528674 -2.4747410563469e-15)
(-0.106371816319704 -0.000180621960073846 -3.48282204824639e-20)
(-0.103268233188177 -0.000183678272389756 3.49563766962903e-20)
(-0.100139478590238 -0.000186394323570666 0)
(-0.0969919055961559 -0.000188764188953162 3.71138990409743e-20)
(-0.0938320876610102 -0.000190780968682412 -3.72590236038061e-20)
(-0.0906668775364555 -0.000192432548417463 -2.76518148808898e-15)
(-0.0875036054665548 -0.000193694612093709 -2.87693537114044e-15)
(-0.0843503597229495 -0.00019452529244402 8.03073519454524e-20)
(-0.0812164933824721 -0.000194845124053748 -8.06407296123691e-20)
(-0.0781132635683833 -0.000194537492581469 0)
(-0.0750548074426896 -0.000193407989818284 8.48243837632954e-20)
(-0.0720591024168052 -0.000191215185486455 -2.745218217503e-15)
(-0.0691496510722055 -0.00018756446486213 -2.72161266607323e-15)
(-0.06635626843318 -0.000182070973739864 3.22823482009539e-31)
(-0.063717921172528 -0.000174027378072101 0)
(-0.0612810313941776 -0.000163065887448036 0)
(-0.0591048669705751 -0.000148018868482615 -9.35699968224664e-20)
(-0.0572492349057373 -0.000129341885681596 -6.41747303690947e-15)
(-0.0557874271539799 -0.000105230840396748 -6.52311559255214e-15)
(-0.0547536295897945 -8.07300777068875e-05 9.75385793266777e-20)
(-0.0541684682942576 -5.5782454497192e-05 -9.77466696170178e-20)
(-0.0537420442382497 -6.25631212885568e-05 -9.98277308077921e-20)
(-0.0531345760853781 -0.000134158987295128 9.98797027061471e-20)
(-0.0491338849524072 -0.000473116385052075 -7.09752182351099e-15)
(-0.0379800631439591 -0.00366090597806256 -7.56364359388244e-15)
(-0.0288126533840794 -0.0106008301351801 2.72574799061154e-17)
(-0.0281200630531143 -0.0176183665716429 0)
(-0.0279610089601162 -0.0242298679297562 9.54037430096251e-17)
(-0.0270093788255374 -0.0291790737289822 8.50938265605053e-20)
(-0.0252830418684451 -0.0318848935796119 -7.89743109121369e-20)
(-0.0224541100940554 -0.0313313751672317 1.32698663867664e-19)
(-0.0184173043157247 -0.0274712735257396 -6.82684593217716e-20)
(-0.0128586316804498 -0.0201294086889776 3.32460606839798e-17)
(-0.00592297549289616 -0.00983824215194317 3.14514265919334e-17)
(0.00210056056624516 0.00246099151045622 -2.95611720606502e-17)
(0.0101881342512119 0.0152854882059458 -5.45991819594711e-17)
(0.0182725003909401 0.0286468806266961 2.42115736490672e-20)
(0.0258156952667568 0.0419202119386471 0)
(0.034168620737024 0.0571200588351907 1.93182624621338e-17)
(0.0457478553818968 0.0766920309422982 3.91412510578592e-21)
(0.0641656278280029 0.103220742254455 1.38184388627351e-17)
(0.0972037080945623 0.141733145871857 -1.09985299891311e-17)
(0.173196591582969 0.206364668764997 -7.46541491833833e-18)
(0.354427406199405 0.267027139876344 -2.90317184140523e-23)
(0.393365186662527 0.104677505976327 -1.30732585033139e-22)
(0.100167400906869 0.00366098244529706 0)
(0.121804701940971 -0.000785399511920407 0)
(0.112291390341115 -0.0253100950423489 0)
(-0.0781288343566415 0.0623208197417898 -2.07389766613534e-19)
(-0.063936749407912 0.0756002859410694 1.56697009071794e-18)
(-0.022209754147271 0.0311579124627074 3.32511718847482e-16)
(-0.0129586469824467 0.0205692532453507 3.65511738093612e-16)
(-0.00942731545348984 0.0157433500870126 0)
(-0.00813772818812409 0.0136900208990966 0)
(-0.00832754288113268 0.013806678088425 3.67573029197501e-22)
(-0.00952451914061011 0.0154543669380345 3.9494450472282e-18)
(-0.0110554843423568 0.0176429387609222 4.39600517304209e-18)
(-0.0131352321337775 0.0206356288592374 4.8474884127728e-18)
(-0.0149840726329044 0.0232216502548929 -5.3219104171115e-18)
(-0.0160720725335579 0.0243918893285612 1.12318223349309e-20)
(-0.0159406081550566 0.0231178005840562 1.25796287700332e-20)
(-0.0142849498083997 0.019074343434917 1.38217177190068e-21)
(-0.0105098124998465 0.0120716237122745 7.73792066056524e-18)
(-0.00448862756251273 0.00338898476703492 -1.69173656551935e-20)
(0.00390132736459859 -0.0048925544238984 2.6458538110702e-20)
(0.0126075109461047 -0.00899841285138873 0)
(0.0198832016315148 -0.00747446086038725 1.12557017540635e-17)
(0.0193496573085334 -0.000908961580603161 0)
(0.012083890133496 0.000506865730449008 0)
(0.00587478050833972 0.000762123363690304 -2.29798762493534e-20)
(-0.00563475252660634 0.00120008815741992 2.26954507789507e-20)
(-0.0208663647188626 0.00162348766528977 0)
(-0.0393348506084466 0.00190940913325085 2.17263378654588e-20)
(-0.0589761886857021 0.00204380079253159 -2.10691016034129e-20)
(-0.0785427129251432 0.00203691724950995 -7.50734084104471e-32)
(-0.0970049383832356 0.00194321517332918 -2.03770858068341e-20)
(-0.113988239520454 0.00180404460554615 4.00551773432176e-20)
(-0.129358145217207 0.00165173529452644 3.07090657617886e-22)
(-0.143187155384975 0.00150144388264813 3.68050219241064e-22)
(-0.155589722938903 0.00136076241209954 -6.36013913789325e-16)
(-0.166704156580563 0.00123131333227452 -6.23220748664426e-16)
(-0.176653646265934 0.00111298261332861 5.3515078152316e-22)
(-0.185548873261317 0.00100456673665361 -2.01970820287587e-20)
(-0.193483077864075 0.000904868591276194 0)
(-0.200536549897337 0.000812695756758591 -6.77940881655191e-16)
(-0.206777557683085 0.000727057402080477 -6.77795266602265e-16)
(-0.212265132840757 0.000647095532850573 0)
(-0.217050328735667 0.000572086708272821 0)
(-0.221177722183994 0.000501411343840744 0)
(-0.224686436785235 0.000434548916641491 -1.22214728298637e-20)
(-0.227611232906593 0.000371084486611427 2.47080937557442e-20)
(-0.229983583181953 0.000310728170918654 -1.61874286388118e-15)
(-0.231832541786983 0.000253264685366249 -1.64347333463614e-15)
(-0.233185134556609 0.000198518537372309 4.73396589602735e-22)
(-0.234066592201441 0.000146340591927702 -1.36718408698337e-20)
(-0.234500562241792 9.65788770527408e-05 0)
(-0.234509435824963 4.91015388664405e-05 0)
(-0.234114721850071 3.9425598911584e-06 0)
(-0.233338753781139 -3.88740708284045e-05 0)
(-0.232203780592908 -7.94418324188088e-05 8.21735716645604e-21)
(-0.230730474253261 -0.000117812598548684 -8.19827195308733e-21)
(-0.228938731209933 -0.000154021857097179 0)
(-0.22684791884766 -0.000188107335252675 0)
(-0.224476909989172 -0.000220104642673538 0)
(-0.22184409601651 -0.000250050648804449 0)
(-0.218967388359253 -0.000277983779691239 0)
(-0.215864211445353 -0.00030394630140138 -1.25538167231619e-21)
(-0.21255147807656 -0.000327985759292267 1.25661943017936e-21)
(-0.209045564916684 -0.000350154662384471 0)
(-0.205362293049714 -0.000370509871200779 0)
(-0.201516910239207 -0.000389112374326232 0)
(-0.197524071118675 -0.000406027861117876 0)
(-0.193397818663018 -0.000421325853877544 0)
(-0.189151571406364 -0.000435079560400693 -1.21139899421002e-20)
(-0.184798110418406 -0.000447365732286726 -2.70679689522168e-22)
(-0.180349569168556 -0.000458264518206578 1.24746646956385e-20)
(-0.17581743331501 -0.00046785770836051 0)
(-0.171212559087011 -0.000476226803504816 2.6781964199832e-20)
(-0.166545223249423 -0.000483447780689847 -5.43474746107412e-20)
(-0.161825220756258 -0.000489585604123254 -5.30299451723356e-22)
(-0.157062014673477 -0.000494686637825459 2.82529545262624e-20)
(-0.152264949527703 -0.000498771084466264 -2.94623603467782e-20)
(-0.147443469554879 -0.000501836525186608 2.96317047502628e-20)
(-0.142607328423539 -0.000503856111606956 0)
(-0.137766740001475 -0.000504794437128663 0)
(-0.132932523453366 -0.000504595365412728 0)
(-0.12811643490567 -0.000503162600553702 0)
(-0.12333163486417 -0.000500341664759877 0)
(-0.118593446475491 -0.000495873840929128 0)
(-0.113920310580446 -0.000489387597076955 -7.05080234828755e-20)
(-0.10933514143762 -0.000480314947234081 7.10916214840561e-20)
(-0.104866724820594 -0.000467940966671125 2.28168289895602e-15)
(-0.100551873402252 -0.000451206726958192 2.39621022135539e-15)
(-0.0964366386811916 -0.000429019085731066 -1.52983940757534e-19)
(-0.0925794736573015 -0.000399664387145292 7.77532067436195e-20)
(-0.0890493300204538 -0.000362097610045091 0)
(-0.0859304011860229 -0.000313936241946313 8.22643278979929e-20)
(-0.0833067048838019 -0.000256194173285349 2.59992216999855e-15)
(-0.0812707175665929 -0.000186436812269923 2.74603284942708e-15)
(-0.0798562430885937 -0.000117063844528685 -8.67900875141956e-20)
(-0.079043475005209 -5.42169045874513e-05 0)
(-0.0784137906287729 -8.04929653156261e-05 0)
(-0.0772382195081799 -0.000304324079680714 0)
(-0.07158496746657 -0.00112553125082335 1.84557842295414e-19)
(-0.0578011024624202 -0.00618920932063834 5.71537015497008e-18)
(-0.0463697164948347 -0.0172659686651704 2.0025590709019e-19)
(-0.0446675271620502 -0.0279391665672116 4.9761554517397e-17)
(-0.0434536245890844 -0.0376563609976268 -9.24864974411686e-17)
(-0.0410848393324774 -0.0445162162617107 -8.36146982913559e-20)
(-0.0375873764331991 -0.0477280306246874 -3.93545818284635e-17)
(-0.032559607741332 -0.0459990702973585 3.69449443347251e-17)
(-0.0258357185210662 -0.0393591345599518 -3.48813535106273e-17)
(-0.0169513752716696 -0.0276318367703802 0)
(-0.00612816615390369 -0.0116149827363225 -3.15606507386174e-17)
(0.00621496199694309 0.00734170027507116 2.97762163305225e-17)
(0.0186657678209777 0.0272207505228284 1.10072980164165e-21)
(0.0311822923813044 0.0480745146627252 -2.52351472966881e-17)
(0.0430360468720247 0.0690839985260808 -2.2614862585391e-17)
(0.0563004762967205 0.0932156748715786 -3.96435530765066e-17)
(0.0747084282910104 0.124128090135386 0)
(0.10395640641503 0.165728550186736 -1.42032854050912e-17)
(0.156042986270133 0.225158513806911 -1.11108344907523e-17)
(0.272069457097888 0.32012649261983 0)
(0.53607549530398 0.401019030855484 1.15746956787384e-22)
(0.61744266367174 0.167696528479332 -5.01041992741322e-18)
(0.219880626280861 0.0098477241845758 -8.6394895511943e-20)
(0.209590509986118 -4.78838978540738e-05 0)
(0.166654171799811 -0.035307970614694 0)
(-0.094495346900151 0.0777501417380663 1.696683109855e-19)
(-0.0870201828369471 0.101644082915349 -1.6235293004834e-18)
(-0.0318506705628816 0.0435187558933653 -3.49341541809598e-16)
(-0.0184394066704158 0.0287952613451398 -3.82574848744877e-16)
(-0.0134119922639251 0.022151836829383 -1.34986908805478e-21)
(-0.0115771470773365 0.0193602920008788 -3.12886253234416e-23)
(-0.0118108109492891 0.0195689156039288 -3.62898044918406e-18)
(-0.0134522705578247 0.0218722910053851 8.00196077700029e-21)
(-0.0155694616981211 0.0249348950832812 -4.41913247849818e-21)
(-0.0183928997904827 0.0289956550530302 -5.0213392269005e-18)
(-0.0209003902548342 0.0324375295428079 0)
(-0.0223997253046019 0.0339279575440659 0)
(-0.0223469870769612 0.0321936546930129 1.29647019879709e-20)
(-0.0204109415341104 0.0268858778651917 -7.20601289934403e-18)
(-0.0159405709646895 0.0178875051883716 -1.54987707231281e-20)
(-0.00880570778776093 0.00679948677928347 -8.69653791140003e-18)
(0.00121483160822369 -0.00383904603961179 -9.61371871854112e-18)
(0.0120546897403675 -0.00961500273701228 1.04973810523765e-17)
(0.0218945026277364 -0.00851369429557293 2.63796847488285e-21)
(0.0221183749522274 -0.00056915958989826 4.56003781588046e-20)
(0.0113346659405288 0.00124777809715619 -9.12895881600381e-20)
(0.000343506491417284 0.00180496921549806 4.54528362537431e-20)
(-0.0177389982152739 0.00269318941639161 4.44636679776762e-20)
(-0.0405290570934329 0.00348092074620036 -4.2130985895041e-20)
(-0.0666842470368292 0.00396438437318544 0)
(-0.0933376219940968 0.00412908350788773 0)
(-0.11887683590391 0.00403094021909886 0)
(-0.142222585773724 0.00378300148015484 0)
(-0.163120767649978 0.00346846780960601 5.42664503830411e-16)
(-0.181599915062038 0.00314377617358117 5.47597423351e-16)
(-0.197883022191084 0.00283384688654118 -6.05977361791747e-32)
(-0.212206687432251 0.00254900114548111 0)
(-0.22480391593413 0.00229006832756915 -5.14746326092512e-16)
(-0.23587122517053 0.00205518457814871 -5.27962646526364e-16)
(-0.245576590615146 0.001841205070617 0)
(-0.254058938333629 0.00164525071146576 0)
(-0.261435528301542 0.00146471164637043 0)
(-0.267805047942037 0.00129745228154674 0)
(-0.273251836239082 0.00114167804567765 0)
(-0.277848255286237 0.000995896716943879 0)
(-0.281657019703635 0.000858856482671124 0)
(-0.284732889285996 0.000729524073961045 0)
(-0.287124269369705 0.0006070833477397 0)
(-0.288874625338021 0.00049094384730433 0)
(-0.290023543203397 0.000380648737527665 0)
(-0.290607272727171 0.000275805649866184 0)
(-0.290659052221875 0.000176044311386434 0)
(-0.290209282093632 8.10390936328627e-05 0)
(-0.289285975475207 -9.20601500606447e-06 0)
(-0.287920962412859 -9.46282313597012e-05 5.51556143741698e-21)
(-0.286142697898618 -0.000175413302630955 -5.46769089845958e-21)
(-0.283977073089246 -0.000251766094103733 0)
(-0.281448655600946 -0.000323826785044722 0)
(-0.278580967858615 -0.000391701789698919 0)
(-0.275396617895271 -0.000455486447867109 0)
(-0.271917375209973 -0.000515271212004665 0)
(-0.268164219830768 -0.000571146529586593 0)
(-0.264157377398443 -0.000623203898999214 0)
(-0.259916340762575 -0.000671539582140898 -8.60488214987808e-22)
(-0.255459873921211 -0.000716256748898946 8.58834358219218e-22)
(-0.250806015128555 -0.000757464892036919 0)
(-0.245972082563074 -0.000795278957254639 0)
(-0.240974679110545 -0.000829819106162132 0)
(-0.235829693473451 -0.000861211450533987 0)
(-0.230552302597727 -0.000889586686010708 0)
(-0.225156978341517 -0.000915079744976398 0)
(-0.219657494314228 -0.000937829327392382 0)
(-0.214066937577381 -0.000957977031574134 0)
(-0.20839773384538 -0.000975663765169419 0)
(-0.202661695490743 -0.000991025271472249 0)
(-0.196870107335155 -0.00100418249559845 0)
(-0.191033863174639 -0.00101523123731883 0)
(-0.185163657846276 -0.00102422921572238 0)
(-0.179270237903207 -0.00103118469280121 0)
(-0.173364651789911 -0.0010360618440455 0)
(-0.167458495179004 -0.00103877926407276 4.14399849806739e-20)
(-0.161564107157361 -0.00103923005907392 -4.17371897079204e-20)
(-0.155694805709425 -0.00103725755011034 0)
(-0.149865332935525 -0.00103261832602306 0)
(-0.144092462085258 -0.00102494529388064 0)
(-0.13839592194736 -0.00101367074128397 0)
(-0.132799525601612 -0.000998000725909489 0)
(-0.127332728890597 -0.000976787384958002 0)
(-0.122032200883073 -0.00094858662895812 0)
(-0.116944173374139 -0.000911388720967078 0)
(-0.112125660053857 -0.000863060295862536 0)
(-0.107647615419176 -0.000800600284768352 0)
(-0.103592250289217 -0.000722030145830435 5.65403601574783e-20)
(-0.100056872948632 -0.000623888399334994 -5.77396672370575e-20)
(-0.0971345800908707 -0.000508214878741354 6.03596778569732e-20)
(-0.0949186842519056 -0.000373955881393454 -6.17742296642924e-20)
(-0.093421123541331 -0.000244169893745987 0)
(-0.0925692894550616 -0.000139247015012378 0)
(-0.091838100032888 -0.00020307827092732 0)
(-0.090359545762792 -0.000642910421916001 0)
(-0.0845425467104086 -0.00197501215984851 -1.38651181514018e-19)
(-0.071510235594067 -0.00836462465389577 1.44699507433281e-19)
(-0.0604227656010479 -0.0227040794195327 0)
(-0.0575710948755451 -0.0359650971291573 -4.17753610166312e-17)
(-0.0548513762147179 -0.0475418770091076 3.93044597549313e-17)
(-0.0507921845348191 -0.0551948034648096 2.14966461825769e-19)
(-0.0454076895926704 -0.0580639926142335 6.86058958717841e-17)
(-0.0382707609607193 -0.0548106543589146 -3.23239628581068e-17)
(-0.0291608501330942 -0.0455814859563025 3.06713001820821e-17)
(-0.0174916561133623 -0.0302251215984412 -2.94106746391336e-17)
(-0.00352950020946461 -0.00968535109117844 2.84241161166722e-17)
(0.0122383444491435 0.0144988380889793 -2.65751468258419e-20)
(0.0282425804070314 0.0401441855103918 2.5941274025118e-17)
(0.0444891305036876 0.0673337738928182 2.42981596847884e-17)
(0.0601690433334316 0.0951938139326119 2.22010822122779e-17)
(0.077912871432682 0.127278473096485 2.02812354895935e-20)
(0.102556358997646 0.168115993633447 1.70341531977807e-17)
(0.141604252818428 0.22257358264095 -1.97442922878723e-21)
(0.210470802581607 0.298892229626238 1.11335623565254e-17)
(0.358406465808333 0.414069889463351 -7.05328658386455e-18)
(0.677893493489414 0.500403443289286 0)
(0.808064885331839 0.221972407418217 5.9049984220263e-20)
(0.366359056602671 0.0183876383279657 6.26034410790442e-22)
(0.317063312620506 0.00190195782244438 1.70830373263418e-23)
(0.228533793375693 -0.0453554225200267 -1.75869351928072e-23)
(-0.101645764178917 0.0876453116870966 -1.72073410550661e-19)
(-0.10823279188159 0.12510151187669 0)
(-0.0418278873920791 0.0556986159767907 2.05566616639615e-18)
(-0.0240864957113997 0.0369808526345279 2.44613329315824e-18)
(-0.0175152666435115 0.0286033681477836 -6.82089296354365e-22)
(-0.0151218959689292 0.0251324335503602 0)
(-0.0153840429034134 0.0254664040046726 -3.71431028737945e-21)
(-0.0174499014735299 0.0284258100192144 -6.68783962043715e-23)
(-0.0201352800344978 0.0323545614402011 4.57426439112442e-21)
(-0.0236473534654379 0.0374014163700932 -5.17273787012836e-18)
(-0.0267581110119646 0.0415857583696425 -2.20632653418792e-20)
(-0.0286448743071135 0.0433067866200855 2.40032498165843e-20)
(-0.0287333945653557 0.0411413271508163 -1.29834092793805e-20)
(-0.0267191172474911 0.0347809710256725 1.42916140602579e-20)
(-0.0219893909993578 0.0242484055504938 -7.85049641330384e-18)
(-0.0144534352179744 0.0113699668603936 -5.17105469605974e-21)
(-0.00382235254702685 -0.00105043027555112 9.21310978477423e-18)
(0.00815891561090285 -0.00843682582679284 -2.01292060588288e-17)
(0.0200335035219602 -0.00834061655778109 -1.12120573604976e-17)
(0.0213924265331895 0.000210476408323768 0)
(0.00657454888325942 0.00244134145545078 0)
(-0.0104097804558722 0.00347974307135064 0)
(-0.0357465959680116 0.00494966692301314 0)
(-0.065897882364873 0.00613027213131822 0)
(-0.0983899141806971 0.0067456229281446 -3.48695928990879e-20)
(-0.129779415975111 0.00681879010652129 3.23115935028731e-20)
(-0.158438754019888 0.00649653280283429 1.52386622470059e-20)
(-0.183607494830836 0.00597584641155882 -1.42849152339021e-20)