# Wall shear stress
# Time        	patch         	min           	max           
3.636000e+03	wallTop	(-7.319226e+00 -5.903176e-16 -1.197693e-16)	(-2.749023e-02 3.342728e-16 2.366418e-16)
3.636000e+03	wallSide	(-5.581539e+00 -1.147242e-15 -3.873420e-16)	(-2.686198e-02 1.489771e-15 5.036803e-16)
