/*--------------------------------*- C++ -*----------------------------------*\
  =========                 |
  \\      /  F ield         | OpenFOAM: The Open Source CFD Toolbox
   \\    /   O peration     | Website:  https://openfoam.org
    \\  /    A nd           | Version:  7
     \\/     M anipulation  |
\*---------------------------------------------------------------------------*/
FoamFile
{
    version     2.0;
    format      ascii;
    class       volScalarField;
    location    "20000";
    object      Dk;
}
// * * * * * * * * * * * * * * * * * * * * * * * * * * * * * * * * * * * * * //

dimensions      [0 2 -3 0 0 0 0];

internalField   nonuniform List<scalar> 
15600
(
0.00123075846033669
0.00128511503700612
0.00106372047868782
0.000740088903296513
0.000384703028246835
0.000149367819161258
6.41727933314509e-05
5.07835514191825e-05
3.67316033504985e-05
2.39868506712681e-05
1.73056395588593e-05
1.43991496923629e-05
1.35111266882763e-05
1.36305836466989e-05
1.4322121636677e-05
1.53415861082589e-05
1.67919213087349e-05
1.88720384622124e-05
2.1814097368038e-05
2.57018489190007e-05
3.06240701541779e-05
3.67940468743745e-05
4.43353606475342e-05
5.32491823023889e-05
6.34917417420798e-05
7.52831315171286e-05
8.912165641332e-05
0.000104842099114028
0.000122080535227034
0.00014034476299025
0.000159244014955514
0.000179230825411134
0.000203495647049372
0.000247274636451197
0.0002992286234286
0.000346136281083558
0.000388746184927454
0.000428157916936348
0.000464927969824834
0.000499410773660166
0.000531856412450333
0.000562512163327901
0.000591660708563009
0.000618856748281713
0.000643604712003705
0.000665839635159927
0.000685549210578603
0.000702739313380136
0.000717431066234291
0.000729665703432978
0.000739503172916045
0.000747024302449892
0.000752328339839216
0.000755531585691767
0.000756762668031175
0.000756159407577046
0.000753860078944901
0.000750000703404437
0.000744709211012469
0.000738111843354508
0.000730350748717721
0.000721575495470917
0.000711933497492911
0.0007015584139715
0.000690561352717563
0.000679025312828456
0.000667006684754229
0.000654559547701356
0.000641765917248036
0.000628695205883713
0.000615419920891022
0.000601969325717358
0.000588360791922603
0.000574605003063513
0.000560724702243382
0.000546728485712953
0.000532615654487436
0.000518312913157847
0.000503825151828791
0.000488929313747412
0.000473699374843797
0.000457703275987141
0.000440933941112035
0.000422512011198667
0.000402182202625148
0.000377751338484528
0.000346577844938581
0.000326461947387042
0.000350364323025666
0.000379864155067281
0.000418104696864117
0.000459953398687707
0.000508367887737556
0.000563169215594939
0.000626782448167334
0.000703807122319236
0.000787376952441416
0.00086924273207135
0.000945622141563836
0.00101200633782459
0.00106420473292998
0.00109298018590739
0.00110673409510166
0.00112359880813231
0.0011480446164536
0.00118305551070194
0.00123644665519058
0.00132182982277734
0.0014527221759498
0.00158682206868401
0.00172004014494697
0.00185677960647792
0.00198127832667959
0.00204229204331995
0.00196312328529995
0.0017095429509033
0.00144012884346901
0.00122452616148006
0.00109030429290003
0.00112709085497796
0.00672192185805343
0.00701750877059306
0.00581530863197391
0.00404939638309411
0.00210854727558461
0.000821061029987678
0.000352517036844247
0.000278178165230182
0.000201569408988744
0.000131782258499688
9.49872542039466e-05
7.89195359485883e-05
7.39587380162697e-05
7.45506702462028e-05
7.82930130726591e-05
8.3832970631623e-05
9.1715804556324e-05
0.000103025058644595
0.000119038536953184
0.000140231371513211
0.00016709220286538
0.000200793419468547
0.000242034431184045
0.000290846919331481
0.000347004467942983
0.000411706190128394
0.000487676167149093
0.000574051272852184
0.000668835144511171
0.000769331327444328
0.00087338618023669
0.000983650816551145
0.00111886007126644
0.00135952450469237
0.00164346458593057
0.001900011894241
0.00213311751366573
0.0023486782232814
0.00254970724666351
0.00273811532357626
0.00291525490393214
0.00308246998733934
0.00324131014594402
0.00338864315727626
0.00352222507295647
0.00364197967025429
0.00374787197084896
0.00383996596010626
0.00391841000611283
0.00398346051092729
0.00403547454447836
0.00407491955066391
0.00410235980234459
0.00411844777266964
0.00412389892389266
0.00411947352947398
0.00410593120695603
0.00408401553118873
0.00405442483276999
0.00401784864575972
0.00397505798269883
0.00392686050894198
0.00387404913831145
0.00381734089795635
0.00375733050678914
0.00369446138393801
0.00362903523208549
0.00356134286689258
0.00349182078672071
0.00342084008014711
0.00334878351742835
0.00327580731620357
0.00320199978826873
0.00312741908379514
0.00305217791163226
0.00297632860414471
0.00289984962567496
0.00282236452958819
0.00274386908164107
0.00266319658327768
0.00258068982964874
0.00249410070652656
0.00240327420043366
0.00230365622350928
0.00219362509441539
0.00206177425252958
0.00189353384799231
0.00178541861196261
0.00191399737894383
0.00207438656299642
0.0022814445938917
0.00250912664800169
0.0027723952496759
0.0030708311881319
0.00341742812498579
0.00383614216661875
0.00429054501631848
0.00473679695679606
0.00515424431616864
0.00551859011503869
0.00580667199556647
0.00596959411601604
0.00605126848520738
0.00614813014075742
0.00628554965820492
0.0064803814928871
0.00677522451707706
0.00724431436549554
0.00795920553259066
0.00869402117902564
0.00942377329683061
0.0101711963423615
0.0108499015064599
0.0111786860267664
0.0107407282093231
0.0093523216880703
0.00787656057177219
0.00669583636248861
0.00596135512133906
0.00615811395204452
0.0162236283675119
0.0169390309927213
0.0140992986560758
0.00983715537991538
0.00512741533478671
0.00200006937119402
0.000855951451916013
0.000672850162144094
0.000488519151677845
0.000319822860729806
0.000230377636592103
0.000191180860729564
0.000178949278292989
0.000180239028056641
0.000189185877031562
0.000202492936139837
0.000221440443620394
0.000248651241965973
0.000287229342143443
0.000338375589498863
0.000403306729647882
0.000484878017064655
0.000584824361998632
0.000703277896071772
0.000839810145355508
0.000997427531534611
0.0011824901168309
0.00139287516616522
0.0016237160557018
0.00186866822402025
0.00212305814676424
0.00239636613434315
0.002740922462413
0.00332548764042315
0.00399823277773408
0.0046039365828959
0.0051525918205051
0.00565769270571041
0.00612656692930517
0.00656380054671983
0.00697270871619593
0.00735660151511104
0.00771731781286117
0.00804502518019434
0.00833985225385853
0.00860194896982554
0.00883161838647833
0.00902936026349434
0.00919584355391137
0.00933194553047925
0.0094387363936583
0.00951749195094799
0.00956966404608072
0.00959685808375487
0.00960078161932594
0.00958320197108096
0.00954585810238654
0.00949042681789231
0.00941847361712494
0.0093315412320843
0.00923132423481539
0.00911957807427069
0.00899801013948601
0.00886815441438359
0.00873127573439496
0.00858831155159902
0.00843989937719086
0.00828665836508982
0.00812950537813967
0.00796922557560773
0.00780660811635234
0.00764197982679364
0.00747549930486053
0.00730728526981075
0.0071375254760608
0.00696635432152122
0.00679362267949371
0.00661857292777765
0.0064410357689904
0.00625855015056496
0.00607160989529372
0.00587554355305952
0.00566941759466149
0.00544396686707862
0.00519423682149251
0.00489658098546987
0.00451453799813945
0.00426647501989277
0.0045447863857226
0.00491051444425123
0.00538166222169571
0.00590747497562378
0.00651672161262261
0.00721135140593096
0.00801988227877383
0.00899328523032329
0.0100578852110048
0.0111193948515422
0.0121285222800718
0.0130294518019423
0.0137664265677894
0.0142292799971492
0.0145003108112982
0.0147885281928764
0.0151624460609144
0.0156667444408241
0.0164018649661241
0.0175433634080997
0.0192619656674944
0.021059982294364
0.0228563528352068
0.0246941662354409
0.0263706120780038
0.0272092864247684
0.0261949723964628
0.02285309728991
0.0192272740859121
0.016302887506706
0.0144766577123571
0.0148988645006623
0.0282710088635084
0.0295048730924663
0.0247862464361589
0.0173969537879981
0.00906706118239613
0.003529600318091
0.00149609735407522
0.00116841324311276
0.000849970794981463
0.000557257654710269
0.000401241676706409
0.000332651236500356
0.000311042701512138
0.000313090456012919
0.000328475390374546
0.000351463260664202
0.000384231361105553
0.000431366097032178
0.000498239477765913
0.000587011456553157
0.000699865472105792
0.000841660878811236
0.00101519635747538
0.00122047085823979
0.0014567417589348
0.001728818997425
0.00204563095690622
0.00240232936073668
0.00279024173554221
0.00319995983420414
0.00362792406391678
0.00409952113871562
0.00470037195794708
0.00561598887457128
0.00661100986428832
0.00749394550980353
0.00828179025376832
0.00899629006148389
0.00965061728358544
0.0102529385413166
0.0108094096722851
0.0113264007467113
0.0117947266281715
0.0122143318924435
0.0125875913615123
0.0129158383681032
0.0132004572624053
0.0134429227601688
0.0136447926711447
0.013807750689509
0.0139336050464264
0.0140243041549947
0.0140819145918945
0.0141086001279984
0.014106575744898
0.0140780616399455
0.0140252020542745
0.0139500297085855
0.0138544333491409
0.0137402753743443
0.0136095687367486
0.0134643844254543
0.0133067255572006
0.0131383869860425
0.0129608451281015
0.0127751918416401
0.0125821716409609
0.0123825108878054
0.0121772798395086
0.0119674084032281
0.0117538034713342
0.011536862731337
0.0113167336276183
0.0110935520205696
0.0108674485797554
0.010638633284957
0.0104067246525118
0.0101708688079235
0.00993055484874911
0.0096827048513976
0.0094275132120739
0.00915977256838554
0.00887621782360908
0.00856645411376071
0.00822118761503612
0.00781217929085856
0.00728106095406937
0.00692393100217038
0.00726830792159962
0.00778294991631353
0.00845649417107898
0.00923202213458897
0.0101412881752776
0.011193593203881
0.0124286714547126
0.0139123516885393
0.0155653785877036
0.0172709891572016
0.0189561339907631
0.0205401259120381
0.0219360586984007
0.0229859236741022
0.0237604508693779
0.0245253098394712
0.0253987918285314
0.0264638385117719
0.0278805280649904
0.0299298041840646
0.032899164089849
0.036093877191743
0.0393434091635108
0.0426820332074862
0.0457789062332474
0.0475115011162296
0.0461264306949947
0.0406725584835125
0.0343701472255187
0.0290576235321736
0.025649140179043
0.0261529254040492
0.0425009457504809
0.0441750002608752
0.0376428998391564
0.0268327444243887
0.0140230966132295
0.00541288497700225
0.00224777882275951
0.00173593842636326
0.001265028504037
0.0008306708296124
0.000598042804585367
0.000495452927541995
0.000462872534539362
0.00046570155220919
0.00048832470391683
0.000522270213061652
0.000570721132471891
0.000640496356862224
0.000739309642483064
0.000870195613580944
0.00103604126886566
0.0012428637923726
0.00149290206031881
0.0017840129946865
0.00211320318483545
0.00248396481582537
0.00290235933266507
0.00335871659498026
0.0038422231779543
0.00434652954383071
0.0048788740092663
0.00548149218192534
0.006234470453319
0.00720752189717681
0.00818985825574665
0.0090596944413566
0.00982544903759996
0.0105126898157483
0.0111364821125947
0.0117061488899735
0.0122287735038778
0.0127055646691517
0.0131306037269838
0.0135103401877553
0.0138469510921628
0.0141422052647153
0.014397800433426
0.0146153982507348
0.0147966548577054
0.0149432565771637
0.0150569399701363
0.0151395051995217
0.0151928101326703
0.0152187554935257
0.0152192572516759
0.0151962092754042
0.015151434893613
0.0150866578314604
0.0150034951211627
0.0149035514266515
0.0147885289180631
0.0146601687623147
0.0145201483679204
0.0143699731531184
0.0142108903902194
0.014043840285343
0.0138694881199154
0.0136884727680122
0.0135016975400594
0.0133099593523808
0.0131140034336616
0.0129142131500561
0.0127107121460561
0.0125036398091375
0.0122930344278825
0.0120791530667778
0.0118614922598765
0.0116394680238367
0.0114124210794803
0.0111785508966704
0.0109360717489953
0.0106818426288152
0.0104116330769761
0.0101182000701141
0.00979062856639745
0.00940835493235294
0.00891386212833872
0.00856517362209751
0.00881910831508223
0.00931163370695542
0.00998973790053297
0.0108094920563359
0.0117927806505501
0.0129557989669206
0.0143389037055302
0.0159999235564335
0.0178919979905806
0.0199276106728702
0.0220403129350941
0.0241585825328504
0.0261975858321589
0.0280171829388598
0.0296419800877032
0.0312817002819568
0.0330686248292016
0.035111999927823
0.0375980761725028
0.0408594037959612
0.0452529023793566
0.0501129121458815
0.0551926637303517
0.0604645273931131
0.0654798494384984
0.0687747673878862
0.0679545465559702
0.0615092846189625
0.0530852356845278
0.0451874268951895
0.0397385633077748
0.0399109578687472
0.0585513104469617
0.0601703158816368
0.0521971248005135
0.0383823320332706
0.0203970905806163
0.00778147453705901
0.0031154108312247
0.00236028251921975
0.0017220568232487
0.00113286176903199
0.000815886401556762
0.000675601326773318
0.000630677152064982
0.000634142269748697
0.000664236740396638
0.000709577854539521
0.00077432084546487
0.000867393970448566
0.000998120296675701
0.00116934843406628
0.00138291591083086
0.00164278735748811
0.00194664956738449
0.00228694514606027
0.00265664086399733
0.00305582542349795
0.00348582628819106
0.00393805412239652
0.00440827513162127
0.0049016780744235
0.00543973161684778
0.0060684146176206
0.0068311127143351
0.00765692501204949
0.00846049616326494
0.00919643012042386
0.00984597275046798
0.0104327514796582
0.0109671136628083
0.011456398297864
0.0119056446242784
0.0123093432922294
0.012671902700429
0.0129965510015021
0.0132849207445032
0.0135384557923497
0.0137585502583602
0.0139465678628922
0.0141038775159209
0.0142318707373423
0.0143319839045389
0.0144057017353034
0.0144545552974677
0.0144801068750434
0.0144839305987924
0.0144675812059195
0.0144325658931327
0.014380320309986
0.0143122127623655
0.0142296059121769
0.0141339159717778
0.0140265815841361
0.0139089837640755
0.0137823671430414
0.0136477782900697
0.013506034518225
0.0133577481877775
0.0132034913089787
0.0130440227372989
0.0128800185334618
0.0127120904552138
0.0125406214377306
0.0123657589524663
0.0121876713878559
0.0120063826262188
0.0118221944909182
0.0116346332699532
0.0114439582342234
0.011248878753231
0.0110483286621479
0.0108405892425977
0.0106240601071265
0.0103948468285996
0.0101492380321381
0.00987775234961154
0.00956940053608172
0.00918547228609651
0.00890507605512781
0.00903298600823041
0.00941834627520074
0.00999119767359745
0.0107185735222157
0.0116101386479873
0.012681706750994
0.0139666564155674
0.0155050791432032
0.0172778929555715
0.0192349225157644
0.0213307067872104
0.0235217332681128
0.0257532445915052
0.0279537953339149
0.0301459877637064
0.032468839535194
0.0350502620388459
0.0380197343611436
0.0415608222806929
0.0459886325516257
0.051613575323918
0.058015951685419
0.0649472864816232
0.0722819524990532
0.0794790533223976
0.0849765090048454
0.0861759700894038
0.0813674319619362
0.0733070820397051
0.0641301648321597
0.056906993950899
0.0562501477176001
0.0748452806634128
0.0754525564874679
0.0666863773905063
0.051468797030845
0.028585948978139
0.0108942661741688
0.00412856766825418
0.00302690538851043
0.00220784144082989
0.0014557867656057
0.00104942552468831
0.000868650801530002
0.000809986085035621
0.000813255072919803
0.000849666975041852
0.000904858355879304
0.000983569128837761
0.00109594223002756
0.00125099508541971
0.0014492443066508
0.00168881453981404
0.00196832805084605
0.00227953905029181
0.00261183116599345
0.00295911199287492
0.00332256795086339
0.00370367837148246
0.004101764668768
0.00452134877174754
0.00497610720527591
0.00549261186680614
0.00610753805355895
0.0068264609001439
0.0075057219380309
0.00817185993059629
0.00880309746290539
0.00936325347391423
0.00987437820996364
0.0103419635860864
0.0107718410627847
0.0111645360250493
0.0115182087803444
0.0118370865448218
0.0121232378205479
0.0123779084923714
0.0126022622724213
0.0127974422892473
0.0129645814461061
0.0131048329673067
0.0132193762051241
0.0133094364883022
0.0133762826167049
0.0134212256091715
0.0134456036501178
0.013450766784435
0.013438050978338
0.0134087605406974
0.0133641483783324
0.0133054228324084
0.0132337854298445
0.0131504647718332
0.01305670215242
0.0129536869800808
0.0128424965448848
0.0127240503064104
0.0125990896376281
0.012468194290485
0.0123318912613857
0.0121908488836343
0.0120456645420659
0.0118968717447854
0.0117448546354487
0.0115897878308735
0.0114318613170566
0.011271110436982
0.0111078594129217
0.0109421779921742
0.01077386823489
0.0106018561565278
0.0104255849827974
0.0102435911240219
0.0100551369286188
0.00985699084286259
0.00964755537976838
0.00941934472337631
0.00916715278024195
0.00887016443058331
0.00864975992583607
0.00869462748976574
0.00898300206354029
0.00944940157056592
0.0100662124628403
0.0108349121821104
0.0117674132807689
0.0128891889835484
0.0142251155343357
0.015767700509567
0.0174879467040078
0.0193538253193343
0.0213395224331258
0.023411620729934
0.0255486864792213
0.0277897710828207
0.0302354805968104
0.0330083032950839
0.0362576966252838
0.0401674340035025
0.0450306032005942
0.0510544772707674
0.0581065288940718
0.0660410882379892
0.0746834991505338
0.0834706257576467
0.0909851160430101
0.0949612564609741
0.0943517512897226
0.090137942137172
0.0827176199762234
0.0754038118803377
0.073810267853323
0.0887395422202162
0.0873769550290912
0.0784382780023924
0.0642570109306626
0.0385046277256351
0.0151057145729494
0.0053575547264629
0.00371921580846538
0.00270275129215967
0.00178705331702806
0.00129017999368364
0.00106727972094513
0.000993100136069984
0.000993821774436003
0.00103285054522744
0.00109299528684713
0.0011788502135515
0.00130030288688448
0.00146390687318325
0.00166663689741714
0.00190272144169316
0.00216667337368608
0.00244886616272338
0.00274186294671913
0.00304477571310118
0.00336114379140789
0.00369342139997153
0.00404698798727805
0.0044302726197178
0.00485931494079455
0.00535871807887229
0.00595253786446872
0.00662007205795884
0.00720106193242732
0.00778540124533439
0.00834741105732949
0.00884802578622292
0.00930808460253621
0.00972999227722685
0.0101187723367033
0.0104719287256496
0.010791460446413
0.01108010884444
0.011339401788927
0.0115703720460996
0.0117740159888436
0.0119513247960055
0.0121032912550859
0.0122309348879402
0.0123353022025596
0.0124174840666386
0.0124786106473043
0.0125198503677415
0.0125423957282101
0.0125474505276082
0.0125362084407222
0.0125098412403359
0.0124694824819534
0.0124162333929388
0.0123511842425647
0.012275436276701
0.0121900976552943
0.012096229582159
0.0119947978033572
0.0118866371973746
0.0117724379679994
0.011652755034661
0.0115280804296925
0.0113990214715697
0.0112661203611755
0.0111298606437743
0.0109906234446634
0.0108486014392165
0.010703994492941
0.0105568483337642
0.0104077845221385
0.0102566755664147
0.0101032552964488
0.0099467176190341
0.00978676816303786
0.00962219869834473
0.00945272678453027
0.0092757408701549
0.00909077251284908
0.00889205299854951
0.00867739118808155
0.00843854484234009
0.00826164764811853
0.00826008464399425
0.00847704283374884
0.0088594217813474
0.00938295939748205
0.010044564382868
0.0108522015233359
0.0118250238148914
0.0129774272959067
0.0143054161462476
0.0157903471133116
0.0174071701137266
0.0191381671250305
0.0209597607701918
0.0228732140601365
0.0249254420407511
0.0271926616942698
0.0297813187887403
0.0328401870924259
0.0365394605913618
0.0411499178478599
0.046782665543509
0.053487036892069
0.0612515572175806
0.0699302133867647
0.0790356257370758
0.0873977846580511
0.0933882626475618
0.0973435200492691
0.0989503106899878
0.0963027817079828
0.0914646714599345
0.0895330919555431
0.0981568110652039
0.0944462691709929
0.0856091245618014
0.074472090683626
0.0493015969440002
0.0207188165099495
0.00693848287894053
0.00442080011852069
0.00317999745458525
0.00210847921325593
0.00152502810816701
0.00125999375969646
0.00116793880431548
0.00116177482830295
0.00119694373710415
0.00125419079308554
0.00133739710981315
0.00145515129392513
0.00161088150272002
0.00179932563917074
0.00201339857475759
0.00224687040263053
0.00249252600248725
0.00274761036392256
0.0030148074530185
0.00329785806255321
0.00359922561173071
0.00392717126017217
0.00429091637736033
0.00470607776642258
0.00519297267322322
0.00576460644420734
0.00638518284140372
0.00690424464372732
0.00743867983820777
0.00795286549725277
0.00841235579466566
0.00883634975889235
0.00922556732513872
0.00958388082927015
0.00990900225103827
0.0102037877263428
0.0104702861216242
0.010709738976343
0.0109230585352122
0.0111111387679121
0.0112748763457645
0.0114151757459104
0.0115329698988545
0.0116292179872665
0.0117049207203147
0.0117611144582303
0.0117988702015799
0.0118192805634916
0.0118234487252888
0.0118124706870678
0.0117874268762558
0.0117493685006241
0.0116993211154279
0.0116382945361627
0.0115672992365703
0.0114873489911292
0.0113994147721726
0.0113043840841792
0.0112030325335288
0.0110960139772164
0.0109838637439967
0.0108670458516848
0.0107461241048231
0.0106215999618139
0.0104939225787092
0.0103634680516938
0.0102304403048654
0.0100950422870075
0.0099574641129127
0.0098183608109518
0.00967736801090191
0.00953434655505595
0.00938866920349856
0.00924018850610869
0.0090879168218124
0.00893182059569866
0.00876980793558246
0.0086020245480176
0.00842407261600207
0.00823535824631058
0.00803576556331655
0.00789033057869901
0.0078637636532724
0.00802933633176484
0.00834760941756163
0.00879726075903862
0.00937284934852343
0.0100792234606772
0.0109308448544046
0.0119352348729827
0.0130889181935886
0.0143785001411826
0.0157829938041304
0.0172885202593751
0.0188761345354274
0.0205556508158285
0.0223747414772018
0.0243924172391665
0.0266949415557874
0.0294162510174471
0.0327008601336496
0.0367900977416045
0.0417232240665011
0.0476149270590052
0.0545401635491367
0.062394586678912
0.0708030950611808
0.0788298801637386
0.0853783716414077
0.0921363910154273
0.098830662505579
0.101985562260165
0.101633551059341
0.100494613538902
0.102475963572178
0.0967912789734511
0.0880959504478507
0.0806580147860965
0.0596396483444776
0.0277591386089402
0.00908792890168965
0.00512909343537834
0.00361129917485866
0.00239833290253187
0.00173686665470354
0.00143221525690114
0.00131985357756385
0.00130150474720592
0.00132573025492041
0.00137275065389197
0.00144560111904987
0.00155130889644096
0.00169085527058427
0.00185866669143691
0.00204820216533594
0.00225389268712377
0.00247121030496047
0.00270034128447481
0.00294508495207619
0.00320832386154272
0.00349242191236144
0.00380680577504464
0.0041603830455
0.0045674202775073
0.00504365971398016
0.00559359430256883
0.00617423931685222
0.00665387793900074
0.00715527657281492
0.00763460612021354
0.00806436838680737
0.00846170967801002
0.0088266072983862
0.00916173439096343
0.00946594986543468
0.00974204612318164
0.00999168029916404
0.0102159281968142
0.0104156283704369
0.0105916074951006
0.0107446996424368
0.0108757500807298
0.0109856323393261
0.0110752450333435
0.0111455253736116
0.0111974433033659
0.0112320004089134
0.0112502180511123
0.0112531275563652
0.011241755399523
0.0112171168691264
0.0111802044911683
0.0111319887917615
0.01107341989458
0.0110054416358386
0.0109289988044811
0.010844996878245
0.0107542668171175
0.0106575415734561
0.0105554487819319
0.0104485086352633
0.0103371626587877
0.0102219428543306
0.0101033198589257
0.00998171822486158
0.00985750881891313
0.00973090268050661
0.00960213167015497
0.00947161018400329
0.00933965946579065
0.00920598583456557
0.00907052494905534
0.00893278158623839
0.00879269676765045
0.00864946804246437
0.00850320474123992
0.00835224261694782
0.00819707442845408
0.00803438960645325
0.00786449354974109
0.00769257244846192
0.00757010794957009
0.00753054486832481
0.00765866010933754
0.0079275269605299
0.0083187184614377
0.00882573441728703
0.00945112965964431
0.0102058805454885
0.0110929884162109
0.0121085016895159
0.0132418426200446
0.0144747744417163
0.0157955597494176
0.0171879615451903
0.0186644682722989
0.0202705902714987
0.0220534250577354
0.0240810359879238
0.0264691178013819
0.029335210894889
0.0328896985285981
0.0371263763652939
0.0421619460157023
0.0481075160022849
0.0548805941196678
0.0622014764796134
0.0693135131238249
0.0754075166442843
0.0828557167282262
0.0923150734124599
0.100089573204752
0.104678073740374
0.105368261644867
0.102155421766829
0.0953410446559788
0.0869273961168959
0.0826035133721529
0.0682762773003624
0.0359359107527824
0.0120236208831869
0.00587701441376604
0.00397956510105886
0.00263859301843622
0.00191041769563645
0.00157083101649861
0.00143703092124638
0.00140275275856276
0.00141190805995356
0.00144571991550356
0.00150616422120954
0.0015985848984865
0.00172223033697188
0.00187206050981169
0.00204236675997927
0.0022282344666231
0.00242698826565907
0.00264018827240515
0.00287161616406187
0.00312336259545769
0.00339792301394462
0.00370504721343717
0.00405298207173957
0.00445434403987937
0.00492067944504667
0.0054503046868278
0.00599808061835457
0.00645219791669143
0.00693014107941838
0.00738326430141133
0.00779091879672946
0.00816804170628567
0.0085144904829355
0.00883164115582868
0.00911987143396394
0.00938155254414155
0.00961809654704393
0.00983047716081823
0.010019484632152
0.0101858989070124
0.0103305106693152
0.0104541238159523
0.0105575696486159
0.0106417034369773
0.0107074164428565
0.0107556304658946
0.0107872965969583
0.0108033844152299
0.0108048730686302
0.0107927387855713
0.010767949809533
0.0107314564528088
0.0106841889425109
0.0106270527406082
0.0105609421446165
0.0104867508471768
0.0104053361608276
0.0103174877179372
0.0102239075941862
0.0101252047050483
0.0100218880351494
0.00991438110016121
0.00980319260535318
0.00968876962980771
0.00957151885487884
0.0094518066093558
0.00932984824397009
0.00920602789035127
0.00908069000065955
0.00895398407376876
0.00882571476554387
0.00869586628555928
0.00856404628554515
0.00843025244808322
0.00829383747342687
0.00815499643490678
0.0080124177330883
0.0078667967172857
0.00771569085360182
0.00755995259999339
0.0074082171132899
0.00730283637282483
0.00725696918752051
0.00735729074804886
0.0075873901021094
0.00793169761375065
0.00838341290870319
0.00894344663663642
0.00962013171031953
0.0104134525419709
0.0113186978259555
0.0123268492568945
0.0134217273315531
0.0145930135918025
0.015826461074462
0.0171349321901358
0.0185608944160775
0.0201433249868828
0.0219358305189826
0.0240372955778841
0.0265422520080857
0.0296330013803375
0.0332788452803651
0.0375758139025349
0.0426436545141083
0.0484060753701067
0.0546531733974778
0.0607527766814864
0.0660402128453506
0.0728799508471044
0.0828856991356469
0.0930576355893761
0.10169371193561
0.104684566090187
0.0981023242576137
0.0911387311579467
0.0833621158259993
0.0809807079983451
0.0744236207864619
0.0447244427134383
0.0159268504063452
0.0067375293922087
0.0042919363477538
0.00282417798916068
0.00203886799573983
0.00167014018234753
0.00151612103017381
0.00146555075112916
0.00146000443666021
0.00148225814596416
0.0015327042503735
0.00161483548275019
0.00172660755558672
0.00186359496326969
0.002020713045065
0.00219354851490443
0.00238064304928233
0.00258413510265211
0.00280750049450423
0.00305238732835249
0.00332157247010731
0.00362466871389084
0.00396915355407398
0.00436592622033138
0.00482292417640475
0.00533418870151809
0.00585544605273079
0.00629297718553818
0.00675353659457619
0.00718673234129387
0.00757775631343966
0.00793939104071077
0.0082714795891304
0.00857490031187974
0.00885080405973247
0.00910129117764037
0.00932761376102562
0.00953067984911677
0.00971124645709029
0.00987006003494262
0.0100078805347868
0.0101254824604461
0.0102236667356637
0.0103032573484209
0.0103651121267195
0.0104101178820793
0.0104391889484474
0.0104532573193005
0.0104532643610379
0.0104401501715272
0.0104148492901945
0.010378282066371
0.0103313496325807
0.0102749242857088
0.010209863597474
0.0101370234973799
0.0100572259873645
0.00997123067432159
0.00987971759936048
0.00978328284078252
0.00968242768391118
0.00957756130315137
0.00946917567030504
0.00935769985435603
0.00924352759498438
0.00912702171329477
0.0090084471370932
0.00888830803030149
0.00876674041458246
0.00864388214517563
0.00851960912130286
0.00839393933821659
0.00826656333337376
0.0081375171312574
0.00800628404180313
0.00787311273600313
0.00773698434334197
0.00759871535586443
0.00745656187798678
0.00731173940549759
0.00717507525794089
0.00708251329890546
0.00703414637818743
0.00711351721992533
0.0073126651672205
0.00761877369066774
0.00802519502832391
0.00853168059132514
0.00914451137406515
0.00986162629893809
0.0106775283192497
0.0115840556838273
0.0125666559831317
0.0136160839166649
0.0147197775692019
0.0158901181950219
0.017166419416138
0.0185820833827819
0.0201797727883598
0.0220442088803159
0.0242518398457279
0.0269609331613367
0.0301303073151049
0.0338312674934268
0.0381805114547457
0.0431012295545127
0.0484345595677233
0.0536319403564919
0.0581286317502298
0.0639004697856506
0.0731366338251717
0.0836740702610223
0.0946243614153894
0.0995369833290861
0.0914661572300427
0.0851631285235986
0.0784356687767756
0.0768333550867611
0.0778163643180974
0.0535303647248988
0.0208951829793804
0.00781582204348504
0.00458084733869483
0.002966819156752
0.00212746175308794
0.00173432042521146
0.00156303987697888
0.00149856533134048
0.00148157372322659
0.00149597092394023
0.0015401237846641
0.00161568306381204
0.0017196615637183
0.00184813827134488
0.00199649859665169
0.00216080065344044
0.00234044416388545
0.00253780128311522
0.00275605357662348
0.00299670105105728
0.00326282749695692
0.00356363941571089
0.00390582233215239
0.00429860511888935
0.00474694396239582
0.00524207914547513
0.00574230007617792
0.0061692683384886
0.00661672907068929
0.00703484004666145
0.0074134055866281
0.00776324380132846
0.00808426548226691
0.00837722461262416
0.0086436688122648
0.00888550993163671
0.00910389375408433
0.00929968486262975
0.00947361682105095
0.00962641182194587
0.00975880810411606
0.00987155947824801
0.00996544529547182
0.0100412673268781
0.0100998594966558
0.0101420837076358
0.0101688281208556
0.0101809981023371
0.0101795083680274
0.0101652738030136
0.0101392056222083
0.0101022038344022