/*--------------------------------*- C++ -*----------------------------------*\
  =========                 |
  \\      /  F ield         | OpenFOAM: The Open Source CFD Toolbox
   \\    /   O peration     | Website:  https://openfoam.org
    \\  /    A nd           | Version:  7
     \\/     M anipulation  |
\*---------------------------------------------------------------------------*/
FoamFile
{
    version     2.0;
    format      ascii;
    class       volTensorField;
    location    "20000";
    object      gradU;
}
// * * * * * * * * * * * * * * * * * * * * * * * * * * * * * * * * * * * * * //

dimensions      [0 0 -1 0 0 0 0];

internalField   nonuniform List<tensor> 
15600
(
(0.0509351295258978 -0.000704875482058588 -4.3718667857767e-24 40.8917458933425 -0.0450093841674219 -3.92138729858544e-26 0 0 0)
(0.191476624334442 -0.00925929291238382 4.82991790234187e-24 47.361777489953 -0.206628490662395 1.30192116367968e-22 2.08465783989311e-21 -4.93875669542722e-23 8.72307232507278e-47)
(2.01536548735404 -0.101185290855052 2.13857362113505e-19 47.3831961171395 -2.0026460893021 5.505690994035e-21 -2.07711152444723e-21 4.92087874192283e-23 -8.69149541390656e-47)
(3.1719819629407 -0.340151607133766 -6.51128977773432e-19 31.13753392735 -3.18768519491755 -6.12578648502169e-18 1.64442569706076e-21 -2.16593809465266e-22 2.20696552008648e-39)
(1.65110921009285 -0.303182021317894 -2.75614333465385e-17 9.35078566401091 -1.69420376963904 -1.39916800095093e-16 -1.6165006300864e-21 2.12915688497953e-22 -2.1694875969011e-39)
(-2.89606487048887 0.885874540884079 -3.06617037499205e-16 -9.24507284675166 2.82031976189435 -1.04521187090912e-15 5.53235827318799e-17 -1.68766414995301e-17 6.25892013661752e-33)
(-4.81582263114777 1.89586706003399 -8.3407121953134e-17 -12.1477022584318 4.75856075547166 -2.12512493902347e-16 1.09064700371241e-21 -3.66490467418705e-22 -8.10648617518727e-38)
(-4.30152843647432 1.99196582712904 -2.17856119805084e-17 -9.24717421251556 4.26606736100374 -3.61600663701059e-19 4.3231393752216e-22 -2.06581052571966e-22 5.06539042585849e-38)
(-3.75689289213331 1.92645132117376 -2.55966947455596e-16 -7.28370609938763 3.72655914694073 -4.92849105925168e-16 -4.69946668784101e-17 2.40435810928669e-17 -3.18033725563175e-33)
(-3.09030948474013 1.68770013130878 -4.35813120592997e-16 -5.63032447718768 3.07048906390769 -7.55382250227222e-16 0 0 0)
(-2.60771218970682 1.47019763207428 -1.53999599673724e-16 -4.60150756305766 2.59263408666586 -2.65818920516423e-16 -3.03189569922517e-17 1.70827244870074e-17 -1.75406316902812e-33)
(-2.24125217292938 1.27097779312035 -1.70511685706306e-13 -3.93597191464002 2.23231465984367 -2.99656416061315e-13 -1.61451557112248e-21 9.01871841560383e-22 -9.12609355424826e-37)
(-2.03682430648062 1.13443247638411 -1.72742962396177e-13 -3.64206045792827 2.02974465122894 -3.0959601925023e-13 -2.39019033524203e-17 1.3320487378045e-17 -2.03150352100532e-30)
(-1.90577389328255 1.03963800194774 3.67068833326577e-17 -3.48299980578437 1.90138097479027 -1.67991481981531e-18 0 0 0)
(-1.84241821443553 0.986054415188788 -4.76245014609254e-17 -3.43283780249585 1.83840602501493 2.82545232226194e-18 0 0 0)
(-1.78656333123868 0.941698552862946 -1.60234867514767e-16 -3.3829637059197 1.78410247666639 -2.97894249389164e-16 -2.1907680746025e-17 1.15534440123997e-17 -1.93159797077019e-33)
(-1.76739022012714 0.920733189165663 4.58088664200347e-17 -3.38785911271463 1.76563298496018 -2.76686445878255e-18 2.18791784064872e-17 -1.14025020400481e-17 -1.20464955583355e-36)
(-1.78017623973279 0.92048637470657 -2.34039598364055e-19 -3.44077016078125 1.77963041643543 -4.27475125099548e-19 0 0 0)
(-1.83509946970259 0.944403912028083 -4.86723399895318e-16 -3.56437779347314 1.83499667982891 -8.90742063045585e-16 -5.91603814005337e-21 3.02474859947207e-21 -1.95696750154105e-36)
(-1.89867847010668 0.967735208442295 8.31124539967945e-17 -3.72297473059722 1.89911266068757 2.9611072207322e-16 -2.39212878776572e-17 1.22019606796467e-17 1.86436695232164e-33)
(-1.96314199718894 0.978654418375208 -5.89712773597738e-16 -3.93364186782731 1.96407792592955 -1.24342984600137e-15 -2.51489948007432e-17 1.25562242045272e-17 -7.92943822396724e-33)
(-2.02326495146952 0.972747425856556 6.04536734342818e-17 -4.20031750694183 2.02456941978471 -5.3141545967479e-18 -6.25342760438494e-21 3.05811586167704e-21 -3.67857195775199e-36)
(-2.06409016364713 0.941662358587508 1.42703819012542e-19 -4.51069896380515 2.06563400933737 3.16517352560303e-19 7.37116585265509e-21 -3.2459532743399e-21 9.63454709798752e-42)
(-2.06497847256171 0.876837750123049 -1.4936149075418e-19 -4.84088804799708 2.06686485434881 -3.11023106887205e-19 3.0115934863342e-17 -1.28556983691601e-17 1.94401523338561e-36)
(-2.01328285421275 0.777161135791231 -3.85664717555625e-17 -5.18125541442254 2.01580177987951 3.33563760490038e-18 0 0 0)
(-1.92359548115104 0.658766498086042 1.03898579116169e-16 -5.56721150508726 1.92724087768844 3.0832427445798e-16 -1.74411745424294e-20 5.61460985977532e-21 -4.04653354614996e-36)
(-1.80541393735128 0.536847425774085 3.75729025021195e-17 -5.99749781759879 1.80963543052851 -3.52669941801862e-18 1.69057073188674e-20 -5.44223387983864e-21 3.92229959173729e-36)
(-1.642445337161 0.412298137035403 2.40987221164613e-16 -6.42829314812477 1.64745175806886 1.03875592337817e-15 1.94874311457289e-20 -4.51497223620747e-21 2.10655955257033e-36)
(-1.42917729473426 0.290739118458529 -5.58426602610099e-17 -6.8351223301738 1.43501707232333 -3.72925204243475e-16 -1.90699274145999e-20 4.41824231113607e-21 -2.0614280795472e-36)
(-1.16678165544672 0.180108634210187 -2.60195534590662e-17 -7.20260122063399 1.17332733696394 -1.57882541711803e-16 2.0893615394698e-17 -3.40139770891091e-18 4.58126357029299e-34)
(-0.859901961404028 0.0885897229858326 -1.43755209241498e-17 -7.54819233893459 0.869574746561598 1.63652347157134e-16 -2.17555215102422e-17 2.50403109619383e-18 4.64683391709549e-34)
(-0.517344285638295 0.0236213322572816 2.68333599015398e-17 -7.77673515174271 0.522663557932165 7.84965869915436e-17 2.28935321406752e-20 -9.79377201798649e-22 1.06936371572844e-36)
(-0.180607417114133 -0.00378494869562093 1.09914114443137e-17 -8.5556946514283 0.192584659631819 -7.82501530384083e-19 3.44183231289484e-21 6.81144154664546e-22 -1.06389680534462e-36)
(-0.0443877416167189 -0.00202243154187126 -3.8391759010084e-22 -10.044931006079 0.0551490589075051 9.54335691386505e-14 -2.6318152619605e-20 2.97176740161348e-22 -4.18987297309476e-39)
(-0.0329818561130241 -1.95324117848125e-05 4.37201133597214e-20 -11.2227803307502 0.0419317699114394 9.73809652934408e-14 0 0 0)
(-0.0230059554779261 -8.95082448636496e-06 0 -12.003997590671 0.0324001165163065 -1.12106971726885e-18 0 0 0)
(-0.0171746194872422 -9.59603164712415e-06 3.54550244203163e-31 -12.5821923992154 0.0264319794033763 1.11706994937673e-18 0 0 0)
(-0.0128000471577424 -1.43058975375588e-05 -5.05185657520703e-15 -13.0052249462716 0.0220481485327126 2.85412560701494e-16 5.29253765435055e-31 -8.97140434947539e-34 -2.39019539343846e-50)
(-0.00946872798683097 -2.04079234418365e-05 -5.22945936533154e-15 -13.3148277065862 0.0185986445215644 1.39499878135632e-13 -7.63801669792405e-15 1.06549172794838e-17 8.03241554160144e-29)
(-0.00672987695377916 -2.64124601475818e-05 5.05188231644961e-15 -13.5319027240314 0.0157042372612346 1.4200798180116e-13 -7.78815522640565e-15 9.05217499601468e-18 8.1447300307123e-29)
(-0.00439617996861856 -3.22811607791138e-05 5.22945936533158e-15 -13.6715777606614 0.0131538069575105 -2.68838687267044e-16 2.02434655355818e-20 -4.60252620577686e-23 2.52798637421237e-34)
(-0.00233149318441885 -3.77903544133887e-05 2.37137044089884e-21 -13.7433844104897 0.0108228402308992 6.37157432028629e-19 2.79632839021274e-31 -2.20141551631657e-34 -1.29658710417055e-50)
(-0.000467446658164547 -4.29183030263377e-05 -5.70594409127423e-20 -13.7544294556284 0.00864062326594848 1.17291456443761e-18 2.05912883812448e-20 -4.05631653678589e-23 1.39933292447767e-39)
(0.00123616654817298 -4.74210793995294e-05 -2.89627901401161e-20 -13.7101923434194 0.00657162525798771 -1.67836057604902e-18 -4.1122818623952e-20 7.88339248809081e-23 -4.1987704127866e-39)
(0.00279802443160633 -5.11686858365761e-05 -6.19879058497613e-15 -13.6154064015191 0.00460649009255835 2.38273344410772e-16 1.3526068357084e-22 -2.47357075143083e-24 -2.99658801733911e-34)
(0.00422974451176694 -5.42320646503107e-05 -6.40457878908959e-15 -13.4743973822359 0.00273841438996782 2.9927366332905e-13 -7.73341910248703e-15 1.55718215108045e-18 1.72107854321732e-28)
(0.00554005054009473 -5.66534287485486e-05 6.19884764441759e-15 -13.2911493231216 0.000964913930346479 3.07705927056077e-13 -7.64534066914384e-15 5.6651128523241e-19 1.76693716905796e-28)
(0.00673507303838006 -5.84631313252253e-05 6.40457963926658e-15 -13.0694189259873 -0.000715826027974093 -2.13351567842653e-16 0 0 0)
(0.00781902090836735 -5.9683539512867e-05 -1.89762363925513e-33 -12.8127839737628 -0.00230241347292668 -7.81410215503908e-19 0 0 0)
(0.00879482496095836 -6.03497326431293e-05 -5.04518896123345e-31 -12.5247116088204 -0.00379350014000115 1.2929514279001e-32 0 0 0)
(0.00966495670465734 -6.04971300157585e-05 -6.046803290803e-45 -12.208566272489 -0.00518665632431608 3.30546259823063e-30 -4.96794332504215e-31 -2.1118176029177e-34 1.34572845526017e-61)
(0.0104318914730614 -6.01732490274558e-05 1.56554313430105e-30 -11.867629441014 -0.00648037559152571 -3.33896082084193e-32 0 0 0)
(0.0110987453425287 -5.94308562903407e-05 -1.08526199432694e-30 -11.5050792960662 -0.00767362888913993 4.4693982326923e-19 9.36336106229751e-31 6.24732913458438e-34 -3.63776293064344e-50)
(0.0116693059745079 -5.832423295889e-05 -1.05945981748992e-30 -11.1239754734906 -0.00876697958108059 -4.48067507503006e-19 -9.0532096142063e-31 -7.13697476578162e-34 -3.64694145466319e-50)
(0.0121483315489812 -5.6915556428993e-05 5.17937999878567e-31 -10.7272355957196 -0.00976171882612457 -9.42195048279078e-33 0 0 0)
(0.0125415037081001 -5.52625073779705e-05 -6.74382940967083e-44 -10.3176046575316 -0.0106613561517675 3.85791917946773e-30 -4.19848694719079e-31 -4.33917467918308e-34 1.57062518909836e-61)
(0.012854851944535 -5.34162250161237e-05 -2.48996423450761e-32 -9.89763716607678 -0.011469349136113 -1.26646973757493e-33 0 0 0)
(0.0130945571839958 -5.14282936239517e-05 1.71028482350101e-45 -9.46969976699108 -0.0121903613972034 4.09341853856548e-30 -3.85347219021512e-31 -4.96118722587192e-34 1.66649077598935e-61)
(0.0132648793534218 -4.92986010866096e-05 5.93784120189504e-31 -9.03597424133077 -0.0128277159464097 6.45076781259246e-20 0 0 0)
(0.0133680137881485 -4.70512120488319e-05 -8.89373342676149e-15 -8.59856953343227 -0.0133813781174264 -6.47148464487479e-20 0 0 0)
(0.0134078931919784 -4.47503113905283e-05 -9.05474237713741e-15 -8.15951306333877 -0.0138546044504843 6.28386942114403e-14 -4.68867797761073e-15 -7.96123201990119e-18 3.61088037462289e-29)
(0.0133908387986721 -4.244987384989e-05 8.89373342676212e-15 -7.72065220162849 -0.0142528448978623 6.47285054223287e-14 -4.43578379868182e-15 -8.18951819993982e-18 3.72214411966492e-29)
(0.013324458874336 -4.01954711427199e-05 9.05474237713782e-15 -7.28361731205953 -0.0145836595578749 4.64099250712009e-17 2.96395504557274e-31 5.93469385681529e-34 1.91394833984308e-61)
(0.0132166390091954 -3.80104352693354e-05 -6.5410591477058e-31 -6.84978976937534 -0.0148550204888102 2.85832410332408e-19 0 0 0)
(0.0130742511007047 -3.59033704663097e-05 0 -6.42032611586065 -0.0150741404329569 -5.7799075132241e-19 0 0 0)
(0.0129021024527511 -3.38619854571272e-05 2.40831290394939e-20 -5.99620249879344 -0.0152462703673762 2.92543069545785e-19 0 0 0)
(0.0127004615178251 -3.18385336581936e-05 -4.85321186629885e-20 -5.57830558134556 -0.0153726920913664 4.22960206577514e-19 4.26971767538389e-21 8.88717984601935e-24 5.90950350213331e-40)
(0.0124693350590614 -2.98827789016134e-05 3.65809775014766e-22 -5.16759600894199 -0.0154514900932556 -8.54031104785869e-19 -8.23804220391252e-21 -1.84966487898402e-23 -1.17305880479081e-39)
(0.0122114712736882 -2.80176270820333e-05 7.36386611095934e-20 -4.764943730379 -0.0154887280355234 4.31842672107861e-19 3.96832452852799e-21 9.60946894381938e-24 5.82108454577386e-40)
(0.0119314445598517 -2.6284298567078e-05 -4.95723344862495e-20 -4.37113224859162 -0.0154862655522576 4.40633785049988e-19 3.38477221072784e-21 1.09219870678457e-23 4.07355028380119e-43)
(0.0116340678190797 -2.46668188636978e-05 -2.51065424466032e-20 -3.98675225959187 -0.0154539834980953 -4.42781549410593e-19 -3.38477221055046e-21 -1.09219870672172e-23 -4.07355046358895e-43)
(0.0113216100851308 -2.31425963072669e-05 1.06711212210543e-14 -3.61230759374674 -0.0153904638630596 3.26861061033226e-16 0 0 0)
(0.0109912641123372 -2.16627709355683e-05 1.07565634645683e-14 -3.24827313612035 -0.0152992003163463 -8.21772082380394e-14 1.86860974336108e-15 8.80014049980297e-18 4.70337261727985e-29)
(0.01064499957667 -2.03251983117563e-05 -1.06710427639727e-14 -2.89531851696066 -0.015174100376163 -8.63385776686208e-14 1.66176606636065e-15 8.70830814780979e-18 4.98332119605267e-29)
(0.0102792293096043 -1.90094080023967e-05 -1.07566168292664e-14 -2.55380817277641 -0.0150261209596357 -3.84991506866343e-16 4.11699000793371e-21 2.71038571052053e-23 1.49908294377535e-42)
(0.00990023162078829 -1.79214239022503e-05 -1.07821411351517e-19 -2.22462171982265 -0.0148409272579558 -2.32407484821121e-18 -4.11699000793358e-21 -2.71038571052045e-23 -1.4990829437753e-42)
(0.00949777746157357 -1.67282004611933e-05 1.07881773232404e-19 -1.90776791055126 -0.014642527147861 -9.68216043640954e-19 -3.17926125617782e-21 -2.87788717350638e-23 1.41890059655281e-42)
(0.00907928702735964 -1.58383432394698e-05 5.44877249278321e-20 -1.60476059503895 -0.0143885384059737 3.77933681825852e-18 3.17926125617801e-21 2.87788717350655e-23 -1.41890059655289e-42)
(0.00861793287079739 -1.46401735530361e-05 1.15149499113189e-14 -1.31519518504105 -0.0141273377317361 5.60700414578355e-16 0 0 0)
(0.00813406513969749 -1.40175997106448e-05 1.15552710220657e-14 -1.04222406460928 -0.0137702864893549 -9.22762126360122e-14 6.00235936718748e-16 7.93030182043069e-18 5.27018156823321e-29)
(0.00756494037776296 -1.26323354891656e-05 -1.15150044283947e-14 -0.784277035196822 -0.0134193019254775 -9.79529797244024e-14 4.49665103361406e-16 7.69090662764299e-18 5.66442029549547e-29)
(0.00695678714361703 -1.24170831599154e-05 -1.15552710220669e-14 -0.548325169906046 -0.0128767514984974 -6.21889265708847e-16 2.23274132113789e-32 5.23940109181754e-34 5.1611165939284e-52)
(0.0061534733843226 -1.01553325057841e-05 -8.24870959242828e-31 -0.33018197938193 -0.0123560618209672 1.48451955929491e-18 1.34493080768735e-32 5.02752780795121e-34 -6.04145115456131e-50)
(0.0052384866129994 -1.03164279629406e-05 -8.35722991629855e-31 -0.146296890359986 -0.0113793893172971 -4.92600626158537e-32 0 0 0)
(0.00381857621214121 -5.42143332881236e-06 0 0.0120685573611794 -0.0104021122919416 3.04782563591751e-18 0 0 0)
(0.00201216463401398 -1.36922466916723e-06 -9.84059889105078e-28 0.104508802130753 -0.00822743990077012 -2.73936775662064e-13 0 0 0)
(-0.0023648170326087 -6.00234190686304e-05 7.65729511754977e-18 0.144249213266061 -0.00490731212684199 -2.74078111855596e-13 0 0 0)
(-0.00199254256670858 -0.000247958462096261 -2.35991602857506e-18 -0.030716854078833 -0.00228010173080586 1.37825128428249e-16 0 0 0)
(0.00412491935975385 0.000729939319467812 -7.66009390387998e-18 0.0124479927209735 -0.00940848905120081 -5.50179202125183e-19 0 0 0)
(-0.0240976224215094 -0.00150646853115448 3.00790428978725e-16 0.298393376596505 0.0237981481858304 -3.21397958368379e-15 -8.57986878184037e-19 -6.83384849482287e-20 9.24974867816018e-33)
(-0.0897594393173297 -0.0118404782219452 1.02527007410828e-14 0.638566685621835 0.0902563727766783 2.95868668286626e-15 1.84942141232145e-18 2.61207044087627e-19 6.12844385814744e-33)
(-0.217168404806652 -0.0411116236099417 8.31111767856273e-14 1.12624341924161 0.220383150947617 -3.51539755758349e-13 -5.70436255021223e-16 -1.11628753344505e-16 1.77454330403665e-28)
(-0.410792401924416 -0.0982781507544214 7.58831075081554e-14 1.69807192656988 0.414921591811746 -3.44683463853886e-13 -8.56528387521901e-16 -2.09200648805706e-16 1.74710798822839e-28)
(-0.694544384937639 -0.199161140166049 -1.06885581037559e-14 2.4030993738922 0.699164624324894 -8.96677005267961e-16 0 0 0)
(-1.08179722113282 -0.359373792363886 -2.09580913695302e-16 3.23364613873621 1.08567459097247 9.69166663398622e-16 1.95782929200903e-17 6.57167912577305e-18 5.80698498871474e-33)
(-1.61177655372486 -0.605422949821549 4.78674699834091e-16 4.26039034599132 1.61236267963814 -9.35875585529764e-16 -2.61388654762449e-17 -9.88953546552838e-18 5.81935215392714e-33)
(-2.30583337878905 -0.954587311200183 4.13004177270701e-14 5.52854136193551 2.30040495830179 6.68657651308068e-15 3.43615587546002e-17 1.42953588199835e-17 1.8807047831091e-32)
(-3.14690724197771 -1.4016793244803 2.00774835842105e-13 7.01011573533796 3.13304004566413 -3.55218298921462e-13 -1.75702996481261e-14 -7.85228832375469e-15 8.78889346800152e-28)
(-4.12095363608749 -1.9368976024967 1.26572933868122e-13 8.69548405408745 4.09606224857988 -3.65499915047244e-13 -2.16323901317451e-14 -1.01897373448479e-14 9.1972074066528e-28)
(-5.20288775257417 -2.53970648798254 -4.13679725099344e-14 10.5682852560773 5.16567632877525 -4.34117972842989e-15 -6.75498793411656e-17 -3.30161828835957e-17 8.21475938833877e-33)
(-6.3616996509158 -3.18073720291098 8.30568117608031e-16 12.6138601964524 6.31097163247846 -2.02176850175428e-15 0 0 0)
(-7.52001913510926 -3.80470754795746 -3.40816574952351e-16 14.7363724044994 7.45827071277552 8.75623759701807e-16 9.48490320765645e-17 4.80036860242033e-17 5.58297548434918e-33)
(-8.63627043688733 -4.40036200549424 9.26560483773455e-17 16.8067894529115 8.56636849974325 6.78010382375183e-18 0 0 0)
(-9.81375673045744 -5.04898289288618 -1.50805793329732e-15 18.9120093212509 9.73450550809348 2.75680334056963e-15 1.62097546488796e-20 8.27215921316523e-21 -2.78300864712548e-36)
(-11.1592705294447 -5.81657606920385 2.48088347769392e-15 21.2220234096992 11.0681527300078 -4.57134541732942e-15 1.10423811168451e-21 6.97465762109808e-22 2.76292246472556e-36)
(-12.7283336429878 -6.74420448409936 5.06414608890574e-16 23.8069164681268 12.6227815051065 -8.09108729966759e-16 -1.54752618771469e-16 -8.20500638746176e-17 5.27979252714055e-33)
(-14.6539121383853 -7.91615144830956 1.31318472144704e-15 26.8720920520963 14.5269672658364 -2.54238021948839e-15 1.01827151923583e-20 5.2395383561547e-21 2.98311172767825e-36)
(-17.1056788450174 -9.44705269915118 1.2233766800748e-19 30.670987992875 16.9492674494559 -2.07729444226502e-19 1.25325293767352e-20 6.7342190317755e-21 -3.52731059474687e-40)
(-20.4712410059586 -11.5170153373384 6.20528769461667e-20 36.0076571201758 20.2601411852059 -9.04957741068515e-20 8.11751365405938e-21 4.46421080837475e-21 -1.74098016706003e-42)
(-24.4549365153345 -13.7139071490107 1.13711449314933e-15 43.1547154932834 24.1867212104704 -2.06510077712658e-15 -8.75409270514023e-21 -4.81429621646014e-21 1.87750861036526e-42)
(-28.4877115977494 -15.4995367914944 6.61395969790738e-16 51.8379075890668 28.1679172239615 -1.24264362167216e-15 3.61848765379901e-22 1.86216498484459e-22 -2.66850537456582e-38)
(-32.2188117131341 -16.4903006368812 -2.01593335102713e-16 62.3725080673445 31.8561827642537 4.63719256185144e-16 -3.81397745925175e-21 -1.82404694780409e-21 1.26840373955688e-37)
(-34.8667685565802 -16.127727101322 2.64762505183441e-17 74.7943653154177 34.4813056558665 -3.79638484284143e-19 3.6505540599058e-21 1.73083979123826e-21 -1.04652303803849e-37)
(-34.7800548071042 -13.6838727565832 2.25937870765083e-16 87.9496410659243 34.4149127469547 -5.71708948387826e-16 -5.41938266529426e-16 -2.12047524101539e-16 3.52245528442005e-33)
(-29.4443272406605 -8.91324811490385 2.76210117711132e-18 97.3124854751796 29.1748360651643 -9.82287334353885e-20 9.19479985943587e-21 3.11087612646284e-21 -3.06807851896177e-40)
(-18.2674787777531 -3.65411755936659 -2.91484057286372e-17 92.7178476334604 18.1641038965602 1.5720930236361e-16 2.70624925112429e-16 5.30100097335573e-17 4.58998528286705e-34)
(-8.11154147510166 -0.936744100917398 -1.37221024756087e-17 74.1696847356598 8.10719617846308 9.6908016245192e-17 7.59302821635115e-21 1.18488869913683e-21 4.46941434425499e-38)
(-2.6493805510382 -0.149544567143317 -2.42164067333359e-18 56.9987723474887 2.6580644334967 1.79725396583296e-17 -4.08455822832129e-17 -1.90433312652373e-18 -1.28538481784821e-35)
(-0.222140459654321 -0.0113307890617344 6.22940324770381e-19 40.8215070041827 0.241621321370186 -1.69945203723699e-18 -1.82645955899019e-18 -1.08031914224639e-20 7.553986579234e-38)
(0.00574585112402554 -0.000756031248116417 2.75693848108557e-20 36.5574104524355 -0.0167321828984034 -1.51548853885056e-21 0 0 0)
(0.129337350326034 -0.0024642690559311 2.80729266211394e-23 41.6449349729021 -0.109746611571428 6.0312973369734e-26 0 0 0)
(0.241277433434953 -0.0251368804226161 -5.81936490268116e-24 46.8237237228696 -0.258265311769293 2.7365857233822e-22 -6.06887113865149e-21 1.41056363555957e-22 1.20920256972522e-46)
(1.87346303896551 -0.119695613669248 -3.27792908651783e-19 47.0318048520017 -1.86526392206886 -8.42170406051478e-21 6.04685632581343e-21 -1.40544681997335e-22 -1.20481619083405e-46)
(3.13071297095663 -0.330765931942858 -1.93349099006792e-18 33.7005887463535 -3.12218679312541 5.62895253962389e-18 9.18388736070763e-17 -8.92708009937378e-18 -2.54702163193284e-37)
(2.04745150602534 -0.308139945606168 2.30909100296541e-14 13.2465244546609 -1.99764224084087 1.18733078919704e-13 6.50851378645704e-17 -1.06154123082483e-17 3.46265584522032e-31)
(-2.09590667263296 0.746966771898345 6.5251375260216e-14 -5.90655791617679 2.16119335898984 2.16962186628167e-13 -1.42021437354501e-16 4.54758214990558e-17 1.28671977153616e-30)
(-4.17866021794438 1.69918423570577 9.98764678581732e-17 -10.523960508126 4.22714689743194 2.04400954423995e-16 -1.37041910834276e-16 5.43221578475549e-17 -8.0423721353028e-36)
(-3.86469064877382 1.81028691209013 1.38171468662316e-17 -8.4206552086919 3.90102168876301 3.22661254670907e-19 0 0 0)
(-3.42037945281794 1.76605671507456 6.0100721643154e-16 -6.71884511943193 3.4455359219813 1.20924825277908e-15 -4.33362296098687e-17 2.2222991475945e-17 7.79885092062187e-33)
(-2.85335166368472 1.56345265244118 1.00902467022382e-17 -5.264653859132 2.8726073455091 -2.68388258430776e-17 -6.99302585035388e-17 3.81466892109988e-17 -4.93935950497921e-33)
(-2.43724195848963 1.37648583375767 -9.77195284882512e-15 -4.34478670280393 2.44945532783592 1.30489903922182e-15 2.92365309872165e-17 -1.64728491134477e-17 1.69144084369168e-33)
(-2.12262037679103 1.20478006594382 1.52752515782276e-13 -3.75383094976076 2.13178204036491 2.90678309945437e-13 -1.88209854978573e-14 1.06813466507632e-14 4.90347618632847e-30)
(-1.94451632407572 1.08433164986858 1.75033222461803e-13 -3.49030113263736 1.95018641325676 2.97662215352617e-13 -1.74746761684767e-14 9.75109732371516e-15 -1.60782369401011e-30)
(-1.83112631993925 1.0004739042733 1.07522658366091e-14 -3.35282560292866 1.83598138137079 -4.92084565220598e-16 0 0 0)
(-1.77507335690128 0.951629192000311 -4.11590896167152e-16 -3.31032285547619 1.7783380461052 -8.4418046628807e-16 0 0 0)
(-1.7300360355033 0.913242615333453 6.0424060335968e-16 -3.2766493577252 1.73269014327556 1.14733905037105e-15 2.11369919475819e-17 -1.114698550305e-17 1.86159360292829e-33)
(-1.72018903572231 0.897870837365937 -3.55229149146422e-17 -3.29380756932454 1.72151070904918 1.62959377172023e-18 2.12769745799008e-17 -1.11198663371464e-17 5.4349240981921e-36)
(-1.74197043352929 0.903253476576091 -4.33022097266583e-17 -3.35790036121498 1.74269527589081 3.14890132387981e-18 -1.52988391976918e-20 7.94902821253406e-21 -7.35425210241801e-40)
(-1.80049437006106 0.929817142505458 4.79350365290567e-16 -3.48294489882564 1.80064266963862 8.49519454861477e-16 -4.45589160330373e-17 2.29877163191283e-17 -5.56744269926847e-35)
(-1.86796277901066 0.95512188109072 3.57933674132757e-16 -3.64358354468914 1.86768583775904 6.19203152321836e-16 2.30719395033078e-17 -1.17687649131534e-17 -1.80204800913383e-33)
(-1.93544367804782 0.967413210190732 9.93465874106513e-16 -3.85252989117097 1.93485287383349 2.10190957274535e-15 -2.4645804833248e-17 1.2375517102042e-17 1.34157845340251e-32)
(-1.99586833168055 0.961257490441261 1.4200431573455e-19 -4.11102753680848 1.99520235040565 2.95901618561661e-19 0 0 0)
(-2.0344076543106 0.928079679438151 4.1643457667983e-16 -4.40747971808888 2.03388832018267 9.21710415720136e-16 0 0 0)
(-2.03402431766613 0.860943603546821 -7.86832447096875e-16 -4.72449621535404 2.03358938544564 -1.86837905756523e-15 2.94074602126584e-17 -1.26504506865614e-17 1.16203663075598e-32)
(-1.98664462152337 0.761122953935548 5.74688755091722e-17 -5.06009592449406 1.98565239991043 -5.92199677179376e-18 0 0 0)
(-1.90078116545289 0.642912495289448 -4.14015663323988e-16 -5.43505858253909 1.89979658755294 -1.22095490093581e-15 6.55099680558558e-17 -2.27734465992999e-17 5.58532134994851e-33)
(-1.78219998876663 0.51958627855706 -2.84710378376723e-16 -5.84075656238796 1.78096031195023 -9.74875552575529e-16 -4.88249537203635e-20 1.57887870920637e-20 5.6706211822167e-36)
(-1.61879932427202 0.39321139797947 -4.85951156714824e-16 -6.24457284139547 1.61748029017039 -1.93416246102099e-15 7.35698892047963e-17 -1.89392148132084e-17 5.51674144300338e-33)
(-1.40769440229127 0.270367035885564 -1.77835554167487e-17 -6.62898209472599 1.40597847691614 3.6258042516098e-16 -5.8732639230065e-20 1.09112171654399e-20 -3.01952633354514e-36)
(-1.15153036319563 0.159188822391253 -2.91968296242021e-17 -6.98690699193792 1.14878551812361 -3.84952596362013e-16 -2.01005303659796e-17 3.27095921378271e-18 -4.39033675595157e-34)
(-0.852354853020379 0.0675491186252992 3.45931783398882e-17 -7.32339811643712 0.852127005591801 -1.20605720972935e-16 2.10531611225883e-17 -2.42164509365515e-18 -4.52869770805381e-34)
(-0.543643112959982 0.00512060675191978 -5.22262874467432e-17 -7.70068245075458 0.533413250498782 -3.13103821297607e-16 2.17612725566851e-17 -1.47932817205527e-18 3.46383891291915e-34)
(-0.238936186103025 -0.0162622902585247 5.60663764369786e-15 -8.45270678938982 0.235752239352918 -3.88902962477046e-16 0 0 0)
(-0.110744339265078 -0.00675349191144452 5.73543948705811e-15 -9.50593993247879 0.104172149988755 -8.45869305549087e-14 9.54735779084629e-15 -7.80296759851243e-17 -3.54059542374567e-30)
(-0.081129344775036 -0.00131186997336641 -5.62292243202728e-15 -10.2966551556216 0.0720436030134898 -8.36048123984883e-14 1.05682364677343e-14 -5.62110854502459e-17 -5.3445836608736e-30)
(-0.056170196921408 -0.000903901395889127 -5.73748323415772e-15 -10.816714157818 0.0478631415581373 3.67552742051115e-16 -9.90809117039088e-20 2.24356395381674e-22 -2.19792152603551e-41)
(-0.0411384160144109 -0.000599987048184315 1.00656168821481e-19 -11.1842832569744 0.0326769020413052 3.33188785912692e-20 9.90809117039049e-20 -2.24356395381665e-22 2.19792152603543e-41)
(-0.0298614044380318 -0.0004467253418535 1.34406988277549e-14 -11.4373828952308 0.0215927874557307 -7.58818967266251e-16 5.28514035789275e-20 -6.33666656741922e-23 -6.26787271334828e-34)
(-0.0211889683346898 -0.000352643631934985 1.38052588527634e-14 -11.6046678924956 0.0131005601416571 -1.54505639018256e-15 1.95795291001317e-14 -2.57832372314237e-17 -1.43879743654764e-28)
(-0.0140222370688782 -0.000293440184342227 -1.34408386848937e-14 -11.7015232843869 0.00621191965050122 1.49850045996544e-15 1.98428547135793e-14 -1.93443004099805e-17 -1.47614908574165e-28)
(-0.00788685198019217 -0.000254152018425407 -1.38052559141148e-14 -11.7388240571549 0.000403156256662659 7.071047423504e-16 -1.09354617459451e-19 5.46235217512366e-23 6.43779642246046e-34)
(-0.00245193090550671 -0.000226738712752424 1.13851320083106e-19 -11.7237693052164 -0.00465509161864977 1.70450327375458e-20 5.48612032412628e-20 -2.13858018907242e-23 1.70201706744552e-39)
(0.00244999483606121 -0.000205980243192954 -7.73395587352448e-20 -11.6618485456369 -0.00913923829415444 -4.49953068902655e-19 5.48612935266143e-20 -1.20673897643562e-24 -6.42636364703792e-43)
(0.00691688302496956 -0.000188514310961733 -3.98103654515279e-20 -11.5576456227133 -0.0131456192500309 9.46587138796672e-19 -5.48612935266172e-20 1.20673897643568e-24 6.42636364703826e-43)
(0.0109972354246663 -0.000172784075333535 2.40467948835072e-14 -11.4151747149978 -0.0167297340713122 -9.24998159098729e-16 -5.34550044347287e-31 1.80712904729273e-34 -5.87383454214941e-52)
(0.01472311135647 -0.000158311518408541 2.478353566759e-14 -11.2380120229436 -0.0199331963563376 -1.08157321513012e-13 3.16243790516658e-14 1.57323120296813e-17 -3.45806881440192e-28)
(0.0181189684973567 -0.000144758789678179 -2.40467538446502e-14 -11.0294395025303 -0.0227854355110304 -1.07776571175756e-13 3.11730064100233e-14 2.12807313708499e-17 -3.59393450423762e-28)
(0.0212023679505185 -0.000131865949207996 -2.47835817071766e-14 -10.7925260590422 -0.0253108504645174 8.25681445673623e-16 -9.8873393672973e-22 6.14932914028629e-24 1.15573733862233e-33)
(0.0239859936960504 -0.000119423414432257 -1.24227401064339e-21 -10.5301705127738 -0.027526844457799 -2.75375779758315e-20 -5.15056364292653e-20 -3.59242180730516e-23 -2.08904130577358e-39)
(0.0264793690946534 -0.000107333654191627 4.60395857889828e-20 -10.245145567557 -0.0294487133983163 -1.29786304350865e-21 0 0 0)
(0.0286908663291203 -9.55505906867968e-05 -1.53240807337776e-44 -9.94010862806485 -0.0310891476176818 8.99512031194408e-30 4.79310783740535e-31 2.03749697640311e-34 -1.29836859720459e-61)
(0.0306288902317555 -8.41074428694861e-05 2.63330628726228e-20 -9.61761348492857 -0.0324612271555307 -5.3987862897261e-22 0 0 0)
(0.0323032778373867 -7.30713864246997e-05 -2.6399504434986e-20 -9.28010094620446 -0.0335783435838486 1.62459862356238e-20 2.2439800992154e-20 2.91420999830135e-23 1.54919083682143e-42)