/*--------------------------------*- C++ -*----------------------------------*\
  =========                 |
  \\      /  F ield         | OpenFOAM: The Open Source CFD Toolbox
   \\    /   O peration     | Website:  https://openfoam.org
    \\  /    A nd           | Version:  7
     \\/     M anipulation  |
\*---------------------------------------------------------------------------*/
FoamFile
{
    version     2.0;
    format      ascii;
    class       volScalarField;
    location    "20000";
    object      k;
}
// * * * * * * * * * * * * * * * * * * * * * * * * * * * * * * * * * * * * * //

dimensions      [0 2 -2 0 0 0 0];

internalField   nonuniform List<scalar> 
15600
(
5.85601041314887e-07
6.11895396524502e-07
5.10255153681762e-07
3.6265479435067e-07
1.95183938450271e-07
7.95074838429581e-08
3.68299502074679e-08
3.23815013969181e-08
2.66024671231903e-08
1.99972502495311e-08
1.67263535278241e-08
1.61834810107453e-08
1.76284926768241e-08
2.0420776083615e-08
2.4346396795945e-08
2.92931359846608e-08
3.5701656946022e-08
4.4344533834772e-08
5.62881821370191e-08
7.25954592106509e-08
9.45892649591772e-08
1.24080395970262e-07
1.62860363314061e-07
2.12390816087876e-07
2.7380102150328e-07
3.48699305187967e-07
4.39364943309526e-07
5.44970873507653e-07
6.62681508321492e-07
7.87760996798275e-07
9.14955639414963e-07
1.04319274412685e-06
1.18723082981516e-06
1.44126775761679e-06
1.74408735684797e-06
2.01749386361201e-06
2.26585043364563e-06
2.49556610295748e-06
2.70988445131142e-06
2.91087131382739e-06
3.09998433299785e-06
3.27866479112945e-06
3.44856033331584e-06
3.60707547964858e-06
3.75132174239116e-06
3.88092046831819e-06
3.9957999237079e-06
4.09599435235458e-06
4.18162687009067e-06
4.25293781557856e-06
4.3102766020631e-06
4.35411434318198e-06
4.38502951581786e-06
4.40369999101589e-06
4.41087549153743e-06
4.40735932079541e-06
4.39395742778576e-06
4.37146262762817e-06
4.34062057490629e-06
4.30216708276093e-06
4.25693067831464e-06
4.20578313746269e-06
4.14958367841507e-06
4.08911134863395e-06
4.02501375236923e-06
3.95777465910296e-06
3.88772274685308e-06
3.81517322229864e-06
3.74060412237065e-06
3.66442002549381e-06
3.58704354844073e-06
3.50864525647405e-06
3.42932640166411e-06
3.34914925431191e-06
3.26824637512777e-06
3.18666786831693e-06
3.10440965976831e-06
3.02104453902768e-06
2.93660100861427e-06
2.84977895740212e-06
2.76100956233904e-06
2.66777451866201e-06
2.57003258273557e-06
2.46265831257905e-06
2.34416375917072e-06
2.20176574665318e-06
2.02006756771795e-06
1.90465248106672e-06
2.03918216017986e-06
2.18236953253875e-06
2.34652767509939e-06
2.49628687095868e-06
2.64191168758121e-06
2.77564839675705e-06
2.90224915512464e-06
3.03402422494825e-06
3.13937105466195e-06
3.19179979902922e-06
3.18762167917583e-06
3.1245070974339e-06
3.00460121563313e-06
2.81907081616476e-06
2.59936523308713e-06
2.38774449975868e-06
2.19092042793739e-06
2.00995181679919e-06
1.85124596797005e-06
1.72347109756429e-06
1.63158126868597e-06
1.53262140500477e-06
1.4329709671404e-06
1.34388889750177e-06
1.26262649771016e-06
1.17159184879386e-06
1.04465765875507e-06
8.67184668438005e-07
7.05588698595648e-07
5.87350849693159e-07
5.19127672055693e-07
5.36275475328763e-07
1.89422372211544e-05
1.97889517951224e-05
1.65113804461466e-05
1.17429038680635e-05
6.33237620592429e-06
2.58838247841795e-06
1.19875762372359e-06
1.05096780999108e-06
8.64799872377298e-07
6.50697361792238e-07
5.4365315698498e-07
5.25140391712748e-07
5.712466099699e-07
6.61178094599682e-07
7.87913232272127e-07
9.47653679572004e-07
1.15444927419174e-06
1.43315585430394e-06
1.81829985106844e-06
2.3443579427994e-06
3.05404268397756e-06
4.00599899194957e-06
5.25863296690242e-06
6.85987922692919e-06
8.84656965578437e-06
1.12703800754108e-05
1.42059085965915e-05
1.76278340882587e-05
2.14447711233765e-05
2.55030495650853e-05
2.96314709952505e-05
3.37943404210146e-05
3.84516955152942e-05
4.6649774803884e-05
5.64264452167101e-05
6.52572634439792e-05
7.32782147873283e-05
8.06968431253702e-05
8.76179090866925e-05
9.41082513589358e-05
0.000100215047646178
0.000105984955465319
0.000111471395882878
0.000116566516236852
0.000121192766718971
0.000125347001640121
0.000129027386908822
0.000132235430525544
0.000134975484659263
0.00013725560587657
0.00013908731766131
0.000140485982743084
0.00014147035428744
0.000142062303713039
0.000142285957549346
0.000142167088818511
0.000141731531461336
0.000141004655532575
0.000140010330806112
0.000138772167373971
0.000137316689331941
0.000135671773259372
0.000133864860967425
0.000131920821326384
0.000129860323225312
0.000127698812136641
0.00012544681830937
0.000123114490293954
0.000120717089629669
0.000118267597029577
0.000115779455524133
0.000113258192103718
0.000110707012062828
0.000108128019401562
0.000105525306669248
0.000102900725661374
0.000100253786418223
9.75713451330507e-05
9.48536279278104e-05
9.20599262813885e-05
8.92027267331659e-05
8.62034291982714e-05
8.30578181307279e-05
7.96064185259074e-05
7.57953935705284e-05
7.12258702261642e-05
6.53860493822698e-05
6.16772817531311e-05
6.59908021067929e-05
7.06124654938516e-05
7.58870901318195e-05
8.07196550293018e-05
8.5413778821707e-05
8.9731544132735e-05
9.38220512711227e-05
9.8060483799318e-05
0.000101441982029637
0.000103127368340357
0.000102993914788084
0.00010096795195799
9.71117911518127e-05
9.11579169754845e-05
8.41041028050225e-05
7.72917576495762e-05
7.09466217671667e-05
6.51084683507826e-05
5.99843591875664e-05
5.58550321394081e-05
5.28665561303405e-05
4.96569297731704e-05
4.64235483923545e-05
4.35272123833805e-05
4.08790211182245e-05
3.7905656505952e-05
3.37699182838151e-05
2.80233510700515e-05
2.28092635308775e-05
1.89960659032746e-05
1.67972054966645e-05
1.73515804550078e-05
0.000138370463554324
0.000144500368756732
0.000120797693944309
8.6013924058775e-05
4.64896545889341e-05
1.90859361873515e-05
8.83116585466519e-06
7.71798999184967e-06
6.36251301338358e-06
4.7929340821245e-06
4.00092927480832e-06
3.85890901013991e-06
4.19176670541186e-06
4.84710078595893e-06
5.77270254110864e-06
6.93950540167366e-06
8.44854070668884e-06
1.0480515145524e-05
1.32878718623274e-05
1.71231786212479e-05
2.22968690647447e-05
2.92357343878196e-05
3.83664441779482e-05
5.00388332079446e-05
6.45166540853448e-05
8.21642166293466e-05
0.000103518649746743
0.000128396914955592
0.000156130274602491
0.000185600645211274
0.00021554745712547
0.000245669765086614
0.000279161404668515
0.000337713673429694
0.000407378232320536
0.000470177675757531
0.000527097513109437
0.000579649575330129
0.000628604191946893
0.000674455936476172
0.000717553390306476
0.000758237930184554
0.000796684810276843
0.00083186573752394
0.000863770029911531
0.000892387006825238
0.000917720236802354
0.000939793371130526
0.000958647500273223
0.000974346474268916
0.0009869757331887
0.00099664457615711
0.00100348344558005
0.00100764208756322
0.00100928418202718
0.00100858314967314
0.00100571225816171
0.00100084100749866
0.000994129034021988
0.000985735177025433
0.000975837470193711
0.000964622987307447
0.000952275819870655
0.000938962970052693
0.000924823482083182
0.000909961613619785
0.000894449180673853
0.000878356136190199
0.000861786209679696
0.000844828695505036
0.000827574656046072
0.000810063661869582
0.000792317844742284
0.000774353938496999
0.000756198230582718
0.000737868025457528
0.000719354777059752
0.000700576834532929
0.000681525720199913
0.000661933814545042
0.000641868096407919
0.000620815423476089
0.000598701087209335
0.000574498028826741
0.000547726992023757
0.000515777095926537
0.000474659224463412
0.000448368866784883
0.000477786905086347
0.000510168765913836
0.000546880974056375
0.000580892965547071
0.000613906448822823
0.000644422808030724
0.000673368404323407
0.000703101735817479
0.000727009081662781
0.000739371179900658
0.000739115706087642
0.000725654578220708
0.000699293518371395
0.000658270404973825
0.000609104901849154
0.000560966491676004
0.000515780905116956
0.000473989876277804
0.000437094874352925
0.000407135255765727
0.000385130568074003
0.00036181838672489
0.000338346481421411
0.000317236830933684
0.000297902610228117
0.000276167351799654
0.00024592775723158
0.000204232617124381
0.000166520311768226
0.00013887670148849
0.000122935208644517
0.000126950909398156
0.000518114263463051
0.000540479929731434
0.000453666793781119
0.000324368904771465
0.000176168908826038
7.28129168815817e-05
3.35830417102503e-05
2.92283396843143e-05
2.41443748130048e-05
1.82115030175017e-05
1.51900165828614e-05
1.4627779509939e-05
1.58636643214532e-05
1.83226372655308e-05
2.18023659371327e-05
2.61872162985828e-05
3.18481427701083e-05
3.94579236694208e-05
4.9957225341374e-05
6.42831362133308e-05
8.35695971117564e-05
0.000109366374864834
0.000143198328867198
0.000186264783683097
0.000239387723351513
0.000303686205483077
0.000380856665852367
0.000469979888353508
0.000568433355203389
0.000672144194438502
0.00077659665275921
0.000880627459758054
0.000995138829115037
0.00119083387278845
0.00141923410731613
0.00162225229906329
0.00180441254225865
0.00197108583261405
0.00212520636741737
0.00226865037919424
0.00240274501779753
0.0025287953735617
0.00264461905001113
0.00275007427847312
0.00284550608451064
0.0029310373335005
0.00300680705099949
0.00307298579214009
0.00312977218983402
0.00317740830589738
0.00321617924170492
0.00324642046676947
0.00326851273939151
0.00328287863174434
0.00328997046920092
0.00329025998361988
0.00328421451860305
0.00327228791798392
0.00325490690842913
0.00323249876306574
0.00320554371295134
0.00317454898195584
0.00314001598128893
0.00310240202204074
0.00306208997859001
0.00301936873627094
0.00297443913365211
0.00292749889525877
0.00287884196076427
0.00282872606347324
0.00277741191930058
0.00272502275263217
0.00267162501519691
0.00261727713151457
0.00256204989177527
0.00250601419983381
0.00244912497618606
0.0023911737470023
0.00233209615979134
0.00227112983700528
0.00220839982148513
0.00214256282043557
0.00207299357691814
0.00199691985298975
0.00191241134093051
0.00181202524141544
0.00168102932659125
0.00159532219308432
0.00168234051880301
0.00178426440068628
0.001899957685668
0.00200965882563823
0.00211711238967061
0.00221828934538518
0.00231553855629112
0.00241513505155893
0.00249818508906973
0.00254693076284355
0.00255633683800441
0.0025233806741593
0.00244779614996076
0.00232349292441112
0.00216868509906008
0.00201203492743381
0.00186163189878878
0.00172006756128646
0.00159294796714869
0.00148774632318849
0.0014085161333692
0.0013254439153542
0.00124149193943526
0.00116528161958731
0.00109510441071303
0.0010161882450677
0.000906105795659376
0.000755965897382357
0.000620628207359909
0.000520398959817758
0.000462320174468906
0.000477243622912506
0.00135965676895556
0.00141466293966965
0.00119592613553992
0.000864031320932094
0.000474908173882176
0.000198653176307086
9.10385846856554e-05
7.87469888175082e-05
6.51847901483679e-05
4.92314369427795e-05
4.10307558207193e-05
3.94412216959206e-05
4.26900346804888e-05
4.92318531681645e-05
5.84986093025334e-05
7.01551089409979e-05
8.51494787319441e-05
0.000105228059951086
0.000132810248546939
0.000170248176788802
0.000220282330874074
0.000286558625873127
0.00037239905381514
0.000479964163341941
0.000610121505598427
0.000764168463029869
0.000944507057686233
0.00114738631009012
0.00136580761801581
0.00159067168955448
0.00181298316729746
0.00203188924227222
0.00227265453637461
0.0026655426811889
0.00310502112291789
0.00348705223487034
0.00382514403307574
0.00413059034110699
0.00441021866017762
0.00466821393153883
0.00490751660644793
0.00512846230092956
0.00532879043845999
0.00551085626847375
0.00567527516634358
0.00582252412438442
0.00595305879474014
0.00606734091728845
0.00616584170957482
0.0062490687072668
0.00631757047570811
0.00637195010621585
0.00641286088736279
0.00644100303583985
0.00645710859290071
0.00646192702255553
0.00645619332273033
0.00644061508981466
0.006415855445385
0.00638257772807376
0.00634152207594459
0.00629346957952514
0.00623919262572455
0.00617939745907078
0.00611467786275605
0.00604548489747527
0.00597213425655487
0.00589493451181873
0.00581434578457679
0.00573077613987491
0.00564463442676254
0.00555612952768823
0.00546536675889528
0.00537244940604343
0.005277472846086
0.00518058033950794
0.00508165354731471
0.004980401417842
0.00487665108666234
0.00476950763009371
0.00465839311179415
0.00454157872797807
0.0044176022020801
0.00428226070243064
0.00413144885748495
0.00395355345291769
0.00371944620950106
0.00356048274599951
0.00369806114376301
0.00387886964645698
0.0040887874516902
0.00429631965012251
0.00450514216345049
0.00470931817138901
0.00491198287670882
0.00512220868221834
0.00530962648380081
0.0054423345990698
0.00550708397774217
0.0054944898946232
0.00539973385597355
0.00520810339362763
0.00494561375702867
0.00466307576407057
0.00437930309936211
0.00410187831064912
0.00384406122358558
0.00362344005158188
0.00345168807959849
0.00326869843729489
0.00307880085986838
0.00290185732265978
0.00273552584401783
0.00254688992527345
0.00228069070715063
0.00192200001552769
0.00160152766533286
0.00136115258420919
0.00122063650565369
0.00126049421983872
0.00282617896538688
0.00292785214868252
0.0025031387148286
0.00184421681666791
0.00103951383599721
0.000445142597809882
0.000202300014736882
0.000173321195078522
0.000143739624794777
0.000108703031554685
9.05183776556673e-05
8.68171400767761e-05
9.37275075026892e-05
0.000107838907235071
0.000127812983725906
0.000152819410036158
0.000184750432012688
0.000227149914562297
0.000284798022352845
0.000362027907342303
0.000463470195659168
0.000594908429233878
0.000760566735991743
0.000961564546996538
0.00119622304030876
0.00146387840980355
0.00176592051966013
0.00209415878953757
0.00243736396433021
0.00278348707917679
0.00312300312824072
0.00346087278005999
0.00384010244823049
0.0044177754566795
0.00503300531022725
0.00556109330230546
0.00602523482842521
0.00644147489202588
0.00682026442671618
0.0071677556726619
0.00748801073377122
0.00777833896800636
0.00804212085016378
0.00828125576433908
0.00849672035862616
0.00868934534837609
0.00885990195308286
0.00900913712748167
0.00913778533063784
0.00924660214882016
0.00933637436431062
0.00940793698647396
0.0094621705097552
0.00949999783400703
0.00952236851377284
0.009530242194506
0.00952455463250965
0.00950620271040194
0.00947602699911579
0.00943486449905525
0.00938363476647158
0.00932330207633047
0.00925481661615977
0.00917904767727371
0.00909672971877036
0.00900842757960515
0.00891454318848488
0.00881546114826336
0.00871174650416581
0.00860390225459694
0.00849242505442034
0.00837759085857729
0.00825953425765512
0.00813839631657596
0.00801427710937285
0.0078873878368792
0.00775753858762675
0.00762475239283927
0.00748831900160449
0.00734728396487309
0.0072007691553818
0.0070469717801964
0.00688378065873628
0.00670661772670293
0.00650980980342737
0.00628065086357309
0.00598217881063071
0.00577163409679588
0.00591902948476538
0.00614781146922896
0.0064246501588432
0.0067117729725772
0.0070097646302799
0.00731185471477303
0.00762079543622063
0.00794592155597703
0.00825178078159732
0.00849749925148985
0.00866192174683222
0.00872909794338141
0.00868831502110652
0.00851668166412453
0.00823829540918662
0.0079143723450207
0.00757230088558921
0.00722376749381278
0.0068883111944635
0.00659231552671695
0.00635730989948231
0.00609478103482528
0.00580462293872528
0.00551940509723644
0.0052380892472409
0.00490939439636267
0.00443002958377282
0.00378710075172833
0.00322160306731391
0.00279887956113788
0.00255230286144764
0.00264083881586963
0.00490455177417267
0.00505490478592307
0.00438968815386457
0.00332942043830132
0.00195689009551006
0.000874695483158728
0.000395343930391789
0.000333732800372548
0.000277111598158287
0.000209840859110974
0.000174561793227739
0.000166918933300645
0.000179546799321752
0.000205792475213773
0.000242804978443732
0.000288688742100789
0.000346493886771958
0.000422070310764118
0.000522919527836465
0.000654912151419394
0.000823385146752695
0.00103445903133951
0.00129062494797016
0.0015893533946851
0.00192517130822752
0.00229583490853727
0.00270227906900228
0.0031337629811003
0.00357800910569946
0.00402379737441189
0.00446528637485974
0.00491591445465656
0.00543065136337285
0.00615671048922546
0.00689800492570549
0.00753239499223848
0.00808888916870546
0.00858651698514138
0.00903812014041289
0.00945118689580638
0.00982818673999647
0.0101693770269689
0.0104791316400419
0.0107593799319816
0.0110113945035366
0.01123628097315
0.0114350584582446
0.0116086990083107
0.0117581461533983
0.0118843518478094
0.0119882909625316
0.01207098009801
0.0121334763509185
0.0121768741977042
0.0122022898457921
0.0122108434846938
0.0122036255050241
0.0121816802757815
0.0121459887302334
0.0120975232562949
0.0120373371752297
0.0119665287939434
0.0118861772967355
0.0117972711372735
0.0117006505019755
0.011596970981766
0.0114867081645416
0.0113703062060044
0.0112484063925897
0.0111215798009236
0.010990383530007
0.0108551526706441
0.0107160514432165
0.0105732567406646
0.0104268721250768
0.0102771709149744
0.0101243046790434
0.00996784003426349
0.00980697258115307
0.00964083293870163
0.00946835833600635
0.00928782578379158
0.00909674590514805
0.00889069331801746
0.00866318121784566
0.00840206770291074
0.00806904424687734
0.0078261117751155
0.00795899541061712
0.00821012174625506
0.0085285150030384
0.00887267222840962
0.00923884888757806
0.00961954961264311
0.0100164929208644
0.0104378200367438
0.010846737177623
0.0111979656431534
0.011464945326683
0.0116275791707309
0.0116713978025448
0.011569852651916
0.0113426937107283
0.0110525853305983
0.0107320944521809
0.0103957637095353
0.0100665566826976
0.00977479209245857
0.00954901425637391
0.00928237383354848
0.0089597949064646
0.00861789329870552
0.00825453741329457
0.00780702930703259
0.0071146543814957
0.00617784255351736
0.00536595234232902
0.00478022051582773
0.00445075829020559
0.00461931180985014
0.00735076046981053
0.00754042921705932
0.00666791685627033
0.00523803844320263
0.00325318111379615
0.00155346929553593
0.000706799019693506
0.000583674854118217
0.000484574355074876
0.000367429472565973
0.000305273110980117
0.000290671210755346
0.000310977477321668
0.000354242611643239
0.000414801937079573
0.000488639904507238
0.000579758265822498
0.000696224434984308
0.000847685783394935
0.00104008077107118
0.00127765879442707
0.0015651856013843
0.00190228474408357
0.0022831884569601
0.00270070581607049
0.00315308714336167
0.00364155095638192
0.00415454717788394
0.00468062372237688
0.00521103943022997
0.00574472218315685
0.00630176944800599
0.00694051562338379
0.00778158985351147
0.00861483458158852
0.00932966432184883
0.00995711545834053
0.0105180246792144
0.0110265384962014
0.0114909177205803
0.0119115735011259
0.0122929812128347
0.0126389064424022
0.0129514101115598
0.0132319929877284
0.013481971821277
0.0137025594160381
0.013894906111003
0.014060123080205
0.0141993207074835
0.0143136264918142
0.0144042047621548
0.0144722566335156
0.0145190167099793
0.0145457376692401
0.0145536718534602
0.014544038333912
0.0145180058641432
0.0144766749656595
0.0144211318145995
0.014352539355523
0.0142721049688982
0.0141810128569367
0.014080349486837
0.0139710440987212
0.013853832003067
0.0137292559822607
0.0135978107236088
0.013460200973124
0.0133170530608132
0.0131689730507433
0.0130163509661535
0.0128593817642518
0.0126982762661788
0.0125331431509583
0.0123646246204106
0.0121925942043071
0.0120164489959542
0.0118354263983477
0.0116487297477771
0.0114551910169271
0.0112532045261969
0.0110400820540574
0.0108117037997209
0.0105612333764647
0.0102775801764882
0.00992410253457686
0.00965954819876339
0.00976976353767236
0.0100293452128224
0.0103739460200882
0.0107592166292293
0.0111770594002493
0.011619035572263
0.0120855527246284
0.0125829012865681
0.0130741672224455
0.0135119286388075
0.0138660107141574
0.0141138968178426
0.0142391303986446
0.0142147236676792
0.014057335371544
0.0138278580927331
0.0135619091593589
0.0132766134128528
0.0129972286291413
0.0127558971449343
0.0125853336828037
0.0123729273051648
0.0120848877155574
0.0117509628961375
0.0113609206609821
0.0108431707406608
0.0099829869258334
0.00878887793848241
0.00775581280472255
0.00705849225613024
0.00669882058323546
0.00696902236293193
0.00983762043577592
0.010056168040695
0.00905137964501028
0.00737141701130043
0.00486138564670054
0.00252362240769604
0.00118255494068017
0.000946816010985369
0.00078464920282907
0.000595805683271322
0.000494207543311727
0.000467834952109093
0.000496651801919724
0.00056054758592293
0.000649062460390167
0.000754595273991509
0.000881586258144892
0.00103988342813182
0.00124043294390965
0.0014882033462048
0.00178589862693767
0.00213698250501098
0.00253902374956068
0.00298474256262692
0.00346707597369827
0.00398540571330708
0.00454096899891634
0.00512220661189236
0.0057191523239518
0.00632583268647169
0.006945281788753
0.00760117179418437
0.0083493208018371
0.00928162909964965
0.0101874402811665
0.0109680186895386
0.0116543340724967
0.0122683381273414
0.0128248229820504
0.0133316082088383
0.0137898309774038
0.0142054653018569
0.0145820890184582
0.0149219149161025
0.0152266316987869
0.01549773058966
0.0157365868852468
0.0159445023547502
0.0161227318454066
0.0162725222142103
0.0163951329663325
0.0164918565467276
0.0165640192528182
0.0166129777599222
0.0166401039627744
0.0166467662727203
0.0166342976993721
0.0166039782848379
0.016557016057508
0.0164945980948914
0.0164179830315371
0.0163284732104344
0.0162273445581012
0.016115769940067
0.0159947584971156
0.0158651191217094
0.0157274579165308
0.0155823141600871
0.0154304494788663
0.0152725380479746
0.0151092290490976
0.0149409645760318
0.0147679709369356
0.0145904907764527
0.0144088225775393
0.0142237217183015
0.0140346659538465
0.0138411471118149
0.0136424277409541
0.0134377727538659
0.0132259609100444
0.0130055054184289
0.0127736336860757
0.012526558996059
0.0122573740460635
0.0119561190011429
0.0115887069971181
0.0113088053602367
0.0113950796433436
0.0116555344591262
0.0120168991608589
0.012432500023813
0.0128902555893156
0.0133805832839704
0.0139024583243669
0.0144600379724001
0.0150165383378433
0.0155234284050183
0.0159479830174693
0.0162661896039865
0.0164605376040979
0.0165050559318982
0.0164147208300131
0.0162479137123791
0.0160419830298214
0.0158164336915038
0.0155982842000936
0.0154210500427128
0.0153193431647564
0.0151838059480862
0.0149658582922851
0.0146837135062478
0.0143140036183654
0.0137740775327902
0.0128031595032861
0.0113946247253231
0.010144615600558
0.00935819982545113
0.0090014403187229
0.00936986990246656
0.0121319194381437
0.0123735437358716
0.0113106053054649
0.00952142280241995
0.00665020928987794
0.00377109873618507
0.00187326792206036
0.00144140083352836
0.00119026184597524
0.000905286569115413
0.000749195077706796
0.000704093981984091
0.000739799947507166
0.000824769110374063
0.000941405222769975
0.00107726314742105
0.00123697491058131
0.00143201095828954
0.00167425966643995
0.00196771988846367
0.00231412197043324
0.00271616878989571
0.00317019832596492
0.00366847713757858
0.0042047198766583
0.00477921749465904
0.00539293312997168
0.00603474603607827
0.00669629853514056
0.00737408448043025
0.00807404986041069
0.00882084418193679
0.00966500187222709
0.0106732557404285
0.0116409451219323
0.0124788158613764
0.0132169936568181
0.0138781163033545
0.0144773617993316
0.0150214270352993
0.0155134385056006
0.0159596691660791
0.0163636814173615
0.0167278424290643
0.017054006674349
0.0173438193575909
0.0175988007284428
0.0178203887571028
0.0180099681222473
0.0181689093196687
0.0182985916100902
0.018400423828283
0.0184758461001007
0.0185263262644633
0.0185533449758723
0.0185583769806914
0.0185428602437855
0.0185081781264355
0.0184556386497126
0.018386521540039
0.0183021723484307
0.0182039795900072
0.0180933027367967
0.0179713939431944
0.0178393366463795
0.0176980095776362
0.0175480797754429
0.0173901267910535
0.0172249655399082
0.0170533131797001
0.0168758585463272
0.0166930937971949
0.0165052769047061
0.0163127266663368
0.0161161046173058
0.0159157034689216
0.0157110247727153
0.0155016304142213
0.015286805880947
0.0150658694435196
0.0148375826756632
0.0146005710847765
0.0143520551501021
0.0140885735650048
0.013803327241787
0.0134874524534871
0.0131098158699003
0.0128181411353438
0.0128816322698778
0.0131385275579334
0.0135104065210498
0.0139487524709895
0.0144379546314897
0.0149671608283785
0.0155338574859281
0.0161399620185054
0.0167487716214404
0.0173111460226114
0.0177924867780586
0.0181678102677234
0.0184190532686079
0.0185218043588078
0.0184902709343467
0.0183803209957272
0.0182301384795226
0.0180612956398355
0.0179021766003518
0.0177877076773284
0.0177527883534786
0.017695617951031
0.0175587873173046
0.01734974761576
0.0170315786259178
0.0165102759117733
0.0154851336211375
0.0139088371220484
0.0124244518634956
0.0115174771448785
0.0111527711038515
0.011588849909342
0.0141463385555098
0.0143972224413232
0.0133301312801206
0.0115448325211676
0.00848481256914477
0.00523155901663962
0.0028086819476268
0.00207535385187997
0.00170311463104564
0.00129794413259252
0.00107122723027065
0.000998376626405979
0.00103618014141222
0.00113872064065882
0.00127929659981286
0.00144019400081694
0.00162640975676916
0.00185107389089575
0.00212687441445846
0.00245713859394807
0.00284311230843234
0.00328696118809718
0.00378423686311524
0.00432725230991395
0.0049106055633211
0.00553517978899653
0.00620157902286909
0.00689934899641839
0.00762160490627986
0.00836680125841366
0.0091426394239967
0.00997300112844709
0.010902335940948
0.0119769080739666
0.0130003362980534
0.0138903666900297
0.0146761314288558
0.0153806460703342
0.0160194829876559
0.016597587318734
0.0171209169920507
0.0175953982686179
0.0180246578703334
0.0184112168141293
0.0187570828436038
0.0190640432648086
0.0193337531054094
0.0195677776074956
0.0197676230061824
0.0199347756479054
0.0200707269763255
0.0201769949173514
0.0202551262886259
0.020306693215294
0.0203332784858566
0.020336457011146
0.0203177659752106
0.0202786870031074
0.0202206232754075
0.0201449416701863
0.0200530688508815
0.0199464737259771
0.0198265939825243
0.0196947564434605
0.0195521152009084
0.0193996164658743
0.0192379868403796
0.0190678427783024
0.0188900506741164
0.0187053672168765
0.0185145186482817
0.0183180458273646
0.0181162379995325
0.0179097252386233
0.0176990600273179
0.01748426622934
0.017264947797165
0.0170407232971607
0.016810903623308
0.0165748548819218
0.0163313476362996
0.0160791127034281
0.0158154186824923
0.0155371141723993
0.0152376296860122
0.0149091375819754
0.0145235988111456
0.0142225943970551
0.014264959266266
0.0145155558364701
0.0148935492470137
0.0153490559321988
0.0158633836184867
0.0164243476129362
0.0170279185658657
0.017673752113799
0.0183251014287335
0.0189324784615142
0.0194598867595066
0.0198817169814166
0.020179669311981
0.0203310538336725
0.0203498379905947
0.0202895512058463
0.0201885799743653
0.0200701900077698
0.0199637691180703
0.0199056867291967
0.0199301716794109
0.0199442001132517
0.0198863323033744
0.0197558816285873
0.0195048036530634
0.01903015215305
0.0179997679301131
0.0163145718900909
0.0145931736540015
0.01350451201379
0.0130979382503413
0.0135679983968786
0.0158779869859977
0.0161221727397846
0.0150826446381445
0.0133717096778631
0.0102672063148066
0.0068179891049493
0.00398433351922098
0.00284409891866
0.00231152922900842
0.00176550620005025
0.00145301574318888
0.00134251794987483
0.00137521398002824
0.00148907455650483
0.00164718149197164
0.00182683670767445
0.00203349499703007
0.00228172593158406
0.00258472131650178
0.00294531587939822
0.00336449064474955
0.00384394091398554
0.00437872901934706
0.0049614602391391
0.00558754746583503
0.0062582408420736
0.00697381739243633
0.00772455935782211
0.00850481536200862
0.00931447214352425
0.0101620532585044
0.0110696457045308
0.0120758038426116
0.0132105535393063
0.0142859935548674
0.0152249328372364
0.0160555723819843
0.0168010511413212
0.0174768891231967
0.0180874922652799
0.0186404807822279
0.019141642707608
0.0195947120483232
0.0200023632955094
0.0203667503121338
0.0206897955028097
0.02097328275552
0.0212188993449366
0.0214282681174364
0.0216029865379105
0.0217446535346521
0.0218548915731183
0.0219353496618634
0.0219876998634262
0.0220136228831524
0.0220147898625158
0.0219928335150218
0.0219493305308882
0.0218857761800714
0.0218036208143695
0.0217043683202647
0.0215895641424365
0.0214607206456825
0.0213192362556916
0.0211663333001601
0.02100302400842
0.0208300939384482
0.0206481936385261
0.0204582404274242
0.0202610279336183
0.0200573182562205
0.019847699999358
0.0196325903885569
0.0194129060466845
0.0191887836961682
0.0189602573958219
0.0187270120711087
0.018488714917627
0.0182447061029053
0.0179943961546499
0.0177365843012476
0.0174701012479452
0.0171923041373154
0.016900336274337
0.0165879424667823
0.0162482714271864
0.0158563726000181
0.0155477688203175
0.0155707204458623
0.0158132640380506
0.0161941229259611
0.0166625059059773
0.0171970556085582
0.0177842363061282
0.0184184908050083
0.0190972327444619
0.0197835412897365
0.0204277292934164
0.0209927644679335
0.0214526721135489
0.0217891495587724
0.0219812407684871
0.0220429637522767
0.0220256991674636
0.0219675895724466
0.0218932281383659
0.0218326860888343
0.0218236936694632
0.0218993305002902
0.0219750914973981
0.0219885950765852
0.0219333818800245
0.021753162095267
0.0213390629779392
0.0203369416342715
0.0186025022784167
0.0166779029663198
0.0153601675226368
0.0148287530871418
0.0152889439461441
0.0173471197259807
0.0175800152762162
0.016588777703463
0.0149839325023106
0.0119510052201213
0.00845592236896362
0.00536506819924023
0.00373676739750431
0.00299477476187741
0.00229215128091825
0.00188135159314203
0.00172411682749232
0.00174392011778339
0.00186227043149522
0.00203168661688655
0.00222493889505128
0.00244762778350813
0.00271524225996966
0.00304109316154583
0.00342762419613655
0.00387566270901255
0.00438650922595553
0.00495497752011609
0.00557408298543831
0.00623994492926877
0.00695405086049084
0.00771642145689301
0.0085180485591903
0.0093542512737702
0.0102258730350819
0.0111415710026171
0.0121211124788783
0.0131977596830676
0.0143886919415452