/*--------------------------------*- C++ -*----------------------------------*\
  =========                 |
  \\      /  F ield         | OpenFOAM: The Open Source CFD Toolbox
   \\    /   O peration     | Website:  https://openfoam.org
    \\  /    A nd           | Version:  7
     \\/     M anipulation  |
\*---------------------------------------------------------------------------*/
FoamFile
{
    version     2.0;
    format      ascii;
    class       volScalarField;
    location    "20000";
    object      k_conv;
}
// * * * * * * * * * * * * * * * * * * * * * * * * * * * * * * * * * * * * * //

dimensions      [0 2 -3 0 0 0 0];

internalField   nonuniform List<scalar> 
15600
(
-7.13445848956338e-07
-8.18634568829896e-07
-4.07471019420608e-08
-4.70815889433333e-08
-2.38163853177332e-08
5.19519660431158e-09
5.6178060093384e-10
-1.01568208798606e-08
-6.91894023977902e-09
-3.15367932164179e-09
-1.27911022116029e-09
-1.01305289286141e-10
-1.93926168795623e-10
-2.79985474014269e-10
-3.6392157288188e-10
-4.91001487459476e-10
-6.96250073753497e-10
-1.03081771333609e-09
-1.52557997850996e-09
-2.24421747331861e-09
-3.30183096450236e-09
-4.77780934812935e-09
-6.69232129159078e-09
-9.02311564738065e-09
-1.18896937094511e-08
-1.55692994649645e-08
-1.95412815072818e-08
-2.32740808610099e-08
-2.61359948967934e-08
-2.78112092493491e-08
-2.90834777874949e-08
-3.37922722168662e-08
-6.90772380264299e-08
-9.61051324726564e-08
-9.56360515540965e-08
-9.25926639341862e-08
-8.95702355891606e-08
-8.63057775976742e-08
-8.28354697596517e-08
-7.92120778188832e-08
-7.56259038256084e-08
-7.23025002967029e-08
-6.75323879733826e-08
-2.01671821343293e-07
-3.84018274838813e-07
-5.62503609624838e-07
-7.34689650098242e-07
-8.98462135096153e-07
-1.05171799476997e-06
-1.19270311622829e-06
-1.31987424113785e-06
-1.43212361685854e-06
-1.52871412363327e-06
-1.60938774667402e-06
-1.67423307985161e-06
-1.72381565777621e-06
-1.75884967658883e-06
-1.78030431912264e-06
-1.78904790318e-06
-1.78564118805937e-06
-1.77114998541899e-06
-1.74694043274994e-06
-1.71460187430904e-06
-1.67568647282631e-06
-1.63153840303046e-06
-1.58315117572147e-06
-1.53098876828384e-06
-1.47519290409049e-06
-1.41679833958184e-06
-1.35632678955741e-06
-1.29506390048475e-06
-1.23299064510326e-06
-1.17055720708354e-06
-1.10726442230594e-06
-1.04428698673689e-06
-9.80339785925687e-07
-9.17698596500447e-07
-8.52514073619964e-07
-7.89191025395233e-07
-7.19929963718688e-07
-6.53739058521238e-07
-5.74303020511785e-07
-4.99562326879224e-07
-3.9352569897143e-07
-2.92805501469107e-07
-1.18176731484615e-07
1.15266242912483e-09
-1.88830616132103e-09
-4.06517715094754e-07
-5.92842697454606e-07
-9.66202070111978e-07
-1.22504795670025e-06
-1.55856814964925e-06
-1.89000302754039e-06
-2.28346524018025e-06
-2.8412516550363e-06
-3.29795729068198e-06
-3.51033942746255e-06
-3.52230288429464e-06
-3.27805999347293e-06
-2.7841526333129e-06
-1.89455085239777e-06
-1.08129059203618e-06
-6.75591196646161e-07
-4.17097749294225e-07
-2.50258916256015e-07
-2.71483934159325e-07
-5.33375330755465e-07
-1.08934406196525e-06
-9.29547318816706e-07
-7.12940049514954e-07
-5.75360739503065e-07
-3.0501375833526e-07
-8.87720164204792e-08
-1.25983768314249e-07
-1.63164778429791e-07
-1.19132253100581e-07
-6.44564301631526e-08
-2.71273358567039e-08
-3.23708263613902e-07
-1.63125887056276e-05
-1.71680418930235e-05
-2.7152426718019e-06
-2.98516402854842e-06
-1.83789102463097e-06
6.60363870567394e-07
6.2835682774845e-08
-1.83747723450498e-07
-1.14489248896589e-07
-5.68082268771629e-08
-2.23474046673873e-08
-8.47603174425053e-09
-1.61364977615039e-08
-2.27254830235115e-08
-3.00276579805775e-08
-4.07677300247234e-08
-5.84686783388449e-08
-8.64426879522117e-08
-1.28332528024034e-07
-1.89391840594957e-07
-2.78496508129965e-07
-4.02335539382479e-07
-5.63797631064564e-07
-7.63230119536599e-07
-1.00888556746648e-06
-1.31393983745233e-06
-1.64651672519795e-06
-1.96525895943374e-06
-2.22193608211294e-06
-2.38264466796169e-06
-2.53418837322679e-06
-3.04242921212088e-06
-5.32340831457461e-06
-7.0792203508454e-06
-7.17838895488794e-06
-7.11927803804888e-06
-7.01686155075311e-06
-6.88099115052769e-06
-6.72054532598574e-06
-6.54578680530266e-06
-6.37757378495421e-06
-6.23808712818114e-06
-7.3299201937278e-06
-1.12245733879744e-05
-1.49953557994709e-05
-1.86439584104406e-05
-2.2126680590734e-05
-2.54048782273719e-05
-2.84416721269464e-05
-3.12063883322049e-05
-3.36733630324575e-05
-3.58249123056975e-05
-3.76507210885782e-05
-3.91489983253119e-05
-4.03246447519169e-05
-4.11902441506705e-05
-4.17612216095615e-05
-4.20563830764592e-05
-4.20927512866e-05
-4.18842179220676e-05
-4.14535311938484e-05
-4.08289770179285e-05
-4.00420262572574e-05
-3.91226924564354e-05
-3.80961817557032e-05
-3.69802784518969e-05
-3.57836352176082e-05
-3.45122900516856e-05
-3.31857307774028e-05
-3.18170274339078e-05
-3.0428579298843e-05
-2.90212718160485e-05
-2.76012862354563e-05
-2.61630119890383e-05
-2.47238569247686e-05
-2.32670686151601e-05
-2.18220542585354e-05
-2.0332548730548e-05
-1.88524242980627e-05
-1.7269485034692e-05
-1.5695044440816e-05
-1.38879852390427e-05
-1.20666360847445e-05
-9.65444978977877e-06
-7.10596588955847e-06
-3.18431169359182e-06
-3.54627528601932e-08
1.64518673092244e-07
-9.27785220303966e-06
-1.46879671752417e-05
-2.24996161172228e-05
-2.86214729102946e-05
-3.58065460079895e-05
-4.31286707769332e-05
-5.1740862279104e-05
-6.34804366999606e-05
-7.34633701192915e-05
-7.87888376321223e-05
-7.99306048622309e-05
-7.60193277546929e-05
-6.67133627862864e-05
-4.95822199447109e-05
-3.27175653572994e-05
-2.27473988697059e-05
-1.61725586136222e-05
-1.18810880515795e-05
-1.13048938392389e-05
-1.62504006094787e-05
-2.6882200955309e-05
-2.60450250952426e-05
-2.25869649333939e-05
-1.99103257620507e-05
-1.44941399978255e-05
-7.45910768736762e-06
-8.61860031083149e-06
-1.00940743021484e-05
-7.21060312776108e-06
-3.73872705739397e-06
-1.20783990769658e-06
-3.39367173711065e-06
-9.80054519178796e-05
-0.000103064722434136
-2.03940759479688e-05
-1.64664110164941e-05
-1.18294418080037e-05
8.61627221464312e-06
1.06527116531805e-06
-7.97455556640011e-07
-4.30990959760477e-07
-2.42786217125848e-07
-1.01728659424727e-07
-8.54358220065054e-08
-1.59633048761902e-07
-2.21129584353243e-07
-2.95803661396706e-07
-4.07186845642692e-07
-5.90516133082499e-07
-8.75428876390187e-07
-1.30544739883173e-06
-1.93428875764639e-06
-2.84320223728266e-06
-4.10167828821869e-06
-5.75104612276505e-06
-7.80593792048909e-06
-1.03149433826411e-05
-1.33558139816867e-05
-1.66947540380631e-05
-1.99703305978673e-05
-2.27043154339253e-05
-2.45217361693605e-05
-2.62551759665118e-05
-3.02907064485332e-05
-4.77199106248158e-05
-6.12544255223477e-05
-6.37672231567747e-05
-6.5712983929409e-05
-6.6598894667763e-05
-6.70428443825629e-05
-6.71528743251393e-05
-6.71229424781177e-05
-6.72084245912615e-05
-6.72823371387524e-05
-8.53103376552849e-05
-0.000103454660557499
-0.000120830862230739
-0.000137309878414334
-0.000152762884223557
-0.00016707544169908
-0.000180141316503445
-0.000191874482167871
-0.000202207990352755
-0.000211101815769015
-0.000218541849453211
-0.000224541999051782
-0.000229138542805095
-0.000232390061761063
-0.000234362269168847
-0.000235127272794974
-0.000234751068365066
-0.000233297478674657
-0.000230864952277849
-0.000227573034150924
-0.000223550325749049
-0.000218916037645055
-0.000213765846929369
-0.000208161996512972
-0.000202135136735618
-0.000195720889402404
-0.00018900156044407
-0.000182041787792514
-0.000174931892185573
-0.000167673518374543
-0.000160286400861898
-0.000152753428984937
-0.000145142137176511
-0.000137391448902126
-0.000129599290110524
-0.000121541113173854
-0.000113387117373443
-0.000104688022620976
-9.58144099045889e-05
-8.5118918480565e-05
-7.45069760121344e-05
-6.10485453791536e-05
-4.59269204683031e-05
-2.33472134629342e-05
-2.06614088989715e-06
1.65222855848264e-06
-5.42830089250325e-05
-8.90791787597163e-05
-0.000131209192101234
-0.000166264984800291
-0.000205341159408602
-0.000245897406344406
-0.000293487829103484
-0.000356530400545877
-0.000413465713637024
-0.000449817159640686
-0.000465588494929543
-0.000456320353248938
-0.000417659412872275
-0.000337546476965995
-0.000249928822288479
-0.000189328155127452
-0.000146814812993832
-0.00011798657802679
-0.000109086725792447
-0.000133012056276978
-0.00018911007632312
-0.000196787576261001
-0.000183485358973527
-0.000168786059096692
-0.000138171784762087
-8.22998143060926e-05
-7.0775310950998e-05
-6.34298280392778e-05
-3.66917551583356e-05
-1.2362472108289e-05
3.30869986339913e-06
-5.80228568462844e-08
-0.000312484033614528
-0.000345412274880446
-7.17467438492122e-05
-2.3882586174845e-05
-2.98031071787563e-05
4.40138711180242e-05
7.40355090057316e-06
-1.38809932381735e-06
-5.44446115681782e-07
-4.38833156522795e-07
-2.09761980033628e-07
-3.73589043858496e-07
-6.96035543148551e-07
-9.6164938611195e-07
-1.29673035593657e-06
-1.81123743069275e-06
-2.65047075787079e-06
-3.9496667261462e-06
-5.91271010320599e-06
-8.77633433091418e-06
-1.28658475733048e-05
-1.84734616765384e-05
-2.57716634220665e-05
-3.47613830202865e-05
-4.54489202908752e-05
-5.8035900987561e-05
-7.16152110153849e-05
-8.48280347292704e-05
-9.57074772493031e-05
-0.00010264347149899
-0.000107609840723663
-0.000115347598881449
-0.000170208659187275
-0.000209126335378481
-0.00022040119650005
-0.000234358331881014
-0.000242359326644718
-0.000248759385962909
-0.000253855925956434
-0.00025863447406719
-0.000264263180258963
-0.000292169618464991
-0.000328070439936649
-0.000358520902822311
-0.000386610745633015
-0.0004123572713639
-0.000435754543178538
-0.000456789635468404
-0.000475450184741496
-0.000491734186515381
-0.000505655878407924
-0.000517250434445297
-0.000526575172908122
-0.00053370866330987
-0.000538744610354974
-0.000541785487758167
-0.000542928054989335
-0.000542260790414707
-0.000539867901692589
-0.000535852208475777
-0.000530363149449605
-0.000523572357779352
-0.000515652391712856
-0.000506750863382252
-0.000496969978079132
-0.000486355661401996
-0.000474923748535102
-0.000462737267925497
-0.000449911910066447
-0.000436550262323084
-0.000422777051155012
-0.000408565222532565
-0.000393922485219873
-0.000378810132467415
-0.000363327729631474
-0.000347359986030796
-0.000331034285758008
-0.000313936054740236
-0.000296230046679112
-0.000274369955513784
-0.000254403353874067
-0.000231615996929503
-0.000206737069461464
-0.000175185327889446
-0.000137807267561717
-8.219410454836e-05
-1.79095610373721e-05
9.32206213427009e-07
-0.000137869259380403
-0.000229515396224219
-0.000327313044786745
-0.0004119376404181
-0.000503051031433756
-0.000599731788034791
-0.000713836387459261
-0.000862191842869306
-0.00100885543822963
-0.00112498094208636
-0.00120460183584674
-0.00123515879486462
-0.00119813045611423
-0.00106069410042925
-0.000875347335862654
-0.000720117526259519
-0.000599336130661934
-0.00051159462290946
-0.00047390798048074
-0.000531376414068003
-0.000687480671912728
-0.000749135208050103
-0.000736762315153647
-0.000700641168118321
-0.000614046643933921
-0.000396143813620323
-0.000271135802338825
-0.000150851582371192
-2.12784632553176e-05
5.12411554831248e-05
7.96909280151554e-05
3.80786283500338e-05
-0.000655488544680784
-0.000796752558541667
-0.000180368553894315
4.61879158891555e-05
-3.79763988780643e-05
0.000134225601581019
3.19590190288674e-05
8.03387136581274e-07
1.14496282075293e-06
2.95030290438232e-08
-7.33492637962993e-08
-1.05338842641392e-06
-2.0166938996324e-06
-2.80558732925423e-06
-3.80326564364823e-06
-5.37044692822921e-06
-7.90497717175083e-06
-1.18187501591868e-05
-1.76809134211109e-05
-2.60920882817102e-05
-3.77935307225494e-05
-5.33394478410767e-05
-7.2800285390484e-05
-9.5529710088203e-05
-0.000120766669099128
-0.000148677320284466
-0.000176963383521265
-0.000203155342822862
-0.000223500160357764
-0.00023483083535281
-0.000238476249210051
-0.000242724923635703
-0.000336198080919866
-0.00038739303316767
-0.000417728162289163
-0.000459429599804904
-0.000482893082508182
-0.000502400948205922
-0.000518233197429327
-0.00053291950436273
-0.000551737431897333
-0.000609936396320114
-0.000637452221996746
-0.000661840947285798
-0.000683184970495876
-0.000701713684758077
-0.000717603577919716
-0.00073099389751273
-0.000742012931025422
-0.000750779866297732
-0.000757417725020663
-0.000762049796678269
-0.000764803030925924
-0.000765802967392669
-0.000765169153430512
-0.000763003572822934
-0.000759384598735762
-0.000754364884174092
-0.000748002454982709
-0.000740398464904911
-0.000731690980275005
-0.000722022982593284
-0.000711519488377987
-0.000700267072220077
-0.000688297627126521
-0.000675583791818236
-0.000662091097824129
-0.000647881169161116
-0.000633036135856605
-0.000617640344843567
-0.000601783057466335
-0.000585387461136847
-0.000568418219868491
-0.000550809843805433
-0.000532631807930831
-0.000513747885490867
-0.000494233539771425
-0.000469683155150556
-0.000445924437739583
-0.000422370443293446
-0.00039712022621994
-0.000368174411017488
-0.000335653133070871
-0.000294433482716978
-0.000243678946763221
-0.000168065260580555
-5.8761715102905e-05
-1.65158138232827e-05
-0.000195354224495314
-0.000323835837635248
-0.000450524235547041
-0.000564267577368007
-0.000682793707803297
-0.000810280027341209
-0.000960855217733856
-0.00115396846733991
-0.00136195399289438
-0.00155693739620751
-0.00172771426535689
-0.00185796815760828
-0.00191528089660314
-0.00185091590156152
-0.00168889920082451
-0.00150872818930456
-0.00134741463086392
-0.00122189651674464
-0.00116173127032244
-0.00126198432492565
-0.00155116958616302
-0.00176833060562965
-0.00183847433874615
-0.00181892681394956
-0.0016901280810369
-0.00118166107290106
-0.000720982749636614
-0.0001700494642676
0.000300501766495552
0.000449015727093021
0.000424055561375334
0.000173885441415405
-0.000934356304358591
-0.00135595276847676
-0.000366080824826212
0.000347400950643216
4.06864838704573e-05
0.000300543927410513
0.000104175536755829
1.32726726814361e-05
8.27977737160053e-06
2.86357533177679e-06
1.10558152593179e-06
-2.20294645750445e-06
-4.51706052601683e-06
-6.36693887096743e-06
-8.6437985160318e-06
-1.22598150478139e-05
-1.80471543247136e-05
-2.68857250095071e-05
-3.9778728345573e-05
-5.75240697111285e-05
-8.0891092154214e-05
-0.000109880688851386
-0.000143325696525499
-0.000178847504214777
-0.000214893080948052
-0.000252724710138375
-0.000289938450712696
-0.000325357453361941
-0.000354835351375948
-0.000374746782272801
-0.00038669809043266
-0.00040844494413453
-0.000533150966962709
-0.000579638823980261
-0.000638729850174502
-0.000705815346953968
-0.000739116427832774
-0.000765263309169042
-0.000784520927500215
-0.000800433996560362
-0.000856640704747144
-0.000871961160147008
-0.000885593859137775
-0.000896311761032825
-0.000904386712659676
-0.000910135205288492
-0.000913806350487116
-0.000915600155911834
-0.000915699831158925
-0.000914270200616443
-0.000911471464171133
-0.000907450731043612
-0.000902345582795882
-0.00089627743548348
-0.000889347925608571
-0.000881627026626156
-0.000873151656290112
-0.000863925269332581
-0.000853962977056645
-0.000843336304328041
-0.000832147898475192
-0.000820492592490667
-0.000808436040918042
-0.000796001048198779
-0.000783156560866442
-0.000769815975365708
-0.000755898677264756
-0.00074145268790928
-0.00072651989017603
-0.000711156419410265
-0.000695417396410482
-0.000679193302634827
-0.00066241168225783
-0.000644993388375999
-0.00062696298640279
-0.000608204534432098
-0.000581479165644088
-0.000559265830641466
-0.000537329520095765
-0.000513422095165307
-0.000487500435828034
-0.000457801416337172
-0.000423898083999197
-0.000381149971654434
-0.000327436761077839
-0.000247905543259469
-0.000116889609569636
-5.82148209530227e-05
-0.000219611923557088
-0.00034836875195208
-0.000473064113003583
-0.000588357721835205
-0.000704871827929916
-0.00082958393599991
-0.000975368649594789
-0.00115994614985508
-0.00136990616218447
-0.00158731489480102
-0.00180176195994568
-0.00200054280075236
-0.00215014034693736
-0.00220481116418622
-0.00215424658952501
-0.00204045223087149
-0.00191625665594346
-0.00181827491352731
-0.00177838828009082
-0.00193056439058257
-0.00233502842304978
-0.0028041316088754
-0.00311553563885799
-0.00325296783253859
-0.00322395098349149
-0.00246838952857084
-0.00151614922288492
-7.56319879747503e-05
0.00125233409259784
0.00162565888493527
0.00139907227528894
0.000634044038686193
-0.000822938539312397
-0.00176543124320085
-0.000635090470873099
0.00105752324040701
0.00042536567712191
0.000569746963090271
0.000283268407725683
5.18966700804878e-05
2.77061158952116e-05
1.14452347920184e-05
5.07076224881687e-06
-3.49081726408751e-06
-8.26017837507311e-06
-1.18567734574628e-05
-1.60171093622572e-05
-2.26203832219668e-05
-3.30346294229899e-05
-4.8561393251832e-05
-7.01576773392672e-05
-9.79758099721342e-05
-0.000131929102153203
-0.000170713185772387
-0.00021220157492837
-0.000254072710153827
-0.00029673048805628
-0.00034361015812696
-0.000392467932373803
-0.000443269794603727
-0.000490948890163316
-0.000532949196874224
-0.000574711004137545
-0.000640498836312819
-0.000784761263501194
-0.000816577818265103
-0.000890025807402138
-0.000958927531801746
-0.000986689391818577
-0.00100655578904612
-0.00101849223986237
-0.00102938646848783
-0.00106575529232912
-0.00106787690761314
-0.00106819408179214
-0.00106628165719716
-0.00106244237136769
-0.00105699979756357
-0.00105020738373302
-0.00104226965329375
-0.00103337254675135
-0.00102368246695313
-0.00101335722544244
-0.00100253560062522
-0.000991339726318338
-0.00097986830433743
-0.000968193396451689
-0.000956350158066141
-0.000944336480584869
-0.000932113435969983
-0.000919653946860258
-0.000906993136278713
-0.000894198148314005
-0.000881321961330196
-0.000868383651782072
-0.000855359683979456
-0.00084217646723649
-0.000828707655639569
-0.000814834744016899
-0.000800589848201035
-0.000785983613413253
-0.000771049824905156
-0.00075582370386622
-0.000740177474808373
-0.000724010763345365
-0.000707239757040654
-0.00068984732884659
-0.000663845322513028
-0.000641981606120811
-0.000621820269590882
-0.000600407348906156
-0.000577084728114653
-0.000551629783336728
-0.000522518115460441
-0.000488997450970953
-0.000446971984595532
-0.000393647254496947
-0.000315371440873884
-0.000187711937964977
-0.000112468970996898
-0.000238293457224159
-0.000349188794381441
-0.000459937962310461
-0.000564992617966138
-0.000668578898076848
-0.000777804124406175
-0.000903486995663675
-0.00106101879911988
-0.00124674856762949
-0.00145187251651255
-0.0016687164800353
-0.00188847072196576
-0.00208135524444721
-0.00220987108625344
-0.0022466455515481
-0.00219961212737193
-0.002118470031726
-0.00205135843895451
-0.00202541675929457
-0.00219357410090998
-0.0026318117973664
-0.00330794235762532
-0.0039321614037092
-0.00436750952728249
-0.0046470278768092
-0.00414391974794582
-0.0026904273315948
-0.00019142600113598
0.00258224131604075
0.00370474727278995
0.00326239261109548
0.00166009331305776
-0.000152982926982411
-0.0018282735203951
-0.00101920957143148
0.00212546583436267
0.00139211783041095
0.00102926761914283
0.000678043153674337
0.000122063591337759
7.07317283573976e-05
3.15691354156982e-05
1.44002033903366e-05
-3.62224690386532e-06
-1.23031681373407e-05
-1.81793355862134e-05
-2.42567719486146e-05
-3.38845111707241e-05
-4.89218045297587e-05
-7.07709831468667e-05
-9.96337115904538e-05
-0.000134681762180542
-0.00017539242183228
-0.000220267709391105
-0.00026813730140785
-0.00031835632723629
-0.000372968440273106
-0.000434814298892609
-0.000500599568324086
-0.000571027189984617
-0.000641250246202827
-0.000711722856629788
-0.000791680232892189
-0.000902099505879834
-0.00104662001951532
-0.0010616183380436
-0.00113375651214816
-0.00118928451127316
-0.00120408078483954
-0.00121202289001758
-0.00121249228159911
-0.00123988160399097
-0.00122974818257343
-0.0012207409146484
-0.0012103316310899
-0.00119838284260517
-0.00118518294253591
-0.0011710396509315
-0.00115619169435228
-0.00114083188356933
-0.00112513322094916
-0.00110925064801262
-0.00109332832856506
-0.00107748871336854
-0.00106183350313797
-0.00104643727016896
-0.00103134464792357
-0.00101656198790539
-0.00100205639820824
-0.000987755655712207
-0.00097359513099248
-0.000959574832595268
-0.000945731629984891
-0.000932085790099729
-0.000918622252150399
-0.000905285277459786
-0.00089197315172563
-0.000878532176178516
-0.000864811534260526
-0.000850827789745753
-0.000836567790483502
-0.000822048854174229
-0.00080729540488725
-0.00079216904934257
-0.000776546667380687
-0.000760343662277081
-0.000737525654935019
-0.00071334423560425
-0.000694869623371828
-0.000675234711464918
-0.000654331897232342
-0.000631571436562368
-0.000606622083446851
-0.000578124693881541
-0.000545141534534484
-0.000503966984675795
-0.000451458362891749
-0.000375008852538339
-0.000264025130435476
-0.000176850033561141
-0.000260932791874707
-0.000348770660711902
-0.000442767297607024
-0.00053449970039693
-0.000623338690345191
-0.000715324850446794
-0.000819393268483235
-0.000949296933499377
-0.00110708931930602
-0.00129060514724271
-0.00149493683006263
-0.00171350924659694
-0.00192006436464074
-0.00208250766222524
-0.00216625010356263
-0.00215848553663406
-0.0020990951117282
-0.00203941059822685
-0.0019995868269751
-0.00213624383800044
-0.00252842556985214
-0.00327596997237243
-0.00412794675961583
-0.00486636299926465
-0.00556033638623737
-0.00564180440271888
-0.00415524338361266
-0.00104742044658704
0.00326477337130807
0.00590281436711411
0.00562447502837254
0.00326236206182756
0.000973497070354139
-0.00153747316243983
-0.00158058571985208
0.00315903960963572
0.00290997012715313
0.00181082866700754
0.0014685056956697
0.0002347272041107
0.000153427695565978
7.17718034467627e-05
2.93312552842339e-05
3.46711939168907e-07
-1.38983490160682e-05
-2.20873416082888e-05
-2.91715566600475e-05
-4.07120010474633e-05
-5.9134828397595e-05
-8.58472980345072e-05
-0.000120235073204075
-0.00016128860762811
-0.00020884864220962
-0.000261570075232514
-0.000319184100026798
-0.00038194259843489
-0.000451876043624709
-0.000529942377310913
-0.000612799353357124
-0.000702493774394378
-0.00079551035290758
-0.000895116413230979
-0.00101133971917034
-0.00115554848511108
-0.00128815169103435
-0.00128860136385997
-0.0013508786641288
-0.00138845472058955
-0.00138929945873137
-0.00138483038817646
-0.00137133076230632
-0.00138378236126879
-0.00136516404349987
-0.00134721499309257
-0.00132836464530871
-0.00130857650066603
-0.00128811292214242
-0.0012672615208218
-0.00124624258953946
-0.00122523320514672
-0.00120438910465409
-0.00118385003461789
-0.00116374364329434
-0.00114417467012875
-0.00112522468333752
-0.00110694626590308
-0.00108936077403565
-0.00107245171121139
-0.00105616253711372
-0.00104039476174843
-0.00102505044022034
-0.00101009726822904
-0.000995546815740056
-0.000981394048621779
-0.000967598938022393
-0.000954083365148901
-0.000940727006807615
-0.000927356733718293
-0.000913793325339144
-0.00090003864684854
-0.000886060959454074
-0.000871865468116869
-0.000857471077809016
-0.000842733260139846
-0.000827509181227951
-0.000809844247735515
-0.000781123229570638
-0.000763844472797613
-0.000745685806489689
-0.000726407395752461
-0.000705842556225207
-0.000683445790603818
-0.000658816742552796
-0.00063069941950646
-0.000598042426161493
-0.000557391632426568
-0.000505400997833098
-0.000430252054417529
-0.000321036941269592
-0.000240091574866848
-0.000288023879909836
-0.000352834148401655
-0.000430079582309905
-0.000508216667572992
-0.000582984094732418
-0.00065898102001102
-0.000743583557379554
-0.000849659495298913
-0.000982554206867046
-0.00114478057832681
-0.00133388047751352
-0.00154430026790915
-0.00175234341359225
-0.00192816422499509
-0.00203356822300229
-0.00204457652439247
-0.00199104198395833
-0.00192224237987069
-0.00185184289305821
-0.00193071428471611
-0.00223972921905396
-0.00295212129868843
-0.0039002253435478
-0.00484571977826315
-0.00592017750878122
-0.00657140899492152
-0.00564657266586348
-0.00271469190805642
0.00245631994683304
0.00704279389380816
0.00756683446732954
0.00508702311512407
0.00233281045975381
-0.000995335463248853
-0.00230162552693633
0.0037613944288664
0.00453119340601111
0.00340501631120658
0.00238416328264893
0.00046060532928569
0.000293775305730033
0.000142357313206448
6.01548137622161e-05
1.31451937052276e-05
-8.58543100646167e-06
-1.89569428289357e-05
-2.60744170580275e-05
-3.87361236455404e-05
-6.01712884711936e-05
-9.18290360475675e-05
-0.000132379085675085
-0.000181022126555682
-0.000237521787699245
-0.000300121343332812
-0.000369117594460337
-0.000445320483527359
-0.000530257820959412
-0.000623281939030495
-0.000722066144592699
-0.000829997946234782
-0.000945020086625549
-0.00107189120598926
-0.00121867434889795
-0.00138562210967567
-0.0015016171824596
-0.00149024907729569
-0.00153949658373552
-0.00155963859594458
-0.00154790568645652
-0.00153253251020809
-0.00150516062531483
-0.00150745177934777
-0.00148165444078065
-0.00145653922462695
-0.00143101124855824
-0.00140506088708401
-0.00137892048218255
-0.00135285742088165
-0.00132707310388415
-0.00130172762143051
-0.00127695796268534
-0.00125288728718507
-0.00122962600673047
-0.0012072612553936
-0.00118585572569428
-0.00116544237912955
-0.00114602295673465
-0.00112756274817697
-0.00110998700399232
-0.0010931761628553
-0.00107700240643821
-0.00106140389804514
-0.00104637090779393
-0.00103187872856946
-0.00101786902457851
-0.00100424823419195
-0.000990884014056695
-0.000977589342026992
-0.000964159650180582
-0.000950582916393686
-0.000936812630303709
-0.000922845056613256
-0.000908696739454875
-0.000894220072433427
-0.000879255235445112
-0.000852281783450343
-0.000831885468942926
-0.000814755043639503
-0.000796763667377089
-0.000777667064617744
-0.000757259611996906
-0.000735021779796648
-0.000710505202181689
-0.000682514341417908
-0.000649918505700805
-0.000609418813613945
-0.000557523741109352
-0.00048299772976622
-0.000374417123090633
-0.000289025592513701
-0.000318473536782696
-0.000362065519712993
-0.000423303822084584
-0.000488309464022094
-0.000550093546217389
-0.000611781818003848
-0.000679482792702816
-0.000765735069528933
-0.000877802802946743
-0.00102151633317783
-0.00119650011472774
-0.00139750973574651
-0.00160261703137176
-0.00178225827733701
-0.00189591442452616
-0.00191409684708851
-0.00185841827190843
-0.00177334186529198
-0.001667326197024
-0.00168014986202308
-0.00189839688587829
-0.00252241373615082
-0.00346406377501948
-0.0045000082808549
-0.00583948895556047
-0.00698999299199272
-0.00685205934962417
-0.00466027822833917
0.000273266360092627
0.00651584924170128
0.00841432414968121
0.00665209732773697
0.00349570130446815
-0.000414582233550783
-0.00306505032615902
0.00381863805602776
0.00577382248359828
0.00562272009342931
0.0035462876034758
0.000836498294503753
0.000504581927620841
0.000251564640264003
0.000111223681555304
3.98394254729244e-05
7.78331398182849e-06
-5.73295100464601e-06
-1.34994053816224e-05
-2.82552290022354e-05
-5.39810101367455e-05
-9.19228910714571e-05
-0.000139958858251046
-0.000197439558717915
-0.000263565268279162
-0.000336208211535811
-0.000416368723510091
-0.000505357643179619
-0.000604087248161336
-0.000710777319484656
-0.000824546626868282
-0.000949789527001979
-0.00108558396220373
-0.00123682772007054
-0.00140803049351095
-0.0015894913462812
-0.00168850851446196
-0.00166772167773175
-0.00170353171663324
-0.00170835760874844
-0.00168582983257506
-0.00166158690704075
-0.00165068617451099
-0.00161660235650001
-0.00158483568399328
-0.00155395418171193
-0.00152311280823593
-0.00149229452532783
-0.00146169926722298
-0.00143157461372475
-0.00140210295351868
-0.00137342663015707
-0.00134566306120544
-0.00131891800088455
-0.00129328443367003
-0.00126883223846412
-0.00124560646858406
-0.00122362245129908
-0.00120286520735964
-0.00118328530238196
-0.00116479392178986
-0.00114725441508534
-0.00113051192651615
-0.00111447756250668
-0.00109912345694129
-0.00108440955151696
-0.00107026418373916
-0.00105658345385746
-0.0010432278312445
-0.00103000061153606
-0.00101667449665643
-0.0010032241872884
-0.000989591422399234
-0.000975765889147843
-0.000961763718655629
-0.000947436485929452
-0.000927435923583674
-0.000900333300854995
-0.000884036821536146
-0.000866939246383527
-0.000848978391323865
-0.000829908287071249
-0.000809495941401052
-0.00078723513221664
-0.0007626402934085
-0.000734548070426979
-0.00070176318395237
-0.000661078428380723
-0.000608874314313618
-0.000534349867954685
-0.000425422353074244
-0.000336076695131155
-0.000351534947710754
-0.00037598525059952
-0.000422103491473953
-0.000474568460499577
-0.000524352781474391
-0.000573215068797572
-0.000626236286308732
-0.000695995224309976
-0.000790874996151806
-0.000919077837371268
-0.00108194277915388
-0.00127410687436903
-0.00147481691719781
-0.00165374302829896
-0.00176858578175003
-0.00178762814360557
-0.00172632531072703
-0.00162312616972393
-0.00148262944233546
-0.00143095940965453
-0.00156408378573496
-0.00208310700001616
-0.00295975200662742
-0.00399748361793192
-0.00547887450356194
-0.0069875072850068
-0.00763957875028255
-0.00633408062273032
-0.00247429091919962
0.00453399504069143
0.00826361077932843
0.00781156587754204
0.00441818326965242
6.63047544857383e-05
-0.00376050064811116
0.00343062078431582
0.00646177179105186
0.00805581304537748
0.00504174851708676
0.00140829209948134
0.00075220967359361
0.00040123641140572
0.000185794686662853
8.31267642402947e-05
3.64149768717383e-05
1.69600239450166e-05
6.10627500272632e-06
-1.27965004432146e-05
-4.42985506134792e-05
-8.93070091745483e-05
-0.000145127403857892
-0.000211330427065388
-0.000286508948300813
-0.000368505139274456
-0.000459075118339719
-0.000559907792207026
-0.000671302224573932
-0.000790730114713826
-0.000918778610002865
-0.00106046709685792
-0.00121555771377319
-0.00138807872441703
-0.00157839463801202
-0.00176896846648194
-0.00185269784163848
-0.00182442031507283
-0.0018475631637155
-0.00183939384447941
-0.00180765023871265
-0.00177485192255123
-0.00175450287954434
-0.00171486331502522