/*--------------------------------*- C++ -*----------------------------------*\
  =========                 |
  \\      /  F ield         | OpenFOAM: The Open Source CFD Toolbox
   \\    /   O peration     | Website:  https://openfoam.org
    \\  /    A nd           | Version:  7
     \\/     M anipulation  |
\*---------------------------------------------------------------------------*/
FoamFile
{
    version     2.0;
    format      ascii;
    class       volScalarField;
    location    "20000";
    object      k_diff;
}
// * * * * * * * * * * * * * * * * * * * * * * * * * * * * * * * * * * * * * //

dimensions      [0 2 -3 0 0 0 0];

internalField   nonuniform List<scalar> 
15600
(
0.00123000305814618
0.00128423763861711
0.00106363021304052
0.000740025807878237
0.000384678214475676
0.000149372680641852
6.4172997800549e-05
5.07731610036663e-05
3.67245368108798e-05
2.39836168372871e-05
1.73043069392022e-05
1.43990039972067e-05
1.35108855008105e-05
1.36302473058037e-05
1.43216849434429e-05
1.53410009210419e-05
1.6791098198937e-05
1.88708292282505e-05
2.18123059565924e-05
2.56991983769967e-05
3.06201330690329e-05
3.6788259532273e-05
4.43270639526333e-05
5.32376591325667e-05
6.34760654092651e-05
7.52619041047366e-05
8.90937541780373e-05
0.000104806838302593
0.000122037877737019
0.000140295147666721
0.000159187189609489
0.000179163595095658
0.000203380812073943
0.000247102208523078
0.000299017750981283
0.000345891186841145
0.000388468444525202
0.000427850194412724
0.000464593118818542
0.000499051955647085
0.000531476836192157
0.000562115005199271
0.000591250939352251
0.00061829940746387
0.000642855897692236
0.000664907508453287
0.000684444236286047
0.000701473839300233
0.000716019232503018
0.000728123026198909
0.000737846284992159
0.000745270485199836
0.000750495139252288
0.000753636336569824
0.000754822166626706
0.000754189466468254
0.000751875420793812
0.000748014752587972
0.000742734243851813
0.000736159338292947
0.000728430920523058
0.000719697039749105
0.000710103412419268
0.000699782080336397
0.000688842778660076
0.000677367513987781
0.000665412234709832
0.000653030911137013
0.000640304567884946
0.000627302151788198
0.000614094950407268
0.000600712319282075
0.000587171254575915
0.000573483011710627
0.000559669234294551
0.00054573987326952
0.000531692028785616
0.000517456317570678
0.000503033295624849
0.000488207759182605
0.000473044744008092
0.000457128551234332
0.000440434230796718
0.000422118456875259
0.00040188939603053
0.000377633148349307
0.000346578975246307
0.000326460057868681
0.000349957804389822
0.000379271209825465
0.000417137990372964
0.000458726681080906
0.000506805314174042
0.000561270840145873
0.000624483308400518
0.000700937908406695
0.000784031523640567
0.000865657613646233
0.000941990366523681
0.00100857897456911
0.00106123003104094
0.00109086061726077
0.00110540562859014
0.00112266093812382
0.00114735229436489
0.00118251825831933
0.00123587311488952
0.0013209707945801
0.00145126029906383
0.00158546183369134
0.00171884044659023
0.00185566054570585
0.00198037579207135
0.00204158002791468
0.00196243441523733
0.00170901319817404
0.00143983466506061
0.00122437904637131
0.00109024011157036
0.00112673645927299
0.00669727818164685
0.00698933999149068
0.00580324918744914
0.00404287767698763
0.00210639429225396
0.000821688918517316
0.000352525474068225
0.000277957228861051
0.000201430993694799
0.000131712011891021
9.49557527625911e-05
7.89033241144691e-05
7.39342792021317e-05
7.45179273292933e-05
7.82500042081059e-05
8.37752575117491e-05
9.16343368138568e-05
0.000102906017439045
0.000118861493800111
0.000139967260460981
0.000166696634418391
0.000200205143708775
0.000241175954737
0.000289625393877803
0.000345300156242021
0.000409353500797624
0.000484502259263777
0.000569907732299963
0.000663621275402954
0.000762999040531751
0.000865825707699801
0.000974298883883094
0.00110497967290687
0.00133940211362209
0.00161779152620706
0.00186928526311131
0.00209775677721023
0.0023091513811695
0.00250649169559663
0.00269170801302892
0.0028661505810001
0.00303115197658382
0.00318705581285474
0.00332921071145828
0.0034583240665907
0.00357429828993039
0.00367711070432356
0.00376682188317758
0.00384356673311006
0.00390757547173547
0.0039591698460411
0.00399877188832351
0.00402689325040381
0.00404412730924691
0.00405112754409507
0.00404858964709331
0.0040372119290107
0.00401767969794707
0.00399064126849659
0.0039567450533241
0.00391671743517487
0.00387132165814156
0.00382130861739011
0.00376735993035935
0.00371004405616604
0.00364978898999723
0.00358689254951411
0.00352164575223501
0.00345447321422078
0.0033857419614254
0.00331582240363139
0.00324488056487935
0.00317300936923331
0.00310028318939797
0.0030268080296913
0.00295266316894779
0.00287780801837548
0.00280193178451009
0.00272498598354205
0.00264592479918439
0.00256498861481391
0.00248017925466039
0.00239113132235161
0.0022938785714331
0.00218635130697248
0.0020583986742746
0.0018933095884373
0.00178544289334636
0.00190454538458583
0.00205939853837199
0.0022584281352808
0.0024796038861795
0.0027350828305552
0.00302525594152857
0.00336184019467516
0.00376668322069715
0.00420799411007801
0.00464479949877284
0.0050560544635522
0.00541863114760717
0.00571018507454805
0.00588526279523828
0.00598034872828412
0.00608471815992804
0.00622667310354412
0.00642395782394736
0.00671715328511879
0.00717792660704282
0.00787582523045213
0.00860348948844007
0.00932849871450884
0.0100700459853486
0.0107457960693684
0.0110767636520205
0.0106442528294717
0.00928052576343288
0.00783636942351839
0.00667532724481964
0.00595184615223404
0.00614801274470864
0.0159339434454638
0.016598351741444
0.0138764966293407
0.00973150953093341
0.00510397647359612
0.00200851305265956
0.00085614840418442
0.000671386978214517
0.00048764484399925
0.000319322885632374
0.000230096639606644
0.000190940409467836
0.000178620867095591
0.00017981271261201
0.000188623134884009
0.000201734258024993
0.000220369263006292
0.000247089730679278
0.000284896689321939
0.000334862411135268
0.000397989733657171
0.000476860745278712
0.000572905038585753
0.000685932234446897
0.00081507035317783
0.000962679756986133
0.00113472062943771
0.00132915083234255
0.00154157328323827
0.00176626007379919
0.00199784287306492
0.00223982710889778
0.00252879161115608
0.00303761975210043
0.00363604269988025
0.00417522683788161
0.00466650380356679
0.00512242651233215
0.00555002894290177
0.0059536102410002
0.00633609493794085
0.00670069733482575
0.00703103908315389
0.00733560682428924
0.0076149956919238
0.00786896592639682
0.00809733815432974
0.00830004288847363
0.00847712467394606
0.00862878842413666
0.00875540786436852
0.00885754906094868
0.00893596104491612
0.00899156635786875
0.00902542841905249
0.00903871754158771
0.00903264380817142
0.00900842370023488
0.00896724059438104
0.00891032274293524
0.0088390767291564
0.00875501068436377
0.00865963357826036
0.0085543419653877
0.00844032952899968
0.00831852926044947
0.00818962978020286
0.00805431355920236
0.00791352961030285
0.00776812652314335
0.00761894075191382
0.00746643997704194
0.00731090657775356
0.00715261917383907
0.00699184052041445
0.00682890539030419
0.00666370345500686
0.00649583563143404
0.00632509078095738
0.00614959352376243
0.00596958614416657
0.00578220236596896
0.00558471482366342
0.0053710171658004
0.00513508777632711
0.00485949498197588
0.00449927575493827
0.00425616692136969
0.00447645950022163
0.00480288899216154
0.00522489989410577
0.00570551639266456
0.00626141246860219
0.00689573252057294
0.00762957931849949
0.00850207220516665
0.00945866326445117
0.0104193540374125
0.0113359958386778
0.0121609272534442
0.0128486674871505
0.0133133077683053
0.0136112007016724
0.0139128306438828
0.014290156071421
0.0147882047839133
0.015493084701649
0.016555704482027
0.018123720410722
0.0197949623051919
0.0214738097949596
0.0231850666121079
0.0247487227559576
0.0255457570014113
0.024607374706796
0.0216350389392049
0.018494458871677
0.0159049590452177
0.0142696908535886
0.0147307277877575
0.0263588296419913
0.0273017208140391
0.0231359302616594
0.0165758014742958
0.00889670418864246
0.00357318654863684
0.00149879388574082
0.00116276222459201
0.00084645537937172
0.000555026572839942
0.00039974776365904
0.00033113856976922
0.000309090175220095
0.0003105860693369
0.000325163974056874
0.000346978540027801
0.000377903285365344
0.000422145890618385
0.000484448062374105
0.000566160710449577
0.00066820929732335
0.000793800557966785
0.000943881565224433
0.00111654673770247
0.00130880894694738
0.00152287443067307
0.00176632802468635
0.00203539662257263
0.00232435305191504
0.00262669263384786
0.00293582802158303
0.00325735147965263
0.00365482062164159
0.00434213797333785
0.00512563590573482
0.0058314877801292
0.00648630370662819
0.00710084755951484
0.00768459561581249
0.00824183884756533
0.00877511576115872
0.00926678320900031
0.00972125571294318
0.0101498758360033
0.0105495240821913
0.0109192502132245
0.0112582178912226
0.0115657539288799
0.0118413632991109
0.012084782613447
0.0122959944858059
0.0124752541777423
0.012623079841915
0.0127402402477262
0.0128277191035804
0.0128866736926555
0.0129183632149863
0.0129241048748574
0.0129052238910488
0.0128631355442347
0.0127994850624693
0.0127160724002327
0.0126147353084798
0.0124972196314286
0.0123650734025088
0.0122195761800914
0.012061737141179
0.0118925394931384
0.0117132928763241
0.0115252063591007
0.0113294629108945
0.0111268996004182
0.0109180767565217
0.0107035960761883
0.0104839176618238
0.0102598003556777
0.0100311623443334
0.00979801568665426
0.00956011916584235
0.00931844145364168
0.00906759302066036
0.00880767190631382
0.00853529289691006
0.00824549487459783
0.00792910478297915
0.00757193934615635
0.00710904157051783
0.00677326202836243
0.00695854549188539
0.00734959309923469
0.0078773893386967
0.00850649518783859
0.00924251353445055
0.0100921655682096
0.0110747035961703
0.0122283343229478
0.0135034422766962
0.0148082424609074
0.0160755811347813
0.0172452581044314
0.0182653825967472
0.019045931680604
0.0196307922105875
0.0202124143187679
0.0209032220137649
0.0217737949681373
0.0229362101617494
0.0245725652487321
0.0268755749142796
0.0293870395331743
0.0319284675412117
0.0344986209201758
0.0368410416037834
0.0381423560343981
0.0369747007403744
0.0331753222297497
0.0293124898677656
0.0260132327404801
0.0238579942520204
0.024683197439515
0.0344120159527849
0.035279949989398
0.0306129183201126
0.0229620623355528
0.0130831601493086
0.00553035409509318
0.0022666137453561
0.00172135531902483
0.00125474898898546
0.000823468686035147
0.000592613853410298
0.000489515576141275
0.000455395006184484
0.000456131892793216
0.000475667138895575
0.000505094332010443
0.000546554334332584
0.000605437156961783
0.000687234985212062
0.00079215024383801
0.000919142064177653
0.00106956353260889
0.00124131425771023
0.00142907030453613
0.00162782143124097
0.00184110693420469
0.00207885008016964
0.00233882778755194
0.00261892352274625
0.00291722705844201
0.00323529159552197
0.00360014465027593
0.00412334862171159
0.00497211522806271
0.00586145859943201
0.00665521301425062
0.00739878984830782
0.00809292915042928
0.00874811751122657
0.00936695568410164
0.00994785353725327
0.0104537162146292
0.0109470050307336
0.0114040287521053
0.0118247527552998
0.0122088604401226
0.0125562539694838
0.012867051895112
0.0131415730704975
0.0133803546328118
0.0135841432166848
0.0137538984432675
0.0138907691763043
0.0139960707682779
0.0140712489147327
0.0141178421642032
0.0141374284987668
0.0141315891353193
0.0141018615964688
0.0140497897098903
0.0139770329696026
0.0138853324327364
0.013776423680213
0.013651942829926
0.0135133526621197
0.0133618957516634
0.013198573111805
0.0130242853995094
0.0128401931941332
0.0126473632808804
0.0124468171837382
0.0122393977943451
0.0120256640086036
0.0118062336755145
0.0115815016609859
0.0113522962006771
0.0111185097880086
0.0108844429958826
0.0106441907110783
0.010397007568068
0.010143871578635
0.00988402884621285
0.00961460582100965
0.00933372581137452
0.00903408387367079
0.00871056247948139
0.00832221261389914
0.00799458391479805
0.00801449020002383
0.00831105580293673
0.00876119725146953
0.00934339818544071
0.010046151990515
0.0108784533208224
0.011850157154247
0.0129891405228899
0.0142694968486991
0.0156134408456401
0.016949700056311
0.0182135685217851
0.0193526002077395
0.0202829513243402
0.0210072424903287
0.0216916899776786
0.0224801306334692
0.0234655682523385
0.0247721555645013
0.0265508300336111
0.0290044969255874
0.0317630284573564
0.034547423824545
0.0373044095803427
0.0397543658683686
0.0412463433718634
0.0402386861211269
0.0370287642850652
0.0343559149649785
0.0324177285217904
0.0312236007373039
0.0326765897650934
0.0351259154785213
0.0356779434680302
0.0322692192118869
0.0261557539933978
0.0167026069091982
0.00789973352323078
0.00319907710828796
0.00233588364814077
0.0016996302030718
0.00111505736309695
0.000801058681776234
0.000658431839231047
0.000609208974757085
0.00060665903248484
0.000627999042598049
0.000660600478753154
0.000706095054732132
0.000769903020406171
0.000856516848027056
0.000963262864761057
0.00108614586804856
0.00122460968795743
0.00137571243973659
0.00153597394989445
0.0017061954098329
0.00189807551439131
0.00212498759552591
0.00238507467763453
0.00267756306577089
0.00300419907921604
0.00338011246036814
0.00385761568713061
0.00456550040901833
0.00556576999896102
0.00648503263605183
0.00727528534025791
0.00799988564195246
0.00865870166741993
0.00926612168751315
0.00982699825547248
0.0103031256843524
0.0107703988782515
0.0111942659655379
0.0115789071372255
0.0119254759065437
0.0122349357379717
0.0125083133677307
0.0127466981577604
0.0129512399328247
0.0131231640607948
0.0132637743187758
0.013374460233055
0.0134566861504322
0.0135119787774837
0.0135419077303914
0.0135480642715096
0.013532033922972
0.0134953728666934
0.0134395676046448
0.0133660487800187
0.0132762700119766
0.0131717156226657
0.0130538437400482
0.0129240243624671
0.0127834919063177
0.0126333180859583
0.0124743758917858
0.0123073730653214
0.0121332069587795
0.0119526837026686
0.0117665527128053
0.0115755162981427
0.0113800228558854
0.0111805479378053
0.0109773478750809
0.0107710660338262
0.0105688206792803
0.0103585819480263
0.0101438489018941
0.00992582092900793
0.00970381135060219
0.00947753978505998
0.00924544343950715
0.00900689265516323
0.00875809663450052
0.00849843791486978
0.00822212056486217
0.00793590982037596
0.00782719468812637
0.00801326343126715
0.00835469786495589
0.00883841585025248
0.00944453492679091
0.0101814632469723
0.0110533523407389
0.0120811177392227
0.0132598671248056
0.0145337438806373
0.0158411426672908
0.0171225068136453
0.0183255420345984
0.0193605093584116
0.0201660007324408
0.0208310897892216
0.0214800475637823
0.0222003181795206
0.0231203864663286
0.0243657764103966
0.0261935331736757
0.0283525764426866
0.0304612451176235
0.0324116983036782
0.0339494965654419
0.0348354898389591
0.0336150577460941
0.0310187789626723
0.0296904251321756
0.0302320652722253
0.0313158044468505
0.0335883521285059
0.026370905360977
0.0269381970247949
0.0262438658812744
0.023904956761138
0.0181148398688321
0.0104375538671561
0.00439684761734154
0.00301231536499746
0.00217270570069925
0.00142130257962516
0.00101727196454699
0.000829082844550016
0.000760436956814422
0.000749983887354676
0.000767125265122774
0.000794930651244458
0.000833940155112719
0.000888894968007352
0.000963001406896701
0.00105215936844927
0.00115366227473563
0.00127071517600027
0.00140530613852137
0.00155929909389452
0.00173820826776678
0.00195451013442223
0.00221441467051237
0.0025087965028582
0.00283587851241916
0.00320253352661472
0.00363472001278506
0.00418641147029218
0.00495905640470624
0.00591106760893152
0.00670091942908972
0.00737874600927053
0.00799743161071308
0.00855561773115162
0.00906621514520577
0.00953120969948557
0.00992647008827884
0.0103111648994863
0.0106577889591397
0.0109692877443772
0.0112469861998438
0.0114920412196259
0.0117056197890196
0.0118888995691254
0.0120430753727239
0.0121693689999992
0.0122690395507772
0.0123433917249093
0.0123937724455721
0.0124215633590606
0.0124281700499315
0.0124150084595242
0.0123834909844116
0.0123350081418293
0.0122708898180284
0.0121923903088348
0.012100746142701
0.0119972111297267
0.0118830177402938
0.0117593324053973
0.0116272214395368
0.0114876350396206
0.0113413642124934
0.0111889938599006
0.0110312612967377
0.0108688128816553
0.0107022372136393
0.0105321525582346
0.0103589630892227
0.0101830533978634
0.0100046355664151
0.00983210504391751
0.0096530595626898
0.00946972030033689
0.00928448073433846
0.00909712826139718
0.00890741756946261
0.00871512416242863
0.0085197282815414
0.00832098080848552
0.00811768100556794
0.00791058039207277
0.00770840272922034
0.00747320923010975
0.0073056197358968
0.00741735123716638
0.00767788570322653
0.00807729908034903
0.0085949130886902
0.00923712185063183
0.0100058155184231
0.01091616873553
0.0119753349241794
0.0131475247508857
0.014387806246521
0.0156537855664302
0.0169087743845746
0.0180833544537005
0.0190966686847104
0.0199674837563766
0.0207587155974313
0.0215042641888567
0.0222831036654886
0.023169838584881
0.0244632369549937
0.02600422586841
0.027338416303059
0.0282827306481485
0.028577893164827
0.0280983475820695
0.0257937528973997
0.0218536470880515
0.01925965010675
0.0202356626420786
0.0225168222956116
0.0248911554906625
0.0127509259486518
0.0138650739169118
0.015767798006758
0.0171952954143528
0.0162428498146834
0.0123592165558349
0.00601051930343999
0.00375969038562994
0.00267330117090855
0.00173622853124633
0.00123331667117613
0.00099224015145457
0.000898573837158124
0.00087426043199406
0.00088032761405917
0.000895758272350043
0.000920750467547735
0.000960597168761487
0.00101963287163008
0.00109609651678563
0.00119220713318004
0.00131478550376878
0.00146554818069864
0.00164307115046266
0.00184841933975791
0.00208811623061544
0.00236123614666309
0.00265772959649748
0.00298110766087377
0.00334482065834402
0.00377720310198534
0.00431749598263626
0.00503677919637583
0.00583799039492872
0.00647867360990145
0.00704973393338517
0.00757623650450166
0.0080541914589963
0.00849229616288556
0.0088637039067279
0.00923190722326405
0.00956119233811472
0.00985744688836742
0.0101228197828972
0.0103584580234236
0.010565391725643
0.0107446709816368
0.0108973586957567
0.0110245354092136
0.0111272998258077
0.0112067802098886
0.0112641405025234
0.0113005793718668
0.0113173240654392
0.0113156231628402
0.011296736343895
0.0112619277668343
0.0112124511819024
0.0111495131683967
0.0110742369197176
0.0109877041700175
0.0108910081329914
0.0107852274064021
0.0106713917149834
0.0105504559711102
0.0104232929093139
0.0102906504517927
0.0101530423389271
0.0100111129017678
0.00986541245352961
0.00971643453841161
0.00956474973068766
0.00941075679289123
0.0092547883869054
0.00910304670267233
0.00895089641174548
0.00879139160565783
0.0086309874686479
0.0084694852587066
0.0083066941821334
0.00814271738268944
0.00797733599230762
0.00781078964299879
0.00764299536727809
0.00747455427387128
0.00730649360585068
0.00714515804180868
0.00695579813502262
0.00677316808640493
0.00683515885390767
0.00703453007689291
0.0073639205214131
0.00780424501790266
0.00835967118585781
0.00903046811746662
0.00982622602653504
0.0107595477140845
0.0118080780925263
0.0129401740677601
0.0141291581666233
0.015355384434772
0.0165795603186192
0.0177394599363285
0.0188338949401336
0.0198992234963572
0.0209446342701571
0.0220138632885717
0.0231356551378711
0.0245893857736454
0.0262988622103971
0.0278054895803492
0.0288326906345718
0.0290017637873204
0.0280106719705367
0.0247506906710237
0.0179712745916581
0.0112909941600841
0.00932372272183515
0.00999741268797201
0.0112086232350405
0.000654619055930051
0.00260858891743562
0.0059568024676609
0.00949775129701686
0.0118600556488408
0.0125518642253107
0.00813408693875365
0.00459912281817091
0.00321274286727425
0.00206092915547917
0.00144147880387949
0.00114282426230447
0.00101866327759642
0.000976288217695416
0.000968544956582467
0.000971318117329507
0.00098584487533621
0.00101918345180969
0.0010775104937078
0.00116041415122615
0.00127078413899935
0.00141201979606262
0.00157940153488419
0.00176638911772137
0.00197170791617973
0.00220045976457461
0.00245142857139769
0.0027194228912411
0.00301308258121497
0.00334772779418218
0.00374707512222084
0.00423458934010855
0.00486540481644705
0.00552552537478884
0.00606014781178774
0.00655844196311837
0.00702252099695434
0.00744727407471106
0.00784050800931617
0.00817284657854288
0.00849994700500872
0.00879351699479729
0.00905764242610379
0.00929399684440466
0.00950357194861092
0.00968727701240068
0.00984605503374926
0.00998086883144594
0.0100927033359398
0.0101825582551585
0.0102514593925943
0.0103004629931158
0.0103306558065294
0.0103431497152499
0.0103390762630962
0.0103195784144917
0.0102858088675912
0.0102389187778285
0.0101800249096935
0.0101101571538454
0.0100302861150252
0.00994138829158734
0.00984443002912837
0.00974034074488675
0.00962999289854402
0.0095142025650525
0.00939369286780644
0.00926893234251608
0.00914050435482766
0.00900889279703337
0.00887452487279212
0.00873793665278438
0.00859953501733014
0.00846148949277178
0.00833271709013434
0.00819130579437195
0.00804944942654418
0.00790703139998483
0.00776408559919132
0.00762043202530506
0.00747644029365703
0.00733188945001545
0.00718757618583461
0.00704348328630228
0.00690149808220604
0.00676240155234622
0.00664061823273
0.00647369973683225
0.0062925527673742
0.00631980272307354
0.00647130191819815
0.00674234707189825
0.00711595118834373
0.00759434433396729
0.00817629994820363
0.00886644362063785
0.0096796789204099
0.0106021440073814
0.0116111324392823
0.0126907541613661
0.0138328051492893
0.0150203576729121
0.0162119175556783
0.017405450340164
0.0186344389987624
0.0199120189640527
0.0212807935544516
0.022763811016873
0.0246080115655122
0.0268334967811227
0.0290787345109246
0.0310721838148833
0.0323349780497289
0.0324557626439321
0.029816192284305
0.0214102520784264
0.0102113985907499
0.00344953532194825
0.000335639636729226
-0.00105748454701975
-0.00613239174239619
-0.00452966768123613
-0.000614051466880859
0.00348225182591565
0.00689358592639222
0.0109445985904271
0.0100827588236064
0.00558014053206344
0.0038063615970256
0.00240561882987965
0.00165105967742392
0.00128567739312617
0.00112774317574293
0.00106772967010524
0.0010500472394551
0.00104749423625608
0.00106177650439745
0.00110013906498147
0.00116778582320163
0.00126192643698325
0.0013822357450328
0.00152730128106582
0.00168880973623461
0.0018603048982071
0.00204236712883054
0.00224132274605571
0.00245757736503808
0.00269017017769573
0.00294925149312929
0.0032483033000133
0.0036049242239046
0.0040321042696782
0.00457958742893723
0.00513207698046472
0.00559617399005978
0.00604493083623748
0.00646600774340582
0.0068538885563197
0.00721831332927842
0.00752138671483448
0.00782011154324929
0.00808887252697219
0.00833074041921375
0.00854710754831158
0.00873886582336784
0.00890684236212572
0.00905190714894002
0.00917495445892593
0.00927690347585797
0.00935868479562571
0.00942125138411612
0.00946558190194254
0.00949268114146848
0.00950357540749716
0.00949930796964046
0.00948093217170289
0.00944951348392593
0.00940612217413491
0.00935180629762006
0.00928752640220489
0.00921416878075307
0.00913261893320138
0.00904375438205964
0.00894842390425778
0.00884743220321588
0.00874154813907985
0.00863147869609212
0.00851766156132226
0.00840063589039111
0.00828083432395489
0.00815863130515237
0.00803453279691286
0.00790895761678916
0.00779365246847764
0.00767054691202237
0.00754315923654859
0.00741554127466878
0.00728761911605414
0.00715959039411505
0.00703128578386463
0.00690327768119463
0.00677534216526509
0.00664868923869059
0.00652330928417271
0.00640202825637348
0.00628511412439225
0.006192802296379
0.00605324363619512
0.00586885420969355
0.00587063603355928
0.00598361527158559
0.00620551298467638
0.00652143889528799
0.0069320532319691
0.00743478074664714
0.00803007168532791
0.00873390716040918
0.00953825940043816
0.0104267862094621
0.0113911099956026
0.0124302144612108
0.0135413973143903
0.0146965374206211
0.0158934595861601
0.0171664104310711
0.0185367836721767
0.0200532838175599
0.0217479943218885
0.0238337618316353
0.0264095069199633
0.0292405100654099
0.0321473050292285
0.0346683332303301
0.0364262357007756
0.0357348569347518
0.0284978032518131
0.0149921367077377
0.00387402245484179
-0.00167163390533495
-0.00489828577685135
-0.00777236919446365
-0.00754900246709467
-0.00395941550926789
-0.0001677792649487
0.00274400242539711
0.00807399277358027
0.011235206425692
0.00663517438654183
0.00444519044070276
0.00277887914203766
0.00187201799076398
0.00143419555552522
0.00124144344700215
0.00116658109453651
0.00114387369330596
0.00114170659539895
0.00116012230752224
0.00120430370093493
0.00127652541129637
0.00137112186138751
0.00148550071697441
0.0016164580108356
0.00175621588132367
0.00190092827499043
0.00205329715201909
0.00222035641420675
0.00240344042836253
0.00260383277021724
0.00283090101531051
0.00309527373846787
0.00340967535559202
0.00378157495682573
0.00425958119386583
0.00473151625153915
0.00514602627697133
0.00555831436491532
0.00594756660603358
0.00630751054426377
0.00662270364854553
0.00693163366076257
0.00720915035829522
0.00745923769912673
0.00768433632062931
0.00788566663476443
0.00806405964115216
0.0082202892322922
0.00835517778079714
0.00846957425454946
0.00856435396564407
0.00864040003403739
0.00869861368100271
0.00873991710206082
0.00876525375979614
0.00877558456438173
0.00877188369859475
0.00875513263350911
0.00872632511390949
0.00868646397004398
0.00863654171267464
0.00857746519830301
0.00851005390466767
0.00843511849675441
0.00835346189985225
0.0082658637394714
0.00817306890478723
0.00807580323706259
0.00797476190637649
0.00787036096146185
0.00776310526148398
0.00765338501377
0.00754152901649707
0.0074280142341863
0.00731844839285689
0.0072146277144732
0.00709907818227138
0.00698339985989835
0.00686766827656891
0.00675183854223536
0.00663622782209729
0.0065206798059785
0.00640592147341249
0.00629172724585233
0.00617961605277941
0.00606955117853261
0.00596505426695504
0.0058657518304664
0.00579614621734122
0.00567879177456659
0.005494380455052
0.00547673411422916
0.00555786869772761
0.00573762085517439
0.00600305803872781
0.00635357576749201
0.0067854137485547
0.00729557954082838
0.00790072019466402
0.00859729551983483
0.00937403027374378
0.0102282958130689
0.0111639095577413
0.0121871367474947
0.0132769462342217
0.0144283609389485
0.0156747172449724
0.0170423347588583
0.0185817157942119
0.0203313169494012
0.0224676476718787
0.0251378466009751
0.0282043403912636
0.0315791475195754
0.0348711749975547
0.03782194405483
0.039018802715229
0.0347367504642671
0.0221257110651293
0.00871984034465704
-0.000805073488589924
-0.00564441759863524
-0.00701425709800837
-0.0074933097545171
-0.00491589584499027
-0.00187227693484151
0.000551379930682002
0.00474808366510361
0.0111224288572467
0.00763668739559947
0.00504398462396082
0.00316899504123027
0.00210857438374174
0.00159738340215796
0.00136886478949038
0.00127907259370414
0.00125080850186269
0.00124751618432129
0.00126610153984787
0.00130891788626367
0.00137554607576845
0.00145910378182947
0.00155667116908439
0.00166534313986231
0.00177925684567012
0.00189682467868122
0.00202174022614206
0.00216088695101499
0.0023157947791836
0.00248870199062089
0.00268741590323435
0.0029200234732832
0.00319602253327378
0.00352043430334567
0.00394155393492546
0.00435129657525663
0.00472800655388751
0.00511122990490276
0.00547528834507833
0.00581396228785068
0.00611191794538588
0.0064019273556266
0.00666253312349971
0.00689761570608338
0.00710919936601598
0.00729839514482648
0.00746599801333903
0.00761274820575316
0.00773943786474535
0.00784688665695752
0.00793594131740289
0.00800745277318745
0.00806228539389166
0.00810131984723902
0.00812545275821144
0.00813559375233867
0.00813266125489035
0.00811757704411882
0.00809127351753445
0.00805469464014131
0.00800878581382829
0.00795441103364596
0.00789233524894327
0.00782330522152097
0.00774805855725428
0.0076673129128221
0.007581757797883
0.00749207749998479
0.00739895745346929
0.00730279878033538
0.00720407845618202
0.00710314990131944
0.00700030020537853
0.00689597662160723
0.00680619545664411
0.00670316035017915
0.00659762818701692
0.00649203039421648
0.00638652814863109
0.00628110010085442
0.00617615254583282
0.00607154466482579
0.00596812136378477
0.00586565688677019
0.00576590129519825
0.00566876840739469
0.00557829998699769
0.00549342855973737
0.00544181730351544
0.00534273338987873
0.00515990957509543
0.00512690029962939
0.00518104331299089
0.00532394838740119
0.00554446809885672
0.00584096096239589
0.00620863346265799
0.00664167885021674
0.00715730732908142
0.00775576259429177
0.00843019877344579
0.00918277904079516
0.0100208795846362
0.0109565285060341
0.0119716879325478
0.0130564784789276
0.014241565506496
0.0155547686036199
0.0170435255070757
0.0187468468845862
0.0208053070736718
0.0233925718305306
0.0264330831223444
0.0298948685378627
0.0334515917491974
0.0369486899991689
0.0392640572192199
0.0378937608828526
0.0283820282241988
0.0152985873793778
0.00271298443004368
-0.00352413172402062
-0.00407200025498851
-0.00594207914783412
-0.00418447455696977
-0.00223905747474124
-0.000230755115204694
0.00352787164703674
0.00969005562622197
0.00849014661550388
0.00552055469974774
0.00351824380760818
0.00234816762739645
0.00176892724487115
0.00150336344516971
0.00139511551807126
0.00135664609983213
0.0013473319726462
0.00136026977871574
0.00139503148438956
0.00144931325520863
0.00151635404081007
0.0015938052411041
0.00167959344426363
0.0017696005904783
0.00186355404374343
0.00196530831451232
0.00208116510239412
0.00221248715114833
0.00236184625945025
0.00253546266459587
0.00273953526965706
0.00298158982074068
0.00326577450685286
0.00363965109281729
0.00399944254624635
0.00434516503571082
0.00470373419586174
0.00504668243163166
0.00536816343635087
0.00565099405663962
0.00592456629022904
0.00617097790982172
0.00639337064824263
0.00659347622332177
0.00677233347650472