/*--------------------------------*- C++ -*----------------------------------*\
  =========                 |
  \\      /  F ield         | OpenFOAM: The Open Source CFD Toolbox
   \\    /   O peration     | Website:  https://openfoam.org
    \\  /    A nd           | Version:  7
     \\/     M anipulation  |
\*---------------------------------------------------------------------------*/
FoamFile
{
    version     2.0;
    format      ascii;
    class       volScalarField;
    location    "20000";
    object      omega;
}
// * * * * * * * * * * * * * * * * * * * * * * * * * * * * * * * * * * * * * //

dimensions      [0 0 -1 0 0 0 0];

internalField   nonuniform List<scalar> 
15600
(
23352.2364868673
23335.7793633326
23163.1495430932
22675.0346740941
21899.7430094411
20874.0404664697
19360.0869129479
17425.4329815932
15341.7697774681
13327.8605652464
11495.9237031229
9886.04071220133
8515.96518329113
7416.51192822613
6536.27254109614
5819.18125661945
5226.00123889144
4728.63954389751
4306.03459630048
3933.80112482447
3597.31568169374
3294.82139262826
3024.76985978456
2785.70228240405
2576.5564834672
2398.85547987628
2253.79981241939
2137.56783895667
2046.91148670686
1979.51696235925
1933.84014232813
1908.9987223273
1904.48452669061
1906.30501934767
1906.30501934762
1906.30501934743
1906.30501934756
1906.30501934763
1906.30501934762
1906.30501934759
1906.30501934755
1906.30501934744
1906.3050193474
1906.3050193474
1906.30501934754
1906.30501934756
1906.30501934766
1906.30501934752
1906.30501934748
1906.30501934766
1906.3050193476
1906.30501934756
1906.30501934767
1906.30501934774
1906.30501934764
1906.30501934755
1906.30501934763
1906.30501934764
1906.30501934762
1906.30501934755
1906.30501934756
1906.30501934755
1906.30501934764
1906.30501934762
1906.30501934746
1906.30501934741
1906.30501934766
1906.30501934758
1906.30501934748
1906.30501934763
1906.3050193477
1906.30501934748
1906.30501934755
1906.30501934759
1906.30501934767
1906.30501934756
1906.30501934746
1906.3050193474
1906.30501934743
1906.30501934759
1906.30501934748
1906.30501934747
1906.3050193477
1906.30501934755
1906.3050193474
1906.30501934759
1906.30501934759
1904.4707667278
1909.0677618345
1934.00465464295
1979.77965153889
2047.27805053496
2138.04727558639
2254.40503780795
2399.60425581807
2577.46100791723
2786.74697975346
3025.95813857376
3296.16050508202
3598.81239314596
3935.46303949811
4307.88195111098
4730.78786489923
5228.54568515679
5822.23394846791
6539.98823263079
7421.1079491769
8521.75476085205
9893.07601180857
11504.0519864437
13337.0163138867
15351.629554179
17435.246028574
19368.6340836423
20880.0277918523
21904.1253472775
22678.1290941142
23164.7681207497
23336.2480858736
23352.236486854
3942.9355557657
3940.19453281376
3913.33362864553
3831.53039921037
3699.7648750137
3524.55651715447
3267.42945147621
2940.97352285587
2589.80160776181
2250.27394091498
1941.33690210239
1669.80820100723
1438.54465198425
1252.8255053805
1104.08396742541
982.930232364177
882.727823432294
798.74276785117
727.410503726182
664.628178871962
607.908999300418
556.924252496928
511.401247154279
471.09173938957
435.830536511457
405.888106083422
381.434530751132
361.833872737876
346.541427881166
335.180537475615
327.499464777643
323.410765858256
323.30898294673
323.81352093167
323.619847951064
323.507946168592
323.44272818578
323.388421311394
323.336642174976
323.281998719266
323.222129965599
323.15592694852
323.083396344977
323.005197821118
322.922194149682
322.835331129698
322.74560382866
322.653983702071
322.561456746889
322.468958997849
322.377387124149
322.287555044309
322.200193893579
322.115928092192
322.035286851633
321.958678943609
321.88643828711
321.818809280791
321.756005783174
321.698245227789
321.645614482509
321.598092104796
321.555560694584
321.51785017502
321.484774604074
321.456168979241
321.431936124497
321.4120141693
321.39615741536
321.38417604233
321.375718867912
321.370652249124
321.368762125178
321.36999385892
321.373981061436
321.380802820166
321.389870123964
321.401799283903
321.41558426905
321.432726950946
321.451288437805
321.474798975549
321.499496043301
321.534126709697
321.571153760038
321.633175321583
321.769936805471
321.641680915279
322.266692703698
326.411766359526
334.04080104457
345.382855856807
360.648973596716
380.24918510626
404.717474159941
434.668484183186
469.950620539046
510.350241111871
556.046261651455
607.298323436205
664.374294442329
727.625484565729
799.441576092636
883.827191888182
984.394167151764
1105.91203623347
1254.9983600987
1441.0945398427
1672.80835942388
1945.35255731215
2255.50600531543
2596.38250429416
2949.05449996557
3276.75692676957
3533.9565688328
3708.14629425446
3836.92088821207
3916.50472178051
3943.35112106251
3943.35769778844
1302.75300657664
1302.49809806048
1296.86974015102
1270.74456420354
1225.4614924842
1164.36483885943
1076.93274528771
968.660612491991
853.120545730983
741.422118592363
639.789244415642
550.474701606668
474.340643003696
413.165716111639
364.138856173765
324.219289766994
291.227734940302
263.612192629636
240.176694055518
219.569558629973
200.978257169837
184.279055606183
169.368014312526
156.162690939829
144.632792409535
134.882660394087
126.921855221671
120.53553421063
115.552794316997
111.869116851704
109.440098615108
108.382447356528
109.093497587798
109.411805261301
109.050521399816
108.798978681085
108.615614386228
108.450441372045
108.292255688488
108.133257106193
107.970420511811
107.802595439497
107.630991067422
107.456245204778
107.279740942579
107.102871338149
106.9270233432
106.753493088858
106.583535093747
106.418287960443
106.258791672211
106.105940970293
105.960492901351
105.823047491032
105.694068356033
105.573865610791
105.462660085687
105.360577829452
105.267730119055
105.184225828768
105.109992604983
105.044817097417
104.988374536606
104.940292845816
104.900207127185
104.867812530088
104.842915363751
104.825341385665
104.814670413974
104.810538883451
104.812405198721
104.820017192728
104.833059028673
104.851353518062
104.874403847501
104.902142707425
104.933891934868
104.970212505753
105.010070755511
105.054983730034
105.103108485169
105.158175501951
105.216994215256
105.289344279996
105.36954231119
105.484434698238
105.679044517394
105.72829986778
105.69068756479
106.947495119696
109.340514196725
112.996050448722
117.946338659372
124.33781941614
132.334399008554
142.120814609931
153.717859846642
167.099874923989
182.327824395446
199.504958741148
218.73546826788
240.179582561854
264.510372648224
292.917638324381
326.634082858975
367.254548975544
416.941389069909
478.775191608954
555.712421946247
646.732758356568
750.589971794137
864.904696061566
983.565738622902
1094.71812199934
1183.49897598388
1243.30435949209
1282.94486398578
1304.34545591486
1308.42704976933
1303.99175304098
606.280009753198
606.557071254296
607.059502601412
595.924836474391
571.866652976372
538.610221808632
494.991015929784
444.170606614602
391.151977111937
339.991252399792
293.498089878558
252.678463432717
217.858241751106
189.862561495577
167.400481683557
149.124187015047
134.049805554886
121.470067047783
110.814685154545
101.462839268018
93.0515796671675
85.5088006154081
78.771586349763
72.8038174776356
67.6142423559153
63.2531199131444
59.6792307773976
56.7950865858163
54.5405818759105
52.8980381934817
51.9063109963617
51.72474963151
52.4814765139303
52.400152372228
51.7572575095935
51.3274422653728
50.9971470234584
50.7125447339689
50.4558439936522
50.2155556416869
49.9863909922379
49.7663427027029
49.5544029641031
49.3495029815264
49.151933640331
48.9619540361688
48.7799000309329
48.606084944603
48.440844336726
48.2844624724193
48.1371908137533
47.9992050682288
47.8706158314823
47.7514526819811
47.6416830990389
47.5411997499397
47.4498780448461
47.3675709412794
47.2941784986657
47.2296318024914
47.173722759529
47.1261499646999
47.0865457603265
47.0545327735016
47.0297709470151
47.012004301778
47.0010986407831
46.9969278320727
46.9991445073814
47.0074519400597
47.0214070302708
47.0408416068095
47.0655440176161
47.0953907147429
47.130006738581
47.169340264457
47.2128923763069
47.2611635030903
47.3134428253195
47.3709638731339
47.4326006467332
47.5016413937161
47.5759517939114
47.6648190680885
47.765105289279
47.9033018617592
48.1256787063232
48.2238428226489
48.0039421294582
48.4665956789313
49.4542836685788
51.0425065235033
53.2239007598637
56.067193434274
59.638976479839
64.0054001652761
69.2297186990602
75.3455422990037
82.3927848150485
90.4435956025159
99.572828211897
109.920348476722
121.735059540998
135.436735687461
151.592158620834
170.948314327188
194.471917197057
223.528282100017
259.525793851289
302.572651518858
352.115850953112
406.978712651857
464.480380799088
519.49584195686
565.624785832092
597.801194535763
615.328984727443
620.413391686799
616.435237249157
608.888303779946
347.317603488747
346.961330835858
349.732671799555
345.05879300047
328.089077342551
302.754617515727
274.337747441044
244.938949755513
215.631165415813
187.475248697487
161.949735461442
139.575608754882
120.473740535494
105.103938979069
92.7514364565476
82.716746576962
74.4731031920618
67.6304988485595
61.8517898507051
56.7926208272637
52.2582524362496
48.1911778120511
44.5430795279176
41.2996805211595
38.4841956423591
36.1171788682511
34.1431403473163
32.5252906971039
31.2572342406152
30.361244891934
29.9008353700702
29.9747975534089
30.4806088285951
30.0440046225704
29.3068618413576
28.8677268909257
28.5405346908074
28.2786853629551
28.0572687375455
27.8625450562481
27.6871729737345
27.5273429898791
27.378745449155
27.2398487026107
27.1097008736348
26.9875419483995
26.87283393081
26.7651539794518
26.66420643615
26.5697485447121
26.4815934614109
26.3995671081972
26.323509029608
26.2532531533496
26.1886347300826
26.1294764142877
26.0756250905611
26.026944495684
25.9833630550647
25.9448490730185
25.9112853366522
25.8825059797952
25.8583107693436
25.8385011525043
25.8229109787281
25.8114398569272
25.8040788995112
25.8008195955135
25.8015032326005
25.8060049178441
25.81409853082
25.8257581123291
25.840925446827
25.8595885624085
25.8815678269603
25.9069067667106
25.9353293600105
25.9672688277227
26.0024095239667
26.0417071754795
26.0845114197265
26.1334543402286
26.1872406510322
26.2535265916149
26.3308988205857
26.4413465686157
26.6284029821695
26.729127084807
26.497693948373
26.6733884286247
27.146700359251
27.9554309440632
29.0847416936709
30.5677630212473
32.4352010751346
34.7070842744003
37.4414242281709
40.6843593194489
44.4686093285058
48.8541611610074
53.9071544613205
59.7726291369121
66.5954420398755
74.5375938892933
83.9012866733127
95.110898711578
108.675793026791
125.293469478674
145.670760173609
170.346131842937
199.185282562363
231.516579708998
265.964909174969
300.038126699008
331.06221502164
355.586103145068
368.295824554312
368.865714896589
361.728975221948
351.810488656793
230.194238951281
228.344544533221
231.696329853119
231.247406525534
218.019551002141
194.231755430585
171.110595061098
151.310757537661
133.115449063414
115.795786090032
100.149877809639
86.4654306966798
74.7648593091209
65.3384330394857
57.7438067047755
51.5916033304081
46.5685782484059
42.4288549759443
38.9406689941087
35.8888365095827
33.1536579622155
30.682357088948
28.4385821967373
26.4262047745645
24.676194010252
23.1942868951803
21.9326989923516
20.8943835272296
20.0958229926288
19.5664963287432
19.3536349236602
19.4826083966902
19.7654238147933
19.2578698063286
18.6778092075809
18.3745445974152
18.1569184177366
17.995794880547
17.8668759525383
17.7591592450915
17.6662327249546
17.5835074284281
17.5076850394244
17.4377082834173
17.3726125215621
17.3116938676832
17.2544551235416
17.200522419683
17.1496423374569
17.1016222539388
17.0563282268027
17.0136505850974
16.973501989452
16.9358013760208
16.900476176283
16.8674519500316
16.8366763008189
16.8081137805725
16.7817785094264
16.757710974371
16.7358933617769
16.7162776894323
16.6987926887103
16.6833660837836
16.6699446602083
16.6585176909506
16.6491340240918
16.6418360334505
16.6365706234316
16.6333034480956
16.6319335875512
16.6324950154787
16.6349962852599
16.6394662668813
16.6458246429253
16.6541470106955
16.6642681230965
16.676619113663
16.691001234828
16.7081070970039
16.727517433939
16.7511827751517
16.7783233983453
16.8146323621819
16.859602230896
16.9292442666747
17.0608078443729
17.1433753148609
16.9565824027211
17.0220398706858
17.2792766516029
17.7442326855436
18.403120124169
19.2711505200081
20.3633692286908
21.6813941508284
23.2648677269002
25.1510891570599
27.3620404476528
29.9403894380729
32.9347130522659
36.469336084351
40.6583404648521
45.5835116162245
51.4305178665485
58.4793867276903
67.0392061556516
77.512188859633
90.2086227245985
105.766176292505
124.32099794943
145.510755488334
168.592124110189
192.321772739772
216.140944583872
238.726835282174
252.83162349781
254.586655645271
247.737030874593
236.667848696724
169.559680045127
165.851143444743
168.795532350307
171.764285455254
162.309399000698
138.388049630802
116.033080478187
100.776076121425
88.5259647297911
77.084170238627
66.7974554571372
57.8225332603314
50.1253457220184
43.9091247991459
38.8820040991026
34.826372718345
31.5403713981472
28.8509652980557
26.5814234382529
24.5875946620363
22.7895852529506
21.141786202734
19.6247652811486
18.259215594129
17.0784916659318
16.0801726374049
15.2286203069894
14.5432705859296
14.0405479949587
13.7407714439652
13.6674371180073
13.8044578591378
13.9669370176704
13.5456930398976
13.1630007011057
12.9855370215011
12.8616114697994
12.7776272537396
12.7140052053813
12.6637134826883
12.6219010240714
12.5848512863652
12.5509620786506
12.5195544076045
12.4899999303205
12.4618756592897
12.434899544509
12.4088758657286
12.3836915524489
12.3592737505316
12.3355887932648
12.3126176334542
12.2903547736759
12.2687968756864
12.247944128539
12.2277939050034
12.2083579317175
12.1896597329223
12.1717576687034
12.1547243362473
12.138587888297
12.1233543041863
12.1090113112952
12.095543485767
12.0829467313824
12.0712455935815
12.0605042046899
12.0507760769925
12.0420503809376
12.0343260157114
12.0275569519515
12.021791751601
12.0170588043002
12.0133923176299
12.010750578759
12.0092057595095
12.0087017649976
12.0095874976768
12.0116988973316
12.0155420054187
12.0208461822756
12.0290524663255
12.0397031661915
12.0569966751601
12.0809415367763
12.1228793572459
12.2142572957358
12.2804844068282
12.1380861684675
12.1570833081573
12.3108595982607
12.6057632090302
13.0306182728484
13.5920122789473
14.2977399434887
15.1427059207762
16.1520159896523
17.3523053316585
18.7565223750067
20.391674082027
22.2877433896368
24.5356879429712
27.2223902124337
30.3955838711283
34.1740307202014
38.7526406998812
44.3354005077274
51.1867700949035
59.4063381250627
69.5542013713758
81.8980654101304
96.2899665226533
112.356556263644
129.491730343648
148.303067895026
169.695615099667
186.645841505614
192.268256947418
188.242110079865
177.5403179128
134.135089506375
128.753288165924
130.705952253924
136.304228359565
131.511029354362
108.042864776975
84.2225076591101
70.8007545682102
61.9730895751693
54.0407056306927
46.9590433861868
40.7975166692319
35.4831033146474
31.1720380255129
27.6664984980345
24.8534594986181
22.5927537014851
20.7516558286232
19.1882797174153
17.8045669760893
16.5469446493548
15.3810184397428
14.3036546525889
13.3432453898251
12.5266665681875
11.8442784575049
11.2693783628975
10.8234498891601
10.5168144781355
10.3611551887006
10.3645241822209
10.4953553364501
10.5981111765989
10.2821917828382
10.0413371217097
9.94130212497567
9.87348173635458
9.83294538705411
9.80462049262012
9.78431892691951
9.76821102663983
9.75394934680831
9.74074149965612
9.728157175553
9.71582206250675
9.70350640175484
9.69107257276101
9.67843991683451
9.66558228241965
9.6524979036173
9.6392095506878
9.62574690543
9.61214633302619
9.59844287801407
9.58467147859048
9.5708633738225
9.55705924396759
9.54330826503043
9.52968476101632
9.516269751727
9.50310833708343
9.49022795154835
9.47764114374487
9.46535675645025
9.45339129303759
9.44178233734509
9.43059522729927
9.41988274110523
9.40965104320851
9.39991111791272
9.39064251917345
9.38189501739634
9.37370226665077
9.36609581101664
9.35905011271128
9.35265354154705
9.34690845437913
9.34206038910165
9.33798926512384
9.33508381022829
9.33317643612517
9.33336787413638
9.33541860844121
9.34252226542761
9.35502373169266
9.38114380911547
9.44786785834354
9.50314477346327
9.39415963474476
9.39137728542951
9.48896587683533
9.68984155716686
9.98529818301454
10.3777991018294
10.8715882916172
11.4594904098238
12.1574908433755
12.9846971479049
13.9487128093844
15.0664486309977
16.3553689207086
17.8791251122435
19.7014120164599
21.850143635092
24.3994807964603
27.4837382355637
31.2369673685974
35.8439162863774
41.3026311442285
48.0323205054151
56.3160265938581
66.1224427165409
77.2977512568004
89.5574292267749
103.941572843847
123.06402191323
141.757920702516
151.594826350792
151.709411336668
142.747731465284
110.863317117988
104.354162195989
105.090332351212
112.25354270339
112.683000570382
91.221678659504
65.1929576871146
51.879140980914
45.0307027950226
39.3207843962209
34.286722221727
29.9249352793746
26.129166904392
23.0285697905778
20.4901310248603
18.4674536626674
16.8559431927653
15.5482309582778
14.4293840722594
13.4339888113286
12.5265202277716
11.6824665795598
10.9076306851251
10.2283541722657
9.66170364976537
9.19426276711392
8.80679777717934
8.51883563674026
8.33634880429158
8.26606639029148
8.30775454821491
8.4264879741858
8.49727513164742
8.26512550233705
8.11312713705982
8.05662122694786
8.02024546055467
8.00284952767022
7.9928045600411
7.98760082816353
7.98414608503526
7.98111267546912
7.97804157656911
7.97465341453819
7.97072651777493
7.96614037823165
7.96083704524742
7.95479741190449
7.94803952679898
7.94059651545672
7.93251722552242
7.92385315538185
7.91465862206285
7.90498497573174
7.89488171450735
7.88439461157312
7.8735761559155
7.86248552342634
7.85120074695707
7.83980203647346
7.82833962162834
7.81684909345853
7.80535371525209
7.79387321047035
7.78243318171259
7.77107585801784
7.75986374508597
7.74884607428131
7.73803634858548
7.72745021048675
7.71708069184374
7.70697530489712
7.69716838070484
7.68768770296128
7.67852401180506
7.66978573259739
7.66147990880918
7.65378643036294
7.64662629602054
7.64031086546309
7.63474610748373
7.6308030999465
7.62839398640191
7.63003236272615
7.63628543052641
7.65331797933887
7.7045941414391
7.75239620548984
7.66779649092377
7.65429062421636
7.71839844115453
7.86224344097102
8.07918584837606
8.36969281596746
8.73614067971946
9.17104927829645
9.68481690661692
10.2916126844867
10.9961615604667
11.809444880781
12.7416754674648
13.8379488756816
15.1454442149887
16.6807174761439
18.4896381687716
20.6650399136921
23.2937729376481
26.507848860057
30.2618313024814
34.8433552765959
40.4922862008539
47.2137504607579
54.9602387431267
63.589562008037
74.094880529289
89.8439134791393
108.246434909156
121.088770825345
125.453442832729
119.169938187186
93.8533942031245
86.9159780106289
86.5421316922854
94.1246054173946
99.6453991894212
81.7891269918562
53.9041888282002
39.5378757484521
33.7115287052166
29.4361412955724
25.7590031753352
22.6013902428392
19.8229802531411
17.5335905236375
15.647179141879
14.15882932574
12.9850933262351
12.0367553168721
11.2212467162981
10.4953211319122
9.83431389003468
9.22006473688795
8.66125379363486
8.17881396680162
7.78248423059912
7.4589706256031
7.19546988251473
7.00905086843191
6.90328814355393
6.88209015359213
6.94083693530942
7.04592967797713
7.09804922782988
6.92684396383068
6.82960637633175
6.79783705710557
6.77946101158378
6.77462231669062
6.7742601024892
6.77678948539753
6.77974909876241
6.78240606354835
6.78445559768251
6.78571153328859
6.78604191530159
6.7853870763381
6.78373222271234
6.78109042461261
6.77750125483492
6.77301405291537
6.76768865367862
6.76158537787742
6.75476532264481
6.7472860515208
6.73920259602146
6.73056665774119
6.72143510982631
6.71187047680735
6.70194983227151
6.69174963631571
6.68132080250771
6.67070183469384
6.65992091475761
6.64900307128253
6.63797824668494
6.62689008779217
6.61579739079372
6.60474556945195
6.5937515266867
6.58283281147088
6.57199039514214
6.56126881549702
6.55070142226389
6.5403138342763
6.53012099726525
6.52022665959935
6.51063396404375
6.50148454401286
6.4927316738998
6.48463277329772
6.47714675446827
6.47098336988711
6.4661607535144
6.46471442551396
6.46735341874725
6.47885595631495
6.51977327930102
6.56197413202556
6.4955060823172
6.47684628752027
6.51968782416271
6.62641374698713
6.79207811982962
7.0161971918359
7.30009740532096
7.63666151788141
8.03276268267111
8.49923999687732
9.03925511573321
9.66028469318477
10.3684672451435
11.1966942737251
12.1809345895552
13.3315438970855
14.6771823391818
16.2835111483132
18.2071038062815
20.5445862609931
23.2366479413854
26.4735635758819
30.4421909054137
35.1465849885626
40.5791812738031
46.6467156536792
54.1074631027987
66.1895071945801
82.5568040494332
96.5581572207601
104.2870599061
101.024559976134
80.2370335899786
73.5798133938274
72.4568975772054
79.5002277913787
89.4097892151584
76.3229270630711
47.5652957800534
31.4645910112165
25.9626622928003
22.5877982485176
19.8154627561946
17.4820578722146
15.4094926141986
13.6874148103532
12.2628851941858
11.1537435981502
10.2896320830511
9.59554046707048
8.99718972729909
8.46540458990509
7.98173323384553
7.53223397644959
7.12601701757684
6.779226896878
6.49753800339343
6.26972025505068
6.08791728940567
5.96682256279307
5.9086156635244
5.91536837383885
5.98013478608492
6.0722885904439
6.11294135173611
5.98577592150583
5.92304428006397
5.90598303459948
5.8984048233516
5.90066363556584
5.90564938227373
5.91226569810623
5.91860265830798
5.92424627856245
5.92897464020618
5.9326618719338
5.93523033150511
5.93665535428571
5.93694619226131
5.93613304578153
5.93426581397154
5.93140105452714
5.92760261996737
5.92293379991069
5.9174576040348
5.91123347070898
5.90431814970267
5.89676558576331
5.88863396293495
5.87998646129988
5.87089768972272
5.8614398451839
5.85166302870853
5.8416066648298
5.83130144962486
5.820775329242
5.81006055362533
5.7992009635056
5.78825177632065
5.77725499851213
5.76622922621127
5.75519286195166
5.74415200951087
5.73314830779609
5.72221343588177
5.71137733375657
5.70067310959754
5.69018514278936
5.67991855793705
5.66999034144948
5.66037804817694
5.65129965315924
5.64275231640489
5.63532784241545
5.62911836153501
5.62581000849965
5.62619647149264
5.6340933787352
5.66757072756861
5.70519161971754
5.65252164183407
5.63172887757637
5.66045964394862
5.74171948264529
5.87195232487296
6.05026340392924
6.27735867560215
6.54671557568036
6.86289839466255
7.23439311032063
7.66347232781658
8.15546240880647
8.71419470633336
9.36440073414346
10.1343391664325
11.0310336490826
12.0727386730715
13.3073509455115
14.7724565164406
16.5407792944768
18.5530237023298
20.9338575119936
23.8263333963143
27.2245649170016
31.1337398210017
35.4716476561816
40.7660890726554
49.6352118271847
63.1084255182403
76.5650567539953
86.2677858928248
85.7283301060909
68.6501271254255
62.8111722139481
61.4113607806876
67.2902468048386
80.5408106640502
72.8863371181981
44.4152086318182
26.3216715846433
20.6305769545322
17.7738007571005
15.5910828549149
13.8226182666123
12.249576770451
10.935582213553
9.84850278947045
9.0153295507856
8.37476721174365
7.86361597010281
7.42228118479435
7.0303531270905
6.67333321387796
6.34056605501911
6.04092861640814
5.78712936671084
5.58285189158104
5.41932079881966
5.29213179843195
5.21377271575065
5.18549836524163
5.20805587150114
5.27334831271923
5.35416985621702
5.38767543303671
5.2928871239315
5.25264800149126
5.24485608071995
5.24411652031965
5.25059148179941
5.25867779558844
5.26754448514053
5.27573663358091
5.28300831198485
5.2891898918797
5.29419655085149
5.29798503730023
5.30055184483054
5.30192025277856
5.30212990045926
5.30123556604631
5.29929678953311
5.29637836425286
5.29254405498038
5.28785682034252
5.28237624986776
5.27615933123849
5.26926076955377
5.26173890189214
5.25365659875705
5.24508579229044
5.23609479217894
5.22673257230452
5.21703882821512
5.20704580522285
5.19678334665148
5.1862851461412
5.17559483966609
5.16476450558197
5.15383329291507
5.14282073165742
5.13174569260908
5.1206178639879
5.10947628053741
5.09835203087384
5.0872846073104
5.07631063912329
5.06549742133565
5.05485462446372
5.04448216451928
5.03437562578914
5.02472304360191
5.01554922101505
5.00735680683728
5.00028920016672
4.99576867881159
4.99463316195464
5.00001180519676
5.02782448625573
5.06147172108864
5.01949683392009
4.99827739745601
5.01736559385272
5.08045077283675
5.18512213239971
5.33036388984881
5.51650420274548
5.73767032166125
5.99686384806988
6.30083392880017
6.65131603495912
7.05225999332394
7.5061710720323
8.03216118203358
8.65301035088553
9.37394048525891
10.2068411697601
11.1877358915612
12.3422691133073
13.7266371381495
15.2872797817093
17.1058660754015
19.2930882384784
21.8344144658262
24.7394733058968
27.9258020383337
31.758643837835
38.1671889735144
48.7249066243637
60.5274578170444
70.9015645028168
72.3376634337925
58.5855549476189
53.8257202128671
52.5359641579339
56.9746256716527
72.3475769841819
70.3390835823805
43.2741376528581
23.23999808172
16.9957034536273
14.3815364944144
12.5646179105315
11.1768684346188
9.95866127531358
8.94108912550053
8.1025932450647
7.47072164177719
6.99145785628435
6.61157728244721
6.28305339329643
5.99099215857901
5.72374827380844
5.47334906017627
5.24824483031631
5.05873201175462
4.90754611862051
4.78809819097739
4.69824504242078
4.64848177757544
4.63939065165959
4.67072874217315
4.73396631336897
4.80527871844341
4.83440642290316
4.76397898166728
4.73896004050193
4.73739729305915
4.74124491462562
4.75037780789333
4.76036923857976
4.77055100005771
4.77982096234157
4.78802572935045
4.79503361697885
4.80078916702653
4.8052720482667
4.8084923380154
4.81048201518297
4.81128620925968
4.81096198514633
4.80956995521315
4.80717463017439
4.8038393318582
4.79962633940959
4.79459486210343
4.78880169839902
4.78230183247163
4.77515345250922
4.76741892181303
4.75916780401793
4.75046518871363
4.74135907975303
4.73188936092737
4.72208949890808
4.71199083013547
4.70162815782236
4.69104486989879
4.68029041559532
4.66940161756124
4.65839861271724
4.64730063277871
4.636120036968
4.62489356858538
4.61365576330861
4.60245188937591
4.59131479260181
4.58030020566345
4.56942256734613
4.55876932591601
4.54834938181424
4.53832738592029
4.52874803384277
4.52004476046387
4.51239586358634
4.50701897219229
4.50476775657995
4.50826991570896
4.5315631409537
4.56163663921638
4.52805943274151
4.50738904309458
4.51976249019234
4.56948355433932
4.65508744195562
4.77559597590501
4.93110561726844
5.11637644749812
5.33332476296906
5.58737192975577
5.87990712528961
6.21396446641887
6.59127958840031
7.02697434488272
7.53979566458876
8.13397159315366
8.81743601036453
9.61803199538182
10.5537856559315
11.6691029679875
12.917968809672
14.3538250565282
16.0639292605907
18.0281090545132
20.2583395156505
22.6699638823271
25.5287836452121
30.1833124017296
38.2675910465953
47.9829787178074
58.0216644587148
60.6922647119215
49.9187785109231
46.227745464922
45.2596556755179
48.2747314924364
64.5353310263645
67.9265413464368
43.3570732582264
21.6213423566946
14.570165626458
12.0000720519098
10.3918097102579
9.25251919013334
8.28399800910987
7.48071133514607
6.82418408764091
6.337933227367
5.97419131963753
5.68793241819059
5.4400233497011
5.21904972529051
5.01553347967531
4.82362336511271
4.65123933303145
4.50692194628292
4.39294165119504
4.30446670944651
4.24076851432566
4.21058550107275
4.21399228503831
4.25001097876761
4.31013238280561
4.37367288415225
4.40027213526086
4.348608349634
4.33429855223279
4.33721214075951
4.34432823809754
4.35526473212242
4.36652180742711
4.37754301244419
4.38749560766413
4.3962800149753
4.40379501387081
4.41000717993824
4.41491233334069
4.41852991531313
4.42089775507237
4.42206447341566
4.42208827555143
4.42103009443282
4.41895382854885
4.41592218619499
4.41199675702306
4.40723638724339
4.40169773840586
4.3954360560584
4.38850946458515
4.38097996693801
4.37291526215619
4.3643779476626
4.35541539377248
4.34606782952764
4.33636990555323
4.32635433775635
4.316056955239
4.30552101067
4.29479382267562
4.28391035889535
4.27289124569573
4.26175608749961
4.25051934341584
4.23921668493174
4.22788897015559
4.21657977729196
4.2053182252066
4.19415224974232
4.18310053352788
4.17224105190601
4.16159248742189
4.15130081555012
4.14142488830755
4.13234324533815
4.12425714037083
4.11822199525985
4.11508725216834
4.11710611286946
4.13665838159736
4.16345036943493
4.13652042860219
4.11694630381859
4.12459466199093
4.16426197941302
4.23526419176868
4.33674636243617
4.46866579270636
4.62637030702522
4.81100796793363
5.02695756725487
5.27537068163357
5.55865301115508
5.87809430212609
6.24590298292718
6.67775922017046
7.1773234097611
7.75003653346561
8.41792925636038
9.19408299793147
10.1142352113031
11.1399915501681
12.306022397331
13.6823309818945
15.2455171878104
17.009245417128
18.8872806114086
21.0879856735214
24.5263455597753
30.6961607680466
38.3871102751946
47.4391435181337
50.7787702924509
42.5173064206427
39.7664262206514
39.1912961272281
41.0061111593072
57.0441457477099
65.2014052454383
44.1158352389334
21.0561373744649
13.016834908742
10.340678735696
8.8309747102788
7.84564608049722
7.04965784764103
6.39952335643996
5.87483456236667
5.49300265655473
5.21154011587242
4.99189647804195
4.8016254148443
4.63147150818131
4.47360481689001
4.32377997150167
4.18931819158067
4.07742708410122
3.99013271357913
3.92395761665184
3.87901809452467
3.86253302423709
3.87419341149144
3.91249224878243
3.96922603021746
4.02653595797783
4.05187511449898
4.01498746580627
4.00852588418523
4.01487799337909
4.02447464534273
4.03674895651862
4.04893602845555
4.06056494591068
4.07100887087884
4.0802020110741
4.08806922755089
4.09459442178686
4.09978549477085
4.10366888728673
4.1062867833053
4.107690343998
4.10793851898078
4.1070923990115
4.10521537617639
4.10236973144825
4.09861664036159
4.09401485490465
4.0886211691262
4.08249128832534