/*--------------------------------*- C++ -*----------------------------------*\
  =========                 |
  \\      /  F ield         | OpenFOAM: The Open Source CFD Toolbox
   \\    /   O peration     | Website:  https://openfoam.org
    \\  /    A nd           | Version:  7
     \\/     M anipulation  |
\*---------------------------------------------------------------------------*/
FoamFile
{
    version     2.0;
    format      ascii;
    class       volScalarField;
    location    "20000";
    object      p;
}
// * * * * * * * * * * * * * * * * * * * * * * * * * * * * * * * * * * * * * //

dimensions      [0 2 -2 0 0 0 0];

internalField   nonuniform List<scalar> 
15600
(
1.68978322409444e-08
0.0170191229539332
-0.0077913917061458
0.0134709662011652
0.0503255989404599
0.0959937542361542
0.122780313329858
0.135071326467687
0.145103287027765
0.151380858538557
0.156566309634779
0.160103164083195
0.163369353699484
0.166025596857177
0.168700382447281
0.17110309035754
0.1734399978185
0.175585727485969
0.177690262289613
0.179750338365864
0.181780816780853
0.183814962836969
0.185896354953913
0.188051114516323
0.190255177756383
0.192443108126325
0.194715966749628
0.197076639628977
0.199534395489174
0.202041786525845
0.204535286979419
0.207208987927132
0.208565939611849
0.211040921552941
0.215007509216063
0.219822310203824
0.225349278420395
0.231429174001977
0.237972089451954
0.244902349833387
0.252163111538705
0.259705591418963
0.267487176451867
0.275468796197898
0.283613833501226
0.29188808936011
0.300259359429381
0.308697522819912
0.31717431468192
0.325663461283524
0.334140610048498
0.342583456594251
0.350971736147786
0.35928729617919
0.367514034728149
0.375637936411875
0.383646888177869
0.391530647960713
0.399280628115103
0.406889680648956
0.414352288371559
0.421664446192861
0.428823589343465
0.435828370825318
0.442678445610479
0.449374251554295
0.455916809280091
0.462307558943911
0.468548863431566
0.474643374034378
0.480594644313383
0.486406083436028
0.492081780452072
0.497625379731519
0.50304188795334
0.508334830918239
0.513510657326274
0.518571732564329
0.523526934380114
0.528376113708576
0.533133404693459
0.537792935202527
0.542380775100815
0.546877752422115
0.551338549218121
0.555714852911314
0.560130573783636
0.564460411282134
0.569271918486295
0.573749100747902
0.578367776754144
0.582751477778371
0.587017274851172
0.590990399950015
0.594584243279227
0.59765012254209
0.599832068790993
0.600804579200281
0.600317030909173
0.598048488044039
0.593827150265421
0.587449489253969
0.579269680078898
0.569516942335044
0.557639230043214
0.54307010675549
0.525196557121076
0.502290476491778
0.472373435501693
0.429123218006505
0.372688488343034
0.30130563650877
0.213363438525208
0.110307976738388
0.001940356004055
-0.0837762019888401
-0.101954651764081
-0.0792862132796513
-0.0568491423366009
-0.00184750990682952
-1.20490938012728e-05
0.0170120923782354
-0.00776327620865794
0.0134535984290719
0.0502107049018576
0.0957996996757709
0.122628605334943
0.134965899673902
0.145019778452832
0.151322176973856
0.156524714600407
0.160075892234694
0.163349857517711
0.166011817973378
0.168689343319674
0.171095542987889
0.17343543912944
0.17558413975199
0.177690244312668
0.179751707582963
0.18178325414204
0.183817758995554
0.18589876119698
0.188053079868746
0.190257718183732
0.192446327505918
0.194719041454307
0.197079508471429
0.19953745420809
0.202045529807089
0.204540507271254
0.207216402366711
0.208580629500848
0.211064808313152
0.215033353199294
0.219848463469314
0.225375657310412
0.231455463981535
0.237998047812064
0.244927746279862
0.252187746821112
0.259729285918691
0.26750977252897
0.2754901592366
0.28363384919448
0.29190666290314
0.300276414902666
0.308713002264392
0.317188177224491
0.325675682105935
0.334151179269729
0.342592377957743
0.350979025596732
0.359292980296297
0.367518149172048
0.37564052429737
0.383647998702709
0.391530335186837
0.399278950214489
0.406886699131801
0.414348066508364
0.421659047610363
0.428817076877856
0.435820805834556
0.44266988771113
0.449364758841071
0.455906438817185
0.462296366280273
0.468536901269312
0.474630692098482
0.480581288744876
0.486392098313437
0.492067207688126
0.497610258857237
0.503026255663868
0.508318721205166
0.513494101938775
0.518554762059176
0.523509577623495
0.528358397684871
0.533115356877654
0.537774583008761
0.542362153812339
0.546858899997125
0.5513195330523
0.555695770257339
0.56011173654272
0.564443115850184
0.569259980594244
0.573743819571733
0.578368466292445
0.582756759209612
0.587025448633007
0.590998411760488
0.594588364660849
0.597643867105663
0.599807183757687
0.600754111069375
0.600234960237305
0.597930962991447
0.593673087129624
0.587264149808903
0.579060392994344
0.56928077848557
0.557367406843523
0.542753969339098
0.524818499807385
0.501823406732825
0.471763373276411
0.428355377916575
0.371793908398029
0.300315045652147
0.212343331116179
0.109392770101839
0.00133667524606611
-0.083932931136512
-0.101882061085811
-0.0792090032772086
-0.0568059390509339
-0.00184365023455804
-2.37943612790918e-05
0.0170097780128083
-0.00772512696317371
0.0134503422006974
0.0501076364462826
0.0956160398349491
0.12248175807867
0.134861562552974
0.144936613087179
0.151263348086924
0.156482970241024
0.160048344980401
0.163330219281054
0.165997887200583
0.168678251604511
0.171087951686136
0.173430934026458
0.175582674373908
0.177690388699279
0.179753112240161
0.181785458796184
0.183819858913088
0.185899751801124
0.18805257786307
0.190256452554262
0.192444308784502
0.194715314172269
0.197073830893932
0.199530179351698
0.202037230703934
0.204532478376276
0.207208576023803
0.208584642405754
0.211084968745446
0.215057339990675
0.219873272462738
0.225400943927885
0.231480742541587
0.238022994460732
0.244952078656789
0.252211233082597
0.259751725806782
0.267531004097269
0.275510049809553
0.28365228583293
0.29192355407599
0.300291689810292
0.308726609957797
0.317200085136219
0.325685874910192
0.334159657281412
0.342599155610561
0.350984129636766
0.359296448085895
0.367520026753782
0.37564086486111
0.383646861016924
0.391527782621339
0.399275050225043
0.406881521697381
0.414341682326295
0.421651526560132
0.428808487036975
0.43581121299506
0.442659355419666
0.4493533490243
0.455894212430869
0.46228338174865
0.46852321381884
0.47461635277496
0.480566345256799
0.486376595798518
0.49205118987941
0.497593765671561
0.503009325892323
0.508301387997483
0.513476400898565
0.518536721325032
0.523491233050488
0.528339771992028
0.533096492681608
0.537755500407081
0.542342921986763
0.546839534930153
0.551300179015501
0.555676484261767
0.560092927135239
0.56442537991614
0.569247552613933
0.573737277180722
0.578367547480213
0.582759772804311
0.587030681427964
0.591002610193497
0.594587607339106
0.597631588264927
0.59977531678211
0.600696129808229
0.600145419779558
0.597806654756138
0.593513743383922
0.587075280191157
0.578848102063994
0.569040792935915
0.557090820967855
0.542431911985171
0.524433325983163
0.501348163346614
0.471148528728728
0.427594108676029
0.370921362449758
0.299366461553742
0.211392368133036
0.108581073144673
0.000863153823177866
-0.0839738210323689
-0.101750747327728
-0.0791086800940201
-0.0567544096980781
-0.00183598068883753
-3.06086808673612e-05
0.0170154683017481
-0.00766967755898991
0.013462475495419
0.0500128332801985
0.0954416199575964
0.122344195190137
0.134762852491901
0.144857010324616
0.151206775761117
0.156442650687493
0.160021497910073
0.163310952979153
0.165984121522521
0.168667288448469
0.171080450554556
0.17342651218749
0.175581289772906
0.177690538718833
0.179754173099912
0.181786689744547
0.183820005639714
0.185897373814014
0.188046674179108
0.190247146704384
0.192431506072685
0.194697839747028
0.197051219192679
0.199502728855317
0.202005843059744
0.204499099680813
0.207171216710633
0.208569623991801
0.211097748483023
0.2150767230777
0.219894563984332
0.225423107188014
0.231502891279351
0.238044607801702
0.244972756584492
0.252230671971061
0.259769700516567
0.267547356155183
0.275524648587904
0.2836650275018
0.291934365218728
0.300300523226162
0.30873344329006
0.317204918253119
0.325688728015706
0.334160568227835
0.342598177520679
0.350981328133109
0.359291898935537
0.367513813088408
0.37563307545125
0.383637588431856
0.391517122585145
0.3992631016197
0.406868383753283
0.414327451752452
0.42163629560984
0.428792342704653
0.435794237056243
0.442641625321423
0.449334939660301
0.455875197475882
0.462263830444249
0.46850319021994
0.474595914193444
0.480545544503663
0.486355482577615
0.492029813237847
0.497572169301525
0.502987553519838
0.508279474968301
0.513454388865639
0.518514641568496
0.523469132494065
0.528317687532412
0.533074493745805
0.537733612748024
0.5423212564106
0.546818129329033
0.551279282217195
0.555656210579341
0.560073894558031
0.564407130210866
0.56923313940364
0.573726623886319
0.578360755230667
0.582754908700617
0.587025965932416
0.590994603098871
0.594572212088425
0.597602201101951
0.599724609555213
0.600618786886963
0.600037311753178
0.597665993744888
0.59334174017552
0.586878094944844
0.578629951535003
0.568795170266784
0.556808667487624
0.542104182282548
0.524042651750514
0.500868944942766
0.470539098211211
0.426861135588089
0.370105662309902
0.298510209522614
0.210579558688764
0.107962593695624
0.000622520148748528
-0.0838097837140923
-0.101515712070936
-0.0789718272406138
-0.0566902342057493
-0.00182554915552888
-3.23380213787545e-05
0.0170304460263026
-0.00758415669943069
0.0135006007522394
0.0499251408306902
0.0952650590097492
0.122208679027426
0.134665555914934
0.144777597705184
0.151150087926132
0.156402026551942
0.159994147366946
0.163291118665491
0.165969813997754
0.168655854142117
0.171072621834547
0.173421921401537
0.175579930254037
0.177690714373217
0.17975485503102
0.181786724385696
0.183817597128917
0.185890404318408
0.188033247375257
0.190226677055844
0.192403924047583
0.194661722414687
0.197005922986806
0.199448673098909
0.201944728378356
0.20443367383705
0.207098849363189
0.208536187911785
0.211105804773984
0.215093350788989
0.219913778352892
0.22544302825677
0.231522100362604
0.238062352719205
0.244988499536493
0.252244050155171
0.259780487304085
0.267555387094927
0.275529795080532
0.283667219472243
0.29193357644947
0.300296764291937
0.308726759089731
0.317195383700206
0.325676444691474
0.33414565984361
0.342580785806388
0.350961608209657
0.359270015424263
0.367489935681042
0.375607376329231
0.383610239843412
0.391488296503163
0.399232970657982
0.406837116996587
0.414295209655098
0.421603226818282
0.428758583096222
0.435759910455033
0.442606845896032
0.449299815972823
0.455839835811995
0.462228329659479
0.468467639594321
0.474560391168194
0.480510118176705
0.486320217469266
0.49199477419941
0.497537413535121
0.502953139475713
0.508245448324739
0.513420806953701
0.518481555927478
0.52343662438445
0.528285800251769
0.533043329755183
0.53770323617038
0.54229187907862
0.546789860660076
0.551252591971444
0.555631350277917
0.56005233149684
0.564386628317567
0.569213029681992
0.57370598313057
0.578340353234738
0.582732383649351
0.586999463869609
0.590960242169697
0.594525455000552
0.597535847320826
0.59963200491547
0.600496221971438
0.599882438339176
0.597479071677165
0.593126278192193
0.586642186010223
0.578376643767825
0.568515036514754
0.556491597063686
0.541740202304357
0.523613563433423
0.500349033052242
0.469893067527579
0.426111971094098
0.369303530463151
0.297707808917312
0.209877658199709
0.107532466076233
0.000645685646020499
-0.0833772087188052
-0.101119936765955
-0.0787664638432278
-0.0565987229915881
-0.00181203825153414
-2.84829734734906e-05
0.017055818621016
-0.00745585005156649
0.0135808891322188
0.0498540197126715
0.0950842757354395
0.122072948036677
0.134568687827192
0.144697684430397
0.151092781846001
0.156360727982256
0.159965980362601
0.163270442654726
0.165954726560979
0.168643741003957
0.17106432190084
0.173417116306534
0.175578682715555
0.177691071434821
0.179755253713673
0.181785487872106
0.183812237633445
0.185877961068851
0.188010792446099
0.190193007845917
0.192359296952868
0.194604685903045
0.196935932077277
0.19936660550868
0.201853524620608
0.204337286207945
0.206995403372165
0.208490154956477
0.211113091852071
0.215109975086533
0.219932886422272
0.225461747228225
0.23153852984842
0.238075564571472
0.244997880560362
0.252249250639254
0.259781295186005
0.267551651848569
0.275521453244101
0.283654281725822
0.291916108571333
0.300274878271167
0.308700609430026
0.317165161383693
0.325642372297592
0.33410798508299
0.342539775563057
0.350917541947349
0.359223179634526
0.367440617731598
0.375555860944795
0.383556806174392
0.391433218317696
0.399176518568985
0.406779553296321
0.414236780667237
0.421544158022744
0.428699077786471
0.43570015111637
0.44254699837411
0.449240036389309
0.455780276713057
0.462169133149156
0.468408933050531
0.474502283992218
0.480452706330756
0.486263590425244
0.491939023305651
0.497482620142301
0.502899387887593
0.508192805247925
0.513369363784693
0.518431383252654
0.523387826741498
0.528238464046477
0.532997642323024
0.537659320409465
0.542250090685254
0.546750424645128
0.551216294287662
0.555598625718976
0.560025928200502
0.564361956397633
0.569183585059721
0.573669649936128
0.578298817688965
0.582682782464066
0.586939911255627
0.59088627933737
0.594431951721716
0.597414694087253
0.599477141933613
0.600305758154578
0.599656159224286
0.597219762696498
0.59284033640267
0.586340579883712
0.578062190554792
0.568175443582467
0.556115207014865
0.541315683269215
0.52312139763938
0.499762674584635
0.469182928987523
0.425319001647789
0.368489899324484
0.296939085252627
0.209274754040226
0.107292765149061
0.000957974643600374
-0.0826257929102801
-0.100510835517864
-0.0784562914620604
-0.056460702678137
-0.00179237903311089
-1.62973050776174e-05
0.0170929959356067
-0.00727384724832852
0.0137200324191156
0.0498142186153784
0.0949026840824153
0.121936733305942
0.13447242101499
0.14461752710753
0.15103505938199
0.156318908028445
0.159937038971192
0.163248908955032
0.165938806376585
0.168630897919637
0.171055538540093
0.173412179843407
0.175577764685753
0.177691918725971
0.179755660699843
0.181783185348225
0.18380398736276
0.185859972796546
0.187979250801811
0.190146417460905
0.192298595910262
0.19452869166043
0.196844484509904
0.199261240071391
0.20173847715448
0.204217828253284
0.206870707203109
0.208438118887393
0.211121844580701
0.215127887711413
0.219952479141911
0.225479225173069
0.23155176043871
0.238083575781255
0.245000102405599
0.252245401186845
0.259771219667043
0.267535286451543
0.275498842811336
0.283625545238795
0.291881423283321
0.300234469609049
0.308654746954818
0.317114151847206
0.325586554057988
0.334047720535642
0.342475444178133
0.35084953254589
0.359151883938078
0.367366423229429
0.375479146988409
0.383477940880913
0.3913525595151
0.399094417285818
0.406696348079319
0.414152788273792
0.421459667280224
0.428614348022021
0.435615414046244
0.442462463618353
0.449155900691066
0.455696732384474
0.462086360188802
0.468327093324414
0.474421516967809
0.480373134484319
0.486185328460097
0.491862189722023
0.497407322276249
0.502825738208915
0.508120899462544
0.513299314721063
0.518363289527454
0.523321852189243
0.52817474247587
0.532936434065925
0.537600813717028
0.54219477740155
0.546698647054556
0.551169125881991
0.555556640240186
0.55999288887171
0.564331303991238
0.569143417559385
0.573616219954266
0.578234493739281
0.582604198405864
0.586845076711932
0.590770085700918
0.594288590722245
0.597235085016521
0.599255396700519
0.600041262627608
0.599350458422854
0.596877926652781
0.592471491151212
0.585958676510391
0.577670739215018
0.567760197148822
0.555663046686502
0.540813816937287
0.522548814533474
0.499091750473556
0.468388776724505
0.424460035361289
0.367641827568582
0.296182060774768
0.208751616014281
0.10722964576162
0.00155877643419316
-0.0815334200791319
-0.0996504743917225
-0.0780070486306716
-0.0562546317057424
-0.0017607599358773
9.52069470000025e-06
0.0171447442752894
-0.00703055716798346
0.0139305880508602
0.0498203807038953
0.094727247853515
0.121800669313507
0.134376831335285
0.144537153458142
0.150976985782997
0.156276654265735
0.159907344490314
0.163226502134661
0.165922016156574
0.168617308150619
0.171046330244691
0.173407315537987
0.175577561324194
0.177693789032459
0.179756701564979
0.181780540960888
0.183793732010122
0.18583766084344
0.18794046904593
0.190089657024839
0.192225562536297
0.194438545205495
0.196737493529756
0.199139522750432
0.201607236643886
0.204083402288051
0.206733032409248
0.208382942883273
0.211130834586087
0.215145782921505
0.219971383215462
0.225494544398616
0.23156128065758
0.238086322691622
0.244995571466838
0.252233372554583
0.25975160328249
0.267508113475703
0.275464249781043
0.283583740827957
0.291832673638666
0.300179087596847
0.308593088379585
0.31704660814049
0.325513546564376
0.333969692420666
0.342392853068472
0.35076284228236
0.35906155776064
0.367272916168636
0.375382901890651
0.383379385191817
0.391252106851161
0.398992471731421
0.406593298184681
0.414048997069088
0.42135546542306
0.428510032160326
0.435511248992994
0.442358688578187
0.449052739860878
0.455594404667761
0.461985071065909
0.468227028452603
0.474322837104187
0.48027598160103
0.486089835891841
0.491768495861513
0.497315554359788
0.502736031624503
0.508033366087841
0.513214093450861
0.518280513169428
0.523241718649286
0.528097418697697
0.53286222974476
0.537529968927159
0.542127868946533
0.546636094303205
0.55111215998816
0.5555058462641
0.559952389008649
0.564293664349575
0.569093531993764
0.573548343858221
0.578151066548756
0.582501327531923
0.586720530581978
0.590618110588088
0.594102722284882
0.597005423755187
0.598975830023202
0.599711676404357
0.598973391431161
0.596459966435157
0.592023656228792
0.585497045297269
0.577199697233555
0.567264525848679
0.555128596992607
0.540226511583628
0.521886165285092
0.498325075722745
0.467496423777231
0.423515256095558
0.366733932710273
0.29540660540672
0.208274066521649
0.107305821058513
0.00241438993632434
-0.080113250274452
-0.0985235374658643
-0.0773935801454682
-0.0559615166319212
-0.00171045310493198
5.57013420831769e-05
0.017215751246771
-0.00672200267714385
0.0142182982731437
0.0498824237404716
0.0945669317153608
0.121667429410213
0.134282457750632
0.14445637631423
0.150918441959299
0.156233962422697
0.159876898232872
0.163203229900759
0.165904371725984
0.168603042537634
0.171036893030094
0.173402916578658
0.175578682268667
0.177697486228679
0.17975937430356
0.181778788853328
0.1837830336958
0.185813073129996
0.187897167567075
0.190026164842909
0.192144170110365
0.194338677630742
0.196619778089007
0.199006512408101
0.201464737242954
0.20393861063663
0.206586452437951
0.208324564720584
0.211137787590974
0.215161897877182
0.21998843066438
0.22550714212422
0.231567120857915
0.238084377572396
0.244985349140812
0.252214671300287
0.259724379947247
0.267472457300211
0.275420355095345
0.283531874585226
0.291773160549596
0.300112298631919
0.308519437165862
0.316966543238227
0.325427545663328
0.333878253806971
0.342296487996201
0.35066206635639
0.358956883879083
0.36716484656149
0.37527192410267
0.38326596860503
0.391136704672784
0.398875525674668
0.406475232146472
0.413930207040106
0.421236312215056
0.428390839742164
0.435392306764815
0.442240257871946
0.44893506531511
0.455477724440864
0.461869608980041
0.468112987605254
0.474210394131058
0.480165293421683
0.485981049896642
0.491661764797441
0.497211021155258
0.502633845128787
0.507933655601617
0.513117017711044
0.518186223105471
0.523150431572344
0.52800932665638
0.532777671503682
0.53744922005551
0.542051544965043
0.54656465217301
0.551046874323164
0.55544721397271
0.559904374813939
0.564248746230708
0.569035260900722
0.573468938569881
0.578052537342583
0.582379221069908
0.58657228020003
0.590437378996382
0.593882477384609
0.596735176252237
0.59864915090638
0.59932854125421
0.598536834289062
0.595977501793809
0.591507446068745
0.584964297515185
0.576655198340788
0.56669244570687
0.554513985939056
0.53955409225931
0.521131952354866
0.497459419399804
0.466499691381556
0.422472020473686
0.365745566509036
0.294583509414048
0.207803737862032
0.107473062868193
0.00347046879108838
-0.0784065842504983
-0.0971384506785408
-0.076604665227646
-0.0555702359567626
-0.00163717052088238
0.000129468684307495
0.0173124197304287
-0.00634658758545548
0.0145827791237596
0.0500033187920527
0.0944309000854689
0.121541128292297
0.134191518701148
0.144375139052774
0.150859248894308
0.15619082327727
0.159845764791212
0.163179207415657
0.165886027803883
0.168588344989704
0.171027630306575
0.173399591307013
0.175581920263177
0.177703959809927
0.179764799708211
0.181779238274873
0.183773440131059
0.185788074318786
0.187851599961434
0.189958520131102
0.192057118725984
0.194231855071361
0.196494123100313
0.198864916819817
0.201313382511082
0.203785541313612
0.206432685882486
0.208262432496902
0.211141233368168
0.21517520801856
0.220003074405977
0.225516923340446
0.231569593038465
0.238078397797263
0.244970394815771
0.252190524971517
0.259691023150273
0.267430007873364
0.27536904202754
0.283472001884268
0.291705091928013
0.300036444973158
0.308436252876112
0.316876517935215
0.325331198203739
0.333776123274977
0.342189125818333
0.350550027354161
0.35884071899762
0.36704509459235
0.375149107621611
0.38314059012176
0.391009248925205
0.398746464424763
0.406345017486998
0.413799261552172
0.421105021433807
0.428259550474904
0.435261329347293
0.442109872687087
0.448805534616091
0.455349302546354
0.461742535017334
0.467987479473634
0.474086642148004
0.480043467730006
0.485861310108594
0.491544275869468
0.497095939514226
0.502521329574186
0.507823851719007
0.513010096247196
0.518082348413399
0.523049835324666
0.527912221125912
0.532684412007316
0.537360107020757
0.541967205165552
0.546485556595402
0.550974273888988
0.555381476597315
0.559849025621461
0.56419648685811
0.568969349480358
0.573379726276298
0.577941352876556
0.582241019907941
0.586404106714088
0.590232370678731
0.593633111004908
0.596430556411658
0.598282592113145
0.598899987468577
0.598049615230365
0.595439784770997
0.590932153003202
0.584369167733444
0.576044950755468
0.566050666904669
0.553824984264359
0.538801371298843
0.520289959256165
0.49649756635509
0.465399740997682
0.421326828080353
0.364666066847142
0.293693073653047
0.207309980318397
0.107687417446271
0.00467000973826997
-0.0764676895457194
-0.0955208529790942
-0.0756427666668672
-0.0550766468321881
-0.00153891259986344
0.000234885439703476
0.0174412149359485
-0.00590316678606349
0.0150202143281815
0.0501787404308647
0.0943230124606169
0.12142725982006
0.134108938137928
0.144294028391692
0.150799340312918
0.156147321857376
0.159814157657419
0.163154733326946
0.165867340580241
0.168573664632418
0.171019125943647
0.173398049603979
0.175588047763401
0.17771401352119
0.17977383748367
0.181782812976462
0.183765977893597
0.18576384589921
0.18780514541424
0.189888249729786
0.191965954397992
0.194119624750729
0.196362053131294
0.198716190804471
0.201154448566432
0.203625384403401
0.206272815325295
0.208196376145921
0.211140473652245
0.215185224922815
0.220015094015549
0.225523935500337
0.231568994396802
0.238068889020913
0.244951398837361
0.252161796685029
0.259652549347223
0.267381919261036
0.275311589065377
0.283405513115932
0.291629958341713
0.299953106231941
0.30834519351538
0.316778258359796
0.325226288526263
0.333665133829359
0.342072639061589
0.350428628653466
0.358714989198686
0.366915601484284
0.375016401867382
0.38300520097593
0.390871686805344
0.39860722563253
0.40620457707392
0.413658064017752
0.420963473065541
0.428118017667941
0.435120140766377
0.441969325626549
0.448665907059611
0.455210862908094
0.46160553573353
0.467852151583244
0.473953188311557
0.4799120703842
0.485732140198728
0.491417510119986
0.496971743809655
0.502399874354755
0.507705295705345
0.512894618932255
0.517970127089434
0.522941112524339
0.527807225740766
0.532583507758008
0.537263612586376
0.541875741265234
0.546399594510288
0.550894998419517
0.555309118298847
0.55978651162703
0.564136836158374
0.568896134731968
0.573281644087541
0.577818942569036
0.582088621990174
0.58621833433033
0.590005873816133
0.59335792204116
0.596095496139222
0.597880786862965
0.598431310093934
0.597517597411999
0.594853107347355
0.590304306507331
0.583718124520344
0.575375102733856
0.565345037575094
0.553067215250771
0.537973784797396
0.519365471524483
0.495444733256605
0.464201624024147
0.420082674660033
0.363494051339109
0.292727225346636
0.206775355059544
0.10791848623574
0.00596689344890231
-0.074349326809292
-0.0937041501211441
-0.0745176712056594
-0.0544770737754774
-0.00141343843018396
0.000371700010569867
0.0176048390817331
-0.00539058653339798
0.0155252468979287
0.050401084742634
0.0942334966426413
0.12133196629779
0.134042290963462
0.144214883271959
0.150738985921586
0.156103736386309
0.159782492588402
0.163130310497604
0.165848849775359
0.168559580620789
0.171011996506716
0.17339889404363
0.175597586470566
0.177728086721193
0.179786902677344
0.181789936476158
0.183761132703904
0.185740987601126
0.187758558668786
0.189816238301874
0.191871608562463
0.194002947444392
0.196224537279445
0.198561291525163
0.20098883405462
0.203459081068267
0.206107784995303
0.208126480848251
0.211135142655594
0.215191665230185
0.220024357682121
0.225528224921084
0.231565550633308
0.238056231882365
0.244928881392177
0.252129141753175
0.259609734715586
0.267329078855231
0.275248985782606
0.283333491119113
0.291548927268122
0.299863526079239
0.308247570659611
0.316673135805845
0.325114239576561
0.333546752152093
0.341948530442639
0.350299401598216
0.358581247406308
0.366777935123425
0.374875383557416
0.382861381035814
0.390725596112659
0.398459380103358
0.406055469991861
0.413508157546472
0.420813190596225
0.42796774216772
0.434970216789359
0.441820065373661
0.44851760251268
0.455063794690951
0.461459967778698
0.467708326567739
0.473811320007889
0.479772352648978
0.485594755298975
0.491282643743255
0.496839571802462
0.502270577861697
0.507579043430346
0.512771598694276
0.517850527940558
0.522825184516199
0.527695211515173
0.532475773045914
0.537160489423434
0.541777830680642
0.546307358630056
0.550809522169735
0.555230498770476
0.55971697530781
0.56406974286302
0.568815787816837
0.573175289900622
0.577686287976033
0.5819233772719
0.58601664195771
0.58975992152732
0.593059326964707
0.595732879897494
0.597447137091677
0.597926400537364
0.596945088308647
0.594222082937465
0.58962868399787
0.583015920233017
0.574650236268568
0.564580017318354
0.552245121647294
0.537075861305179
0.518363257646409
0.494306112583443
0.462911155685413
0.418745117774933
0.362233312391969
0.291686192744957
0.206194027476022
0.10815047558059
0.00733093588132886
-0.0720939957658226
-0.0917218006884974
-0.0732418631355126
-0.0537718904692544
-0.0012567314156179
0.000539371438336716
0.0178012837894778
-0.00480927630146472
0.0160923404652954
0.0506673220173284
0.0941583925800817
0.121257057150753
0.133999747544083
0.144141204451543
0.150678998729171
0.156060596202918
0.159751365757431
0.163106575731144
0.16583116797233
0.168546653730528
0.17100672225205
0.173402472110556
0.175610722502897
0.177746247982293
0.179804036152984
0.181800676578573
0.183759056923227
0.185719779200918
0.187712278631631
0.189743064181262
0.191774728659959
0.193882513992273
0.196082290377555
0.198400954038776
0.20081727663947
0.203287445554311
0.205938427640712
0.208052901049055
0.211125006533562
0.215194333674326
0.22003076267884
0.2255298262531
0.231559440203405
0.238040734838534
0.244903271910696
0.25209310235211
0.259563225588509
0.267272229704047
0.275182064737128
0.2832568506529
0.291462988466618
0.299768762122457
0.308144502668973
0.316562322306464
0.324996270026478
0.333422236599017
0.341818091190044
0.350163663702624
0.358440831121957
0.366633447056857
0.374727412764525
0.382710493773595
0.390572339022346
0.398304284289623
0.405899042691149
0.413350874715753
0.420655489396926
0.427810019372054
0.434812830595958
0.441663341051615
0.44836184448332
0.454909294075554
0.461306998365975
0.467557141317093
0.473662142641766
0.479625387770625
0.485450196820099
0.491140682573326
0.496700396336612
0.502134376189847
0.507445993891269
0.512641896310269
0.517724372042779
0.522702829753813
0.527576911935604
0.532361890871973
0.537051366044735
0.541674035576467
0.546209337827963
0.550718231203463
0.55514591103999
0.559640548732249
0.563995169665069
0.568728400238112
0.57306107609962
0.577544117441313
0.581746325347611
0.585800344597143
0.589496124545506
0.592739253518278
0.595345016051522
0.596984369987355
0.597388383456259
0.596335546183534
0.593550403751561
0.588909083341839
0.582266306421153
0.573873950610844
0.563759094810176
0.55136217706013
0.536111172781481
0.517287184060185
0.493086102321479
0.461533555675413
0.417319885819749
0.360889295777631
0.290574112593231
0.205567032226922
0.108377993061322
0.0087457564867244
-0.0697313677439578
-0.0896027421718336
-0.0718317152591892
-0.052967489641545
-0.00106412389888522
0.000737150432173509
0.0180270778833213
-0.00416057469820635
0.0167172576543192
0.0509811915160727
0.0941268452525211
0.121183515897011
0.133987173624531
0.144077976908142
0.150620814170007
0.156018665436239
0.159721461846974
0.163084172959328
0.165814847342585
0.168535307144976
0.17100356973538
0.173408868025889
0.17562737311141
0.177768320255123
0.179825066501106
0.181814924915148
0.18375975174475
0.18570035915737
0.187666600707535
0.189669158624453
0.191675817267425
0.193758870920597
0.195935888140234
0.198235789934021
0.200640419135692
0.203111193927766
0.205765465275181
0.207975799143427
0.211109912311202
0.215193096834782
0.220034228401451
0.225528771237954
0.231550815257366
0.238022660641191
0.244874940828796
0.252054146870305
0.259513582427807
0.267212018238238
0.275111552364031
0.283176391927419
0.291373009695553
0.299669743420953
0.308036973660933
0.316446850760755
0.324873455280876
0.333292698839056
0.341682463091657
0.350022580904773
0.358294924703269
0.366483334636306
0.374573694784254
0.382553747731111
0.390413123038
0.398143140625857
0.405736488609389
0.413187396399727
0.420491534699848