/*--------------------------------*- C++ -*----------------------------------*\
  =========                 |
  \\      /  F ield         | OpenFOAM: The Open Source CFD Toolbox
   \\    /   O peration     | Website:  https://openfoam.org
    \\  /    A nd           | Version:  7
     \\/     M anipulation  |
\*---------------------------------------------------------------------------*/
FoamFile
{
    version     2.0;
    format      ascii;
    class       surfaceScalarField;
    location    "20000";
    object      phi;
}
// * * * * * * * * * * * * * * * * * * * * * * * * * * * * * * * * * * * * * //

dimensions      [0 3 -1 0 0 0 0];

internalField   nonuniform List<scalar> 
30950
(
1.06414630778518e-05
-1.17649403519876e-06
1.19207714419024e-05
-1.27930145558638e-06
9.58424478125099e-06
2.33661100486304e-06
4.80606368325278e-06
4.77809811967557e-06
-6.65557075993666e-07
5.47115610546766e-06
-3.81079820388359e-06
3.14525596372457e-06
-4.10391463509227e-06
2.93306770630451e-07
-3.74093253387877e-06
-3.62947400345082e-07
-3.41263109721035e-06
-3.2834904345231e-07
-3.20009271427284e-06
-2.12549368029897e-07
-3.09447278380596e-06
-1.05621500130968e-07
-3.19032764134937e-06
9.5855954904673e-08
-3.4054292173907e-06
2.15104443098583e-07
-3.74755034944769e-06
3.42122711875118e-07
-4.11780794662415e-06
3.70257619640711e-07
-4.54511653609138e-06
4.27307812724306e-07
-5.04291984935971e-06
4.97802423737587e-07
-5.67998470431063e-06
6.37064335672874e-07
-6.45194203875515e-06
7.71957652193749e-07
-7.36283249860657e-06
9.10892170915407e-07
-8.44818333885447e-06
1.08535419732741e-06
-9.71367753428625e-06
1.26549907935396e-06
-1.11186599859587e-05
1.40498847466989e-06
-1.25990630237912e-05
1.48040968155079e-06
-1.41532284790948e-05
1.55417216030808e-06
-1.58669514234535e-05
1.71372918671705e-06
-1.76390081323878e-05
1.77206215392427e-06
-1.93535438024073e-05
1.71454020884637e-06
-2.09007607871673e-05
1.5472207055281e-06
-2.2239640934862e-05
1.33888324111283e-06
-2.33392984362152e-05
1.09966017597133e-06
-2.42994295634525e-05
9.60133623538289e-07
-2.81976936741236e-05
3.89826648626062e-06
-3.2898060408195e-05
4.70036857715059e-06
-3.62593874935275e-05
3.36132833636773e-06
-3.86463585074163e-05
2.3869718458212e-06
-4.04185491790051e-05
1.77219112066301e-06
-4.17434265605804e-05
1.32487740721031e-06
-4.2722453074908e-05
9.7902604819579e-07
-4.34187580734817e-05
6.96303979365075e-07
-4.38733526010226e-05
4.54592927080785e-07
-4.41142092110969e-05
2.40854450688351e-07
-4.4161961491483e-05
4.77496500348947e-08
-4.40331261626789e-05
-1.28838295262373e-07
-4.37424480774312e-05
-2.90681236781211e-07
-4.33033660699005e-05
-4.39085192347474e-07
-4.27285054247621e-05
-5.74863714218818e-07
-4.20297797126413e-05
-6.98728527344782e-07
-4.12187286295792e-05
-8.11053528668355e-07
-4.03065426405486e-05
-9.12187982982238e-07
-3.93041923565548e-05
-1.002351783256e-06
-3.82223670293606e-05
-1.08182632272452e-06
-3.70714563174144e-05
-1.15091121991384e-06
-3.58614309020584e-05
-1.21002546704437e-06
-3.46018032311703e-05
-1.25962731001682e-06
-3.33014548381322e-05
-1.30034767585879e-06
-3.19686796883775e-05
-1.33277414573083e-06
-3.06111099767125e-05
-1.35756850089341e-06
-2.9235890958118e-05
-1.37521768156352e-06
-2.78500201656729e-05
-1.38586941053013e-06
-2.6460047517982e-05
-1.38997130133882e-06
-2.5071889813531e-05
-1.38815646702928e-06
-2.36906576144819e-05
-1.38123113176167e-06
-2.23206452732226e-05
-1.37001149365585e-06
-2.09654323943972e-05
-1.35521228370611e-06
-1.96280983018678e-05
-1.33733376155882e-06
-1.83116235675385e-05
-1.31647466689715e-06
-1.70191911760131e-05
-1.29243257934536e-06
-1.57534308157371e-05
-1.26576078684834e-06
-1.4516825952693e-05
-1.23660550032674e-06
-1.33109630702699e-05
-1.20586369404689e-06
-1.2137624487394e-05
-1.17333953022323e-06
-1.09983321477139e-05
-1.13929338633521e-06
-9.89526140510703e-06
-1.10307185461557e-06
-8.82961302446939e-06
-1.06564952445919e-06
-7.80405048139435e-06
-1.02556368812173e-06
-6.81900867817301e-06
-9.85042921079315e-07
-5.8791151027262e-06
-9.39894639336337e-07
-4.98440034060496e-06
-8.94715745700288e-07
-4.14374402675761e-06
-8.40657190172733e-07
-3.35617439316275e-06
-7.87570376413967e-07
-2.64043469056804e-06
-7.15740286825364e-07
-1.99439491183373e-06
-6.46040185086952e-07
-1.4633614699561e-06
-5.31033656038361e-07
-1.04810346221125e-06
-4.15258023915456e-07
-8.68341815532058e-07
-1.79761465535087e-07
-1.03524815844877e-06
1.66906705957394e-07
-1.45556926834461e-06
4.20321589088421e-07
-7.98978449635306e-07
-6.56590317279101e-07
9.25384961929408e-08
-8.91516434519146e-07
1.4289928784824e-06
-1.33645386178973e-06
2.99807220639695e-06
-1.56907880814433e-06
4.84623110378097e-06
-1.84815838931905e-06
6.92532480632657e-06
-2.07909321344199e-06
9.25521704950801e-06
-2.3298917721979e-06
1.19333417085791e-05
-2.67812419433125e-06
1.48223325540701e-05
-2.88899036647802e-06
1.77200803271259e-05
-2.89774726301367e-06
2.05012361338569e-05
-2.78115526424013e-06
2.30155259618089e-05
-2.51428927094568e-06
2.51205195423774e-05
-2.10499303854659e-06
2.65465224498663e-05
-1.42600240831047e-06
2.734786084022e-05
-8.01337957930688e-07
2.78350779907952e-05
-4.87216824163215e-07
2.81151742424409e-05
-2.80096101265869e-07
2.82564735134101e-05
-1.41299384174038e-07
2.84246356781323e-05
-1.68162572332433e-07
2.88405192202185e-05
-4.15884143820509e-07
2.97559926861802e-05
-9.15473980756086e-07
3.0509576692422e-05
-7.53584118579207e-07
3.10627874627825e-05
-5.5321036274779e-07
3.14951510606103e-05
-4.3236294597932e-07
3.16943208381342e-05
-1.99169423071332e-07
3.10663122179768e-05
6.28008523654237e-07
2.80991265154116e-05
2.96718545479796e-06
2.21500604824741e-05
5.94906604344445e-06
1.62088515931357e-05
5.94120900965813e-06
1.17802382819179e-05
4.42861338526842e-06
8.88658475439807e-06
2.89365364938712e-06
-5.79211538799367e-07
3.37621377357859e-05
-4.59702167426524e-06
3.69393062277531e-05
-4.45646626625814e-06
3.09000388941142e-05
8.37595802151989e-06
1.69682720342107e-05
1.87098132331122e-05
2.19416432490877e-07
2.22195894225606e-05
-1.03351836704963e-05
1.36998269457189e-05
-1.20237043885587e-05
1.98198324308175e-06
-1.10973370888125e-05
-1.2892662673473e-06
-1.02383408622656e-05
-1.187379591766e-06
-9.64433446103758e-06
-8.06571321297874e-07
-9.41668321260606e-06
-3.33278858338072e-07
-9.73338610275017e-06
4.12556053318586e-07
-1.04474341254536e-05
9.29152348871157e-07
-1.14993639529308e-05
1.39405365196623e-06
-1.26795488409374e-05
1.55044362916945e-06
-1.40235181079889e-05
1.7712777859392e-06
-1.56145534556547e-05
2.08883818305061e-06
-1.7611963364217e-05
2.6344746036967e-06
-2.00292693632258e-05
3.18926435948907e-06
-2.28807238764058e-05
3.76234822297525e-06
-2.62609037904058e-05
4.46553681001532e-06
-3.01758152127268e-05
5.18041447661894e-06
-3.45090078526266e-05
5.73818628819222e-06
-3.91031311060543e-05
6.07453909849939e-06
-4.39668701079556e-05
6.4179180108156e-06
-4.9246640091317e-05
6.99350635640022e-06
-5.4672899684303e-05
7.19832890951084e-06
-5.99113167760461e-05
6.95296405546211e-06
-6.46862219277876e-05
6.32213186257253e-06
-6.88585421313293e-05
5.51120847074571e-06
-7.25174679327857e-05
4.75858995858552e-06
-7.68799065854495e-05
5.32257533386229e-06
-8.75124542192461e-05
1.45308162168842e-05
-9.95318298328042e-05
1.67197452047005e-05
-0.000108150031157737
1.19795297543184e-05
-0.000114182031208034
8.41897123019616e-06
-0.000118585363209829
6.17552171493439e-06
-0.000121787935777369
4.52744779177377e-06
-0.00012405878465703
3.2498719389712e-06
-0.000125562025596251
2.19954113404417e-06
-0.000126406783630825
1.29934645170281e-06
-0.000126668352140875
5.02417870366824e-07
-0.000126403677059994
-2.16930885954041e-07
-0.00012565926528391
-8.7325564394666e-07
-0.000124476706441775
-1.47324552686458e-06
-0.000122893980791084
-2.02181594411569e-06
-0.000120946582519281
-2.52226654420083e-06
-0.000118668006314131
-2.97730858692154e-06
-0.000116090481592844
-3.3885812850299e-06
-0.000113245147297321
-3.7575244323684e-06
-0.000110162299825323
-4.08520052053717e-06
-0.000106871296069692
-4.37283049370776e-06
-0.000103400473083401
-4.62173384408703e-06
-9.97769016919631e-05
-4.83359581366539e-06
-9.60262464778009e-05
-5.01028090835805e-06
-9.21724438722101e-05
-5.1541482206126e-06
-8.82377667545161e-05
-5.26744889529671e-06
-8.42427870490318e-05
-5.3525456730423e-06
-8.02068511856826e-05
-5.41115098275275e-06
-7.61486976981763e-05
-5.44402043667342e-06
-7.20857868458727e-05
-5.45287991245851e-06
-6.80338059641867e-05
-5.44013542963399e-06
-6.40063148493781e-05
-5.40872072932163e-06
-6.00147561442049e-05
-5.36156914038448e-06
-5.60687704641075e-05
-5.30119739383265e-06
-5.21768228354219e-05
-5.22928130895742e-06
-4.83471964342992e-05
-5.14610145666639e-06
-4.45883919716957e-05
-5.05123786870367e-06
-4.09076705888703e-05
-4.94648338905289e-06
-3.73115586359827e-05
-4.83271900434953e-06
-3.38047138889291e-05
-4.71271025183111e-06
-3.03920008111797e-05
-4.58605460330039e-06
-2.70781347378003e-05
-4.45316156780907e-06
-2.38687320317084e-05
-4.31247671427043e-06
-2.07681662686578e-05
-4.16621742328294e-06
-1.77826764628938e-05
-4.01105555533811e-06
-1.4916042500563e-05
-3.85167882116196e-06
-1.21783088075703e-05
-3.67763010362203e-06
-9.57489071929524e-06
-3.49813540068339e-06
-7.12395741250283e-06
-3.29159182371293e-06
-4.83411807688663e-06
-3.07741076683456e-06
-2.74267197423094e-06
-2.80718714349981e-06
-8.68674842402223e-07
-2.52003774860129e-06
6.96258417604629e-07
-2.09596701093468e-06
1.8931268736488e-06
-1.61212623380867e-06
2.46349911188484e-06
-7.50133119773394e-07
2.0063425311712e-06
6.24064191199071e-07
1.18876786827788e-06
1.23789741681463e-06
2.96325670903536e-06
-2.43107782763292e-06
5.66691875060667e-06
-3.59517703207629e-06
9.42969690978062e-06
-5.09923050362506e-06
1.38838311838296e-05
-6.0232115308516e-06
1.9032132365286e-05
-6.99645801256052e-06
2.47828463941617e-05
-7.82980569181021e-06
3.11775325171456e-05
-8.72457635757955e-06
3.84129998015421e-05
-9.91358995493363e-06
4.61686553290048e-05
-1.06446443874386e-05
5.39555759274965e-05
-1.06846663865293e-05
6.14317940283664e-05
-1.02573719512227e-05
6.82364092232836e-05
-9.31890315396472e-06
7.3980837461095e-05
-7.84942010741248e-06
7.80283872138463e-05
-5.47355116677754e-06
8.04300223498901e-05
-3.20297229564606e-06
8.18617942218567e-05
-1.91898811295028e-06
8.26496700224139e-05
-1.06797154917866e-06
8.30142103454899e-05
-5.05839578964134e-07
8.33508337828146e-05
-5.04786045425615e-07
8.43064968112187e-05
-1.37154724585331e-06
8.64493486247427e-05
-3.05832573722123e-06
8.84566494338393e-05
-2.76088463708993e-06
9.0067000989817e-05
-2.16356148911135e-06
9.14355411267053e-05
-1.8009028057275e-06
9.22976208121901e-05
-1.06124922002432e-06
9.1101096458275e-05
1.82453254145829e-06
8.37624321614908e-05
1.03058495203889e-05
6.82530495241964e-05
2.14584486824266e-05
5.15959115484411e-05
2.25983470285709e-05
3.82890822029056e-05
1.77354427217279e-05
2.98194691421573e-05
1.13632668176291e-05
-1.10135181141005e-06
5.95872513913211e-05
-9.84543078542519e-06
6.43371546032895e-05
-9.2063707768995e-06
5.52313040917205e-05
1.74818786104042e-05
3.24049079389241e-05
4.15361940313512e-05
3.58763718907854e-06
5.10364984279306e-05
-1.58168930570571e-05
3.3104300936316e-05
-1.98537126414138e-05
6.01893178373494e-06
-1.86044856839331e-05
-2.53844951273526e-06
-1.73119276384001e-05
-2.47996625624102e-06
-1.63886765225899e-05
-1.72983723591189e-06
-1.61049615289194e-05
-6.17000696056951e-07
-1.66926936718864e-05
1.00028428497007e-06
-1.79765752254573e-05
2.21303280206573e-06
-1.98012648197942e-05
3.21874416062686e-06
-2.18799157089432e-05
3.62909597863648e-06
-2.42420399796385e-05
4.13340327244484e-06
-2.70555512522763e-05
4.90235030814706e-06
-3.05515796032764e-05
6.13050359650904e-06
-3.47719352732119e-05
7.4096208228112e-06
-3.97463960493259e-05
8.73681037124827e-06
-4.56179261130145e-05
1.03370691536065e-05
-5.23824002773727e-05
1.19448920133029e-05
-5.98518507614593e-05
1.32076412811809e-05
-6.78015492807321e-05
1.40242431939439e-05
-7.62448230816073e-05
1.48611982936834e-05
-8.53125742706605e-05
1.60612647227356e-05
-9.45719440071183e-05
1.64577062141909e-05
-0.000103495425653543
1.58764532297176e-05
-0.000111680667112431
1.45073803276258e-05
-0.000118936812915297
1.27673603462295e-05
-0.000125728894242896
1.15506761910739e-05
-0.000134303904769757
1.389758957083e-05
-0.000150527860085934
3.07547738915544e-05
-0.000167771475611883
3.39633617763933e-05
-0.000180021825423914
2.42298795709966e-05
-0.000188453160935457
1.68503058334312e-05
-0.00019445353364316
1.21758925884128e-05
-0.000198648940065807
8.72285140769591e-06
-0.00020143592170698
6.03684977750628e-06
-0.000203056471252517
3.82008591792302e-06
-0.000203673755771482
1.91662536641608e-06
-0.000203401947836209
2.30603697613463e-07
-0.000202329940401314
-1.28894491621671e-06
-0.000200532629637945
-2.67057306528087e-06
-0.000198076392195056
-3.92948940558753e-06
-0.000195021266283577
-5.07694781656915e-06
-0.000191423084413387
-6.12045368562669e-06
-0.000187334335921681
-7.06606149107891e-06
-0.000182805162421976
-7.91775822244185e-06
-0.000177883702178019
-8.67898708240117e-06
-0.000172616411061133
-9.35249301292829e-06
-0.000167047986264689
-9.94125568578204e-06
-0.00016122125943921
-1.04484601735818e-05
-0.000155176915054152
-1.08779389255162e-05
-0.000148953300900742
-1.12338931454216e-05
-0.000142586095789211
-1.1521350922298e-05
-0.000136108418099927
-1.17451238421696e-05
-0.000129550928883417
-1.19100319783368e-05
-0.000122942527559298
-1.20195493832359e-05
-0.000116310992792357
-1.2075552415414e-05
-0.000109682079574299
-1.2081790612601e-05
-0.000103078839524243
-1.20433733460573e-05
-9.65212194625702e-05
-1.19663391303657e-05
-9.00261451117249e-05
-1.18566423659388e-05
-8.3608048883637e-05
-1.17192930638166e-05
-7.72798452047958e-05
-1.15574849976087e-05
-7.10542679238208e-05
-1.13716792949108e-05
-6.49440905029049e-05
-1.11614163583234e-05
-5.89603953647914e-05
-1.09301800551581e-05
-5.31129556811332e-05
-1.06801606055433e-05
-4.74092278489863e-05
-1.0416440309042e-05
-4.18568532599768e-05
-1.01384316385771e-05
-3.64636716920068e-05
-9.84634571922561e-06
-3.12382769157666e-05
-9.53787413126947e-06
-2.6188417600173e-05
-9.2160793612159e-06
-2.13232359689911e-05
-8.87623972213834e-06
-1.66508534366356e-05
-8.52406374234116e-06
-1.21853269702215e-05
-8.14315875911282e-06
-7.93936321712579e-06
-7.74410109515544e-06
-3.9373005322789e-06
-7.2936561580971e-06
-2.00937720341838e-07
-6.81377489578172e-06
3.22071930288584e-06
-6.22884511428312e-06
6.28015271733253e-06
-5.57947171369221e-06
8.856699473059e-06
-4.67251390167224e-06
1.08184826503409e-05
-3.57390912183722e-06
1.18074197157663e-05
-1.73906947085835e-06
1.12065803160353e-05
1.22490471751767e-06
1.0362409455776e-05
2.08206976652635e-06
1.31985179978708e-05
-5.26718460981266e-06
1.76677416772139e-05
-8.064398760849e-06
2.36429851755008e-05
-1.10744719225783e-05
3.06863964017557e-05
-1.30666206071974e-05
3.87275124073466e-05
-1.50375718389567e-05
4.76484069340841e-05
-1.67506980373146e-05
5.75047371417494e-05
-1.85809044015608e-05
6.8538215660849e-05
-2.09470663474773e-05
8.03265355242254e-05
-2.24329621870476e-05
9.21961803585847e-05
-2.25543092529811e-05
0.000103633277049464
-2.16944668107515e-05
0.00011412193318698
-1.98075576370503e-05
0.000123075719181853
-1.68032046567976e-05
0.000129594707757255
-1.19925385261429e-05
0.000133641220352994
-7.24948391637668e-06
0.000136067217272344
-4.34498430306712e-06
0.000137386255583074
-2.38700936475635e-06
0.000137969188022129
-1.08877171343578e-06
0.000138390597376348
-9.26195200793325e-07
0.000139669926945463
-2.65087660872451e-06
0.000142648142413575
-6.03654089117482e-06
0.000145700357394777
-5.81309917988417e-06
0.000148309450182745
-4.77265386391229e-06
0.00015063074679209
-4.12219929163396e-06
0.000152300978579612
-2.73148127101486e-06
0.000151039491049762
3.0860197028023e-06
0.000140645146646952
2.07001937493377e-05
0.000117521722685826
4.45818726511722e-05
9.11972650724998e-05
4.89228046327231e-05
6.90505288765267e-05
3.98821788493808e-05
5.48066320921582e-05
2.56071637052588e-05
-6.33564547278799e-07
8.83066207372026e-05
-1.62240404515061e-05
9.43938926487387e-05
-1.52936493749741e-05
8.27505450909527e-05
2.91252823075253e-05
5.15044715206871e-05
7.27822908265826e-05
9.90040739888078e-06
9.26402736473614e-05
-1.98800078260071e-05
6.28846375602998e-05
-2.73930416157473e-05
1.3532067230975e-05
-2.61732179831922e-05
-3.75824408639544e-06
-2.45621928623205e-05
-4.09101804672157e-06
-2.33949688891381e-05
-2.89707277974562e-06
-2.31267687988787e-05
-8.85206436665789e-07
-2.40564132997493e-05
1.92992527594518e-06
-2.59806763861742e-05
4.1372949240216e-06
-2.86542819801465e-05
5.89235063675618e-06
-3.17199871967954e-05
6.69480259847383e-06
-3.52118290794888e-05
7.62524637547401e-06
-3.93775462288506e-05
9.06806831644045e-06
-4.45139506412503e-05
1.12669086363341e-05
-5.06909086342805e-05
1.35865795350407e-05
-5.79584365736886e-05
1.60043394933025e-05
-6.64922416325129e-05
1.88708761408361e-05
-7.62644360439822e-05
2.17170892610155e-05
-8.70181039996418e-05
2.39613130451045e-05
-9.84740803968651e-05
2.54802243557086e-05
-0.000110618765905849
2.7005889456538e-05
-0.000123501596525854
2.89441017984974e-05
-0.000136521457143766
2.94775738931601e-05
-0.000148998530394871
2.8353533783998e-05
-0.000160458046976444
2.59669039617203e-05
-0.000170762268697933
2.30715883675328e-05
-0.00018081766895218
2.16060816214212e-05
-0.000193225728358904
2.63056528457514e-05
-0.000212945908309317
5.04749562633011e-05
-0.00023253939693036
5.35568515287266e-05
-0.000246065163572007
3.77556463340956e-05
-0.000255062736490179
2.58478779859017e-05
-0.000261142013642597
1.82551680827352e-05
-0.000265045331466355
1.26261666443169e-05
-0.000267244588253134
8.23610303877322e-06
-0.000268029861386425
4.60535463838023e-06
-0.000267598988980611
1.48574779090412e-06
-0.000266095076284882
-1.2733147195002e-06
-0.000263634637942702
-3.74938927722499e-06
-0.000260314920545111
-5.99029650597857e-06
-0.000256219899284252
-8.02451647818859e-06
-0.000251425265656287
-9.87158680444731e-06
-0.000246000728057368
-1.15449960111454e-05
-0.000240011238577676
-1.30555549252126e-05
-0.000233518186063918
-1.44108138249863e-05
-0.00022657991899434
-1.56172563299773e-05
-0.000219252155665451
-1.66802576121398e-05
-0.000211587999637761
-1.76054121216667e-05
-0.000203637887748142
-1.83985716882176e-05
-0.00019544938086576
-1.9066444751853e-05
-0.000187067017535904
-1.9616254856964e-05
-0.00017853208894672
-2.00562774619723e-05
-0.000169882835621469
-2.03943748264949e-05
-0.000161154713416587
-2.06381516929301e-05
-0.000152381204360107
-2.07930559355873e-05
-0.000143594324126758
-2.08624302589931e-05
-0.00013482361290261
-2.08524996787703e-05
-0.000126095429655223
-2.07715547670454e-05
-0.000117432622554151
-2.06291448146649e-05
-0.000108854718188441
-2.04345457801695e-05
-0.000100378607949734
-2.01954028465689e-05
-9.20197214206792e-05
-1.99163715704829e-05
-8.37934562877435e-05
-1.95979449569161e-05
-7.57150676411532e-05
-1.92398059905526e-05
-6.77979621752413e-05
-1.88472869202778e-05
-6.00539250505805e-05
-1.84241994842068e-05
-5.24924552888824e-05
-1.79779121095941e-05
-4.51233187756901e-05
-1.75075704006877e-05
-3.79569480824421e-05
-1.70127187971102e-05
-3.10042819313466e-05
-1.64905427310027e-05
-2.42761198004123e-05
-1.59442439358057e-05
-1.77839749432502e-05
-1.53683869550654e-05
-1.1540290885822e-05
-1.47677500511252e-05
-5.56229449933959e-06
-1.41211572214512e-05
1.30399996781586e-07
-1.34367974449878e-05
5.50882205779087e-06
-1.2672079805757e-05
1.05389531340666e-05
-1.18439072503374e-05
1.5164186038859e-05
-1.0854078953852e-05
1.93119201054764e-05
-9.72720634297296e-06
2.28441528811436e-05
-8.2047468457738e-06
2.55680634152209e-05
-6.29781941614156e-06
2.70603839658399e-05
-3.23138936665734e-06
2.66069324116258e-05
1.67835733742245e-06
2.60780523959942e-05
2.6109512267919e-06
2.98242241033745e-05
-9.01335457332787e-06
3.57657921861834e-05
-1.4005964889407e-05
4.35161666287058e-05
-1.88248442652672e-05
5.2600146184038e-05
-2.21505979759966e-05
6.28883830965483e-05
-2.53258065206087e-05
7.42480282518354e-05
-2.81103409484566e-05
8.67378543592817e-05
-3.10707282788698e-05
0.000100608288376123
-3.48174981785971e-05
0.000115420867990808
-3.72455396967137e-05
0.000130427845778871
-3.75612850561238e-05
0.000145008194201162
-3.62748134072836e-05
0.000158543538923966
-3.33429007235741e-05
0.000170314457055232
-2.8574121358317e-05
0.000179240980475618
-2.0919060729905e-05
0.000185116323312168
-1.31248257507784e-05
0.000188782099347401
-8.01075954432019e-06
0.000190855129100088
-4.4600385063298e-06
0.000191821735735206
-2.05537787047085e-06
0.000192392257091742
-1.49671614745319e-06
0.00019386325156697
-4.12187068178253e-06
0.000197378683300287
-9.5519721974526e-06
0.000201263914810954
-9.69833025394556e-06
0.000204815101048004
-8.32383975197506e-06
0.000208130848618315
-7.43794676056547e-06
0.00021079403730245
-5.39467012844408e-06
0.00021003985113822
3.84020565267176e-06
0.00019803187679685
3.27081680193949e-05
0.000169414431859309
7.31993176082584e-05
0.000134885592555064
8.34516438959629e-05
0.0001043733469026
7.03944243966844e-05
8.41439071428498e-05
4.58366035669664e-05
1.58232815384774e-06
0.000120057047900229
-2.2940811877789e-05
0.000127130246290975
-2.23668582407116e-05
0.000113518112781908
4.27374521891303e-05
7.45660532620773e-05
0.00011173440594899
1.96819950655443e-05
0.000147524133778981
-2.20929412835025e-05
0.000104659475451532
-3.44322762542115e-05
2.58714707478369e-05
-3.36951057483182e-05
-4.49540209278574e-06
-3.1919386127651e-05
-5.86676167750374e-06
-3.06170943981632e-05
-4.1993725123472e-06
-3.04518611787838e-05
-1.05044411373685e-06
-3.18041842074746e-05
3.28224533982603e-06
-3.44444368930143e-05
6.7775469553742e-06
-3.80451891991888e-05
9.4931038419144e-06
-4.21869175437501e-05
1.08365322821001e-05
-4.69175142775458e-05
1.23558443172919e-05
-5.25561748871132e-05
1.47067297720813e-05
-5.94550694118836e-05
1.81658037316481e-05
-6.77067202839882e-05
2.18382309640506e-05
-7.73759083281949e-05
2.56735283930088e-05
-8.86424952992216e-05
3.01374645090942e-05
-0.000101427431667754
3.45020277233234e-05
-0.000115390632707318
3.7924516974493e-05
-0.000130182218422629
4.0271813810792e-05
-0.000145704847125832
4.25285227772465e-05
-0.000161856788101797
4.50960482658684e-05
-0.000177881406534497
4.55021985469044e-05
-0.000193018049558926
4.34901834110366e-05
-0.000206821064566701
3.97699254331683e-05
-0.000219317503962959
3.55680335324987e-05
-0.000231666572765358
3.39551550605028e-05
-0.000246283544443318
4.0922627777116e-05
-0.000266528651044689
7.07200647548581e-05
-0.000285164303584744
7.21925048558873e-05
-0.000297409521330804
5.00008640072849e-05
-0.000305128557766124
3.35669136198008e-05
-0.000309894090542872
2.30206993587916e-05
-0.000312440269886968
1.51723437840823e-05
-0.000313240030644906
9.03586090577602e-06
-0.000312585605108487
3.95092558741471e-06
-0.000310681073717228
-4.1878762081645e-07
-0.000307679397564468
-4.27499523952737e-06
-0.000303702948287702
-7.72584307786499e-06
-0.000298850946927033
-1.08423023457709e-05
-0.000293211366129405
-1.36641015273582e-05
-0.000286863423690852
-1.62195331157242e-05
-0.000279879823768828
-1.85285993086514e-05
-0.000272328139450276
-2.06072420358254e-05
-0.00026427202235232
-2.24669330762587e-05
-0.000255771792951306
-2.41174872217785e-05
-0.000246884851976557
-2.55671994236894e-05
-0.00023766574019534
-2.68245241239631e-05
-0.000228166103029289
-2.78982085219686e-05
-0.000218434533631322
-2.87980133425852e-05
-0.000208516442930603
-2.95343443643054e-05
-0.000198453916532235
-3.01188023758647e-05
-0.000188285937732764
-3.0562351949481e-05
-0.000178048733066257
-3.08753545909485e-05
-0.000167776606180548
-3.10651810554143e-05
-0.000157502289939004
-3.11367448262122e-05
-0.000147255915516476
-3.10988725999473e-05
-0.000137064326232933
-3.09631427914358e-05
-0.000126950830607691
-3.07426394768193e-05
-0.000116935454923389
-3.04499208357214e-05
-0.000107035694014444
-3.00951634823262e-05
-9.72677426257182e-05
-2.96843230449046e-05
-8.76479283860868e-05
-2.92177596306874e-05
-7.81923211556872e-05
-2.86954139828007e-05
-6.89152123680569e-05
-2.81243967665499e-05
-5.98291504883516e-05
-2.75102626774349e-05
-5.09446424115766e-05
-2.6862421705035e-05
-4.22724804256546e-05
-2.61797340567397e-05
-3.3824578272365e-05
-2.54606227182602e-05
-2.56130750937271e-05
-2.47020477230884e-05
-1.76507707417071e-05
-2.39065500965857e-05
-9.95041504152983e-06
-2.30687444132726e-05
-2.52747102562815e-06
-2.21906957323933e-05
4.59928431212219e-06
-2.12479140936854e-05
1.14053247247046e-05
-2.02428392249513e-05
1.78602112973059e-05
-1.91269675450422e-05
2.39215639245289e-05
-1.79052608135037e-05
2.95317042781071e-05
-1.64642199851988e-05
3.46015022016328e-05
-1.47970046626819e-05
3.8993611509008e-05
-1.25968562487548e-05
4.24798280296597e-05
-9.78403571745899e-06
4.46406661178853e-05
-5.39222691044111e-06
4.47110498117668e-05
1.60797451668317e-06
4.47319856264978e-05
2.590016593054e-06
4.90027374581747e-05
-1.32841049797033e-05
5.58508301432644e-05
-2.08540559773512e-05
6.46833511424499e-05
-2.76573635464691e-05
7.50559455913799e-05
-3.25231906303883e-05
8.67842310729499e-05
-3.70540901615323e-05
9.97385177177616e-05
-4.10646257302465e-05
0.000113964688408655
-4.52968971077373e-05
0.000129698692103395
-5.0551500040741e-05
0.000146550105974671
-5.40969517980632e-05
0.000163786359862225
-5.4797537271666e-05
0.000180745124582876
-5.32335765861333e-05
0.000196767003416146
-4.93647781669139e-05
0.000211073473568586
-4.28805902812305e-05
0.00022250427927929
-3.23498653713645e-05
0.000230643255479871
-2.12638010387625e-05
0.000236153974370475
-1.3521477664994e-05
0.000239632908090322
-7.93897156159557e-06
0.000241599570660178
-4.02203982453861e-06
0.000242816105540071
-2.71325041525284e-06
0.000244742445157169
-6.04820968982949e-06
0.000248809263937775
-1.36187904255044e-05
0.000253528458748868
-1.44175246372516e-05
0.000258102709912533
-1.28980906526383e-05
0.000262556734593262
-1.18919713467926e-05
0.000266462465710473
-9.30040124868351e-06
0.000266820743676669
3.48192770642465e-06
0.000254685527935726
4.48433838161746e-05
0.000222910472713274
0.000104974372863153
0.00018211764143018
0.000124244475112236
0.000144183361997738
0.00010832870368853
0.000118017634927101
7.20023307106982e-05
6.2596845292565e-06
0.000154584806231123
-2.91566698211234e-05
0.000162197382102983
-2.99794456724123e-05
0.000147259768643849
5.76750811224299e-05
0.000101658024719703
0.000157336225335501
3.34176945193901e-05
0.000215764358242466
-2.1956253664062e-05
0.000160033307922714
-4.070947119729e-05
4.46247204894907e-05
-4.10368281140073e-05
-4.16804761185897e-06
-3.92989461016416e-05
-7.60466358097127e-06
-3.79973146561434e-05
-5.50100862084229e-06
-3.80384170004248e-05
-1.00934529251438e-06
-3.99012094245812e-05
5.14503525850511e-06
-4.33330313595486e-05
1.02093685045422e-05
-4.79331777436904e-05
1.40932511557383e-05
-5.32280437991497e-05
1.61313996757695e-05
-5.92842887935899e-05
1.84120905782369e-05
-6.64777312787964e-05
2.1900173143774e-05
-7.51966078502012e-05
2.68846808124126e-05
-8.55386332653686e-05
3.21802566716342e-05
-9.75583771674161e-05
3.76932725970691e-05
-0.000111390430209454
4.39695180728707e-05
-0.000126858485229189
4.99700836695699e-05
-0.000143509892489157
5.45759257520187e-05
-0.000160899192120215
5.7661115723803e-05
-0.000178813429404355
6.04427632460696e-05
-0.000196994854856032
6.32774778469874e-05
-0.000214622050551137
6.31293991703247e-05
-0.000230986388237852
5.98545264659153e-05
-0.000245787156977919
5.45706994676843e-05
-0.000259245921895845
4.90268031501891e-05
-0.0002725281537967
4.72373906661698e-05
-0.000287626194308712
5.60206707584526e-05
-0.00030636462743018
8.94584992163597e-05
-0.000322426393145729
8.82542710622931e-05
-0.000332512239201784
6.00867099077624e-05
-0.000338542855274205
3.9597529006908e-05
-0.000341844077580993
2.63219204954426e-05
-0.000343053308436739
1.6381572997679e-05
-0.000342592851301581
8.57540168139822e-06
-0.000340727505728663
2.08557753417584e-06
-0.000337649081280433
-3.497214855103e-06
-0.000333500395830431
-8.42368367231349e-06
-0.000328393901189443
-1.28323407728658e-05
-0.000322424795627091
-1.68114109042172e-05
-0.000315678492856346
-2.04104071171711e-05
-0.000308232428797761
-2.3665599721284e-05
-0.000300158033758779
-2.66029965513797e-05
-0.000291522024886491
-2.92432527193547e-05
-0.0002823874774565
-3.16014818946825e-05
-0.00027281435830285
-3.36906073292146e-05
-0.00026285985581876
-3.55217024346329e-05
-0.000252578410472988
-3.71059695963324e-05
-0.000242021640165022
-3.8454978599082e-05
-0.00023123817975464
-3.95814732181791e-05
-0.000220273525544754
-4.04989977950215e-05
-0.000209169911088067
-4.12224158712436e-05
-0.000197966507203758
-4.17657547539331e-05
-0.000186699780924852
-4.21420797352787e-05
-0.000175404328989949
-4.23606318611253e-05
-0.000164113150989714
-4.24279217589458e-05
-0.000152856622828867
-4.23553998067618e-05
-0.000141661811053231
-4.21579537706183e-05
-0.000130552265555327
-4.18521843701804e-05
-0.000119548289343447
-4.14538966593219e-05
-0.000108667697996584
-4.09757546710797e-05
-9.79270561985099e-05
-4.04249649177216e-05
-8.73431275800131e-05
-3.98016885501743e-05
-7.69323528769234e-05
-3.91061891994412e-05
-6.67094783685956e-05
-3.83472719807861e-05
-5.66874442838639e-05
-3.75322976331849e-05
-4.68773070074396e-05
-3.66725599855051e-05
-3.72903493822136e-05
-3.57666927842146e-05
-2.79392473399437e-05
-3.4811725925845e-05
-1.88367144556279e-05
-3.38045818016453e-05
-9.9966372149314e-06
-3.27466285275857e-05
-1.43236307644995e-06
-3.16330197077876e-05
6.83894451682039e-06
-3.04620044196247e-05
1.47978478092702e-05
-2.92068183917787e-05
2.24175111796141e-05
-2.78625034888527e-05
2.96673620006079e-05
-2.63768191259349e-05
3.65009287898678e-05
-2.47388282088142e-05
4.28619967585132e-05
-2.28252883876585e-05
4.86543721601012e-05