/*--------------------------------*- C++ -*----------------------------------*\
  =========                 |
  \\      /  F ield         | OpenFOAM: The Open Source CFD Toolbox
   \\    /   O peration     | Website:  https://openfoam.org
    \\  /    A nd           | Version:  7
     \\/     M anipulation  |
\*---------------------------------------------------------------------------*/
FoamFile
{
    version     2.0;
    format      ascii;
    class       volScalarField;
    location    "20000";
    object      Pk;
}
// * * * * * * * * * * * * * * * * * * * * * * * * * * * * * * * * * * * * * //

dimensions      [0 2 -3 0 0 0 0];

internalField   nonuniform List<scalar> 
15600
(
4.1941589094644e-08
5.87991493579983e-08
4.96018913441424e-08
1.58170979371954e-08
8.31304473047242e-10
3.905989620733e-10
3.74184654431877e-10
2.34200990094325e-10
1.46896430406789e-10
8.02754364533623e-11
5.36146976967307e-11
4.4387117159668e-11
4.72486645033234e-11
5.63468313102355e-11
7.27650516311843e-11
9.41815344793287e-11
1.26855033351104e-10
1.78405204420522e-10
2.65802734637789e-10
4.06261704288225e-10
6.35138672541211e-10
1.00934371596704e-09
1.60409457536611e-09
2.4996847865814e-09
3.78620758785775e-09
5.65768100790797e-09
8.36060690912674e-09
1.19865722897706e-08
1.65216271476961e-08
2.18046102856926e-08
2.77427444697647e-08
3.34392236935836e-08
4.5759085641899e-08
7.6324462135788e-08
1.15238519084262e-07
1.52504123990505e-07
1.88173054080893e-07
2.21419858832175e-07
2.52018734812851e-07
2.79609119219148e-07
3.0395357309324e-07
3.24859009769102e-07
3.42242250777039e-07
3.55674832100133e-07
3.64801441739266e-07
3.69627851001061e-07
3.70288563003639e-07
3.67014870293862e-07
3.60117575308396e-07
3.49974841425393e-07
3.37013345865943e-07
3.21692349606921e-07
3.04484394108544e-07
2.85858697249486e-07
2.66265228571952e-07
2.46122122006247e-07
2.25805112446304e-07
2.05643289105249e-07
1.85916388736321e-07
1.66861503758371e-07
1.48676447485216e-07
1.31514214774183e-07
1.15482836070841e-07
1.00647514942636e-07
8.70366758688866e-08
7.46492936707671e-08
6.34634204259346e-08
5.34461916488703e-08
4.45538113646259e-08
3.67302032387197e-08
2.99094607849594e-08
2.40185286646712e-08
1.89826367027983e-08
1.47291097706686e-08
1.11827722395728e-08
8.27407421367592e-09
5.92812767072827e-09
4.08216412305372e-09
2.66549626540846e-09
1.62462439396947e-09
8.91566575802907e-10
4.21354616910433e-10
1.47473151355586e-10
2.80294403910579e-11
4.45631123215719e-13
1.27479957678613e-11
2.20520517610017e-11
9.5921197636369e-13
3.84487897666279e-13
1.02042416379338e-10
5.03948913743705e-10
1.66919862354326e-09
4.00496801528262e-09
8.3719494388587e-09
1.56739710741097e-08
2.79615330851981e-08
4.74705261914504e-08
7.47776979540778e-08
1.09470549497984e-07
1.49301438982389e-07
1.90547364922501e-07
2.25015991971251e-07
2.47174309446249e-07
2.62277471200319e-07
2.75223379585072e-07
2.8699302384361e-07
3.0205648747865e-07
3.25653394855785e-07
3.72533329460958e-07
4.306875915783e-07
4.86757354785095e-07
5.4369859824406e-07
5.97519817474662e-07
6.2324325247548e-07
5.62886403001828e-07
3.66588176925857e-07
1.75046200491419e-07
8.26585402729961e-08
3.70540926378386e-08
3.06897033349178e-08
8.33103354805267e-06
1.10006929374746e-05
9.3444730784508e-06
3.53264476680872e-06
3.14582109322623e-07
3.2862134116116e-08
5.44909886333389e-08
3.71651524494439e-08
2.39333107834962e-08
1.34421163843045e-08
9.15476558712646e-09
7.73576434954567e-09
8.32219580310327e-09
1.00173346136064e-08
1.29811376601953e-08
1.69453650452257e-08
2.29990732875186e-08
3.25985286247955e-08
4.87105460419982e-08
7.47188765274549e-08
1.17071141329027e-07
1.85938726958899e-07
2.94676416513415e-07
4.58291919208361e-07
6.95421788051425e-07
1.0387445231318e-06
1.52738599117358e-06
2.1782767855896e-06
2.99192917668137e-06
3.94963982983918e-06
5.02628334733669e-06
6.30950380223708e-06
8.55699090177247e-06
1.30431729047418e-05
1.84946756583143e-05
2.36073613472853e-05
2.83438869050424e-05
3.26458667859031e-05
3.64950252856401e-05
3.98615472478133e-05
4.27267781226369e-05
4.50799601258475e-05
4.69244776185204e-05
4.82079438489948e-05
4.89057263667652e-05
4.90374986227407e-05
4.86346599794685e-05
4.77392665673934e-05
4.64016596973293e-05
4.46786985405231e-05
4.26313708327087e-05
4.03227729038815e-05
3.78158415809848e-05
3.51714645837464e-05
3.24467246730833e-05
2.96936197134025e-05
2.69580318329889e-05
2.42794220005725e-05
2.16907835683499e-05
1.92193461623517e-05
1.68869910321175e-05
1.47098531998512e-05
1.26984798828205e-05
1.08582669633756e-05
9.19026751058079e-06
7.69212085532525e-06
6.35905900155412e-06
5.18484173109016e-06
4.1618634326866e-06
3.28111642167046e-06
2.53256193508889e-06
1.90550811955838e-06
1.38916151753727e-06
9.72910306863552e-07
6.46051287118413e-07
3.98390603367025e-07
2.19574361623164e-07
1.00214696670157e-07
3.06890573527082e-08
2.31112060568743e-09
6.17940690379723e-09
3.34728483156449e-08
7.62454491784832e-08
1.23203331374173e-07
1.67820372780947e-07
1.91263585604789e-07
1.88794062548192e-07
1.402346342605e-07
1.74136300859015e-07
3.00050606780318e-07
5.16834622553744e-07
9.01279981865612e-07
1.50586303171092e-06
2.44656437456843e-06
3.84705480212345e-06
5.97849362844965e-06
9.08751777562981e-06
1.32085994592716e-05
1.8259225039592e-05
2.39396165104021e-05
2.97735361153361e-05
3.47490810990805e-05
3.82021750743019e-05
4.06645694655525e-05
4.27039885203733e-05
4.45425790316229e-05
4.67663412073706e-05
5.013736303462e-05
5.64981035482191e-05
6.44866603323838e-05
7.26876046237855e-05
8.12400178134184e-05
8.96112923002312e-05
9.44632667502596e-05
8.78567814778915e-05
6.17018527678563e-05
3.29805461204735e-05
1.67703895124325e-05
8.30112883630647e-06
6.70756847994517e-06
0.000191679457172104
0.00023761388587545
0.000202406998344366
8.91793194660692e-05
1.16114164382925e-05
1.73539979818122e-07
8.68434904931989e-07
6.65589198484055e-07
4.43372320552623e-07
2.57208517266828e-07
1.79270772433238e-07
1.55015436641574e-07
1.68777676022655e-07
2.05185288650392e-07
2.66938086127434e-07
3.51491171436429e-07
4.80664669508105e-07
6.86082781990568e-07
1.02720560868279e-06
1.57888887267353e-06
2.4737911679068e-06
3.91558801030989e-06
6.16826787650772e-06
9.53970951401996e-06
1.4424829347691e-05
2.13919356657238e-05
3.10747026443823e-05
4.37539668425238e-05
5.94384159324576e-05
7.78863698783635e-05
9.89600519117576e-05
0.000126248271033593
0.000164410890795921
0.000226613413798387
0.000298422813645807
0.000362996735005092
0.000419489117976118
0.000468223372077639
0.000509385167318285
0.000543067457184005
0.000569405499535672
0.000588622054083266
0.000600968687665243
0.000605964036284731
0.000604026070733738
0.000595673548293617
0.000581517725229368
0.000562242287147995
0.000538577879295859
0.000511282891086776
0.000481120750310895
0.000448841227144766
0.00041516124660486
0.000380749766625557
0.000346214647529664
0.000312094315294699
0.000278851939400002
0.000246875736249431
0.000216481833401203
0.00018792088748785
0.000161382437552358
0.000136994254895796
0.000114826155153029
9.48963558923142e-05
7.71803299140268e-05
6.16202936895165e-05
4.81344862544652e-05
3.66239673891914e-05
2.69742806916653e-05
1.90573566391167e-05
1.27355790674505e-05
7.866448935479e-06
4.30645037836574e-06
1.9127937982797e-06
5.4294418718607e-07
5.76036704741923e-08
3.20048581760404e-07
1.19628797525119e-06
2.55796430527054e-06
4.26868482124793e-06
6.20940822148196e-06
8.22232173449194e-06
1.01958333066084e-05
1.19011797543466e-05
1.32221348368532e-05
1.37387878725549e-05
1.31960917443016e-05
1.19603143595873e-05
1.40438508087563e-05
1.85462390296865e-05
2.55530926172829e-05
3.56935466420861e-05
4.99679243258523e-05
6.97214096048644e-05
9.68150520067599e-05
0.000134682534947505
0.000185756133416789
0.000250223548129747
0.000326937838027457
0.000412204090221489
0.000500099571157823
0.000578425667754005
0.000639181218491808
0.000686369342852163
0.000725475145712497
0.000760553068355883
0.000799693542611087
0.000854646875534375
0.000949135170553436
0.00106823237539379
0.00119905762447934
0.00134031352107882
0.00148371753925372
0.00158122961727443
0.00151682239185527
0.00115462853472617
0.000696123467225315
0.000385565986541604
0.000210275552359102
0.000168078841510396
0.00159969545486995
0.00185773866844053
0.00157856292009154
0.000797274026327606
0.000140566620586895
4.28971593980308e-07
4.70683146578595e-06
4.26253221071304e-06
2.97116195176621e-06
1.79230361280096e-06
1.28415530675737e-06
1.13907782762459e-06
1.2564893138225e-06
1.54273520270486e-06
2.01468450744193e-06
2.67348288721727e-06
3.67760580380614e-06
5.27054136539481e-06
7.878706793919e-06
1.20744110251055e-05
1.87903215159594e-05
2.93868453419036e-05
4.55431032227641e-05
6.91626959444226e-05
0.000102483829573482
0.000147908577696813
0.000207687600750048
0.000282104547565928
0.000370181018555229
0.000470623518871215
0.000584485981115622
0.000726821836385168
0.000875342463616536
0.00106472438036292
0.00126497262769244
0.00142809933160686
0.00155312723811212
0.00164668322819245
0.00171216595712027
0.001752465554704
0.00177003123185423
0.00176744856161704
0.00174540116427942
0.00170593591010759
0.00165145732373911
0.00158423167119303
0.00150648557917094
0.00142037987959872
0.00132797977952133
0.00123123437330657
0.00113195504876974
0.00103179979024844
0.000932259709459003
0.000834651242618256
0.000740111962268593
0.000649602311894688
0.000563910576506028
0.000483663795598229
0.000409341289373219
0.000341287355016053
0.000279720275838711
0.000224739450633331
0.000176337682749863
0.000134416367604979
9.88016785054087e-05
6.92599874907451e-05
4.55107941449934e-05
2.72342217153711e-05
1.40751957766993e-05
5.65196538880616e-06
1.56372679616846e-06
1.3981520770318e-06
4.73464761991034e-06
1.11460838967014e-05
2.0203462769157e-05
3.14732132904271e-05
4.45282819332969e-05
5.8917310332035e-05
7.42058588026502e-05
8.98936404954068e-05
0.000105517007584927
0.000120484804449019
0.000134187963913771
0.000145773984485494
0.000154275604579043
0.000158045848924381
0.000154109803107992
0.00015160114884042
0.000171893115038898
0.000203841342626426
0.000251791686441828
0.000313589181625823
0.000395723460765485
0.000501695674515241
0.000640131273259494
0.000821825301058505
0.00105308063156665
0.00133776550218475
0.0016759507684827
0.00205970877224444
0.00247254542513327
0.00287929770017565
0.00325431116376531
0.00359277787444653
0.00389623360572037
0.00417844887900781
0.00447040990106844
0.00482586249195107
0.00533610843551169
0.0059577023305029
0.00667817916876454
0.00748277104537869
0.00832381803566732
0.00897300132379756
0.0088805941979318
0.00734638470626259
0.00503637892985047
0.00309563195029322
0.0018708368259423
0.00150780665230357
0.00743344206374509
0.00809829700775683
0.00684959410018315
0.00391687960411653
0.000901994756152026
1.67578405045409e-05
1.31230309788351e-05
1.5385739798885e-05
1.14249540549724e-05
7.23175708089925e-06
5.35560487928704e-06
4.88396288138686e-06
5.46083067359277e-06
6.76406655038255e-06
8.85429552969659e-06
1.18054331301098e-05
1.6261822956397e-05
2.3240454043852e-05
3.4393748009861e-05
5.19532803614152e-05
7.91056603973852e-05
0.00011996077623719
0.000178787446986
0.00025941286045851
0.000364614900548426
0.000494180300130772
0.000646545522887301
0.000816733041839695
0.00099979902181947
0.00119447116487355
0.00140510570448732
0.00163862219981674
0.00177492342709399
0.00184801343339651
0.00191067143300096
0.00194505190763048
0.00194376632969643
0.00191736007996052
0.00187013190672334
0.00180627436918402
0.00172918331394283
0.0016419129306712
0.00154614739602126
0.00144447144003528
0.00133901431062671
0.00123163204032098
0.00112394371058895
0.00101735317932065
0.000913069454391682
0.00081212254128642
0.000715379353220905
0.000623557149332571
0.000537237989393679
0.000456881709002128
0.000382839038280475
0.000315363315498037
0.000254621517243305
0.000200703499728108
0.000153630746804667
0.000113362939291592
7.98046835127773e-05
5.28131046404267e-05
3.22050090392877e-05
1.77631201724484e-05
9.24003286079028e-06
6.36073779404513e-06
8.82396888114407e-06
1.6306316126249e-05
2.84683797595725e-05
4.49559415358216e-05
6.54034449564695e-05
8.94281763902229e-05
0.000116630220038743
0.000146596604739007
0.000178901278417913
0.000213109297743929
0.000248749240975581
0.0002853421664877
0.000322306206234579
0.000359173136378889
0.0003950801668907
0.00042963956258158
0.000461374278827191
0.000490040894168325
0.000512865824369412
0.000529727230651769
0.000532887796068329
0.000554073866587216
0.00060926383956349
0.000676741984734198
0.000778016301166502
0.000901826148618585
0.00106383477365384
0.00126706540496619
0.00152789108432039
0.00185681428377837
0.00226054684015073
0.00275723210791769
0.00336289829057495
0.00408704554403482
0.00492970444288561
0.00588331546271875
0.0069458381909888
0.00808128196154579
0.00924107946208988
0.0104245350910928
0.0116641892757459
0.0130465893449842
0.0146972357185662
0.0165815528848025
0.0188067653899106
0.0213411909672174
0.0240353556570597
0.0263467631011573
0.0269948777729398
0.0243104709246588
0.0190298225717043
0.0132187141375055
0.00893901805302072
0.00740825392525244
0.022491040230111
0.0231364216164901
0.0195617860910789
0.0125739880471539
0.00373523696294987
0.000182286636842667
2.05066108093627e-05
3.76703603141533e-05
3.07073629906422e-05
2.06681626810594e-05
1.59332967179783e-05
1.49665396631819e-05
1.6951108308859e-05
2.11162865419312e-05
2.75938908468235e-05
3.67175575753319e-05
5.01786387300868e-05
7.0605230949758e-05
0.000101824723591526
0.000148561487516652
0.000215878904515355
0.000308296875896657
0.000427611239754192
0.000572123389054735
0.00073555194596941
0.000905024651823778
0.00107089959642627
0.00122762128954114
0.00137587601152742
0.00152273156597248
0.00167292052217239
0.0018023535756797
0.00173246108071849
0.00151151609940511
0.00133673374851089
0.00121532964963041
0.00110697103288672
0.00100878698282777
0.00091647165654391
0.000828966828518646
0.000745879062120134
0.000666984107098609
0.000592043754090006
0.000521332981801272
0.000455058973620598
0.000393385638682154
0.000336431247502942
0.0002842701551323
0.000236938243962353
0.000194436847619081
0.000156738373341309
0.000123790908822079
9.55235981175487e-05
7.1850605227343e-05
5.26748104451259e-05
3.78897162600985e-05
2.73800815507519e-05
2.10219195926393e-05
1.8681923247682e-05
2.02205842939424e-05
2.5497844711405e-05
3.43731896012058e-05
4.67038471792686e-05
6.23416446703936e-05
8.11297848567537e-05
0.000102900469374248
0.000127473680200736
0.000154665661742684
0.000184296034031185
0.000216178590118308
0.000250120552007019
0.000285912064045279
0.000323324656177216
0.000362130312755933
0.000402072020063674
0.000442924178466556
0.000484333675997448
0.000526110702096806
0.000567700567729787
0.000609085862100694
0.000649277665267897
0.00068871909680214
0.000725505474238226
0.000761195548556235
0.000792219067137145
0.00082305715805201
0.000846462142919585
0.000910951426843969
0.000986179394674579
0.00105671406007623
0.00116343563275735
0.00129179985318247
0.00146073176049378
0.00167065939704463
0.00193793521541226
0.00226401500757472
0.00264811939187153
0.00311386344536192
0.00368780186107468
0.00439868336435556
0.00527756194273852
0.00638847457899103
0.00782574025704916
0.00959729738594597
0.0116539577401648
0.0140011412165405
0.0166620474753213
0.0196922916515376
0.0230850135846963
0.0268592434874075
0.0313705056642038
0.0366172864888722
0.0423056060598634
0.0476726298507532
0.0510447631798429
0.0502730210266031
0.0448689911152452
0.0355237585543101
0.0269902616350589
0.0232958402595692
0.0476514391632446
0.0467489333692318
0.0398073597529364
0.0286213611034086
0.0108965800017508
0.0010264637247294
1.49836253907227e-05
6.64851611110282e-05
6.28435454447016e-05
4.59296785814183e-05
3.72243072277739e-05
3.6077135598341e-05
4.12889337289609e-05
5.1414390201615e-05
6.65245837338119e-05
8.73073115166504e-05
0.000116594340720502
0.000158485865791143
0.000217835983882895
0.0002991090697014
0.000403223027982436
0.000526899440103774
0.000662030945109767
0.000798458818861857
0.000924172560957774
0.00102444688957565
0.00109679495608737
0.00114969756746497
0.00119452062552064
0.00124062384533272
0.00128318035651653
0.00128062741282962
0.00108264305124248
0.000778076468399418
0.000580914771998771
0.000465424108288922
0.000379132759186126
0.000312205074185412
0.000257256691120993
0.000211245379945297
0.000172311255650664
0.000139167608387755
0.000111104155156453
8.76690677120723e-05
6.84805466662561e-05
5.32218377994679e-05
4.16156406434934e-05
3.3412676534144e-05
2.83854212582037e-05
2.63250276187273e-05
2.7039917607043e-05
3.03554164502774e-05
3.61134893001009e-05
4.41719741978966e-05
5.44032712071476e-05
6.66922502704409e-05
8.09329340827548e-05
9.70266407004299e-05
0.00011487890353915
0.000134401828889986
0.000155520341579272
0.000178168945336169
0.000202285498722362
0.000227804396189147
0.000254652371258988
0.000282746946502237
0.000311995370314196
0.000342307618635384
0.000373604064600832
0.000405801947831521
0.000438810957593883
0.000472524747221982
0.000506814134028202
0.000541568326029457
0.000576627711678667
0.000611909218939898
0.000647137001962775
0.000682327845437636
0.000716968254913461
0.000751372175309862
0.000784543951944145
0.000817494827625085
0.000848265279277935
0.000879602742997925
0.000908016601457932
0.000941201062942726
0.000974049858568356
0.00106408177749079
0.00115071434832812
0.0012164620560146
0.00131157789911704
0.00142392072521872
0.00157142012095019
0.00175248719396303
0.00197988631976461
0.00224792781402976
0.00254561680187615
0.00288854920084133
0.0032973023495825
0.00379726590636135
0.00442149087990573
0.00525546074865923
0.00644645669900248
0.00806838461574036
0.0101311176131116
0.0127020739688253
0.0158589135470585
0.019667190460315
0.0239594284566789
0.0287943606526887
0.034770510638158
0.0420332592278243
0.0502457049762943
0.058742849050456
0.0664770761530393
0.072306678092889
0.0734605334100462
0.0661867047996582
0.0561493820167529
0.050579206570858
0.0758356363371032
0.0716836144352647
0.0616511951366242
0.0491871575420962
0.0236540386967005
0.00377577871957872
2.5071468864498e-05
8.15899538282997e-05
0.000100184446430125
8.23942488939567e-05
7.12635603669118e-05
7.1417316098552e-05
8.22231044682815e-05
0.000101381970339346
0.000128266126957958
0.00016335247550175
0.000209177914754178
0.000268934696708635
0.000344640213911152
0.000435858465903605
0.000535121618040993
0.000631619748418143
0.000715180122051623
0.000780434787038892
0.000823387171024941
0.00083821247063114
0.000831584907727984
0.000818230472916177
0.000807914067192696
0.000802770894197199
0.000789834348219044
0.000732942115701484
0.000536672694710348
0.000301453137349668
0.000172971130610864
0.000108392685742565
6.77086324591561e-05
4.18704519580846e-05
2.52041093643795e-05
1.51871753116736e-05
1.02736556114477e-05
9.52755602858973e-06
1.23307080324465e-05
1.81995572354587e-05
2.67314731609712e-05
3.75849918195993e-05
5.04624759750165e-05
6.51009984980598e-05
8.12665402877375e-05
9.87519653684011e-05
0.000117375715943186
0.000136981569495093
0.000157437582764926
0.000178634437549655
0.000200482721056578
0.000222910077219595
0.000245857014546801
0.000269275562350592
0.000293125000458189
0.000317372395013966
0.000342000384713341
0.000367003647870773
0.000392379849255245
0.000418120749522577
0.000444208027741713
0.000470612853475318
0.000497293038995526
0.00052421030957722
0.000551340804803078
0.000578659093577851
0.000606130754387787
0.000633704731236027
0.000661298056829553
0.000688862532168583
0.000716276072221141
0.000743543984290269
0.000770414456804141
0.00079703324581384
0.000822900602781136
0.000848502693940075
0.000872859390227558
0.00089726626226151
0.000919809858052492
0.000943810322862445
0.000966040514201936
0.000995888867806297
0.00102936177486059
0.00112899957343506
0.0012259838552951
0.00129311338311307
0.00138212444264996
0.00148453918046192
0.00161698064754256
0.00177720542673329
0.00197516233567207
0.00220190421208814
0.00243877896388854
0.00269166370804548
0.00297205904378016
0.00329549954265511
0.00368431181470794
0.004211145946482
0.0050197319008211
0.00620028115511776
0.00778300015027113
0.00985614220994479
0.0125260104604633
0.0158780188470123
0.0196648541866805
0.0239122047539622
0.0293181210278195
0.036231159968493
0.0444735256606016
0.05374530819057
0.0644823283889622
0.0783248247817157
0.0909240898413722
0.0928818735904973
0.087091733668969
0.0815868318505387
0.0984756918716756
0.090300213751268
0.0780716646302816
0.0681333312508471
0.0403516788120204
0.00997781107196681
0.000272892892727379
5.64040215925686e-05
0.000120685805378404
0.000119322242562392
0.000112880553297334
0.000117516202744632
0.000135377139761811
0.000163399212303068
0.000199227164406338
0.000242160609781113
0.000292417329524386
0.000350120438327036
0.000413135771293905
0.000477622622864613
0.000533765420277702
0.000573280041416422
0.000593939783411606
0.000599278004353501
0.000591222828956383
0.000567455269425589
0.000534997070573148
0.000505254028619242
0.000482322946772561
0.00046323315302165
0.00043455752884868
0.000374468407575613
0.00023162618443112
9.01177886236012e-05
2.76532701058588e-05
5.96874999968004e-06
5.35305585884367e-07
4.24529918505009e-06
1.37286123545282e-05
2.72519731158128e-05
4.38912963121817e-05
6.30558664722868e-05
8.42792107767073e-05
0.000107165821577092
0.000131373879184468
0.000156600465171377
0.000182578960904946
0.000209073946642756
0.000235877686437328
0.000262809908346641
0.000289717871189419
0.000316476952250604
0.000342989836120333
0.000369184671944131
0.000395011742637535
0.000420440581220729
0.000445455459737768
0.000470054922029913
0.000494245707206069
0.000518040043826711
0.0005414662275486
0.00056456656818251
0.000587385719976133
0.000609959890237474
0.000632312548116499
0.000654454607089102
0.0006763774917933
0.000698074816116949
0.000719558757598688
0.000740841676370485
0.000761926621320873
0.000782798145961715
0.000803396127337837
0.000823708578646438
0.000843623843640154
0.000863210608966184
0.000882232858231252
0.000900907855274214
0.000918741159760797
0.000936310817140395
0.000952659926130881
0.000969231877636214
0.000984189481531555
0.00100114978879996
0.00101717369109149
0.00104270478569544
0.00107411051510637
0.00117653937696132
0.0012831871148951
0.0013566995459602
0.00144622797740257
0.00154669705292392
0.00167391407211615
0.00182589808664307
0.00201096130345379
0.0022191316897055
0.00242668498232727
0.00263157546209184
0.00283798079181193
0.00305346573869403
0.00329098589161662
0.00360712885318295
0.00412925565500035
0.00494239035411188
0.00606946056944456
0.00758198967379717
0.00956822367782315
0.0120955724191765
0.0148754832670715
0.0178293090031065
0.0215612037846851
0.0264766831846606
0.0325479394604814
0.0398027083640825
0.0499156064912118
0.0680114467646084
0.0910755836762657
0.105578821058156
0.108864745936703
0.106639122257987
0.110941166484051
0.100325616153703
0.0864083234775879
0.0809370934441386
0.057277419563636
0.0202196096276154
0.00138932457908968
9.55896611434088e-06
9.87170994107007e-05
0.000135071798388113
0.000145961781095878
0.000159683051047881
0.000183524919007947
0.000214818050322855
0.000249608497326129
0.000286520172034054
0.000323653179308241
0.000359340610291438
0.000390690119767888
0.000415717813998759
0.000428444246467387
0.000426469621098863
0.000413282502766195
0.00039471542366684
0.00037245953178706
0.000343718724917365
0.000312777973489071
0.000286637247911993
0.000266111100798013
0.000247225461036409
0.000220060893647004
0.000175867723248478
9.30345227595276e-05
3.15516899179498e-05
1.9605799419808e-05
3.00364920244592e-05
5.04547709454375e-05
7.52884484449211e-05
0.000103133232130783
0.000132895784350706
0.000164183798485112
0.000196634333363077
0.000229928639307925
0.000263759816807579
0.000297842165538935
0.000331907850733026
0.000365719558539866
0.00039906818958204
0.000431771100327816
0.000463673149593068
0.000494648171286628
0.000524600315030751
0.000553463684292868
0.000581200375365009
0.000607796706026962
0.000633260518911666
0.000657616384590978
0.000680906124528345
0.00070318003222037
0.000724489520120126
0.000744901858067393
0.000764501041944803
0.00078337336184849
0.000801594564037415
0.000819225240360733
0.000836311190010276
0.000852870188304699
0.000868918092337251
0.000884494258233514
0.00089964041656644
0.000914390133739055
0.000928755919538561
0.000942689814933112
0.000956197419565345
0.000969177825395505
0.000981745225604648
0.000993680950526956
0.00100523884446235
0.00101593167399339
0.00102638931480937
0.0010356852849817
0.00104534837283792
0.00105363501901272
0.00106434648077307
0.00107483775736686
0.00109638183822586
0.0011253531581955
0.00122783884079635
0.00134321723498344
0.00142595864894752
0.00152060793814198
0.00162489606200759
0.00175420200447884
0.00190729461904746
0.00209161699876372
0.00229718164148071
0.00249679169928147
0.0026820668586428
0.00285148809369806
0.00300694000116096
0.00315513004508114
0.00334081268372072
0.00367813844092073
0.00424586864945174
0.00505620731352565
0.00615899228439938
0.00761460088201534
0.0094615543242223
0.0113942176200896
0.0132300253484906
0.0154029421884893
0.0182332808321126
0.0216936542242809
0.0258972843388714
0.0328206002614154
0.0496976350259888
0.0775962028055872
0.102731400182698
0.114764032052407
0.116918645424724
0.113423492657248
0.102475466816999
0.0878217332886475
0.0865898652949439
0.0713062158913561
0.0334847105782759
0.00433469556861595
7.83407246997828e-05
3.896104195898e-05
0.000111278940094298
0.000149623368121122
0.000176474870324618
0.000203370715110739
0.000230438593751145
0.000254534808413796
0.000275757904844779
0.000292060689562184
0.000302358064763899
0.000305745798101875
0.000303498796609466
0.000293300469040561
0.000275567941224115
0.000254403370960984
0.000233902077467583
0.000214231493993487
0.000192228591755517
0.000169935681817611
0.000151424631902793
0.000136496813130541
0.000122242318647818
0.000102973360120825
7.92381609156121e-05
4.9990672948685e-05
5.29597145587247e-05
8.05827863931955e-05
0.000116592019453886
0.000157522051395152
0.000198943967954102
0.000241100276131451
0.000283404898332974
0.000325885196051807
0.000368360522353566
0.000410647334750985
0.000452515977792637
0.000493725760062907
0.000534035149030395
0.000573230066135355
0.000611123094048997
0.000647552804454829
0.000682385591732395
0.000715518512500083
0.000746881293058518
0.000776436510597741
0.000804177509000459
0.000830124235097634
0.000854320882232928
0.000876830766706002
0.000897738023303018
0.00091713522916723
0.000935109883624937
0.000951764668959864
0.000967222670826003
0.000981609938196571
0.000995040379317887
0.00100761071094602
0.00101940071440277
0.00103045150137891
0.00104079583449849
0.00105049582008811
0.00105961864150386
0.00106822605209304
0.00107635584062763
0.00108396389483737
0.00109106686579602
0.00109757500672226
0.00110364499614641
0.00110906814494229
0.0011141195216622
0.00111832260479038
0.00112233760877591
0.00112527581965949
0.0011287212432859
0.00113103862885217
0.00113616724677393
0.00114176240810712
0.00115985103337959
0.00118664866512971
0.00128796801892271
0.0014110538922114
0.00150457147374591
0.00160741798597076
0.00171950835440147
0.00185600213048177
0.00201665583031121
0.00220848169692461
0.00242187779479803
0.00262710265523997
0.00281047592708304
0.0029657543161831
0.00309061095215927
0.00318773465671486
0.00329405247864013
0.00351536246901672
0.00392733597487138
0.00453478802853515
0.00537183469852614
0.00647790679494542
0.00787072501534122
0.00924711380093052
0.010354860284367
0.0114795621270038
0.0128294442539593
0.0143031238902694
0.0159433253748493
0.0193818313986937
0.0318091196106079
0.0582856968869324
0.0888717904629873
0.110762396638231
0.118140550322149
0.109534764074741
0.0986983446592276
0.0845175058792338
0.0862835524252529
0.0803340149125648
0.0480322463480742
0.0098461681414999
0.000509138291960085
1.59077281554862e-07
5.64198104086712e-05
0.000116088241832209
0.000155883493942609
0.000183671109650091
0.000203438021197001
0.000215302006710763
0.000221945223439745
0.000222303907371443
0.000216610335455325
0.000205933840349202
0.000193160547438875
0.000177532757475993
0.000159700103093319
0.000142310979935077
0.000127402534057871
0.000114457932651187
0.000100770122192881
8.69989014378978e-05
7.54994079065267e-05
6.61796913901242e-05
5.78237659361995e-05
4.85067481181321e-05
4.47856650357917e-05
6.1193977411374e-05
0.000117259947406193
0.000177966496165479
0.000236108199250967
0.00029481733814991
0.000350576460389539
0.000405058436488751
0.000458109327263803
0.000510102875283506
0.00056103066775444
0.000610836297900593
0.000659359834688241
0.000706397929128015
0.000751728876266455
0.000795157515097083
0.000836514877139625
0.000875658051078975
0.000912472466889084
0.000946876133840212
0.000978822288249038
0.00100830021005192
0.00103533301277534
0.00105997310086427
0.00108230030993863
0.00110241642841676
0.00112044837075952
0.00113653134300294
0.00115078743310604
0.00116335272006617
0.00117438837278747
0.00118405991834396
0.00119251963054452
0.0011999010250035
0.00120631885146185
0.00121183658171294
0.00121650050757824
0.00122039302274058
0.00122360486138495
0.00122622576341493
0.00122831820606262
0.00122983190980901
0.00123079960055346
0.00123114626539479
0.00123105900602326
0.00123034080656183
0.0012292788708032
0.00122741112184639
0.00122541594329949
0.00122244952562682
0.0012201363015784
0.0012169628651834
0.00121698948509875
0.00121817876536184
0.00123328716546233
0.00125829968927751
0.00135779586535241
0.00148756461575366
0.00159265095774692
0.0017057939326315
0.00182851952833962
0.00197584556630454
0.00214861152333686
0.00235363787086565
0.00258181690261959
0.00280142211063331
0.00299414841666268
0.00314959254812694
0.00326210722193745
0.00333178611418312
0.00339057334683482
0.00353956550588957
0.00385406447939626
0.00433495554148475
0.00500704279598289
0.0058974386768923
0.00701365962015588
0.00806672219266942
0.00876471273341705
0.00928761593677822