/*--------------------------------*- C++ -*----------------------------------*\
  =========                 |
  \\      /  F ield         | OpenFOAM: The Open Source CFD Toolbox
   \\    /   O peration     | Website:  https://openfoam.org
    \\  /    A nd           | Version:  7
     \\/     M anipulation  |
\*---------------------------------------------------------------------------*/
FoamFile
{
    version     2.0;
    format      ascii;
    class       volSymmTensorField;
    location    "20000";
    object      tauij_B_bouss;
}
// * * * * * * * * * * * * * * * * * * * * * * * * * * * * * * * * * * * * * //

dimensions      [0 2 -2 0 0 0 0];

internalField   nonuniform List<symmTensor> 
15600
(
(3.90398139622495e-07 -1.02541939458241e-09 1.09632743042859e-34 3.9040295159904e-07 9.83361266807151e-37 3.90400694209924e-07)
(4.07920222802467e-07 -1.24164646260497e-09 -5.47891681774434e-32 4.07941100501335e-07 -2.1188035348915e-33 4.07930264349668e-07)
(3.40081310502916e-07 -1.04156343918879e-09 -4.66525349283962e-30 3.40258334021305e-07 -1.22367480139068e-31 3.40170102454508e-07)
(2.41668400258119e-07 -4.92560144335179e-10 1.03875777943702e-29 2.4187182784431e-07 9.79766698784039e-29 2.41769862900447e-07)
(1.30093194238059e-07 -8.06377915830579e-11 2.45658801683299e-28 1.30152825199249e-07 1.24702242069341e-27 1.30122625633514e-07)
(5.30270509690352e-08 3.1839491032483e-11 9.57155866725846e-28 5.29835045018786e-08 4.04540679969295e-27 5.30049892286387e-08)
(2.45716230423888e-08 1.95027316555918e-11 1.58668708142671e-28 2.45351951002022e-08 4.04277010837146e-28 2.45533001383119e-08)
(2.16036545693132e-08 1.34822785014577e-11 4.04831734482778e-29 2.15718124204751e-08 6.72342650755391e-31 2.15876675979454e-08)
(1.77480069074968e-08 9.28942333089221e-12 5.25332246658127e-28 1.7722054453546e-08 8.12903839805859e-28 1.77349780821269e-08)
(1.33407736265336e-08 5.91555150944638e-12 6.53898200079656e-28 1.33222861836749e-08 1.1333827974789e-27 1.33315001663541e-08)
(1.11584906966056e-08 4.55599726158469e-12 2.68180045392602e-28 1.11433578838744e-08 3.61906503330739e-28 1.11509023518827e-08)
(1.07963252147858e-08 4.36260410157242e-12 2.79128190364513e-25 1.07816787276843e-08 4.90538532629715e-25 1.07889873404969e-08)
(1.17607611165917e-08 5.19092088300041e-12 3.57636431872434e-25 1.17439250963526e-08 6.40852354436617e-25 1.1752328451216e-08)
(1.36243455162746e-08 6.72760251318563e-12 -1.01069485563797e-28 1.36033801196491e-08 4.6255119262243e-30 1.361385072241e-08)
(1.62446565261078e-08 9.11381201542035e-12 1.77392390309096e-28 1.6217235757801e-08 -1.05242832108524e-29 1.62309311972967e-08)
(1.9546744060519e-08 1.22890676453424e-11 9.16886104677828e-28 1.95107953610528e-08 1.44140898521034e-27 1.95287573231072e-08)
(2.38252526384771e-08 1.68542790823882e-11 -4.62413850528681e-28 2.3776980632144e-08 9.67986494375607e-29 2.38011046306814e-08)
(2.95964110543106e-08 2.36348760753074e-11 2.19479129081111e-30 2.95296442960309e-08 4.0088031605124e-30 2.95630225565147e-08)
(3.75734313410522e-08 3.42481147642692e-11 6.36249146958257e-27 3.74774808622973e-08 1.16436782155188e-26 3.75254547580128e-08)
(4.84670502874089e-08 5.08459558577954e-11 -1.09233022953707e-27 4.8326879301445e-08 -5.68968793151962e-27 4.83969728071006e-08)
(6.31627492628307e-08 7.7699628150417e-11 1.61674225646298e-26 6.29562214633656e-08 3.23650859266777e-26 6.30595099727848e-08)
(8.28726531305505e-08 1.21547764191058e-10 -2.27640254691509e-27 8.25677765792867e-08 2.00011738378008e-28 8.27202639801748e-08)
(1.08795845989417e-07 1.92164900191226e-10 -8.08037229028695e-30 1.08351138847799e-07 -1.68672316469228e-29 1.08573575542707e-07)
(1.41908758465721e-07 3.02231822509141e-10 -2.28474701484197e-27 1.41278708670599e-07 1.00387278897804e-27 1.41593877391917e-07)
(1.82961902414509e-07 4.68006628235578e-10 4.09831471974592e-27 1.82105590902911e-07 -3.54465733410771e-28 1.8253401433552e-07)
(2.33025433819429e-07 7.13494988694751e-10 -1.51002346436679e-26 2.31905913303096e-07 -4.48190476619224e-26 2.32466203458645e-07)
(2.93613871744246e-07 1.06452149681462e-09 -7.32791078513169e-27 2.92204406758201e-07 6.88570124150316e-28 2.9290996220635e-07)
(3.64151395403423e-07 1.53377216688069e-09 -6.14444295572587e-26 3.62473883175682e-07 -2.64828676816446e-25 3.63313915671769e-07)
(4.42713056014736e-07 2.11872460823921e-09 1.80850690707052e-26 4.40858507192655e-07 1.20731995768549e-25 4.41787672214328e-07)
(5.26102653792612e-07 2.79464428195474e-09 2.03989870048916e-27 5.24240132149675e-07 6.41839394668223e-26 5.25173997865516e-07)
(6.10784115197158e-07 3.52935350335636e-09 1.70946399910232e-26 6.09147584407922e-07 -7.86133827611142e-26 6.09970426276642e-07)
(6.96027246040426e-07 4.23677186699033e-09 -1.46758865727746e-26 6.94890599249038e-07 -4.289476328684e-26 6.95461829417899e-07)
(7.91712396496154e-07 5.33586801364017e-09 -6.85404821954003e-27 7.91247110343659e-07 4.8737663808825e-28 7.91487219876774e-07)
(9.60912290720952e-07 7.59602996632474e-09 2.01881820927263e-29 9.60761780514206e-07 -7.21528429218576e-23 9.60845171744528e-07)
(1.16278525507341e-06 1.02677919593762e-08 -3.99997357069043e-29 1.16264817742143e-06 -8.90942995177466e-23 1.16272490456531e-06)
(1.34504460471732e-06 1.27041629174937e-08 -0 1.34492732924554e-06 1.18645822799408e-27 1.34499590907467e-06)
(1.51060778356268e-06 1.49553127950662e-08 -4.21421449570465e-40 1.51050412121064e-06 -1.32775888617975e-27 1.51056695576375e-06)
(1.66374424868661e-06 1.70253101729083e-08 6.61344427997358e-24 1.66365300832892e-06 -3.73636907323829e-25 1.66371073530498e-06)
(1.80661655451521e-06 1.89275585548376e-08 1.82916023183799e-23 1.80653675685893e-06 -1.98319482180052e-22 1.80658963420762e-06)
(1.94060142853057e-06 2.06628550753326e-08 4.17820770524957e-24 1.94053291607442e-06 -2.16855805382877e-22 1.94058087588493e-06)
(2.06667051990881e-06 2.22324216252709e-08 -8.50404562358609e-24 2.06661344123151e-06 4.37178653390091e-25 2.06665622199857e-06)
(2.18578454731628e-06 2.3637389621394e-08 -4.07853344208183e-30 2.18573929889131e-06 -1.0958506732117e-27 2.18577652741964e-06)
(2.29904191345933e-06 2.48822341404035e-08 6.59719315498039e-29 2.29900895994104e-06 -2.12176263279712e-27 2.29904022221056e-06)
(2.40471230832894e-06 2.59422648383712e-08 1.32614706609574e-28 2.40469211701423e-06 3.17561400642501e-27 2.40471698643239e-06)
(2.50087014941109e-06 2.679317396604e-08 1.21982878681729e-23 2.5008630318339e-06 -4.6888612219421e-25 2.50088116159411e-06)
(2.58726309009721e-06 2.74317459895268e-08 2.87826160250253e-23 2.58726916229819e-06 -6.0927465287789e-22 2.58728031221213e-06)
(2.66384339084042e-06 2.78596548233712e-08 3.03198945561348e-24 2.66386257069919e-06 -6.44982608261524e-22 2.66386661580526e-06)
(2.73063395885505e-06 2.80818153604708e-08 -1.37612406017899e-23 2.73066597769798e-06 4.58419197389834e-25 2.73066290156972e-06)
(2.78771694347805e-06 2.81059593170383e-08 4.1625835942795e-42 2.78776134776965e-06 1.714083486405e-27 2.78775124672711e-06)
(2.83525263480805e-06 2.79425777897056e-08 1.12557406617498e-39 2.83530880353584e-06 -2.88455518168039e-41 2.83529187705237e-06)
(2.87347402854805e-06 2.76044797523637e-08 1.12328350694021e-39 2.87354118942681e-06 -7.47338316783307e-39 2.87351773470873e-06)
(2.90269524133023e-06 2.71065107868099e-08 -3.57579387702776e-39 2.90277249858325e-06 7.62638562758772e-41 2.90274289545466e-06)
(2.92330195016883e-06 2.64650055416618e-08 3.4257078922187e-40 2.92338831348871e-06 -1.0280853782259e-27 2.92335301054524e-06)
(2.93574608015935e-06 2.56973081631275e-08 4.53878314887773e-39 2.93584049870161e-06 1.03506776656373e-27 2.93579999401059e-06)
(2.94052744255273e-06 2.48211860894816e-08 -1.19842313093321e-39 2.94062883504054e-06 2.18008398683455e-41 2.94058366102495e-06)
(2.93818155551911e-06 2.38543329403522e-08 9.70686243394324e-40 2.93828884510775e-06 -8.91846973687592e-39 2.93823954719694e-06)
(2.92924569200987e-06 2.28137840537781e-08 5.73926875924595e-41 2.92935782464649e-06 2.91916249183861e-42 2.92930495185717e-06)
(2.9142483625864e-06 2.17156556914962e-08 8.8366287111254e-40 2.91436432731974e-06 -9.38572642600898e-39 2.91430841841878e-06)
(2.89368664217732e-06 2.05748551751641e-08 -1.35203524251813e-39 2.89380546687207e-06 -1.4688276643611e-28 2.89374704993753e-06)
(2.86805105038899e-06 1.94054387164128e-08 2.00714611791556e-23 2.86817178694707e-06 1.46049073643535e-28 2.86811138850729e-06)
(2.83789390375998e-06 1.82209413634642e-08 3.06901503900592e-23 2.83801566240972e-06 -1.40306022408015e-22 2.83795378554309e-06)
(2.8037963379314e-06 1.70337732132188e-08 -9.8353459615058e-24 2.80391831561867e-06 -1.42789118487452e-22 2.80385542497512e-06)
(2.76633111043319e-06 1.58548322569899e-08 -1.97100730465907e-23 2.76645260942896e-06 -1.01023637685131e-25 2.76638911894338e-06)
(2.72601753183378e-06 1.46931934954445e-08 1.40308706746852e-39 2.72613796181772e-06 -6.13123577305395e-28 2.72607423242263e-06)
(2.68328729106496e-06 1.35560915804755e-08 -0 2.68340615731341e-06 1.22038220494812e-27 2.68334250157949e-06)
(2.63846286600882e-06 1.24490845262562e-08 -5.00001819525425e-29 2.63857974648231e-06 -6.07363216061225e-28 2.63851643940197e-06)
(2.59176336186911e-06 1.13764738888992e-08 9.02688401925989e-29 2.59187786677442e-06 -8.62604121757513e-28 2.59181516456872e-06)
(2.54339890399344e-06 1.0342200080708e-08 1.57550497205954e-29 2.54351066237773e-06 1.70924754267472e-27 2.54344881486576e-06)
(2.49368815821107e-06 9.34995857571221e-09 -1.52282561004893e-28 2.49379686639646e-06 -8.47392420586663e-28 2.49373608158043e-06)
(2.44290081290845e-06 8.40251727817014e-09 8.87846522006663e-29 2.44300622101992e-06 -8.47035113586921e-28 2.44294668366254e-06)
(2.39131858259402e-06 7.50181230590654e-09 5.36113504346269e-29 2.39142052432814e-06 8.33190838666833e-28 2.39136236562715e-06)
(2.3390551617233e-06 6.64866691020089e-09 -1.9640707270617e-23 2.33915349141409e-06 -6.01603363407637e-25 2.33909683764937e-06)
(2.28617805588257e-06 5.84348412303855e-09 -2.27119161771671e-23 2.28627264576495e-06 1.47815952018028e-22 2.28621760110941e-06)
(2.23272876556653e-06 5.08676304462321e-09 1.58282184789208e-23 2.23281948768968e-06 1.51671225044786e-22 2.23276616954127e-06)
(2.17879567049945e-06 4.37838454295897e-09 1.84415715999008e-23 2.17888243953006e-06 6.60044953676607e-25 2.17883091675185e-06)
(2.12441214617209e-06 3.71881078389585e-09 1.87121422449494e-28 2.12449486310902e-06 3.88507659486914e-27 2.12444524554462e-06)
(2.0695755056647e-06 3.10681921370892e-09 -1.70507597830418e-28 2.06965413043257e-06 1.57678259749741e-27 2.06960643984554e-06)
(2.01400091562141e-06 2.54319273737698e-09 -9.13885930767935e-29 2.01407529757514e-06 -5.98940446692426e-27 2.01402969268512e-06)
(1.9577074544511e-06 2.02603804746144e-09 -1.77384065931366e-23 1.95777753115333e-06 -8.63740789784463e-25 1.95773400574285e-06)
(1.89982831866819e-06 1.55806553785334e-09 -1.81715452648572e-23 1.89989380930029e-06 1.37933964797306e-22 1.89985263826808e-06)
(1.84065112809587e-06 1.13593115987369e-09 1.60265578576722e-23 1.84071191342987e-06 1.4185971094201e-22 1.84067304155936e-06)
(1.77849687445263e-06 7.67369873838525e-10 1.61709995389173e-23 1.77855238645986e-06 8.70301614720287e-25 1.77851634577467e-06)
(1.71333846324029e-06 4.45156748876152e-10 1.09393830508151e-39 1.71338837142191e-06 -2.00139201144299e-27 1.71335505515704e-06)
(1.64175867371821e-06 1.89006824894098e-10 1.07962794592813e-39 1.6418016092924e-06 6.36365646881714e-41 1.64177220838603e-06)
(1.56276644811903e-06 -1.48339147077829e-11 -0 1.56280142218906e-06 -3.74787997066448e-27 1.56277583944715e-06)
(1.46783918303675e-06 -1.207051776646e-10 1.13658062822937e-36 1.46786283634543e-06 3.16394597548596e-22 1.46784383110212e-06)
(1.34671672369636e-06 -1.52793966898917e-10 -8.11425945292906e-27 1.34672211214347e-06 2.90434268997699e-22 1.34671171181197e-06)
(1.26977230617652e-06 3.09677670364979e-11 2.36014119904685e-27 1.26977288134972e-06 -1.37838278959377e-25 1.26976832071115e-06)
(1.35944596133861e-06 -1.40760870107135e-11 8.182175167572e-27 1.35947487292106e-06 5.8767720889989e-28 1.35945477345324e-06)
(1.45496740617069e-06 -3.35013124821599e-10 -3.38449766337819e-25 1.45485931307974e-06 3.62679595657719e-24 1.4549130216925e-06)
(1.56456455759221e-06 -7.42825288274278e-10 -1.21541736896255e-23 1.5641378312293e-06 -3.50708378452853e-24 1.56435178339959e-06)
(1.66472084282171e-06 -1.32312279418387e-09 -1.00643567615018e-22 1.66365381218196e-06 4.28775531531539e-22 1.66419124730578e-06)
(1.76228966255083e-06 -1.97681029896186e-09 -9.27077705537055e-23 1.76024904962748e-06 4.26172036378748e-22 1.76127445838747e-06)
(1.85214252594947e-06 -2.71351310984547e-09 1.31598708602877e-23 1.84871062608034e-06 1.10399863837287e-24 1.8504322645047e-06)
(1.9374495724691e-06 -3.47634593022229e-09 2.2980245358347e-25 1.93220658857275e-06 -1.18012617011663e-24 1.9348327700831e-06)
(2.02647737964917e-06 -4.30239665597736e-09 -5.32696587797602e-25 2.01888687371439e-06 1.11329493613933e-24 2.02268281663217e-06)
(2.09810924549245e-06 -5.15272432573071e-09 -4.65651207603492e-23 2.08773105801336e-06 -7.5487740180504e-24 2.0929140364413e-06)
(2.13450528804397e-06 -5.91581422784685e-09 -1.93245304470999e-22 2.12125703174122e-06 3.82969153680662e-22 2.12786653268615e-06)
(2.13305163006678e-06 -6.53603386742195e-09 -1.01484970687206e-22 2.11715875231904e-06 3.63318618362386e-22 2.12508111945056e-06)
(2.09203907847604e-06 -6.97045263904141e-09 3.59745298303806e-23 2.07403499906136e-06 3.79769898439133e-24 2.0830047316226e-06)
(2.01278138892723e-06 -7.20189022972652e-09 -6.34112415943174e-25 1.99343102371671e-06 1.54355612976977e-24 2.00306747708876e-06)
(1.8892227202518e-06 -7.15366338235514e-09 1.60960752804766e-25 1.86961918409856e-06 -6.04420271215534e-25 1.87938054410984e-06)
(1.74240067653009e-06 -6.81680030781117e-09 -5.09105285769226e-26 1.72349645049154e-06 -3.72537654603902e-27 1.73291015539142e-06)
(1.60079305520549e-06 -6.33089334923627e-09 6.88684492327935e-25 1.58293866186149e-06 -1.25896609909161e-24 1.59182966650579e-06)
(1.46901213849899e-06 -5.79710633041233e-09 -9.33562745505976e-25 1.45228367443844e-06 1.72020784780188e-24 1.46061361862492e-06)
(1.34779154250298e-06 -5.24392823532978e-09 -1.0807720607393e-25 1.33220909246261e-06 2.73882180368621e-25 1.33996787786612e-06)
(1.24147501520538e-06 -4.72868860716845e-09 -3.27585420955747e-25 1.22691627661571e-06 6.34212770240386e-25 1.2341639786467e-06)
(1.15589976280604e-06 -4.29240691404855e-09 -2.72766459065813e-29 1.14212496704748e-06 4.06500152953124e-29 1.14898073170952e-06)
(1.09447314271674e-06 -4.0390342036471e-09 -1.15726084367542e-29 1.08103817867695e-06 1.41884573641222e-29 1.08772084579065e-06)
(1.02826359599816e-06 -3.92223653911217e-09 -1.51490326841846e-25 1.01530307636676e-06 2.75122629551679e-25 1.02174760333651e-06)
(9.61435596704406e-07 -3.9043088139501e-09 -7.10625014401275e-26 9.49261078908839e-07 1.33513517836933e-25 9.55313978093602e-07)
(9.01566831638652e-07 -4.01655009593999e-09 1.76479095890573e-26 8.90348521115753e-07 -4.05940428948736e-26 8.95925931667848e-07)
(8.46800965166986e-07 -4.24852346902907e-09 -1.91762276803933e-27 8.36756860722196e-07 2.73673342401924e-29 8.41750998473437e-07)
(7.8526886312793e-07 -4.49227180501698e-09 1.91145894075106e-26 7.76897776182531e-07 4.74087481152563e-26 7.81061232529237e-07)
(6.99384722792412e-07 -4.42274029791062e-09 -1.38651901993603e-28 6.93519121605699e-07 4.7588824647501e-30 6.96438439170045e-07)
(5.79569531838635e-07 -3.5260344802471e-09 -9.56005921612495e-27 5.7668487797173e-07 -8.32258588599183e-27 5.78123112292003e-07)
(4.70897217420421e-07 -2.27850961877676e-09 4.26701992598444e-28 4.6988798443243e-07 -3.01515335882591e-27 4.70392465730432e-07)
(3.91701585081678e-07 -1.44143218128208e-09 1.09705566811296e-27 3.91432440810075e-07 -4.07415032617901e-28 3.91567233128773e-07)
(3.46094997977171e-07 -9.07844812789892e-10 2.67729472208082e-29 3.46074364705457e-07 3.80455680882356e-29 3.46085114703796e-07)
(3.57516719649816e-07 -8.3951005023385e-10 -6.33120727099787e-31 3.57517752049294e-07 3.48026338712735e-32 3.57516983552509e-07)
(1.2626915449585e-05 -2.00054387750207e-07 -1.3486500807047e-31 1.2629212613745e-05 -2.89749257355237e-34 1.26281581474363e-05)
(1.319021098096e-05 -2.35037882366608e-07 3.05090920115754e-29 1.31952287166185e-05 -2.08283469427246e-30 1.31926345300816e-05)
(1.09917777007312e-05 -1.97934486723891e-07 1.35753093937933e-27 1.10233270390171e-05 3.61263720085859e-29 1.10075869640977e-05)
(7.80941251227284e-06 -1.02272089889902e-07 -2.75542708863949e-25 7.84774038295417e-06 1.01081267387922e-26 7.82860257870897e-06)
(4.21457545773833e-06 -2.2144844598519e-08 -3.96329166249384e-23 4.22842231355686e-06 -2.032008325989e-22 4.22158413728286e-06)
(1.72866672502643e-06 3.78912786577553e-09 -4.78153520296703e-23 1.7224140216993e-06 -1.59367236256049e-22 1.7255883189453e-06)
(8.02237890816447e-07 3.23764230913672e-09 1.36352930547708e-26 7.9607002980353e-07 -9.49205814157339e-26 7.99171749149059e-07)
(7.03407329771226e-07 2.36223965905269e-09 -4.93760874400101e-27 6.97857117486094e-07 -1.15304197591403e-28 7.00645206660719e-07)
(5.78817549647758e-07 1.65386057648704e-09 -1.86220364056651e-25 5.74232146100178e-07 -4.11219211416138e-25 5.76533248251532e-07)
(4.35448412194957e-07 1.07025274428442e-09 1.73035545142962e-26 4.32136934109318e-07 -3.26982272123793e-27 4.33798241194825e-07)
(3.63800491406149e-07 8.31244765702776e-10 2.72835615398109e-24 3.61063544095187e-07 -3.60811647394112e-25 3.62435437989986e-07)
(3.51428686368298e-07 8.01654692326884e-10 -4.21203203061422e-23 3.48752740052426e-07 -9.47750334534757e-23 3.50093594475165e-07)
(3.82375409607072e-07 9.55411365804274e-10 -6.25665566360425e-23 3.79282233830466e-07 -1.22073939438548e-22 3.80831073313267e-07)
(4.42718148576351e-07 1.24145254647645e-09 -5.67450343878439e-24 4.3884751971027e-07 2.59697407034871e-25 4.40785396399788e-07)
(5.27808998000273e-07 1.68324692972649e-09 2.93725769905947e-25 5.22737318768005e-07 6.0243693363744e-25 5.25275488181418e-07)
(6.35105012661808e-07 2.27858602982008e-09 -6.02933310830593e-25 6.28428109059449e-07 -1.09541507171157e-24 6.31769119714669e-07)
(7.74132245381503e-07 3.13345444404822e-09 1.863112846684e-26 7.65129996518681e-07 1.24115701173187e-26 7.6963284946116e-07)
(9.61688347887941e-07 4.4042859535783e-09 7.77230711735035e-26 9.49183523399369e-07 -5.66422476091279e-27 9.55437236202628e-07)
(1.2212012517463e-06 6.38202472372218e-09 -1.08684329327254e-24 1.20319780827272e-06 -2.18099635802212e-24 1.2121999007123e-06)
(1.57608310955367e-06 9.48307137032005e-09 -1.34392968124655e-24 1.54972943456776e-06 -2.14261699416355e-24 1.5629052951996e-06)
(2.05547520742973e-06 1.44943889662916e-08 -4.86720520350851e-24 2.01658764076202e-06 -1.06218478718396e-23 2.03602845598504e-06)
(2.69937886353373e-06 2.26565382528204e-08 -1.02144796735752e-27 2.64196270664146e-06 -2.12844310578986e-27 2.67066599463305e-06)
(3.5475940952705e-06 3.57779490177319e-08 -4.28211038919498e-24 3.46392720767633e-06 -9.47775705478682e-24 3.50575531126828e-06)
(4.63249037190315e-06 5.62597517380096e-08 1.10293675287468e-23 4.51402793067543e-06 2.73909180950987e-23 4.5732528179528e-06)
(5.97836367123628e-06 8.72613565281477e-08 -1.16651397192341e-24 5.81710281707557e-06 1.2020579687313e-25 5.89771310385625e-06)
(7.61914549461231e-06 1.33064524362031e-07 9.6770306526545e-24 7.40808261723042e-06 3.4534865587814e-23 7.51358671694054e-06)
(9.60335600981218e-06 1.98178330971092e-07 1.06053932940587e-23 9.33794779180261e-06 3.63070660425053e-23 9.47060573106102e-06)
(1.19096188258185e-05 2.85066812386837e-07 2.00904036699703e-23 1.15942884800168e-05 9.51512693894375e-23 1.17518893921724e-05)
(1.44707367398615e-05 3.9348555072396e-07 1.1041213341137e-24 1.41225037953643e-05 -2.24379759369346e-23 1.4296514082251e-05)
(1.71772671792947e-05 5.1950401477905e-07 3.75091294001198e-24 1.68272166042914e-05 2.90412020446813e-23 1.70020330433902e-05)
(1.99085525884728e-05 6.56494138915782e-07 -5.03476515570414e-24 1.96001166355182e-05 1.11312604180875e-23 1.97543139968336e-05)
(2.26431746829561e-05 8.041366093582e-07 3.18339768743855e-24 2.24180837877736e-05 3.2871911408639e-23 2.25295602806764e-05)
(2.5691297863107e-05 1.00722911380639e-06 -6.66807094486381e-22 2.55783868351863e-05 4.62529007448801e-23 2.56344636768628e-05)
(3.11317583483872e-05 1.37043383719556e-06 -2.20169636319199e-21 3.10698350179686e-05 1.21971476582796e-20 3.1099849869256e-05)
(3.76459216139701e-05 1.7955563476474e-06 -8.62266308083321e-22 3.75925070598147e-05 1.45871589405857e-20 3.76176301444734e-05)
(4.35275033365053e-05 2.18210451980238e-06 1.15737163522678e-21 4.348553261488e-05 -7.41419215278603e-23 4.35048422959861e-05)
(4.88707835839433e-05 2.534013614478e-06 -4.52518341340673e-26 4.88373368296358e-05 -7.49779572834086e-27 4.88521431915522e-05)
(5.38127983689714e-05 2.85414282565578e-06 -3.35394268397666e-21 5.37871190893326e-05 1.89352172929428e-22 5.37978954169135e-05)
(5.84234229835149e-05 3.14473369749836e-06 -9.04662489243123e-21 5.840483939974e-05 4.25666830516692e-22 5.84119393911283e-05)
(6.27469980604493e-05 3.40643003332966e-06 -1.86364392703062e-21 6.2735217626561e-05 -4.30586299930186e-22 6.27388342392905e-05)
(6.68149224023125e-05 3.63970215213831e-06 4.28035462276714e-21 6.68097817668583e-05 -2.19237899728971e-22 6.68100317641186e-05)
(7.06582452889424e-05 3.84510106413536e-06 -5.53323884225809e-26 7.06596904234461e-05 -5.58321946736299e-27 7.0656636976879e-05)
(7.43125733098516e-05 4.02368401338093e-06 7.75553194060181e-27 7.43205704276785e-05 1.55244843147823e-25 7.43142639219188e-05)
(7.77060184779252e-05 4.17100551224688e-06 3.41652256616538e-26 7.77204988393124e-05 -3.41605975674122e-25 7.77110108245678e-05)
(8.0786923283157e-05 4.28418229386209e-06 -9.02476712797573e-21 8.080773515801e-05 3.47152001757946e-22 8.07951778126475e-05)
(8.35532347000315e-05 4.36343491406716e-06 -2.19014534564364e-20 8.35801466507435e-05 4.19880435995246e-20 8.35646677600804e-05)
(8.60037707199869e-05 4.40941230196984e-06 -2.84893654957579e-21 8.6036476283128e-05 4.30784598975396e-20 8.60182579392145e-05)
(8.81395746684305e-05 4.42322686009038e-06 1.01572207172414e-20 8.81777003124512e-05 -3.3839452718359e-22 8.81569536836959e-05)
(8.99635826144658e-05 4.40638817195964e-06 2.20723047576537e-26 9.00066935947181e-05 1.15381014827693e-26 8.99836564395086e-05)
(9.14811959071626e-05 4.36078684498685e-06 -1.95962776119958e-26 9.15288063368421e-05 5.52422096487049e-28 9.15037372510465e-05)
(9.27001215205772e-05 4.28862690571566e-06 -2.06795060383486e-37 9.27517048022943e-05 -3.88096543119559e-36 9.2724878440873e-05)
(9.36306194030337e-05 4.1923793731481e-06 -1.14786505355046e-26 9.3685621695265e-05 2.35334497302505e-28 9.36573218287228e-05)
(9.42852023405391e-05 4.07470116716103e-06 1.73861052708013e-27 9.43430564107733e-05 -7.14601733750768e-27 9.43135695249599e-05)
(9.46784547060747e-05 3.93836442597371e-06 2.15102228581388e-26 9.47385942764822e-05 -1.69454522189122e-25 9.47082024753595e-05)
(9.48264570993594e-05 3.78617108024802e-06 -1.16641837737715e-26 9.48883296421926e-05 1.77378257738488e-25 9.48573050328973e-05)
(9.4746381515158e-05 3.62088370381909e-06 -1.78867858871319e-37 9.48094607029364e-05 -4.48092838066418e-36 9.47780592123406e-05)
(9.44554364816975e-05 3.44514412596118e-06 -1.74776283184058e-38 9.45192284965824e-05 -7.87737519214645e-40 9.44876876408909e-05)
(9.39705188752378e-05 3.26143906590225e-06 -1.66527423140117e-27 9.40345669856146e-05 4.84350275000802e-26 9.40031036883833e-05)
(9.33075275859985e-05 3.07206837149746e-06 7.12384298436175e-28 9.3371407316979e-05 -2.46942022674365e-26 9.33402205374078e-05)
(9.2482189960385e-05 2.87918725171743e-06 -5.57573653840387e-21 9.25455038391491e-05 -2.35670460712013e-26 9.25147782493143e-05)
(9.15121698628487e-05 2.68484785996905e-06 -7.56648031869743e-21 9.15745600701825e-05 -6.77823678242765e-20 9.15444595546272e-05)
(9.04160267851139e-05 2.49091822688318e-06 3.64683924123795e-21 9.04771855128175e-05 -6.81748747439933e-20 9.04478488395815e-05)
(8.92120277971347e-05 2.2990296656798e-06 5.49567403796062e-21 8.92717020803052e-05 2.81679640418414e-23 8.92432406449497e-05)
(8.79167252763837e-05 2.11053902765299e-06 1.1300822837986e-26 8.79747150624716e-05 -4.00262405933079e-27 8.7947214217589e-05)
(8.65438755060315e-05 1.92653082437145e-06 4.93703484276262e-27 8.66000256822184e-05 8.23378771842312e-27 8.65735488168746e-05)
(8.51037589193811e-05 1.74784677914067e-06 -1.59449382630901e-26 8.51579464774072e-05 -4.27610827437481e-27 8.51325414244275e-05)
(8.36033886945732e-05 1.57515109535013e-06 6.71835065922754e-27 8.36555045999902e-05 1.59669354585585e-25 8.36312122062468e-05)
(8.2049523277164e-05 1.4090387435676e-06 1.133716485831e-39 8.20994698410864e-05 -3.15597294516163e-25 8.20763268626358e-05)
(8.04523236797139e-05 1.25005374116236e-06 4.06116944234693e-37 8.05000310361921e-05 1.55899616115975e-25 8.04780597531128e-05)
(7.88204283443379e-05 1.09859691857305e-06 6.35222874876206e-38 7.88658521353632e-05 1.56850225276378e-25 7.88450646863844e-05)
(7.71627848086211e-05 9.54944539721436e-07 2.77373594589188e-26 7.72059116666158e-05 -5.72995294965684e-25 7.71863036827556e-05)
(7.54830706775039e-05 8.19222272405517e-07 5.61325120021369e-21 7.55238956435739e-05 1.7347179948193e-22 7.55054614024788e-05)
(7.37834243560359e-05 6.91501135729073e-07 6.20603004120581e-21 7.3821943750103e-05 6.58830455069006e-20 7.38046747085519e-05)
(7.20652422325562e-05 5.71852558296329e-07 -4.81727842764249e-21 7.21014553560654e-05 6.45342276488199e-20 7.20853462677078e-05)
(7.03312549320486e-05 4.602672845935e-07 -5.32570755575333e-21 7.03651681107226e-05 -1.91190738303177e-22 7.03502044461652e-05)
(6.85826843464877e-05 3.56799964270765e-07 2.73226816819312e-27 6.8614308092943e-05 1.28090295552665e-25 6.86004837742495e-05)
(6.68192182317453e-05 2.612980820846e-07 -7.7546128717368e-26 6.68485633495002e-05 -2.91696558495107e-25 6.68358576121488e-05)
(6.50320822917823e-05 1.73892566704877e-07 -4.05581187947482e-27 6.50591388527488e-05 2.50735124516783e-25 6.50475634220338e-05)
(6.32214645329196e-05 9.43509943885759e-08 5.13837957885007e-21 6.32462119889357e-05 2.49805471599255e-22 6.32357519518736e-05)
(6.13601976201202e-05 2.31353380841062e-08 5.23950143863722e-21 6.1382581444209e-05 5.92383514212438e-20 6.13732841875923e-05)
(5.94566873799658e-05 -4.01762995512043e-08 -4.71042955610808e-21 5.94766246629058e-05 5.71374649910948e-20 5.94684844887772e-05)
(5.7458472051778e-05 -9.43367332250502e-08 -4.75110392322553e-21 5.74758059860328e-05 -2.56804480431496e-22 5.74689527988476e-05)
(5.53629350794189e-05 -1.40157788637955e-07 -4.99630673646073e-28 5.53774135181625e-05 7.02812845019768e-25 5.53718787538186e-05)
(5.30636473205372e-05 -1.74558979950247e-07 -2.28043317443464e-26 5.30748260690925e-05 -1.4580947845711e-27 5.30709456839383e-05)
(5.05251580015511e-05 -1.98852195122037e-07 3.80424461987973e-21 5.05323382862819e-05 2.44378709330188e-22 5.05302623803522e-05)
(4.74813778803903e-05 -2.05800243350678e-07 3.46224506693997e-21 4.74833204015276e-05 -5.40698579187771e-20 4.74839134841095e-05)
(4.35929325141534e-05 -1.95839787115569e-07 -3.39018562624617e-21 4.35863480072761e-05 -5.11524784103055e-20 4.35906995881799e-05)
(4.11257603115147e-05 -1.63729796344851e-07 -3.0969707561209e-21 4.11075470003168e-05 -1.89366130131855e-22 4.11181878354207e-05)
(4.40123712492384e-05 -1.87880575865996e-07 2.85836821533593e-23 4.39744786851367e-05 1.57664114507879e-22 4.39938680711952e-05)
(4.71200833922346e-05 -2.50597526371127e-07 -7.97266598026723e-24 4.7028201796303e-05 -3.0336913289213e-22 4.7074976995901e-05)
(5.06826086372931e-05 -3.30293091957057e-07 7.08617950281046e-21 5.05001732712845e-05 6.40621308194066e-22 5.0591393421213e-05)
(5.39751018689477e-05 -4.29409790683295e-07 8.73443114219207e-21 5.36510885431421e-05 -9.83108970913383e-21 5.38131033528679e-05)
(5.72029028396749e-05 -5.37586788415499e-07 -5.79078178219646e-21 5.66827508737846e-05 -1.09256780418858e-20 5.69425192144713e-05)
(6.02103635615844e-05 -6.52623779920049e-07 -7.38230395996281e-21 5.94320965947278e-05 -6.21455168711722e-22 5.98210294218233e-05)
(6.30971842714711e-05 -7.68173718365449e-07 -9.31204886941254e-24 6.19985708714874e-05 1.65363172361202e-22 6.25480341807485e-05)
(6.61200703285278e-05 -8.89006921731436e-07 5.46282748127083e-23 6.46255404772506e-05 -1.54836169309307e-22 6.5373655866212e-05)
(6.85986374040071e-05 -1.00763936104546e-06 1.39287905496779e-20 6.6653116268928e-05 5.5058855900188e-22 6.76279880197579e-05)
(6.99470255150943e-05 -1.10958877655442e-06 -6.80895145192387e-20 6.75487817040366e-05 1.6858062814778e-19 6.87515788935715e-05)
(7.00610353064136e-05 -1.1882221252064e-06 -8.86498605490481e-20 6.72537644691642e-05 1.4871902193089e-19 6.86626098587228e-05)
(6.8869360523015e-05 -1.23855651283834e-06 -1.03816776219968e-20 6.57413540105758e-05 -9.75691692774898e-22 6.7311967971993e-05)
(6.63972886070955e-05 -1.25877906012432e-06 1.01473563417615e-22 6.30701495591191e-05 -2.86106470159508e-22 6.47411941012084e-05)
(6.2443241632375e-05 -1.23861838135443e-06 1.40805356232651e-22 5.90851367971597e-05 -2.46417622356639e-22 6.0771944650323e-05)
(5.76843054054944e-05 -1.17785782698947e-06 -1.41390572696666e-22 5.44398405408158e-05 2.80195059500057e-22 5.6069401870015e-05)
(5.305695326221e-05 -1.09421752698407e-06 -8.47607067843907e-23 4.99852509750045e-05 2.32478143743747e-22 5.15278384330508e-05)
(4.87317883135264e-05 -1.00150935689638e-06 1.60217303961969e-22 4.58510245591691e-05 -3.18569061924755e-22 4.72977478447778e-05)
(4.47420894682842e-05 -9.05618247497051e-07 -6.83602882874597e-23 4.20571662502474e-05 1.0400749538216e-22 4.34056455671884e-05)
(4.12369235809362e-05 -8.15422467190497e-07 4.04445627999925e-23 3.87306624941682e-05 -1.21653871972913e-22 3.99895727917109e-05)
(3.84133213459556e-05 -7.38268177311774e-07 -3.80982230492879e-24 3.60484022195543e-05 -1.82115566416251e-25 3.72366880929387e-05)