/*--------------------------------*- C++ -*----------------------------------*\
  =========                 |
  \\      /  F ield         | OpenFOAM: The Open Source CFD Toolbox
   \\    /   O peration     | Website:  https://openfoam.org
    \\  /    A nd           | Version:  7
     \\/     M anipulation  |
\*---------------------------------------------------------------------------*/
FoamFile
{
    version     2.0;
    format      ascii;
    class       volVectorField;
    location    "20000";
    object      U;
}
// * * * * * * * * * * * * * * * * * * * * * * * * * * * * * * * * * * * * * //

dimensions      [0 1 -1 0 0 0 0];

internalField   nonuniform List<vector> 
15600
(
(0.0317103986190733 -8.69739030432974e-06 0)
(0.0372789602043206 -0.000141232634990184 -8.27674624008224e-25)
(0.0373860928553295 -0.001627670479316 8.30816310403995e-25)
(0.0238184245660541 -0.00259721686960478 4.01761211587574e-20)
(0.00609426199003177 -0.00133990690205873 1.18480942090734e-23)
(-0.00943437404050979 0.00262197708481834 -1.22797012291608e-21)
(-0.0119861652139356 0.00457111134412641 1.58712919941062e-18)
(-0.00966847197116773 0.00439640079861063 2.91157163284371e-23)
(-0.0082369418844729 0.00416134034579529 -2.10632923766034e-18)
(-0.00688355595334293 0.00371624244588488 0)
(-0.0060742840385708 0.00339325331288246 -5.2512045599354e-18)
(-0.00557933786886087 0.00314238491935598 -3.56959282293691e-22)
(-0.00552247256075639 0.00305838344152478 -6.36393825674126e-18)
(-0.00561588827076794 0.00304932949208479 0)
(-0.00586420095051304 0.00312569352577155 0)
(-0.00608858284572201 0.00319961895200371 -8.05697709641052e-18)
(-0.00640370338934274 0.00332817510233137 -5.55903246381483e-23)
(-0.00681037094039557 0.00351469907346705 0)
(-0.0073792842455281 0.00379069623289589 -2.38544836611951e-21)
(-0.00804015373557399 0.00409265366973376 -5.13810955178225e-18)
(-0.00883924007767788 0.00440312723425806 -1.08548154154218e-17)
(-0.00979594117995055 0.00470855452771595 -2.78364962840518e-21)
(-0.0108858272435895 0.00496899624003881 2.96880071116291e-21)
(-0.0120411963666604 0.00512363430724452 -3.05784091178534e-21)
(-0.0132169565163337 0.00512515629342231 0)
(-0.0145137925105623 0.00500655101639249 -7.01170352892451e-18)
(-0.0159392079192546 0.00479120889615234 7.08984750695962e-21)
(-0.0173571421965053 0.00443277849385744 7.44882258706345e-21)
(-0.0186815405477697 0.00391215261552316 -3.92487978800735e-18)
(-0.0198443256112411 0.00323033883510831 4.02958552841064e-18)
(-0.0209184194099625 0.00241580978857492 -4.12388030883292e-18)
(-0.0213498804706128 0.00143526307191442 -2.09286639727954e-18)
(-0.0234402526893622 0.000481143130506356 7.5828969733597e-23)
(-0.0280906655932644 0.000100891797014717 -8.27672661149825e-21)
(-0.0318451221571099 9.81299407297577e-05 0)
(-0.0343345149708246 9.7194084043498e-05 0)
(-0.0362004173927301 9.64354454379782e-05 0)
(-0.0375858704078113 9.53774435238791e-05 6.61146927098906e-32)
(-0.0386236153535956 9.37271724672548e-05 -9.56375269618322e-16)
(-0.039378410862303 9.15139860021784e-05 -9.89997545659158e-16)
(-0.0398976594184607 8.87269862349576e-05 4.87311693320581e-21)
(-0.0402106589160969 8.54027864096824e-05 3.70469236928097e-32)
(-0.0403390382243856 8.15728321426868e-05 5.32204496808156e-21)
(-0.0402991520110767 7.72778519390925e-05 -1.08020165209804e-20)
(-0.0401050175038441 7.25954696777877e-05 -1.6094842589086e-22)
(-0.0397694534081267 6.7591023941418e-05 -1.17351403370144e-15)
(-0.0393042776198755 6.23287084030428e-05 -1.21246149571157e-15)
(-0.0387206573367988 5.68658702503784e-05 0)
(-0.038029249875705 5.12609569434438e-05 0)
(-0.0372404256401778 4.5567081311378e-05 0)
(-0.0363642871104154 3.98360498882421e-05 -9.55113012660579e-32)
(-0.0354107368046694 3.41142702173488e-05 0)
(-0.0343894085936457 2.84445532363237e-05 2.0086424203703e-31)
(-0.0333096150860726 2.28633171544245e-05 -2.05748149157796e-31)
(-0.032180273104253 1.74030968546966e-05 0)
(-0.031009794478026 1.2088539641463e-05 -1.07696455309163e-31)
(-0.0298060204286881 6.94126077391682e-06 0)
(-0.0285762213329145 1.97622630849043e-06 -1.12410247517373e-31)
(-0.0273270682908092 -2.79471400059052e-06 0)
(-0.0260650252252612 -7.35657287219079e-06 0)
(-0.0247963476338439 -1.17020562695519e-05 -1.68368728947619e-15)
(-0.0235267549328258 -1.58283278566181e-05 -1.71416815844671e-15)
(-0.0222613059366298 -1.97383116430106e-05 1.23572505435789e-31)
(-0.0210042797281638 -2.34377985490742e-05 0)
(-0.0197592422878145 -2.69341296037728e-05 0)
(-0.0185291717682785 -3.02347246095721e-05 0)
(-0.017316724071352 -3.33445977137117e-05 4.55921673260389e-21)
(-0.0161248265285501 -3.62621297344592e-05 -9.18769513355777e-21)
(-0.0149561337613283 -3.9001755691882e-05 4.62846878222122e-21)
(-0.0138130528354626 -4.15661927567804e-05 4.75296080640814e-21)
(-0.0126973723855857 -4.39776794447789e-05 -4.75615131815354e-21)
(-0.0116105883391758 -4.62359087691446e-05 0)
(-0.0105540597763529 -4.83588423803357e-05 2.02016273732059e-15)
(-0.0095298140688859 -5.03369235318847e-05 2.03634270499305e-15)
(-0.00853883741430302 -5.22066390717231e-05 1.00966878164194e-20)
(-0.00758383627713924 -5.39356257976601e-05 -1.01025584221513e-20)
(-0.00666460829780768 -5.55993732796968e-05 -1.03151607419918e-20)
(-0.00578579641884911 -5.71024689152614e-05 1.03207173431181e-20)
(-0.00494579355129493 -5.85977560644129e-05 0)
(-0.00415432138582639 -5.98740242277687e-05 2.1799244101485e-15)
(-0.00340592031355305 -6.12514508997848e-05 2.18754734516364e-15)
(-0.00272219009196979 -6.22654724170653e-05 1.56811833892392e-31)
(-0.00208891950778861 -6.36021493169201e-05 1.58212092831147e-31)
(-0.00155726593400723 -6.41879951012893e-05 0)
(-0.00109721299903946 -6.55551692468553e-05 0)
(-0.000834364996485079 -6.52143355534325e-05 0)
(-0.000716286805723716 -6.58143794189299e-05 0)
(-0.00128226770653856 -7.65815637250282e-05 1.45016679691433e-18)
(-0.00119506539041115 -0.000120320610693272 0)
(-0.000360131988638685 -5.49021539111408e-05 -5.29059164137746e-23)
(0.000600231525445512 0.00010068304270048 -1.1660291070029e-17)
(0.00199922352337828 0.000437166633086857 2.00651310051565e-15)
(0.00359874385128333 0.000945261588425015 1.95953629337591e-15)
(0.00553709723541045 0.00168901124153826 0)
(0.00774511007202337 0.0026830230615729 -2.17253521468803e-17)
(0.0103932010339422 0.00400975920542539 2.10293737913796e-17)
(0.01354224153808 0.00568707574887876 2.01810304255001e-20)
(0.0170170540397043 0.00761712191481097 7.75638287321377e-15)
(0.0207096382069458 0.00971419684374329 7.28367171489559e-15)
(0.024496542126709 0.0118724369119227 1.77460802815166e-17)
(0.0282700272439904 0.013980345690328 -1.68557360362963e-17)
(0.0317349025751861 0.0158420854569644 -1.59359451663297e-17)
(0.0345865131365353 0.0173716337090723 0)
(0.0370792582313482 0.0187984903212562 -3.39054687502638e-21)
(0.0395491341093643 0.0203041048274313 -1.30297383280087e-17)
(0.0420249897444528 0.021921240399654 1.19818641623501e-17)
(0.0447716172588961 0.0237923803590306 -1.40240279460606e-21)
(0.048017054817409 0.0260597351604159 -1.21284513490769e-21)
(0.0527624373672395 0.0291036005285879 -4.93871830366375e-22)
(0.0587675553042539 0.0322342227886967 4.58185941178429e-22)
(0.0650957687087385 0.0345980810767044 -5.77032218353871e-18)
(0.0719517838871545 0.0359457365685037 -4.35030180017724e-18)
(0.0792191975250153 0.0357424034167184 -5.31795105102416e-23)
(0.085825339193921 0.0329016277201527 -5.757871544828e-21)
(0.0881515855216003 0.0259252716437219 -2.13199324109163e-23)
(0.0785401496908377 0.0151210316001174 5.07603226613151e-19)
(0.059309030832066 0.00637542542334725 3.03570965884527e-19)
(0.0440982355407154 0.00198519721422029 -1.16816213364094e-19)
(0.0306227451006152 0.000134433032387474 -5.2193855438832e-21)
(0.0276361497452897 -7.7868011958379e-06 0)
(0.097415377552901 -0.000134378314271395 0)
(0.112311394268239 -0.000511720195619992 1.27281453909744e-24)
(0.112982840586173 -0.00472476316411608 -1.27733921443448e-24)
(0.0765807125429597 -0.00767384123083771 -6.15726469874882e-20)
(0.0250506932002073 -0.00429398537581427 -4.69055884773168e-19)
(-0.0227542112782691 0.00720666183921834 -3.67931535673283e-18)
(-0.0332902920117725 0.0131683066035684 -2.44485769131611e-18)
(-0.0276210271937571 0.0128083414950176 0)
(-0.0237011831064816 0.0121809110751148 1.87447304697377e-21)
(-0.0199738977050292 0.0109318439254233 -3.63869323014491e-18)
(-0.0177365421569198 0.0100236440495917 4.05378994782317e-18)
(-0.0164035301680203 0.00932610519915198 -1.68890415699463e-15)
(-0.0162926201584564 0.00909983831789039 -1.86466885737957e-15)
(-0.0166221779131233 0.00909087034289838 0)
(-0.0173797602836288 0.00932257336209519 0)
(-0.0181017022988232 0.0095580164534695 6.20016092846357e-18)
(-0.0190902985858037 0.00995855635276056 1.47424886149959e-21)
(-0.0203587568931196 0.0105378230979774 -3.41345208106616e-21)
(-0.022081462180488 0.0113762485746685 -7.44422385452065e-18)
(-0.0240890350930953 0.0122964368627089 7.85910979955235e-18)
(-0.0265019537007294 0.0132420996878787 -1.05892358733498e-22)
(-0.0293637781018405 0.0141651841078802 0)
(-0.0326003034358068 0.0149428162492705 0)
(-0.0360380047356872 0.0154008645808913 3.8568595498326e-23)
(-0.0395881368460047 0.0154143676495179 0)
(-0.0434786375264032 0.0150634824605061 1.05077205929677e-17)
(-0.0476857497329136 0.0144001283473795 -1.05764983282918e-20)
(-0.0518565762227843 0.0132983480287724 1.12584724929555e-17)
(-0.0557674875003321 0.0117104541997288 -1.13878674176713e-20)
(-0.0592680647904555 0.00964885324274088 -5.92757685963732e-18)
(-0.0624259309553358 0.00717671488883661 6.07124620999196e-18)
(-0.0647222712914566 0.00434044992388411 3.06441319369463e-18)
(-0.0711977551075213 0.00164461942722289 0)
(-0.0829309512600512 0.000508865140748944 1.06431148508999e-15)
(-0.0921641850031515 0.000365871676045218 1.08602086513651e-15)
(-0.0982873622340609 0.000260550372383298 -1.25024953710055e-20)
(-0.102796251992078 0.00019477845011396 1.24578887967787e-20)
(-0.106074167672811 0.000146982985434127 6.55001269223131e-21)
(-0.108448510124856 0.000110220908560685 2.54410911673854e-15)
(-0.110084880526033 8.02335182176057e-05 2.61310824747379e-15)
(-0.111102682123924 5.46776513145887e-05 -1.40146987676564e-20)
(-0.111577728035585 3.21268454022928e-05 7.10624914787929e-21)
(-0.11156679111888 1.17598529963819e-05 7.53542795871107e-21)
(-0.111113985505788 -6.86172618999129e-06 -7.53281951192454e-21)
(-0.110257542305333 -2.39227134244015e-05 -1.14514952795711e-31)
(-0.109032395087086 -3.9566825410778e-05 4.55164348645973e-15)
(-0.107470706673506 -5.38884027239008e-05 4.69110357239719e-15)
(-0.105602781210106 -6.69672126881701e-05 2.35141431286358e-22)
(-0.103457457499946 -7.88483936511162e-05 -8.71451387162093e-21)
(-0.101062638825892 -8.95720425068438e-05 0)
(-0.0984453613801308 -9.91648366062319e-05 1.35883076512292e-31)
(-0.0956319437331148 -0.000107658151096338 0)
(-0.0926478311846046 -0.000115084951112986 4.9844028299335e-21)
(-0.0895174803209648 -0.000121489327022742 -4.99697909231093e-21)
(-0.0862641746208717 -0.000126919453762189 0)
(-0.0829097964090719 -0.000131440060649057 1.54676968751175e-31)
(-0.0794746959008435 -0.000135112145883107 0)
(-0.0759777208047754 -0.000138003258053933 1.62190264019734e-31)
(-0.0724362793026589 -0.000140162755767958 7.19408378212675e-22)
(-0.068867182644678 -0.000141605804150106 -7.21718779570526e-22)
(-0.0652865493114491 -0.000142376293562717 2.44658621205863e-15)
(-0.0617090462097058 -0.000142537946581528 2.49874944483209e-15)
(-0.0581476059038709 -0.000142172040688141 -1.80542091366237e-31)
(-0.0546131935341359 -0.000141361471907242 3.1876861287185e-21)
(-0.0511150070141154 -0.000140179060108404 -6.44592087501683e-21)
(-0.0476608423987035 -0.000138675667683676 3.25839551297691e-21)
(-0.0442578316080408 -0.000136860394106592 0)
(-0.0409136502535684 -0.000134713542018461 0)
(-0.0376352458636802 -0.000132287758450621 0)
(-0.0344288594235127 -0.000129600943877168 -2.04470066519665e-31)
(-0.0312992234618548 -0.000126740230395709 0)
(-0.0282504049864873 -0.00012369011666743 -1.45733176377982e-20)
(-0.0252862884902756 -0.000120470953897854 -3.01482748180517e-15)
(-0.0224122390929348 -0.000117024659068412 -3.07004923643776e-15)
(-0.0196312954652828 -0.000113435640723236 0)
(-0.0169504625154845 -0.000109577483278037 -1.53973343786697e-20)
(-0.0143700411333379 -0.000105639814289878 -1.54663363820325e-22)
(-0.0119021025657651 -0.000101248679576659 3.14219738406429e-20)
(-0.00954378420320046 -9.67854531441316e-05 1.48899260102678e-22)
(-0.0073201717634945 -9.14800778969045e-05 -3.29569304939886e-15)
(-0.00521937302982004 -8.61380121867664e-05 -3.35371777400869e-15)
(-0.00329676086314724 -7.90356301833982e-05 -1.41433538564776e-22)
(-0.00152027029229326 -7.18439509722363e-05 1.65557936604377e-20)
(-2.03563127898591e-05 -6.0343847845025e-05 0)
(0.00126961427891342 -4.8030691787744e-05 3.39902374649111e-20)
(0.0020291956331204 -2.41341160420812e-05 -3.05502255292995e-15)
(0.0023532572455239 1.3560248001091e-05 -3.05660468416365e-15)
(0.000988719464360329 5.41903456011414e-05 3.45932598323737e-20)
(0.00137410387880386 1.95834733267851e-05 0)
(0.0036902511108841 0.000321104473337426 -3.57591388390663e-17)
(0.00644429152134734 0.000893683512623363 3.55030954191385e-17)
(0.0102908651710249 0.00196484118195672 -5.95291555856195e-15)
(0.0146988726861137 0.00352144389813471 -5.76597649458195e-15)
(0.0199595818839847 0.00572360926412224 3.29006248804664e-20)
(0.0259292428559262 0.00861650578532514 3.25985513439389e-17)
(0.033000998711293 0.0124062310209387 -3.15230863831163e-17)
(0.0413225455152597 0.0171359903230507 3.02874138171475e-17)
(0.0505019431488746 0.0225549952637617 -1.15257309047142e-14)
(0.0602776432553009 0.0284336186844074 -1.09502270942028e-14)
(0.0703568038854108 0.0344922330570621 -2.64411909692228e-17)
(0.0804811639152155 0.040434632394111 1.10180338758362e-22)
(0.089955214009291 0.0457540811480734 2.37520593770391e-17)
(0.0980137164796239 0.0502228084592181 0)
(0.105127860739564 0.0544084830019418 2.09660936747485e-17)
(0.112093140046838 0.0587937587046214 -1.95005491562014e-17)
(0.119062147049157 0.0635009579726366 -1.79745153221174e-17)
(0.12668189245267 0.068907959595156 -1.63487653281615e-17)
(0.135570330369145 0.0754092618346889 0)
(0.148206312425242 0.0839945794531167 0)
(0.164390434264585 0.092864035892027 -1.07782357991425e-17)
(0.182019581199651 0.0997089303463909 2.85885168164591e-22)
(0.201381341461102 0.103684450344548 6.56001588519857e-18)
(0.222228867002693 0.103253508411021 -1.81270171504953e-22)
(0.241905506287279 0.0953568715870103 -2.14470087036117e-18)
(0.251098742040248 0.0757918911915615 2.35713256312687e-23)
(0.22933126403588 0.0451941238918681 8.95158013621104e-22)
(0.179664815310518 0.0197447337973687 5.01347876676912e-23)
(0.136791295769424 0.00645095860422061 1.78522239445186e-19)
(0.0983609305031346 0.000630191181801887 2.93967778406779e-23)
(0.0878294944377204 -4.52623757862903e-05 -4.0409603059872e-24)
(0.166851537113482 -0.00036652503009356 0)
(0.18923872249056 -0.000979625967237647 0)
(0.190760230068147 -0.007703439199891 1.62631008724932e-24)
(0.135540597616234 -0.012936986452566 6.31635703840854e-20)
(0.0514997261594675 -0.00818408106127635 4.12662804230822e-16)
(-0.0304616803163869 0.0103291551595008 7.91936742681041e-16)
(-0.0522589789149138 0.0207437126515 2.52968153481984e-18)
(-0.0445488985970301 0.0205502664732756 0)
(-0.0384997654300432 0.0196769508423732 3.36459093035883e-18)
(-0.0326795517216609 0.0177890837838947 1.55441995768305e-21)
(-0.0291675442679962 0.0164107001897627 -1.25906827107313e-22)
(-0.0271153150360984 0.0153710660619926 1.75773643189027e-15)
(-0.0269984627795316 0.0150565597339777 1.92893765880703e-15)
(-0.0276075739733087 0.0150905559363443 0)
(-0.0288915406917713 0.0154950657500439 -5.96272797781819e-18)
(-0.0301602684311292 0.015927781608139 3.12147458857986e-21)
(-0.0318702018131984 0.0166376663700253 -5.18058066234492e-21)
(-0.0340548165851377 0.0176539696815788 -4.28725694560183e-23)
(-0.036960974264865 0.0190840090923189 7.64258489564436e-18)
(-0.0403532614659024 0.0206554120791399 3.90788614365673e-21)
(-0.044410397211229 0.0222657480071134 8.46262763741266e-18)
(-0.0491864428202218 0.0238215738619552 0)
(-0.0545561859721451 0.0251140533331688 9.29426570134958e-18)
(-0.0602665809752159 0.0258708211242796 -1.94069223647745e-17)
(-0.0662188186555875 0.0259095139020496 -9.81460473992617e-21)
(-0.0727016507229106 0.025328725800035 -2.09518840307966e-17)
(-0.0796201605761064 0.0241894957890977 -1.08048174296232e-17)
(-0.0864542501420573 0.0223091028927662 -2.21841812145139e-17)
(-0.0928802036641707 0.0196262618517972 -2.2178636169115e-20)
(-0.0987042147123857 0.0161719403102658 -1.40023718972401e-22)
(-0.104009850642694 0.0120591049300597 -5.84848099531265e-18)
(-0.10894382862408 0.00747896355651471 -5.93409205023657e-18)
(-0.119544331127364 0.00314895791857893 -1.14721568080364e-20)
(-0.136059793913215 0.00128484204584702 -1.01242284735435e-15)
(-0.148728699870052 0.000920184738081816 -1.01060377348997e-15)
(-0.157076278104037 0.000643872019206137 0)
(-0.163082331602008 0.000470176105754625 0)
(-0.167315542849578 0.000342813871039722 -1.2128551030655e-20)
(-0.170231717599449 0.000244349688221308 -1.09385462765144e-15)
(-0.172068865781343 0.000163564935011641 -1.1130021032797e-15)
(-0.17299706065712 9.44916909409137e-05 0)
(-0.173126843911184 3.34188222897009e-05 0)
(-0.172541867162292 -2.16266186775987e-05 0)
(-0.171310362576001 -7.16977756659822e-05 0)
(-0.169491803966189 -0.000117347981084021 -7.24591617928867e-21)
(-0.167139493313091 -0.000158984945528229 -2.62324984071775e-15)
(-0.164302401906116 -0.000196878630294854 -2.68458226582627e-15)
(-0.161026437162037 -0.000231248546693703 0)
(-0.157355069124284 -0.00026223350553742 0)
(-0.153330049261022 -0.000289953733572334 0)
(-0.148991551619629 -0.000314501206143537 0)
(-0.144378372445109 -0.000335977855796487 0)
(-0.139527756048037 -0.000354492889602326 0)
(-0.13447526569927 -0.000370181491701219 4.61965572657169e-21)
(-0.129254559943315 -0.000383192556955715 -4.63652182630333e-21)
(-0.123897138119869 -0.000393709836286744 0)
(-0.118432225097624 -0.000401909440938363 0)
(-0.112886868448717 -0.000407972887603259 -1.27776456287755e-21)
(-0.107286164755271 -0.000412031700309319 6.29590949298177e-22)
(-0.101654281786497 -0.000414148814771 6.57938745658148e-22)
(-0.0960142040214268 -0.000414457937948728 6.85999812783402e-22)
(-0.0903867594892024 -0.000413144183802446 -6.89857028310618e-22)
(-0.084790276284797 -0.000410430831577245 0)
(-0.0792403465303942 -0.000406540426507118 0)
(-0.0737501565796868 -0.000401663096979042 0)
(-0.0683310643961245 -0.000395924147210638 0)
(-0.0629936805516148 -0.000389344238818277 0)
(-0.0577492514070053 -0.000381896988282113 0)
(-0.0526079060437459 -0.000373714056873128 0)
(-0.0475787374104977 -0.000364867643847604 0)
(-0.0426687558132929 -0.000355558115983495 1.34816946652371e-20)
(-0.0378842011626465 -0.000345759780798599 -2.72909028985626e-20)
(-0.0332312210072223 -0.000335494704117994 -1.58327313942385e-22)
(-0.0287179217903071 -0.000324658297305169 1.405369378963e-20)
(-0.024349340579801 -0.000313395984656543 1.44480778504669e-20)
(-0.0201359221047689 -0.000301487618178415 -1.45343984542773e-20)
(-0.0160791156981274 -0.000289228378382299 0)
(-0.0121969584714395 -0.000275910641857696 0)
(-0.00848686917817881 -0.000262106194096598 1.53824369589983e-20)
(-0.00498571795103762 -0.000246389116403765 -1.54699564338065e-20)
(-0.00167917787520441 -0.000229940016083615 -1.58377789108139e-20)
(0.00135278607609393 -0.000209429553292881 4.79289139426901e-20)
(0.00414954182826899 -0.000187204899938667 -3.20571988854862e-20)
(0.00652557199291852 -0.000155013854598481 0)
(0.00855916793685237 -0.000117248616870841 -3.29467709154499e-20)
(0.00979619960877333 -5.14895316809679e-05 2.94696058286719e-15)
(0.0103122957976103 5.47292110258715e-05 3.00951634968572e-15)
(0.00852070046581134 0.000239555198668526 2.7571689866463e-22)
(0.00933919774932118 0.000421406246490371 -8.7507669480377e-18)
(0.0129346228359605 0.00117595735415282 1.73329318872182e-17)
(0.0173253707899424 0.00237029555982565 -1.70977739191652e-17)
(0.023239740670349 0.00431692186601814 2.8012526875708e-15)
(0.0300308115315439 0.00700744172877184 2.72444901558876e-15)
(0.038039437744936 0.0106575212417389 0)
(0.0471094305578519 0.015340503851054 -3.12498153115714e-17)
(0.0577609106643397 0.0213287391702725 3.01731598869987e-17)
(0.0702117661908345 0.0286679338712182 2.90617765465258e-17)
(0.0839765326221558 0.0370152656244509 2.78514541473603e-17)
(0.0986992874433631 0.0460444896809783 -2.67063961916207e-17)
(0.113980163371763 0.0553616966836096 2.55373256318993e-17)
(0.12945818319746 0.0645434410107883 -1.19286927077049e-20)
(0.144187013041177 0.0728899535783692 1.1231355978149e-20)
(0.157065349846858 0.0800844063559196 -2.19712013177362e-17)
(0.168566370894276 0.086869060157432 -2.07060116112e-17)
(0.179754366419488 0.0939197888942754 1.93609415169827e-17)
(0.190935050450706 0.101466887226262 -4.42971251777715e-21)
(0.203030670476612 0.110048082439233 1.63676411685201e-17)
(0.216992817541139 0.120252355131877 0)
(0.236368419884634 0.133432445606524 -7.48307965757005e-22)
(0.261330359518841 0.147071063290377 2.17540108639024e-17)
(0.289132937482082 0.157828906691694 2.8887203197418e-22)
(0.319926347404743 0.164172478629707 -1.32896793932339e-17)
(0.353364393477064 0.163678209268985 0)
(0.385673507133044 0.151667507117696 0)
(0.403318156733907 0.121734310384343 0)
(0.375623474019394 0.0744736260471185 -7.84212635358379e-19)
(0.303237144431383 0.0339195080870738 0)
(0.235621372388892 0.0116465554698777 1.81987189377811e-19)
(0.174080161241193 0.00146375224804772 8.19843074182115e-21)
(0.154400213691808 -5.61174858851981e-05 0)
(0.240332686861306 -0.000683568815653622 0)
(0.268127725195394 -0.00153313061249847 -2.51484294551144e-21)
(0.270603408704497 -0.0105865284485745 0)
(0.2006410250922 -0.0183318832865567 -1.85682774170545e-23)
(0.0859763308375585 -0.0129291030720388 -4.20087031295996e-16)
(-0.0318023633528902 0.0120181909420959 -8.10864208599126e-16)
(-0.0684924716974469 0.0273083826952827 2.60894742961571e-18)
(-0.0602416022473057 0.0276121644565262 -9.6059674862299e-23)
(-0.0524898140743596 0.0266414198132598 9.56517944713962e-23)
(-0.0448977018235767 0.0242787715130724 1.34572493705935e-21)
(-0.0402908697487048 0.0225474000085727 1.30272125815713e-22)
(-0.0376556513963497 0.0212692381243297 -4.78339763803229e-18)
(-0.0375901045716903 0.0209217372305904 5.24521769294462e-18)
(-0.0385265083131174 0.021039951540262 -1.40151151553408e-21)
(-0.0403562301880663 0.0216354113838431 1.89576340218845e-21)
(-0.0422217755708489 0.0222990653329183 0)
(-0.0446998177419714 0.0233534288901358 -7.0098138418473e-18)
(-0.0478489280469407 0.0248453549281574 -7.41011087820935e-18)
(-0.0519586612922609 0.0268908169322714 0)
(-0.0567566399175193 0.0291377244345619 8.19192588094817e-18)
(-0.0624611089269567 0.0314292699015847 0)
(-0.0691199786145562 0.0336158272280355 8.93698255096879e-18)
(-0.0765554754047353 0.0354016625885338 -9.29742110905799e-18)
(-0.0844580301778341 0.03643152875814 3.82313571294884e-22)
(-0.0927305145181762 0.0364771673080947 9.62681112221524e-21)
(-0.101651623468183 0.0356302986067935 1.01569569603052e-17)
(-0.111022294680912 0.0339534369550802 1.03341852677927e-17)
(-0.120205352840635 0.0312345967911741 1.04946534046709e-17)
(-0.128821521947926 0.0274206120333009 -5.30174532959812e-18)
(-0.136688099783565 0.0225779618878507 5.33374667972395e-18)
(-0.144014195955608 0.0168999535177695 9.35689591530092e-16)
(-0.151603752491141 0.0107205401504485 9.40422281316339e-16)
(-0.165096527585387 0.00487522006589795 1.00652424744604e-20)
(-0.183584726935866 0.00230385416613942 0)
(-0.197214405406365 0.0016405459874946 -8.73792355728019e-16)
(-0.205978235573526 0.00113549272952328 -8.80366607193752e-16)
(-0.2120173987847 0.000815085536349157 0)
(-0.216001921857091 0.000578068194565844 0)
(-0.218448339123419 0.000393475480802785 0)
(-0.219633340155017 0.000240916253763852 0)
(-0.219754300264454 0.00010973931153276 0)
(-0.218941673565381 -6.51686961176123e-06 -5.34151201314753e-21)
(-0.217300235209498 -0.000111125751996408 5.28139633218879e-21)
(-0.214917157048713 -0.000206071794858661 0)
(-0.211865154176318 -0.000292493056677621 0)
(-0.208209307934998 -0.000371170188838851 5.78371262183273e-21)
(-0.20400892919502 -0.000442630977532967 -1.16647808327769e-20)
(-0.199319071239959 -0.000507298626968882 5.88759965919185e-21)
(-0.194191382939361 -0.000565458344299603 0)
(-0.188674934382135 -0.000617355671259755 3.17204433839359e-21)
(-0.182816472272882 -0.000663190474126243 -3.16853276239559e-21)
(-0.17666067456498 -0.000703176961857713 0)
(-0.170250045957253 -0.000737543554225294 0)
(-0.163624840456238 -0.000766560556048408 3.49884976814116e-21)
(-0.156822895498358 -0.000790523414750876 -3.50796982324233e-21)
(-0.149879433631199 -0.000809779385970046 0)
(-0.142827045332909 -0.000824660590266926 0)
(-0.135695868289941 -0.00083549446322468 -9.66036928905628e-22)
(-0.128513960185524 -0.000842516543126296 9.71327278496721e-22)
(-0.121308309987639 -0.000845863680260375 0)
(-0.11410440628936 -0.000845798975100743 0)
(-0.106925254500031 -0.000842676706982359 1.06545853099614e-21)
(-0.0997910745684491 -0.000836910194153252 -1.07353116943908e-21)
(-0.0927191431224456 -0.000828904090372921 0)
(-0.0857242242329205 -0.000818995749875493 0)
(-0.0788192735148556 -0.00080739619130653 0)
(-0.0720166605333448 -0.000794134219947075 0)
(-0.0653294480968346 -0.00077919013285466 0)
(-0.0587693301780766 -0.000762799841174348 5.01804479090995e-21)
(-0.0523469118290733 -0.000745122452641063 -5.06662853377029e-21)
(-0.0460705072728384 -0.000726491608194251 0)
(-0.039947845792758 -0.000706871229422636 0)
(-0.0339867326455589 -0.000686262807624487 1.09556143222519e-20)
(-0.0281972370034211 -0.000664529416438325 -1.10685363894757e-20)
(-0.0225860358733717 -0.000641849239683849 0)
(-0.0171660703247879 -0.0006179454393688 0)
(-0.011940277448459 -0.000593124399104078 0)
(-0.00693085658447406 -0.000566399645186803 -1.21562679976099e-20)
(-0.00213686185068456 -0.000538327224580401 1.22876075883603e-20)
(0.00239785665705983 -0.000506820914016687 0)
(0.00668547954469125 -0.000473005106159568 0)
(0.0106340582915736 -0.000432200078081131 0)
(0.0142783220300836 -0.000386368877127628 0)
(0.0174088997988832 -0.000323393959989526 0)
(0.0200915187692428 -0.000245876657532044 0)
(0.0218134267991511 -0.000118578340877923 2.77247986329035e-20)
(0.0225894295991201 8.58422455476691e-05 2.21106302251753e-22)
(0.0208214233320293 0.000486203988171921 2.34066773631478e-22)
(0.0221131888052134 0.00105681538318206 7.29752633116602e-18)
(0.026651732819957 0.00241301468362411 1.44469273133527e-17)
(0.0323299528830898 0.00435470623812188 -2.77985381514461e-20)
(0.0397662958031766 0.00722656488776402 2.70329920693229e-20)
(0.0483330484378042 0.0110326919946949 0)
(0.0583545360844395 0.0160135606287665 0)
(0.0697057290064607 0.0222675574271763 1.33619257654272e-21)
(0.0829474514347165 0.0300877030189378 -2.50151409378996e-17)
(0.0983606906047472 0.0395109545711273 -2.4229040941924e-17)
(0.115484094956518 0.0501647684717302 2.34793220041858e-17)
(0.133937507952947 0.0616811021615262 2.27887709733361e-17)
(0.153281418997292 0.0736108508312789 -2.20849756362785e-17)
(0.173103378911556 0.0854591483979824 -1.03737973476542e-20)
(0.192354077959166 0.0964380344741313 1.01521232617007e-20)
(0.209713358172529 0.106186558607333 8.11682250822373e-21)
(0.225480149047696 0.115489101330534 -1.91114017017673e-17)
(0.240781798231944 0.125101403066665 8.94603695234536e-21)
(0.256047595502765 0.135347089399579 1.69996900857916e-17)
(0.272371716058957 0.146861611984991 0)
(0.290957331483075 0.1603637123005 1.68605948175594e-21)
(0.316035724841069 0.177364205355425 -1.58486660317253e-21)
(0.348402488550553 0.194922121005323 -1.07274918470567e-17)
(0.385163911974767 0.209046222579652 0)
(0.426246999424198 0.217514496662772 1.3236644546438e-17)
(0.471214019254754 0.217104320787836 -1.01834227424604e-22)
(0.515603424428273 0.201826802640944 -2.15355937319085e-18)
(0.543076744113453 0.163547825981148 0)
(0.515392168687498 0.102571703387247 -5.31501903176022e-23)
(0.428376497535576 0.0486478945996263 5.26719325057897e-23)
(0.340033881254349 0.0175267080498692 -3.68353428204323e-19)
(0.257766413332254 0.00264401088130803 1.94696068615788e-23)
(0.227686663503956 4.07754593010287e-06 0)
(0.317742045993108 -0.0010423147135915 1.23458145038817e-24)
(0.348639310694846 -0.00215257767441813 5.05428110285693e-21)
(0.351976093034808 -0.0133825726475385 -1.79448496350972e-20)
(0.271348441684361 -0.0238183055388786 -6.52220643075822e-20)
(0.128782988394027 -0.0185062686842685 1.92292167725471e-23)
(-0.0259866270554027 0.0121939839788472 -3.96087112317594e-18)
(-0.0815507380572676 0.0328093699733842 -5.37642382848122e-18)
(-0.0744813243953947 0.0339494289156963 9.91806842231367e-23)
(-0.0655352158135473 0.0330390441476289 -9.87442853216585e-23)
(-0.0565307752057507 0.0303726258879139 8.05053667840633e-18)
(-0.0510342718630116 0.0284115365642625 4.48661139604574e-18)
(-0.0479647496805346 0.0269999693729654 0)
(-0.0480141718440792 0.0266758868950764 -5.40801621564801e-18)
(-0.0493250015425666 0.026917839946927 0)
(-0.0517183232209159 0.0277217650728016 1.26174108882882e-17)
(-0.0542234057660539 0.0286462397512071 -3.31273119354578e-21)
(-0.057504149534991 0.0300735883801866 -7.14779170646242e-18)
(-0.0616429636024531 0.0320668633489992 7.53440712177737e-18)
(-0.0669441803841819 0.0347347602391266 -7.89013810415894e-18)
(-0.0731172867890523 0.0376556269784236 -1.64402103747836e-17)
(-0.0803938585309815 0.0406069155037757 8.36705339136316e-21)
(-0.0887902260308449 0.0433707616675665 -8.79136466344003e-18)
(-0.0980661114348814 0.0455648606923441 -8.83827813120161e-21)
(-0.107861712610309 0.0467654167265146 9.17239542111799e-18)
(-0.118062323240449 0.0467049392444343 -9.26202481794017e-18)