/*--------------------------------*- C++ -*----------------------------------*\
  =========                 |
  \\      /  F ield         | OpenFOAM: The Open Source CFD Toolbox
   \\    /   O peration     | Website:  https://openfoam.org
    \\  /    A nd           | Version:  7
     \\/     M anipulation  |
\*---------------------------------------------------------------------------*/
FoamFile
{
    version     2.0;
    format      ascii;
    class       volScalarField;
    location    "20000";
    object      walldist;
}
// * * * * * * * * * * * * * * * * * * * * * * * * * * * * * * * * * * * * * //

dimensions      [0 1 0 0 0 0 0];

internalField   nonuniform List<scalar> 
15600
(
0.000782206608407554
0.000782482378112858
0.000785392799374781
0.00079380118126387
0.000807729996587241
0.000827337024862845
0.000859076955667583
0.000905511419701762
0.000965045944756838
0.00103539365797921
0.00111484318760194
0.00120219390957692
0.00129529527759786
0.00138798851007834
0.00147849767016001
0.00156694869968534
0.00165348769229568
0.00173827152476339
0.00182157460638902
0.00190580964575297
0.0019929501938737
0.00208242698165257
0.00217339944758955
0.00226474010462126
0.00235486430656616
0.00244052734744448
0.00251783955259022
0.00258538823070425
0.00264202053725013
0.00268661915593097
0.00271816261677297
0.00273579090803979
0.00273903130869273
0.00273772312941814
0.00273772312941817
0.00273772312941831
0.00273772312941822
0.00273772312941816
0.00273772312941817
0.00273772312941819
0.00273772312941822
0.0027377231294183
0.00273772312941833
0.00273772312941833
0.00273772312941823
0.00273772312941822
0.00273772312941814
0.00273772312941825
0.00273772312941827
0.00273772312941815
0.00273772312941819
0.00273772312941822
0.00273772312941813
0.00273772312941809
0.00273772312941816
0.00273772312941822
0.00273772312941817
0.00273772312941816
0.00273772312941817
0.00273772312941822
0.00273772312941822
0.00273772312941822
0.00273772312941816
0.00273772312941817
0.00273772312941828
0.00273772312941832
0.00273772312941814
0.0027377231294182
0.00273772312941827
0.00273772312941817
0.00273772312941811
0.00273772312941827
0.00273772312941822
0.00273772312941819
0.00273772312941813
0.00273772312941822
0.00273772312941829
0.00273772312941833
0.00273772312941831
0.00273772312941819
0.00273772312941827
0.00273772312941828
0.00273772312941811
0.00273772312941822
0.00273772312941833
0.0027377231294182
0.00273772312941819
0.00273904120354162
0.00273574143903519
0.00271804700672702
0.00268644091155066
0.00264178400061636
0.00258509834017424
0.00251750155593813
0.00244014654491472
0.00235445106670639
0.00226431556127699
0.00217297266408173
0.00208200393077473
0.00199253572636966
0.00190540719914949
0.00182118399036334
0.00173787679249215
0.00165308531247383
0.00156653785749536
0.00147807760657535
0.00138755864082482
0.00129485519883264
0.0012017663732616
0.00111444926715856
0.00103503820247991
0.000964735988546896
0.000905256560185045
0.000858887384023346
0.000827218397359698
0.000807649191653566
0.000793747022517906
0.00078536536026042
0.000782474519759431
0.000782206608407776
0.00237533614890848
0.00237639191782038
0.00238630663465762
0.00241472902800946
0.00246398735712543
0.00253844583695106
0.00265952850143835
0.00283474375376869
0.00305672362994307
0.00331407185205471
0.00359625846313544
0.00389384352717685
0.00419687398587932
0.00449333220476742
0.00478142832313967
0.00506255581516777
0.00533798943387984
0.00560893380865156
0.00587659212264144
0.00614296513684507
0.00640786807753433
0.00666832142437725
0.00692108326174866
0.00716265308056666
0.00738910751725015
0.00759594822956298
0.00777960852619864
0.00793872141474493
0.00807216091893644
0.00817886167428902
0.00825786357307213
0.00830835526513263
0.00832991821479993
0.00833274253433515
0.00833132605789511
0.00832996383416973
0.00832865588977979
0.00832740225030179
0.00832620294026483
0.00832505798314855
0.00832396740138263
0.00832293121634169
0.00832194944834433
0.00832102211665242
0.00832014923946767
0.00831933083393038
0.00831856691611763
0.00831785750104221
0.00831720260265082
0.00831660223382186
0.00831605640636576
0.00831556513102268
0.00831512841746163
0.00831474627427977
0.00831441870900159
0.0083141457280782
0.00831392733688598
0.00831376353972694
0.00831365433982818
0.00831359973934076
0.00831359973934081
0.00831365433982821
0.00831376353972683
0.00831392733688594
0.00831414572807839
0.00831441870900169
0.00831474627427973
0.00831512841746173
0.00831556513102278
0.00831605640636569
0.00831660223382195
0.0083172026026509
0.00831785750104232
0.00831856691611759
0.00831933083393008
0.00832014923946754
0.00832102211665234
0.00832194944834435
0.00832293121634162
0.00832396740138306
0.00832505798314918
0.00832620294026473
0.00832740225030177
0.00832865588978006
0.00832996383416986
0.00833132605789482
0.0083327425343352
0.00832986992314017
0.00830818449767944
0.00825756157925633
0.00817843185136848
0.00807160724569275
0.00793804843388895
0.00777882123840151
0.00759505188505974
0.00738811168202563
0.00716157902023311
0.00691994867247326
0.00666714429143028
0.00640666367803805
0.00614174715494325
0.00587537166302849
0.00560770191054278
0.00533673923914431
0.00506128244551554
0.00478012514964701
0.00449199424850015
0.00419549335106178
0.00389245645516647
0.00359492076768315
0.00331282196300771
0.00305560838446244
0.00283381799016416
0.00265883540702437
0.00253800880134035
0.00246370472520874
0.00241455026812619
0.00238621876632434
0.00237636724101803
0.00237533614890837
0.004026818480072
0.00402867141824548
0.00404761038321396
0.00410345788341356
0.00420564381910595
0.00436554223482839
0.00460873457770148
0.00493697072400463
0.00533345014124403
0.00577874093753714
0.00625633421532543
0.00675197212911191
0.00725163714592865
0.00774105127682295
0.00821852494847316
0.00868608223620414
0.0091456027625527
0.00959889384042629
0.0100477343623705
0.0104941172697917
0.0109366698054511
0.0113705399851064
0.0117904652357747
0.0121907326123986
0.012564953062474
0.0129062354443963
0.0132094327223072
0.0134722926546767
0.0136929120497677
0.0138695125187178
0.0140005099887409
0.0140845827618028
0.0141210715279909
0.01412618657885
0.0141237852793504
0.0141214759524479
0.0141192586432716
0.0141171333951801
0.0141151002497566
0.0141131592468058
0.014111310424351
0.0141095538186285
0.0141078894640836
0.0141063173933701
0.0141048376373447
0.014103450225065
0.0141021551837857
0.0141009525389573
0.0140998423142225
0.0140988245314149
0.0140978992105553
0.0140970663698513
0.0140963260256946
0.0140956781926595
0.014095122883502
0.0140946601091584
0.0140942898787433
0.0140940121995495
0.0140938270770476
0.0140937345148848
0.0140937345148849
0.0140938270770476
0.0140940121995496
0.0140942898787432
0.0140946601091585
0.0140951228835022
0.0140956781926595
0.0140963260256946
0.0140970663698513
0.0140978992105554
0.014098824531415
0.0140998423142226
0.0141009525389572
0.0141021551837857
0.0141034502250649
0.0141048376373446
0.0141063173933698
0.0141078894640837
0.0141095538186285
0.0141113104243515
0.0141131592468062
0.0141151002497563
0.0141171333951799
0.0141192586432716
0.0141214759524478
0.0141237852793503
0.01412618657885
0.0141209871747516
0.0140842971731881
0.0140000086466315
0.0138688009065925
0.0136919967502446
0.0134711811974022
0.0132081335220641
0.0129047574524931
0.0125633109964283
0.0121889571927972
0.0117885853864106
0.0113685843696963
0.0109346637415634
0.010492083052906
0.0100456907905306
0.00959683468703442
0.00914351901214369
0.00868396641434058
0.00821636760133096
0.00773884488554648
0.00724937083505357
0.00674968662184256
0.00625410134884794
0.00577661864927936
0.00533150878590121
0.00493529841755488
0.00460741365923133
0.00436463893379972
0.0042050554864695
0.00410310512463308
0.00404744543843577
0.00402862759440873
0.00402681848007197
0.00573879938590697
0.00574148066823162
0.00577009633435757
0.00585587638044966
0.00601662659007271
0.00627085072230145
0.00664494223962137
0.00713302295558606
0.00770932599499004
0.00834732435284764
0.0090250915515011
0.00972376509257074
0.0104253118980243
0.0111132952894129
0.0117860256172578
0.0124460545311487
0.0130958084577763
0.0137376660483446
0.0143739649730788
0.0150066396755834
0.0156330572790255
0.0162464260626049
0.0168393892870297
0.0174039394266441
0.017931130592341
0.018411596979246
0.0188385608903379
0.019208847985941
0.019519745313899
0.0197687325477862
0.0199535769692033
0.0200724267647578
0.0201243726632751
0.02013186123613
0.0201284390366537
0.020125147911445
0.0201219879248199
0.0201189591385701
0.0201160616119581
0.0201132954017116
0.0201106605620186
0.0201081571445209
0.020105785198309
0.0201035447699187
0.0201014359033255
0.0200994586399402
0.0200976130186053
0.0200958990755913
0.0200943168445928
0.0200928663567247
0.0200915476405206
0.0200903607219286
0.0200893056243092
0.0200883823684332
0.0200875909724794
0.0200869314520335
0.0200864038200854
0.0200860080870285
0.020085744260659
0.0200856123461748
0.0200856123461748
0.020085744260659
0.0200860080870285
0.0200864038200853
0.0200869314520335
0.0200875909724795
0.0200883823684332
0.0200893056243093
0.0200903607219287
0.0200915476405208
0.0200928663567248
0.0200943168445928
0.0200958990755915
0.0200976130186055
0.0200994586399401
0.0201014359033254
0.0201035447699187
0.0201057851983092
0.0201081571445207
0.0201106605620189
0.0201132954017118
0.0201160616119578
0.0201189591385702
0.0201219879248202
0.0201251479114453
0.0201284390366535
0.0201318612361299
0.0201242509521105
0.0200720222615507
0.0199528691743964
0.019767729109751
0.0195184555230029
0.019207282477748
0.0188367316339909
0.0184095167842196
0.0179288195200043
0.0174014379437459
0.0168367379759308
0.0162436646250135
0.015630221462906
0.0150037607079027
0.0143710696251772
0.0137347511819685
0.0130928630047983
0.0124430685006593
0.0117829869652912
0.0111101942500431
0.0104221353121345
0.00972055804615077
0.00902194151527953
0.00834430861695964
0.0077065365920777
0.00713057726488131
0.00664295844146503
0.00626943819145505
0.00601569886623038
0.00585533214890408
0.00576984825330708
0.00574141688344575
0.00573879938590695
0.00751349510190469
0.0075170357431486
0.00755579183264514
0.00767310858348628
0.00789580174177228
0.00824967894547659
0.00876081686786823
0.00941494893383667
0.0101773072832269
0.0110143997549415
0.0118989199580045
0.0128073483117124
0.0137175491911099
0.0146109078324181
0.0154857042804526
0.0163449984057077
0.0171917585127661
0.0180289386939562
0.0188594437532155
0.0196851311002437
0.0205020521779384
0.0213014049019036
0.0220736618312759
0.0228084364568277
0.0234941321417801
0.0241188197518341
0.0246740338143242
0.0251556426936711
0.0255600926896961
0.0258840934518327
0.0261247392637493
0.0262796284322722
0.02634759245428
0.026357541119373
0.0263530606214023
0.0263487517317775
0.0263446145347029
0.0263406491110799
0.0263368555384973
0.0263332338912258
0.0263297842402107
0.0263265066530636
0.0263234011940561
0.0263204679241149
0.0263177069008148
0.0263151181783728
0.0263127018076431
0.0263104578361128
0.0263083863078961
0.0263064872637306
0.026304760740973
0.0263032067735961
0.0263018253921847
0.0263006166239327
0.0262995804926408
0.0262987170187141
0.0262980262191597
0.0262975081075854
0.0262971626941981
0.0262969899858029
0.0262969899858029
0.0262971626941981
0.0262975081075854
0.0262980262191598
0.0262987170187142
0.026299580492641
0.0263006166239327
0.0263018253921846
0.0263032067735962
0.026304760740973
0.0263064872637306
0.0263083863078962
0.0263104578361129
0.0263127018076431
0.0263151181783727
0.0263177069008148
0.0263204679241151
0.0263234011940558
0.0263265066530632
0.0263297842402108
0.026333233891226
0.026336855538497
0.0263406491110799
0.0263446145347032
0.0263487517317776
0.0263530606214021
0.026357541119373
0.0263474320250188
0.0262791006966128
0.0261238175206702
0.0258827875946222
0.0255584148184127
0.025153606666681
0.0246716552902683
0.0241161155466654
0.0234911278573054
0.0228051826441808
0.0220702111648975
0.0212978085150988
0.0204983566384998
0.0196813768953522
0.0188556659188999
0.0180251373766178
0.0171879205755299
0.0163411113038503
0.0154817533914465
0.0146068811786269
0.0137134314923792
0.0128031890715864
0.0118948225463815
0.0110104612674138
0.0101736414141339
0.00941170178643784
0.00875814221803735
0.00824773024169091
0.00789451475466316
0.00767236212777481
0.00755545647236031
0.0075169512279623
0.0075134951019044
0.00935320305041639
0.00935763484150649
0.00940695334045271
0.00955719619225855
0.00984466608587484
0.0103026919491436
0.0109564948810941
0.0117829101258676
0.0127379778073831
0.0137811581427756
0.0148796703271931
0.0160052173882991
0.0171314371897231
0.0182374840621309
0.0193215938258888
0.0203873362549071
0.0214382303668852
0.0224778192970579
0.0235095903415472
0.0245353136405451
0.0255496724868495
0.0265417809805918
0.0274998615428123
0.0284110613757734
0.0292610358823536
0.030035199621456
0.0307233387434879
0.0313203286139458
0.0318217433894012
0.0322234940788463
0.0325219770492992
0.0327142204306296
0.0327987869417981
0.0328112856474457
0.0328057080824485
0.0328003441447556
0.0327951939391891
0.0327902575664593
0.0327855351231529
0.0327810267017261
0.0327767323904953
0.0327726522736272
0.032768786431131
0.0327651349388509
0.0327616978684592
0.0327584752874482
0.0327554672591241
0.0327526738426011
0.0327500950927953
0.0327477310604189
0.0327455817919755
0.0327436473297561
0.0327419277118343
0.0327404229720629
0.0327391331400702
0.0327380582412574
0.0327371982967959
0.0327365533236253
0.032736123334452
0.0327359083377473
0.0327359083377473
0.032736123334452
0.0327365533236254
0.0327371982967959
0.0327380582412576
0.0327391331400703
0.0327404229720629
0.0327419277118343
0.032743647329756
0.0327455817919755
0.0327477310604187
0.0327500950927954
0.0327526738426012
0.0327554672591242
0.0327584752874481
0.0327616978684591
0.0327651349388506
0.0327687864311309
0.0327726522736272
0.0327767323904956
0.0327810267017264
0.0327855351231526
0.0327902575664591
0.0327951939391894
0.0328003441447556
0.0328057080824483
0.0328112856474457
0.0327985863799218
0.0327135649658918
0.0325208335516155
0.0322218747689912
0.0318196632812563
0.0313178049081495
0.0307203909255487
0.0300318486637139
0.0292573131303102
0.0284070278256167
0.0274955824069629
0.0265373192377576
0.0255450859243471
0.0245306523457576
0.0235048979175955
0.0224730993330765
0.02143346760803
0.0203825155334513
0.0193166978935502
0.0182324986998867
0.0171263450263744
0.0160000724561915
0.0148745923411016
0.0137762646188755
0.0127334045437338
0.0117788322967736
0.010953102459064
0.0103001837214704
0.00984300328512288
0.00955623838417321
0.00940652699638107
0.00935752881881653
0.0093532030504165
0.0112603048147503
0.0112656605710061
0.0113259560695435
0.0115104591667877
0.0118653859195927
0.0124318312226485
0.0132338437652179
0.0142389304972115
0.0153936794921318
0.0166503371151808
0.0179705015911709
0.0193209499590685
0.0206709526677682
0.0219973659501495
0.0232983731540221
0.0245780636833358
0.0258405215898616
0.0270898966386954
0.0283302770535553
0.0295633385079383
0.0307823437114329
0.0319742467147258
0.0331249374146343
0.0342190062919631
0.0352392600651625
0.036168360186599
0.036994281060824
0.0377108683400444
0.0383127917692438
0.0387951342425482
0.0391535685027298
0.0393845315346539
0.0394863074076778
0.0395014494780598
0.039494734657302
0.0394882770220828
0.0394820766985976
0.0394761338080906
0.0394704484668431
0.0394650207861625
0.0394598508723729
0.0394549388268022
0.0394502847457734
0.0394458887205958
0.0394417508375549
0.039437871177905
0.0394342498178598
0.0394308868285871
0.0394277822762002
0.0394249362217515
0.0394223487212268
0.03942001982554
0.0394179495805278
0.0394161380269454
0.0394145852004621
0.0394132911316589
0.0394122558460239
0.0394114793639505
0.0394109617007358
0.0394107028665787
0.0394107028665786
0.0394109617007359
0.0394114793639506
0.0394122558460239
0.039413291131659
0.0394145852004623
0.0394161380269454
0.0394179495805279
0.0394200198255399
0.0394223487212267
0.0394249362217514
0.0394277822762001
0.0394308868285872
0.03943424981786
0.0394378711779047
0.0394417508375547
0.0394458887205954
0.0394502847457733
0.0394549388268019
0.0394598508723732
0.0394650207861628
0.0394704484668427
0.0394761338080905
0.039482076698598
0.0394882770220829
0.0394947346573018
0.0395014494780602
0.0394860652450867
0.03938374367147
0.0391521951440619
0.038793190022108
0.0383102947220914
0.0377078391322868
0.0369907431462169
0.0361643388478095
0.0352347926018979
0.0342141645233017
0.0331197995518526
0.0319688880131698
0.0307768335907956
0.0295577370078485
0.0283246366579145
0.0270842245259019
0.0258348003238054
0.0245722753901396
0.02329249788874
0.0219913871973139
0.0206648509454533
0.0193147839659396
0.0179644079126341
0.0166444543784533
0.0153881662236483
0.0142339916345789
0.013229706425292
0.0124287409853829
0.011863331699986
0.0115092813248328
0.011325435131048
0.0112655322432419
0.0112603048147502
0.0132372692221874
0.0132435828948457
0.0133152743822793
0.0135353707307028
0.0139604119690823
0.0146395231952268
0.0155953649864148
0.0167857135792298
0.0181474058094246
0.0196252649247851
0.0211750942999684
0.0227585801765148
0.0243404738754444
0.0258952580852733
0.0274210578734344
0.0289224959854528
0.0304042387126107
0.031871062282885
0.0333276761184552
0.0347756555531651
0.0362067892736451
0.0376057922113731
0.0389561363155042
0.0402397616314448
0.0414365218014794
0.0425262246283956
0.0434949668208491
0.044335526396085
0.0450416353662548
0.0456075180451519
0.0460280969598135
0.0462991962478268
0.0464188111066904
0.0464366933231383
0.0464287995856585
0.0464212081876156
0.0464139192773605
0.0464069329974248
0.0464002494845044
0.0463938688694499
0.0463877912772521
0.046382016827029
0.0463765456320148
0.04637137779955
0.0463665134310694
0.0463619526220928
0.0463576954622152
0.0463537420350987
0.0463500924184646
0.0463467466840834
0.0463437048977711
0.0463409671193801
0.0463385334027951
0.046336403795926
0.0463345783407051
0.0463330570730821
0.0463318400230201
0.0463309272144931
0.0463303186654838
0.0463300143879818
0.0463300143879817
0.0463303186654839
0.0463309272144932
0.0463318400230201
0.0463330570730822
0.0463345783407052
0.0463364037959261
0.046338533402795
0.0463409671193801
0.0463437048977711
0.0463467466840836
0.0463500924184644
0.0463537420350989
0.0463576954622154
0.0463619526220927
0.0463665134310692
0.0463713777995497
0.0463765456320146
0.0463820168270285
0.0463877912772523
0.0463938688694503
0.0464002494845041
0.0464069329974248
0.0464139192773608
0.0464212081876156
0.0464287995856586
0.0464366933231387
0.0464185258206711
0.0462982711419903
0.0460264853301774
0.0456052370268817
0.0450387061265964
0.0443319731940317
0.043490817224469
0.0425215083895873
0.0414312823923104
0.0402340820874153
0.0389501083238925
0.0375995037522506
0.0362003218263174
0.0347690794743785
0.033321053098088
0.0318644032324292
0.0303975239433847
0.0289157048260344
0.0274141675985644
0.0258882498149235
0.0243333259735312
0.0227513561614672
0.021167948202282
0.0196183572217263
0.0181409184792037
0.016779882190779
0.0155904549337338
0.0146358284330099
0.0139579508783503
0.0135339642228648
0.0133146552147827
0.0132434314389964
0.0132372692221873
0.0152866555399568
0.0152939622885434
0.0153774783269285
0.0156345230245914
0.0161323694497009
0.0169284530416181
0.0180438824874567
0.0194263083145291
0.0210024900105814
0.0227095914364163
0.0244974294715979
0.0263224231291509
0.028144644378003
0.0299361210753881
0.0316949153920642
0.0334261995208269
0.0351352410638646
0.0368274641130717
0.0385082209141101
0.0401789812147348
0.0418300047669121
0.0434436853933874
0.0450009885321424
0.0464811066627042
0.0478608321465181
0.0491170148047649
0.05023380514488
0.0512028743113614
0.0520169821103215
0.0526694627409764
0.053154460979839
0.0534671656380275
0.053605272450326
0.0536259951603749
0.0536168793190523
0.053608112625182
0.0535996952500829
0.0535916273583528
0.0535839091078517
0.0535765406496877
0.0535695221282025
0.0535628536809561
0.0535565354387136
0.0535505675254341
0.0535449500582561
0.0535396831474877
0.0535347668965951
0.0535302014021933
0.0535259867540356
0.0535221230350047
0.0535186103211053
0.0535154486814572
0.0535126381782867
0.0535101788669215
0.0535080707957856
0.0535063140063946
0.0535049085333502
0.0535038544043381
0.0535031516401255
0.0535028002545573
0.0535028002545574
0.0535031516401255
0.0535038544043382
0.0535049085333501
0.0535063140063947
0.0535080707957858
0.0535101788669214
0.0535126381782867
0.0535154486814573
0.0535186103211054
0.0535221230350047
0.0535259867540356
0.0535302014021935
0.0535347668965953
0.0535396831474875
0.0535449500582557
0.0535505675254339
0.0535565354387135
0.0535628536809557
0.0535695221282026
0.0535765406496878
0.0535839091078515
0.0535916273583525
0.053599695250083
0.0536081126251821
0.0536168793190521
0.0536259951603751
0.0536049424619322
0.0534660982658479
0.0531526023576139
0.0526668325970528
0.0520136048590527
0.0511987779365487
0.0502290214800758
0.0491115782354536
0.04785479254325
0.0464745586863211
0.0449940378402318
0.0434364331558268
0.041822544965147
0.0401713949007458
0.0385005793209331
0.0368197820301038
0.0351274964728978
0.033418368855437
0.0316869730546339
0.0299280457450273
0.0281364122073659
0.026314102621468
0.024489192713277
0.0227016215337103
0.0209949931816633
0.0194195517383604
0.0180381710891306
0.0169241308322587
0.0161294858546393
0.0156328790989666
0.0153767572206895
0.0152937868534687
0.0152866555399565
0.0174111167883079
0.0174194530395873
0.0175152345093813
0.0178106166592448
0.0183840200554288
0.0193014847563982
0.0205824325606609
0.0221639913268562
0.0239624957620839
0.025907194289016
0.0279417121086633
0.0300170149169785
0.0320883275360964
0.0341251369345447
0.0361254383954849
0.0380949713410013
0.0400396251657371
0.0419654944965946
0.0438785971737456
0.0457802924097273
0.0476592543812759
0.0494954707955885
0.0512673087650045
0.052951112523785
0.0545205009903007
0.0559492577880113
0.0572195161268349
0.0583217996459456
0.0592478602495494
0.0599901093605135
0.0605418854794486
0.0608977187989991
0.0610549946158526
0.0610786618554966
0.0610682791411429
0.0610582940969701
0.0610487069181057
0.0610395177920224
0.0610307268985189
0.0610223344097034
0.0610143404899778
0.0610067452960193
0.0609995489767661
0.0609927516734041
0.0609863535193517
0.060980354640247
0.0609747551539352
0.0609695551704581
0.0609647547920427
0.0609603541130906
0.0609563532201689
0.0609527521920033
0.0609495510994682
0.0609467500055804
0.0609443489654938
0.060942348026493
0.060940747227989
0.0609395466015151
0.0609387461707242
0.0609383459513861
0.0609383459513861
0.0609387461707243
0.0609395466015151
0.0609407472279889
0.0609423480264931
0.0609443489654938
0.0609467500055804
0.0609495510994682
0.0609527521920033
0.0609563532201691
0.0609603541130905
0.0609647547920428
0.0609695551704581
0.0609747551539352
0.0609803546402467
0.0609863535193515
0.0609927516734038
0.060999548976766
0.0610067452960191
0.0610143404899779
0.0610223344097036
0.0610307268985184
0.0610395177920222
0.0610487069181061
0.06105829409697
0.0610682791411427
0.0610786618554968
0.0610546182880332
0.0608965039515666
0.0605397708214373
0.0599871173085231
0.0592440185840796
0.0583171402122699
0.0572140751805438
0.0559430745183516
0.054513631900665
0.0529436643248815
0.0512594015969209
0.0494872195004585
0.0476507659012158
0.0457716588838873
0.0438698997278726
0.0419567519455653
0.0400308130803812
0.0380860631572352
0.036116405544856
0.0341159555728681
0.0320789715387772
0.0300075579465676
0.0279323449499003
0.0258981234910765
0.0239539526230665
0.0221562756952117
0.0205758902381537
0.0192965115798129
0.0183806979741772
0.017808726358022
0.0175144076527121
0.0174192527441516
0.0174111167883077
0.0196134031748946
0.0196228066770642
0.0197313084936711
0.0200664583084649
0.0207182478774503
0.0217616294724331
0.0232142197042316
0.0250022198669822
0.0270311738501128
0.0292221423390402
0.0315123421495747
0.0338470907907236
0.0361765909434978
0.0384676983573664
0.0407183377750268
0.0429348349511054
0.0451237227446807
0.0472917901202211
0.0494457443374278
0.0515868292480128
0.0537020749143126
0.0557689747982811
0.0577632025043086
0.0596581496593136
0.0614241454712001
0.0630317951465126
0.0644611408460578
0.0657015166094151
0.0667436294606094
0.0675789342053301
0.0681999335093736
0.0686004748084392
0.0687776215858761
0.0688043412102742
0.0687926452136792
0.0687813971875211
0.0687705973516081
0.0687602459171259
0.0687503430866154
0.0687408890539545
0.0687318840043396
0.0687233281142661
0.0687152215515106
0.0687075644751173
0.0687003570353802
0.0686935993738292
0.0686872916232158
0.0686814339075002
0.0686760263418398
0.0686710690325768
0.0686665620772285
0.0686625055644777
0.0686588995741639
0.0686557441772747
0.0686530394359399
0.0686507854034257
0.0686489821241279
0.0686476296335678
0.0686467279583906
0.0686462771163606
0.0686462771163606
0.0686467279583906
0.0686476296335678
0.0686489821241278
0.0686507854034259
0.0686530394359401
0.0686557441772746
0.0686588995741639
0.0686625055644778
0.0686665620772285
0.0686710690325769
0.0686760263418398
0.0686814339075003
0.0686872916232157
0.0686935993738293
0.0687003570353801
0.0687075644751171
0.0687152215515104
0.0687233281142658
0.0687318840043401
0.0687408890539549
0.0687503430866151
0.0687602459171258
0.0687705973516082
0.0687813971875209
0.0687926452136792
0.0688043412102743
0.068777197221441
0.0685991070852839
0.0681975534398042
0.0675755669927404
0.0667393063749858
0.0656962734991184
0.0644550185509135
0.0630248378357959
0.0614164165241035
0.0596497682768095
0.0577543038398535
0.0557596878666065
0.053692520093361
0.0515771101703974
0.0494359523839781
0.0472819482827625
0.0451138040974781
0.0429248098250721
0.04070817452689
0.0384573705321995
0.0361660700666847
0.0338364558674613
0.0315018033341592
0.0292119304721847
0.0270215461938596
0.0249935100652749
0.0232068158592254
0.0217559810967538
0.0207144708824097
0.0200643124173457
0.0197303719564942
0.019622580608596
0.0196134031748946
0.0218963656550002
0.0219068755305286
0.0220285678797
0.0224049615246427
0.0231380547297131
0.0243120325694537
0.0259425980368905
0.0279446120707942
0.0302124444220936
0.0326586812883087
0.035213903850891
0.0378175781456722
0.0404147026180813
0.042969407419773
0.0454795432783382
0.0479520425209597
0.0503941042244329
0.052813236562483
0.0552168610560077
0.0576061013940896
0.0599662829569263
0.0622723135970092
0.0644970747385221
0.0666108972192473
0.068580700012275
0.0703737935514846
0.071968052462039
0.0733515775654331
0.0745139926894343
0.0754457609536933
0.0761385185551297
0.0765854051543733
0.0767831506309897
0.0768130344518794
0.0767999770637325
0.076787419788921
0.0767753628728387
0.0767638065512532
0.0767527510502805
0.0767421965863657
0.0767321433662617
0.0767225915870072
0.076713541435908
0.0767049930905209
0.0766969467186338
0.07668940247825
0.0766823605175736
0.0766758209749931
0.0766697839790699
0.0766642496485245
0.0766592180922252
0.0766546894091771
0.0766506636885127
0.0766471410094826
0.0766441214414486
0.0766416050438763
0.0766395918663296
0.0766380819484647
0.0766370753200277
0.076636572000851
0.076636572000851
0.0766370753200277
0.0766380819484646
0.0766395918663295
0.0766416050438764
0.0766441214414487
0.0766471410094826
0.0766506636885127
0.076654689409177
0.0766592180922254
0.0766642496485246
0.0766697839790699
0.076675820974993
0.0766823605175737
0.07668940247825
0.0766969467186337
0.0767049930905207
0.0767135414359078
0.0767225915870069
0.076732143366262
0.0767421965863661
0.0767527510502801
0.076763806551253
0.0767753628728387
0.0767874197889211
0.0767999770637323
0.0768130344518799
0.0767826764704626
0.0765838789567022
0.0761358633539162
0.0754420048412738
0.0745091705530969
0.0733457294033896
0.0719612238664261
0.0703660338542506
0.0685720797202367
0.0666015484804452
0.0644871482699858
0.0622619531048794
0.0599556227474872
0.0575952570145422
0.0552059345179281
0.0528022551906049
0.0503830385070949
0.0479408595720799
0.045468208270817
0.042957891195939
0.0404029742751884
0.0378057222229068
0.0352021505718815
0.032647286667475
0.0302016926111126
0.0279348716943173
0.0259343009914955
0.0243056839733497
0.0231338058831852
0.0224025505389903
0.0220275176019512
0.0219066227434128
0.0218963656550004
0.0242629596222032
0.0242746164208568
0.0244099857544596
0.0248291490480992
0.0256465596792266
0.0269559690743721
0.0287710639281386
0.0309949391826548
0.0335103904274514
0.036221229070363
0.0390511633156091
0.0419335961233246
0.0448081324658497
0.0476360785500647
0.0504152076973453
0.0531530800866432
0.0558575847957149
0.0585369751249918
0.0611994127069874
0.0638458962280057
0.0664599836792214
0.0690139025880963
0.0714776399092729
0.0738183535486933
0.0759994273064594
0.0779847562080408
0.0797499680319297
0.0812818851776583
0.0825690085687879
0.0836007732935961
0.084367917329284
0.0848628466301174
0.0850819452506037
0.0851151091797537
0.0851006405283629
0.0850867260433514
0.0850733659966351
0.0850605606494631
0.0850483102523912
0.0850366150452581
0.0850254752571627
0.0850148911064399
0.0850048628006402
0.0849953905365105
0.0849864744999737
0.0849781148661105
0.0849703117991427
0.0849630654524166
0.0849563759683885
0.0849502434786104
0.0849446681037172
0.0849396499534145
0.0849351891264685
0.0849312857106955
0.0849279397829538
0.0849251514091368
0.084922920644164
0.0849212475319787
0.0849201321055421
0.0849195743868296
0.0849195743868296
0.084920132105542
0.0849212475319788
0.084922920644164
0.0849251514091367
0.0849279397829541
0.0849312857106955
0.0849351891264683
0.0849396499534145
0.0849446681037171
0.0849502434786106
0.0849563759683887
0.0849630654524168
0.0849703117991429
0.0849781148661105
0.0849864744999736
0.0849953905365102
0.08500486280064
0.0850148911064396
0.0850254752571629
0.0850366150452585
0.0850483102523911
0.0850605606494628
0.0850733659966352
0.0850867260433512
0.0851006405283631
0.085115109179754
0.085081419469974
0.0848611561537008
0.0843649769196842
0.0835966140379767
0.0825636691042051