2 	0.00391112967796261 	1.10588621593521e-17 	0.0727087145333504 	2.10663043354622e-06 	920.062279963176 	2.04612346997594e-07 	4.38539589048977e-39
2 	0.0118766651674913 	1.95156391047391e-17 	0.0727186248011753 	5.05704408092847e-05 	174.47134517368 	1.22998766741905e-05 	0
2 	0.0201340015485761 	2.16840434497101e-17 	0.0727273173238382 	0.00033862895711981 	56.4488154214516 	0.000160631798908753 	0
2 	0.028693828342395 	1.69135538907739e-17 	0.0727326002342946 	0.00110646320042917 	26.8220524849612 	0.000568050535571508 	0
2 	0.0375672266585909 	8.23993651088983e-18 	0.0727377750514242 	0.00226086428427588 	15.4258049447047 	0.000697455867100949 	0
2 	0.0467656835403032 	2.60208521396521e-18 	0.0727472808018581 	0.0035034550826454 	10.0869510376731 	0.000418063737638309 	0
2 	0.0563011068347007 	-2.60208521396521e-18 	0.0727617567329125 	0.0046859723302036 	7.30674725486935 	0.000166207404320619 	0
2 	0.0661858406082648 	-6.07153216591882e-18 	0.0727785322582279 	0.00577546485888915 	5.71096724653051 	5.36924086249367e-05 	0
2 	0.0764326811267815 	-6.07153216591882e-18 	0.0727949364082435 	0.00677845054519281 	4.70904495769165 	3.05903006428094e-05 	0
2 	0.0870548934207258 	-8.67361737988404e-19 	0.0728093393326485 	0.00770977759442517 	4.03189474308717 	5.25227560896965e-05 	0
2 	0.0980662284574839 	-2.60208521396521e-18 	0.0728207671416685 	0.00858341549685692 	3.54731265667245 	9.67597301798483e-05 	0
2 	0.109480940942647 	-1.21430643318376e-17 	0.0728285332829463 	0.00941064288215865 	3.18501759304699 	0.000152593310742058 	0
2 	0.121313807773417 	-1.04083408558608e-17 	0.0728321022313439 	0.0102002225968012 	2.90488285982568 	0.000214919277764336 	0
2 	0.13358014716801 	-3.46944695195361e-18 	0.0728310415248038 	0.0109589401251265 	2.68256034042881 	0.00028125814535345 	0
2 	0.146295838495838 	1.73472347597681e-18 	0.0728249941882362 	0.0116920972809542 	2.50250511253313 	0.000350422154745825 	0
2 	0.159477342834115 	1.73472347597681e-18 	0.072813661852854 	0.0124038921662852 	2.35436365505968 	0.000421899576904297 	0
2 	0.173141724277517 	3.46944695195361e-18 	0.0727967967829715 	0.0130976982210691 	2.23099301526675 	0.00049555810740213 	0
2 	0.18730667202848 	1.38777878078145e-17 	0.0727741999142047 	0.013776268003303 	2.12731889054881 	0.000571497076509585 	0
2 	0.201990523296728 	1.73472347597681e-17 	0.0727457227557626 	0.0144418839770285 	2.0396484641978 	0.000649972961120472 	0
2 	0.217212287037676 	3.46944695195361e-18 	0.0727112721401966 	0.0150964730006618 	1.96524145078882 	0.000731363349207346 	0
2 	0.232991668560441 	-1.04083408558608e-17 	0.0726708174450506 	0.0157416966116162 	1.90203393022319 	0.000816152781930747 	0
2 	0.249349095037321 	-1.04083408558608e-17 	0.0726244002567132 	0.016379025993203 	1.84845604264401 	0.000904932585695279 	0
2 	0.266305741947753 	-1.38777878078145e-17 	0.0725721467188734 	0.017009808457675 	1.80330942058639 	0.000998411263086641 	0
2 	0.283883560490999 	-1.38777878078145e-17 	0.0725142830940167 	0.017635331103425 	1.76568402260618 	0.00109743457911516 	0
2 	0.30210530600303 	-1.73472347597681e-17 	0.0724511554152982 	0.0182568867971406 	1.73490200524345 	0.00120301624623715 	0
2 	0.320994567414414 	-3.12250225675825e-17 	0.0723832545726287 	0.0188758476698857 	1.71048107186673 	0.00131638163678203 	0
2 	0.340575797787321 	-3.46944695195361e-17 	0.0723112488285352 	0.0194937518487797 	1.69211277500985 	0.00143902856131197 	0
2 	0.360874345971201 	-3.46944695195361e-17 	0.0722360266838544 	0.0201124101833992 	1.67965329775761 	0.0015728110734258 	0
2 	0.379381853751547 	-3.81639164714898e-17 	0.0721679902775521 	0.0206602750688992 	1.67354570373914 	0.00170177629600972 	0
2 	0.390092168053834 	-4.16333634234434e-17 	0.0721289598997929 	0.0209719543639296 	1.67175180375478 	0.00177895937014629 	0
2 	0.403729468200046 	-3.46944695195361e-17 	0.0720808941722131 	0.0213612040135949 	1.67260275622774 	0.00188329380641777 	0
2 	0.426341520272734 	-2.77555756156289e-17 	0.0720043418302323 	0.0219974233489694 	1.67854521176809 	0.00206634106281013 	0
2 	0.449781918030829 	-3.12250225675825e-17 	0.0719316256820454 	0.022647342571045 	1.69163388029168 	0.00227411389909605 	0
2 	0.474081006202548 	-3.46944695195361e-17 	0.0718660463075279 	0.0233169847105698 	1.71281076867236 	0.0025128728124285 	0
2 	0.499270241132364 	-3.46944695195361e-17 	0.0718119446775542 	0.0240143054259448 	1.74340593598413 	0.00279082603782812 	0
2 	0.525382231502763 	-3.12250225675825e-17 	0.0717750284066863 	0.0247498471727097 	1.78525139635642 	0.00311874445675232 	0
2 	0.552450780547767 	-2.42861286636753e-17 	0.071762728760995 	0.0255376055781763 	1.8408311880753 	0.00351068965484847 	0
2 	0.58051092981285 	-1.73472347597681e-17 	0.0717847485264158 	0.026396175075431 	1.91346980650903 	0.00398475632217479 	0
2 	0.609599004517911 	-3.46944695195361e-18 	0.071854733574607 	0.0273496473203921 	2.0075429945173 	0.00456343390383685 	0
2 	0.639752660582033 	1.04083408558608e-17 	0.0719931388654167 	0.02842626171068 	2.12858886875945 	0.00527987761512915 	0
2 	0.671010933370887 	1.04083408558608e-17 	0.0722175732615223 	0.0296659488965312 	2.28252624283027 	0.00620890905444532 	0
2 	0.703414288229901 	1.73472347597681e-17 	0.0724888934604226 	0.031112783150981 	2.46868054272067 	0.00751809906170795 	0
2 	0.737004672868606 	2.08166817117217e-17 	0.0727735769360473 	0.0328303298664115 	2.6785989449898 	0.00923579309984501 	0
2 	0.771825571663976 	1.75640751942652e-17 	0.0731243299409369 	0.0349036585287079 	2.9086950778355 	0.0115473190175234 	0
2 	0.807922061953053 	1.84314369322536e-17 	0.0735892834040695 	0.0373667940190319 	3.15630540891562 	0.0142875694003621 	0
2 	0.845340872387742 	1.38777878078145e-17 	0.074149154767484 	0.040113590032537 	3.4056415019519 	0.0171466196682714 	0
2 	0.884130443427309 	6.07153216591882e-18 	0.0747545295322001 	0.0428554617978296 	3.62540901768447 	0.0198152163941028 	0
2 	0.924340990046898 	1.73472347597681e-18 	0.0753834067192251 	0.0452998140426368 	3.79312810230333 	0.0220985957795152 	0
2 	0.966024566743242 	0 	0.0760543533948209 	0.0471933697868947 	3.89906042273876 	0.0238463351518365 	0
2 	1.00923513492173 	-1.73472347597681e-18 	0.0768048071919586 	0.048317556176548 	3.93343316222972 	0.0248053854833692 	0
2 	1.05402863275206 	0 	0.0776634978997561 	0.0485231990230612 	3.88458845739611 	0.024615678292006 	0
2 	1.10046304758287 	0 	0.0786672398311577 	0.0478026297425126 	3.7437926043748 	0.0230153237372401 	0
2 	1.14859849100923 	0 	0.079894473067775 	0.0463427905184754 	3.51354395829197 	0.0200637104195501 	0
2 	1.1731499461078 	0 	0.0805783613124997 	0.0454653730037038 	3.3768961544432 	0.0182663166647515 	0
2 	1.19854810382362 	-3.46944695195361e-18 	0.0813380375747332 	0.044486187935259 	3.2140131429313 	0.0162336869628192 	0
2 	1.25022400101563 	-1.04083408558608e-17 	0.0828604472747133 	0.042586096803433 	2.87697654796147 	0.0123373645721233 	0
2 	1.30384562673186 	-1.04083408558608e-17 	0.0843563244072622 	0.0409149729195885 	2.54018499105323 	0.00907918893717778 	0
2 	1.35943156962566 	-6.93889390390723e-18 	0.0858109810825221 	0.0395707809745543 	2.2367074540074 	0.00673122440421 	0
2 	1.41705378838763 	-1.04083408558608e-17 	0.0872419932329264 	0.0384832237862961 	1.98147687694552 	0.00519817438614328 	0
2 	1.47678687776592 	-1.04083408558608e-17 	0.0886670109482105 	0.0375098589131383 	1.77476019925042 	0.00423847454210784 	0
2 	1.53870816513278 	-1.21430643318376e-17 	0.0901033687002797 	0.036507425173164 	1.60798745418681 	0.00362072100393261 	0
2 	1.60289781058851 	-1.38777878078145e-17 	0.0915791634990938 	0.0353418243734106 	1.46879045014858 	0.00318386568885512 	0
2 	1.66943891073267 	-6.93889390390723e-18 	0.0930940391035418 	0.0339464501159572 	1.34523591771565 	0.0028092169715557 	0
2 	1.73841760623657 	-5.20417042793042e-18 	0.094643739061141 	0.0323109927612146 	1.2345674368817 	0.00244739093103948 	0
2 	1.8099231933566 	-1.04083408558608e-17 	0.0962176285458488 	0.0304595307777666 	1.13550277359332 	0.0020835264953064 	0
2 	1.87639343533151 	-1.38777878078145e-17 	0.0976386770378869 	0.0286463555038492 	1.05490590295757 	0.00175847749335448 	0
2 	1.91412260223978 	-1.73472347597681e-17 	0.0984268556086831 	0.027596640100173 	1.01249796368817 	0.00158004067206937 	0
2 	1.96088870322038 	-1.73472347597681e-17 	0.0992883877974481 	0.0263961828022483 	0.969105615161661 	0.00138730283637854 	0
2 	2.02025965173185 	-1.38777878078145e-17 	0.1004823696515 	0.024719910111276 	0.913995997865735 	0.00113084759615998 	0
2 	2.06006301192217 	-1.38777878078145e-17 	0.101300489065076 	0.0235228417172599 	0.878911217600278 	0.00096642294580451 	0
2 	2.09845978584128 	-1.38777878078145e-17 	0.102005343069518 	0.0224716583270332 	0.850869759176372 	0.000831251977418043 	0
2 	2.13549967996946 	-1.38777878078145e-17 	0.102670747248787 	0.0214799989481528 	0.826808113647623 	0.000710667999235022 	0
2 	2.17123064424048 	-1.38777878078145e-17 	0.10329276501294 	0.0205473647436479 	0.806451723834133 	0.000604126222340257 	0
2 	2.20569893411516 	-2.08166817117217e-17 	0.103873300556252 	0.0196720096251606 	0.789554007985207 	0.000510251453570017 	0
2 	2.23894917046123 	-2.77555756156289e-17 	0.104414866381653 	0.0188513488723358 	0.775900327760978 	0.000427769601910202 	0
2 	2.27102439731726 	-2.77555756156289e-17 	0.104919688011133 	0.0180823023516809 	0.765310733120087 	0.00035547998069366 	0
2 	2.30196613761522 	-3.12250225675825e-17 	0.105389886340332 	0.0173615642621183 	0.757641416073997 	0.000292282878777374 	0
2 	2.33181444693392 	-3.46944695195361e-17 	0.10582752529395 	0.0166858016462455 	0.75278519129514 	0.00023719712472322 	0
2 	2.3606079653529 	-3.81639164714898e-17 	0.106234594871494 	0.016051791621028 	0.750671430337126 	0.000189367595119779 	0
2 	2.38838396747391 	-3.81639164714898e-17 	0.106613000677652 	0.0154565099184725 	0.751265823466238 	0.000148067310432717 	0
2 	2.41517841067461 	-3.46944695195361e-17 	0.106964559866288 	0.0148971829037763 	0.75457024782947 	0.000112696378223375 	0
2 	2.44102598165722 	-3.81639164714898e-17 	0.10729099937565 	0.0143713134851183 	0.760622934282688 	8.27791131975338e-05 	0
2 	2.46596014135208 	-4.16333634234434e-17 	0.107593955773787 	0.0138766892059722 	0.769499059488928 	5.79604302162711e-05 	0
2 	2.49001316823444 	-4.16333634234434e-17 	0.10787497646357 	0.0134113787783562 	0.781311842356695 	3.80023674892922e-05 	0
2 	2.51321620011054 	-4.16333634234434e-17 	0.108135521870273 	0.012973721562721 	0.796214188772257 	2.27813470145783e-05 	0
2 	2.535599274427 	-4.16333634234434e-17 	0.108376968264549 	0.0125623130722647 	0.814400900238731 	1.22865478848026e-05 	0
2 	2.55719136715571 	-3.81639164714898e-17 	0.108600610953391 	0.0121759884531484 	0.836111435714547 	6.61955271962603e-06 	0
2 	2.57802043030466 	-3.81639164714898e-17 	0.108807667642493 	0.0118138050188295 	0.861633187891833 	5.99521864032019e-06 	0
2 	2.59811342810315 	-4.16333634234434e-17 	0.108999281831929 	0.01147502424453 	0.89130520269134 	1.07435123653011e-05 	0
2 	2.61749637190832 	-3.81639164714898e-17 	0.109176526155349 	0.0111590931121864 	0.925522232585689 	2.13118273358328e-05 	0
2 	2.63619435387806 	-3.46944695195361e-17 	0.109340405611652 	0.0108656243059203 	0.964738971294936 	3.82670696985026e-05 	0
2 	2.65423157945406 	-3.81639164714898e-17 	0.109491860668325 	0.010594374479055 	1.00947427342941 	6.22965731003572e-05 	0
2 	2.67163139869691 	-4.16333634234434e-17 	0.109631770238559 	0.0103452196508963 	1.06031512646743 	9.42067128776312e-05 	0
2 	2.68841633651388 	-4.16333634234434e-17 	0.109760954550712 	0.0101181267685775 	1.11792012899836 	0.000134917996580788 	0
2 	2.70460812181851 	-4.16333634234434e-17 	0.109880177939208 	0.00991312062498186 	1.18302226077557 	0.000185455494208272 	0
2 	2.72022771565972 	-4.16333634234434e-17 	0.109990151590681 	0.00973024570257837 	1.25643083625833 	0.000246933840674017 	0
2 	2.73529533835695 	-4.16333634234434e-17 	0.110091536277929 	0.00956952314865466 	1.33903274754283 	0.000320536794343366 	0
2 	2.74983049567626 	-3.81639164714898e-17 	0.110184945107 	0.00943090397877899 	1.43179345564823 	0.000407492527372329 	0
2 	2.76385200408157 	-3.46944695195361e-17 	0.110270946289681 	0.00931422068898029 	1.5357586977788 	0.000509047424178722 	0
2 	2.77737801509344 	-3.81639164714898e-17 	0.110350065935569 	0.00921914058552527 	1.65205853135171 	0.000626443006011429 	0
2 	2.79042603878708 	-3.81639164714898e-17 	0.110422790836835 	0.00914512508035036 	1.78191608270642 	0.000760902363552015 	0
2 	2.80301296646003 	-3.46944695195361e-17 	0.110489571197516 	0.00909139966133782 	1.92666411732395 	0.000913633738373152 	0
2 	2.81515509249873 	-3.46944695195361e-17 	0.110550823241648 	0.0090569389564221 	2.08777318031794 	0.00108585922369487 	0
2 	2.82686813547238 	-3.46944695195361e-17 	0.11060693162473 	0.00904047010764614 	2.26689546069724 	0.00127887569304751 	0
2 	2.83816725848143 	-3.12250225675825e-17 	0.110658251574268 	0.00904049559467094 	2.46592865773525 	0.00149415305659484 	0
2 	2.84906708878692 	-2.77555756156289e-17 	0.110705110699245 	0.0090553339719862 	2.68710402387964 	0.00173347219243994 	0
2 	2.85958173674617 	-2.77555756156289e-17 	0.110747810435599 	0.00908317417381089 	2.93310260436725 	0.00199910207402381 	0
2 	2.86972481407933 	-2.77555756156289e-17 	0.110786627133388 	0.00912213662059391 	3.20720378190759 	0.00229401342283744 	0
2 	2.87950945149043 	-2.42861286636753e-17 	0.110821812831608 	0.00917033275711521 	3.51347092916435 	0.00262212511579841 	0
2 	2.88894831566567 	-2.08166817117217e-17 	0.110853595788037 	0.00922591406467145 	3.85698065893461 	0.00298857952912611 	0
2 	2.89805362567107 	-2.08166817117217e-17 	0.110882180873227 	0.00928710195832074 	4.24410524271581 	0.00340004334088274 	0
2 	2.90683716877067 	-2.08166817117217e-17 	0.110907750261382 	0.00935219106360703 	4.68286274411889 	0.00386502975534271 	0
2 	2.9153103156857 	-2.08166817117217e-17 	0.110930465314684 	0.00941951992874872 	5.18335714119519 	0.00439423485257315 	0
2 	2.92348403531449 	-2.08166817117217e-17 	0.110950467621657 	0.00948740530645623 	5.75834292424831 	0.00500087314030203 	0
2 	2.9313689089323 	-1.73472347597681e-17 	0.110967867449649 	0.00955403938629269 	6.42396880676669 	0.00570099716589744 	0
2 	2.93897514388925 	-1.73472347597681e-17 	0.11098272774025 	0.00961735489524657 	7.2007890041331 	0.00651703718008912 	0
2 	2.94631258682425 	-2.08166817117217e-17 	0.110995232332215 	0.00967474890904266 	8.11546925452053 	0.00748493203758189 	0
2 	2.95339073641193 	-1.73472347597681e-17 	0.111005910337836 	0.00972234187486027 	9.20405212308196 	0.0086486705145832 	0
2 	2.96021875565916 	-1.38777878078145e-17 	0.111014871108133 	0.0097537541333813 	10.5152944150716 	0.0100481064472296 	0
2 	2.96680548376697 	-1.38777878078145e-17 	0.11102167743191 	0.00975884679474096 	12.1095264549985 	0.0117337279827996 	0
2 	2.97315944757337 	-1.38777878078145e-17 	0.111026141103058 	0.00972174740492701 	14.0577770474207 	0.0137256876034115 	0
2 	2.97928887259171 	-1.38777878078145e-17 	0.11102833109814 	0.00961979390969874 	16.4484485157237 	0.016028489221617 	0
2 	2.98520169365903 	-1.38777878078145e-17 	0.111028423936546 	0.00942215915730611 	19.3989651979123 	0.0186211167916793 	0
2 	2.99090556520807 	-1.38777878078145e-17 	0.111026682426708 	0.00908781122712623 	23.0751268931945 	0.0214203052257529 	0
2 	2.99640787117633 	-1.38777878078145e-17 	0.11102346706615 	0.0085634264557986 	27.7269935347404 	0.0242078308038396 	0
2 	3.00171573456492 	-1.38777878078145e-17 	0.111019226500176 	0.00778401302735161 	33.7635252180761 	0.0265303561687737 	0
2 	3.00683602665963 	-1.73472347597681e-17 	0.111014430189023 	0.00668172996355693 	41.9413948143101 	0.0275755127966729 	0
2 	3.01177537592613 	-2.42861286636753e-17 	0.111009565551128 	0.00521013128720664 	53.9287821532545 	0.0257085461827704 	0
2 	3.01654017659085 	-2.77555756156289e-17 	0.111005293591549 	0.00343647856723901 	74.2607016750724 	0.0187306216704049 	0
2 	3.02113659691864 	-2.77555756156289e-17 	0.111002113300811 	0.00173512538642039 	118.597775240794 	0.00903001662727615 	0
2 	3.02557058719784 	-3.12250225675825e-17 	0.11099984206014 	0.000602559271923114 	258.33739757626 	0.00244394990600467 	0
2 	3.02984788744324 	-3.46944695195361e-17 	0.110997949512415 	0.000126794142637883 	1051.88003879994 	0.00031436972621314 	0
