2 	0.00391112967796261 	1.10588621593521e-17 	-0.0241673249310303 	0.000107891228340501 	-3.79891748337397e-16
2 	0.0118766651674913 	1.95156391047391e-17 	-0.0717240037515145 	0.000552540891197537 	5.05326275945337e-16
2 	0.0201340015485761 	2.16840434497101e-17 	-0.117431678390348 	0.00141935706213527 	1.51257626548751e-17
2 	0.028693828342395 	1.69135538907739e-17 	-0.155966546170142 	0.00254406351677477 	-1.12781165743397e-22
2 	0.0375672266585909 	8.23993651088983e-18 	-0.181484536386398 	0.00366037210431901 	-6.10176824187387e-21
2 	0.0467656835403032 	2.60208521396521e-18 	-0.195108562814763 	0.00463617324635186 	8.34793933250726e-21
2 	0.0563011068347007 	-2.60208521396521e-18 	-0.201508073073633 	0.00549055206793041 	2.51770598087853e-18
2 	0.0661858406082648 	-6.07153216591882e-18 	-0.204047105213461 	0.00627024298804634 	3.46570266277015e-18
2 	0.0764326811267815 	-6.07153216591882e-18 	-0.204464607272185 	0.00700408899726068 	-1.64382235472117e-18
2 	0.0870548934207258 	-8.67361737988404e-19 	-0.203611970783821 	0.00770770788706068 	-2.62016769682926e-18
2 	0.0980662284574839 	-2.60208521396521e-18 	-0.201922850350962 	0.00839026523521377 	3.53380950415797e-22
2 	0.109480940942647 	-1.21430643318376e-17 	-0.199631642340192 	0.00905740146394232 	3.15632356151884e-23
2 	0.121313807773417 	-1.04083408558608e-17 	-0.196871744073732 	0.00971254600728804 	-1.62062450247977e-21
2 	0.13358014716801 	-3.46944695195361e-18 	-0.19372170150814 	0.0103576587590595 	-7.25558304617841e-18
2 	0.146295838495838 	1.73472347597681e-18 	-0.190228241248406 	0.0109936716313712 	-9.73953603314694e-17
2 	0.159477342834115 	1.73472347597681e-18 	-0.186418463675736 	0.0116207439077254 	8.80445732608023e-17
2 	0.173141724277517 	3.46944695195361e-18 	-0.182306636465072 	0.012238405504301 	8.67024974195317e-18
2 	0.18730667202848 	1.38777878078145e-17 	-0.177898138959533 	0.0128456326614491 	1.35156867377055e-21
2 	0.201990523296728 	1.73472347597681e-17 	-0.17319182118256 	0.0134408802470511 	2.86129645040407e-21
2 	0.217212287037676 	3.46944695195361e-18 	-0.168181435335873 	0.0140220836657132 	5.48041502494023e-24
2 	0.232991668560441 	-1.04083408558608e-17 	-0.162856496594489 	0.01458663743949 	-1.45361617151168e-23
2 	0.249349095037321 	-1.04083408558608e-17 	-0.15720277259397 	0.0151313541359711 	6.17364673827283e-22
2 	0.266305741947753 	-1.38777878078145e-17 	-0.151202514291623 	0.0156524052242223 	1.36190693699646e-21
2 	0.283883560490999 	-1.38777878078145e-17 	-0.144834490155811 	0.0161452440836679 	2.25806741839325e-22
2 	0.30210530600303 	-1.73472347597681e-17 	-0.138073853458464 	0.0166045105064278 	0
2 	0.320994567414414 	-3.12250225675825e-17 	-0.130891849486451 	0.0170239155118642 	4.70391963051668e-22
2 	0.340575797787321 	-3.46944695195361e-17 	-0.123255350288285 	0.0173961051534289 	1.51716891113706e-21
2 	0.360874345971201 	-3.46944695195361e-17 	-0.115126185480794 	0.0177125024033321 	-2.03996340626294e-23
2 	0.379381853751547 	-3.81639164714898e-17 	-0.107518558556842 	0.017937624278098 	-1.47348286530536e-21
2 	0.390092168053834 	-4.16333634234434e-17 	-0.103048288927422 	0.0180456496300634 	-2.19489894582502e-21
2 	0.403729468200046 	-3.46944695195361e-17 	-0.0972190733972173 	0.0181383176630212 	-1.09844052816569e-17
2 	0.426341520272734 	-2.77555756156289e-17 	-0.087338089776016 	0.0182242500865505 	-9.7111546338719e-18
2 	0.449781918030829 	-3.12250225675825e-17 	-0.0767429673588047 	0.0182051669896366 	1.10098895340315e-17
2 	0.474081006202548 	-3.46944695195361e-17 	-0.06534960521687 	0.0180637434517951 	9.67626690952121e-18
2 	0.499270241132364 	-3.46944695195361e-17 	-0.053055916515483 	0.0177804415804755 	2.17624817053538e-21
2 	0.525382231502763 	-3.12250225675825e-17 	-0.0397363360421402 	0.0173336304609676 	2.30154426551507e-21
2 	0.552450780547767 	-2.42861286636753e-17 	-0.0252344975302418 	0.016700000991417 	2.91896504810155e-21
2 	0.58051092981285 	-1.73472347597681e-17 	-0.0093536999025875 	0.0158555228803221 	6.90372960462865e-21
2 	0.609599004517911 	-3.46944695195361e-18 	0.00815507468043618 	0.0147781671887801 	5.74256758066748e-22
2 	0.639752660582033 	1.04083408558608e-17 	0.0276075524047731 	0.0134561272942053 	1.08867482824298e-21
2 	0.671010933370887 	1.04083408558608e-17 	0.0494176532691273 	0.0118945479815322 	9.95810154212927e-21
2 	0.703414288229901 	1.73472347597681e-17 	0.0742324228667847 	0.0100456144966324 	1.16827975720036e-17
2 	0.737004672868606 	2.08166817117217e-17 	0.103376501289807 	0.00782590231446753 	2.58322445917945e-16
2 	0.771825571663976 	1.75640751942652e-17 	0.138642168969554 	0.00507432436696402 	-3.038886081341e-16
2 	0.807922061953053 	1.84314369322536e-17 	0.181321223837583 	0.00175639257137204 	-3.11529212937489e-18
2 	0.845340872387742 	1.38777878078145e-17 	0.231243295678672 	-0.0019632488591058 	-5.98590484261689e-18
2 	0.884130443427309 	6.07153216591882e-18 	0.287084954946186 	-0.00584786056022203 	-1.37479251305152e-16
2 	0.924340990046898 	1.73472347597681e-18 	0.347461951554371 	-0.00968907421997511 	1.04091959122923e-16
2 	0.966024566743242 	0 	0.411282037872963 	-0.0132944812102755 	1.72366211427785e-17
2 	1.00923513492173 	-1.73472347597681e-18 	0.477613080592258 	-0.0164401722914885 	1.42823513219741e-23
2 	1.05402863275206 	0 	0.54523498081568 	-0.0188822513854224 	7.25146128493918e-21
2 	1.10046304758287 	0 	0.612312601290396 	-0.0204086939770919 	4.22037281230991e-21
2 	1.14859849100923 	0 	0.676548190595808 	-0.0209093605066666 	-5.88203346791124e-21
2 	1.1731499461078 	0 	0.707722044897292 	-0.0209009722634127 	-9.86945297518196e-21
2 	1.19854810382362 	-3.46944695195361e-18 	0.736055333652429 	-0.02054008294512 	-1.62066600476496e-20
2 	1.25022400101563 	-1.04083408558608e-17 	0.789150702590477 	-0.0196190222263678 	-2.65194280585533e-20
2 	1.30384562673186 	-1.04083408558608e-17 	0.83507117891531 	-0.0185346552050861 	-1.25469256017942e-20
2 	1.35943156962566 	-6.93889390390723e-18 	0.874297357503641 	-0.0175976022581194 	5.89864279019506e-21
2 	1.41705378838763 	-1.04083408558608e-17 	0.908214383316953 	-0.0169138092012812 	5.44787554020563e-21
2 	1.47678687776592 	-1.04083408558608e-17 	0.938356464661004 	-0.0164516863476438 	2.557214758435e-20
2 	1.53870816513278 	-1.21430643318376e-17 	0.965980564616255 	-0.0161225930092775 	-2.72617173170811e-20
2 	1.60289781058851 	-1.38777878078145e-17 	0.991800932987156 	-0.0158227108438864 	-1.07404675060744e-21
2 	1.66943891073267 	-6.93889390390723e-18 	1.01634929711697 	-0.0154630149247466 	1.69086160309488e-20
2 	1.73841760623657 	-5.20417042793042e-18 	1.03973984724123 	-0.0149943638721259 	-1.50186464403158e-20
2 	1.8099231933566 	-1.04083408558608e-17 	1.06193833983125 	-0.0143980970686288 	-2.66757185021266e-20
2 	1.87639343533151 	-1.38777878078145e-17 	1.08078629214854 	-0.0137596939542787 	-3.61082949528495e-21
2 	1.91412260223978 	-1.73472347597681e-17 	1.09090971197342 	-0.0133783947272694 	-5.85510622543565e-22
2 	1.96088870322038 	-1.73472347597681e-17 	1.10153858939649 	-0.0129132538429579 	0
2 	2.02025965173185 	-1.38777878078145e-17 	1.11535678032613 	-0.0122614624942034 	0
2 	2.06006301192217 	-1.38777878078145e-17 	1.12449482634185 	-0.0117762306428413 	0
2 	2.09845978584128 	-1.38777878078145e-17 	1.13211967444439 	-0.0113386508165036 	0
2 	2.13549967996946 	-1.38777878078145e-17 	1.13899540734841 	-0.0109211578098586 	0
2 	2.17123064424048 	-1.38777878078145e-17 	1.14518865666367 	-0.0105210631322789 	0
2 	2.20569893411516 	-2.08166817117217e-17 	1.15075909245515 	-0.0101394821778508 	0
2 	2.23894917046123 	-2.77555756156289e-17 	1.15575985398111 	-0.00977672397501003 	0
2 	2.27102439731726 	-2.77555756156289e-17 	1.1602380243723 	-0.00943251677235029 	0
2 	2.30196613761522 	-3.12250225675825e-17 	1.16423509458443 	-0.00910628469189674 	0
2 	2.33181444693392 	-3.46944695195361e-17 	1.1677873989422 	-0.00879724905134432 	0
2 	2.3606079653529 	-3.81639164714898e-17 	1.17092651672919 	-0.00850449397608585 	0
2 	2.38838396747391 	-3.81639164714898e-17 	1.17367963789355 	-0.0082270250081343 	0
2 	2.41517841067461 	-3.46944695195361e-17 	1.17606989210505 	-0.00796381600461726 	0
2 	2.44102598165722 	-3.81639164714898e-17 	1.17811664088683 	-0.00771384427070268 	0
2 	2.46596014135208 	-4.16333634234434e-17 	1.17983573295228 	-0.00747611592229231 	0
2 	2.49001316823444 	-4.16333634234434e-17 	1.181239723442 	-0.00724968334196498 	0
2 	2.51321620011054 	-4.16333634234434e-17 	1.18233805851444 	-0.00703365635960086 	0
2 	2.535599274427 	-4.16333634234434e-17 	1.18313722767379 	-0.00682720860980265 	0
2 	2.55719136715571 	-3.81639164714898e-17 	1.18364088729686 	-0.00662958031563379 	0
2 	2.57802043030466 	-3.81639164714898e-17 	1.18384996004441 	-0.0064400785315644 	0
2 	2.59811342810315 	-4.16333634234434e-17 	1.18376271621029 	-0.00625807566882964 	0
2 	2.61749637190832 	-3.81639164714898e-17 	1.18337484456021 	-0.0060830069333602 	0
2 	2.63619435387806 	-3.46944695195361e-17 	1.18267952177854 	-0.00591436713246856 	0
2 	2.65423157945406 	-3.81639164714898e-17 	1.18166749113532 	-0.00575170715035136 	0
2 	2.67163139869691 	-4.16333634234434e-17 	1.18032716215282 	-0.00559463025129904 	0
2 	2.68841633651388 	-4.16333634234434e-17 	1.17864474349742 	-0.00544278824041467 	-2.54097401344315e-16
2 	2.70460812181851 	-4.16333634234434e-17 	1.17660442051241 	-0.0052958773934788 	-6.07965311246636e-16
2 	2.72022771565972 	-4.16333634234434e-17 	1.17418858610411 	-0.00515363396246542 	6.5794207750954e-16
2 	2.73529533835695 	-4.16333634234434e-17 	1.17137812847039 	-0.0050158289776509 	2.65298920529162e-16
2 	2.74983049567626 	-3.81639164714898e-17 	1.16815277098851 	-0.0048822620125441 	0
2 	2.76385200408157 	-3.46944695195361e-17 	1.16449144848555 	-0.00475275356889332 	0
2 	2.77737801509344 	-3.81639164714898e-17 	1.16037269084005 	-0.00462713579121477 	0
2 	2.79042603878708 	-3.81639164714898e-17 	1.15577497101624 	-0.00450524134447678 	0
2 	2.80301296646003 	-3.46944695195361e-17 	1.15067696258852 	-0.00438689048494509 	0
2 	2.81515509249873 	-3.46944695195361e-17 	1.14505764428454 	-0.00427187660727332 	0
2 	2.82686813547238 	-3.46944695195361e-17 	1.13889618835195 	-0.00415995082853305 	0
2 	2.83816725848143 	-3.12250225675825e-17 	1.13217157665794 	-0.00405080642812626 	0
2 	2.84906708878692 	-2.77555756156289e-17 	1.12486190249543 	-0.00394406415664146 	0
2 	2.85958173674617 	-2.77555756156289e-17 	1.11694333428755 	-0.00383925952412781 	0
2 	2.86972481407933 	-2.77555756156289e-17 	1.1083887356214 	-0.00373583316895482 	0
2 	2.87950945149043 	-2.42861286636753e-17 	1.09916594995771 	-0.00363312531634814 	0
2 	2.88894831566567 	-2.08166817117217e-17 	1.08923576456361 	-0.00353037524465848 	0
2 	2.89805362567107 	-2.08166817117217e-17 	1.07854956505668 	-0.00342672668511079 	0
2 	2.90683716877067 	-2.08166817117217e-17 	1.06704667966284 	-0.0033212398234618 	0
2 	2.9153103156857 	-2.08166817117217e-17 	1.05465139238703 	-0.00321290888191669 	0
2 	2.92348403531449 	-2.08166817117217e-17 	1.04126957817767 	-0.00310068510614946 	0
2 	2.9313689089323 	-1.73472347597681e-17 	1.02678487931256 	-0.00298352831883515 	0
2 	2.93897514388925 	-1.73472347597681e-17 	1.01105426400507 	-0.0028605639240452 	0
2 	2.94631258682425 	-2.08166817117217e-17 	0.99389500766475 	-0.00273081742255403 	0
2 	2.95339073641193 	-1.73472347597681e-17 	0.97504340462958 	-0.00259211571891018 	0
2 	2.96021875565916 	-1.38777878078145e-17 	0.954111930788101 	-0.00244193276841147 	0
2 	2.96680548376697 	-1.38777878078145e-17 	0.93063020897038 	-0.00227759249144018 	0
2 	2.97315944757337 	-1.38777878078145e-17 	0.904099631724212 	-0.0020983122061096 	0
2 	2.97928887259171 	-1.38777878078145e-17 	0.873962895810465 	-0.00190490580054935 	0
2 	2.98520169365903 	-1.38777878078145e-17 	0.839557285048548 	-0.00169937053686832 	0
2 	2.99090556520807 	-1.38777878078145e-17 	0.800065057152754 	-0.00148481717496698 	0
2 	2.99640787117633 	-1.38777878078145e-17 	0.754449772385459 	-0.00126528938810432 	0
2 	3.00171573456492 	-1.38777878078145e-17 	0.701397311548719 	-0.00104558591017003 	0
2 	3.00683602665963 	-1.73472347597681e-17 	0.639288432417148 	-0.000831400967912041 	0
2 	3.01177537592613 	-2.42861286636753e-17 	0.56610935603628 	-0.000628992816767819 	0
2 	3.01654017659085 	-2.77555756156289e-17 	0.479612940088726 	-0.000443228684848895 	0
2 	3.02113659691864 	-2.77555756156289e-17 	0.379696294953474 	-0.000280173860025873 	0
2 	3.02557058719784 	-3.12250225675825e-17 	0.271242263055823 	-0.000149177395310564 	0
2 	3.02984788744324 	-3.46944695195361e-17 	0.161177609045356 	-5.87681188021443e-05 	0
