/*--------------------------------*- C++ -*----------------------------------*\
  =========                 |
  \\      /  F ield         | OpenFOAM: The Open Source CFD Toolbox
   \\    /   O peration     | Website:  https://openfoam.org
    \\  /    A nd           | Version:  7
     \\/     M anipulation  |
\*---------------------------------------------------------------------------*/
FoamFile
{
    version     2.0;
    format      ascii;
    class       volSymmTensorField;
    location    "0";
    object      tauij_LES;
}
// * * * * * * * * * * * * * * * * * * * * * * * * * * * * * * * * * * * * * //

dimensions      [0 2 -2 0 0 0 0];

internalField   nonuniform List<symmTensor>
15600
(
(0.02762033 -0.00054453 0.00000000 0.00019435 0.00000000 0.01366125)
(0.02402331 -0.00017448 0.00000000 -0.00004085 0.00000000 0.01065070)
(-0.00065651 -0.00064002 0.00000000 0.00067491 0.00000000 0.00401412)
(0.00072777 -0.00074119 0.00000000 0.00071857 0.00000000 0.00240017)
(-0.00016901 -0.00019828 0.00000000 0.00045060 0.00000000 0.00147069)
(0.00021168 -0.00014316 0.00000000 0.00002365 0.00000000 0.00041272)
(-0.00000597 -0.00011627 0.00000000 0.00040608 0.00000000 0.00150701)
(0.00008124 -0.00006112 0.00000000 0.00001592 0.00000000 0.00054027)
(0.00009231 -0.00010819 0.00000000 0.00012482 0.00000000 0.00081016)
(0.00007093 -0.00008840 0.00000000 0.00011650 0.00000000 0.00083138)
(0.00005521 -0.00007003 0.00000000 0.00009337 0.00000000 0.00070507)
(0.00007025 -0.00009708 0.00000000 0.00013276 0.00000000 0.00065532)
(0.00002476 -0.00003552 0.00000000 0.00005569 0.00000000 0.00043642)
(0.00002617 -0.00004684 0.00000000 0.00008017 0.00000000 0.00038482)
(-0.00001996 0.00001924 0.00000000 -0.00001297 0.00000000 0.00023332)
(-0.00001654 0.00001646 0.00000000 -0.00001436 0.00000000 0.00041863)
(0.00007765 -0.00011852 0.00000000 0.00018756 0.00000000 0.00114960)
(0.00003230 -0.00007294 0.00000000 0.00014604 0.00000000 0.00109872)
(0.00000218 0.00000138 0.00000000 -0.00000309 0.00000000 0.00069467)
(0.00000806 0.00001176 0.00000000 -0.00004324 0.00000000 0.00030105)
(0.00012979 -0.00015460 0.00000000 0.00019889 0.00000000 0.00139335)
(0.00004749 -0.00006544 0.00000000 0.00009479 0.00000000 0.00085387)
(0.00000199 0.00002468 0.00000000 -0.00007444 0.00000000 0.00045468)
(0.00003603 -0.00006101 0.00000000 0.00009863 0.00000000 0.00146280)
(0.00005909 -0.00004676 0.00000000 0.00003336 0.00000000 0.00086245)
(-0.00000318 -0.00001681 0.00000000 0.00004276 0.00000000 0.00081055)
(0.00000971 -0.00001880 0.00000000 0.00003235 0.00000000 0.00112312)
(0.00017295 -0.00014865 0.00000000 0.00012170 0.00000000 0.00154491)
(0.00008384 -0.00008626 0.00000000 0.00010085 0.00000000 0.00145274)
(0.00014333 -0.00009283 0.00000000 0.00005860 0.00000000 0.00092083)
(0.00026550 -0.00018232 0.00000000 0.00013252 0.00000000 0.00158468)
(0.00036130 -0.00021417 0.00000000 0.00013199 0.00000000 0.00142246)
(0.00021579 -0.00012276 0.00000000 0.00007526 0.00000000 0.00097348)
(0.00057676 -0.00010507 0.00000000 0.00003220 0.00000000 0.00210471)
(0.00045687 -0.00000129 0.00000000 -0.00000310 0.00000000 0.00069990)
(0.00035679 -0.00000140 0.00000000 -0.00000316 0.00000000 0.00051944)
(0.00039138 -0.00000159 0.00000000 -0.00000332 0.00000000 0.00051792)
(0.00043361 -0.00000143 0.00000000 -0.00000365 0.00000000 0.00053176)
(0.00047481 -0.00000164 0.00000000 -0.00000364 0.00000000 0.00054472)
(0.00052389 -0.00000136 0.00000000 -0.00000350 0.00000000 0.00057295)
(0.00057459 -0.00000138 0.00000000 -0.00000304 0.00000000 0.00060252)
(0.00062429 -0.00000124 0.00000000 -0.00000321 0.00000000 0.00062718)
(0.00064570 -0.00000201 0.00000000 -0.00000490 0.00000000 0.00063368)
(0.00070653 -0.00000196 0.00000000 -0.00000478 0.00000000 0.00066427)
(0.00075639 -0.00000155 0.00000000 -0.00000438 0.00000000 0.00070186)
(0.00078368 -0.00000213 0.00000000 -0.00000557 0.00000000 0.00072180)
(0.00085802 -0.00000174 0.00000000 -0.00000510 0.00000000 0.00077173)
(0.00092424 -0.00000173 0.00000000 -0.00000498 0.00000000 0.00081243)
(0.00097923 -0.00000178 0.00000000 -0.00000543 0.00000000 0.00084249)
(0.00102524 -0.00000202 0.00000000 -0.00000634 0.00000000 0.00087251)
(0.00109671 -0.00000183 0.00000000 -0.00000582 0.00000000 0.00091286)
(0.00115307 -0.00000157 0.00000000 -0.00000602 0.00000000 0.00094557)
(0.00120450 -0.00000140 0.00000000 -0.00000658 0.00000000 0.00098444)
(0.00125422 -0.00000131 0.00000000 -0.00000673 0.00000000 0.00101701)
(0.00130838 -0.00000137 0.00000000 -0.00000709 0.00000000 0.00105146)
(0.00140543 -0.00000022 0.00000000 -0.00000589 0.00000000 0.00110432)
(0.00141154 -0.00000153 0.00000000 -0.00000869 0.00000000 0.00112157)
(0.00148849 -0.00000125 0.00000000 -0.00000960 0.00000000 0.00117986)
(0.00158374 -0.00000016 0.00000000 -0.00000844 0.00000000 0.00125117)
(0.00168732 0.00000049 0.00000000 -0.00000815 0.00000000 0.00132954)
(0.00176167 0.00000061 0.00000000 -0.00000965 0.00000000 0.00138794)
(0.00191619 0.00000320 0.00000000 -0.00000744 0.00000000 0.00150555)
(0.00199090 0.00000266 0.00000000 -0.00001047 0.00000000 0.00157640)
(0.00208301 0.00000226 0.00000000 -0.00001231 0.00000000 0.00165919)
(0.00230339 0.00000759 0.00000000 -0.00000793 0.00000000 0.00183379)
(0.00234171 0.00000554 0.00000000 -0.00001266 0.00000000 0.00191921)
(0.00252767 0.00000968 0.00000000 -0.00000981 0.00000000 0.00209553)
(0.00260831 0.00000824 0.00000000 -0.00001508 0.00000000 0.00219844)
(0.00278739 0.00001157 0.00000000 -0.00001280 0.00000000 0.00236067)
(0.00289471 0.00001076 0.00000000 -0.00001680 0.00000000 0.00246904)
(0.00308964 0.00001465 0.00000000 -0.00001509 0.00000000 0.00264361)
(0.00320890 0.00001453 0.00000000 -0.00001986 0.00000000 0.00276925)
(0.00343740 0.00001938 0.00000000 -0.00001748 0.00000000 0.00297577)
(0.00358924 0.00001951 0.00000000 -0.00002274 0.00000000 0.00310257)
(0.00383352 0.00002346 0.00000000 -0.00002358 0.00000000 0.00330141)
(0.00413924 0.00003034 0.00000000 -0.00001815 0.00000000 0.00356568)
(0.00435437 0.00003054 0.00000000 -0.00002861 0.00000000 0.00368550)
(0.00469156 0.00003635 0.00000000 -0.00002449 0.00000000 0.00393900)
(0.00513243 0.00004344 0.00000000 -0.00003243 0.00000000 0.00418768)
(0.00565308 0.00005140 0.00000000 -0.00003161 0.00000000 0.00451858)
(0.00628992 0.00005987 0.00000000 -0.00002604 0.00000000 0.00494075)
(0.00689099 0.00006580 0.00000000 -0.00003893 0.00000000 0.00526964)
(0.00757340 0.00007414 0.00000000 -0.00003986 0.00000000 0.00593192)
(0.00790524 0.00008369 0.00000000 -0.00004895 0.00000000 0.00665124)
(0.00735282 0.00009177 0.00000000 -0.00004600 0.00000000 0.00756457)
(0.00567503 0.00013934 0.00000000 -0.00004028 0.00000000 0.01008664)
(0.00140524 0.00052790 0.00000000 0.00023397 0.00000000 0.00699216)
(-0.00004177 -0.00003785 0.00000000 -0.00002518 0.00000000 -0.00005312)
(-0.00006258 -0.00003746 0.00000000 -0.00002598 0.00000000 -0.00010506)
(0.00000286 0.00000112 0.00000000 -0.00000289 0.00000000 0.00014257)
(-0.00000236 0.00001218 0.00000000 0.00002800 0.00000000 -0.00018485)
(-0.00004418 -0.00003320 0.00000000 -0.00002129 0.00000000 -0.00005047)
(-0.00006836 -0.00004823 0.00000000 -0.00004564 0.00000000 0.00003479)
(-0.00012185 -0.00012273 0.00000000 -0.00012553 0.00000000 -0.00066940)
(-0.00014896 -0.00029698 0.00000000 -0.00055109 0.00000000 -0.00107445)
(0.00001550 0.00002638 0.00000000 0.00004340 0.00000000 0.00006229)
(-0.00005546 -0.00006397 0.00000000 -0.00012407 0.00000000 -0.00131399)
(-0.00053526 -0.00081834 0.00000000 -0.00136750 0.00000000 -0.00359192)
(-0.00011077 -0.00028732 0.00000000 -0.00067211 0.00000000 -0.00158781)
(-0.00002587 -0.00006841 0.00000000 -0.00016230 0.00000000 0.00009914)
(0.00007509 0.00010640 0.00000000 0.00014961 0.00000000 0.00043191)
(-0.00020528 -0.00019885 0.00000000 -0.00013427 0.00000000 -0.00166035)
(-0.00051932 -0.00083794 0.00000000 -0.00150966 0.00000000 -0.00647181)
(-0.00002858 -0.00016521 0.00000000 -0.00070315 0.00000000 -0.00211114)
(-0.00011544 -0.00004924 0.00000000 0.00013628 0.00000000 -0.00102051)
(-0.00013326 -0.00019228 0.00000000 -0.00031553 0.00000000 -0.00208493)
(-0.00000277 -0.00008043 0.00000000 -0.00034189 0.00000000 -0.00143714)
(-0.00002387 -0.00020134 0.00000000 -0.00071350 0.00000000 -0.00024133)
(-0.00001366 -0.00014701 0.00000000 -0.00055442 0.00000000 -0.00141212)
(-0.00003448 -0.00015819 0.00000000 -0.00064203 0.00000000 0.00089276)
(0.00008847 -0.00004020 0.00000000 -0.00038934 0.00000000 -0.00081951)
(0.00006365 0.00003043 0.00000000 -0.00010339 0.00000000 0.00037120)
(0.00006319 -0.00008035 0.00000000 -0.00028046 0.00000000 -0.00163426)
(-0.00009125 -0.00009718 0.00000000 -0.00021873 0.00000000 -0.00926599)
(-0.00085291 -0.00059545 0.00000000 -0.00029008 0.00000000 -0.00450918)
(-0.00313108 -0.00140716 0.00000000 -0.00110376 0.00000000 -0.01222562)
(-0.00344446 -0.00164693 0.00000000 -0.00095488 0.00000000 -0.00989884)
(-0.00563820 -0.00152205 0.00000000 -0.00041695 0.00000000 -0.00472549)
(0.02120049 0.00006393 0.00000000 0.00035233 0.00000000 0.00983145)
(0.02504758 -0.00047122 0.00000000 0.00030426 0.00000000 0.01303976)
(0.03858997 -0.00107350 0.00000000 0.00047400 0.00000000 0.01847638)
(0.03488398 -0.00060642 0.00000000 0.00018052 0.00000000 0.01522540)
(0.00352486 -0.00150464 0.00000000 0.00097502 0.00000000 0.00552552)
(0.00109151 -0.00115729 0.00000000 0.00123992 0.00000000 0.00405570)
(-0.00006265 -0.00041767 0.00000000 0.00089704 0.00000000 0.00200382)
(0.00044548 -0.00034117 0.00000000 0.00017242 0.00000000 0.00093601)
(0.00001525 -0.00021107 0.00000000 0.00067048 0.00000000 0.00196252)
(0.00010492 -0.00009377 0.00000000 0.00006686 0.00000000 0.00086485)
(0.00012357 -0.00015737 0.00000000 0.00021129 0.00000000 0.00119411)
(0.00013196 -0.00017911 0.00000000 0.00025816 0.00000000 0.00128163)
(0.00011749 -0.00016145 0.00000000 0.00023100 0.00000000 0.00117049)
(0.00012106 -0.00016473 0.00000000 0.00022815 0.00000000 0.00106146)
(0.00006669 -0.00008876 0.00000000 0.00012649 0.00000000 0.00082055)
(0.00009174 -0.00013525 0.00000000 0.00019778 0.00000000 0.00079953)
(0.00000453 -0.00001891 0.00000000 0.00005077 0.00000000 0.00058379)
(0.00003110 -0.00006200 0.00000000 0.00012063 0.00000000 0.00069252)
(0.00022866 -0.00031129 0.00000000 0.00043876 0.00000000 0.00200137)
(0.00015082 -0.00023590 0.00000000 0.00038323 0.00000000 0.00179101)
(0.00007650 -0.00013737 0.00000000 0.00024249 0.00000000 0.00163529)
(0.00010645 -0.00012823 0.00000000 0.00016638 0.00000000 0.00118394)
(0.00020790 -0.00030721 0.00000000 0.00050360 0.00000000 0.00278704)
(0.00027632 -0.00034876 0.00000000 0.00045778 0.00000000 0.00212102)
(0.00007223 -0.00011861 0.00000000 0.00018227 0.00000000 0.00160446)
(0.00030028 -0.00039145 0.00000000 0.00054839 0.00000000 0.00337726)
(0.00023025 -0.00029329 0.00000000 0.00040519 0.00000000 0.00281827)
(0.00028754 -0.00034944 0.00000000 0.00044108 0.00000000 0.00253801)
(0.00022070 -0.00030271 0.00000000 0.00044401 0.00000000 0.00309662)
(0.00044324 -0.00043789 0.00000000 0.00048729 0.00000000 0.00407255)
(0.00035810 -0.00040039 0.00000000 0.00052120 0.00000000 0.00402229)
(0.00072725 -0.00059025 0.00000000 0.00053059 0.00000000 0.00444288)
(0.00087148 -0.00066843 0.00000000 0.00058621 0.00000000 0.00516282)
(0.00119682 -0.00063309 0.00000000 0.00041495 0.00000000 0.00451434)
(0.00140932 -0.00062346 0.00000000 0.00034022 0.00000000 0.00368823)
(0.00144658 -0.00029275 0.00000000 0.00012427 0.00000000 0.00458410)
(0.00144673 0.00000759 0.00000000 0.00002354 0.00000000 0.00254558)
(0.00139476 0.00000849 0.00000000 0.00001752 0.00000000 0.00214771)
(0.00154467 0.00000454 0.00000000 0.00001770 0.00000000 0.00212159)
(0.00172857 0.00000661 0.00000000 0.00001923 0.00000000 0.00214784)
(0.00189464 0.00000559 0.00000000 0.00001997 0.00000000 0.00217025)
(0.00209847 0.00000915 0.00000000 0.00002304 0.00000000 0.00225750)
(0.00229354 0.00000831 0.00000000 0.00002528 0.00000000 0.00235114)
(0.00250357 0.00001041 0.00000000 0.00002673 0.00000000 0.00245083)
(0.00266225 0.00001035 0.00000000 0.00002756 0.00000000 0.00251601)
(0.00285267 0.00001045 0.00000000 0.00002764 0.00000000 0.00258939)
(0.00305991 0.00001440 0.00000000 0.00002981 0.00000000 0.00271287)
(0.00325978 0.00001377 0.00000000 0.00003199 0.00000000 0.00283219)
(0.00347358 0.00001505 0.00000000 0.00003278 0.00000000 0.00294719)
(0.00371899 0.00001587 0.00000000 0.00003625 0.00000000 0.00307625)
(0.00394523 0.00001766 0.00000000 0.00003671 0.00000000 0.00318234)
(0.00425168 0.00002104 0.00000000 0.00004359 0.00000000 0.00334224)
(0.00445878 0.00002012 0.00000000 0.00004208 0.00000000 0.00343810)
(0.00467539 0.00002305 0.00000000 0.00004249 0.00000000 0.00354569)
(0.00490539 0.00002673 0.00000000 0.00004398 0.00000000 0.00368246)
(0.00514944 0.00002958 0.00000000 0.00004537 0.00000000 0.00380979)
(0.00543022 0.00003186 0.00000000 0.00004884 0.00000000 0.00395096)
(0.00567866 0.00003539 0.00000000 0.00004902 0.00000000 0.00407555)
(0.00599633 0.00004075 0.00000000 0.00005289 0.00000000 0.00427069)
(0.00634223 0.00004623 0.00000000 0.00005749 0.00000000 0.00449523)
(0.00660679 0.00005329 0.00000000 0.00005811 0.00000000 0.00471027)
(0.00688779 0.00005576 0.00000000 0.00006038 0.00000000 0.00494953)
(0.00727050 0.00006445 0.00000000 0.00006454 0.00000000 0.00524105)
(0.00759586 0.00007051 0.00000000 0.00006629 0.00000000 0.00554069)
(0.00801815 0.00007994 0.00000000 0.00007334 0.00000000 0.00588918)
(0.00842240 0.00008735 0.00000000 0.00007705 0.00000000 0.00625225)
(0.00879243 0.00009836 0.00000000 0.00008146 0.00000000 0.00665692)
(0.00914235 0.00010663 0.00000000 0.00008959 0.00000000 0.00710661)
(0.00959945 0.00011766 0.00000000 0.00009784 0.00000000 0.00762946)
(0.00992557 0.00012123 0.00000000 0.00010333 0.00000000 0.00805431)
(0.01041984 0.00013128 0.00000000 0.00010874 0.00000000 0.00857073)
(0.01082766 0.00013672 0.00000000 0.00011609 0.00000000 0.00903878)
(0.01133935 0.00014605 0.00000000 0.00012111 0.00000000 0.00958404)
(0.01180206 0.00015525 0.00000000 0.00012911 0.00000000 0.01012887)
(0.01246403 0.00016724 0.00000000 0.00014991 0.00000000 0.01082986)
(0.01287269 0.00016799 0.00000000 0.00014500 0.00000000 0.01129220)
(0.01354325 0.00017668 0.00000000 0.00015685 0.00000000 0.01196689)
(0.01419877 0.00018792 0.00000000 0.00017494 0.00000000 0.01266901)
(0.01489480 0.00019174 0.00000000 0.00018713 0.00000000 0.01335118)
(0.01567776 0.00019356 0.00000000 0.00018930 0.00000000 0.01405733)
(0.01672597 0.00020467 0.00000000 0.00022649 0.00000000 0.01508891)
(0.01786464 0.00021272 0.00000000 0.00023207 0.00000000 0.01603627)
(0.01922122 0.00022391 0.00000000 0.00025672 0.00000000 0.01723776)
(0.02059030 0.00025986 0.00000000 0.00027353 0.00000000 0.01866028)
(0.02166291 0.00030884 0.00000000 0.00030679 0.00000000 0.02044033)
(0.02199616 0.00043198 0.00000000 0.00033289 0.00000000 0.02269776)
(0.02010011 0.00066416 0.00000000 0.00037752 0.00000000 0.02495832)
(0.01482560 0.00119353 0.00000000 0.00051832 0.00000000 0.02712851)
(0.00894026 0.00331143 0.00000000 0.00160466 0.00000000 0.02055784)
(0.00473153 0.00131744 0.00000000 0.00044515 0.00000000 0.00951486)
(0.00153075 0.00100138 0.00000000 0.00066041 0.00000000 0.00496519)
(0.00043246 0.00035560 0.00000000 0.00030040 0.00000000 0.00332186)
(0.00008026 -0.00000024 0.00000000 -0.00008696 0.00000000 0.00166955)
(-0.00002091 0.00005109 0.00000000 0.00014394 0.00000000 0.00050563)
(-0.00014357 -0.00003269 0.00000000 0.00016767 0.00000000 0.00204847)
(-0.00009177 -0.00016081 0.00000000 -0.00028069 0.00000000 -0.00089811)
(-0.00000053 -0.00023200 0.00000000 -0.00060074 0.00000000 0.00015791)
(-0.00009242 -0.00005475 0.00000000 0.00002537 0.00000000 -0.00036521)
(-0.00001946 -0.00017336 0.00000000 -0.00057386 0.00000000 -0.00062065)
(-0.00013447 -0.00051382 0.00000000 -0.00128998 0.00000000 -0.00200350)
(-0.00001775 -0.00025046 0.00000000 -0.00065245 0.00000000 0.00039948)
(-0.00011826 -0.00022613 0.00000000 -0.00038661 0.00000000 0.00115000)
(-0.00011310 -0.00010889 0.00000000 -0.00006234 0.00000000 -0.00073046)
(-0.00046744 -0.00066208 0.00000000 -0.00096357 0.00000000 -0.00450653)
(-0.00011779 -0.00042725 0.00000000 -0.00123134 0.00000000 -0.00350607)
(0.00003246 -0.00038858 0.00000000 -0.00177845 0.00000000 -0.00006553)
(-0.00037132 -0.00061784 0.00000000 -0.00130376 0.00000000 -0.00549152)
(-0.00015499 -0.00039605 0.00000000 -0.00102334 0.00000000 -0.00425119)
(0.00006678 -0.00006262 0.00000000 -0.00051899 0.00000000 -0.00099227)
(0.00005855 -0.00010353 0.00000000 -0.00057022 0.00000000 0.00162143)
(0.00001698 -0.00011903 0.00000000 -0.00052681 0.00000000 -0.00019431)
(-0.00001254 -0.00012010 0.00000000 -0.00049430 0.00000000 0.00167217)
(-0.00001344 -0.00008915 0.00000000 -0.00033780 0.00000000 0.00229582)
(-0.00001786 -0.00006048 0.00000000 -0.00022400 0.00000000 0.00043432)
(0.00005916 -0.00005378 0.00000000 -0.00018909 0.00000000 -0.00203174)
(-0.00019614 -0.00024824 0.00000000 -0.00048549 0.00000000 -0.01097973)
(-0.00068601 -0.00050610 0.00000000 -0.00046057 0.00000000 -0.00099634)
(-0.00428402 -0.00218497 0.00000000 -0.00184694 0.00000000 -0.01605965)
(-0.00495546 -0.00153005 0.00000000 -0.00062566 0.00000000 -0.00947904)
(0.00222210 -0.00049396 0.00000000 -0.00027103 0.00000000 0.00001712)
(0.03125003 0.00009811 0.00000000 0.00059502 0.00000000 0.01506197)
(0.03527424 -0.00085290 0.00000000 0.00052352 0.00000000 0.01771819)
(0.05201069 -0.00187780 0.00000000 0.00091762 0.00000000 0.02407452)
(0.04829167 -0.00138116 0.00000000 0.00061308 0.00000000 0.02071186)
(0.01117210 -0.00295427 0.00000000 0.00141960 0.00000000 0.00771599)
(0.00173076 -0.00164165 0.00000000 0.00180601 0.00000000 0.00563660)
(0.00011532 -0.00074786 0.00000000 0.00155653 0.00000000 0.00270836)
(0.00076495 -0.00062009 0.00000000 0.00041856 0.00000000 0.00169539)
(0.00009433 -0.00035485 0.00000000 0.00094984 0.00000000 0.00238464)
(0.00012007 -0.00014895 0.00000000 0.00020168 0.00000000 0.00125793)
(0.00015435 -0.00023271 0.00000000 0.00038569 0.00000000 0.00171104)
(0.00020047 -0.00029503 0.00000000 0.00046955 0.00000000 0.00190943)
(0.00020345 -0.00029742 0.00000000 0.00045835 0.00000000 0.00183499)
(0.00020098 -0.00028610 0.00000000 0.00043159 0.00000000 0.00170096)
(0.00016354 -0.00022732 0.00000000 0.00033218 0.00000000 0.00140140)
(0.00016362 -0.00022861 0.00000000 0.00032788 0.00000000 0.00130099)
(0.00010154 -0.00014785 0.00000000 0.00023119 0.00000000 0.00114665)
(0.00011040 -0.00017595 0.00000000 0.00029359 0.00000000 0.00126221)
(0.00036979 -0.00050504 0.00000000 0.00073605 0.00000000 0.00292284)
(0.00039936 -0.00056575 0.00000000 0.00084097 0.00000000 0.00284338)
(0.00031440 -0.00046225 0.00000000 0.00071206 0.00000000 0.00276010)
(0.00027494 -0.00039443 0.00000000 0.00060097 0.00000000 0.00258180)
(0.00030767 -0.00052004 0.00000000 0.00099822 0.00000000 0.00409457)
(0.00070128 -0.00088139 0.00000000 0.00117157 0.00000000 0.00426542)
(0.00052502 -0.00069479 0.00000000 0.00095991 0.00000000 0.00347206)
(0.00074898 -0.00092787 0.00000000 0.00126558 0.00000000 0.00580350)
(0.00072631 -0.00089646 0.00000000 0.00122597 0.00000000 0.00552217)
(0.00085713 -0.00097576 0.00000000 0.00122879 0.00000000 0.00548310)
(0.00085949 -0.00101763 0.00000000 0.00132263 0.00000000 0.00596235)
(0.00104035 -0.00103263 0.00000000 0.00121526 0.00000000 0.00724251)
(0.00114424 -0.00112021 0.00000000 0.00130577 0.00000000 0.00713631)
(0.00154560 -0.00119871 0.00000000 0.00112258 0.00000000 0.00821181)
(0.00176155 -0.00118693 0.00000000 0.00105595 0.00000000 0.00853212)
(0.00210539 -0.00099664 0.00000000 0.00071284 0.00000000 0.00796512)
(0.00255039 -0.00081494 0.00000000 0.00048562 0.00000000 0.00698754)
(0.00233464 -0.00036128 0.00000000 0.00024686 0.00000000 0.00694492)
(0.00268331 0.00002528 0.00000000 0.00011981 0.00000000 0.00518507)
(0.00290004 0.00004532 0.00000000 0.00010854 0.00000000 0.00459049)
(0.00325149 0.00003385 0.00000000 0.00011035 0.00000000 0.00449525)
(0.00366741 0.00003847 0.00000000 0.00011741 0.00000000 0.00450555)
(0.00408876 0.00003899 0.00000000 0.00012818 0.00000000 0.00455992)
(0.00450215 0.00004813 0.00000000 0.00013496 0.00000000 0.00466616)
(0.00490947 0.00004571 0.00000000 0.00014140 0.00000000 0.00481939)
(0.00535634 0.00005215 0.00000000 0.00014875 0.00000000 0.00501837)
(0.00579415 0.00005708 0.00000000 0.00016299 0.00000000 0.00519521)
(0.00624016 0.00006001 0.00000000 0.00017311 0.00000000 0.00535678)
(0.00668590 0.00007044 0.00000000 0.00017716 0.00000000 0.00556941)
(0.00714816 0.00006963 0.00000000 0.00018636 0.00000000 0.00579656)
(0.00764749 0.00007604 0.00000000 0.00019778 0.00000000 0.00602460)
(0.00816428 0.00007913 0.00000000 0.00021075 0.00000000 0.00625772)
(0.00873258 0.00008839 0.00000000 0.00022621 0.00000000 0.00647967)
(0.00927860 0.00009453 0.00000000 0.00023545 0.00000000 0.00672631)
(0.00983572 0.00009682 0.00000000 0.00024612 0.00000000 0.00694613)
(0.01037004 0.00010822 0.00000000 0.00025911 0.00000000 0.00716762)
(0.01090156 0.00012076 0.00000000 0.00026843 0.00000000 0.00743354)
(0.01146154 0.00013011 0.00000000 0.00027651 0.00000000 0.00767674)
(0.01203397 0.00013546 0.00000000 0.00028168 0.00000000 0.00794407)
(0.01263974 0.00014933 0.00000000 0.00029086 0.00000000 0.00824003)
(0.01319814 0.00016466 0.00000000 0.00030608 0.00000000 0.00856081)
(0.01382539 0.00017746 0.00000000 0.00031751 0.00000000 0.00898168)
(0.01438819 0.00020462 0.00000000 0.00033534 0.00000000 0.00942689)
(0.01494577 0.00021287 0.00000000 0.00034963 0.00000000 0.00994434)
(0.01556173 0.00023090 0.00000000 0.00036128 0.00000000 0.01051099)
(0.01621201 0.00025012 0.00000000 0.00038587 0.00000000 0.01112089)
(0.01687362 0.00027185 0.00000000 0.00040943 0.00000000 0.01175272)
(0.01747570 0.00029054 0.00000000 0.00043455 0.00000000 0.01241643)
(0.01812594 0.00032047 0.00000000 0.00045906 0.00000000 0.01323248)
(0.01859938 0.00033694 0.00000000 0.00049575 0.00000000 0.01402463)
(0.01917044 0.00035096 0.00000000 0.00052618 0.00000000 0.01489846)
(0.01966371 0.00035691 0.00000000 0.00056448 0.00000000 0.01570648)
(0.02037887 0.00036932 0.00000000 0.00059096 0.00000000 0.01663818)
(0.02091739 0.00037465 0.00000000 0.00062808 0.00000000 0.01749438)
(0.02162406 0.00038043 0.00000000 0.00066165 0.00000000 0.01848204)
(0.02229498 0.00039314 0.00000000 0.00070082 0.00000000 0.01949588)
(0.02313178 0.00038999 0.00000000 0.00073324 0.00000000 0.02063073)
(0.02367382 0.00038177 0.00000000 0.00078517 0.00000000 0.02159612)
(0.02460694 0.00037755 0.00000000 0.00082508 0.00000000 0.02281195)
(0.02538103 0.00038120 0.00000000 0.00087790 0.00000000 0.02399447)
(0.02608010 0.00035087 0.00000000 0.00094226 0.00000000 0.02518893)
(0.02705149 0.00032625 0.00000000 0.00100564 0.00000000 0.02662943)
(0.02812644 0.00031174 0.00000000 0.00107766 0.00000000 0.02826700)
(0.02924750 0.00029367 0.00000000 0.00116767 0.00000000 0.03008441)
(0.03044698 0.00029173 0.00000000 0.00127110 0.00000000 0.03219679)
(0.03122851 0.00036180 0.00000000 0.00139225 0.00000000 0.03454543)
(0.03166787 0.00051412 0.00000000 0.00151598 0.00000000 0.03734116)
(0.03100516 0.00090055 0.00000000 0.00163084 0.00000000 0.04038866)
(0.02819777 0.00160691 0.00000000 0.00171988 0.00000000 0.04280999)
(0.02187461 0.00297416 0.00000000 0.00202046 0.00000000 0.04268678)
(0.01623201 0.00573614 0.00000000 0.00337842 0.00000000 0.03504395)
(0.01211604 0.00536757 0.00000000 0.00322432 0.00000000 0.02644710)
(0.00738354 0.00496451 0.00000000 0.00380261 0.00000000 0.01903695)
(0.00288349 0.00281777 0.00000000 0.00302065 0.00000000 0.01109112)
(0.00141818 0.00160297 0.00000000 0.00198287 0.00000000 0.00851068)
(0.00109429 0.00108739 0.00000000 0.00115167 0.00000000 0.00458723)
(0.00087573 0.00129871 0.00000000 0.00202832 0.00000000 0.00668446)
(0.00045176 0.00018173 0.00000000 -0.00024532 0.00000000 0.00205308)
(0.00013920 0.00010980 0.00000000 0.00019994 0.00000000 0.00249277)
(0.00038055 0.00039346 0.00000000 0.00042380 0.00000000 0.00240812)
(0.00021189 -0.00001269 0.00000000 -0.00049253 0.00000000 0.00326684)
(0.00030497 -0.00023153 0.00000000 -0.00115220 0.00000000 0.00156969)
(-0.00005843 0.00028320 0.00000000 0.00147206 0.00000000 0.00712775)
(-0.00011419 0.00014444 0.00000000 0.00093903 0.00000000 0.00313927)
(-0.00024899 -0.00025759 0.00000000 -0.00016730 0.00000000 -0.00111368)
(0.00009890 -0.00004389 0.00000000 -0.00047578 0.00000000 -0.00073664)
(0.00039066 -0.00007889 0.00000000 -0.00124579 0.00000000 0.00280347)
(0.00022969 -0.00011549 0.00000000 -0.00105938 0.00000000 0.00523040)
(-0.00005094 -0.00047649 0.00000000 -0.00183867 0.00000000 -0.00129489)
(-0.00002717 -0.00025350 0.00000000 -0.00086906 0.00000000 -0.00159295)
(0.00002508 -0.00012721 0.00000000 -0.00060770 0.00000000 0.00089924)
(0.00006403 -0.00007170 0.00000000 -0.00034202 0.00000000 0.00329953)
(-0.00009605 -0.00026629 0.00000000 -0.00057678 0.00000000 0.00214711)
(-0.00009975 -0.00020318 0.00000000 -0.00037496 0.00000000 0.00174215)
(-0.00022583 0.00004010 0.00000000 0.00059125 0.00000000 0.00807146)
(-0.00019983 -0.00024679 0.00000000 -0.00038248 0.00000000 0.00029090)
(-0.00002373 0.00000822 0.00000000 0.00008631 0.00000000 -0.00150800)
(-0.00021074 -0.00037715 0.00000000 -0.00081541 0.00000000 -0.01124642)
(-0.00058310 -0.00043834 0.00000000 -0.00050521 0.00000000 0.00082996)
(-0.00363786 -0.00229766 0.00000000 -0.00215441 0.00000000 -0.01613469)
(-0.00550665 -0.00089903 0.00000000 -0.00001251 0.00000000 -0.00686235)
(0.01413372 0.00074536 0.00000000 -0.00003674 0.00000000 0.00715932)
(0.04390316 0.00010932 0.00000000 0.00094118 0.00000000 0.02199353)
(0.04827372 -0.00144581 0.00000000 0.00085772 0.00000000 0.02331598)
(0.06750615 -0.00293569 0.00000000 0.00152899 0.00000000 0.03035120)
(0.06395875 -0.00251279 0.00000000 0.00126931 0.00000000 0.02698041)
(0.02219186 -0.00489400 0.00000000 0.00201081 0.00000000 0.01053208)
(0.00251295 -0.00214495 0.00000000 0.00233809 0.00000000 0.00692959)
(0.00058436 -0.00114936 0.00000000 0.00221265 0.00000000 0.00353391)
(0.00119381 -0.00100854 0.00000000 0.00083077 0.00000000 0.00280719)
(0.00027944 -0.00059639 0.00000000 0.00129889 0.00000000 0.00294567)
(0.00015167 -0.00026646 0.00000000 0.00048917 0.00000000 0.00181828)
(0.00019589 -0.00033909 0.00000000 0.00063671 0.00000000 0.00235474)
(0.00024589 -0.00040157 0.00000000 0.00071255 0.00000000 0.00259961)
(0.00026269 -0.00041631 0.00000000 0.00070403 0.00000000 0.00255990)
(0.00028073 -0.00042754 0.00000000 0.00069626 0.00000000 0.00247866)
(0.00028739 -0.00041885 0.00000000 0.00064733 0.00000000 0.00226248)
(0.00026226 -0.00038367 0.00000000 0.00058966 0.00000000 0.00207905)
(0.00027122 -0.00038686 0.00000000 0.00057708 0.00000000 0.00196109)
(0.00030046 -0.00044765 0.00000000 0.00069600 0.00000000 0.00208636)
(0.00053662 -0.00078379 0.00000000 0.00124896 0.00000000 0.00430735)
(0.00078417 -0.00106730 0.00000000 0.00154316 0.00000000 0.00433821)
(0.00074855 -0.00102570 0.00000000 0.00148417 0.00000000 0.00425065)
(0.00067327 -0.00093738 0.00000000 0.00139448 0.00000000 0.00428076)
(0.00059212 -0.00100526 0.00000000 0.00197207 0.00000000 0.00553636)
(0.00110453 -0.00139512 0.00000000 0.00192662 0.00000000 0.00648392)
(0.00119098 -0.00149617 0.00000000 0.00202502 0.00000000 0.00616847)
(0.00121339 -0.00153377 0.00000000 0.00223766 0.00000000 0.00877061)
(0.00147998 -0.00173117 0.00000000 0.00229771 0.00000000 0.00841148)
(0.00151678 -0.00170711 0.00000000 0.00221151 0.00000000 0.00885376)
(0.00171483 -0.00185078 0.00000000 0.00232496 0.00000000 0.00967960)
(0.00190869 -0.00178633 0.00000000 0.00209979 0.00000000 0.01051723)
(0.00216721 -0.00187098 0.00000000 0.00205725 0.00000000 0.01084991)
(0.00241276 -0.00168287 0.00000000 0.00165035 0.00000000 0.01129295)
(0.00262919 -0.00152707 0.00000000 0.00143258 0.00000000 0.01130885)
(0.00291974 -0.00116632 0.00000000 0.00097294 0.00000000 0.01078991)
(0.00328677 -0.00082644 0.00000000 0.00067431 0.00000000 0.00976810)
(0.00322490 -0.00036749 0.00000000 0.00043103 0.00000000 0.00910703)
(0.00377382 0.00004830 0.00000000 0.00030565 0.00000000 0.00751739)
(0.00437339 0.00010661 0.00000000 0.00029459 0.00000000 0.00680394)
(0.00497695 0.00008915 0.00000000 0.00029587 0.00000000 0.00663724)
(0.00564166 0.00009206 0.00000000 0.00031310 0.00000000 0.00660069)
(0.00632510 0.00009468 0.00000000 0.00033246 0.00000000 0.00666548)
(0.00698974 0.00011063 0.00000000 0.00035760 0.00000000 0.00675661)
(0.00764150 0.00010955 0.00000000 0.00037773 0.00000000 0.00696611)
(0.00832916 0.00011868 0.00000000 0.00039136 0.00000000 0.00726040)
(0.00903007 0.00013047 0.00000000 0.00042313 0.00000000 0.00750270)
(0.00973117 0.00013501 0.00000000 0.00044122 0.00000000 0.00775207)
(0.01044864 0.00015048 0.00000000 0.00045963 0.00000000 0.00801659)
(0.01119045 0.00015181 0.00000000 0.00048016 0.00000000 0.00831970)
(0.01197351 0.00016360 0.00000000 0.00050809 0.00000000 0.00863499)
(0.01277254 0.00016894 0.00000000 0.00053747 0.00000000 0.00894777)
(0.01365338 0.00018371 0.00000000 0.00056441 0.00000000 0.00928440)
(0.01448442 0.00019563 0.00000000 0.00059619 0.00000000 0.00958384)
(0.01531138 0.00020286 0.00000000 0.00062482 0.00000000 0.00987689)
(0.01613380 0.00021785 0.00000000 0.00064229 0.00000000 0.01024409)
(0.01692770 0.00023936 0.00000000 0.00066668 0.00000000 0.01060612)
(0.01772354 0.00025199 0.00000000 0.00068688 0.00000000 0.01093114)
(0.01851709 0.00026219 0.00000000 0.00070598 0.00000000 0.01128908)
(0.01929585 0.00028395 0.00000000 0.00072928 0.00000000 0.01170788)
(0.02003647 0.00031102 0.00000000 0.00075815 0.00000000 0.01218756)
(0.02072427 0.00032878 0.00000000 0.00079445 0.00000000 0.01273362)
(0.02133495 0.00037082 0.00000000 0.00083508 0.00000000 0.01336044)
(0.02191061 0.00037514 0.00000000 0.00087498 0.00000000 0.01407989)
(0.02255243 0.00038909 0.00000000 0.00090746 0.00000000 0.01486402)
(0.02323940 0.00040526 0.00000000 0.00096217 0.00000000 0.01567767)
(0.02394713 0.00042891 0.00000000 0.00101688 0.00000000 0.01654432)