/*--------------------------------*- C++ -*----------------------------------*\
  =========                 |
  \\      /  F ield         | OpenFOAM: The Open Source CFD Toolbox
   \\    /   O peration     | Website:  https://openfoam.org
    \\  /    A nd           | Version:  7
     \\/     M anipulation  |
\*---------------------------------------------------------------------------*/
FoamFile
{
    version     2.0;
    format      ascii;
    class       volVectorField;
    location    "0";
    object      U_LES;
}
// * * * * * * * * * * * * * * * * * * * * * * * * * * * * * * * * * * * * * //

dimensions      [0 1 -1 0 0 0 0];

internalField   nonuniform List<vector>
15600
(
(0.10967808 0.00148060 0.00000000)
(0.08920000 -0.00005020 0.00000000)
(-0.00504995 0.00036161 0.00000000)
(-0.00990658 0.00812137 0.00000000)
(-0.00357595 0.00579790 0.00000000)
(-0.00248557 0.00173450 0.00000000)
(-0.00290967 0.00567778 0.00000000)
(-0.00242844 0.00259112 0.00000000)
(-0.00307430 0.00419064 0.00000000)
(-0.00330607 0.00484872 0.00000000)
(-0.00312999 0.00463692 0.00000000)
(-0.00311888 0.00465711 0.00000000)
(-0.00220903 0.00338365 0.00000000)
(-0.00188389 0.00313422 0.00000000)
(-0.00115213 0.00206145 0.00000000)
(-0.00232131 0.00384284 0.00000000)
(-0.00482626 0.00740899 0.00000000)
(-0.00447572 0.00742450 0.00000000)
(-0.00362603 0.00489524 0.00000000)
(-0.00247087 0.00255454 0.00000000)
(-0.00556527 0.00713159 0.00000000)
(-0.00299434 0.00410029 0.00000000)
(-0.00201549 0.00191283 0.00000000)
(-0.00289802 0.00383695 0.00000000)
(-0.00175866 0.00208287 0.00000000)
(-0.00091316 0.00117219 0.00000000)
(-0.00044759 0.00060973 0.00000000)
(0.00071009 -0.00072882 0.00000000)
(0.00147905 -0.00161758 0.00000000)
(0.00400769 -0.00273424 0.00000000)
(0.00636429 -0.00454028 0.00000000)
(0.00924257 -0.00567696 0.00000000)
(0.00758577 -0.00454027 0.00000000)
(0.01385616 -0.00295658 0.00000000)
(0.01034922 0.00002584 0.00000000)
(0.00724129 0.00003162 0.00000000)
(0.00630832 0.00002274 0.00000000)
(0.00548485 0.00002112 0.00000000)
(0.00474907 0.00001949 0.00000000)
(0.00392354 0.00002093 0.00000000)
(0.00315399 0.00002077 0.00000000)
(0.00255253 0.00002031 0.00000000)
(0.00206643 0.00001466 0.00000000)
(0.00144667 0.00001517 0.00000000)
(0.00067470 0.00002243 0.00000000)
(-0.00001918 0.00002191 0.00000000)
(-0.00098188 0.00002694 0.00000000)
(-0.00194941 0.00002714 0.00000000)
(-0.00290673 0.00003157 0.00000000)
(-0.00405983 0.00003494 0.00000000)
(-0.00542327 0.00004333 0.00000000)
(-0.00696484 0.00005018 0.00000000)
(-0.00869324 0.00005469 0.00000000)
(-0.01054128 0.00005929 0.00000000)
(-0.01256063 0.00006239 0.00000000)
(-0.01486235 0.00007940 0.00000000)
(-0.01728072 0.00007323 0.00000000)
(-0.02000534 0.00007688 0.00000000)
(-0.02298418 0.00009274 0.00000000)
(-0.02624648 0.00010253 0.00000000)
(-0.02955769 0.00010081 0.00000000)
(-0.03302715 0.00011641 0.00000000)
(-0.03645866 0.00010689 0.00000000)
(-0.04002860 0.00010267 0.00000000)
(-0.04357924 0.00012951 0.00000000)
(-0.04732209 0.00010867 0.00000000)
(-0.05071265 0.00012026 0.00000000)
(-0.05443521 0.00010479 0.00000000)
(-0.05765467 0.00010975 0.00000000)
(-0.06129124 0.00010186 0.00000000)
(-0.06445107 0.00010786 0.00000000)
(-0.06826735 0.00010333 0.00000000)
(-0.07163777 0.00011307 0.00000000)
(-0.07547814 0.00010661 0.00000000)
(-0.07918015 0.00011211 0.00000000)
(-0.08249563 0.00013126 0.00000000)
(-0.08707456 0.00011746 0.00000000)
(-0.09046422 0.00012823 0.00000000)
(-0.09549253 0.00013945 0.00000000)
(-0.09968242 0.00015419 0.00000000)
(-0.10330758 0.00016651 0.00000000)
(-0.10817902 0.00013305 0.00000000)
(-0.11070596 0.00010040 0.00000000)
(-0.11033397 -0.00009141 0.00000000)
(-0.10037209 -0.00051195 0.00000000)
(-0.08582199 -0.00212331 0.00000000)
(-0.03611123 -0.01406491 0.00000000)
(0.00047662 0.00052313 0.00000000)
(0.00005381 -0.00001636 0.00000000)
(-0.00053489 -0.00041638 0.00000000)
(0.00138987 0.00092737 0.00000000)
(0.00045298 0.00020612 0.00000000)
(0.00024218 -0.00034044 0.00000000)
(0.00371761 0.00369284 0.00000000)
(0.00281017 0.00527596 0.00000000)
(-0.00009112 -0.00023588 0.00000000)
(0.00411118 0.00527977 0.00000000)
(0.01112691 0.01582286 0.00000000)
(0.00256683 0.00605220 0.00000000)
(-0.00032712 -0.00015154 0.00000000)
(-0.00100101 -0.00131139 0.00000000)
(0.00483618 0.00437636 0.00000000)
(0.00980216 0.01488195 0.00000000)
(0.00057505 0.00409789 0.00000000)
(0.00260213 0.00169683 0.00000000)
(0.00228454 0.00307656 0.00000000)
(0.00046255 0.00186797 0.00000000)
(-0.00129952 0.00037216 0.00000000)
(-0.00008789 0.00110223 0.00000000)
(-0.00094427 -0.00047245 0.00000000)
(0.00002410 0.00004439 0.00000000)
(0.00054530 0.00033220 0.00000000)
(0.00000359 -0.00181493 0.00000000)
(-0.00874952 -0.00998918 0.00000000)
(-0.01150331 -0.00892108 0.00000000)
(-0.04431230 -0.03371079 0.00000000)
(-0.04350334 -0.02666503 0.00000000)
(-0.04785538 -0.01932825 0.00000000)
(0.11932412 0.01159700 0.00000000)
(0.11610372 0.00437414 0.00000000)
(0.14989317 0.00156517 0.00000000)
(0.12703164 -0.00037260 0.00000000)
(0.00799633 -0.00008400 0.00000000)
(-0.01543457 0.01121814 0.00000000)
(-0.00538487 0.00898578 0.00000000)
(-0.00466659 0.00365813 0.00000000)
(-0.00387227 0.00771563 0.00000000)
(-0.00358278 0.00421598 0.00000000)
(-0.00425093 0.00612974 0.00000000)
(-0.00474566 0.00721970 0.00000000)
(-0.00482297 0.00736198 0.00000000)
(-0.00486521 0.00727808 0.00000000)
(-0.00416715 0.00620243 0.00000000)
(-0.00412404 0.00633773 0.00000000)
(-0.00304447 0.00504090 0.00000000)
(-0.00345394 0.00605491 0.00000000)
(-0.00866185 0.01258183 0.00000000)
(-0.00745215 0.01197260 0.00000000)
(-0.00670412 0.01078059 0.00000000)
(-0.00595207 0.00790431 0.00000000)
(-0.00773275 0.01329552 0.00000000)
(-0.00733712 0.00987855 0.00000000)
(-0.00495019 0.00717042 0.00000000)
(-0.00711871 0.00916198 0.00000000)
(-0.00471722 0.00614969 0.00000000)
(-0.00326040 0.00410779 0.00000000)
(-0.00205662 0.00219644 0.00000000)
(-0.00022828 -0.00071030 0.00000000)
(0.00127739 -0.00294155 0.00000000)
(0.00615603 -0.00617091 0.00000000)
(0.01008231 -0.00951219 0.00000000)
(0.01613728 -0.01010430 0.00000000)
(0.02019500 -0.00965925 0.00000000)
(0.02186630 -0.00561144 0.00000000)
(0.02240123 0.00017690 0.00000000)
(0.01856807 0.00026539 0.00000000)
(0.01586176 0.00021023 0.00000000)
(0.01345878 0.00019724 0.00000000)
(0.01133525 0.00017729 0.00000000)
(0.00897476 0.00019029 0.00000000)
(0.00673778 0.00017770 0.00000000)
(0.00476564 0.00016233 0.00000000)
(0.00309274 0.00014553 0.00000000)
(0.00137363 0.00015692 0.00000000)
(-0.00091227 0.00019835 0.00000000)
(-0.00335798 0.00020999 0.00000000)
(-0.00597045 0.00023688 0.00000000)
(-0.00892497 0.00023978 0.00000000)
(-0.01184494 0.00026851 0.00000000)
(-0.01568390 0.00032736 0.00000000)
(-0.01955117 0.00036032 0.00000000)
(-0.02411094 0.00040709 0.00000000)
(-0.02931759 0.00044824 0.00000000)
(-0.03492384 0.00048450 0.00000000)
(-0.04113317 0.00052940 0.00000000)
(-0.04772868 0.00058928 0.00000000)
(-0.05531988 0.00065884 0.00000000)
(-0.06342221 0.00071529 0.00000000)
(-0.07206260 0.00076574 0.00000000)
(-0.08124527 0.00079763 0.00000000)
(-0.09085657 0.00083901 0.00000000)
(-0.10064216 0.00082573 0.00000000)
(-0.11031307 0.00085019 0.00000000)
(-0.12027519 0.00086280 0.00000000)
(-0.13035017 0.00086886 0.00000000)
(-0.14013982 0.00085130 0.00000000)
(-0.14980794 0.00084457 0.00000000)
(-0.15920432 0.00081918 0.00000000)
(-0.16849266 0.00079991 0.00000000)
(-0.17741300 0.00079822 0.00000000)
(-0.18651454 0.00079458 0.00000000)
(-0.19569167 0.00081389 0.00000000)
(-0.20400422 0.00084451 0.00000000)
(-0.21404872 0.00082944 0.00000000)
(-0.22319382 0.00085160 0.00000000)
(-0.23197373 0.00087828 0.00000000)
(-0.24128560 0.00089285 0.00000000)
(-0.25191418 0.00089466 0.00000000)
(-0.25992000 0.00095572 0.00000000)
(-0.27087957 0.00093426 0.00000000)
(-0.27967675 0.00086227 0.00000000)
(-0.28741254 0.00066276 0.00000000)
(-0.28941893 0.00009365 0.00000000)
(-0.28204749 -0.00117753 0.00000000)
(-0.25247908 -0.00400633 0.00000000)
(-0.19483260 -0.01130574 0.00000000)
(-0.12165016 -0.03863385 0.00000000)
(-0.07193550 -0.02027363 0.00000000)
(-0.03759242 -0.02372184 0.00000000)
(-0.01374339 -0.01144117 0.00000000)
(-0.00803235 -0.00657518 0.00000000)
(-0.00161982 -0.00281195 0.00000000)
(-0.00646191 -0.00985274 0.00000000)
(0.00350992 0.00480862 0.00000000)
(-0.00539748 -0.00191890 0.00000000)
(0.00262352 0.00187619 0.00000000)
(-0.00069624 0.00222060 0.00000000)
(0.00149658 0.00849722 0.00000000)
(-0.00495763 -0.00175702 0.00000000)
(-0.00184884 -0.00335071 0.00000000)
(0.00268384 0.00231887 0.00000000)
(0.00973243 0.01220811 0.00000000)
(0.00252892 0.00851848 0.00000000)
(-0.00597536 0.00093224 0.00000000)
(0.00577697 0.01014096 0.00000000)
(0.00299696 0.00667776 0.00000000)
(-0.00068999 0.00157562 0.00000000)
(-0.00238742 -0.00102307 0.00000000)
(-0.00066072 0.00039422 0.00000000)
(-0.00088001 -0.00059909 0.00000000)
(0.00015038 -0.00002259 0.00000000)
(0.00028514 -0.00003571 0.00000000)
(-0.00053594 -0.00194343 0.00000000)
(-0.01029865 -0.01297457 0.00000000)
(0.00490791 0.00370920 0.00000000)
(-0.05706169 -0.04720179 0.00000000)
(-0.05301139 -0.02186278 0.00000000)
(0.01056899 -0.00705453 0.00000000)
(0.17542145 0.01682491 0.00000000)
(0.15916239 0.00549707 0.00000000)
(0.19760501 0.00134701 0.00000000)
(0.17207537 -0.00101930 0.00000000)
(0.03225532 -0.00081949 0.00000000)
(-0.01935898 0.01432095 0.00000000)
(-0.00801685 0.01385317 0.00000000)
(-0.00754625 0.00630263 0.00000000)
(-0.00499942 0.00969716 0.00000000)
(-0.00464833 0.00626550 0.00000000)
(-0.00543879 0.00870172 0.00000000)
(-0.00634302 0.01023190 0.00000000)
(-0.00673263 0.01079302 0.00000000)
(-0.00693381 0.01093660 0.00000000)
(-0.00655638 0.01003548 0.00000000)
(-0.00666068 0.01001397 0.00000000)
(-0.00607823 0.00938429 0.00000000)
(-0.00668760 0.01104442 0.00000000)
(-0.01218614 0.01807949 0.00000000)
(-0.01222196 0.01889226 0.00000000)
(-0.01122382 0.01776981 0.00000000)
(-0.01033161 0.01591913 0.00000000)
(-0.00994368 0.02040738 0.00000000)
(-0.01287341 0.01796309 0.00000000)
(-0.01065528 0.01505001 0.00000000)
(-0.01216589 0.01577136 0.00000000)
(-0.00937100 0.01233735 0.00000000)
(-0.00714175 0.00875848 0.00000000)
(-0.00483787 0.00550087 0.00000000)
(-0.00242756 0.00089412 0.00000000)
(0.00114800 -0.00313403 0.00000000)
(0.00641143 -0.00785789 0.00000000)
(0.01164562 -0.01177511 0.00000000)
(0.01905129 -0.01247335 0.00000000)
(0.02619406 -0.01057398 0.00000000)
(0.02621178 -0.00613350 0.00000000)
(0.02738527 0.00040447 0.00000000)
(0.02348980 0.00078035 0.00000000)
(0.01933533 0.00066226 0.00000000)
(0.01558830 0.00062476 0.00000000)
(0.01193868 0.00058540 0.00000000)
(0.00851367 0.00060398 0.00000000)
(0.00497385 0.00056231 0.00000000)
(0.00165016 0.00051653 0.00000000)
(-0.00153695 0.00048875 0.00000000)
(-0.00480395 0.00054214 0.00000000)
(-0.00842928 0.00064880 0.00000000)
(-0.01257167 0.00069009 0.00000000)
(-0.01710888 0.00078722 0.00000000)
(-0.02211100 0.00080408 0.00000000)
(-0.02739953 0.00090689 0.00000000)
(-0.03339801 0.00103746 0.00000000)
(-0.04016043 0.00118258 0.00000000)
(-0.04794423 0.00135349 0.00000000)
(-0.05654378 0.00148849 0.00000000)
(-0.06582102 0.00160560 0.00000000)
(-0.07587753 0.00172315 0.00000000)
(-0.08682399 0.00192454 0.00000000)
(-0.09877853 0.00211188 0.00000000)
(-0.11160010 0.00224543 0.00000000)
(-0.12519655 0.00242339 0.00000000)
(-0.13940879 0.00251793 0.00000000)
(-0.15390911 0.00258763 0.00000000)
(-0.16837509 0.00257784 0.00000000)
(-0.18264123 0.00259926 0.00000000)
(-0.19688476 0.00262434 0.00000000)
(-0.21137009 0.00263408 0.00000000)
(-0.22501550 0.00256402 0.00000000)
(-0.23861699 0.00249547 0.00000000)
(-0.25119668 0.00243717 0.00000000)
(-0.26403906 0.00235958 0.00000000)
(-0.27560841 0.00233902 0.00000000)
(-0.28758322 0.00231938 0.00000000)
(-0.29959601 0.00235469 0.00000000)
(-0.31206283 0.00233251 0.00000000)
(-0.32259594 0.00235625 0.00000000)
(-0.33448438 0.00236916 0.00000000)
(-0.34540756 0.00238411 0.00000000)
(-0.35531717 0.00237828 0.00000000)
(-0.36566102 0.00238551 0.00000000)
(-0.37551234 0.00238967 0.00000000)
(-0.38397860 0.00223631 0.00000000)
(-0.39016482 0.00187646 0.00000000)
(-0.39079417 0.00109291 0.00000000)
(-0.38489183 -0.00064553 0.00000000)
(-0.36590665 -0.00410648 0.00000000)
(-0.32566265 -0.01092976 0.00000000)
(-0.25331863 -0.02641121 0.00000000)
(-0.18406604 -0.05697326 0.00000000)
(-0.14184257 -0.05725131 0.00000000)
(-0.09630742 -0.06133431 0.00000000)
(-0.05393208 -0.04975441 0.00000000)
(-0.03694766 -0.03851544 0.00000000)
(-0.02508616 -0.02333064 0.00000000)
(-0.02342709 -0.03076596 0.00000000)
(-0.01665900 -0.01207420 0.00000000)
(-0.01234748 -0.01344313 0.00000000)
(-0.01111096 -0.01139109 0.00000000)
(-0.01264851 -0.01254080 0.00000000)
(-0.01626708 -0.00780767 0.00000000)
(-0.01363138 -0.02583456 0.00000000)
(-0.00520218 -0.01389898 0.00000000)
(0.00413210 0.00329755 0.00000000)
(-0.00124944 0.00219409 0.00000000)
(-0.01329957 -0.00560117 0.00000000)
(-0.00995896 -0.00722017 0.00000000)
(-0.00554492 0.00182508 0.00000000)
(-0.00030388 0.00296969 0.00000000)
(-0.00265090 -0.00079429 0.00000000)
(-0.00285482 -0.00240521 0.00000000)
(-0.00141912 -0.00117305 0.00000000)
(-0.00062876 -0.00070433 0.00000000)
(0.00095708 0.00095757 0.00000000)
(-0.00039643 -0.00071796 0.00000000)
(-0.00166170 -0.00124260 0.00000000)
(-0.00901035 -0.01463102 0.00000000)
(0.01354852 0.01112834 0.00000000)
(-0.04917793 -0.04940492 0.00000000)
(-0.05144457 -0.00982667 0.00000000)
(0.09966828 0.00983790 0.00000000)
(0.24566025 0.02274890 0.00000000)
(0.21159181 0.00649706 0.00000000)
(0.25248688 0.00091036 0.00000000)
(0.22350029 -0.00201445 0.00000000)
(0.06754687 -0.00190057 0.00000000)
(-0.02190366 0.01771507 0.00000000)
(-0.01172384 0.01884914 0.00000000)
(-0.01108315 0.00971541 0.00000000)
(-0.00680038 0.01203296 0.00000000)
(-0.00586727 0.00923577 0.00000000)
(-0.00679664 0.01188884 0.00000000)
(-0.00790081 0.01382588 0.00000000)
(-0.00859369 0.01483245 0.00000000)
(-0.00918527 0.01548621 0.00000000)
(-0.00930367 0.01506048 0.00000000)
(-0.00953830 0.01526183 0.00000000)
(-0.00992568 0.01538472 0.00000000)
(-0.01100146 0.01761702 0.00000000)
(-0.01530607 0.02574032 0.00000000)
(-0.01791054 0.02737062 0.00000000)
(-0.01788275 0.02720506 0.00000000)
(-0.01666753 0.02593638 0.00000000)
(-0.01488589 0.03040722 0.00000000)
(-0.01852793 0.02678292 0.00000000)
(-0.01725729 0.02417455 0.00000000)
(-0.01688730 0.02329954 0.00000000)
(-0.01496767 0.01948977 0.00000000)
(-0.01198489 0.01456881 0.00000000)
(-0.00884272 0.00974856 0.00000000)
(-0.00523146 0.00346671 0.00000000)
(-0.00031215 -0.00201797 0.00000000)
(0.00481897 -0.00752463 0.00000000)
(0.01104672 -0.01226206 0.00000000)
(0.01808043 -0.01292880 0.00000000)
(0.02539503 -0.01059689 0.00000000)
(0.02661335 -0.00596517 0.00000000)
(0.02784839 0.00074384 0.00000000)
(0.02384979 0.00146191 0.00000000)
(0.01874310 0.00129635 0.00000000)
(0.01383994 0.00122725 0.00000000)
(0.00913174 0.00115472 0.00000000)
(0.00442724 0.00120212 0.00000000)
(-0.00036244 0.00114143 0.00000000)
(-0.00485815 0.00106099 0.00000000)
(-0.00935973 0.00102793 0.00000000)
(-0.01401455 0.00112202 0.00000000)
(-0.01915950 0.00131725 0.00000000)
(-0.02487790 0.00142408 0.00000000)
(-0.03125237 0.00161308 0.00000000)
(-0.03824302 0.00167791 0.00000000)
(-0.04568791 0.00185139 0.00000000)
(-0.05404480 0.00211730 0.00000000)
(-0.06341885 0.00241899 0.00000000)
(-0.07403394 0.00271494 0.00000000)
(-0.08570850 0.00298354 0.00000000)
(-0.09822737 0.00320993 0.00000000)
(-0.11178742 0.00346324 0.00000000)
(-0.12634135 0.00382280 0.00000000)
(-0.14197186 0.00413638 0.00000000)
(-0.15845516 0.00439237 0.00000000)
(-0.17573211 0.00467397 0.00000000)
(-0.19344558 0.00481288 0.00000000)
(-0.21116634 0.00488641 0.00000000)
(-0.22860484 0.00483000 0.00000000)
(-0.24575303 0.00481969 0.00000000)
(-0.26242237 0.00483201 0.00000000)
(-0.27866330 0.00479949 0.00000000)
(-0.29473434 0.00464520 0.00000000)
(-0.30994195 0.00449792 0.00000000)
(-0.32455356 0.00435379 0.00000000)
(-0.33844700 0.00419104 0.00000000)
(-0.35170689 0.00411778 0.00000000)
(-0.36433009 0.00404690 0.00000000)
(-0.37654591 0.00407009 0.00000000)
(-0.38862410 0.00398223 0.00000000)
(-0.39999796 0.00397127 0.00000000)
(-0.41075810 0.00391399 0.00000000)
(-0.42191416 0.00387489 0.00000000)
(-0.43101727 0.00376132 0.00000000)
(-0.43905884 0.00362507 0.00000000)
(-0.44637041 0.00343826 0.00000000)
(-0.45061572 0.00292278 0.00000000)
(-0.45127725 0.00198524 0.00000000)
(-0.44597081 0.00032169 0.00000000)
(-0.43292914 -0.00288147 0.00000000)
(-0.40650633 -0.00854367 0.00000000)
(-0.36122673 -0.01879256 0.00000000)
(-0.29344917 -0.03897948 0.00000000)
(-0.23056078 -0.07391241 0.00000000)
(-0.18980228 -0.08714379 0.00000000)
(-0.15028160 -0.09739299 0.00000000)
(-0.12213331 -0.09932370 0.00000000)
(-0.09233998 -0.09025684 0.00000000)
(-0.06705980 -0.07505256 0.00000000)
(-0.06100381 -0.07108491 0.00000000)
(-0.04619680 -0.05761639 0.00000000)
(-0.03934980 -0.05646616 0.00000000)
(-0.04870094 -0.05432721 0.00000000)
(-0.02244480 -0.03970732 0.00000000)
(-0.03125613 -0.03492212 0.00000000)
(-0.02933642 -0.05228320 0.00000000)
(-0.00953906 -0.02588423 0.00000000)
(-0.01564826 -0.01677549 0.00000000)
(-0.02910166 -0.02130550 0.00000000)
(-0.02990086 -0.03209485 0.00000000)
(-0.01459577 -0.02049156 0.00000000)
(-0.01179235 -0.00539332 0.00000000)
(-0.00853541 -0.00751979 0.00000000)
(-0.00500992 -0.00957227 0.00000000)
(-0.00234248 -0.00369312 0.00000000)
(-0.00103461 -0.00198130 0.00000000)
(-0.00042785 -0.00086928 0.00000000)
(0.00112868 0.00138859 0.00000000)
(-0.00129462 -0.00132316 0.00000000)
(-0.00477798 -0.00303995 0.00000000)
(-0.00424486 -0.01204300 0.00000000)
(0.01717199 0.01524397 0.00000000)
(-0.02805521 -0.03676272 0.00000000)
(-0.00028825 0.02985028 0.00000000)
(0.23429120 0.03810788 0.00000000)
(0.32926326 0.02930711 0.00000000)
(0.27526039 0.00745663 0.00000000)
(0.31359840 0.00046953 0.00000000)
(0.27975380 -0.00330828 0.00000000)
(0.11251890 -0.00328212 0.00000000)
(-0.02314862 0.02099003 0.00000000)
(-0.01742658 0.02346054 0.00000000)
(-0.01528481 0.01378251 0.00000000)
(-0.00941832 0.01526898 0.00000000)
(-0.00739696 0.01295042 0.00000000)
(-0.00857099 0.01565219 0.00000000)
(-0.00992501 0.01806674 0.00000000)
(-0.01081409 0.01945533 0.00000000)
(-0.01149954 0.02038339 0.00000000)
(-0.01223398 0.02108893 0.00000000)
(-0.01288591 0.02194840 0.00000000)
(-0.01405001 0.02325405 0.00000000)
(-0.01607621 0.02623059 0.00000000)
(-0.01881178 0.03444944 0.00000000)
(-0.02368611 0.03656107 0.00000000)
(-0.02461037 0.03693185 0.00000000)
(-0.02443138 0.03689368 0.00000000)
(-0.02222678 0.04102913 0.00000000)
(-0.02575404 0.03706066 0.00000000)
(-0.02423512 0.03425060 0.00000000)
(-0.02172752 0.03167958 0.00000000)
(-0.02084310 0.02654812 0.00000000)
(-0.01726261 0.02058209 0.00000000)
(-0.01334161 0.01412257 0.00000000)
(-0.00881962 0.00634914 0.00000000)
(-0.00340087 -0.00013435 0.00000000)
(0.00223499 -0.00645730 0.00000000)
(0.00888530 -0.01150320 0.00000000)
(0.01523910 -0.01243315 0.00000000)
(0.02201455 -0.01034669 0.00000000)
(0.02412978 -0.00540777 0.00000000)
(0.02497765 0.00120224 0.00000000)
(0.02085363 0.00225913 0.00000000)
(0.01498234 0.00210269 0.00000000)
(0.00921379 0.00201084 0.00000000)
(0.00358123 0.00191088 0.00000000)
(-0.00208578 0.00198831 0.00000000)
(-0.00787005 0.00190997 0.00000000)
(-0.01358480 0.00182433 0.00000000)
(-0.01930643 0.00179282 0.00000000)
(-0.02535920 0.00194935 0.00000000)
(-0.03184238 0.00222751 0.00000000)
(-0.03901783 0.00243965 0.00000000)
(-0.04705353 0.00274226 0.00000000)
(-0.05587343 0.00289472 0.00000000)
(-0.06536651 0.00317923 0.00000000)
(-0.07586419 0.00359833 0.00000000)
(-0.08761753 0.00408770 0.00000000)
(-0.10068196 0.00456921 0.00000000)
(-0.11496859 0.00499327 0.00000000)
(-0.13022564 0.00534858 0.00000000)
(-0.14651123 0.00577087 0.00000000)
(-0.16397881 0.00627443 0.00000000)
(-0.18232089 0.00672920 0.00000000)
(-0.20148586 0.00709500 0.00000000)
(-0.22113713 0.00745956 0.00000000)
(-0.24096139 0.00760122 0.00000000)
(-0.26043970 0.00762830 0.00000000)
(-0.27933348 0.00749264 0.00000000)
(-0.29755055 0.00741488 0.00000000)
(-0.31546492 0.00737763 0.00000000)
(-0.33268389 0.00724831 0.00000000)
(-0.34879852 0.00698543 0.00000000)
(-0.36429136 0.00672895 0.00000000)
(-0.37910413 0.00646309 0.00000000)
(-0.39263078 0.00618889 0.00000000)
(-0.40588156 0.00602634 0.00000000)
(-0.41797637 0.00587255 0.00000000)
(-0.42981071 0.00584222 0.00000000)
(-0.44085051 0.00565312 0.00000000)
(-0.45145271 0.00555691 0.00000000)
(-0.46099205 0.00538170 0.00000000)
(-0.46951371 0.00521683 0.00000000)
(-0.47672205 0.00491935 0.00000000)
(-0.48272387 0.00454907 0.00000000)
(-0.48596875 0.00404064 0.00000000)
(-0.48631072 0.00303979 0.00000000)
(-0.48216003 0.00139600 0.00000000)
(-0.47286525 -0.00123815 0.00000000)
(-0.45485653 -0.00593115 0.00000000)
(-0.42576641 -0.01360841 0.00000000)
(-0.38183801 -0.02660671 0.00000000)
(-0.32094976 -0.05022452 0.00000000)
(-0.26576696 -0.08746836 0.00000000)
(-0.22768320 -0.10873099 0.00000000)
(-0.19314110 -0.12682743 0.00000000)
(-0.17476518 -0.13694884 0.00000000)
(-0.15070327 -0.13860585 0.00000000)
(-0.12326573 -0.13359450 0.00000000)
(-0.10892996 -0.13161976 0.00000000)
(-0.08952344 -0.12095336 0.00000000)
(-0.09363311 -0.11786870 0.00000000)
(-0.08247003 -0.11506728 0.00000000)
(-0.04973997 -0.09437384 0.00000000)
(-0.05709445 -0.09640256 0.00000000)
(-0.07141873 -0.10132226 0.00000000)
(-0.04010934 -0.05633255 0.00000000)
(-0.05548972 -0.05776821 0.00000000)
(-0.05234722 -0.06650015 0.00000000)
(-0.03965065 -0.07470507 0.00000000)
(-0.01283816 -0.04035540 0.00000000)
(-0.01646861 -0.01747959 0.00000000)
(-0.01128131 -0.02707835 0.00000000)
(-0.00642260 -0.01789788 0.00000000)
(-0.00335060 -0.00697406 0.00000000)
(-0.00168018 -0.00439383 0.00000000)
(-0.00028625 -0.00150889 0.00000000)
(0.00175496 0.00231735 0.00000000)
(-0.00061196 -0.00008418 0.00000000)
(-0.00727888 -0.00559663 0.00000000)
(0.00229063 -0.00752421 0.00000000)
(0.03153170 0.02848375 0.00000000)
(-0.00102071 -0.01963511 0.00000000)
(0.10023327 0.10880778 0.00000000)
(0.39222646 0.07205276 0.00000000)
(0.42421454 0.03659248 0.00000000)
(0.34827203 0.00874433 0.00000000)
(0.37969351 0.00029146 0.00000000)
(0.33974088 -0.00465998 0.00000000)
(0.16308147 -0.00473894 0.00000000)
(-0.01965527 0.02232511 0.00000000)
(-0.02466357 0.02724631 0.00000000)
(-0.01942927 0.01784533 0.00000000)
(-0.01245222 0.01884408 0.00000000)
(-0.00936072 0.01698244 0.00000000)
(-0.01085140 0.01975936 0.00000000)
(-0.01238449 0.02252340 0.00000000)
(-0.01372456 0.02443707 0.00000000)
(-0.01426188 0.02545100 0.00000000)
(-0.01571391 0.02747780 0.00000000)
(-0.01692396 0.02894368 0.00000000)
(-0.01895719 0.03163795 0.00000000)
(-0.02125824 0.03525451 0.00000000)
(-0.02288572 0.04402902 0.00000000)
(-0.02934317 0.04581619 0.00000000)
(-0.03095671 0.04666724 0.00000000)
(-0.03121201 0.04674185 0.00000000)
(-0.02990237 0.05081224 0.00000000)
(-0.03150505 0.04518121 0.00000000)
(-0.03050360 0.04310986 0.00000000)
(-0.02680100 0.03951146 0.00000000)
(-0.02571974 0.03226846 0.00000000)
(-0.02168938 0.02515730 0.00000000)
(-0.01749705 0.01781170 0.00000000)
(-0.01269184 0.00936406 0.00000000)
(-0.00691128 0.00221466 0.00000000)
(-0.00149911 -0.00447606 0.00000000)
(0.00505560 -0.00975962 0.00000000)
(0.01100050 -0.01134754 0.00000000)
(0.01748841 -0.00932366 0.00000000)
(0.01966233 -0.00454032 0.00000000)
(0.01995216 0.00178443 0.00000000)
(0.01555433 0.00314796 0.00000000)
(0.00923215 0.00304455 0.00000000)
(0.00277853 0.00294321 0.00000000)
(-0.00362501 0.00282879 0.00000000)
(-0.01010488 0.00293934 0.00000000)
(-0.01676683 0.00286015 0.00000000)
(-0.02347585 0.00278406 0.00000000)
(-0.03041350 0.00279344 0.00000000)
(-0.03772456 0.00300776 0.00000000)
(-0.04545845 0.00336758 0.00000000)
(-0.05396563 0.00371792 0.00000000)
(-0.06350252 0.00417035 0.00000000)
(-0.07393787 0.00443153 0.00000000)
(-0.08528884 0.00484575 0.00000000)
(-0.09769961 0.00546046 0.00000000)
(-0.11153612 0.00617848 0.00000000)
(-0.12671662 0.00684064 0.00000000)
(-0.14305922 0.00743991 0.00000000)
(-0.16055923 0.00794205 0.00000000)
(-0.17902639 0.00854157 0.00000000)
(-0.19851038 0.00918202 0.00000000)
(-0.21866710 0.00975770 0.00000000)
(-0.23949273 0.01021415 0.00000000)
(-0.26058168 0.01061108 0.00000000)
(-0.28136678 0.01069981 0.00000000)
(-0.30148042 0.01062868 0.00000000)
(-0.32078313 0.01037744 0.00000000)
(-0.33926167 0.01019601 0.00000000)
(-0.35696818 0.01006794 0.00000000)
(-0.37386257 0.00980118 0.00000000)
(-0.39003981 0.00941408 0.00000000)
(-0.40505647 0.00902279 0.00000000)
(-0.41920920 0.00859950 0.00000000)
(-0.43214148 0.00819564 0.00000000)
(-0.44427141 0.00790297 0.00000000)
(-0.45580636 0.00764579 0.00000000)
(-0.46645400 0.00752017 0.00000000)
(-0.47616166 0.00720578 0.00000000)
(-0.48502767 0.00696277 0.00000000)
(-0.49266753 0.00661825 0.00000000)
(-0.49888499 0.00626871 0.00000000)
(-0.50404558 0.00572872 0.00000000)
(-0.50676763 0.00501888 0.00000000)
(-0.50706863 0.00411086 0.00000000)
(-0.50414503 0.00255194 0.00000000)
(-0.49701136 0.00019090 0.00000000)
(-0.48431496 -0.00344691 0.00000000)
(-0.46435097 -0.00943841 0.00000000)
(-0.43505093 -0.01881319 0.00000000)
(-0.39377193 -0.03392834 0.00000000)
(-0.33997869 -0.05970135 0.00000000)
(-0.29158209 -0.09779555 0.00000000)
(-0.25672628 -0.12563542 0.00000000)
(-0.22747611 -0.14926024 0.00000000)
(-0.20775835 -0.16408490 0.00000000)
(-0.18720984 -0.17354858 0.00000000)
(-0.17830807 -0.18154745 0.00000000)
(-0.15349528 -0.18264403 0.00000000)
(-0.14589515 -0.18442572 0.00000000)
(-0.13771091 -0.18275855 0.00000000)
(-0.11635867 -0.17363658 0.00000000)
(-0.10044202 -0.16806060 0.00000000)
(-0.11412581 -0.16135447 0.00000000)
(-0.10453074 -0.15754736 0.00000000)
(-0.09484762 -0.11839694 0.00000000)
(-0.08456042 -0.11564566 0.00000000)
(-0.06944537 -0.12398779 0.00000000)
(-0.05863760 -0.11401546 0.00000000)
(-0.02806616 -0.07428524 0.00000000)
(-0.02125709 -0.03874380 0.00000000)
(-0.01405269 -0.03478723 0.00000000)
(-0.01159809 -0.02624731 0.00000000)
(-0.00837481 -0.01746646 0.00000000)
(-0.00497445 -0.00925859 0.00000000)
(-0.00053646 -0.00150730 0.00000000)
(0.00416626 0.00569262 0.00000000)
(0.00436192 0.00660860 0.00000000)
(-0.00523391 -0.00529050 0.00000000)
(0.01414924 -0.00005860 0.00000000)
(0.06615398 0.06083812 0.00000000)
(0.03730221 0.00703197 0.00000000)
(0.20360076 0.17061035 0.00000000)
(0.55518041 0.10838243 0.00000000)
(0.52736984 0.04502591 0.00000000)
(0.42801033 0.01081523 0.00000000)
(0.44916664 0.00070311 0.00000000)
(0.40215618 -0.00582445 0.00000000)
(0.21926224 -0.00644090 0.00000000)
(-0.01024990 0.02151571 0.00000000)
(-0.03180271 0.03102904 0.00000000)
(-0.02399894 0.02225788 0.00000000)
(-0.01554776 0.02237555 0.00000000)
(-0.01199887 0.02108830 0.00000000)
(-0.01360618 0.02416318 0.00000000)
(-0.01545947 0.02735407 0.00000000)
(-0.01740625 0.03002696 0.00000000)
(-0.01820331 0.03174911 0.00000000)
(-0.02003542 0.03449389 0.00000000)
(-0.02135836 0.03644689 0.00000000)
(-0.02328458 0.03921414 0.00000000)
(-0.02732093 0.04522856 0.00000000)
(-0.02809136 0.05372708 0.00000000)
(-0.03459187 0.05440678 0.00000000)
(-0.03656752 0.05568366 0.00000000)
(-0.03742611 0.05597265 0.00000000)
(-0.03620629 0.05829653 0.00000000)
(-0.03683179 0.05266784 0.00000000)
(-0.03555503 0.04979631 0.00000000)
(-0.03159768 0.04565537 0.00000000)
(-0.02989225 0.03691427 0.00000000)
(-0.02606758 0.02946903 0.00000000)
(-0.02144447 0.02125265 0.00000000)
(-0.01652392 0.01237478 0.00000000)
(-0.01082891 0.00482134 0.00000000)
(-0.00563949 -0.00225495 0.00000000)
(0.00058960 -0.00755946 0.00000000)
(0.00609722 -0.00961809 0.00000000)
(0.01173752 -0.00789113 0.00000000)
(0.01403234 -0.00334511 0.00000000)
(0.01349750 0.00253498 0.00000000)
(0.00876078 0.00412918 0.00000000)
(0.00209841 0.00410590 0.00000000)
(-0.00484830 0.00401307 0.00000000)
(-0.01186919 0.00390396 0.00000000)
(-0.01904321 0.00405050 0.00000000)
(-0.02643328 0.00398316 0.00000000)
(-0.03404755 0.00394994 0.00000000)
(-0.04204995 0.00401541 0.00000000)
(-0.05047295 0.00430547 0.00000000)
(-0.05932733 0.00474608 0.00000000)
(-0.06905417 0.00526960 0.00000000)
(-0.07992651 0.00588305 0.00000000)
(-0.09179695 0.00628998 0.00000000)
(-0.10472933 0.00687859 0.00000000)
(-0.11887416 0.00768524 0.00000000)
(-0.13446513 0.00865380 0.00000000)
(-0.15138149 0.00949328 0.00000000)
(-0.16938051 0.01026085 0.00000000)
(-0.18839248 0.01093720 0.00000000)
(-0.20846965 0.01170010 0.00000000)
(-0.22931614 0.01245616 0.00000000)
(-0.25065771 0.01311846 0.00000000)
(-0.27240725 0.01362434 0.00000000)
(-0.29399436 0.01399160 0.00000000)
(-0.31497453 0.01397035 0.00000000)
(-0.33503256 0.01375790 0.00000000)
(-0.35400483 0.01335736 0.00000000)
(-0.37216368 0.01304716 0.00000000)
(-0.38935731 0.01278973 0.00000000)
(-0.40558373 0.01235827 0.00000000)
(-0.42059330 0.01182029 0.00000000)
(-0.43489727 0.01127817 0.00000000)
(-0.44790097 0.01067443 0.00000000)
(-0.46011850 0.01012811 0.00000000)
(-0.47123667 0.00968571 0.00000000)
(-0.48123815 0.00929030 0.00000000)
(-0.49046504 0.00902842 0.00000000)
(-0.49882728 0.00857662 0.00000000)
(-0.50601290 0.00814325 0.00000000)
(-0.51173239 0.00759060 0.00000000)
(-0.51622384 0.00701613 0.00000000)
(-0.51879571 0.00618064 0.00000000)
(-0.51932292 0.00509890 0.00000000)
(-0.51708901 0.00373302 0.00000000)
(-0.51166925 0.00162611 0.00000000)
(-0.50235372 -0.00145087 0.00000000)
(-0.48800104 -0.00598898 0.00000000)
(-0.46746536 -0.01312539 0.00000000)
(-0.43906798 -0.02393471 0.00000000)
(-0.40101233 -0.04073777 0.00000000)
(-0.35360656 -0.06790209 0.00000000)
(-0.31052076 -0.10661644 0.00000000)
(-0.27880616 -0.13891765 0.00000000)
(-0.25240245 -0.16719689 0.00000000)
(-0.23578046 -0.18742781 0.00000000)
(-0.21747792 -0.20324058 0.00000000)
(-0.20514309 -0.21204357 0.00000000)