1 	0.609998707734988 	-6.93889390390723e-18 	-0.00490475978479024 	0.0031620251266946 	-3.52897729859116e-19
1 	0.615677669341748 	-6.93889390390723e-18 	-0.0144213517862159 	0.00936636230352982 	-3.91940255684784e-18
1 	0.621563396586334 	-1.38777878078145e-17 	-0.0237784626360079 	0.0153722618288269 	3.15870031095932e-18
1 	0.627663371400796 	-6.93889390390723e-18 	-0.0329251381135168 	0.0211671900167974 	5.34923229833223e-19
1 	0.633985343163336 	0 	-0.0417747719690106 	0.0267201950246093 	5.34162431419831e-19
1 	0.640537338029282 	3.46944695195361e-18 	-0.0501865499728204 	0.0319557133504761 	1.64004494348615e-19
1 	0.647327668572245 	6.93889390390723e-18 	-0.0579209211416014 	0.0367351231101855 	3.31481932558948e-18
1 	0.65436494374482 	1.04083408558608e-17 	-0.064645288166796 	0.040864338882763 	-3.64400254156469e-18
1 	0.661658079168369 	1.04083408558608e-17 	-0.0700469842284162 	0.0441648814475512 	-2.8044957116436e-19
1 	0.66921630776171 	3.46944695195361e-18 	-0.073999850462068 	0.0465756882321805 	8.15360211907057e-20
1 	0.677049190718746 	0 	-0.0766126668605802 	0.0481795583353501 	9.66863459113834e-20
1 	0.685166628845283 	3.46944695195361e-18 	-0.0781237776236079 	0.0491355380096138 	-9.91210225511096e-20
1 	0.693578874265574 	1.04083408558608e-17 	-0.0787771773027129 	0.0496026143197528 	-1.40747448354616e-18
1 	0.702296542509335 	1.04083408558608e-17 	-0.0787627896591599 	0.0497047581569254 	1.20604410327622e-18
1 	0.711330624990233 	0 	-0.0782076837469087 	0.049527678460191 	-1.62066832561612e-20
1 	0.720692501887127 	-1.04083408558608e-17 	-0.0771856639869272 	0.0491266652731706 	-9.08076538398604e-19
1 	0.730393955439554 	-1.38777878078145e-17 	-0.0757278098327121 	0.0485349178361933 	8.36443414157782e-19
1 	0.740447183669264 	-2.08166817117217e-17 	-0.073828459798791 	0.0477693904090428 	2.13096601733886e-20
1 	0.75086481453986 	-2.77555756156289e-17 	-0.0714454944210658 	0.0468339797723021 	-3.24221031663147e-20
1 	0.761659920566846 	-2.77555756156289e-17 	-0.0684943847719077 	0.0457202457910174 	-7.1008374397258e-19
1 	0.772846033890729 	-2.77555756156289e-17 	-0.0648354056516213 	0.0444056303119992 	6.90010556890563e-19
1 	0.784437161826055 	-3.12250225675825e-17 	-0.0602576733460909 	0.0428516971800262 	-6.73713798611022e-19
1 	0.796447802899618 	-3.81639164714898e-17 	-0.0544795977383322 	0.0410102973470588 	-3.33545080625582e-18
1 	0.808892963391327 	-4.16333634234434e-17 	-0.0471708554748858 	0.0388348933205482 	-3.44813132252973e-18
1 	0.821788174391592 	-4.16333634234434e-17 	-0.0379558221167243 	0.036289005993055 	3.48756457143067e-18
1 	0.835149509389415 	-3.12250225675825e-17 	-0.0263997899034317 	0.0333574056238404 	2.87690147729248e-18
1 	0.848993602405718 	-2.77555756156289e-17 	-0.0120063247876896 	0.0300657446855013 	-1.59704665457471e-21
1 	0.863337666686782 	-3.12250225675825e-17 	0.0058935565561572 	0.0265380378937203 	-4.75775025237442e-23
1 	0.878199513973139 	-2.42861286636753e-17 	0.0283482475551633 	0.0228165989088587 	1.35796545742967e-21
1 	0.893597574359564 	-2.42861286636753e-17 	0.0571957812824223 	0.0187616232450351 	9.14604984412292e-21
1 	0.909550916762347 	-3.12250225675825e-17 	0.0952371683098917 	0.0141607170869937 	8.85921462534138e-19
1 	0.926079270010412 	-3.33392168039293e-17 	0.144749951144882 	0.00887337464304908 	-8.84092063453918e-19
1 	0.943203044577384 	-3.19297539796981e-17 	0.205947892920694 	0.00314505335523675 	-2.01519453704408e-21
1 	0.96094335497223 	-3.51281503885303e-17 	0.276036441177801 	-0.00238568804408318 	2.40263411322528e-21
1 	0.979322042806652 	-3.00324001778485e-17 	0.351178394444806 	-0.00712062560129211 	1.01048573695064e-20
1 	0.998361700558027 	-2.03830008427275e-17 	0.427056985400599 	-0.0106526815680537 	5.11246674985927e-21
1 	1.01808569604737 	-2.12503625807159e-17 	0.499627147837927 	-0.0128464021186817 	2.03433611372079e-21
1 	1.03851819765243 	-1.60461921527855e-17 	0.565686724085705 	-0.0137645742217022 	-5.07245756695067e-21
1 	1.05968420027697 	-1.04083408558608e-17 	0.622956786345793 	-0.0136726047958164 	-1.84638710633572e-21
1 	1.08160955209792 	-9.54097911787244e-18 	0.670413138329423 	-0.0129341705665231 	4.07974010642408e-21
1 	1.10432098211309 	-6.93889390390723e-18 	0.708368491910007 	-0.0118827916772651 	4.81027656755365e-21
1 	1.12784612851327 	-6.93889390390723e-18 	0.738085076701279 	-0.010831368190159 	-2.25026063033811e-21
1 	1.15221356790332 	-7.80625564189563e-18 	0.761388840731667 	-0.00995911375867451 	-1.96302082211845e-21
1 	1.17745284539835 	-1.38777878078145e-17 	0.780251633168624 	-0.00933990859275124 	-1.36157844718444e-20
1 	1.20359450562215 	-1.64798730217797e-17 	0.79642795082321 	-0.00895403284739372 	-2.00957086297509e-19
1 	1.23067012463664 	-9.54097911787244e-18 	0.811227269458692 	-0.00873412513830654 	1.94725352793245e-19
1 	1.25871234283237 	-1.73472347597681e-18 	0.825481196765371 	-0.00860147905036002 	9.59786958542795e-21
1 	1.28775489881211 	4.33680868994202e-18 	0.839639996390239 	-0.00848658050582787 	-7.45947318490443e-21
1 	1.31783266430119 	5.20417042793042e-18 	0.853898342063719 	-0.00834246443275824 	1.67639298431985e-21
1 	1.34898168012017 	5.20417042793042e-18 	0.868303416789917 	-0.00814607349379064 	9.58701542427062e-21
1 	1.38123919325783 	6.93889390390723e-18 	0.882834629167485 	-0.00789189452985465 	6.1871806899346e-20
1 	1.41464369508463 	8.67361737988404e-18 	0.897454005625056 	-0.0075835434826053 	-7.42159951368991e-20
1 	1.44923496074941 	5.20417042793042e-18 	0.912129157889855 	-0.00722664864140975 	-4.84991235361009e-22
1 	1.48505408980478 	-3.46944695195361e-18 	0.926835240775911 	-0.00682477829440813 	1.18077925186806e-20
1 	1.52214354810991 	1.73472347597681e-18 	0.94154590630124 	-0.00637870782981382 	6.86052155597706e-21
1 	1.56054721106232 	3.46944695195361e-18 	0.956222866884773 	-0.00588799303689524 	-3.01059056978641e-21
1 	1.60031040821395 	-1.73472347597681e-18 	0.970809988753797 	-0.00535324959991036 	-6.61745084552796e-21
1 	1.64147996933068 	0 	0.985233412579804 	-0.0047778587781472 	2.41181280792518e-22
1 	1.68410427195819 	-6.93889390390723e-18 	0.999406099179102 	-0.00416858891539604 	-8.10262308933569e-22
1 	1.72823329056171 	-2.08166817117217e-17 	1.01323412654348 	-0.00353529001202287 	-9.83992443342541e-21
1 	1.77391864731173 	-3.12250225675825e-17 	1.02662258533527 	-0.00289008310149404 	-7.08912493400438e-21
1 	1.82121366459262 	-3.81639164714898e-17 	1.03948033285993 	-0.00224654441440684 	3.26048155554326e-21
1 	1.8701734193166 	-4.85722573273506e-17 	1.05172441594699 	-0.001619319773047 	-7.10505988952784e-21
1 	1.92085479913089 	-5.55111512312578e-17 	1.06328337663712 	-0.00102534143077641 	4.13370682776249e-21
1 	1.97331656061211 	-6.59194920871187e-17 	1.07380970238389 	-0.000491605186069711 	6.70063541701442e-21
1 	2.02025965173185 	-7.28583859910259e-17 	1.08252160524234 	-6.29626582954251e-05 	1.53721219738532e-21
1 	2.06006301192217 	-6.93889390390723e-17 	1.08949147148137 	0.000265689280111785 	0
1 	2.09845978584128 	-7.28583859910259e-17 	1.09543024694214 	0.000529698700948047 	0
1 	2.13549967996946 	-7.63278329429795e-17 	1.10065201144424 	0.000740700118058309 	0
1 	2.17123064424048 	-7.63278329429795e-17 	1.10523568539991 	0.0009053459327223 	1.03013139627488e-16
1 	2.20569893411516 	-7.63278329429795e-17 	1.10925004589878 	0.00102918105362044 	1.79154738191688e-16
1 	2.23894917046123 	-7.97972798949331e-17 	1.11275426308916 	0.00111740446195446 	-1.82203587635026e-16
1 	2.27102439731726 	-8.67361737988404e-17 	1.11579864140903 	0.00117490500367266 	-1.037179758262e-16
1 	2.30196613761522 	-9.0205620750794e-17 	1.11842545776499 	0.00120615960003413 	0
1 	2.33181444693392 	-9.0205620750794e-17 	1.1206698204383 	0.00121518583234937 	0
1 	2.3606079653529 	-9.0205620750794e-17 	1.12256048982804 	0.00120554078186924 	0
1 	2.38838396747391 	-8.67361737988404e-17 	1.12412062461914 	0.00118034081949042 	0
1 	2.41517841067461 	-7.97972798949331e-17 	1.12536843656971 	0.0011422924062089 	0
1 	2.44102598165722 	-7.63278329429795e-17 	1.12631775047932 	0.00109372854538476 	0
1 	2.46596014135208 	-7.63278329429795e-17 	1.12697847441955 	0.00103664701950916 	0
1 	2.49001316823444 	-7.28583859910259e-17 	1.12735699054003 	0.000972747850602966 	0
1 	2.51321620011054 	-6.93889390390723e-17 	1.12745647993464 	0.000903468466421623 	0
1 	2.535599274427 	-6.93889390390723e-17 	1.12727719704451 	0.000830015761864356 	0
1 	2.55719136715571 	-6.24500451351651e-17 	1.12681671043814 	0.000753394708758402 	0
1 	2.57802043030466 	-5.55111512312578e-17 	1.12607012779942 	0.000674433473902772 	0
1 	2.59811342810315 	-5.55111512312578e-17 	1.12503032355635 	0.000593805211235653 	0
1 	2.61749637190832 	-5.55111512312578e-17 	1.12368818753187 	0.000512046838080578 	0
1 	2.63619435387806 	-5.55111512312578e-17 	1.12203291180711 	0.000429575221870866 	0
1 	2.65423157945406 	-5.20417042793042e-17 	1.12005233023905 	0.0003467012693777 	0
1 	2.67163139869691 	-4.85722573273506e-17 	1.11773332018559 	0.000263642453725281 	0
1 	2.68841633651388 	-4.85722573273506e-17 	1.11506226704433 	0.000180534354905171 	0
1 	2.70460812181851 	-5.20417042793042e-17 	1.1120255807627 	9.74418936877391e-05 	0
1 	2.72022771565972 	-5.55111512312578e-17 	1.10861024265688 	1.43709637285773e-05 	0
1 	2.73529533835695 	-5.55111512312578e-17 	1.1048043457849 	-6.87190637580369e-05 	2.19622004288339e-16
1 	2.74983049567625 	-4.85722573273506e-17 	1.1005975800487 	-0.000151901586710819 	2.11072184928309e-16
1 	2.76385200408157 	-4.5102810375397e-17 	1.0959816060387 	-0.000235267523713074 	-2.36654360465216e-16
1 	2.77737801509344 	-4.85722573273506e-17 	1.09095026048779 	-0.000318908540973674 	-2.28104541105179e-16
1 	2.79042603878708 	-4.85722573273506e-17 	1.08549954251635 	-0.000402899000441105 	0
1 	2.80301296646003 	-5.20417042793042e-17 	1.07962734382158 	-0.000487277113847665 	0
1 	2.81515509249872 	-5.20417042793042e-17 	1.07333290453614 	-0.000572025870582783 	0
1 	2.82686813547237 	-4.85722573273506e-17 	1.06661599444327 	-0.00065705442894458 	0
1 	2.83816725848142 	-4.5102810375397e-17 	1.05947583377945 	-0.000742180702156048 	0
1 	2.84906708878691 	-3.46944695195361e-17 	1.05190977684163 	-0.000827115910809235 	0
0.999999999999999 	2.85958173674616 	-2.77555756156289e-17 	1.04391178360331 	-0.00091145167652369 	0
1 	2.86972481407933 	-2.42861286636753e-17 	1.03547069770886 	-0.000994649885986174 	0
1 	2.87950945149043 	-2.08166817117217e-17 	1.02656833174593 	-0.00107603547075612 	0
1 	2.88894831566566 	-2.42861286636753e-17 	1.01717733743053 	-0.00115479216341661 	0
1 	2.89805362567106 	-2.77555756156289e-17 	1.00725881283565 	-0.00122996128337363 	0
1 	2.90683716877067 	-2.77555756156289e-17 	0.99675956867417 	-0.00130044364113551 	0
1 	2.9153103156857 	-2.77555756156289e-17 	0.985608941583681 	-0.00136500492218453 	0
1 	2.92348403531448 	-2.77555756156289e-17 	0.973715006898941 	-0.0014222848070191 	0
1 	2.9313689089323 	-2.42861286636753e-17 	0.960960006682026 	-0.00147080869776362 	0
1 	2.93897514388925 	-2.42861286636753e-17 	0.947194768940439 	-0.00150900705082005 	0
1 	2.94631258682425 	-2.08166817117217e-17 	0.932231845217857 	-0.00153528235524601 	0
1 	2.95339073641193 	-1.04083408558608e-17 	0.915836989609946 	-0.00154818112158663 	0
1 	2.96021875565915 	-6.93889390390723e-18 	0.897702173296531 	-0.00154582944057244 	0
1 	2.96680548376697 	-1.04083408558608e-17 	0.877379237601229 	-0.00152510254201341 	0
1 	2.97315944757337 	-1.38777878078145e-17 	0.85424537958676 	-0.00148246842333731 	0
1 	2.97928887259171 	-1.38777878078145e-17 	0.827556483422106 	-0.0014147072577008 	0
1 	2.98520169365902 	-1.38777878078145e-17 	0.796487829169769 	-0.00132090798500566 	0
1 	2.99090556520806 	-1.38777878078145e-17 	0.760102255711239 	-0.001202642504583 	0
1 	2.99640787117633 	-1.38777878078145e-17 	0.717298162140387 	-0.00106324859536368 	0
1 	3.00171573456492 	-1.38777878078145e-17 	0.666786114621731 	-0.00090771499807268 	0
1 	3.00683602665962 	-1.38777878078145e-17 	0.607105641785151 	-0.000742696081000502 	0
1 	3.01177537592612 	-1.04083408558608e-17 	0.536583819719839 	-0.000575842180415893 	0
1 	3.01654017659085 	-6.93889390390723e-18 	0.453729806204445 	-0.000414611334332014 	0
1 	3.02113659691864 	-6.93889390390723e-18 	0.359280632646375 	-0.000267695527143603 	0
1 	3.02557058719784 	-1.04083408558608e-17 	0.257595432766875 	-0.000146222303995693 	0
1 	3.02984788744324 	-1.04083408558608e-17 	0.1539810912102 	-5.99142911934835e-05 	0
