/*--------------------------------*- C++ -*----------------------------------*\
  =========                 |
  \\      /  F ield         | OpenFOAM: The Open Source CFD Toolbox
   \\    /   O peration     | Website:  https://openfoam.org
    \\  /    A nd           | Version:  7
     \\/     M anipulation  |
\*---------------------------------------------------------------------------*/
FoamFile
{
    version     2.0;
    format      ascii;
    class       volScalarField;
    location    "5125";
    object      k;
}
// * * * * * * * * * * * * * * * * * * * * * * * * * * * * * * * * * * * * * //

dimensions      [0 2 -2 0 0 0 0];

internalField   nonuniform List<scalar> 
22090
(
6.30077
6.6245
7.17851
7.88404
8.67734
9.50922
10.3434
11.1542
11.9247
12.6443
13.3069
13.9052
14.4306
14.8783
15.2462
15.5337
15.7398
15.8625
15.8982
15.8416
15.6857
15.4215
15.0386
14.5257
13.8714
13.0663
12.1056
10.9925
9.74181
8.38016
6.94363
5.50447
4.15458
2.98034
2.03532
1.32781
0.829976
0.49727
0.284603
0.154344
0.078196
0.0361597
0.0146819
0.00488517
0.00116185
0.000144766
4.3421e-06
6.30077
6.6245
7.17851
7.88404
8.67734
9.50922
10.3434
11.1542
11.9247
12.6443
13.3069
13.9052
14.4307
14.8783
15.2462
15.5337
15.7398
15.8625
15.8982
15.8417
15.6857
15.4215
15.0387
14.5257
13.8715
13.0664
12.1057
10.9926
9.74186
8.38021
6.94367
5.50451
4.15461
2.98037
2.03533
1.32782
0.829984
0.497275
0.284606
0.154346
0.0781968
0.03616
0.014682
0.00488522
0.00116186
0.000144767
4.34214e-06
6.30077
6.6245
7.17851
7.88404
8.67734
9.50923
10.3434
11.1542
11.9247
12.6443
13.3069
13.9052
14.4307
14.8783
15.2462
15.5337
15.7398
15.8625
15.8983
15.8417
15.6858
15.4216
15.0387
14.5258
13.8715
13.0664
12.1058
10.9927
9.74191
8.38026
6.94372
5.50455
4.15464
2.98039
2.03535
1.32784
0.829991
0.497279
0.284608
0.154347
0.0781975
0.0361604
0.0146821
0.00488526
0.00116187
0.000144768
4.34218e-06
6.30077
6.6245
7.17852
7.88405
8.67735
9.50924
10.3434
11.1542
11.9247
12.6443
13.3069
13.9053
14.4307
14.8784
15.2463
15.5338
15.7399
15.8626
15.8983
15.8418
15.6858
15.4216
15.0388
14.5258
13.8716
13.0665
12.1058
10.9927
9.74196
8.3803
6.94375
5.50458
4.15467
2.98041
2.03536
1.32784
0.829998
0.497283
0.28461
0.154349
0.0781981
0.0361606
0.0146823
0.0048853
0.00116188
0.00014477
4.34221e-06
6.30077
6.6245
7.17852
7.88405
8.67736
9.50925
10.3434
11.1543
11.9247
12.6444
13.307
13.9053
14.4308
14.8784
15.2463
15.5338
15.7399
15.8626
15.8984
15.8418
15.6859
15.4217
15.0388
14.5259
13.8716
13.0665
12.1058
10.9927
9.74199
8.38033
6.94378
5.50461
4.15469
2.98043
2.03538
1.32785
0.830002
0.497286
0.284612
0.154349
0.0781985
0.0361609
0.0146823
0.00488533
0.00116189
0.00014477
4.34224e-06
6.30076
6.6245
7.17852
7.88405
8.67736
9.50926
10.3434
11.1543
11.9247
12.6444
13.307
13.9053
14.4308
14.8784
15.2463
15.5338
15.7399
15.8627
15.8984
15.8418
15.6859
15.4217
15.0388
14.5259
13.8716
13.0666
12.1059
10.9928
9.74202
8.38035
6.9438
5.50463
4.15471
2.98044
2.03538
1.32786
0.830006
0.497288
0.284613
0.15435
0.0781989
0.036161
0.0146824
0.00488535
0.00116189
0.000144771
4.34225e-06
6.30076
6.62449
7.17851
7.88405
8.67736
9.50926
10.3434
11.1543
11.9247
12.6444
13.307
13.9053
14.4308
14.8784
15.2463
15.5338
15.74
15.8627
15.8984
15.8419
15.6859
15.4217
15.0389
14.5259
13.8717
13.0666
12.1059
10.9928
9.74203
8.38037
6.94382
5.50464
4.15471
2.98044
2.03539
1.32786
0.830008
0.497289
0.284614
0.15435
0.0781991
0.0361611
0.0146824
0.00488536
0.0011619
0.000144771
4.34226e-06
6.30075
6.62448
7.17851
7.88405
8.67736
9.50926
10.3434
11.1543
11.9247
12.6444
13.307
13.9053
14.4308
14.8784
15.2464
15.5338
15.74
15.8627
15.8984
15.8419
15.6859
15.4217
15.0389
14.5259
13.8717
13.0666
12.1059
10.9928
9.74204
8.38037
6.94382
5.50464
4.15472
2.98044
2.03539
1.32786
0.830008
0.497289
0.284614
0.154351
0.0781991
0.0361611
0.0146824
0.00488537
0.0011619
0.000144772
4.34227e-06
6.30074
6.62447
7.1785
7.88403
8.67735
9.50925
10.3434
11.1543
11.9247
12.6444
13.307
13.9053
14.4308
14.8784
15.2463
15.5338
15.74
15.8627
15.8984
15.8419
15.6859
15.4217
15.0388
14.5259
13.8717
13.0666
12.1059
10.9928
9.74203
8.38037
6.94382
5.50464
4.15471
2.98044
2.03539
1.32786
0.830008
0.497289
0.284614
0.15435
0.078199
0.0361611
0.0146824
0.00488536
0.0011619
0.000144771
4.34226e-06
6.30072
6.62445
7.17848
7.88402
8.67733
9.50923
10.3434
11.1543
11.9247
12.6444
13.307
13.9053
14.4308
14.8784
15.2463
15.5338
15.7399
15.8627
15.8984
15.8418
15.6859
15.4217
15.0388
14.5259
13.8716
13.0666
12.1059
10.9928
9.74201
8.38035
6.9438
5.50462
4.1547
2.98044
2.03538
1.32786
0.830006
0.497288
0.284613
0.15435
0.0781988
0.036161
0.0146824
0.00488535
0.00116189
0.000144771
4.34225e-06
6.3007
6.62443
7.17846
7.884
8.67731
9.50921
10.3434
11.1542
11.9247
12.6443
13.307
13.9053
14.4307
14.8784
15.2463
15.5338
15.7399
15.8626
15.8984
15.8418
15.6859
15.4217
15.0388
14.5259
13.8716
13.0665
12.1058
10.9927
9.74199
8.38033
6.94378
5.50461
4.15469
2.98042
2.03538
1.32785
0.830002
0.497286
0.284612
0.154349
0.0781985
0.0361608
0.0146823
0.00488533
0.00116189
0.00014477
4.34223e-06
6.30067
6.62441
7.17843
7.88397
8.67728
9.50918
10.3433
11.1542
11.9247
12.6443
13.3069
13.9052
14.4307
14.8783
15.2463
15.5337
15.7399
15.8626
15.8983
15.8418
15.6858
15.4216
15.0388
14.5258
13.8716
13.0665
12.1058
10.9927
9.74195
8.3803
6.94375
5.50458
4.15467
2.98041
2.03536
1.32784
0.829997
0.497283
0.28461
0.154348
0.078198
0.0361606
0.0146822
0.0048853
0.00116188
0.00014477
4.34221e-06
6.30064
6.62438
7.1784
7.88393
8.67724
9.50914
10.3433
11.1542
11.9246
12.6443
13.3069
13.9052
14.4307
14.8783
15.2462
15.5337
15.7398
15.8625
15.8983
15.8417
15.6858
15.4216
15.0387
14.5258
13.8715
13.0664
12.1057
10.9927
9.74191
8.38025
6.94371
5.50455
4.15464
2.98039
2.03535
1.32784
0.829991
0.497279
0.284608
0.154347
0.0781975
0.0361604
0.0146821
0.00488526
0.00116187
0.000144768
4.34218e-06
6.3006
6.62434
7.17836
7.88389
8.6772
9.5091
10.3433
11.1541
11.9246
12.6442
13.3068
13.9051
14.4306
14.8782
15.2461
15.5336
15.7398
15.8625
15.8982
15.8416
15.6857
15.4215
15.0386
14.5257
13.8714
13.0664
12.1057
10.9926
9.74185
8.3802
6.94367
5.50451
4.15461
2.98037
2.03533
1.32782
0.829984
0.497275
0.284606
0.154346
0.0781968
0.03616
0.014682
0.00488522
0.00116186
0.000144767
4.34214e-06
6.30056
6.6243
7.17832
7.88385
8.67715
9.50904
10.3432
11.154
11.9245
12.6441
13.3068
13.9051
14.4305
14.8782
15.2461
15.5336
15.7397
15.8624
15.8981
15.8416
15.6856
15.4214
15.0386
14.5256
13.8714
13.0663
12.1056
10.9925
9.74179
8.38014
6.94362
5.50447
4.15458
2.98034
2.03531
1.32781
0.829976
0.49727
0.284603
0.154344
0.0781959
0.0361597
0.0146819
0.00488517
0.00116185
0.000144766
4.34209e-06
6.30052
6.62425
7.17826
7.88379
8.67709
9.50898
10.3431
11.154
11.9244
12.6441
13.3067
13.905
14.4304
14.8781
15.246
15.5335
15.7396
15.8623
15.898
15.8415
15.6855
15.4213
15.0385
14.5256
13.8713
13.0662
12.1055
10.9925
9.74172
8.38008
6.94356
5.50441
4.15453
2.98031
2.03529
1.32779
0.829966
0.497264
0.284599
0.154342
0.078195
0.0361592
0.0146817
0.00488511
0.00116184
0.000144764
4.34204e-06
6.30046
6.62419
7.17821
7.88373
8.67703
9.50891
10.3431
11.1539
11.9243
12.644
13.3066
13.9049
14.4304
14.878
15.2459
15.5334
15.7395
15.8622
15.8979
15.8414
15.6854
15.4212
15.0384
14.5255
13.8712
13.0661
12.1054
10.9924
9.74163
8.38
6.94349
5.50436
4.15449
2.98027
2.03526
1.32778
0.829955
0.497257
0.284595
0.15434
0.0781939
0.0361587
0.0146815
0.00488504
0.00116182
0.000144762
4.34198e-06
6.3004
6.62413
7.17814
7.88367
8.67696
9.50884
10.343
11.1538
11.9243
12.6439
13.3065
13.9048
14.4303
14.8779
15.2458
15.5333
15.7394
15.8621
15.8978
15.8413
15.6853
15.4211
15.0383
14.5254
13.8711
13.066
12.1053
10.9923
9.74154
8.37992
6.94341
5.50429
4.15443
2.98023
2.03524
1.32776
0.829942
0.497249
0.284591
0.154338
0.0781928
0.0361582
0.0146813
0.00488497
0.0011618
0.00014476
4.34191e-06
6.30034
6.62407
7.17807
7.88359
8.67688
9.50875
10.3429
11.1537
11.9242
12.6438
13.3064
13.9047
14.4301
14.8778
15.2457
15.5332
15.7393
15.862
15.8977
15.8411
15.6852
15.421
15.0381
14.5252
13.871
13.0659
12.1052
10.9922
9.74144
8.37982
6.94333
5.50422
4.15437
2.98018
2.0352
1.32774
0.829929
0.497241
0.284586
0.154335
0.0781914
0.0361576
0.014681
0.00488489
0.00116178
0.000144757
4.34184e-06
6.30027
6.62399
7.178
7.88351
8.67679
9.50866
10.3428
11.1536
11.9241
12.6437
13.3063
13.9046
14.43
14.8776
15.2455
15.533
15.7391
15.8618
15.8976
15.841
15.6851
15.4209
15.038
14.5251
13.8708
13.0658
12.1051
10.992
9.74133
8.37972
6.94323
5.50414
4.15431
2.98013
2.03517
1.32771
0.829914
0.497232
0.284581
0.154333
0.07819
0.0361569
0.0146807
0.0048848
0.00116176
0.000144755
4.34176e-06
6.30019
6.62391
7.17791
7.88342
8.6767
9.50856
10.3427
11.1535
11.9239
12.6436
13.3061
13.9044
14.4299
14.8775
15.2454
15.5329
15.739
15.8617
15.8974
15.8409
15.6849
15.4207
15.0379
14.525
13.8707
13.0656
12.105
10.9919
9.74121
8.3796
6.94313
5.50405
4.15424
2.98008
2.03513
1.32769
0.829897
0.497222
0.284575
0.154329
0.0781884
0.0361562
0.0146804
0.0048847
0.00116174
0.000144752
4.34167e-06
6.30011
6.62383
7.17782
7.88332
8.67659
9.50845
10.3426
11.1534
11.9238
12.6434
13.306
13.9043
14.4297
14.8773
15.2452
15.5327
15.7388
15.8615
15.8973
15.8407
15.6848
15.4206
15.0377
14.5248
13.8705
13.0655
12.1048
10.9918
9.74107
8.37948
6.94302
5.50396
4.15416
2.98002
2.03509
1.32766
0.829879
0.497211
0.284569
0.154326
0.0781867
0.0361554
0.0146801
0.00488459
0.00116171
0.000144749
4.34158e-06
6.30002
6.62373
7.17772
7.88322
8.67648
9.50833
10.3424
11.1532
11.9237
12.6433
13.3058
13.9041
14.4296
14.8772
15.2451
15.5326
15.7387
15.8614
15.8971
15.8405
15.6846
15.4204
15.0375
14.5246
13.8704
13.0653
12.1047
10.9916
9.74093
8.37935
6.9429
5.50385
4.15408
2.97996
2.03504
1.32763
0.82986
0.4972
0.284562
0.154322
0.0781848
0.0361545
0.0146798
0.00488447
0.00116169
0.000144745
4.34147e-06
6.29992
6.62363
7.17762
7.8831
8.67636
9.5082
10.3423
11.1531
11.9235
12.6431
13.3057
13.904
14.4294
14.877
15.2449
15.5324
15.7385
15.8612
15.8969
15.8404
15.6844
15.4202
15.0374
14.5245
13.8702
13.0651
12.1045
10.9915
9.74077
8.3792
6.94277
5.50374
4.15399
2.97989
2.03499
1.3276
0.829839
0.497187
0.284555
0.154318
0.0781828
0.0361536
0.0146794
0.00488435
0.00116166
0.000144741
4.34136e-06
6.29981
6.62352
7.1775
7.88298
8.67623
9.50806
10.3422
11.1529
11.9233
12.6429
13.3055
13.9038
14.4292
14.8768
15.2447
15.5322
15.7383
15.861
15.8967
15.8402
15.6842
15.42
15.0372
14.5243
13.87
13.065
12.1043
10.9913
9.74061
8.37905
6.94264
5.50362
4.15389
2.97982
2.03494
1.32756
0.829817
0.497173
0.284547
0.154314
0.0781807
0.0361526
0.014679
0.00488421
0.00116162
0.000144737
4.34124e-06
6.2997
6.62341
7.17738
7.88285
8.67609
9.50791
10.342
11.1528
11.9232
12.6428
13.3053
13.9036
14.429
14.8766
15.2445
15.532
15.7381
15.8608
15.8965
15.8399
15.684
15.4198
15.037
14.524
13.8698
13.0648
12.1041
10.9911
9.74043
8.37888
6.94249
5.5035
4.15379
2.97974
2.03489
1.32752
0.829792
0.497159
0.284539
0.15431
0.0781783
0.0361515
0.0146785
0.00488407
0.00116159
0.000144733
4.34111e-06
6.29958
6.62328
7.17725
7.88271
8.67594
9.50775
10.3418
11.1526
11.923
12.6426
13.3051
13.9034
14.4288
14.8764
15.2443
15.5317
15.7378
15.8605
15.8963
15.8397
15.6838
15.4196
15.0367
14.5238
13.8696
13.0645
12.1039
10.9909
9.74023
8.37871
6.94233
5.50336
4.15368
2.97965
2.03482
1.32748
0.829766
0.497143
0.28453
0.154305
0.0781758
0.0361504
0.0146781
0.00488391
0.00116155
0.000144728
4.34098e-06
6.29945
6.62315
7.17711
7.88256
8.67578
9.50758
10.3417
11.1524
11.9228
12.6424
13.3049
13.9032
14.4286
14.8762
15.244
15.5315
15.7376
15.8603
15.896
15.8395
15.6835
15.4193
15.0365
14.5236
13.8693
13.0643
12.1037
10.9907
9.74003
8.37851
6.94216
5.50321
4.15356
2.97956
2.03476
1.32744
0.829739
0.497126
0.28452
0.154299
0.0781732
0.0361491
0.0146776
0.00488375
0.00116151
0.000144723
4.34083e-06
6.29931
6.623
7.17695
7.8824
8.6756
9.50739
10.3415
11.1522
11.9226
12.6421
13.3047
13.9029
14.4283
14.8759
15.2438
15.5312
15.7373
15.86
15.8958
15.8392
15.6833
15.4191
15.0362
14.5233
13.8691
13.0641
12.1034
10.9904
9.73981
8.37831
6.94197
5.50306
4.15343
2.97947
2.03469
1.32739
0.829709
0.497108
0.28451
0.154294
0.0781703
0.0361478
0.014677
0.00488357
0.00116147
0.000144718
4.34067e-06
6.29916
6.62285
7.17679
7.88223
8.67542
9.5072
10.3412
11.152
11.9223
12.6419
13.3044
13.9027
14.4281
14.8756
15.2435
15.531
15.7371
15.8598
15.8955
15.8389
15.683
15.4188
15.0359
14.523
13.8688
13.0638
12.1032
10.9902
9.73957
8.37809
6.94178
5.50289
4.1533
2.97936
2.03462
1.32734
0.829677
0.497089
0.284499
0.154288
0.0781673
0.0361464
0.0146765
0.00488338
0.00116143
0.000144713
4.3405e-06
6.299
6.62269
7.17662
7.88204
8.67522
9.50699
10.341
11.1517
11.9221
12.6416
13.3042
13.9024
14.4278
14.8754
15.2432
15.5307
15.7368
15.8595
15.8952
15.8386
15.6827
15.4185
15.0356
14.5227
13.8685
13.0635
12.1029
10.9899
9.73932
8.37786
6.94157
5.50271
4.15315
2.97925
2.03454
1.32729
0.829644
0.497069
0.284487
0.154281
0.078164
0.0361449
0.0146759
0.00488317
0.00116138
0.000144707
4.34032e-06
6.29884
6.62251
7.17644
7.88185
8.67501
9.50676
10.3408
11.1515
11.9218
12.6414
13.3039
13.9021
14.4275
14.8751
15.2429
15.5304
15.7365
15.8591
15.8949
15.8383
15.6824
15.4182
15.0353
14.5224
13.8682
13.0632
12.1026
10.9896
9.73905
8.37761
6.94135
5.50252
4.153
2.97913
2.03445
1.32723
0.829608
0.497047
0.284474
0.154275
0.0781606
0.0361433
0.0146752
0.00488296
0.00116133
0.0001447
4.34013e-06
6.29866
6.62233
7.17624
7.88164
8.67479
9.50653
10.3405
11.1512
11.9215
12.6411
13.3036
13.9018
14.4272
14.8747
15.2426
15.53
15.7361
15.8588
15.8945
15.838
15.682
15.4178
15.035
14.5221
13.8679
13.0629
12.1023
10.9893
9.73876
8.37735
6.94111
5.50232
4.15283
2.97901
2.03436
1.32717
0.829569
0.497024
0.284461
0.154267
0.0781569
0.0361416
0.0146745
0.00488273
0.00116127
0.000144693
4.33992e-06
6.29846
6.62213
7.17603
7.88142
8.67455
9.50627
10.3403
11.1509
11.9213
12.6408
13.3032
13.9015
14.4268
14.8744
15.2422
15.5297
15.7358
15.8584
15.8942
15.8376
15.6817
15.4175
15.0346
14.5217
13.8675
13.0625
12.1019
10.989
9.73846
8.37707
6.94086
5.5021
4.15266
2.97887
2.03427
1.32711
0.829528
0.496999
0.284447
0.15426
0.078153
0.0361398
0.0146738
0.00488248
0.00116121
0.000144686
4.3397e-06
6.29826
6.62192
7.17581
7.88118
8.6743
9.506
10.34
11.1506
11.9209
12.6404
13.3029
13.9011
14.4265
14.874
15.2419
15.5293
15.7354
15.8581
15.8938
15.8372
15.6813
15.4171
15.0342
14.5214
13.8671
13.0622
12.1016
10.9887
9.73814
8.37677
6.94059
5.50187
4.15247
2.97873
2.03417
1.32704
0.829485
0.496972
0.284432
0.154251
0.0781488
0.0361378
0.014673
0.00488222
0.00116115
0.000144678
4.33947e-06
6.29804
6.62169
7.17557
7.88093
8.67403
9.50572
10.3397
11.1503
11.9206
12.6401
13.3025
13.9007
14.4261
14.8736
15.2415
15.5289
15.735
15.8577
15.8934
15.8368
15.6809
15.4167
15.0338
14.521
13.8667
13.0618
12.1012
10.9883
9.73779
8.37645
6.94031
5.50163
4.15227
2.97858
2.03406
1.32697
0.829439
0.496945
0.284416
0.154243
0.0781443
0.0361358
0.0146722
0.00488194
0.00116108
0.00014467
4.33922e-06
6.29781
6.62146
7.17532
7.88066
8.67375
9.50541
10.3394
11.15
11.9202
12.6397
13.3022
13.9003
14.4257
14.8732
15.241
15.5285
15.7345
15.8572
15.8929
15.8364
15.6804
15.4162
15.0334
14.5205
13.8663
13.0613
12.1008
10.9879
9.73743
8.37611
6.94
5.50137
4.15206
2.97842
2.03394
1.32689
0.82939
0.496915
0.284399
0.154233
0.0781396
0.0361336
0.0146713
0.00488165
0.00116101
0.000144661
4.33896e-06
6.29757
6.62121
7.17506
7.88038
8.67344
9.50509
10.339
11.1496
11.9199
12.6393
13.3017
13.8999
14.4252
14.8728
15.2406
15.528
15.7341
15.8568
15.8925
15.8359
15.68
15.4158
15.0329
14.5201
13.8659
13.0609
12.1004
10.9875
9.73704
8.37575
6.93968
5.50109
4.15184
2.97825
2.03382
1.32681
0.829338
0.496883
0.28438
0.154223
0.0781346
0.0361313
0.0146703
0.00488133
0.00116094
0.000144652
4.33868e-06
6.29731
6.62094
7.17477
7.88008
8.67312
9.50474
10.3386
11.1492
11.9195
12.6389
13.3013
13.8995
14.4248
14.8723
15.2401
15.5275
15.7336
15.8563
15.892
15.8354
15.6795
15.4153
15.0325
14.5196
13.8654
13.0604
12.0999
10.9871
9.73663
8.37537
6.93934
5.5008
4.1516
2.97807
2.03369
1.32672
0.829282
0.49685
0.284361
0.154213
0.0781293
0.0361288
0.0146693
0.004881
0.00116086
0.000144642
4.33839e-06
6.29704
6.62065
7.17448
7.87976
8.67278
9.50438
10.3383
11.1488
11.919
12.6385
13.3009
13.899
14.4243
14.8718
15.2396
15.527
15.7331
15.8558
15.8915
15.8349
15.679
15.4148
15.0319
14.5191
13.8649
13.0599
12.0994
10.9866
9.73619
8.37497
6.93898
5.50049
4.15135
2.97788
2.03356
1.32663
0.829224
0.496814
0.284341
0.154202
0.0781237
0.0361262
0.0146683
0.00488065
0.00116078
0.000144632
4.33808e-06
6.29675
6.62035
7.17416
7.87942
8.67242
9.50399
10.3378
11.1484
11.9186
12.638
13.3004
13.8985
14.4238
14.8713
15.2391
15.5265
15.7325
15.8552
15.8909
15.8343
15.6784
15.4142
15.0314
14.5185
13.8644
13.0594
12.0989
10.9861
9.73573
8.37454
6.9386
5.50016
4.15108
2.97768
2.03341
1.32653
0.829162
0.496777
0.284319
0.15419
0.0781177
0.0361235
0.0146672
0.00488028
0.00116069
0.000144621
4.33774e-06
6.29644
6.62003
7.17382
7.87906
8.67203
9.50358
10.3374
11.1479
11.9181
12.6375
13.2998
13.898
14.4232
14.8707
15.2385
15.5259
15.732
15.8546
15.8903
15.8338
15.6778
15.4136
15.0308
14.518
13.8638
13.0589
12.0984
10.9856
9.73524
8.37409
6.93819
5.49981
4.1508
2.97746
2.03326
1.32643
0.829096
0.496737
0.284296
0.154178
0.0781114
0.0361205
0.014666
0.00487988
0.00116059
0.000144609
4.33739e-06
6.29611
6.6197
7.17347
7.87868
8.67163
9.50315
10.337
11.1475
11.9176
12.6369
13.2993
13.8974
14.4227
14.8701
15.2379
15.5253
15.7314
15.854
15.8897
15.8331
15.6772
15.413
15.0302
14.5173
13.8632
13.0583
12.0978
10.985
9.73472
8.37361
6.93776
5.49944
4.1505
2.97723
2.0331
1.32632
0.829026
0.496695
0.284272
0.154164
0.0781047
0.0361174
0.0146647
0.00487946
0.00116049
0.000144597
4.33702e-06
6.29577
6.61934
7.17309
7.87828
8.6712
9.50269
10.3365
11.1469
11.917
12.6364
13.2987
13.8968
14.422
14.8695
15.2373
15.5247
15.7307
15.8534
15.889
15.8325
15.6765
15.4124
15.0295
14.5167
13.8625
13.0576
12.0972
10.9845
9.73417
8.3731
6.9373
5.49905
4.15018
2.97699
2.03292
1.3262
0.828952
0.49665
0.284246
0.15415
0.0780976
0.0361142
0.0146634
0.00487902
0.00116039
0.000144583
4.33663e-06
6.2954
6.61896
7.17269
7.87785
8.67074
9.50221
10.3359
11.1464
11.9165
12.6358
13.2981
13.8962
14.4214
14.8688
15.2366
15.524
15.73
15.8527
15.8884
15.8318
15.6758
15.4117
15.0289
14.516
13.8619
13.057
12.0966
10.9838
9.73359
8.37256
6.93682
5.49864
4.14985
2.97674
2.03274
1.32608
0.828874
0.496603
0.284219
0.154136
0.0780901
0.0361107
0.014662
0.00487855
0.00116028
0.00014457
4.33621e-06
6.29502
6.61856
7.17227
7.8774
8.67026
9.50169
10.3354
11.1458
11.9159
12.6352
13.2974
13.8955
14.4207
14.8681
15.2359
15.5233
15.7293
15.8519
15.8876
15.831
15.6751
15.4109
15.0281
14.5153
13.8612
13.0563
12.0959
10.9832
9.73297
8.37199
6.93631
5.4982
4.14949
2.97647
2.03255
1.32595
0.828792
0.496553
0.28419
0.15412
0.0780822
0.036107
0.0146605
0.00487805
0.00116016
0.000144555
4.33577e-06
6.29461
6.61814
7.17182
7.87693
8.66975
9.50115
10.3348
11.1452
11.9152
12.6345
13.2968
13.8948
14.42
14.8674
15.2352
15.5225
15.7285
15.8512
15.8868
15.8303
15.6743
15.4102
15.0274
14.5145
13.8604
13.0555
12.0952
10.9825
9.73232
8.37139
6.93577
5.49774
4.14912
2.97618
2.03234
1.32581
0.828705
0.4965
0.28416
0.154104
0.0780738
0.0361031
0.0146589
0.00487753
0.00116003
0.000144539
4.3353e-06
6.29418
6.6177
7.17135
7.87642
8.66921
9.50057
10.3342
11.1446
11.9146
12.6338
13.296
13.894
14.4192
14.8666
15.2344
15.5217
15.7277
15.8504
15.886
15.8295
15.6735
15.4093
15.0265
14.5137
13.8596
13.0548
12.0944
10.9818
9.73163
8.37075
6.9352
5.49725
4.14872
2.97588
2.03213
1.32567
0.828612
0.496444
0.284128
0.154086
0.0780649
0.036099
0.0146572
0.00487698
0.0011599
0.000144523
4.33481e-06
6.29372
6.61723
7.17086
7.87589
8.66865
9.49997
10.3336
11.1439
11.9138
12.6331
13.2953
13.8932
14.4184
14.8658
15.2335
15.5209
15.7269
15.8495
15.8852
15.8286
15.6726
15.4085
15.0257
14.5129
13.8588
13.0539
12.0936
10.981
9.73091
8.37008
6.9346
5.49674
4.1483
2.97556
2.0319
1.32552
0.828515
0.496385
0.284094
0.154068
0.0780556
0.0360947
0.0146555
0.00487639
0.00115976
0.000144506
4.33429e-06
6.29324
6.61673
7.17033
7.87533
8.66805
9.49933
10.3329
11.1432
11.9131
12.6323
13.2945
13.8924
14.4176
14.8649
15.2326
15.52
15.726
15.8486
15.8843
15.8277
15.6717
15.4076
15.0248
14.512
13.8579
13.0531
12.0928
10.9802
9.73014
8.36937
6.93397
5.49619
4.14786
2.97522
2.03166
1.32536
0.828412
0.496323
0.284058
0.154048
0.0780457
0.0360901
0.0146536
0.00487577
0.00115962
0.000144487
4.33374e-06
6.29274
6.61621
7.16978
7.87474
8.66742
9.49865
10.3322
11.1424
11.9123
12.6314
13.2936
13.8915
14.4167
14.864
15.2317
15.519
15.725
15.8476
15.8833
15.8267
15.6708
15.4066
15.0238
14.511
13.8569
13.0521
12.0919
10.9793
9.72933
8.36863
6.9333
5.49562
4.1474
2.97487
2.03141
1.32518
0.828304
0.496257
0.28402
0.154028
0.0780353
0.0360853
0.0146517
0.00487512
0.00115946
0.000144468
4.33316e-06
6.2922
6.61566
7.1692
7.87412
8.66675
9.49794
10.3314
11.1416
11.9115
12.6306
13.2927
13.8906
14.4157
14.863
15.2307
15.518
15.724
15.8466
15.8823
15.8257
15.6698
15.4056
15.0228
14.51
13.856
13.0512
12.0909
10.9784
9.72848
8.36784
6.93259
5.49501
4.14691
2.9745
2.03114
1.32501
0.82819
0.496188
0.28398
0.154006
0.0780243
0.0360802
0.0146496
0.00487443
0.0011593
0.000144448
4.33255e-06
6.29164
6.61508
7.16858
7.87347
8.66605
9.49719
10.3306
11.1408
11.9106
12.6297
13.2917
13.8896
14.4147
14.862
15.2297
15.517
15.7229
15.8455
15.8812
15.8246
15.6687
15.4045
15.0217
14.509
13.8549
13.0502
12.0899
10.9775
9.72758
8.36701
6.93185
5.49437
4.14639
2.9741
2.03086
1.32482
0.828069
0.496115
0.283938
0.153983
0.0780127
0.0360749
0.0146474
0.00487371
0.00115913
0.000144426
4.33191e-06
6.29105
6.61446
7.16794
7.87277
8.66531
9.4964
10.3298
11.1399
11.9097
12.6287
13.2907
13.8886
14.4136
14.8609
15.2286
15.5159
15.7218
15.8444
15.8801
15.8235
15.6675
15.4034
15.0206
14.5079
13.8538
13.0491
12.0889
10.9765
9.72664
8.36613
6.93106
5.4937
4.14584
2.97369
2.03056
1.32462
0.827942
0.496038
0.283894
0.153959
0.0780005
0.0360692
0.0146451
0.00487295
0.00115894
0.000144404
4.33123e-06
6.29043
6.61382
7.16725
7.87205
8.66453
9.49557
10.3289
11.1389
11.9087
12.6277
13.2897
13.8875
14.4125
14.8598
15.2274
15.5147
15.7206
15.8432
15.8789
15.8223
15.6664
15.4022
15.0194
14.5067
13.8527
13.0479
12.0878
10.9754
9.72564
8.36521
6.93024
5.49299
4.14527
2.97325
2.03025
1.32441
0.827808
0.495957
0.283848
0.153934
0.0779876
0.0360633
0.0146427
0.00487214
0.00115875
0.00014438
4.33052e-06
6.28978
6.61314
7.16654
7.87128
8.66371
9.49469
10.328
11.138
11.9076
12.6266
13.2886
13.8864
14.4113
14.8586
15.2262
15.5135
15.7194
15.842
15.8776
15.821
15.6651
15.401
15.0182
14.5055
13.8514
13.0468
12.0866
10.9743
9.72459
8.36424
6.92937
5.49225
4.14466
2.97279
2.02992
1.32419
0.827667
0.495872
0.283799
0.153907
0.0779741
0.036057
0.0146402
0.0048713
0.00115855
0.000144355
4.32976e-06
6.28909
6.61243
7.16579
7.87048
8.66284
9.49377
10.327
11.1369
11.9066
12.6255
13.2874
13.8851
14.4101
14.8573
15.2249
15.5122
15.7181
15.8407
15.8763
15.8197
15.6638
15.3996
15.0169
14.5042
13.8502
13.0455
12.0854
10.9731
9.72348
8.36322
6.92845
5.49146
4.14403
2.9723
2.02957
1.32395
0.827519
0.495782
0.283747
0.153879
0.0779599
0.0360504
0.0146375
0.00487041
0.00115834
0.000144328
4.32897e-06
6.28837
6.61168
7.16499
7.86963
8.66194
9.4928
10.326
11.1358
11.9054
12.6243
13.2862
13.8839
14.4088
14.856
15.2236
15.5108
15.7167
15.8393
15.8749
15.8183
15.6624
15.3983
15.0155
14.5028
13.8488
13.0442
12.0841
10.9719
9.72232
8.36214
6.92749
5.49064
4.14336
2.97179
2.02921
1.32371
0.827364
0.495688
0.283693
0.153849
0.0779449
0.0360435
0.0146347
0.00486947
0.00115812
0.000144301
4.32814e-06
6.28761
6.6109
7.16416
7.86874
8.66098
9.49178
10.3249
11.1347
11.9042
12.623
13.2849
13.8825
14.4075
14.8546
15.2222
15.5094
15.7153
15.8378
15.8735
15.8169
15.6609
15.3968
15.0141
14.5014
13.8474
13.0428
12.0828
10.9706
9.7211
8.36101
6.92648
5.48977
4.14266
2.97126
2.02883
1.32345
0.8272
0.495589
0.283636
0.153818
0.0779292
0.0360362
0.0146317
0.00486849
0.00115788
0.000144271
4.32727e-06
6.28681
6.61007
7.16329
7.86781
8.65998
9.49071
10.3237
11.1335
11.903
12.6217
13.2835
13.8811
14.406
14.8532
15.2207
15.5079
15.7138
15.8363
15.8719
15.8153
15.6594
15.3953
15.0125
14.4998
13.8459
13.0413
12.0813
10.9692
9.71981
8.35982
6.92542
5.48886
4.14192
2.97069
2.02843
1.32318
0.827028
0.495485
0.283576
0.153786
0.0779126
0.0360286
0.0146286
0.00486745
0.00115764
0.000144241
4.32635e-06
6.28597
6.60921
7.16237
7.86683
8.65893
9.48959
10.3225
11.1322
11.9016
12.6203
13.2821
13.8797
14.4045
14.8516
15.2191
15.5063
15.7122
15.8347
15.8703
15.8137
15.6578
15.3937
15.0109
14.4983
13.8443
13.0398
12.0799
10.9678
9.71847
8.35858
6.9243
5.4879
4.14114
2.9701
2.028
1.3229
0.826847
0.495375
0.283513
0.153752
0.0778953
0.0360205
0.0146254
0.00486637
0.00115738
0.000144209
4.32538e-06
6.2851
6.6083
7.16141
7.8658
8.65783
9.48841
10.3213
11.1309
11.9002
12.6189
13.2806
13.8781
14.4029
14.85
15.2175
15.5046
15.7105
15.833
15.8686
15.812
15.6561
15.392
15.0093
14.4966
13.8427
13.0382
12.0783
10.9663
9.71705
8.35727
6.92313
5.4869
4.14032
2.96948
2.02756
1.3226
0.826657
0.495261
0.283447
0.153716
0.077877
0.0360121
0.0146219
0.00486523
0.00115711
0.000144175
4.32437e-06
6.28418
6.60735
7.1604
7.86472
8.65667
9.48717
10.32
11.1295
11.8988
12.6174
13.279
13.8765
14.4013
14.8483
15.2158
15.5029
15.7088
15.8313
15.8669
15.8103
15.6543
15.3902
15.0075
14.4949
13.841
13.0365
12.0767
10.9647
9.71556
8.3559
6.9219
5.48584
4.13947
2.96883
2.0271
1.32229
0.826458
0.49514
0.283377
0.153678
0.0778579
0.0360033
0.0146183
0.00486403
0.00115682
0.000144139
4.32331e-06
6.28322
6.60635
7.15935
7.86359
8.65546
9.48587
10.3186
11.1281
11.8972
12.6158
13.2774
13.8748
14.3995
14.8465
15.214
15.5011
15.7069
15.8294
15.865
15.8084
15.6525
15.3884
15.0057
14.493
13.8392
13.0347
12.0749
10.9631
9.71401
8.35445
6.92061
5.48474
4.13857
2.96815
2.02661
1.32196
0.82625
0.495014
0.283305
0.153638
0.0778379
0.035994
0.0146146
0.00486278
0.00115653
0.000144102
4.32219e-06
6.28221
6.60531
7.15824
7.86241
8.65419
9.48451
10.3171
11.1265
11.8956
12.6141
13.2756
13.873
14.3977
14.8447
15.2121
15.4992
15.705
15.8275
15.8631
15.8065
15.6505
15.3864
15.0037
14.4911
13.8373
13.0329
12.0731
10.9614
9.71237
8.35294
6.91925
5.48358
4.13763
2.96743
2.0261
1.32161
0.826031
0.494881
0.283228
0.153597
0.0778168
0.0359843
0.0146106
0.00486147
0.00115621
0.000144063
4.32102e-06
6.28116
6.60422
7.15709
7.86117
8.65286
9.48309
10.3156
11.1249
11.894
12.6123
13.2738
13.8712
14.3958
14.8427
15.2101
15.4972
15.703
15.8254
15.861
15.8044
15.6485
15.3844
15.0017
14.4891
13.8353
13.0309
12.0712
10.9595
9.71066
8.35136
6.91784
5.48236
4.13665
2.96668
2.02556
1.32125
0.825802
0.494743
0.283149
0.153554
0.0777948
0.0359741
0.0146065
0.00486009
0.00115589
0.000144022
4.3198e-06
6.28006
6.60308
7.15588
7.85987
8.65146
9.48159
10.314
11.1232
11.8922
12.6105
13.2719
13.8692
14.3938
14.8407
15.208
15.4951
15.7008
15.8233
15.8589
15.8023
15.6463
15.3822
14.9996
14.487
13.8332
13.0289
12.0693
10.9576
9.70887
8.34971
6.91635
5.48109
4.13562
2.9659
2.025
1.32088
0.825562
0.494597
0.283065
0.153508
0.0777718
0.0359634
0.0146021
0.00485865
0.00115554
0.00014398
4.31852e-06
6.27891
6.60189
7.15461
7.85851
8.65001
9.48003
10.3124
11.1215
11.8904
12.6086
13.2699
13.8672
14.3917
14.8386
15.2059
15.4929
15.6986
15.8211
15.8567
15.8
15.6441
15.38
14.9973
14.4848
13.831
13.0268
12.0672
10.9556
9.70699
8.34797
6.9148
5.47976
4.13454
2.96507
2.02441
1.32048
0.825311
0.494445
0.282977
0.153461
0.0777476
0.0359522
0.0145976
0.00485714
0.00115518
0.000143935
4.31718e-06
6.27771
6.60064
7.15329
7.8571
8.64848
9.4784
10.3106
11.1197
11.8884
12.6066
13.2678
13.865
14.3895
14.8363
15.2036
15.4906
15.6963
15.8188
15.8543
15.7977
15.6417
15.3777
14.995
14.4825
13.8288
13.0245
12.065
10.9536
9.70503
8.34616
6.91317
5.47837
4.13341
2.96421
2.0238
1.32007
0.825048
0.494286
0.282886
0.153411
0.0777224
0.0359405
0.0145929
0.00485556
0.00115481
0.000143888
4.31578e-06
6.27646
6.59934
7.15191
7.85562
8.64689
9.4767
10.3088
11.1177
11.8864
12.6045
13.2657
13.8628
14.3872
14.834
15.2012
15.4882
15.6939
15.8163
15.8519
15.7952
15.6393
15.3752
14.9926
14.4801
13.8264
13.0222
12.0627
10.9514
9.70298
8.34426
6.91148
5.47691
4.13223
2.96332
2.02316
1.31964
0.824773
0.49412
0.28279
0.153359
0.077696
0.0359283
0.0145879
0.00485391
0.00115442
0.000143839
4.31431e-06
6.27515
6.59799
7.15047
7.85407
8.64523
9.47491
10.3069
11.1157
11.8843
12.6023
13.2634
13.8604
14.3848
14.8315
15.1987
15.4856
15.6914
15.8138
15.8493
15.7927
15.6367
15.3727
14.99
14.4775
13.8239
13.0197
12.0604
10.9491
9.70083
8.34227
6.9097
5.47539
4.13099
2.96237
2.02249
1.31919
0.824486
0.493946
0.28269
0.153304
0.0776684
0.0359156
0.0145827
0.00485218
0.00115401
0.000143788
4.31277e-06
6.27379
6.59657
7.14897
7.85246
8.64349
9.47305
10.3049
11.1136
11.8821
12.6
13.261
13.858
14.3823
14.829
15.1961
15.483
15.6887
15.8111
15.8466
15.79
15.6341
15.37
14.9874
14.4749
13.8213
13.0172
12.0579
10.9467
9.69859
8.3402
6.90784
5.4738
4.1297
2.96139
2.02178
1.31872
0.824186
0.493764
0.282586
0.153247
0.0776395
0.0359022
0.0145773
0.00485038
0.00115358
0.000143735
4.31117e-06
6.27237
6.5951
7.1474
7.85077
8.64168
9.47111
10.3029
11.1114
11.8798
12.5976
13.2585
13.8554
14.3796
14.8263
15.1934
15.4803
15.6859
15.8083
15.8438
15.7872
15.6313
15.3672
14.9846
14.4721
13.8186
13.0145
12.0553
10.9443
9.69624
8.33803
6.9059
5.47214
4.12835
2.96037
2.02105
1.31822
0.823873
0.493575
0.282476
0.153188
0.0776094
0.0358883
0.0145716
0.0048485
0.00115313
0.000143679
4.3095e-06
6.2709
6.59356
7.14577
7.84902
8.63979
9.46908
10.3007
11.1092
11.8774
12.5951
13.2559
13.8527
14.3769
14.8235
15.1906
15.4774
15.683
15.8054
15.8409
15.7843
15.6283
15.3643
14.9817
14.4693
13.8157
13.0117
12.0526
10.9417
9.6938
8.33577
6.90388
5.4704
4.12695
2.9593
2.02029
1.31771
0.823545
0.493377
0.282363
0.153126
0.077578
0.0358737
0.0145657
0.00484653
0.00115266
0.000143621
4.30775e-06
6.26936
6.59196
7.14407
7.84719
8.63782
9.46697
10.2985
11.1068
11.8749
12.5925
13.2532
13.8499
14.3741