/*--------------------------------*- C++ -*----------------------------------*\
  =========                 |
  \\      /  F ield         | OpenFOAM: The Open Source CFD Toolbox
   \\    /   O peration     | Website:  https://openfoam.org
    \\  /    A nd           | Version:  7
     \\/     M anipulation  |
\*---------------------------------------------------------------------------*/
FoamFile
{
    version     2.0;
    format      ascii;
    class       volScalarField;
    location    "5125";
    object      nut;
}
// * * * * * * * * * * * * * * * * * * * * * * * * * * * * * * * * * * * * * //

dimensions      [0 2 -1 0 0 0 0];

internalField   nonuniform List<scalar> 
22090
(
0.000312149
0.000306498
0.000297106
0.000285459
0.000272479
0.000258659
0.000244287
0.000229574
0.000214679
0.000198462
0.000181429
0.000165667
0.000151231
0.000137753
0.000124958
0.000112723
0.000101031
8.991e-05
7.94044e-05
6.95549e-05
6.03941e-05
5.1945e-05
4.42207e-05
3.7225e-05
3.09513e-05
2.53862e-05
2.05105e-05
1.62919e-05
1.26827e-05
9.57658e-06
6.79517e-06
4.57172e-06
2.89233e-06
1.70978e-06
9.41279e-07
4.82321e-07
2.30098e-07
1.02056e-07
4.1852e-08
1.56802e-08
5.25399e-09
1.51942e-09
3.57231e-10
6.14224e-11
6.28706e-12
2.43573e-13
1.18974e-15
0.000312149
0.000306497
0.000297106
0.000285459
0.000272479
0.000258659
0.000244287
0.000229574
0.000214679
0.000198462
0.000181428
0.000165667
0.00015123
0.000137753
0.000124958
0.000112723
0.000101031
8.991e-05
7.94044e-05
6.95549e-05
6.03941e-05
5.1945e-05
4.42207e-05
3.72251e-05
3.09513e-05
2.53862e-05
2.05105e-05
1.6292e-05
1.26827e-05
9.57661e-06
6.7952e-06
4.57174e-06
2.89235e-06
1.70979e-06
9.41287e-07
4.82325e-07
2.301e-07
1.02057e-07
4.18524e-08
1.56803e-08
5.25404e-09
1.51943e-09
3.57234e-10
6.1423e-11
6.28712e-12
2.43575e-13
1.18975e-15
0.000312149
0.000306497
0.000297106
0.000285459
0.000272479
0.000258659
0.000244287
0.000229574
0.000214679
0.000198461
0.000181428
0.000165667
0.00015123
0.000137753
0.000124958
0.000112723
0.000101031
8.991e-05
7.94044e-05
6.95549e-05
6.03942e-05
5.19451e-05
4.42208e-05
3.72251e-05
3.09514e-05
2.53863e-05
2.05106e-05
1.6292e-05
1.26828e-05
9.57666e-06
6.79523e-06
4.57177e-06
2.89237e-06
1.7098e-06
9.41294e-07
4.82329e-07
2.30102e-07
1.02058e-07
4.18527e-08
1.56804e-08
5.25409e-09
1.51944e-09
3.57238e-10
6.14235e-11
6.28717e-12
2.43577e-13
1.18976e-15
0.000312149
0.000306497
0.000297105
0.000285459
0.000272479
0.000258659
0.000244287
0.000229574
0.000214679
0.000198461
0.000181428
0.000165667
0.00015123
0.000137753
0.000124958
0.000112723
0.000101031
8.99101e-05
7.94045e-05
6.9555e-05
6.03943e-05
5.19452e-05
4.42209e-05
3.72252e-05
3.09514e-05
2.53863e-05
2.05106e-05
1.62921e-05
1.26828e-05
9.57669e-06
6.79526e-06
4.57179e-06
2.89239e-06
1.70981e-06
9.413e-07
4.82332e-07
2.30103e-07
1.02059e-07
4.18531e-08
1.56806e-08
5.25413e-09
1.51946e-09
3.5724e-10
6.1424e-11
6.28722e-12
2.43579e-13
1.18977e-15
0.000312149
0.000306497
0.000297105
0.000285459
0.000272479
0.000258659
0.000244287
0.000229574
0.000214679
0.000198461
0.000181428
0.000165667
0.00015123
0.000137753
0.000124958
0.000112723
0.000101031
8.99102e-05
7.94046e-05
6.95551e-05
6.03944e-05
5.19452e-05
4.4221e-05
3.72253e-05
3.09515e-05
2.53864e-05
2.05107e-05
1.62921e-05
1.26829e-05
9.57672e-06
6.79529e-06
4.57181e-06
2.8924e-06
1.70982e-06
9.41305e-07
4.82334e-07
2.30105e-07
1.02059e-07
4.18533e-08
1.56806e-08
5.25416e-09
1.51946e-09
3.57243e-10
6.14243e-11
6.28726e-12
2.4358e-13
1.18977e-15
0.000312148
0.000306497
0.000297105
0.000285459
0.000272479
0.000258659
0.000244287
0.000229574
0.000214679
0.000198461
0.000181428
0.000165667
0.00015123
0.000137753
0.000124958
0.000112723
0.000101031
8.99102e-05
7.94047e-05
6.95552e-05
6.03944e-05
5.19453e-05
4.42211e-05
3.72254e-05
3.09516e-05
2.53864e-05
2.05107e-05
1.62921e-05
1.26829e-05
9.57675e-06
6.7953e-06
4.57182e-06
2.89241e-06
1.70983e-06
9.41308e-07
4.82336e-07
2.30105e-07
1.0206e-07
4.18535e-08
1.56807e-08
5.25418e-09
1.51947e-09
3.57244e-10
6.14246e-11
6.28729e-12
2.43582e-13
1.18978e-15
0.000312148
0.000306496
0.000297105
0.000285459
0.000272479
0.000258659
0.000244287
0.000229574
0.000214679
0.000198461
0.000181427
0.000165667
0.00015123
0.000137753
0.000124958
0.000112723
0.000101031
8.99103e-05
7.94047e-05
6.95552e-05
6.03945e-05
5.19454e-05
4.42211e-05
3.72254e-05
3.09516e-05
2.53865e-05
2.05107e-05
1.62921e-05
1.26829e-05
9.57676e-06
6.79531e-06
4.57183e-06
2.89241e-06
1.70983e-06
9.4131e-07
4.82337e-07
2.30106e-07
1.0206e-07
4.18536e-08
1.56808e-08
5.25419e-09
1.51947e-09
3.57245e-10
6.14248e-11
6.2873e-12
2.43582e-13
1.18978e-15
0.000312148
0.000306496
0.000297104
0.000285458
0.000272478
0.000258659
0.000244287
0.000229574
0.000214678
0.000198461
0.000181427
0.000165666
0.00015123
0.000137753
0.000124958
0.000112723
0.000101031
8.99103e-05
7.94047e-05
6.95553e-05
6.03945e-05
5.19454e-05
4.42211e-05
3.72254e-05
3.09516e-05
2.53865e-05
2.05107e-05
1.62921e-05
1.26829e-05
9.57676e-06
6.79532e-06
4.57183e-06
2.89242e-06
1.70983e-06
9.41311e-07
4.82338e-07
2.30106e-07
1.0206e-07
4.18536e-08
1.56808e-08
5.2542e-09
1.51948e-09
3.57245e-10
6.14248e-11
6.28731e-12
2.43582e-13
1.18978e-15
0.000312147
0.000306495
0.000297104
0.000285458
0.000272478
0.000258658
0.000244287
0.000229573
0.000214678
0.00019846
0.000181427
0.000165666
0.00015123
0.000137753
0.000124958
0.000112723
0.000101031
8.99103e-05
7.94047e-05
6.95552e-05
6.03945e-05
5.19453e-05
4.42211e-05
3.72254e-05
3.09516e-05
2.53865e-05
2.05107e-05
1.62921e-05
1.26829e-05
9.57676e-06
6.79531e-06
4.57183e-06
2.89241e-06
1.70983e-06
9.4131e-07
4.82337e-07
2.30106e-07
1.0206e-07
4.18536e-08
1.56808e-08
5.25419e-09
1.51947e-09
3.57245e-10
6.14247e-11
6.2873e-12
2.43582e-13
1.18978e-15
0.000312146
0.000306495
0.000297103
0.000285457
0.000272478
0.000258658
0.000244286
0.000229573
0.000214678
0.00019846
0.000181427
0.000165666
0.00015123
0.000137753
0.000124958
0.000112723
0.000101031
8.99102e-05
7.94046e-05
6.95552e-05
6.03944e-05
5.19453e-05
4.4221e-05
3.72253e-05
3.09515e-05
2.53864e-05
2.05107e-05
1.62921e-05
1.26829e-05
9.57674e-06
6.7953e-06
4.57182e-06
2.89241e-06
1.70982e-06
9.41308e-07
4.82336e-07
2.30105e-07
1.0206e-07
4.18535e-08
1.56807e-08
5.25418e-09
1.51947e-09
3.57244e-10
6.14246e-11
6.28728e-12
2.43581e-13
1.18978e-15
0.000312146
0.000306494
0.000297103
0.000285457
0.000272477
0.000258657
0.000244286
0.000229573
0.000214678
0.00019846
0.000181426
0.000165666
0.00015123
0.000137752
0.000124958
0.000112723
0.000101031
8.991e-05
7.94045e-05
6.95551e-05
6.03943e-05
5.19452e-05
4.4221e-05
3.72253e-05
3.09515e-05
2.53864e-05
2.05107e-05
1.62921e-05
1.26829e-05
9.57672e-06
6.79528e-06
4.57181e-06
2.8924e-06
1.70982e-06
9.41305e-07
4.82334e-07
2.30104e-07
1.02059e-07
4.18533e-08
1.56806e-08
5.25415e-09
1.51946e-09
3.57242e-10
6.14243e-11
6.28726e-12
2.4358e-13
1.18977e-15
0.000312145
0.000306493
0.000297102
0.000285456
0.000272476
0.000258657
0.000244285
0.000229572
0.000214677
0.000198459
0.000181426
0.000165665
0.000151229
0.000137752
0.000124957
0.000112723
0.00010103
8.99099e-05
7.94044e-05
6.95549e-05
6.03942e-05
5.19451e-05
4.42209e-05
3.72252e-05
3.09514e-05
2.53863e-05
2.05106e-05
1.6292e-05
1.26828e-05
9.57669e-06
6.79526e-06
4.57179e-06
2.89239e-06
1.70981e-06
9.413e-07
4.82332e-07
2.30103e-07
1.02059e-07
4.18531e-08
1.56806e-08
5.25412e-09
1.51945e-09
3.5724e-10
6.1424e-11
6.28722e-12
2.43579e-13
1.18977e-15
0.000312144
0.000306492
0.000297101
0.000285455
0.000272476
0.000258656
0.000244285
0.000229572
0.000214677
0.000198459
0.000181426
0.000165665
0.000151229
0.000137752
0.000124957
0.000112723
0.00010103
8.99096e-05
7.94042e-05
6.95547e-05
6.0394e-05
5.1945e-05
4.42207e-05
3.72251e-05
3.09513e-05
2.53863e-05
2.05105e-05
1.6292e-05
1.26828e-05
9.57665e-06
6.79523e-06
4.57177e-06
2.89237e-06
1.7098e-06
9.41294e-07
4.82328e-07
2.30102e-07
1.02058e-07
4.18527e-08
1.56804e-08
5.25409e-09
1.51944e-09
3.57238e-10
6.14235e-11
6.28717e-12
2.43577e-13
1.18976e-15
0.000312143
0.000306491
0.0002971
0.000285454
0.000272475
0.000258655
0.000244284
0.000229571
0.000214676
0.000198458
0.000181425
0.000165665
0.000151229
0.000137751
0.000124957
0.000112722
0.00010103
8.99094e-05
7.94039e-05
6.95545e-05
6.03938e-05
5.19448e-05
4.42206e-05
3.7225e-05
3.09512e-05
2.53862e-05
2.05105e-05
1.62919e-05
1.26827e-05
9.5766e-06
6.79519e-06
4.57174e-06
2.89235e-06
1.70979e-06
9.41287e-07
4.82325e-07
2.301e-07
1.02057e-07
4.18524e-08
1.56803e-08
5.25404e-09
1.51943e-09
3.57235e-10
6.1423e-11
6.28712e-12
2.43575e-13
1.18975e-15
0.000312141
0.00030649
0.000297099
0.000285453
0.000272474
0.000258654
0.000244283
0.00022957
0.000214675
0.000198457
0.000181424
0.000165664
0.000151228
0.000137751
0.000124956
0.000112722
0.00010103
8.9909e-05
7.94036e-05
6.95543e-05
6.03936e-05
5.19446e-05
4.42204e-05
3.72248e-05
3.09511e-05
2.5386e-05
2.05104e-05
1.62918e-05
1.26827e-05
9.57655e-06
6.79515e-06
4.57171e-06
2.89233e-06
1.70977e-06
9.41278e-07
4.8232e-07
2.30097e-07
1.02056e-07
4.18519e-08
1.56801e-08
5.25398e-09
1.51941e-09
3.57231e-10
6.14223e-11
6.28705e-12
2.43572e-13
1.18973e-15
0.00031214
0.000306489
0.000297098
0.000285452
0.000272473
0.000258653
0.000244282
0.000229569
0.000214674
0.000198456
0.000181424
0.000165663
0.000151227
0.00013775
0.000124956
0.000112721
0.000101029
8.99087e-05
7.94033e-05
6.9554e-05
6.03933e-05
5.19443e-05
4.42202e-05
3.72246e-05
3.09509e-05
2.53859e-05
2.05103e-05
1.62918e-05
1.26826e-05
9.57649e-06
6.7951e-06
4.57167e-06
2.8923e-06
1.70976e-06
9.41268e-07
4.82315e-07
2.30095e-07
1.02055e-07
4.18514e-08
1.56799e-08
5.25392e-09
1.5194e-09
3.57226e-10
6.14216e-11
6.28698e-12
2.43569e-13
1.18972e-15
0.000312138
0.000306487
0.000297096
0.00028545
0.000272471
0.000258652
0.000244281
0.000229568
0.000214673
0.000198456
0.000181423
0.000165663
0.000151227
0.00013775
0.000124955
0.000112721
0.000101029
8.99083e-05
7.94029e-05
6.95536e-05
6.0393e-05
5.19441e-05
4.422e-05
3.72244e-05
3.09508e-05
2.53858e-05
2.05101e-05
1.62917e-05
1.26825e-05
9.57641e-06
6.79504e-06
4.57163e-06
2.89227e-06
1.70974e-06
9.41257e-07
4.82309e-07
2.30092e-07
1.02053e-07
4.18509e-08
1.56797e-08
5.25385e-09
1.51937e-09
3.57222e-10
6.14207e-11
6.28689e-12
2.43566e-13
1.1897e-15
0.000312137
0.000306485
0.000297094
0.000285449
0.00027247
0.000258651
0.00024428
0.000229567
0.000214672
0.000198455
0.000181422
0.000165662
0.000151226
0.000137749
0.000124954
0.00011272
0.000101028
8.99078e-05
7.94025e-05
6.95532e-05
6.03927e-05
5.19438e-05
4.42197e-05
3.72242e-05
3.09506e-05
2.53856e-05
2.051e-05
1.62915e-05
1.26824e-05
9.57633e-06
6.79498e-06
4.57158e-06
2.89224e-06
1.70972e-06
9.41245e-07
4.82302e-07
2.30088e-07
1.02052e-07
4.18503e-08
1.56795e-08
5.25377e-09
1.51935e-09
3.57216e-10
6.14198e-11
6.28679e-12
2.43562e-13
1.18969e-15
0.000312135
0.000306484
0.000297093
0.000285447
0.000272468
0.000258649
0.000244278
0.000229566
0.000214671
0.000198453
0.000181421
0.000165661
0.000151225
0.000137748
0.000124954
0.00011272
0.000101028
8.99073e-05
7.9402e-05
6.95528e-05
6.03923e-05
5.19435e-05
4.42194e-05
3.7224e-05
3.09503e-05
2.53854e-05
2.05098e-05
1.62914e-05
1.26823e-05
9.57624e-06
6.79491e-06
4.57153e-06
2.89221e-06
1.70969e-06
9.41231e-07
4.82294e-07
2.30085e-07
1.0205e-07
4.18496e-08
1.56792e-08
5.25368e-09
1.51933e-09
3.5721e-10
6.14188e-11
6.28669e-12
2.43558e-13
1.18967e-15
0.000312133
0.000306481
0.000297091
0.000285445
0.000272466
0.000258648
0.000244277
0.000229564
0.00021467
0.000198452
0.00018142
0.00016566
0.000151224
0.000137748
0.000124953
0.000112719
0.000101027
8.99067e-05
7.94015e-05
6.95524e-05
6.03919e-05
5.19431e-05
4.42191e-05
3.72237e-05
3.09501e-05
2.53852e-05
2.05097e-05
1.62913e-05
1.26822e-05
9.57615e-06
6.79483e-06
4.57147e-06
2.89217e-06
1.70967e-06
9.41216e-07
4.82286e-07
2.30081e-07
1.02048e-07
4.18488e-08
1.56789e-08
5.25358e-09
1.5193e-09
3.57204e-10
6.14176e-11
6.28657e-12
2.43554e-13
1.18964e-15
0.00031213
0.000306479
0.000297089
0.000285443
0.000272465
0.000258646
0.000244275
0.000229563
0.000214668
0.000198451
0.000181418
0.000165659
0.000151223
0.000137747
0.000124952
0.000112718
0.000101026
8.99061e-05
7.9401e-05
6.95519e-05
6.03915e-05
5.19427e-05
4.42188e-05
3.72234e-05
3.09499e-05
2.5385e-05
2.05095e-05
1.62911e-05
1.26821e-05
9.57604e-06
6.79475e-06
4.57141e-06
2.89212e-06
1.70964e-06
9.41199e-07
4.82277e-07
2.30076e-07
1.02046e-07
4.1848e-08
1.56786e-08
5.25348e-09
1.51927e-09
3.57196e-10
6.14164e-11
6.28645e-12
2.43549e-13
1.18962e-15
0.000312128
0.000306477
0.000297086
0.000285441
0.000272462
0.000258644
0.000244273
0.000229561
0.000214667
0.000198449
0.000181417
0.000165657
0.000151222
0.000137746
0.000124951
0.000112717
0.000101026
8.99054e-05
7.94003e-05
6.95513e-05
6.0391e-05
5.19423e-05
4.42184e-05
3.72231e-05
3.09496e-05
2.53848e-05
2.05093e-05
1.6291e-05
1.26819e-05
9.57593e-06
6.79466e-06
4.57134e-06
2.89208e-06
1.70961e-06
9.41181e-07
4.82268e-07
2.30072e-07
1.02044e-07
4.18471e-08
1.56783e-08
5.25336e-09
1.51923e-09
3.57188e-10
6.1415e-11
6.28631e-12
2.43544e-13
1.18959e-15
0.000312125
0.000306474
0.000297084
0.000285439
0.00027246
0.000258642
0.000244271
0.000229559
0.000214665
0.000198448
0.000181416
0.000165656
0.000151221
0.000137745
0.00012495
0.000112716
0.000101025
8.99047e-05
7.93997e-05
6.95507e-05
6.03905e-05
5.19418e-05
4.4218e-05
3.72227e-05
3.09493e-05
2.53845e-05
2.05091e-05
1.62908e-05
1.26818e-05
9.5758e-06
6.79456e-06
4.57127e-06
2.89202e-06
1.70958e-06
9.41162e-07
4.82257e-07
2.30066e-07
1.02042e-07
4.18461e-08
1.56779e-08
5.25324e-09
1.5192e-09
3.5718e-10
6.14136e-11
6.28616e-12
2.43538e-13
1.18956e-15
0.000312122
0.000306471
0.000297081
0.000285436
0.000272458
0.00025864
0.000244269
0.000229557
0.000214663
0.000198446
0.000181414
0.000165655
0.00015122
0.000137743
0.000124949
0.000112716
0.000101024
8.99039e-05
7.9399e-05
6.95501e-05
6.03899e-05
5.19413e-05
4.42176e-05
3.72223e-05
3.0949e-05
2.53842e-05
2.05089e-05
1.62906e-05
1.26816e-05
9.57566e-06
6.79446e-06
4.57119e-06
2.89197e-06
1.70954e-06
9.41141e-07
4.82246e-07
2.30061e-07
1.02039e-07
4.1845e-08
1.56775e-08
5.2531e-09
1.51916e-09
3.57171e-10
6.1412e-11
6.286e-12
2.43532e-13
1.18953e-15
0.000312119
0.000306468
0.000297078
0.000285433
0.000272455
0.000258637
0.000244267
0.000229555
0.000214662
0.000198444
0.000181413
0.000165653
0.000151218
0.000137742
0.000124948
0.000112714
0.000101023
8.9903e-05
7.93982e-05
6.95494e-05
6.03893e-05
5.19408e-05
4.42171e-05
3.72219e-05
3.09486e-05
2.5384e-05
2.05086e-05
1.62904e-05
1.26815e-05
9.57552e-06
6.79434e-06
4.57111e-06
2.89191e-06
1.7095e-06
9.41119e-07
4.82234e-07
2.30055e-07
1.02036e-07
4.18439e-08
1.56771e-08
5.25296e-09
1.51912e-09
3.57161e-10
6.14103e-11
6.28582e-12
2.43525e-13
1.1895e-15
0.000312116
0.000306465
0.000297075
0.00028543
0.000272452
0.000258635
0.000244265
0.000229553
0.000214659
0.000198442
0.000181411
0.000165652
0.000151217
0.000137741
0.000124947
0.000112713
0.000101022
8.99021e-05
7.93974e-05
6.95487e-05
6.03887e-05
5.19402e-05
4.42166e-05
3.72215e-05
3.09482e-05
2.53836e-05
2.05083e-05
1.62902e-05
1.26813e-05
9.57536e-06
6.79422e-06
4.57102e-06
2.89185e-06
1.70946e-06
9.41094e-07
4.82221e-07
2.30048e-07
1.02034e-07
4.18427e-08
1.56766e-08
5.2528e-09
1.51907e-09
3.5715e-10
6.14085e-11
6.28563e-12
2.43518e-13
1.18947e-15
0.000312112
0.000306461
0.000297072
0.000285427
0.000272449
0.000258632
0.000244262
0.000229551
0.000214657
0.00019844
0.000181409
0.00016565
0.000151215
0.000137739
0.000124946
0.000112712
0.000101021
8.99011e-05
7.93965e-05
6.95479e-05
6.0388e-05
5.19396e-05
4.42161e-05
3.7221e-05
3.09478e-05
2.53833e-05
2.05081e-05
1.62899e-05
1.26811e-05
9.5752e-06
6.79409e-06
4.57092e-06
2.89178e-06
1.70942e-06
9.41068e-07
4.82207e-07
2.30041e-07
1.0203e-07
4.18413e-08
1.56761e-08
5.25264e-09
1.51902e-09
3.57139e-10
6.14065e-11
6.28543e-12
2.4351e-13
1.18943e-15
0.000312108
0.000306458
0.000297068
0.000285424
0.000272446
0.000258629
0.000244259
0.000229548
0.000214655
0.000198438
0.000181407
0.000165648
0.000151214
0.000137738
0.000124944
0.000112711
0.00010102
8.99001e-05
7.93956e-05
6.95471e-05
6.03872e-05
5.19389e-05
4.42155e-05
3.72205e-05
3.09474e-05
2.53829e-05
2.05077e-05
1.62897e-05
1.26809e-05
9.57502e-06
6.79395e-06
4.57081e-06
2.89171e-06
1.70937e-06
9.41041e-07
4.82192e-07
2.30034e-07
1.02027e-07
4.18399e-08
1.56756e-08
5.25246e-09
1.51897e-09
3.57127e-10
6.14044e-11
6.28522e-12
2.43501e-13
1.18939e-15
0.000312104
0.000306454
0.000297064
0.00028542
0.000272443
0.000258626
0.000244256
0.000229545
0.000214652
0.000198436
0.000181405
0.000165646
0.000151212
0.000137736
0.000124943
0.00011271
0.000101018
8.9899e-05
7.93946e-05
6.95462e-05
6.03864e-05
5.19382e-05
4.42149e-05
3.722e-05
3.09469e-05
2.53825e-05
2.05074e-05
1.62894e-05
1.26807e-05
9.57482e-06
6.7938e-06
4.5707e-06
2.89163e-06
1.70932e-06
9.41011e-07
4.82176e-07
2.30026e-07
1.02023e-07
4.18384e-08
1.5675e-08
5.25227e-09
1.51892e-09
3.57114e-10
6.14022e-11
6.28499e-12
2.43493e-13
1.18934e-15
0.0003121
0.000306449
0.00029706
0.000285416
0.000272439
0.000258622
0.000244253
0.000229542
0.00021465
0.000198433
0.000181402
0.000165644
0.00015121
0.000137734
0.000124941
0.000112708
0.000101017
8.98978e-05
7.93935e-05
6.95452e-05
6.03856e-05
5.19375e-05
4.42142e-05
3.72194e-05
3.09465e-05
2.53821e-05
2.05071e-05
1.62891e-05
1.26804e-05
9.57462e-06
6.79364e-06
4.57058e-06
2.89154e-06
1.70927e-06
9.40979e-07
4.82158e-07
2.30017e-07
1.0202e-07
4.18368e-08
1.56744e-08
5.25206e-09
1.51886e-09
3.571e-10
6.13998e-11
6.28475e-12
2.43483e-13
1.1893e-15
0.000312095
0.000306445
0.000297056
0.000285412
0.000272435
0.000258619
0.00024425
0.000229539
0.000214647
0.00019843
0.0001814
0.000165642
0.000151208
0.000137733
0.000124939
0.000112707
0.000101016
8.98965e-05
7.93923e-05
6.95442e-05
6.03846e-05
5.19367e-05
4.42135e-05
3.72188e-05
3.09459e-05
2.53817e-05
2.05067e-05
1.62888e-05
1.26802e-05
9.5744e-06
6.79347e-06
4.57045e-06
2.89146e-06
1.70921e-06
9.40945e-07
4.8214e-07
2.30008e-07
1.02015e-07
4.18351e-08
1.56738e-08
5.25184e-09
1.51879e-09
3.57085e-10
6.13972e-11
6.28448e-12
2.43473e-13
1.18925e-15
0.00031209
0.00030644
0.000297051
0.000285408
0.000272431
0.000258615
0.000244246
0.000229536
0.000214644
0.000198428
0.000181397
0.000165639
0.000151206
0.000137731
0.000124938
0.000112705
0.000101014
8.98951e-05
7.93911e-05
6.95431e-05
6.03837e-05
5.19358e-05
4.42128e-05
3.72182e-05
3.09454e-05
2.53812e-05
2.05063e-05
1.62885e-05
1.26799e-05
9.57417e-06
6.79328e-06
4.57032e-06
2.89136e-06
1.70915e-06
9.40909e-07
4.82121e-07
2.29999e-07
1.02011e-07
4.18333e-08
1.56731e-08
5.25161e-09
1.51873e-09
3.57069e-10
6.13945e-11
6.28421e-12
2.43462e-13
1.1892e-15
0.000312085
0.000306435
0.000297046
0.000285403
0.000272427
0.000258611
0.000244242
0.000229532
0.00021464
0.000198424
0.000181394
0.000165637
0.000151203
0.000137728
0.000124936
0.000112703
0.000101013
8.98937e-05
7.93898e-05
6.95419e-05
6.03826e-05
5.19349e-05
4.4212e-05
3.72175e-05
3.09448e-05
2.53807e-05
2.05059e-05
1.62881e-05
1.26796e-05
9.57392e-06
6.79309e-06
4.57017e-06
2.89126e-06
1.70908e-06
9.40871e-07
4.821e-07
2.29988e-07
1.02006e-07
4.18314e-08
1.56724e-08
5.25137e-09
1.51866e-09
3.57052e-10
6.13916e-11
6.28391e-12
2.43451e-13
1.18914e-15
0.000312079
0.000306429
0.000297041
0.000285398
0.000272422
0.000258606
0.000244238
0.000229529
0.000214637
0.000198421
0.000181391
0.000165634
0.000151201
0.000137726
0.000124934
0.000112701
0.000101011
8.98921e-05
7.93884e-05
6.95407e-05
6.03815e-05
5.19339e-05
4.42111e-05
3.72167e-05
3.09441e-05
2.53802e-05
2.05054e-05
1.62877e-05
1.26793e-05
9.57365e-06
6.79288e-06
4.57002e-06
2.89115e-06
1.70902e-06
9.4083e-07
4.82078e-07
2.29977e-07
1.02001e-07
4.18293e-08
1.56716e-08
5.2511e-09
1.51858e-09
3.57034e-10
6.13885e-11
6.28359e-12
2.43438e-13
1.18908e-15
0.000312073
0.000306423
0.000297035
0.000285393
0.000272417
0.000258601
0.000244234
0.000229525
0.000214633
0.000198418
0.000181388
0.000165631
0.000151198
0.000137724
0.000124931
0.000112699
0.000101009
8.98905e-05
7.93869e-05
6.95393e-05
6.03804e-05
5.19329e-05
4.42102e-05
3.7216e-05
3.09435e-05
2.53796e-05
2.05049e-05
1.62873e-05
1.2679e-05
9.57337e-06
6.79266e-06
4.56986e-06
2.89104e-06
1.70894e-06
9.40786e-07
4.82054e-07
2.29966e-07
1.01996e-07
4.18271e-08
1.56707e-08
5.25082e-09
1.5185e-09
3.57015e-10
6.13852e-11
6.28326e-12
2.43425e-13
1.18902e-15
0.000312067
0.000306417
0.000297029
0.000285387
0.000272412
0.000258597
0.000244229
0.00022952
0.000214629
0.000198414
0.000181385
0.000165628
0.000151195
0.000137721
0.000124929
0.000112697
0.000101007
8.98887e-05
7.93854e-05
6.95379e-05
6.03791e-05
5.19318e-05
4.42092e-05
3.72151e-05
3.09428e-05
2.5379e-05
2.05044e-05
1.62869e-05
1.26786e-05
9.57307e-06
6.79243e-06
4.56968e-06
2.89092e-06
1.70886e-06
9.4074e-07
4.82029e-07
2.29953e-07
1.0199e-07
4.18247e-08
1.56699e-08
5.25053e-09
1.51841e-09
3.56995e-10
6.13818e-11
6.2829e-12
2.43412e-13
1.18895e-15
0.00031206
0.00030641
0.000297023
0.000285381
0.000272406
0.000258591
0.000244224
0.000229516
0.000214625
0.00019841
0.000181381
0.000165625
0.000151192
0.000137719
0.000124927
0.000112695
0.000101005
8.98869e-05
7.93837e-05
6.95364e-05
6.03778e-05
5.19306e-05
4.42082e-05
3.72142e-05
3.0942e-05
2.53783e-05
2.05039e-05
1.62865e-05
1.26782e-05
9.57276e-06
6.79218e-06
4.5695e-06
2.89079e-06
1.70878e-06
9.40691e-07
4.82003e-07
2.2994e-07
1.01985e-07
4.18223e-08
1.56689e-08
5.25021e-09
1.51832e-09
3.56973e-10
6.1378e-11
6.28252e-12
2.43397e-13
1.18888e-15
0.000312052
0.000306403
0.000297016
0.000285375
0.0002724
0.000258586
0.000244219
0.000229511
0.00021462
0.000198406
0.000181378
0.000165622
0.000151189
0.000137716
0.000124924
0.000112692
0.000101003
8.98849e-05
7.93819e-05
6.95349e-05
6.03764e-05
5.19294e-05
4.42071e-05
3.72133e-05
3.09412e-05
2.53776e-05
2.05033e-05
1.6286e-05
1.26778e-05
9.57242e-06
6.79192e-06
4.5693e-06
2.89065e-06
1.70869e-06
9.40638e-07
4.81974e-07
2.29926e-07
1.01978e-07
4.18196e-08
1.56679e-08
5.24987e-09
1.51822e-09
3.56951e-10
6.13741e-11
6.28212e-12
2.43381e-13
1.1888e-15
0.000312045
0.000306396
0.000297009
0.000285368
0.000272394
0.00025858
0.000244214
0.000229506
0.000214616
0.000198401
0.000181374
0.000165618
0.000151186
0.000137713
0.000124921
0.00011269
0.000101001
8.98828e-05
7.938e-05
6.95332e-05
6.03749e-05
5.19281e-05
4.4206e-05
3.72123e-05
3.09403e-05
2.53769e-05
2.05027e-05
1.62855e-05
1.26774e-05
9.57206e-06
6.79164e-06
4.56909e-06
2.8905e-06
1.7086e-06
9.40583e-07
4.81944e-07
2.29911e-07
1.01971e-07
4.18168e-08
1.56669e-08
5.24952e-09
1.51812e-09
3.56926e-10
6.13699e-11
6.28169e-12
2.43365e-13
1.18872e-15
0.000312037
0.000306388
0.000297001
0.000285361
0.000272387
0.000258573
0.000244208
0.0002295
0.000214611
0.000198397
0.000181369
0.000165614
0.000151182
0.000137709
0.000124918
0.000112687
0.000100998
8.98806e-05
7.9378e-05
6.95314e-05
6.03733e-05
5.19267e-05
4.42048e-05
3.72112e-05
3.09394e-05
2.53761e-05
2.0502e-05
1.62849e-05
1.2677e-05
9.57168e-06
6.79134e-06
4.56887e-06
2.89035e-06
1.7085e-06
9.40524e-07
4.81913e-07
2.29896e-07
1.01964e-07
4.18138e-08
1.56657e-08
5.24914e-09
1.51801e-09
3.569e-10
6.13655e-11
6.28124e-12
2.43347e-13
1.18863e-15
0.000312028
0.00030638
0.000296993
0.000285353
0.00027238
0.000258567
0.000244201
0.000229495
0.000214605
0.000198392
0.000181365
0.00016561
0.000151179
0.000137706
0.000124915
0.000112684
0.000100995
8.98782e-05
7.93759e-05
6.95295e-05
6.03716e-05
5.19252e-05
4.42035e-05
3.72101e-05
3.09385e-05
2.53753e-05
2.05014e-05
1.62844e-05
1.26765e-05
9.57128e-06
6.79102e-06
4.56864e-06
2.89019e-06
1.70839e-06
9.40462e-07
4.81879e-07
2.29879e-07
1.01957e-07
4.18107e-08
1.56646e-08
5.24874e-09
1.51789e-09
3.56873e-10
6.13608e-11
6.28076e-12
2.43329e-13
1.18854e-15
0.000312019
0.000306371
0.000296985
0.000285345
0.000272372
0.00025856
0.000244195
0.000229488
0.0002146
0.000198387
0.00018136
0.000165606
0.000151175
0.000137702
0.000124912
0.000112681
0.000100993
8.98757e-05
7.93737e-05
6.95275e-05
6.03699e-05
5.19237e-05
4.42021e-05
3.72089e-05
3.09374e-05
2.53745e-05
2.05006e-05
1.62838e-05
1.2676e-05
9.57085e-06
6.79069e-06
4.56839e-06
2.89001e-06
1.70828e-06
9.40396e-07
4.81843e-07
2.29861e-07
1.01949e-07
4.18074e-08
1.56633e-08
5.24832e-09
1.51777e-09
3.56844e-10
6.13558e-11
6.28025e-12
2.43309e-13
1.18845e-15
0.000312009
0.000306361
0.000296976
0.000285336
0.000272364
0.000258552
0.000244188
0.000229482
0.000214594
0.000198381
0.000181355
0.000165601
0.000151171
0.000137698
0.000124908
0.000112678
0.00010099
8.98731e-05
7.93713e-05
6.95254e-05
6.0368e-05
5.1922e-05
4.42007e-05
3.72077e-05
3.09364e-05
2.53735e-05
2.04999e-05
1.62831e-05
1.26755e-05
9.5704e-06
6.79034e-06
4.56812e-06
2.88983e-06
1.70816e-06
9.40326e-07
4.81806e-07
2.29843e-07
1.0194e-07
4.18038e-08
1.5662e-08
5.24787e-09
1.51764e-09
3.56814e-10
6.13506e-11
6.27971e-12
2.43288e-13
1.18834e-15
0.000311999
0.000306351
0.000296966
0.000285327
0.000272356
0.000258544
0.000244181
0.000229475
0.000214587
0.000198375
0.000181349
0.000165596
0.000151166
0.000137694
0.000124904
0.000112675
0.000100987
8.98703e-05
7.93688e-05
6.95231e-05
6.0366e-05
5.19202e-05
4.41991e-05
3.72063e-05
3.09352e-05
2.53726e-05
2.0499e-05
1.62825e-05
1.26749e-05
9.56992e-06
6.78996e-06
4.56785e-06
2.88964e-06
1.70804e-06
9.40252e-07
4.81766e-07
2.29823e-07
1.01931e-07
4.18001e-08
1.56605e-08
5.24739e-09
1.5175e-09
3.56781e-10
6.1345e-11
6.27914e-12
2.43266e-13
1.18824e-15
0.000311988
0.000306341
0.000296956
0.000285318
0.000272347
0.000258536
0.000244173
0.000229468
0.000214581
0.000198369
0.000181344
0.000165591
0.000151161
0.00013769
0.0001249
0.000112671
0.000100983
8.98673e-05
7.93661e-05
6.95208e-05
6.03639e-05
5.19184e-05
4.41975e-05
3.72049e-05
3.0934e-05
2.53715e-05
2.04982e-05
1.62817e-05
1.26743e-05
9.56942e-06
6.78957e-06
4.56755e-06
2.88943e-06
1.70791e-06
9.40174e-07
4.81723e-07
2.29802e-07
1.01922e-07
4.17961e-08
1.56591e-08
5.24689e-09
1.51736e-09
3.56747e-10
6.13391e-11
6.27853e-12
2.43242e-13
1.18812e-15
0.000311977
0.00030633
0.000296945
0.000285308
0.000272337
0.000258527
0.000244165
0.00022946
0.000214573
0.000198362
0.000181338
0.000165585
0.000151156
0.000137685
0.000124896
0.000112667
0.00010098
8.98642e-05
7.93633e-05
6.95183e-05
6.03616e-05
5.19164e-05
4.41958e-05
3.72034e-05
3.09327e-05
2.53704e-05
2.04973e-05
1.6281e-05
1.26737e-05
9.56888e-06
6.78915e-06
4.56724e-06
2.88921e-06
1.70777e-06
9.40091e-07
4.81679e-07
2.2978e-07
1.01912e-07
4.1792e-08
1.56575e-08
5.24636e-09
1.5172e-09
3.56711e-10
6.13329e-11
6.2779e-12
2.43218e-13
1.188e-15
0.000311965
0.000306318
0.000296934
0.000285297
0.000272327
0.000258518
0.000244156
0.000229452
0.000214566
0.000198355
0.000181331
0.00016558
0.000151151
0.000137681
0.000124892
0.000112663
0.000100976
8.98609e-05
7.93604e-05
6.95156e-05
6.03593e-05
5.19143e-05
4.4194e-05
3.72019e-05
3.09314e-05
2.53693e-05
2.04963e-05
1.62802e-05
1.26731e-05
9.56832e-06
6.7887e-06
4.56691e-06
2.88898e-06
1.70762e-06
9.40004e-07
4.81631e-07
2.29757e-07
1.01901e-07
4.17875e-08
1.56558e-08
5.2458e-09
1.51704e-09
3.56672e-10
6.13263e-11
6.27722e-12
2.43192e-13
1.18787e-15
0.000311952
0.000306305
0.000296922
0.000285286
0.000272317
0.000258508
0.000244147
0.000229444
0.000214558
0.000198348
0.000181325
0.000165574
0.000151146
0.000137676
0.000124887
0.000112659
0.000100972
8.98574e-05
7.93572e-05
6.95128e-05
6.03568e-05
5.19121e-05
4.4192e-05
3.72002e-05
3.09299e-05
2.53681e-05
2.04953e-05
1.62793e-05
1.26724e-05
9.56772e-06
6.78824e-06
4.56656e-06
2.88874e-06
1.70746e-06
9.39911e-07
4.81581e-07
2.29732e-07
1.0189e-07
4.17829e-08
1.5654e-08
5.2452e-09
1.51687e-09
3.56632e-10
6.13193e-11
6.27651e-12
2.43164e-13
1.18774e-15
0.000311938
0.000306292
0.000296909
0.000285274
0.000272306
0.000258497
0.000244137
0.000229434
0.00021455
0.00019834
0.000181318
0.000165567
0.00015114
0.00013767
0.000124882
0.000112654
0.000100968
8.98537e-05
7.93539e-05
6.95098e-05
6.03542e-05
5.19098e-05
4.419e-05
3.71984e-05
3.09284e-05
2.53668e-05
2.04942e-05
1.62784e-05
1.26716e-05
9.56709e-06
6.78774e-06
4.56619e-06
2.88848e-06
1.7073e-06
9.39814e-07
4.81529e-07
2.29706e-07
1.01878e-07
4.17779e-08
1.56522e-08
5.24457e-09
1.51669e-09
3.56589e-10
6.1312e-11
6.27576e-12
2.43135e-13
1.1876e-15
0.000311924
0.000306278
0.000296896
0.000285261
0.000272294
0.000258486
0.000244127
0.000229425
0.000214541
0.000198332
0.00018131
0.00016556
0.000151133
0.000137665
0.000124877
0.00011265
0.000100964
8.98498e-05
7.93504e-05
6.95067e-05
6.03514e-05
5.19074e-05
4.41879e-05
3.71966e-05
3.09268e-05
2.53654e-05
2.04931e-05
1.62775e-05
1.26709e-05
9.56642e-06
6.78722e-06
4.56581e-06
2.88821e-06
1.70712e-06
9.39711e-07
4.81473e-07
2.29678e-07
1.01865e-07
4.17727e-08
1.56502e-08
5.24391e-09
1.5165e-09
3.56544e-10
6.13042e-11
6.27496e-12
2.43104e-13
1.18745e-15
0.000311909
0.000306264
0.000296882
0.000285248
0.000272281
0.000258475
0.000244116
0.000229415
0.000214531
0.000198323
0.000181302
0.000165553
0.000151127
0.000137659
0.000124872
0.000112645
0.00010096
8.98457e-05
7.93467e-05
6.95034e-05
6.03485e-05
5.19048e-05
4.41856e-05
3.71946e-05
3.09251e-05
2.5364e-05
2.04919e-05
1.62765e-05
1.267e-05
9.56572e-06
6.78667e-06
4.5654e-06
2.88793e-06
1.70694e-06
9.39602e-07
4.81414e-07
2.29649e-07
1.01852e-07
4.17672e-08
1.56481e-08
5.24321e-09
1.51629e-09
3.56496e-10
6.1296e-11
6.27412e-12
2.43072e-13
1.18729e-15
0.000311894
0.000306248
0.000296867
0.000285234
0.000272268
0.000258462
0.000244104
0.000229404
0.000214522
0.000198314
0.000181294
0.000165546
0.00015112
0.000137652
0.000124866
0.000112639
0.000100955
8.98414e-05
7.93428e-05
6.94999e-05
6.03454e-05
5.19021e-05
4.41832e-05
3.71926e-05
3.09234e-05
2.53625e-05
2.04906e-05
1.62754e-05
1.26692e-05
9.56498e-06
6.78609e-06
4.56497e-06
2.88763e-06
1.70674e-06
9.39487e-07
4.81352e-07
2.29618e-07
1.01838e-07
4.17614e-08
1.56459e-08
5.24248e-09
1.51608e-09
3.56446e-10
6.12874e-11
6.27324e-12
2.43037e-13
1.18712e-15
0.000311877
0.000306232
0.000296852
0.000285219
0.000272254
0.00025845
0.000244092
0.000229393
0.000214511
0.000198305
0.000181285
0.000165538
0.000151113
0.000137646
0.00012486
0.000112634
0.00010095
8.98368e-05
7.93387e-05
6.94962e-05
6.03421e-05