/*--------------------------------*- C++ -*----------------------------------*\
  =========                 |
  \\      /  F ield         | OpenFOAM: The Open Source CFD Toolbox
   \\    /   O peration     | Website:  https://openfoam.org
    \\  /    A nd           | Version:  7
     \\/     M anipulation  |
\*---------------------------------------------------------------------------*/
FoamFile
{
    version     2.0;
    format      ascii;
    class       volScalarField;
    location    "5125";
    object      omega;
}
// * * * * * * * * * * * * * * * * * * * * * * * * * * * * * * * * * * * * * //

dimensions      [0 0 -1 0 0 0 0];

internalField   nonuniform List<scalar> 
22090
(
20185.1
21613.5
24161.5
27618.8
31845.8
36763.5
42341
48586.6
55546.6
63315.4
72023.7
81780.8
92684.2
104878
118565
134011
151537
171522
194414
220735
251091
286185
326830
373966
428680
492247
566213
652578
754134
875068
1.02185e+06
1.20403e+06
1.43641e+06
1.74312e+06
2.16229e+06
2.75297e+06
3.60706e+06
4.87252e+06
6.80023e+06
9.8433e+06
1.48832e+07
2.37984e+07
4.10991e+07
7.95341e+07
1.84801e+08
5.94343e+08
3.64963e+09
20185.1
21613.5
24161.5
27618.8
31845.9
36763.5
42341.1
48586.6
55546.6
63315.5
72023.8
81780.9
92684.4
104878
118565
134012
151537
171522
194414
220736
251092
286185
326831
373967
428681
492248
566214
652579
754135
875070
1.02185e+06
1.20403e+06
1.43641e+06
1.74312e+06
2.16229e+06
2.75297e+06
3.60706e+06
4.87252e+06
6.80023e+06
9.8433e+06
1.48832e+07
2.37984e+07
4.10991e+07
7.95341e+07
1.84801e+08
5.94343e+08
3.64963e+09
20185.1
21613.6
24161.5
27618.8
31845.9
36763.6
42341.1
48586.7
55546.7
63315.6
72023.9
81781.1
92684.6
104878
118566
134012
151538
171523
194415
220736
251092
286186
326831
373968
428682
492249
566215
652580
754136
875071
1.02185e+06
1.20403e+06
1.43641e+06
1.74312e+06
2.16229e+06
2.75297e+06
3.60707e+06
4.87252e+06
6.80023e+06
9.84331e+06
1.48832e+07
2.37984e+07
4.10991e+07
7.95341e+07
1.84801e+08
5.94343e+08
3.64963e+09
20185.1
21613.6
24161.5
27618.8
31845.9
36763.6
42341.2
48586.7
55546.8
63315.7
72024
81781.2
92684.7
104878
118566
134012
151538
171523
194415
220736
251093
286186
326832
373968
428683
492249
566216
652581
754137
875072
1.02185e+06
1.20403e+06
1.43642e+06
1.74312e+06
2.16229e+06
2.75297e+06
3.60707e+06
4.87253e+06
6.80023e+06
9.84331e+06
1.48832e+07
2.37984e+07
4.10991e+07
7.95341e+07
1.84801e+08
5.94343e+08
3.64963e+09
20185.1
21613.6
24161.5
27618.9
31846
36763.7
42341.2
48586.8
55546.8
63315.8
72024.1
81781.4
92684.9
104878
118566
134012
151538
171523
194415
220737
251093
286187
326832
373969
428683
492250
566216
652581
754138
875073
1.02185e+06
1.20403e+06
1.43642e+06
1.74312e+06
2.16229e+06
2.75297e+06
3.60707e+06
4.87253e+06
6.80023e+06
9.84331e+06
1.48832e+07
2.37984e+07
4.10991e+07
7.95341e+07
1.84801e+08
5.94343e+08
3.64963e+09
20185.2
21613.6
24161.5
27618.9
31846
36763.7
42341.3
48586.9
55546.9
63315.9
72024.2
81781.5
92685
104878
118566
134012
151538
171523
194415
220737
251093
286187
326832
373969
428683
492250
566217
652582
754138
875073
1.02185e+06
1.20403e+06
1.43642e+06
1.74312e+06
2.16229e+06
2.75297e+06
3.60707e+06
4.87253e+06
6.80023e+06
9.84331e+06
1.48832e+07
2.37984e+07
4.10991e+07
7.95341e+07
1.84801e+08
5.94343e+08
3.64963e+09
20185.2
21613.6
24161.6
27618.9
31846
36763.7
42341.3
48586.9
55547
63315.9
72024.3
81781.5
92685.1
104879
118566
134013
151538
171523
194415
220737
251093
286187
326832
373969
428683
492250
566217
652582
754138
875074
1.02185e+06
1.20403e+06
1.43642e+06
1.74312e+06
2.16229e+06
2.75297e+06
3.60707e+06
4.87253e+06
6.80023e+06
9.84331e+06
1.48832e+07
2.37984e+07
4.10991e+07
7.95341e+07
1.84801e+08
5.94343e+08
3.64963e+09
20185.2
21613.6
24161.6
27618.9
31846
36763.7
42341.3
48586.9
55547
63316
72024.3
81781.6
92685.1
104879
118566
134013
151538
171523
194415
220737
251093
286187
326832
373969
428683
492250
566217
652582
754138
875074
1.02185e+06
1.20403e+06
1.43642e+06
1.74312e+06
2.16229e+06
2.75297e+06
3.60707e+06
4.87253e+06
6.80023e+06
9.84331e+06
1.48832e+07
2.37984e+07
4.10991e+07
7.95341e+07
1.84801e+08
5.94343e+08
3.64963e+09
20185.1
21613.6
24161.6
27618.9
31846
36763.7
42341.3
48586.9
55547
63316
72024.4
81781.6
92685.2
104879
118566
134013
151538
171523
194415
220737
251093
286187
326832
373969
428683
492250
566217
652582
754138
875073
1.02185e+06
1.20403e+06
1.43642e+06
1.74312e+06
2.16229e+06
2.75297e+06
3.60707e+06
4.87253e+06
6.80023e+06
9.84331e+06
1.48832e+07
2.37984e+07
4.10991e+07
7.95341e+07
1.84801e+08
5.94343e+08
3.64963e+09
20185.1
21613.6
24161.5
27618.9
31846
36763.7
42341.3
48586.9
55547
63316
72024.3
81781.6
92685.1
104879
118566
134013
151538
171523
194415
220737
251093
286187
326832
373969
428683
492250
566217
652582
754138
875073
1.02185e+06
1.20403e+06
1.43642e+06
1.74312e+06
2.16229e+06
2.75297e+06
3.60707e+06
4.87253e+06
6.80023e+06
9.84331e+06
1.48832e+07
2.37984e+07
4.10991e+07
7.95341e+07
1.84801e+08
5.94343e+08
3.64963e+09
20185.1
21613.6
24161.5
27618.9
31846
36763.7
42341.3
48586.9
55547
63315.9
72024.3
81781.6
92685.1
104879
118566
134013
151538
171523
194415
220737
251093
286187
326832
373969
428683
492250
566216
652581
754138
875073
1.02185e+06
1.20403e+06
1.43642e+06
1.74312e+06
2.16229e+06
2.75297e+06
3.60707e+06
4.87253e+06
6.80023e+06
9.84331e+06
1.48832e+07
2.37984e+07
4.10991e+07
7.95341e+07
1.84801e+08
5.94343e+08
3.64963e+09
20185.1
21613.5
24161.5
27618.9
31846
36763.7
42341.3
48586.9
55546.9
63315.9
72024.3
81781.5
92685
104878
118566
134012
151538
171523
194415
220737
251093
286186
326832
373968
428683
492249
566216
652581
754137
875072
1.02185e+06
1.20403e+06
1.43642e+06
1.74312e+06
2.16229e+06
2.75297e+06
3.60707e+06
4.87253e+06
6.80023e+06
9.84331e+06
1.48832e+07
2.37984e+07
4.10991e+07
7.95341e+07
1.84801e+08
5.94343e+08
3.64963e+09
20185.1
21613.5
24161.5
27618.8
31845.9
36763.6
42341.2
48586.8
55546.9
63315.8
72024.2
81781.4
92684.9
104878
118566
134012
151538
171523
194415
220736
251093
286186
326832
373968
428682
492249
566215
652580
754136
875071
1.02185e+06
1.20403e+06
1.43641e+06
1.74312e+06
2.16229e+06
2.75297e+06
3.60707e+06
4.87252e+06
6.80023e+06
9.84331e+06
1.48832e+07
2.37984e+07
4.10991e+07
7.95341e+07
1.84801e+08
5.94343e+08
3.64963e+09
20185
21613.5
24161.4
27618.8
31845.9
36763.6
42341.2
48586.8
55546.8
63315.7
72024.1
81781.3
92684.8
104878
118566
134012
151538
171523
194415
220736
251092
286186
326831
373968
428682
492248
566215
652580
754136
875070
1.02185e+06
1.20403e+06
1.43641e+06
1.74312e+06
2.16229e+06
2.75297e+06
3.60706e+06
4.87252e+06
6.80023e+06
9.8433e+06
1.48832e+07
2.37984e+07
4.10991e+07
7.95341e+07
1.84801e+08
5.94343e+08
3.64963e+09
20185
21613.4
24161.4
27618.7
31845.8
36763.5
42341.1
48586.7
55546.7
63315.6
72024
81781.2
92684.7
104878
118566
134012
151538
171523
194414
220736
251092
286186
326831
373967
428681
492248
566214
652579
754135
875069
1.02185e+06
1.20403e+06
1.43641e+06
1.74312e+06
2.16229e+06
2.75297e+06
3.60706e+06
4.87252e+06
6.80023e+06
9.8433e+06
1.48832e+07
2.37984e+07
4.10991e+07
7.95341e+07
1.84801e+08
5.94343e+08
3.64963e+09
20184.9
21613.3
24161.3
27618.6
31845.8
36763.4
42341
48586.6
55546.6
63315.5
72023.9
81781.1
92684.5
104878
118566
134012
151537
171522
194414
220736
251092
286185
326831
373967
428681
492247
566213
652578
754134
875068
1.02185e+06
1.20403e+06
1.43641e+06
1.74312e+06
2.16229e+06
2.75296e+06
3.60706e+06
4.87252e+06
6.80023e+06
9.8433e+06
1.48832e+07
2.37984e+07
4.10991e+07
7.95341e+07
1.84801e+08
5.94343e+08
3.64963e+09
20184.8
21613.3
24161.2
27618.6
31845.7
36763.3
42340.9
48586.5
55546.5
63315.4
72023.7
81780.9
92684.3
104878
118565
134012
151537
171522
194414
220735
251091
286185
326830
373966
428680
492246
566212
652577
754132
875067
1.02185e+06
1.20403e+06
1.43641e+06
1.74311e+06
2.16228e+06
2.75296e+06
3.60706e+06
4.87252e+06
6.80022e+06
9.8433e+06
1.48832e+07
2.37984e+07
4.10991e+07
7.95341e+07
1.84801e+08
5.94343e+08
3.64963e+09
20184.8
21613.2
24161.1
27618.5
31845.6
36763.2
42340.8
48586.3
55546.3
63315.2
72023.5
81780.7
92684.1
104877
118565
134011
151537
171522
194414
220735
251091
286184
326829
373966
428679
492246
566211
652576
754131
875065
1.02184e+06
1.20402e+06
1.43641e+06
1.74311e+06
2.16228e+06
2.75296e+06
3.60706e+06
4.87252e+06
6.80022e+06
9.8433e+06
1.48832e+07
2.37984e+07
4.10991e+07
7.95341e+07
1.84801e+08
5.94343e+08
3.64963e+09
20184.7
21613.1
24161.1
27618.4
31845.5
36763.1
42340.7
48586.2
55546.2
63315.1
72023.3
81780.5
92683.9
104877
118565
134011
151536
171521
194413
220735
251090
286184
326829
373965
428679
492245
566210
652575
754130
875063
1.02184e+06
1.20402e+06
1.4364e+06
1.74311e+06
2.16228e+06
2.75296e+06
3.60706e+06
4.87252e+06
6.80022e+06
9.8433e+06
1.48832e+07
2.37984e+07
4.10991e+07
7.95341e+07
1.84801e+08
5.94343e+08
3.64963e+09
20184.6
21613
24161
27618.3
31845.4
36763
42340.5
48586
55546
63314.9
72023.1
81780.3
92683.7
104877
118565
134011
151536
171521
194413
220734
251090
286183
326828
373964
428678
492244
566209
652573
754128
875061
1.02184e+06
1.20402e+06
1.4364e+06
1.74311e+06
2.16228e+06
2.75296e+06
3.60705e+06
4.87252e+06
6.80022e+06
9.8433e+06
1.48832e+07
2.37984e+07
4.10991e+07
7.95341e+07
1.84801e+08
5.94343e+08
3.64963e+09
20184.5
21612.9
24160.9
27618.2
31845.2
36762.9
42340.4
48585.9
55545.8
63314.7
72022.9
81780
92683.4
104877
118564
134010
151536
171520
194412
220734
251089
286183
326828
373963
428677
492242
566208
652572
754126
875059
1.02184e+06
1.20402e+06
1.4364e+06
1.7431e+06
2.16227e+06
2.75295e+06
3.60705e+06
4.87251e+06
6.80022e+06
9.8433e+06
1.48832e+07
2.37984e+07
4.10991e+07
7.95341e+07
1.84801e+08
5.94343e+08
3.64963e+09
20184.4
21612.8
24160.7
27618
31845.1
36762.7
42340.2
48585.7
55545.6
63314.4
72022.7
81779.8
92683.1
104876
118564
134010
151535
171520
194412
220733
251089
286182
326827
373963
428676
492241
566206
652570
754124
875057
1.02184e+06
1.20401e+06
1.43639e+06
1.7431e+06
2.16227e+06
2.75295e+06
3.60705e+06
4.87251e+06
6.80022e+06
9.8433e+06
1.48832e+07
2.37984e+07
4.10991e+07
7.95341e+07
1.84801e+08
5.94343e+08
3.64963e+09
20184.3
21612.7
24160.6
27617.9
31844.9
36762.5
42340
48585.5
55545.4
63314.2
72022.4
81779.5
92682.8
104876
118564
134009
151535
171520
194411
220732
251088
286181
326826
373962
428675
492240
566205
652568
754122
875055
1.02183e+06
1.20401e+06
1.43639e+06
1.7431e+06
2.16227e+06
2.75295e+06
3.60705e+06
4.87251e+06
6.80022e+06
9.8433e+06
1.48832e+07
2.37984e+07
4.10991e+07
7.95341e+07
1.84801e+08
5.94343e+08
3.64963e+09
20184.1
21612.6
24160.5
27617.8
31844.8
36762.4
42339.8
48585.3
55545.1
63313.9
72022.1
81779.1
92682.4
104876
118563
134009
151534
171519
194411
220732
251087
286180
326825
373961
428673
492239
566203
652566
754120
875052
1.02183e+06
1.20401e+06
1.43639e+06
1.74309e+06
2.16226e+06
2.75294e+06
3.60704e+06
4.87251e+06
6.80021e+06
9.84329e+06
1.48832e+07
2.37984e+07
4.10991e+07
7.95341e+07
1.84801e+08
5.94343e+08
3.64963e+09
20184
21612.4
24160.3
27617.6
31844.6
36762.2
42339.6
48585
55544.9
63313.6
72021.8
81778.8
92682.1
104875
118563
134009
151534
171518
194410
220731
251087
286179
326824
373959
428672
492237
566202
652564
754117
875049
1.02183e+06
1.204e+06
1.43638e+06
1.74309e+06
2.16226e+06
2.75294e+06
3.60704e+06
4.8725e+06
6.80021e+06
9.84329e+06
1.48832e+07
2.37984e+07
4.10991e+07
7.95341e+07
1.84801e+08
5.94343e+08
3.64963e+09
20183.9
21612.3
24160.2
27617.4
31844.4
36762
42339.4
48584.8
55544.6
63313.3
72021.5
81778.4
92681.7
104875
118562
134008
151533
171518
194409
220730
251086
286178
326823
373958
428671
492235
566200
652562
754115
875046
1.02182e+06
1.204e+06
1.43638e+06
1.74308e+06
2.16225e+06
2.75294e+06
3.60704e+06
4.8725e+06
6.80021e+06
9.84329e+06
1.48832e+07
2.37984e+07
4.10991e+07
7.95341e+07
1.84801e+08
5.94343e+08
3.64963e+09
20183.7
21612.1
24160
27617.2
31844.2
36761.7
42339.1
48584.5
55544.3
63313
72021.1
81778
92681.2
104874
118562
134007
151533
171517
194409
220729
251085
286177
326822
373957
428669
492234
566198
652559
754112
875043
1.02182e+06
1.20399e+06
1.43637e+06
1.74308e+06
2.16225e+06
2.75293e+06
3.60703e+06
4.8725e+06
6.80021e+06
9.84329e+06
1.48832e+07
2.37984e+07
4.10991e+07
7.95341e+07
1.84801e+08
5.94343e+08
3.64963e+09
20183.5
21611.9
24159.8
27617
31844
36761.5
42338.8
48584.2
55544
63312.7
72020.7
81777.6
92680.8
104874
118561
134007
151532
171516
194408
220729
251084
286176
326821
373956
428668
492232
566195
652557
754109
875039
1.02181e+06
1.20399e+06
1.43637e+06
1.74307e+06
2.16224e+06
2.75293e+06
3.60703e+06
4.8725e+06
6.80021e+06
9.84329e+06
1.48832e+07
2.37984e+07
4.10991e+07
7.95341e+07
1.84801e+08
5.94343e+08
3.64963e+09
20183.4
21611.8
24159.6
27616.8
31843.8
36761.2
42338.6
48583.9
55543.6
63312.3
72020.3
81777.2
92680.3
104873
118561
134006
151531
171516
194407
220728
251083
286175
326819
373954
428666
492230
566193
652554
754105
875035
1.02181e+06
1.20398e+06
1.43636e+06
1.74307e+06
2.16224e+06
2.75292e+06
3.60703e+06
4.87249e+06
6.8002e+06
9.84329e+06
1.48832e+07
2.37984e+07
4.10991e+07
7.95341e+07
1.84801e+08
5.94343e+08
3.64963e+09
20183.2
21611.6
24159.4
27616.6
31843.5
36761
42338.3
48583.5
55543.3
63311.9
72019.9
81776.7
92679.7
104873
118560
134006
151531
171515
194406
220727
251082
286174
326818
373952
428664
492228
566190
652551
754102
875031
1.02181e+06
1.20398e+06
1.43636e+06
1.74306e+06
2.16223e+06
2.75292e+06
3.60702e+06
4.87249e+06
6.8002e+06
9.84328e+06
1.48832e+07
2.37984e+07
4.10991e+07
7.95341e+07
1.84801e+08
5.94343e+08
3.64963e+09
20183
21611.4
24159.2
27616.4
31843.2
36760.7
42337.9
48583.2
55542.9
63311.4
72019.4
81776.2
92679.2
104872
118559
134005
151530
171514
194405
220726
251081
286173
326816
373951
428662
492225
566188
652548
754098
875027
1.0218e+06
1.20397e+06
1.43635e+06
1.74306e+06
2.16223e+06
2.75291e+06
3.60702e+06
4.87248e+06
6.8002e+06
9.84328e+06
1.48832e+07
2.37984e+07
4.10991e+07
7.95341e+07
1.84801e+08
5.94343e+08
3.64963e+09
20182.8
21611.1
24158.9
27616.1
31843
36760.3
42337.6
48582.8
55542.4
63311
72018.9
81775.6
92678.6
104871
118559
134004
151529
171513
194404
220724
251079
286171
326815
373949
428660
492223
566185
652544
754094
875022
1.0218e+06
1.20397e+06
1.43635e+06
1.74305e+06
2.16222e+06
2.75291e+06
3.60701e+06
4.87248e+06
6.80019e+06
9.84328e+06
1.48832e+07
2.37984e+07
4.10991e+07
7.95341e+07
1.84801e+08
5.94343e+08
3.64963e+09
20182.5
21610.9
24158.7
27615.8
31842.7
36760
42337.2
48582.4
55542
63310.5
72018.3
81775
92677.9
104871
118558
134003
151528
171512
194403
220723
251078
286170
326813
373947
428658
492220
566182
652541
754090
875018
1.02179e+06
1.20396e+06
1.43634e+06
1.74304e+06
2.16221e+06
2.7529e+06
3.60701e+06
4.87248e+06
6.80019e+06
9.84328e+06
1.48832e+07
2.37984e+07
4.10991e+07
7.95341e+07
1.84801e+08
5.94343e+08
3.64963e+09
20182.3
21610.6
24158.4
27615.5
31842.3
36759.7
42336.8
48582
55541.5
63310
72017.8
81774.4
92677.3
104870
118557
134002
151527
171511
194402
220722
251077
286168
326811
373945
428656
492218
566179
652537
754086
875012
1.02178e+06
1.20396e+06
1.43633e+06
1.74304e+06
2.16221e+06
2.75289e+06
3.607e+06
4.87247e+06
6.80019e+06
9.84327e+06
1.48832e+07
2.37984e+07
4.10991e+07
7.95341e+07
1.84801e+08
5.94343e+08
3.64963e+09
20182
21610.4
24158.1
27615.2
31842
36759.3
42336.4
48581.5
55541
63309.4
72017.2
81773.7
92676.5
104869
118556
134001
151526
171510
194401
220721
251075
286167
326809
373943
428653
492215
566175
652533
754081
875007
1.02178e+06
1.20395e+06
1.43632e+06
1.74303e+06
2.1622e+06
2.75289e+06
3.60699e+06
4.87247e+06
6.80018e+06
9.84327e+06
1.48832e+07
2.37984e+07
4.10991e+07
7.95341e+07
1.84801e+08
5.94343e+08
3.64963e+09
20181.7
21610.1
24157.8
27614.9
31841.6
36758.9
42336
48581
55540.5
63308.8
72016.5
81773
92675.7
104868
118555
134000
151525
171509
194399
220719
251073
286165
326807
373940
428650
492212
566171
652529
754076
875001
1.02177e+06
1.20394e+06
1.43632e+06
1.74302e+06
2.16219e+06
2.75288e+06
3.60699e+06
4.87246e+06
6.80018e+06
9.84327e+06
1.48831e+07
2.37984e+07
4.10991e+07
7.95341e+07
1.84801e+08
5.94343e+08
3.64963e+09
20181.4
21609.8
24157.5
27614.5
31841.2
36758.4
42335.5
48580.5
55539.9
63308.2
72015.8
81772.3
92674.9
104867
118554
133999
151524
171507
194398
220718
251072
286163
326805
373938
428647
492208
566168
652524
754070
874995
1.02176e+06
1.20393e+06
1.43631e+06
1.74301e+06
2.16218e+06
2.75287e+06
3.60698e+06
4.87245e+06
6.80017e+06
9.84326e+06
1.48831e+07
2.37984e+07
4.10991e+07
7.95341e+07
1.84801e+08
5.94343e+08
3.64963e+09
20181.1
21609.4
24157.1
27614.1
31840.8
36758
42335
48579.9
55539.3
63307.5
72015.1
81771.5
92674.1
104866
118553
133998
151523
171506
194396
220716
251070
286161
326803
373935
428644
492205
566163
652519
754065
874988
1.02176e+06
1.20392e+06
1.4363e+06
1.743e+06
2.16217e+06
2.75286e+06
3.60697e+06
4.87245e+06
6.80017e+06
9.84326e+06
1.48831e+07
2.37984e+07
4.10991e+07
7.95341e+07
1.84801e+08
5.94343e+08
3.64963e+09
20180.8
21609.1
24156.8
27613.7
31840.4
36757.5
42334.4
48579.3
55538.6
63306.8
72014.3
81770.6
92673.1
104865
118552
133997
151521
171505
194395
220714
251068
286159
326801
373933
428641
492201
566159
652514
754058
874981
1.02175e+06
1.20392e+06
1.43629e+06
1.74299e+06
2.16216e+06
2.75285e+06
3.60696e+06
4.87244e+06
6.80016e+06
9.84326e+06
1.48831e+07
2.37984e+07
4.10991e+07
7.95341e+07
1.84801e+08
5.94343e+08
3.64963e+09
20180.4
21608.7
24156.4
27613.3
31839.9
36757
42333.9
48578.7
55537.9
63306
72013.5
81769.7
92672.1
104864
118551
133996
151520
171503
194393
220713
251066
286156
326798
373930
428638
492197
566154
652508
754052
874973
1.02174e+06
1.20391e+06
1.43628e+06
1.74298e+06
2.16215e+06
2.75284e+06
3.60696e+06
4.87243e+06
6.80016e+06
9.84325e+06
1.48831e+07
2.37984e+07
4.10991e+07
7.95341e+07
1.84801e+08
5.94343e+08
3.64963e+09
20180.1
21608.3
24156
27612.9
31839.4
36756.4
42333.3
48578
55537.2
63305.2
72012.6
81768.8
92671.1
104863
118550
133994
151518
171501
194391
220711
251064
286154
326795
373927
428634
492193
566149
652503
754045
874966
1.02173e+06
1.2039e+06
1.43627e+06
1.74297e+06
2.16214e+06
2.75283e+06
3.60695e+06
4.87243e+06
6.80015e+06
9.84325e+06
1.48831e+07
2.37984e+07
4.10991e+07
7.95341e+07
1.84801e+08
5.94343e+08
3.64963e+09
20179.7
21607.9
24155.5
27612.4
31838.9
36755.9
42332.6
48577.3
55536.4
63304.4
72011.7
81767.7
92670
104862
118548
133993
151517
171500
194390
220708
251062
286151
326792
373923
428630
492188
566144
652496
754038
874957
1.02172e+06
1.20388e+06
1.43626e+06
1.74296e+06
2.16213e+06
2.75282e+06
3.60694e+06
4.87242e+06
6.80015e+06
9.84324e+06
1.48831e+07
2.37984e+07
4.10991e+07
7.95341e+07
1.84801e+08
5.94343e+08
3.64963e+09
20179.2
21607.5
24155.1
27611.9
31838.3
36755.2
42332
48576.6
55535.6
63303.5
72010.7
81766.7
92668.8
104861
118547
133991
151515
171498
194388
220706
251059
286149
326789
373920
428626
492184
566139
652490
754030
874948
1.02171e+06
1.20387e+06
1.43624e+06
1.74294e+06
2.16212e+06
2.75281e+06
3.60693e+06
4.87241e+06
6.80014e+06
9.84324e+06
1.48831e+07
2.37984e+07
4.10991e+07
7.95341e+07
1.84801e+08
5.94343e+08
3.64963e+09
20178.8
21607
24154.6
27611.4
31837.8
36754.6
42331.2
48575.8
55534.7
63302.5
72009.6
81765.5
92667.6
104859
118545
133990
151513
171496
194385
220704
251057
286146
326786
373916
428622
492179
566133
652483
754022
874939
1.0217e+06
1.20386e+06
1.43623e+06
1.74293e+06
2.1621e+06
2.7528e+06
3.60692e+06
4.8724e+06
6.80013e+06
9.84324e+06
1.48831e+07
2.37984e+07
4.10991e+07
7.95341e+07
1.84801e+08
5.94343e+08
3.64963e+09
20178.3
21606.5
24154.1
27610.8
31837.1
36753.9
42330.5
48575
55533.8
63301.5
72008.5
81764.3
92666.2
104858
118544
133988
151512
171494
194383
220702
251054
286143
326783
373912
428618
492173
566127
652476
754014
874929
1.02169e+06
1.20385e+06
1.43622e+06
1.74292e+06
2.16209e+06
2.75278e+06
3.60691e+06
4.87239e+06
6.80013e+06
9.84323e+06
1.48831e+07
2.37984e+07
4.10991e+07
7.95341e+07
1.84801e+08
5.94343e+08
3.64963e+09
20177.8
21606
24153.5
27610.2
31836.5
36753.2
42329.7
48574.1
55532.8
63300.4
72007.4
81763
92664.8
104856
118542
133986
151510
171492
194381
220699
251051
286140
326779
373908
428613
492168
566120
652468
754004
874918
1.02168e+06
1.20383e+06
1.4362e+06
1.7429e+06
2.16208e+06
2.75277e+06
3.60689e+06
4.87238e+06
6.80012e+06
9.84322e+06
1.48831e+07
2.37984e+07
4.10991e+07
7.95341e+07
1.84801e+08
5.94343e+08
3.64963e+09
20177.3
21605.5
24152.9
27609.6
31835.8
36752.4
42328.8
48573.1
55531.8
63299.3
72006.1
81761.7
92663.4
104855
118540
133984
151508
171490
194378
220696
251048
286136
326775
373904
428608
492162
566113
652460
753995
874907
1.02166e+06
1.20382e+06
1.43619e+06
1.74288e+06
2.16206e+06
2.75276e+06
3.60688e+06
4.87237e+06
6.80011e+06
9.84322e+06
1.48831e+07
2.37984e+07
4.1099e+07
7.95341e+07
1.84801e+08
5.94343e+08
3.64963e+09
20176.8
21604.9
24152.3
27608.9
31835
36751.6
42327.9
48572.1
55530.7
63298.1
72004.8
81760.2
92661.8
104853
118539
133982
151505
171487
194376
220693
251045
286133
326771
373899
428602
492156
566106
652451
753985
874895
1.02165e+06
1.20381e+06
1.43617e+06
1.74287e+06
2.16204e+06
2.75274e+06
3.60687e+06
4.87236e+06
6.8001e+06
9.84321e+06
1.48831e+07
2.37984e+07
4.1099e+07
7.95341e+07
1.84801e+08
5.94343e+08
3.64963e+09
20176.2
21604.3
24151.7
27608.2
31834.3
36750.7
42327
48571.1
55529.6
63296.8
72003.4
81758.7
92660.1
104851
118537
133980
151503
171485
194373
220690
251041
286129
326767
373894
428597
492149
566098
652442
753974
874883
1.02164e+06
1.20379e+06
1.43615e+06
1.74285e+06
2.16203e+06
2.75273e+06
3.60685e+06
4.87235e+06
6.80009e+06
9.84321e+06
1.48831e+07
2.37984e+07
4.1099e+07
7.95341e+07
1.84801e+08
5.94343e+08
3.64963e+09
20175.5
21603.6
24151
27607.4
31833.4
36749.8
42326
48570
55528.3
63295.5
72002
81757.1
92658.4
104849
118535
133978
151501
171482
194370
220687
251038
286125
326762
373889
428591
492142
566090
652432
753963
874870
1.02162e+06
1.20377e+06
1.43613e+06
1.74283e+06
2.16201e+06
2.75271e+06
3.60684e+06
4.87234e+06
6.80008e+06
9.8432e+06
1.48831e+07
2.37984e+07
4.1099e+07
7.95341e+07
1.84801e+08
5.94343e+08
3.64963e+09
20174.9
21603
24150.2
27606.7
31832.6
36748.9
42324.9
48568.8
55527.1
63294.1
72000.4
81755.4
92656.6
104847
118532
133976
151498
171479
194367
220684
251034
286121
326758
373884
428585
492135
566081
652422
753951
874856
1.02161e+06
1.20375e+06
1.43612e+06
1.74281e+06
2.16199e+06
2.75269e+06
3.60682e+06
4.87233e+06
6.80007e+06
9.84319e+06
1.48831e+07
2.37984e+07
4.1099e+07
7.95341e+07
1.84801e+08
5.94343e+08
3.64963e+09
20174.2
21602.3
24149.5
27605.8
31831.7
36747.9
42323.8
48567.6
55525.7
63292.6
71998.8
81753.7
92654.6
104845
118530
133973
151495
171476
194364
220680
251030
286116
326753
373878
428578
492127
566072
652411
753938
874841
1.02159e+06
1.20374e+06
1.43609e+06
1.74279e+06
2.16197e+06
2.75267e+06
3.60681e+06
4.87231e+06
6.80006e+06
9.84318e+06
1.48831e+07
2.37984e+07
4.1099e+07
7.95341e+07
1.84801e+08
5.94343e+08
3.64963e+09
20173.5
21601.5
24148.7
27604.9
31830.7
36746.8
42322.6
48566.3
55524.3
63291
71997.1
81751.8
92652.6
104843
118528
133970
151492
171473
194360
220676
251026
286112
326747
373872
428571
492119
566062
652400
753925
874826
1.02157e+06
1.20372e+06
1.43607e+06
1.74277e+06
2.16195e+06
2.75265e+06
3.60679e+06
4.8723e+06
6.80005e+06
9.84318e+06
1.48831e+07
2.37984e+07
4.1099e+07
7.95341e+07
1.84801e+08
5.94343e+08
3.64963e+09
20172.7
21600.7
24147.8
27604
31829.7
36745.7
42321.4
48564.9
55522.7
63289.4
71995.3
81749.8
92650.4
104841
118525
133968
151489
171470
194357
220672
251021
286107
326742
373865
428563
492110
566052
652388
753911
874810
1.02155e+06
1.2037e+06
1.43605e+06
1.74274e+06
2.16192e+06
2.75263e+06
3.60677e+06
4.87228e+06
6.80004e+06
9.84317e+06
1.48831e+07
2.37984e+07
4.1099e+07
7.95341e+07
1.84801e+08
5.94343e+08
3.64963e+09
20171.9
21599.9
24146.9
27603
31828.6
36744.5
42320
48563.5
55521.2
63287.6
71993.3
81747.7
92648.1
104838
118522
133965
151486
171466
194353
220668
251017
286101
326736
373859
428556
492101
566042
652376
753896
874793
1.02153e+06
1.20367e+06
1.43603e+06
1.74272e+06
2.1619e+06
2.75261e+06
3.60675e+06
4.87227e+06
6.80003e+06
9.84316e+06
1.48831e+07
2.37984e+07
4.1099e+07
7.95341e+07
1.84801e+08
5.94343e+08
3.64963e+09
20171.1
21599
24146
27602
31827.5
36743.2
42318.7
48561.9
55519.5
63285.8
71991.3
81745.5
92645.7
104836
118520
133962
151483
171463
194349
220664
251012
286096
326730
373852
428548
492092
566030
652362
753881
874775
1.02151e+06
1.20365e+06
1.436e+06
1.74269e+06
2.16187e+06
2.75259e+06
3.60673e+06
4.87225e+06
6.80002e+06
9.84315e+06
1.48831e+07
2.37984e+07
4.1099e+07
7.95341e+07
1.84801e+08
5.94343e+08
3.64963e+09
20170.2
21598.1
24145
27600.9
31826.3
36741.9
42317.2
48560.3
55517.7
63283.8
71989.2
81743.2
92643.2
104833
118517
133958
151479
171459
194345
220659
251007
286090
326723
373844
428539
492082
566019
652348
753864
874756
1.02149e+06
1.20363e+06
1.43598e+06
1.74267e+06
2.16185e+06
2.75256e+06
3.60671e+06
4.87224e+06
6.8e+06
9.84314e+06
1.48831e+07
2.37983e+07
4.1099e+07
7.95341e+07
1.84801e+08
5.94343e+08
3.64963e+09
20169.2
21597.1
24144
27599.8
31825
36740.5
42315.7
48558.6
55515.8
63281.8
71987
81740.8
92640.5
104830
118513
133955
151476
171455
194340
220654
251001
286084
326716
373836
428530
492071
566006
652334
753847
874736
1.02147e+06
1.2036e+06
1.43595e+06
1.74264e+06
2.16182e+06
2.75254e+06
3.60669e+06
4.87222e+06
6.79999e+06
9.84313e+06
1.48831e+07
2.37983e+07
4.1099e+07
7.95341e+07
1.84801e+08
5.94343e+08
3.64963e+09
20168.3
21596.1
24142.9
27598.6
31823.7
36739.1
42314.1
48556.8
55513.9
63279.7
71984.6
81738.2
92637.7
104827
118510
133951
151472
171450
194335
220649
250996
286078
326709
373828
428520
492060
565993
652318
753829
874715
1.02144e+06
1.20357e+06
1.43592e+06
1.74261e+06
2.16179e+06
2.75251e+06
3.60667e+06
4.8722e+06
6.79997e+06
9.84312e+06
1.4883e+07
2.37983e+07
4.1099e+07
7.95341e+07
1.84801e+08
5.94343e+08
3.64963e+09
20167.2
21595
24141.7
27597.4
31822.3
36737.5
42312.4
48555
55511.8
63277.4
71982.2
81735.5
92634.8
104824
118507
133948
151468
171446
194331
220644
250990
286071
326701
373819
428510
492048
565979
652302
753810
874693
1.02142e+06
1.20355e+06
1.43589e+06
1.74258e+06
2.16176e+06
2.75248e+06
3.60664e+06
4.87218e+06
6.79996e+06
9.84311e+06
1.4883e+07
2.37983e+07
4.1099e+07
7.95341e+07
1.84801e+08
5.94343e+08
3.64963e+09
20166.2
21593.9
24140.5
27596
31820.9
36735.9
42310.6
48553
55509.7
63275
71979.6
81732.6
92631.7
104820
118503
133944
151463
171441
194325
220638
250983
286064
326693
373810
428500
492036
565965
652285
753790
874670
1.02139e+06
1.20352e+06
1.43586e+06
1.74254e+06
2.16173e+06
2.75245e+06
3.60662e+06
4.87216e+06
6.79994e+06
9.84309e+06
1.4883e+07
2.37983e+07
4.1099e+07
7.95341e+07
1.84801e+08
5.94343e+08
3.64963e+09
20165
21592.7
24139.3
27594.7
31819.3
36734.2
42308.7
48550.9
55507.4
63272.5
71976.8
81729.7
92628.5
104817
118499
133939
151459
171436
194320
220632
250977
286056
326685
373801
428489
492023
565950
652267
753769
874645
1.02136e+06
1.20348e+06
1.43582e+06
1.74251e+06
2.16169e+06
2.75242e+06
3.60659e+06
4.87213e+06
6.79992e+06
9.84308e+06
1.4883e+07
2.37983e+07
4.1099e+07
7.95341e+07
1.84801e+08
5.94343e+08
3.64963e+09
20163.8
21591.5
24137.9
27593.2
31817.7
36732.4
42306.7
48548.8
55505
63269.9
71974
81726.5
92625
104813
118495
133935
151454
171431
194314
220626
250970
286049
326676
373791
428477
492010
565934
652249
753747
874620
1.02134e+06
1.20345e+06
1.43579e+06
1.74247e+06
2.16166e+06
2.75239e+06
3.60656e+06
4.87211e+06
6.79991e+06
9.84307e+06
1.4883e+07
2.37983e+07
4.1099e+07
7.95341e+07
1.84801e+08
5.94343e+08
3.64963e+09
20162.6
21590.2
24136.5
27591.7
31816.1
36730.6
42304.7
48546.5
55502.5
63267.2
71970.9
81723.2
92621.5
104809
118491
133930
151449
171426
194308
220619
250962
286041
326667
373780
428465
491995
565917
652229
753724
874593
1.0213e+06
1.20342e+06
1.43575e+06
1.74243e+06
2.16162e+06
2.75235e+06
3.60653e+06
4.87209e+06
6.79989e+06
9.84305e+06
1.4883e+07
2.37983e+07
4.1099e+07
7.95341e+07
1.84801e+08
5.94343e+08
3.64963e+09
20161.3
21588.8
24135.1
27590.1
31814.3
36728.6
42302.5
48544.1
55499.9
63264.3
71967.8
81719.8
92617.7
104805
118486
133926
151444
171420
194302
220612
250955
286032
326657
373769
428452
491981
565900
652209
753700
874565
1.02127e+06
1.20338e+06
1.43571e+06
1.74239e+06
2.16158e+06
2.75232e+06
3.6065e+06
4.87206e+06
6.79987e+06
9.84304e+06
1.4883e+07
2.37983e+07
4.1099e+07
7.95341e+07
1.84801e+08
5.94343e+08
3.64963e+09
20159.9
21587.4
24133.6
27588.4
31812.5
36726.6
42300.2
48541.6
55497.1
63261.2
71964.5
81716.2
92613.8
104801
118482
133921
151438
171414
194296
220605
250947
286023
326647
373758
428439
491965
565882
652187
753675
874536
1.02124e+06
1.20334e+06
1.43567e+06
1.74235e+06
2.16154e+06
2.75228e+06
3.60647e+06
4.87203e+06
6.79985e+06
9.84302e+06
1.4883e+07
2.37983e+07
4.1099e+07
7.95341e+07
1.84801e+08
5.94343e+08
3.64963e+09
20158.5
21585.9
24132
27586.7
31810.5
36724.4
42297.9
48539
55494.2
63258.1
71961
81712.4
92609.6
104796
118477
133915
151432
171408
194289
220597
250938
286014
326637
373745
428425
491949
565862
652164
753648
874505
1.0212e+06
1.2033e+06
1.43563e+06
1.74231e+06
2.1615e+06
2.75224e+06
3.60643e+06
4.87201e+06
6.79982e+06
9.84301e+06
1.4883e+07
2.37983e+07
4.1099e+07
7.95341e+07
1.84801e+08
5.94343e+08
3.64963e+09
20157
21584.3
24130.3
27584.9
31808.5
36722.2
42295.4
48536.2
55491.2
63254.7
71957.4
81708.4
92605.3
104792
118472
133910
151426
171401
194281
220590
250930
286004
326626
373733
428410
491932
565842
652141
753620
874473
1.02117e+06
1.20326e+06
1.43558e+06
1.74226e+06
2.16145e+06
2.7522e+06
3.6064e+06
4.87198e+06
6.7998e+06
9.84299e+06
1.4883e+07
2.37983e+07
4.1099e+07
7.95341e+07
1.84801e+08
5.94343e+08
3.64963e+09
20155.5
21582.7
24128.5
27582.9
31806.4
36719.8
42292.8
48533.3
55488
63251.2
71953.5
81704.2
92600.8
104787
118466
133904
151420
171394
194274
220581
250920
285994
326614
373720
428395
491914
565821
652116
753591
874439
1.02113e+06
1.20322e+06
1.43554e+06
1.74221e+06
2.1614e+06
2.75216e+06
3.60636e+06
4.87195e+06
6.79978e+06
9.84297e+06
1.48829e+07
2.37983e+07
4.1099e+07
7.95341e+07
1.84801e+08
5.94343e+08
3.64963e+09
20153.8
21581
24126.7
27580.9
31804.1
36717.4
42290
48530.3
55484.7
63247.6
71949.5
81699.9
92596
104782
118461
133898
151413
171387
194266