/*--------------------------------*- C++ -*----------------------------------*\
  =========                 |
  \\      /  F ield         | OpenFOAM: The Open Source CFD Toolbox
   \\    /   O peration     | Website:  https://openfoam.org
    \\  /    A nd           | Version:  7
     \\/     M anipulation  |
\*---------------------------------------------------------------------------*/
FoamFile
{
    version     2.0;
    format      ascii;
    class       surfaceScalarField;
    location    "5125";
    object      phi;
}
// * * * * * * * * * * * * * * * * * * * * * * * * * * * * * * * * * * * * * //

dimensions      [0 3 -1 0 0 0 0];

internalField   nonuniform List<scalar> 
43663
(
7.63116e-23
9.4915e-23
-3.06393e-24
9.93593e-23
-5.56431e-23
4.2393e-23
-8.49181e-23
2.89826e-23
-2.26375e-23
1.69151e-23
-3.01568e-23
5.5435e-24
-2.07014e-23
-1.9148e-24
-1.11853e-23
2.03474e-25
-8.32833e-24
-1.89232e-24
-9.55739e-24
-7.2719e-24
-3.58666e-23
-8.66121e-24
-3.86803e-23
-7.72917e-24
-2.46491e-23
-7.23196e-24
-2.43752e-23
-6.78765e-24
-2.42918e-23
-5.26219e-24
-2.62653e-23
-4.45235e-24
-2.79102e-23
-3.95365e-24
-1.86558e-23
-3.33268e-24
-1.69262e-23
-2.9095e-24
-1.77798e-23
-2.41339e-24
-1.33599e-23
-1.87728e-24
-1.08565e-23
-1.45325e-24
-8.40775e-24
-1.07816e-24
-6.38981e-24
-8.39547e-25
-6.96973e-24
-6.65851e-25
-7.72923e-24
-5.09873e-25
-1.03386e-23
-4.04757e-25
-1.18525e-23
-3.37669e-25
-1.1612e-23
-2.73321e-25
-1.23831e-23
-2.22648e-25
-8.5715e-24
-1.7671e-25
-7.85439e-24
-1.50987e-25
-7.02598e-24
-1.34874e-25
-7.09512e-24
-1.24372e-25
-6.35865e-24
-1.13933e-25
-5.95752e-24
-1.01746e-25
-5.28395e-24
-8.84691e-26
-4.92347e-24
-7.55794e-26
-4.09073e-24
-6.28932e-26
-3.8438e-24
-5.13673e-26
-3.23595e-24
-4.07969e-26
-2.79454e-24
-3.16417e-26
-2.41972e-24
-2.39121e-26
-1.52139e-24
-1.75396e-26
-6.59506e-25
-1.29058e-26
-7.04194e-27
-1.00461e-26
-5.6167e-27
8.55479e-23
-2.03762e-23
7.57417e-23
8.38436e-23
8.18089e-23
6.16054e-23
2.33635e-23
3.31123e-23
6.533e-23
3.15435e-23
3.62712e-23
1.02342e-23
6.14785e-23
2.80036e-24
4.28926e-23
-1.07148e-23
1.27053e-23
-1.61028e-23
1.1919e-23
-1.56322e-23
-1.40528e-23
-1.64717e-23
-2.99815e-23
-1.47492e-23
-2.33053e-23
-1.16736e-23
-1.51067e-23
-1.05184e-23
-2.83378e-23
-1.04711e-23
-4.03431e-23
-9.69745e-24
-4.13715e-23
-8.47176e-24
-3.93287e-23
-6.96304e-24
-3.59239e-23
-5.69693e-24
-3.18606e-23
-4.77983e-24
-2.8172e-23
-4.09373e-24
-2.29791e-23
-3.65999e-24
-2.32461e-23
-3.40571e-24
-2.10664e-23
-3.19636e-24
-1.73965e-23
-2.92978e-24
-1.78813e-23
-2.68966e-24
-2.03023e-23
-2.42981e-24
-1.78262e-23
-2.16181e-24
-1.61161e-23
-1.89365e-24
-1.40706e-23
-1.6387e-24
-1.24766e-23
-1.40232e-24
-1.13384e-23
-1.18398e-24
-1.04315e-23
-9.85764e-25
-9.19798e-24
-8.07052e-25
-6.79061e-24
-6.50978e-25
-5.15427e-24
-5.19461e-25
-4.38794e-24
-4.09533e-25
-3.36577e-24
-3.18266e-25
-2.83785e-24
-2.43702e-25
-2.14145e-24
-1.83193e-25
-1.69825e-24
-1.34563e-25
-1.37055e-24
-9.57603e-26
-7.43756e-25
-6.51833e-26
-7.14418e-25
-4.16817e-26
-3.041e-25
-2.38753e-26
2.72562e-27
-1.12908e-26
-2.94535e-27
5.07851e-23
-7.57277e-23
5.1317e-23
5.49615e-23
7.27813e-23
6.76212e-23
6.22445e-23
4.10827e-23
4.57989e-23
2.21084e-23
4.58923e-23
1.56204e-23
3.27603e-23
7.35086e-24
2.78017e-23
3.47175e-24
1.59707e-23
-1.31345e-24
7.10032e-24
-4.75505e-24
-1.34746e-24
-6.48676e-24
-3.56998e-24
-7.56947e-24
-1.24571e-23
-9.25693e-24
-1.65032e-23
-9.36766e-24
-1.88913e-23
-8.83141e-24
-1.91023e-23
-8.02131e-24
-6.17106e-24
-7.06171e-24
-1.28267e-24
-6.93301e-24
-8.17575e-25
-6.75794e-24
-9.05356e-25
-6.30214e-24
-7.98519e-24
-5.7954e-24
-1.39389e-23
-5.37884e-24
-1.98105e-23
-4.93203e-24
-1.6501e-23
-4.38265e-24
-1.71651e-23
-3.91543e-24
-1.55461e-23
-3.49079e-24
-1.55816e-23
-3.08814e-24
-1.12949e-23
-2.69415e-24
-8.78584e-24
-2.35943e-24
-7.6345e-24
-2.05204e-24
-6.52673e-24
-1.77183e-24
-6.14996e-24
-1.51473e-24
-4.88047e-24
-1.28147e-24
-4.21914e-24
-1.07259e-24
-3.57516e-24
-8.87209e-25
-2.87618e-24
-7.25203e-25
-2.3059e-24
-5.86282e-25
-1.80726e-24
-4.68459e-25
-1.45727e-24
-3.69688e-25
-1.0318e-24
-2.87351e-25
-6.64006e-25
-2.19253e-25
-4.36428e-25
-1.63394e-25
-6.0629e-25
-1.17949e-25
-1.68484e-25
-8.13624e-26
-9.50763e-26
-5.28631e-26
-1.02778e-26
-3.13797e-26
-1.21967e-26
3.56489e-23
-5.95253e-23
2.88248e-23
3.95352e-23
3.3881e-23
5.16913e-23
4.58834e-23
4.57257e-23
4.20863e-23
2.965e-23
3.63064e-23
1.81243e-23
2.78511e-23
8.35938e-24
2.0547e-23
1.34942e-24
1.23441e-23
-4.22762e-24
4.75109e-24
-7.51999e-24
-4.50286e-24
-8.57169e-24
-1.42422e-23
-8.47398e-24
-1.33724e-23
-7.29399e-24
-1.14807e-23
-6.70354e-24
-9.05575e-24
-6.54135e-24
-3.69484e-24
-6.63065e-24
-8.74343e-24
-6.89326e-24
-5.99723e-24
-6.80656e-24
1.35232e-24
-6.52571e-24
4.01741e-24
-6.33196e-24
-4.3401e-24
-6.0308e-24
-6.49822e-24
-5.55829e-24
-1.58823e-24
-5.06082e-24
1.37932e-25
-4.61589e-24
-4.71823e-25
-4.16603e-24
1.38736e-24
-3.69626e-24
3.62256e-24
-3.25722e-24
1.18598e-24
-2.85501e-24
1.66232e-24
-2.47262e-24
3.70583e-25
-2.11259e-24
1.06629e-24
-1.79037e-24
6.42138e-25
-1.50322e-24
1.16325e-24
-1.2501e-24
1.35403e-24
-1.03158e-24
1.4344e-24
-8.44944e-25
1.38508e-24
-6.86698e-25
1.3602e-24
-5.52064e-25
1.04153e-24
-4.38934e-25
1.00682e-24
-3.44117e-25
9.83402e-25
-2.65057e-25
9.52413e-25
-1.99699e-25
1.00803e-24
-1.46098e-25
1.18859e-24
-1.02658e-25
6.79952e-25
-6.80453e-26
3.07497e-25
-4.09185e-26
4.98982e-27
-2.05374e-26
-5.77584e-27
1.3018e-23
-6.31337e-23
4.93873e-24
2.22687e-23
1.71619e-23
4.85512e-23
2.92694e-23
3.51901e-23
3.01734e-23
2.86422e-23
2.55443e-23
2.15714e-23
1.44251e-23
1.70043e-23
8.77462e-24
5.52978e-24
5.19389e-24
-1.76254e-24
4.20278e-24
-6.52204e-24
3.89193e-24
-9.65757e-24
2.42783e-24
-9.01506e-24
-4.52303e-25
-8.72951e-24
-2.97742e-24
-8.38596e-24
-6.18771e-24
-8.1612e-24
-8.82239e-24
-7.9426e-24
-1.23114e-23
-7.58997e-24
-9.25551e-24
-6.78375e-24
-6.82791e-24
-6.21681e-24
-3.97384e-24
-5.78968e-24
-7.18204e-24
-5.45094e-24
-8.7123e-24
-5.0735e-24
-9.05651e-24
-4.63802e-24
-8.70297e-24
-4.0927e-24
-8.34744e-24
-3.60202e-24
-7.80275e-24
-3.17643e-24
-6.58185e-24
-2.7894e-24
-6.43356e-24
-2.45948e-24
-2.27245e-24
-2.15793e-24
-2.68014e-24
-1.88719e-24
-1.42554e-24
-1.62768e-24
-1.20152e-24
-1.38681e-24
-8.29476e-25
-1.16856e-24
-8.23087e-25
-9.72381e-25
-8.7393e-25
-8.00084e-25
1.73023e-25
-6.49808e-25
3.92906e-25
-5.22801e-25
5.08436e-25
-4.15414e-25
8.39239e-25
-3.25428e-25
7.81921e-25
-2.50852e-25
7.98462e-25
-1.8934e-25
8.05837e-25
-1.38921e-25
6.97064e-25
-9.79846e-26
6.45331e-25
-6.51937e-26
2.75751e-25
-3.94289e-26
3.49661e-28
-1.99393e-26
-5.68422e-27
1.31235e-25
-4.6981e-23
-8.76389e-25
2.51154e-23
-4.32244e-24
4.65321e-23
3.01734e-23
4.66246e-23
2.69901e-23
3.11471e-23
3.05829e-23
1.75257e-23
-8.68673e-24
6.00224e-24
-8.81922e-24
3.85752e-24
-1.00357e-23
1.53767e-24
-9.97119e-24
1.37094e-25
1.0278e-23
-5.18723e-25
8.8727e-24
-3.05078e-24
6.06518e-24
-3.84031e-24
2.075e-24
-4.14865e-24
-4.11646e-25
-4.22101e-24
-2.32265e-24
-4.14451e-24
7.03278e-24
-3.9332e-24
5.79225e-24
-4.16871e-24
4.31242e-24
-4.19806e-24
2.02437e-24
-4.09449e-24
2.84146e-25
-3.8829e-24
6.16985e-25
-3.49857e-24
8.53262e-24
-3.10956e-24
1.03271e-23
-2.83329e-24
8.31345e-24
-2.56214e-24
7.95337e-24
-2.26978e-24
3.57992e-24
-1.97374e-24
1.16206e-24
-1.68502e-24
5.65903e-25
-1.41755e-24
3.04618e-25
-1.18208e-24
6.4706e-25
-9.80361e-25
1.00599e-25
-8.08387e-25
5.50176e-25
-6.65233e-25
3.54529e-25
-5.48889e-25
1.20381e-24
-4.52955e-25
1.06686e-24
-3.74202e-25
1.07057e-24
-3.06559e-25
1.02248e-24
-2.48582e-25
9.58767e-25
-1.98395e-25
8.30996e-25
-1.5474e-25
8.60631e-25
-1.17153e-25
8.52927e-25
-8.54152e-26
6.0618e-25
-5.90438e-26
5.34286e-25
-3.75023e-26
2.28396e-25
-2.0621e-26
6.10942e-27
-8.16058e-27
-9.15279e-28
-7.42974e-24
-4.42179e-23
-4.43071e-24
1.04587e-23
4.61228e-25
3.53409e-23
1.42967e-23
3.14138e-23
2.06026e-23
2.19015e-23
8.84755e-24
2.29394e-23
-4.90633e-24
1.26839e-23
-9.59687e-24
5.84678e-24
-9.41095e-24
3.18065e-24
-4.24139e-24
1.91301e-24
-8.98239e-25
1.54679e-24
8.9348e-24
1.46946e-24
6.7075e-24
3.55633e-25
5.39542e-24
-4.61211e-25
2.9996e-24
-9.26835e-25
1.01794e-24
-1.19502e-24
-2.29199e-24
-1.47645e-24
-3.22681e-24
-1.46954e-24
-3.16223e-24
-1.53635e-24
-3.58706e-24
-1.52679e-24
1.56044e-24
-1.49322e-24
1.26072e-24
-1.53541e-24
2.81396e-26
-1.52767e-24
-2.05403e-24
-1.48205e-24
-4.43276e-24
-1.39966e-24
-3.97262e-24
-1.30084e-24
-6.56016e-24
-1.20908e-24
-7.56584e-24
-1.09746e-24
-7.392e-24
-9.95544e-25
-7.48655e-24
-8.86529e-25
-6.66e-24
-7.77972e-25
-6.27902e-24
-6.75582e-25
-5.74795e-24
-5.78306e-25
-5.07628e-24
-4.87525e-25
-4.58394e-24
-4.07992e-25
-3.6252e-24
-3.38209e-25
-3.33277e-24
-2.76779e-25
-2.99308e-24
-2.22469e-25
-2.41623e-24
-1.75347e-25
-1.86374e-24
-1.35399e-25
-1.61483e-24
-1.01684e-25
-1.44595e-24
-7.33873e-26
-1.10969e-24
-4.99188e-26
-9.26234e-25
-3.09516e-26
-4.07006e-25
-1.61766e-26
1.42015e-27
-5.84086e-27
-4.24185e-28
-1.80137e-23
-3.45511e-23
1.16374e-24
2.67048e-23
5.82064e-25
3.63591e-23
4.76539e-24
2.85976e-23
3.76232e-23
3.11169e-23
-7.99813e-24
1.21098e-23
-1.16824e-23
7.54703e-24
-1.41564e-23
3.60048e-24
-8.36771e-24
3.40869e-25
-2.69116e-24
1.06543e-24
3.68186e-25
1.25165e-24
1.97609e-24
8.19496e-25
6.49481e-25
6.35744e-25
-9.56423e-25
3.62432e-25
-2.99642e-24
2.14433e-25
-4.1747e-24
1.96176e-26
-6.02387e-24
-1.59604e-25
-7.05944e-24
-7.95366e-25
-8.57111e-24
-1.15358e-24
-9.22248e-24
-1.41682e-24
-9.60535e-24
-1.5065e-24
-8.88634e-24
-1.45667e-24
-7.84295e-24
-1.3322e-24
-5.99408e-24
-1.1951e-24
-4.31142e-24
-1.07674e-24
-2.83951e-24
-9.71761e-25
-1.5127e-24
-8.40212e-25
-3.08959e-24
-7.12641e-25
-1.98361e-24
-5.85345e-25
-2.1395e-24
-4.88162e-25
-2.34638e-24
-4.00048e-25
-2.17597e-24
-3.28922e-25
-1.63465e-24
-2.75215e-25
-2.5342e-24
-2.38914e-25
-3.24097e-24
-2.1084e-25
-2.91504e-24
-1.86129e-25
-2.48682e-24
-1.63013e-25
-2.17673e-24
-1.40109e-25
-2.20935e-24
-1.16789e-25
-1.98411e-24
-9.355e-26
-1.75358e-24
-7.14398e-26
-1.49726e-24
-5.12902e-26
-1.29149e-24
-3.37197e-26
-8.96094e-25
-1.91769e-26
-3.84025e-25
-8.01301e-27
3.16134e-27
-7.84439e-28
1.48897e-27
-1.18454e-23
-3.10325e-23
-5.64694e-24
1.06352e-23
-9.82111e-24
3.89293e-23
2.17097e-23
4.86462e-23
7.25169e-24
3.72922e-23
-9.0772e-24
1.65785e-23
-1.80033e-23
1.0393e-23
-2.19308e-23
8.51583e-24
-1.00958e-24
8.3141e-24
1.8247e-24
5.22195e-24
4.74533e-24
3.27735e-24
5.55401e-24
1.58599e-24
5.55302e-24
6.61944e-25
5.66771e-24
1.75382e-25
3.27446e-24
-1.13917e-25
1.31462e-24
-5.11538e-25
-1.42181e-23
-1.31976e-24
-1.25702e-23
-1.48421e-24
-1.91814e-23
-1.27825e-24
-1.90157e-23
-1.04061e-24
-1.8568e-23
-9.08679e-25
-1.55977e-23
-8.66505e-25
-1.49875e-23
-8.94489e-25
-1.57388e-23
-9.15921e-25
-1.6133e-23
-8.91864e-25
-1.24538e-23
-8.5017e-25
-1.161e-23
-8.17029e-25
-1.12471e-23
-7.68905e-25
-1.38153e-23
-7.12399e-25
-1.21438e-23
-6.3587e-25
-1.16145e-23
-5.6525e-25
-1.00514e-23
-4.97119e-25
-9.34999e-24
-4.32315e-25
-8.62035e-24
-3.71955e-25
-7.58586e-24
-3.16701e-25
-6.55557e-24
-2.67053e-25
-5.82167e-24
-2.21694e-25
-5.02413e-24
-1.80964e-25
-4.40101e-24
-1.44527e-25
-3.7978e-24
-1.12457e-25
-3.23545e-24
-8.4539e-26
-2.84905e-24
-6.06455e-26
-2.50799e-24
-4.07038e-26
-1.76424e-24
-2.44832e-26
-7.7236e-25
-1.2479e-26
-4.50566e-27
-5.07068e-27
-1.28338e-27
-1.17889e-23
-2.23512e-23
1.39743e-23
3.01667e-23
1.03718e-23
3.32037e-23
1.5662e-23
2.6865e-23
-3.02798e-23
1.25815e-23
-1.55638e-23
1.02511e-23
-2.06927e-23
8.03136e-24
-1.90952e-23
6.26752e-24
-1.37224e-23
4.61254e-24
-9.37743e-24
3.75663e-24
-5.86283e-24
2.39417e-24
-1.58845e-24
9.1394e-25
1.67374e-24
7.69593e-26
1.8597e-24
-7.41064e-25
-5.56481e-25
-1.36763e-24
-1.4858e-23
-1.78801e-24
-1.84368e-23
-2.64865e-24
-8.59243e-24
-2.64474e-24
-9.66404e-24
-2.52839e-24
-9.85075e-24
-2.18614e-24
-1.0988e-23
-1.87674e-24
-1.13411e-23
-1.60266e-24
-1.1516e-23
-1.36031e-24
-1.0871e-23
-1.14428e-24
-9.93961e-24
-9.81295e-25
-7.82742e-24
-8.32562e-25
-5.73488e-24
-6.96441e-25
-5.00616e-24
-5.77112e-25
-5.01033e-24
-4.73759e-25
-5.25363e-24
-3.84964e-25
-5.80514e-24
-3.07965e-25
-5.19377e-24
-2.4538e-25
-5.38309e-24
-1.99387e-25
-5.20565e-24
-1.66679e-25
-5.04921e-24
-1.42353e-25
-4.43839e-24
-1.22736e-25
-4.28287e-24
-1.0605e-25
-3.80759e-24
-8.99211e-26
-3.65304e-24
-7.3829e-26
-3.29731e-24
-5.77975e-26
-2.96926e-24
-4.24787e-26
-2.8544e-24
-2.85418e-26
-2.07707e-24
-1.6424e-26
-1.74287e-24
-7.11261e-27
-7.61386e-25
-7.44217e-28
2.88712e-27
1.72624e-27
1.03103e-27
9.56946e-25
-2.95623e-23
7.15534e-24
9.57066e-24
6.42772e-24
1.57847e-23
-5.87697e-24
1.56826e-23
-2.69716e-23
7.68036e-24
-1.84574e-23
9.38255e-24
-2.1744e-23
1.33094e-24
-2.03408e-23
1.57141e-24
-1.5662e-23
1.06482e-24
-1.13446e-23
9.2197e-25
-1.02832e-23
1.23961e-25
-5.68691e-24
2.56451e-25
-6.59672e-25
-1.01614e-24
1.41024e-25
-2.04109e-24
-8.10878e-25
-2.79954e-24
-2.52722e-23
-3.01609e-24
-1.3533e-23
-1.77596e-24
-1.89702e-24
-1.07975e-24
3.21134e-24
-6.64091e-25
2.71816e-24
-7.80152e-25
1.1879e-24
-7.76841e-25
-5.42963e-25
-7.11631e-25
-1.82219e-24
-6.12203e-25
-4.68155e-24
-5.21988e-25
-4.5703e-24
-4.11183e-25
-3.77506e-24
-3.16256e-25
-2.71072e-24
-2.47276e-25
-2.79114e-24
-2.17273e-25
-3.10105e-24
-1.85159e-25
-3.05716e-24
-1.58057e-25
-3.15025e-24
-1.36777e-25
-2.89703e-24
-1.21245e-25
-3.31933e-24
-1.10787e-25
-2.90499e-24
-1.01089e-25
-2.47761e-24
-9.3258e-26
-2.17696e-24
-8.61858e-26
-1.81245e-24
-7.67566e-26
-1.30419e-24
-6.57185e-26
-8.66284e-25
-5.35893e-26
-4.70576e-25
-4.11824e-26
-2.21731e-25
-2.9562e-26
1.29137e-25
-1.89933e-26
-1.25192e-25
-1.01791e-26
2.25679e-25
-3.30963e-27
9.56837e-26
6.03576e-28
1.15459e-28
1.21579e-27
8.60372e-29
5.32851e-24
-4.68923e-23
1.3478e-24
-5.71512e-24
1.09171e-23
-1.1444e-23
-1.29938e-23
-2.90951e-23
-1.21057e-23
-1.53753e-23
-3.6349e-23
-8.16017e-24
-1.69993e-23
-4.75008e-24
-1.82961e-23
-3.43806e-24
-1.43988e-23
-3.14507e-24
-1.28903e-23
-3.76788e-24
-7.8644e-24
-4.56261e-24
-1.39478e-23
-5.33556e-24
-1.12943e-23
-4.94596e-24
-9.65008e-24
-4.74352e-24
-6.16779e-24
-4.35355e-24
-2.42336e-24
-3.86226e-24
1.38597e-24
-3.53962e-24
9.99863e-24
-3.24565e-24
-3.35632e-25
-3.25931e-24
-6.3621e-25
-2.69028e-24
-2.10683e-24
-2.21306e-24
-3.07419e-24
-1.84068e-24
-2.88372e-24
-1.64112e-24
-2.54327e-24
-1.42847e-24
-1.73386e-24
-1.2666e-24
-1.08007e-24
-1.14144e-24
-3.19866e-24
-1.01166e-24
-1.91067e-24
-8.83471e-25
-1.49265e-24
-7.65426e-25
-7.3193e-25
-6.49163e-25
6.51108e-26
-5.4058e-25
5.27589e-25
-4.41725e-25
1.26514e-24
-3.56335e-25
1.42607e-24
-2.87672e-25
1.00149e-24
-2.33563e-25
1.36978e-24
-1.88703e-25
1.48983e-24
-1.53345e-25
1.71074e-24
-1.23945e-25
1.96483e-24
-9.92356e-26
1.59943e-24
-7.77787e-26
1.6821e-24
-5.88874e-26
1.55265e-24
-4.25968e-26
1.70216e-24
-2.88828e-26
1.00591e-24
-1.80985e-26
4.38181e-25
-1.01887e-26
-4.27329e-27
-5.76e-27
-2.66806e-27
1.00384e-23
-6.98798e-23
-1.32046e-23
-4.28715e-23
-1.17957e-23
-2.132e-23
1.31092e-23
-9.52716e-24
6.20577e-24
-1.52753e-23
-2.18526e-23
-1.27225e-23
-8.04271e-24
-5.78196e-24
-1.54859e-23
-5.67426e-24
-1.58299e-23
-5.27854e-24
-1.47236e-23
-5.00371e-24
-1.30806e-23
-4.75013e-24
-1.13868e-23
-4.75944e-24
-7.46963e-24
-5.23753e-24
-3.93457e-24
-4.42297e-24
-1.57884e-25
-3.65077e-24
3.92103e-24
-3.01495e-24
8.67776e-24
-2.53128e-24
1.16196e-23
-2.21753e-24
2.0001e-23
-1.9131e-24
2.09351e-23
-1.89402e-24
2.08383e-23
-1.82721e-24
1.23193e-23
-1.56741e-24
1.16046e-23
-1.10132e-24
7.47296e-24
-8.08409e-25
4.48242e-24
-5.45941e-25
4.80721e-24
-3.29652e-25
2.61254e-24
-1.71597e-25
2.95172e-24
-6.09856e-26
3.55149e-24
2.71572e-26
3.82946e-24
7.06917e-26
4.03228e-24
8.70933e-26
3.59323e-24
7.76039e-26
3.01122e-24
6.00211e-26
1.95163e-24
4.14409e-26
2.22457e-24
2.51175e-26
1.8836e-24
9.94794e-27
2.08046e-24
2.97199e-28
1.59365e-24
-4.58463e-27
1.46844e-24
-5.79042e-27
9.57491e-25
-4.9167e-27
6.82809e-25
-2.6787e-27
4.07503e-25
-1.62427e-28
3.71395e-26
1.88473e-27
1.09396e-25
3.08053e-27
5.44369e-26
2.6477e-27
-4.71549e-28
4.72739e-28
-1.12212e-27
3.84848e-24
-7.50415e-23
-1.30269e-24
-3.98134e-23
2.98405e-24
-2.24725e-23
1.42191e-23
-1.40586e-23
1.42808e-23
-1.17736e-23
3.48894e-24
-9.43215e-24
-8.1186e-24
-5.55627e-24
-1.26565e-23
-1.20474e-23
-1.37471e-23
-1.2288e-23
-1.49805e-23
-8.78068e-24
-1.61963e-23
-3.25044e-24
-1.49942e-23
-2.26812e-24
-6.16025e-25
-1.50067e-24
2.96005e-24
-1.71977e-24
5.62276e-24
-1.72968e-24
5.15678e-24
-1.47313e-24
4.34398e-24
-1.08113e-24
3.38151e-24
-6.32471e-25
3.93394e-24
-3.94607e-25
4.80861e-24
-9.56265e-26
1.11501e-23
1.88587e-25
1.73008e-23
1.98886e-25
1.46243e-23
3.21892e-26
1.44113e-23
-1.02163e-26
1.38186e-23
-4.26445e-26
1.43017e-23
-7.87313e-27
1.23465e-23
3.47286e-26
1.57225e-23
9.49508e-26
1.45259e-23
1.33945e-25
1.46532e-23
1.74675e-25
1.23134e-23
2.03665e-25
1.17924e-23
2.27353e-25
1.13242e-23
2.36762e-25
1.02327e-23
2.30902e-25
8.33987e-24
2.14669e-25
7.51055e-24
1.92929e-25
7.0941e-24
1.66996e-25
6.27572e-24
1.39348e-25
5.42263e-24
1.13232e-25
4.68838e-24
8.99187e-26
3.90312e-24
6.9817e-26
3.09337e-24
5.28705e-26
2.66959e-24
3.87459e-26
1.57549e-24
2.68257e-26
6.99992e-25
1.68104e-26
4.42114e-27
8.22498e-27
1.81298e-27
4.62726e-24
-6.56694e-23
1.00163e-23
-2.99857e-23
1.61975e-23
-1.58225e-23
2.19034e-23
-1.00481e-23
2.20157e-23
-1.37204e-23
1.8742e-23
-1.65618e-23
-2.61034e-23
-2.39475e-23
-1.46989e-23
-1.59813e-23
-8.40578e-24
-1.28499e-23
6.85804e-24
-1.20402e-23
-1.6969e-23
-1.31255e-23
-1.64077e-23
-8.84118e-24
-1.39852e-23
-5.71284e-24
-9.09528e-24
-3.83499e-24
-3.57113e-24
-3.00638e-24
1.16603e-24
-2.22289e-24
5.50113e-24
-1.53856e-24
3.15564e-24
-1.71687e-24
6.68788e-24
-1.87326e-24
9.19955e-24
-1.88736e-24
5.85273e-24
-1.81675e-24
1.48695e-24
-1.5333e-24
2.90739e-24
-1.26914e-24
1.50996e-24
-1.07588e-24
5.888e-24
-8.98717e-25
6.16687e-24
-7.84112e-25
5.74175e-24
-6.95457e-25
5.89868e-24
-6.27221e-25
5.68077e-24
-5.71718e-25
5.41171e-24
-5.19846e-25
5.28704e-24
-4.71441e-25
5.3476e-24
-4.21014e-25
4.75885e-24
-3.6875e-25
4.2874e-24
-3.13123e-25
3.94579e-24
-2.58367e-25
3.71501e-24
-2.07301e-25
3.14594e-24
-1.62064e-25
2.82116e-24
-1.2284e-25
2.39224e-24
-9.05734e-26
2.03959e-24
-6.48153e-26
1.64055e-24
-4.49617e-26
1.27984e-24
-3.002e-26
9.9947e-25
-1.91131e-26
6.33289e-25
-1.1446e-26
2.83235e-25
-6.18621e-27
-3.47404e-27
-2.6034e-27
-4.02213e-28
5.36005e-24
-4.88072e-23
1.69872e-23
-1.52734e-23
2.58261e-23
-4.22155e-24
2.1214e-23
1.32562e-24
2.05098e-23
3.93524e-24
-3.44631e-25
-7.98029e-24
-8.96733e-24
-8.40415e-24
-1.24896e-23
-8.93338e-24
-1.03439e-23
-7.72806e-24
-8.79392e-24
-6.72459e-24
-7.16454e-24
-3.71819e-24
-6.28372e-24
-4.96877e-24
-1.02822e-23
-4.04689e-24
-8.4622e-24
-4.97208e-24
-3.73733e-24
-5.14702e-24
2.56819e-24
-5.79863e-24
-8.47912e-24
-6.17887e-24
-1.41952e-23
-5.77807e-24
-8.66281e-24
-5.17298e-24
-4.504e-24
-4.68537e-24
-8.57604e-26
-4.34371e-24
-1.80232e-24
-4.16313e-24
-8.26156e-25
-3.90209e-24
2.06291e-25
-3.56366e-24
2.05494e-24
-3.18433e-24
3.3656e-24
-2.79804e-24
3.76739e-24
-2.42619e-24
4.58219e-24
-2.06678e-24
5.67668e-24
-1.73718e-24
5.22007e-24
-1.43967e-24
5.077e-24
-1.18024e-24
4.66621e-24
-9.58996e-25
4.4032e-24
-7.77494e-25
3.7121e-24
-6.33292e-25
2.97089e-24
-5.1721e-25
2.12128e-24
-4.24682e-25
1.75889e-24
-3.49025e-25
1.36616e-24
-2.86225e-25
1.039e-24
-2.33019e-25
6.83113e-25
-1.87566e-25
4.3209e-25
-1.48315e-25
2.85318e-25
-1.14621e-25
1.43656e-25
-8.58581e-26
9.72798e-26
-6.1185e-26
5.62407e-26
-4.04573e-26
-7.67227e-27
-2.27132e-26
-7.38217e-27
1.39494e-24
-2.88217e-23
2.05707e-23
-1.24082e-23
2.89301e-23
3.7893e-24
2.97976e-23
4.11227e-24
2.41108e-24
-1.57146e-24
2.11144e-24
9.79496e-25
-5.34044e-24
4.28517e-24
-5.4394e-24
-2.82439e-24
-2.81559e-24
-5.76117e-24
8.34725e-24
-6.43381e-24
-7.64783e-24
-1.04613e-23
3.79074e-24
-1.14023e-23
-1.78313e-23
-1.3708e-23
-1.38471e-23
-1.21403e-23
-2.11023e-23
-1.13184e-23
-1.70269e-23
-1.02622e-23
-1.83938e-23
-9.5409e-24
-1.99207e-23
-8.4565e-24
-1.72734e-23
-7.3875e-24
-1.51748e-23
-6.69713e-24
-1.83836e-23
-6.13682e-24
-1.67237e-23
-5.63016e-24
-1.53884e-23
-5.17877e-24
-1.12403e-23
-4.78119e-24
-9.9505e-24
-4.42918e-24
-9.23412e-24
-4.06947e-24
-8.35447e-24
-3.70354e-24
-7.3573e-24
-3.33233e-24
-5.47269e-24
-2.97482e-24
-4.71859e-24
-2.62784e-24
-3.10818e-24
-2.28095e-24
-1.78628e-24
-1.94334e-24
-9.28034e-25
-1.62415e-24
7.70833e-25
-1.32863e-24
1.41494e-24
-1.06665e-24
2.08162e-24
-8.38685e-25
2.56407e-24
-6.47549e-25
2.95852e-24
-4.9022e-25
2.98258e-24
-3.64157e-25
3.27327e-24
-2.64419e-25
3.21257e-24
-1.87352e-25
2.99083e-24
-1.28077e-25
3.17643e-24
-8.27394e-26
1.88516e-24
-4.84789e-26
8.2159e-25
-2.15889e-26
1.60626e-26
-4.48709e-28
7.65821e-27
-1.58434e-23
-4.25897e-23
2.88296e-23
1.69902e-23
3.25397e-23
1.87689e-23
2.95114e-23
1.20477e-23
1.14795e-23
6.16812e-24
1.68076e-23
3.50097e-24
-1.8548e-23
-4.24128e-24
-1.15148e-23
-1.47954e-24
-1.94227e-24
-3.35554e-24
-9.97975e-24
-7.10168e-24
-1.43186e-23
-9.29186e-24
-1.56161e-23
-1.05947e-23
-7.11212e-24
-8.72856e-24
-7.86554e-24
-8.31429e-24
-5.35016e-24
-7.92502e-24
-3.81378e-24
-7.6808e-24
3.53199e-24
-7.37508e-24
4.37005e-24
-7.31999e-24
-1.59902e-24
-7.16875e-24
-3.93515e-24
-6.69997e-24
-1.20823e-23
-6.1781e-24
-1.39312e-23
-5.53737e-24
-1.73684e-23
-4.92154e-24
-1.73524e-23
-4.28716e-24
-1.62027e-23
-3.68508e-24
-1.50762e-23
-3.16061e-24
-1.35261e-23
-2.69627e-24
-1.43908e-23
-2.3017e-24
-1.46607e-23
-1.96097e-24
-1.42807e-23
-1.65584e-24
-1.34685e-23
-1.39805e-24
-1.29927e-23
-1.19264e-24
-1.18506e-23
-1.0299e-24
-1.11204e-23
-9.02107e-25
-9.77772e-24
-7.9573e-25
-9.30566e-24
-7.02004e-25
-8.01668e-24
-6.13288e-25
-7.33199e-24
-5.29062e-25
-6.31656e-24
-4.48199e-25
-5.98528e-24
-3.72495e-25
-5.26767e-24
-3.02051e-25
-4.5074e-24
-2.38423e-25
-4.27662e-24
-1.81897e-25
-2.56421e-24
-1.32297e-25
-1.1379e-24
-9.04908e-26
-3.40204e-26
-5.61128e-26
-2.25541e-26
1.14232e-26
-2.57864e-23
2.0201e-23
2.28136e-23
2.84587e-23
2.93005e-23
2.61864e-23
2.07248e-23
1.71967e-23
1.18192e-23
8.52371e-24
5.1924e-24
-2.58196e-24
4.10448e-25
-4.12835e-24
-3.03248e-24
-5.53287e-24
-7.2216e-25
-8.75542e-24
4.35653e-25
-1.32976e-23
1.53035e-24
7.13685e-24
4.29621e-25
4.00301e-24
7.85759e-25
-2.51344e-25
-5.58088e-27
-3.91236e-24
-1.93682e-24
-6.87643e-24
-3.2749e-24
-8.37396e-24
-3.49076e-24
-1.08687e-23
-3.53284e-24
-1.29909e-23
-3.21575e-24
-1.63276e-23
-3.10039e-24
-1.84227e-23
-3.02888e-24
-2.08871e-23
-3.01845e-24
-2.13303e-23
-2.9013e-24
-2.12052e-23
-2.76476e-24
-2.13012e-23
-2.60966e-24
-1.99486e-23
-2.42621e-24
-1.8245e-23
-2.23652e-24
-1.66693e-23
-2.00849e-24
-1.13317e-23
-1.73869e-24
-8.53685e-24
-1.46535e-24
-6.46399e-24
-1.20462e-24
-4.2947e-24
-9.57616e-25
-2.67229e-24
-7.38031e-25
-1.54995e-24
-5.45524e-25
-4.63499e-25
-3.87485e-25
5.41658e-25
-2.61998e-25
9.9891e-25
-1.67052e-25
1.66376e-24
-9.52547e-26
1.79342e-24
-4.33016e-26
2.35047e-24
-5.53194e-27
2.27713e-24
2.02541e-26
2.21379e-24
3.74719e-26
2.3614e-24
4.78942e-26
1.38043e-24
5.28664e-26
6.28208e-25
5.39841e-26
5.02214e-26
5.06582e-26
2.93035e-26
5.0162e-24
-1.94577e-23
1.58552e-23
2.89721e-23
2.04835e-23
3.45564e-23
1.82539e-23
2.82881e-23
1.18477e-23
2.132e-23
5.18319e-24
1.69579e-23
-4.03435e-24
1.51561e-23
8.22324e-24
1.61016e-23
3.01895e-24
1.32814e-23
2.37702e-24
1.2096e-23
-1.28059e-23
1.2016e-23
1.70269e-23
1.43002e-23
2.88735e-24
9.15524e-24
-8.56464e-24
5.8514e-24
-8.53241e-24
4.70791e-24
2.71838e-24
4.03674e-24
3.24202e-24
2.9706e-24
9.90631e-24
2.0328e-24
3.82988e-24
1.18152e-24
-3.33372e-24
7.07816e-25
-1.03029e-23
4.62887e-25
-1.2003e-23
3.65477e-25
-1.46235e-23
3.8976e-25
-1.74442e-23
4.58195e-25
-1.94714e-23
4.54743e-25
-2.22479e-23
4.1116e-25
-2.20977e-23
3.6477e-25
-2.02203e-23
2.86286e-25
-1.71389e-23
1.7154e-25
-1.74252e-23
3.92203e-26
-1.65782e-23
-8.0697e-26
-1.66294e-23
-1.81488e-25
-1.46499e-23
-2.55222e-25
-1.37619e-23
-3.08004e-25
-1.21942e-23
-3.33298e-25
-1.15922e-23
-3.36549e-25
-9.98799e-24
-3.22173e-25
-9.30619e-24
-2.97002e-25
-7.76088e-24
-2.64218e-25
-7.00264e-24
-2.28936e-25
-5.89955e-24
-1.92846e-25
-5.10911e-24
-1.58573e-25
-4.52466e-24
-1.27435e-25
-2.77758e-24
-1.01096e-25
-1.25243e-24
-8.14631e-26
-6.93363e-26
-7.06831e-26
-4.24488e-26
7.60981e-24
-1.35127e-23
1.42891e-23
3.46927e-23
1.77277e-23
3.8698e-23
1.67723e-23
3.37028e-23
1.32814e-23
2.85767e-23
9.05153e-24
2.51412e-23
7.34271e-24
2.27818e-23
8.75025e-24
2.0344e-23
8.84838e-24
1.76691e-23
7.10107e-24
1.35108e-23
6.28163e-24
9.30925e-24
-1.24817e-23
4.89813e-24
-2.02856e-23
4.23316e-24
-2.07893e-23
3.97435e-24
-1.90935e-23
3.75216e-24
-1.44503e-23
3.35192e-24
-1.4995e-23
2.14301e-24
-1.07754e-23
1.38554e-24
-1.21206e-23
7.68519e-25
-1.31857e-23
4.5353e-25
-1.33748e-23
3.90836e-25
-7.13969e-24
4.46563e-25
-1.66476e-24
2.92807e-25
-1.72406e-24
1.30763e-25
-2.22602e-24
1.4474e-25
-7.23628e-25
2.48586e-25
2.1153e-25
3.5723e-25
2.12696e-25
4.56551e-25
7.408e-25
5.56142e-25
1.46734e-24
6.31682e-25
2.22645e-24
6.70748e-25
2.49681e-24
6.75421e-25
1.62391e-24
6.46575e-25
1.48403e-24
5.93592e-25
1.32115e-24
5.20274e-25
9.79187e-25
4.39573e-25
5.87455e-25
3.62391e-25
5.01109e-25
2.93342e-25
-1.19058e-26
2.34867e-25
-1.40502e-25
1.87632e-25
-4.53782e-25
1.50013e-25
-4.17124e-25
1.20622e-25
-6.47997e-25
9.73964e-26
-3.04049e-25
7.84983e-26
-8.83142e-26
6.13959e-26
6.59058e-26
4.35719e-26
1.91155e-26
8.86615e-24
-7.04215e-24
1.40747e-23
4.06947e-23
1.70401e-23
4.49379e-23
1.77238e-23
3.80622e-23
1.55211e-23
3.24738e-23
1.13869e-23
2.81011e-23
7.67307e-24
2.39997e-23
3.16945e-24
2.05016e-23
-3.98234e-24
1.84021e-23
-7.92417e-24
1.18761e-23
-1.04699e-23
7.36129e-24
-1.25679e-23
4.55106e-24
-1.31154e-23
2.88058e-24
-1.17445e-23
1.58687e-24
-9.89354e-24
7.32983e-25
-1.98525e-23
-3.6588e-26
-1.71995e-23
8.30459e-26
-1.32507e-23
5.65572e-26
-9.48353e-24
-6.60475e-26
-6.52453e-24
-2.23474e-25
-4.20027e-24
-3.87866e-25
-1.09718e-23
-5.51836e-25
-1.33393e-23
-4.89878e-25
-9.58876e-24
-4.0929e-25
-8.03377e-24
-3.73126e-25
-6.99434e-24
-3.60059e-25
-7.079e-24
-3.51789e-25
-5.6059e-24
-3.36393e-25
-4.60638e-24
-3.18539e-25
-3.61992e-24
-3.01405e-25
-2.64829e-24
-2.8427e-25
-2.34709e-24
-2.66103e-25
-1.76685e-24
-2.40817e-25
-2.24862e-24
-2.13648e-25
-2.15871e-24
-1.83249e-25
-1.39712e-24
-1.53348e-25
-1.21989e-24
-1.24716e-25
-9.35814e-25
-9.7645e-26
-7.45927e-25
-7.20173e-26
-8.41309e-25
-4.93121e-26
-7.4814e-25
-2.91055e-26
-6.21359e-25
-1.2396e-26
-3.22661e-25
7.15962e-28
-3.23348e-25
9.99626e-27
-1.43523e-25
1.59902e-26
-7.76634e-27
1.76042e-26
1.05269e-26
1.23819e-23
-8.37069e-24
9.40828e-24
4.77673e-23
1.23502e-23
4.87998e-23
1.71287e-23
3.98111e-23
1.71352e-23
3.30312e-23
9.52819e-24
3.19752e-23
6.37968e-24
1.95132e-23
4.29074e-24
1.17117e-23
-2.0075e-23
5.00816e-24
-2.06497e-23
4.19303e-24
-1.9677e-23
3.12199e-24
-1.71892e-23
1.95705e-24
-1.54566e-23
1.11868e-24
-1.41538e-23
5.69306e-25
-1.36376e-23
1.52898e-25
-1.32873e-23
-2.99998e-25
-1.27416e-23
-5.53169e-25
-1.16298e-23
-6.6518e-25
-1.10594e-23
-5.66976e-25
-1.0582e-23
-4.64614e-25
-1.06072e-23
-4.10466e-25
-9.99426e-24
-3.17871e-25
-9.69687e-24
-2.19933e-25
-6.28255e-24
-1.11687e-25
-6.23893e-24
-2.02474e-26
-6.26376e-24
3.3506e-26
-5.99383e-24
1.05261e-25
-6.02101e-24
1.62347e-25
-6.83442e-24
1.91842e-25
-7.26421e-24
1.98989e-25
-7.94572e-24
1.82233e-25
-7.45078e-24
1.46623e-25
-7.32547e-24
9.67704e-26
-6.99899e-24
4.15815e-26
-6.84369e-24
-1.06991e-26
-6.21598e-24
-5.22722e-26
-6.1531e-24
-8.23149e-26
-5.50421e-24
-9.83975e-26
-5.6662e-24
-1.0327e-25
-4.97189e-24
-9.89568e-26
-4.73012e-24
-8.87714e-26
-4.47888e-24
-7.48104e-26
-4.62233e-24
-5.95325e-26
-3.03979e-24
-4.43339e-26
-1.34787e-24
-3.29418e-26
-2.82765e-26
-2.69986e-26
-1.62738e-26
1.99979e-23
-2.5721e-23
4.51178e-24
2.01092e-23
6.78689e-24
4.88644e-23
1.25933e-23
3.67754e-23
2.25791e-23
2.40795e-23
-8.26723e-24
1.03488e-23
-5.71058e-24
1.06242e-23
-1.00704e-23
8.18409e-24
-1.6091e-23
5.64642e-24
-1.71115e-23
3.48435e-24
-1.38481e-23
2.22534e-24
-9.54453e-24
1.90024e-24
-7.24236e-24
2.86086e-24
-5.10466e-24
2.03015e-24
-3.69933e-24
1.4391e-24
-2.1717e-24
7.97529e-25
-2.13287e-24
2.5638e-25
2.89961e-24
-1.80413e-25
1.5743e-24
-6.24616e-25
7.21402e-25
-9.95325e-25
-8.08789e-25
-9.02846e-25
-1.68417e-24
-8.4057e-25
-2.56731e-24
-8.02867e-25
-2.437e-24
-7.07118e-25
-4.39703e-24
-6.774e-25
-2.70805e-24
-6.46143e-25
-7.6764e-25
-6.3923e-25
-4.09881e-25
-6.02973e-25
1.51567e-25
-5.57965e-25
4.33814e-25
-5.13296e-25
3.71585e-25
-4.60704e-25
8.68677e-25
-3.99707e-25
8.35618e-25
-3.36486e-25
9.9549e-25
-2.75483e-25
1.03497e-24
-2.16062e-25
1.50789e-25
-1.64112e-25
1.80375e-26
-1.18728e-25
-2.06503e-25
-8.08616e-26
-7.18608e-25
-4.96233e-26
-8.95225e-25
-2.39955e-26
-1.08934e-24
-3.67067e-27
-1.41683e-24
1.1438e-26
-2.10437e-25
2.16907e-26
-1.02162e-24
2.58403e-26
-4.41007e-25
2.56382e-26
2.30888e-26
1.90293e-26
7.36315e-27
1.67573e-23
-3.92691e-23
1.89626e-23
2.58965e-23
-5.81292e-24
3.253e-23
6.04483e-24
3.05789e-23
5.14724e-24
2.67904e-23
-2.13299e-24
1.70422e-23
-6.58584e-24
1.20957e-23
-1.19524e-23
9.87378e-24
-1.5583e-23
9.02586e-24
-1.74828e-23
8.82318e-24
-8.47275e-24
9.22856e-24
4.916e-24
8.04849e-24
-1.52356e-24
5.19432e-24
1.51972e-24
4.37688e-24
7.60758e-25
3.5703e-24
1.23762e-24
3.03427e-24
5.04739e-25
2.43934e-24
4.2256e-24
1.93238e-24
1.20891e-24
1.59981e-24
1.08437e-23
1.55557e-24
8.78788e-24
1.15914e-24
7.86674e-24
9.06051e-25
1.02488e-23
7.48534e-25
7.77172e-24
5.46464e-25
6.44551e-24
5.09812e-25
5.00971e-24
5.24977e-25
7.44228e-24
5.32216e-25
6.47447e-24
5.04876e-25
3.42863e-24
4.78187e-25
2.57074e-24
4.47953e-25
1.79624e-24
3.93996e-25
1.18149e-24
3.30609e-25
2.00525e-25
2.62358e-25
1.36883e-24
1.96759e-25
1.23116e-24
1.32518e-25
1.34388e-24
7.78854e-26
1.56016e-24
3.52652e-26
1.64018e-24
4.92032e-27
1.6712e-24
-1.44107e-26
1.88674e-24
-2.47309e-26
1.85165e-24
-2.85725e-26
1.92583e-24
-2.77424e-26
4.53099e-25
-2.46087e-26
1.25392e-24
-1.99374e-26
5.53233e-25
-1.78828e-26
-2.21063e-26
-1.94202e-26
-1.41379e-26
1.97442e-23
-5.44597e-23
1.40336e-23
-2.59085e-24
-5.10474e-24
1.36341e-23
8.73127e-24
2.21922e-23
-2.45545e-24
1.63625e-23
-1.18681e-24
1.41775e-23
-3.8544e-24