/*--------------------------------*- C++ -*----------------------------------*\
  =========                 |
  \\      /  F ield         | OpenFOAM: The Open Source CFD Toolbox
   \\    /   O peration     | Website:  https://openfoam.org
    \\  /    A nd           | Version:  7
     \\/     M anipulation  |
\*---------------------------------------------------------------------------*/
FoamFile
{
    version     2.0;
    format      ascii;
    class       volVectorField;
    location    "5125";
    object      U;
}
// * * * * * * * * * * * * * * * * * * * * * * * * * * * * * * * * * * * * * //

dimensions      [0 1 -1 0 0 0 0];

internalField   nonuniform List<vector> 
22090
(
(46.9037 -1.53601e-15 -1.46228e-15)
(46.7305 -2.29535e-15 -4.98899e-16)
(46.4225 -1.2567e-15 -1.54984e-16)
(46.0073 -4.18394e-16 2.39603e-17)
(45.5059 1.69901e-16 7.07462e-17)
(44.9347 4.80112e-16 7.24905e-17)
(44.3065 6.35285e-16 7.13829e-17)
(43.6312 6.72367e-16 9.77257e-17)
(42.9163 6.18505e-16 9.91377e-17)
(42.1654 5.26541e-16 7.97282e-17)
(41.3777 3.34287e-16 6.64117e-17)
(40.5549 1.5503e-16 5.41745e-17)
(39.702 1.04809e-16 4.38405e-17)
(38.8228 7.21494e-17 3.43542e-17)
(37.9195 2.16072e-17 3.93514e-17)
(36.9923 -2.04619e-17 3.46893e-17)
(36.04 -6.58503e-17 1.88898e-17)
(35.0606 -9.52266e-17 1.38041e-18)
(34.0515 -1.25374e-16 -1.52494e-17)
(33.0092 -1.81329e-16 -2.96928e-17)
(31.9302 -2.45779e-16 -4.10135e-17)
(30.8103 -3.18161e-16 -5.05307e-17)
(29.6452 -4.019e-16 -5.71744e-17)
(28.4308 -4.81831e-16 -6.08256e-17)
(27.1633 -5.5459e-16 -6.13372e-17)
(25.8394 -6.27395e-16 -5.84536e-17)
(24.4577 -7.10484e-16 -5.23107e-17)
(23.0189 -7.87196e-16 -4.34167e-17)
(21.5262 -8.33408e-16 -3.23203e-17)
(19.9846 -8.49332e-16 -2.03458e-17)
(18.3956 -8.34935e-16 -7.9961e-18)
(16.7677 -8.01603e-16 3.40895e-18)
(15.1263 -7.59162e-16 1.33287e-17)
(13.5041 -7.0523e-16 2.14381e-17)
(11.9357 -6.40027e-16 2.75907e-17)
(10.4494 -5.68728e-16 3.1837e-17)
(9.06266 -4.9601e-16 3.4278e-17)
(7.78256 -4.25542e-16 3.50063e-17)
(6.60847 -3.58289e-16 3.42996e-17)
(5.53544 -2.95944e-16 3.2416e-17)
(4.55658 -2.39582e-16 2.96582e-17)
(3.66447 -1.89078e-16 2.6251e-17)
(2.85182 -1.45248e-16 2.23781e-17)
(2.11177 -1.06547e-16 1.81564e-17)
(1.43795 -7.19138e-17 1.35617e-17)
(0.824542 -4.01784e-17 8.43073e-18)
(0.266188 -1.37273e-17 2.86422e-18)
(46.9039 -5.14643e-16 -2.17314e-15)
(46.7306 -8.03239e-17 1.04029e-16)
(46.4226 6.32374e-16 7.19264e-16)
(46.0074 1.15754e-15 8.34341e-16)
(45.5061 1.4355e-15 7.35849e-16)
(44.9349 1.5358e-15 5.2918e-16)
(44.3067 1.58126e-15 3.4726e-16)
(43.6313 1.46736e-15 1.82703e-16)
(42.9165 1.1719e-15 4.73072e-17)
(42.1655 9.05262e-16 -6.83225e-17)
(41.3778 5.90525e-16 -1.53866e-16)
(40.5551 2.95446e-16 -1.89028e-16)
(39.7021 1.55814e-16 -2.14758e-16)
(38.8229 9.5153e-17 -2.47191e-16)
(37.9196 -2.03983e-17 -2.71456e-16)
(36.9924 -2.10184e-16 -2.95673e-16)
(36.0401 -3.59462e-16 -3.18357e-16)
(35.0608 -4.34662e-16 -3.35396e-16)
(34.0516 -4.87553e-16 -3.45744e-16)
(33.0094 -5.47121e-16 -3.49375e-16)
(31.9303 -6.09679e-16 -3.49545e-16)
(30.8104 -6.74536e-16 -3.49241e-16)
(29.6453 -7.34873e-16 -3.47705e-16)
(28.4309 -7.8158e-16 -3.44492e-16)
(27.1634 -8.05548e-16 -3.36636e-16)
(25.8395 -8.14827e-16 -3.25983e-16)
(24.4578 -8.24007e-16 -3.11875e-16)
(23.019 -8.23435e-16 -2.93464e-16)
(21.5263 -7.98426e-16 -2.70491e-16)
(19.9847 -7.53683e-16 -2.45387e-16)
(18.3956 -6.9322e-16 -2.19155e-16)
(16.7678 -6.29883e-16 -1.93531e-16)
(15.1263 -5.63339e-16 -1.68983e-16)
(13.5042 -4.90473e-16 -1.45892e-16)
(11.9358 -4.1135e-16 -1.24674e-16)
(10.4494 -3.33486e-16 -1.05668e-16)
(9.0627 -2.66504e-16 -8.88675e-17)
(7.78259 -2.10929e-16 -7.41284e-17)
(6.6085 -1.64017e-16 -6.11948e-17)
(5.53546 -1.24738e-16 -4.9825e-17)
(4.5566 -9.25242e-17 -3.97375e-17)
(3.66449 -6.70498e-17 -3.07261e-17)
(2.85184 -4.69456e-17 -2.26453e-17)
(2.11178 -3.20863e-17 -1.54574e-17)
(1.43796 -2.10631e-17 -9.26495e-18)
(0.824545 -1.1682e-17 -4.43525e-18)
(0.266189 -3.92649e-18 -1.1332e-18)
(46.904 -7.40131e-17 -1.0175e-15)
(46.7308 6.0079e-16 9.91788e-16)
(46.4227 1.08661e-15 1.43219e-15)
(46.0075 1.40584e-15 1.30146e-15)
(45.5062 1.48124e-15 1.00717e-15)
(44.935 1.42544e-15 6.73409e-16)
(44.3068 1.34644e-15 3.64572e-16)
(43.6314 1.19151e-15 5.2774e-17)
(42.9166 9.76146e-16 -1.74863e-16)
(42.1656 7.64685e-16 -3.32438e-16)
(41.3779 5.72891e-16 -4.51603e-16)
(40.5552 3.76004e-16 -5.07415e-16)
(39.7022 2.0348e-16 -5.41156e-16)
(38.823 7.87375e-17 -5.70839e-16)
(37.9197 -3.14469e-17 -6.03133e-16)
(36.9925 -1.40455e-16 -6.18833e-16)
(36.0402 -2.14711e-16 -6.16457e-16)
(35.0609 -2.38997e-16 -6.10036e-16)
(34.0517 -2.56167e-16 -6.00154e-16)
(33.0094 -3.13068e-16 -5.8446e-16)
(31.9304 -4.08359e-16 -5.66424e-16)
(30.8104 -5.10399e-16 -5.5e-16)
(29.6454 -5.99976e-16 -5.32158e-16)
(28.431 -6.38951e-16 -5.09427e-16)
(27.1634 -6.46769e-16 -4.83458e-16)
(25.8396 -6.47954e-16 -4.56829e-16)
(24.4579 -6.31248e-16 -4.28903e-16)
(23.019 -5.84958e-16 -3.99225e-16)
(21.5263 -5.30351e-16 -3.69189e-16)
(19.9848 -4.87989e-16 -3.39243e-16)
(18.3957 -4.5072e-16 -3.09947e-16)
(16.7679 -4.1829e-16 -2.81393e-16)
(15.1264 -3.80029e-16 -2.53576e-16)
(13.5042 -3.36109e-16 -2.26856e-16)
(11.9358 -2.92054e-16 -2.01658e-16)
(10.4495 -2.51514e-16 -1.78319e-16)
(9.06273 -2.15384e-16 -1.56714e-16)
(7.78262 -1.8442e-16 -1.36526e-16)
(6.60852 -1.57857e-16 -1.17549e-16)
(5.53548 -1.34485e-16 -9.96023e-17)
(4.55661 -1.12984e-16 -8.25996e-17)
(3.6645 -9.28344e-17 -6.65138e-17)
(2.85185 -7.44275e-17 -5.13881e-17)
(2.11179 -5.63148e-17 -3.73632e-17)
(1.43797 -3.9039e-17 -2.46678e-17)
(0.824548 -2.24107e-17 -1.36671e-17)
(0.26619 -7.89113e-18 -4.31931e-18)
(46.9041 1.65598e-16 -1.03515e-16)
(46.7309 7.61559e-16 1.49849e-15)
(46.4228 9.67095e-16 1.71329e-15)
(46.0076 1.08737e-15 1.42565e-15)
(45.5063 1.11266e-15 1.01329e-15)
(44.9351 1.05515e-15 6.55809e-16)
(44.3069 9.5416e-16 3.40385e-16)
(43.6315 8.42432e-16 6.88686e-17)
(42.9167 7.14822e-16 -1.4431e-16)
(42.1657 5.64824e-16 -2.96015e-16)
(41.378 4.14654e-16 -4.01513e-16)
(40.5552 2.69341e-16 -4.65848e-16)
(39.7023 1.48104e-16 -4.99776e-16)
(38.8231 5.32519e-17 -5.17268e-16)
(37.9198 -2.83133e-17 -5.27639e-16)
(36.9926 -9.36925e-17 -5.29779e-16)
(36.0403 -1.64187e-16 -5.26733e-16)
(35.0609 -2.14295e-16 -5.24046e-16)
(34.0518 -2.25646e-16 -5.23813e-16)
(33.0095 -2.49372e-16 -5.24627e-16)
(31.9304 -3.1552e-16 -5.22951e-16)
(30.8105 -3.78127e-16 -5.17619e-16)
(29.6454 -3.79871e-16 -5.06631e-16)
(28.4311 -3.49982e-16 -4.89681e-16)
(27.1635 -3.31157e-16 -4.70821e-16)
(25.8396 -3.13388e-16 -4.49134e-16)
(24.458 -2.86331e-16 -4.25936e-16)
(23.0191 -2.65026e-16 -4.01756e-16)
(21.5264 -2.46662e-16 -3.77886e-16)
(19.9848 -2.29653e-16 -3.52772e-16)
(18.3957 -2.0837e-16 -3.26806e-16)
(16.7679 -1.83402e-16 -2.99899e-16)
(15.1264 -1.553e-16 -2.72578e-16)
(13.5043 -1.3024e-16 -2.45663e-16)
(11.9359 -1.09691e-16 -2.19638e-16)
(10.4495 -9.29003e-17 -1.94697e-16)
(9.06275 -7.78675e-17 -1.7095e-16)
(7.78264 -6.53701e-17 -1.48447e-16)
(6.60854 -5.42695e-17 -1.27176e-16)
(5.5355 -4.36606e-17 -1.07094e-16)
(4.55663 -3.35396e-17 -8.82006e-17)
(3.66451 -2.40377e-17 -7.05241e-17)
(2.85185 -1.62905e-17 -5.41146e-17)
(2.11179 -1.17206e-17 -3.90757e-17)
(1.43797 -9.62334e-18 -2.5623e-17)
(0.82455 -7.37048e-18 -1.4089e-17)
(0.266191 -3.00592e-18 -4.40882e-18)
(46.9042 1.26482e-16 3.83288e-16)
(46.7309 4.67723e-16 1.54719e-15)
(46.4229 5.73294e-16 1.63353e-15)
(46.0077 6.66197e-16 1.33075e-15)
(45.5063 7.21394e-16 9.76647e-16)
(44.9352 7.06937e-16 6.83452e-16)
(44.3069 6.29663e-16 4.23876e-16)
(43.6316 5.33002e-16 1.79481e-16)
(42.9167 4.45882e-16 -3.98609e-17)
(42.1658 3.77299e-16 -2.11068e-16)
(41.3781 3.22592e-16 -3.24083e-16)
(40.5553 2.56505e-16 -3.86278e-16)
(39.7023 1.70987e-16 -4.21126e-16)
(38.8232 8.47379e-17 -4.5311e-16)
(37.9199 5.82962e-18 -4.80964e-16)
(36.9926 -6.84075e-17 -5.02715e-16)
(36.0403 -1.38097e-16 -5.14966e-16)
(35.061 -1.86466e-16 -5.16997e-16)
(34.0518 -2.20329e-16 -5.16508e-16)
(33.0095 -2.59721e-16 -5.173e-16)
(31.9305 -3.05942e-16 -5.16827e-16)
(30.8105 -3.40932e-16 -5.1136e-16)
(29.6455 -3.50818e-16 -5.02493e-16)
(28.4311 -3.4821e-16 -4.88836e-16)
(27.1635 -3.42555e-16 -4.72867e-16)
(25.8397 -3.3833e-16 -4.54385e-16)
(24.458 -3.33011e-16 -4.35196e-16)
(23.0191 -3.18637e-16 -4.16677e-16)
(21.5264 -2.86476e-16 -3.96934e-16)
(19.9848 -2.50966e-16 -3.75503e-16)
(18.3958 -2.20013e-16 -3.52173e-16)
(16.7679 -1.91673e-16 -3.27306e-16)
(15.1264 -1.66034e-16 -3.01639e-16)
(13.5043 -1.42513e-16 -2.75695e-16)
(11.9359 -1.18124e-16 -2.49868e-16)
(10.4495 -9.37146e-17 -2.24322e-16)
(9.06277 -7.30526e-17 -1.9935e-16)
(7.78266 -5.6892e-17 -1.75086e-16)
(6.60855 -4.39885e-17 -1.51602e-16)
(5.53551 -3.38286e-17 -1.28997e-16)
(4.55664 -2.58583e-17 -1.07369e-16)
(3.66452 -1.92724e-17 -8.68036e-17)
(2.85186 -1.37758e-17 -6.74119e-17)
(2.1118 -9.30294e-18 -4.93321e-17)
(1.43797 -6.32046e-18 -3.27323e-17)
(0.824552 -3.90915e-18 -1.79458e-17)
(0.266191 -1.3879e-18 -5.36288e-18)
(46.9042 4.26779e-17 3.3337e-16)
(46.731 1.61341e-16 1.28325e-15)
(46.4229 2.35419e-16 1.42109e-15)
(46.0078 3.7221e-16 1.22396e-15)
(45.5064 5.12601e-16 9.62116e-16)
(44.9352 5.2063e-16 7.27306e-16)
(44.307 3.77296e-16 4.96513e-16)
(43.6316 2.19818e-16 2.91276e-16)
(42.9168 1.41677e-16 1.2119e-16)
(42.1658 1.52302e-16 -1.26163e-17)
(41.3781 2.11192e-16 -1.18446e-16)
(40.5553 2.31026e-16 -1.98011e-16)
(39.7024 1.65381e-16 -2.54183e-16)
(38.8232 7.24117e-17 -2.92766e-16)
(37.9199 8.97073e-18 -3.27724e-16)
(36.9927 -1.55043e-17 -3.56796e-16)
(36.0404 -2.18859e-17 -3.74712e-16)
(35.061 -3.54378e-17 -3.86667e-16)
(34.0518 -6.28927e-17 -3.93663e-16)
(33.0096 -1.03322e-16 -3.97617e-16)
(31.9305 -1.50121e-16 -3.95338e-16)
(30.8106 -1.8316e-16 -3.84698e-16)
(29.6455 -1.54162e-16 -3.69453e-16)
(28.4311 -1.03049e-16 -3.53598e-16)
(27.1636 -8.37904e-17 -3.37759e-16)
(25.8397 -8.4922e-17 -3.21128e-16)
(24.458 -1.13916e-16 -3.03717e-16)
(23.0191 -1.42232e-16 -2.86732e-16)
(21.5265 -1.48977e-16 -2.69669e-16)
(19.9849 -1.47197e-16 -2.52468e-16)
(18.3958 -1.40946e-16 -2.3452e-16)
(16.7679 -1.34676e-16 -2.16091e-16)
(15.1265 -1.26318e-16 -1.9776e-16)
(13.5043 -1.16056e-16 -1.79807e-16)
(11.9359 -1.02288e-16 -1.6244e-16)
(10.4495 -8.95769e-17 -1.45673e-16)
(9.06278 -7.93643e-17 -1.29456e-16)
(7.78267 -6.88818e-17 -1.13762e-16)
(6.60856 -5.75162e-17 -9.85358e-17)
(5.53552 -4.5942e-17 -8.37912e-17)
(4.55664 -3.44851e-17 -6.95738e-17)
(3.66452 -2.40731e-17 -5.59527e-17)
(2.85186 -1.67031e-17 -4.30167e-17)
(2.1118 -1.18018e-17 -3.08789e-17)
(1.43797 -9.2531e-18 -1.97775e-17)
(0.824553 -7.25542e-18 -1.0101e-17)
(0.266192 -2.9787e-18 -2.56169e-18)
(46.9043 -3.02236e-17 1.84448e-16)
(46.731 -9.83166e-18 1.01482e-15)
(46.423 9.31039e-17 1.18736e-15)
(46.0078 2.0877e-16 1.08252e-15)
(45.5064 3.2421e-16 9.13114e-16)
(44.9352 2.96633e-16 7.3121e-16)
(44.307 1.68273e-16 5.24692e-16)
(43.6317 7.86921e-17 3.53013e-16)
(42.9168 4.83764e-17 2.35478e-16)
(42.1658 5.48634e-17 1.62417e-16)
(41.3781 8.80346e-17 1.01954e-16)
(40.5554 1.22021e-16 4.07431e-17)
(39.7024 1.22231e-16 -1.59876e-17)
(38.8232 6.73384e-17 -5.96279e-17)
(37.9199 -8.66111e-18 -9.24395e-17)
(36.9927 -4.57513e-17 -1.1816e-16)
(36.0404 -7.483e-17 -1.42192e-16)
(35.061 -1.07919e-16 -1.63596e-16)
(34.0519 -1.37825e-16 -1.81989e-16)
(33.0096 -1.5837e-16 -1.95814e-16)
(31.9305 -1.47745e-16 -2.04931e-16)
(30.8106 -1.36374e-16 -2.089e-16)
(29.6455 -1.51171e-16 -2.09373e-16)
(28.4312 -1.85894e-16 -2.11157e-16)
(27.1636 -2.1541e-16 -2.11739e-16)
(25.8397 -2.35979e-16 -2.10256e-16)
(24.458 -2.69415e-16 -2.06325e-16)
(23.0191 -3.00556e-16 -1.98995e-16)
(21.5265 -3.05168e-16 -1.90182e-16)
(19.9849 -2.91209e-16 -1.79582e-16)
(18.3958 -2.68166e-16 -1.67637e-16)
(16.768 -2.43175e-16 -1.55197e-16)
(15.1265 -2.18179e-16 -1.42812e-16)
(13.5043 -1.9239e-16 -1.30897e-16)
(11.9359 -1.64375e-16 -1.19752e-16)
(10.4495 -1.37232e-16 -1.09068e-16)
(9.06279 -1.15188e-16 -9.84404e-17)
(7.78268 -9.76287e-17 -8.76687e-17)
(6.60857 -8.16138e-17 -7.67401e-17)
(5.53552 -6.7546e-17 -6.57145e-17)
(4.55665 -5.55276e-17 -5.46888e-17)
(3.66452 -4.54358e-17 -4.37977e-17)
(2.85187 -3.57202e-17 -3.31964e-17)
(2.1118 -2.68373e-17 -2.31034e-17)
(1.43798 -1.83661e-17 -1.38603e-17)
(0.824554 -9.62061e-18 -6.07933e-18)
(0.266192 -2.97462e-18 -8.97225e-19)
(46.9043 -5.88272e-17 8.65859e-17)
(46.731 -1.09193e-16 8.39173e-16)
(46.423 -3.76664e-18 9.79796e-16)
(46.0078 1.5478e-16 8.81586e-16)
(45.5064 2.87579e-16 7.93413e-16)
(44.9353 1.88341e-16 6.27391e-16)
(44.307 -1.85592e-17 4.57624e-16)
(43.6317 -1.02245e-16 3.05812e-16)
(42.9168 -6.48745e-17 1.94457e-16)
(42.1658 -1.15695e-18 1.46784e-16)
(41.3781 3.62048e-17 1.2336e-16)
(40.5554 3.55072e-17 9.43151e-17)
(39.7024 -4.07029e-18 6.32208e-17)
(38.8232 -4.90553e-17 3.5036e-17)
(37.9199 -8.36752e-17 1.98611e-17)
(36.9927 -1.11639e-16 1.1593e-17)
(36.0404 -1.38444e-16 -3.13856e-19)
(35.061 -1.66694e-16 -1.00547e-17)
(34.0519 -1.9615e-16 -2.27525e-17)
(33.0096 -2.25303e-16 -3.67615e-17)
(31.9305 -2.49817e-16 -5.33306e-17)
(30.8106 -2.64109e-16 -7.10689e-17)
(29.6455 -2.6201e-16 -8.81622e-17)
(28.4312 -2.47655e-16 -1.0257e-16)
(27.1636 -2.29717e-16 -1.14089e-16)
(25.8397 -2.12771e-16 -1.22609e-16)
(24.458 -2.03102e-16 -1.27626e-16)
(23.0192 -2.01448e-16 -1.2814e-16)
(21.5265 -1.92447e-16 -1.25905e-16)
(19.9849 -1.77165e-16 -1.22087e-16)
(18.3958 -1.6607e-16 -1.16703e-16)
(16.768 -1.5961e-16 -1.10353e-16)
(15.1265 -1.5283e-16 -1.03574e-16)
(13.5043 -1.5186e-16 -9.6827e-17)
(11.9359 -1.50246e-16 -9.01249e-17)
(10.4495 -1.41241e-16 -8.33092e-17)
(9.06279 -1.28953e-16 -7.61332e-17)
(7.78268 -1.15223e-16 -6.84015e-17)
(6.60857 -1.00919e-16 -6.01241e-17)
(5.53552 -8.53764e-17 -5.14577e-17)
(4.55665 -6.93139e-17 -4.25421e-17)
(3.66453 -5.40795e-17 -3.35476e-17)
(2.85187 -4.1587e-17 -2.46603e-17)
(2.1118 -3.11284e-17 -1.61609e-17)
(1.43798 -2.22512e-17 -8.48175e-18)
(0.824554 -1.39912e-17 -2.43758e-18)
(0.266192 -5.13031e-18 5.55494e-19)
(46.9043 -5.7152e-17 -7.78228e-18)
(46.731 -1.45486e-16 6.63399e-16)
(46.423 -9.79162e-17 8.89631e-16)
(46.0078 1.06523e-16 9.11936e-16)
(45.5064 1.90718e-16 8.35045e-16)
(44.9352 1.54232e-17 5.76441e-16)
(44.307 -1.65091e-16 4.25136e-16)
(43.6317 -2.29551e-16 3.38261e-16)
(42.9168 -1.23885e-16 2.73938e-16)
(42.1658 2.38252e-18 2.19212e-16)
(41.3781 2.9061e-17 1.68155e-16)
(40.5554 1.81935e-17 1.20682e-16)
(39.7024 1.56803e-17 8.71735e-17)
(38.8232 1.37826e-17 7.24197e-17)
(37.9199 1.13361e-18 6.79697e-17)
(36.9927 -3.89852e-17 5.96648e-17)
(36.0404 -9.23253e-17 3.85283e-17)
(35.061 -1.5499e-16 1.52513e-17)
(34.0519 -2.3801e-16 -1.8517e-19)
(33.0096 -3.13901e-16 -1.15623e-17)
(31.9305 -3.6085e-16 -2.18284e-17)
(30.8106 -3.82571e-16 -3.11187e-17)
(29.6455 -3.99981e-16 -3.85764e-17)
(28.4312 -4.17676e-16 -4.51744e-17)
(27.1636 -4.2381e-16 -5.15613e-17)
(25.8397 -4.15841e-16 -5.76438e-17)
(24.458 -4.01668e-16 -6.24524e-17)
(23.0191 -3.92864e-16 -6.46282e-17)
(21.5265 -3.92457e-16 -6.46593e-17)
(19.9849 -3.79425e-16 -6.37332e-17)
(18.3958 -3.49118e-16 -6.22937e-17)
(16.768 -3.10882e-16 -6.06969e-17)
(15.1265 -2.7096e-16 -5.93952e-17)
(13.5043 -2.32902e-16 -5.85448e-17)
(11.9359 -1.95674e-16 -5.75591e-17)
(10.4495 -1.61979e-16 -5.60811e-17)
(9.06279 -1.33469e-16 -5.36579e-17)
(7.78268 -1.10238e-16 -5.01083e-17)
(6.60857 -9.26733e-17 -4.53761e-17)
(5.53552 -7.9353e-17 -3.95909e-17)
(4.55665 -6.84438e-17 -3.29697e-17)
(3.66452 -5.87333e-17 -2.57966e-17)
(2.85187 -4.83969e-17 -1.83999e-17)
(2.1118 -3.69205e-17 -1.11763e-17)
(1.43798 -2.40133e-17 -4.75686e-18)
(0.824554 -1.12357e-17 -1.26077e-19)
(0.266192 -3.12849e-18 1.31596e-18)
(46.9043 -2.27132e-17 -4.97467e-17)
(46.731 -1.63856e-17 5.4965e-16)
(46.423 8.87889e-17 7.79061e-16)
(46.0078 1.68784e-16 8.40568e-16)
(45.5064 -3.43164e-17 6.95669e-16)
(44.9352 -2.46055e-16 5.12973e-16)
(44.307 -2.56232e-16 4.13059e-16)
(43.6317 -2.63902e-16 3.64571e-16)
(42.9168 -2.27825e-16 3.23801e-16)
(42.1658 -1.8287e-16 2.54318e-16)
(41.3781 -1.57448e-16 1.89435e-16)
(40.5553 -1.2244e-16 1.24529e-16)
(39.7024 -6.86613e-17 7.78978e-17)
(38.8232 -2.52494e-17 4.20932e-17)
(37.9199 -4.40861e-17 1.16872e-17)
(36.9927 -1.4509e-16 -2.42762e-17)
(36.0404 -2.33752e-16 -7.3909e-17)
(35.061 -2.40076e-16 -1.08608e-16)
(34.0518 -2.26552e-16 -1.27165e-16)
(33.0096 -2.47238e-16 -1.34305e-16)
(31.9305 -2.79985e-16 -1.35004e-16)
(30.8106 -2.97646e-16 -1.34364e-16)
(29.6455 -3.00978e-16 -1.31763e-16)
(28.4311 -3.02652e-16 -1.27224e-16)
(27.1636 -3.04102e-16 -1.2089e-16)
(25.8397 -2.93885e-16 -1.13906e-16)
(24.458 -2.63338e-16 -1.06165e-16)
(23.0191 -2.34422e-16 -9.8111e-17)
(21.5265 -2.20399e-16 -8.95547e-17)
(19.9849 -2.1347e-16 -8.03611e-17)
(18.3958 -2.07428e-16 -7.15351e-17)
(16.7679 -1.97899e-16 -6.38485e-17)
(15.1265 -1.85457e-16 -5.79388e-17)
(13.5043 -1.71832e-16 -5.3792e-17)
(11.9359 -1.56331e-16 -5.09423e-17)
(10.4495 -1.37944e-16 -4.86551e-17)
(9.06278 -1.20821e-16 -4.61311e-17)
(7.78267 -1.05892e-16 -4.28694e-17)
(6.60856 -9.18105e-17 -3.86016e-17)
(5.53552 -7.78964e-17 -3.33183e-17)
(4.55664 -6.45776e-17 -2.72213e-17)
(3.66452 -5.29933e-17 -2.05801e-17)
(2.85186 -4.21715e-17 -1.37657e-17)
(2.1118 -3.19377e-17 -7.28146e-18)
(1.43797 -2.2052e-17 -1.80062e-18)
(0.824553 -1.22736e-17 1.61401e-18)
(0.266192 -4.17633e-18 1.79969e-18)
(46.9042 2.43322e-17 -7.63298e-17)
(46.731 4.6681e-17 4.4698e-16)
(46.4229 8.35735e-17 5.53575e-16)
(46.0078 5.06318e-17 5.16338e-16)
(45.5064 -1.37157e-16 4.08323e-16)
(44.9352 -2.70369e-16 3.86245e-16)
(44.307 -2.92165e-16 3.30551e-16)
(43.6316 -3.10051e-16 2.77929e-16)
(42.9168 -2.96443e-16 2.26523e-16)
(42.1658 -2.414e-16 1.90512e-16)
(41.3781 -2.16391e-16 1.57352e-16)
(40.5553 -1.82011e-16 1.35445e-16)
(39.7023 -1.06981e-16 9.33732e-17)
(38.8232 -6.21062e-17 4.08871e-17)
(37.9199 -8.28589e-17 -1.11151e-17)
(36.9926 -2.03644e-16 -4.89509e-17)
(36.0403 -2.44731e-16 -6.39704e-17)
(35.061 -1.71151e-16 -6.34392e-17)
(34.0518 -1.27265e-16 -6.08371e-17)
(33.0095 -1.25071e-16 -6.02628e-17)
(31.9305 -1.51511e-16 -5.87641e-17)
(30.8105 -1.79379e-16 -5.51046e-17)
(29.6455 -1.98664e-16 -5.08113e-17)
(28.4311 -2.14629e-16 -4.54149e-17)
(27.1635 -2.23046e-16 -3.85001e-17)
(25.8397 -2.17787e-16 -3.01425e-17)
(24.458 -2.02969e-16 -2.18233e-17)
(23.0191 -1.90987e-16 -1.56513e-17)
(21.5264 -1.82081e-16 -9.92393e-18)
(19.9848 -1.71577e-16 -4.31958e-18)
(18.3958 -1.59054e-16 8.3045e-19)
(16.7679 -1.45436e-16 5.16247e-18)
(15.1264 -1.32054e-16 7.67193e-18)
(13.5043 -1.17047e-16 8.23907e-18)
(11.9359 -1.01035e-16 7.12575e-18)
(10.4495 -8.38017e-17 5.05688e-18)
(9.06277 -6.67436e-17 2.79728e-18)
(7.78266 -5.14075e-17 1.05832e-18)
(6.60855 -3.79793e-17 2.01333e-19)
(5.53551 -2.82753e-17 3.14209e-19)
(4.55664 -2.19346e-17 1.28757e-18)
(3.66452 -1.70046e-17 2.93918e-18)
(2.85186 -1.30857e-17 4.9637e-18)
(2.1118 -8.46426e-18 6.88869e-18)
(1.43797 -3.2899e-18 8.00251e-18)
(0.824552 4.59475e-19 7.24864e-18)
(0.266191 8.02724e-19 3.57981e-18)
(46.9042 4.92954e-17 -2.4709e-16)
(46.7309 6.25557e-17 2.06452e-16)
(46.4229 5.8201e-17 2.40674e-16)
(46.0077 6.5859e-17 1.25424e-16)
(45.5063 -6.44812e-17 1.40883e-16)
(44.9351 -2.36764e-16 2.01783e-16)
(44.3069 -3.21037e-16 2.0386e-16)
(43.6316 -3.52721e-16 1.92596e-16)
(42.9167 -3.0873e-16 1.68842e-16)
(42.1657 -2.47275e-16 1.39751e-16)
(41.378 -2.04852e-16 1.01017e-16)
(40.5553 -2.13145e-16 7.32448e-17)
(39.7023 -2.46953e-16 3.33181e-17)
(38.8231 -2.32012e-16 -7.04618e-18)
(37.9198 -1.98333e-16 -4.35313e-17)
(36.9926 -1.62423e-16 -6.34567e-17)
(36.0403 -1.0989e-16 -5.47783e-17)
(35.0609 -5.83873e-17 -4.64547e-17)
(34.0518 -6.49625e-17 -3.93835e-17)
(33.0095 -1.06784e-16 -2.63617e-17)
(31.9304 -1.38982e-16 -9.87518e-18)
(30.8105 -1.57119e-16 7.21351e-18)
(29.6454 -1.64979e-16 2.14477e-17)
(28.4311 -1.61995e-16 3.33466e-17)
(27.1635 -1.51841e-16 4.18337e-17)
(25.8396 -1.41268e-16 4.68086e-17)
(24.458 -1.42261e-16 4.89492e-17)
(23.0191 -1.36362e-16 4.9225e-17)
(21.5264 -1.16516e-16 4.88425e-17)
(19.9848 -9.43182e-17 4.77979e-17)
(18.3957 -6.66884e-17 4.59791e-17)
(16.7679 -4.11888e-17 4.25133e-17)
(15.1264 -2.46234e-17 3.72926e-17)
(13.5043 -1.5137e-17 3.05611e-17)
(11.9359 -1.1539e-17 2.30783e-17)
(10.4495 -9.40148e-18 1.58132e-17)
(9.06275 -8.67968e-18 9.50451e-18)
(7.78264 -8.18415e-18 4.69007e-18)
(6.60854 -8.68797e-18 1.54779e-18)
(5.5355 -1.08643e-17 7.06701e-20)
(4.55663 -1.21519e-17 5.48607e-20)
(3.66451 -1.17041e-17 1.15214e-18)
(2.85185 -9.1585e-18 2.89324e-18)
(2.11179 -5.71427e-18 4.69386e-18)
(1.43797 -2.43695e-18 5.81225e-18)
(0.82455 -1.25195e-19 5.29055e-18)
(0.266191 2.69662e-19 2.51258e-18)
(46.9041 5.85329e-17 -4.76821e-16)
(46.7309 3.01802e-17 -9.06474e-17)
(46.4228 -6.88201e-17 -1.31577e-17)
(46.0076 7.9177e-17 -6.76159e-17)
(45.5063 1.57404e-16 -9.35347e-17)
(44.9351 -1.34621e-17 -3.35824e-18)
(44.3069 -1.6279e-16 6.19929e-17)
(43.6315 -2.47057e-16 8.7994e-17)
(42.9166 -2.88922e-16 9.42351e-17)
(42.1657 -2.91398e-16 6.4166e-17)
(41.378 -2.82005e-16 1.61525e-17)
(40.5552 -2.70307e-16 -5.2793e-17)
(39.7022 -2.37596e-16 -9.81771e-17)
(38.8231 -1.89349e-16 -1.09085e-16)
(37.9198 -1.44188e-16 -1.09385e-16)
(36.9925 -9.70477e-17 -1.11438e-16)
(36.0402 -3.878e-17 -1.16157e-16)
(35.0609 2.62054e-17 -1.27373e-16)
(34.0517 9.70953e-17 -1.42825e-16)
(33.0095 1.51235e-16 -1.54406e-16)
(31.9304 1.55611e-16 -1.60198e-16)
(30.8104 1.22415e-16 -1.59027e-16)
(29.6454 8.52054e-17 -1.52612e-16)
(28.431 4.47962e-17 -1.45647e-16)
(27.1634 3.92207e-19 -1.39135e-16)
(25.8396 -2.955e-17 -1.32942e-16)
(24.4579 -3.9622e-17 -1.26761e-16)
(23.019 -3.59814e-17 -1.19384e-16)
(21.5264 -2.99782e-17 -1.10566e-16)
(19.9848 -2.70196e-17 -1.01199e-16)
(18.3957 -3.25804e-17 -9.18963e-17)
(16.7679 -4.28222e-17 -8.36764e-17)
(15.1264 -4.85362e-17 -7.63434e-17)
(13.5042 -4.85702e-17 -6.9979e-17)
(11.9358 -4.05589e-17 -6.44947e-17)
(10.4495 -2.94087e-17 -5.95574e-17)
(9.06273 -1.88732e-17 -5.46795e-17)
(7.78262 -1.17372e-17 -4.94541e-17)
(6.60852 -6.39401e-18 -4.37521e-17)
(5.53548 -2.98273e-18 -3.75519e-17)
(4.55662 -8.07783e-19 -3.09168e-17)
(3.6645 3.75862e-19 -2.40506e-17)
(2.85185 5.42064e-19 -1.72521e-17)
(2.11179 7.42551e-19 -1.09171e-17)
(1.43797 9.52237e-19 -5.58171e-18)
(0.824548 7.25743e-19 -1.94017e-18)
(0.26619 2.17111e-19 -1.93484e-19)
(46.904 3.74331e-17 -6.36457e-16)
(46.7308 6.25166e-17 -2.86888e-16)
(46.4227 5.24364e-17 -8.71692e-17)
(46.0076 1.43583e-16 2.45452e-17)
(45.5062 2.70086e-16 1.09038e-17)
(44.935 2.1534e-16 5.77016e-17)
(44.3068 1.52e-17 1.15456e-16)
(43.6314 -1.39167e-16 1.26174e-16)
(42.9166 -2.31318e-16 1.24681e-16)
(42.1656 -3.04987e-16 1.30389e-16)
(41.3779 -3.68685e-16 1.2392e-16)
(40.5551 -3.72789e-16 8.83132e-17)
(39.7022 -2.58977e-16 4.59156e-17)
(38.823 -1.35869e-16 1.10462e-17)
(37.9197 -9.68721e-17 -1.23049e-17)
(36.9925 -9.17493e-17 -2.4365e-17)
(36.0402 -8.61115e-17 -2.77756e-17)
(35.0608 -8.20556e-17 -2.70756e-17)
(34.0516 -7.94696e-17 -2.51531e-17)
(33.0094 -6.16377e-17 -2.21925e-17)
(31.9303 -1.17251e-17 -1.65302e-17)
(30.8104 4.88828e-17 -8.64056e-18)
(29.6453 7.43023e-17 1.17254e-18)
(28.431 7.00381e-17 1.34656e-17)
(27.1634 6.65941e-17 3.0131e-17)
(25.8395 7.00985e-17 4.97439e-17)
(24.4578 7.91849e-17 6.96069e-17)
(23.019 1.09983e-16 8.74418e-17)
(21.5263 1.4563e-16 1.02077e-16)
(19.9847 1.66979e-16 1.13197e-16)
(18.3957 1.75894e-16 1.20457e-16)
(16.7678 1.8115e-16 1.24342e-16)
(15.1263 1.86283e-16 1.24653e-16)
(13.5042 1.81734e-16 1.21554e-16)
(11.9358 1.66728e-16 1.155e-16)
(10.4494 1.49076e-16 1.07223e-16)
(9.0627 1.323e-16 9.76162e-17)
(7.7826 1.14242e-16 8.74323e-17)
(6.6085 9.34546e-17 7.72546e-17)
(5.53547 7.25848e-17 6.7394e-17)
(4.5566 5.38932e-17 5.80081e-17)
(3.66449 3.79568e-17 4.90829e-17)
(2.85184 2.58623e-17 4.05107e-17)
(2.11178 1.66331e-17 3.20887e-17)
(1.43796 9.68801e-18 2.35104e-17)
(0.824546 4.61285e-18 1.44166e-17)
(0.266189 1.48552e-18 4.89787e-18)
(46.9039 2.60331e-17 -6.45903e-16)
(46.7307 1.45917e-16 -2.94203e-16)
(46.4227 2.53167e-16 -6.11425e-17)
(46.0075 3.44267e-16 5.28928e-17)
(45.5061 4.20496e-16 9.27122e-17)
(44.9349 3.4311e-16 6.14039e-17)
(44.3067 1.02385e-16 6.48463e-17)
(43.6313 -1.18944e-16 7.51531e-17)
(42.9165 -2.10399e-16 6.36863e-17)
(42.1655 -2.64759e-16 5.35325e-17)
(41.3778 -3.82765e-16 2.95011e-17)
(40.555 -4.84199e-16 1.18748e-17)
(39.7021 -4.78558e-16 -7.06873e-18)
(38.8229 -4.10643e-16 -5.13813e-17)
(37.9196 -3.31932e-16 -9.198e-17)
(36.9924 -2.56341e-16 -1.13886e-16)
(36.0401 -1.88559e-16 -1.19798e-16)
(35.0607 -1.38349e-16 -1.22955e-16)
(34.0516 -8.77215e-17 -1.21571e-16)
(33.0093 -3.53684e-17 -1.10417e-16)
(31.9302 -1.64576e-17 -9.3066e-17)
(30.8103 -2.32787e-17 -7.75896e-17)
(29.6453 -1.81768e-17 -6.56362e-17)
(28.4309 1.5279e-17 -5.35374e-17)
(27.1633 5.88293e-17 -3.94078e-17)
(25.8395 8.67741e-17 -2.43056e-17)
(24.4578 9.438e-17 -8.94397e-18)
(23.0189 8.95596e-17 5.77724e-18)
(21.5262 8.29034e-17 1.79343e-17)
(19.9847 7.41723e-17 2.78664e-17)
(18.3956 6.83591e-17 3.52675e-17)
(16.7678 6.61235e-17 4.03324e-17)
(15.1263 6.39052e-17 4.27201e-17)
(13.5041 6.12654e-17 4.27179e-17)
(11.9357 6.02595e-17 4.09018e-17)
(10.4494 6.01817e-17 3.78157e-17)
(9.06267 5.91228e-17 3.39324e-17)
(7.78257 5.71936e-17 2.96571e-17)
(6.60848 5.43357e-17 2.54342e-17)
(5.53545 4.96848e-17 2.14954e-17)
(4.55659 4.33205e-17 1.79093e-17)
(3.66448 3.56223e-17 1.46313e-17)
(2.85183 2.78283e-17 1.1571e-17)
(2.11177 2.07033e-17 8.60136e-18)
(1.43796 1.43102e-17 5.67247e-18)
(0.824543 8.13599e-18 2.88154e-18)
(0.266188 2.68595e-18 6.57144e-19)
(46.9038 1.00004e-17 -4.86348e-16)
(46.7306 2.1437e-16 -1.03109e-16)
(46.4225 4.03413e-16 6.02974e-17)
(46.0074 4.65883e-16 1.43844e-16)
(45.506 4.6093e-16 1.47453e-16)
(44.9348 3.55296e-16 4.49545e-17)
(44.3066 1.74268e-16 -2.67875e-17)
(43.6312 -5.79227e-17 -5.95771e-17)
(42.9164 -2.35232e-16 -7.05113e-17)
(42.1654 -3.83364e-16 -1.05917e-16)
(41.3777 -5.04464e-16 -1.2259e-16)
(40.5549 -5.42346e-16 -1.26964e-16)
(39.702 -5.51167e-16 -1.15107e-16)
(38.8228 -5.27684e-16 -1.21103e-16)
(37.9195 -4.53017e-16 -1.36191e-16)
(36.9923 -3.64896e-16 -1.56388e-16)
(36.04 -3.27831e-16 -1.76015e-16)
(35.0606 -3.2649e-16 -1.93778e-16)
(34.0515 -2.84571e-16 -2.106e-16)
(33.0092 -2.08164e-16 -2.26577e-16)
(31.9302 -1.50936e-16 -2.41737e-16)
(30.8102 -1.25047e-16 -2.55217e-16)
(29.6452 -9.93052e-17 -2.64726e-16)
(28.4308 -5.28628e-17 -2.70116e-16)
(27.1632 6.06155e-18 -2.73542e-16)
(25.8394 6.02833e-17 -2.75174e-16)
(24.4577 1.06492e-16 -2.75034e-16)
(23.0188 1.44489e-16 -2.71937e-16)
(21.5262 1.7361e-16 -2.6568e-16)
(19.9846 1.86543e-16 -2.56016e-16)
(18.3955 1.83456e-16 -2.43174e-16)
(16.7677 1.69499e-16 -2.2742e-16)
(15.1262 1.4807e-16 -2.092e-16)
(13.5041 1.21903e-16 -1.89061e-16)
(11.9357 9.15627e-17 -1.67849e-16)
(10.4494 5.97509e-17 -1.46548e-16)
(9.06263 3.15519e-17 -1.25992e-16)
(7.78254 9.66769e-18 -1.06702e-16)
(6.60845 -5.84125e-18 -8.90105e-17)
(5.53542 -1.65288e-17 -7.30644e-17)
(4.55657 -2.26504e-17 -5.88323e-17)
(3.66446 -2.50798e-17 -4.62367e-17)
(2.85182 -2.42409e-17 -3.51767e-17)
(2.11176 -2.12982e-17 -2.55032e-17)
(1.43795 -1.68739e-17 -1.70971e-17)
(0.824539 -1.08553e-17 -9.73234e-18)
(0.266187 -3.99372e-18 -3.16059e-18)
(46.9037 7.4179e-18 -3.13519e-16)
(46.7305 2.25778e-16 4.70935e-17)
(46.4224 4.77576e-16 1.60017e-16)
(46.0072 5.60599e-16 1.96005e-16)
(45.5059 4.40057e-16 1.64474e-16)
(44.9347 2.61421e-16 9.9899e-17)
(44.3065 9.3863e-17 4.05095e-17)
(43.6311 -6.07796e-17 -6.63662e-17)
(42.9163 -1.98915e-16 -1.37575e-16)
(42.1653 -3.00278e-16 -1.82873e-16)
(41.3776 -3.96123e-16 -2.07619e-16)
(40.5548 -4.65157e-16 -2.3682e-16)
(39.7019 -5.09367e-16 -2.63543e-16)
(38.8227 -5.53437e-16 -2.72685e-16)
(37.9194 -5.57324e-16 -2.82928e-16)
(36.9922 -5.3078e-16 -3.04843e-16)
(36.0399 -4.87096e-16 -3.25002e-16)
(35.0605 -4.52756e-16 -3.2819e-16)
(34.0514 -4.11311e-16 -3.25775e-16)
(33.0091 -3.65302e-16 -3.30239e-16)
(31.9301 -3.48408e-16 -3.42191e-16)
(30.8101 -3.38973e-16 -3.55643e-16)
(29.6451 -3.09766e-16 -3.67863e-16)
(28.4307 -2.71031e-16 -3.77554e-16)
(27.1631 -2.45546e-16 -3.85402e-16)
(25.8393 -2.34122e-16 -3.90016e-16)
(24.4576 -2.26892e-16 -3.90896e-16)
(23.0187 -2.13998e-16 -3.87763e-16)
(21.5261 -1.91346e-16 -3.8125e-16)
(19.9845 -1.63823e-16 -3.71343e-16)
(18.3955 -1.31127e-16 -3.57386e-16)
(16.7676 -9.22397e-17 -3.39094e-16)
(15.1262 -4.75142e-17 -3.17033e-16)
(13.504 1.59542e-18 -2.92043e-16)
(11.9356 4.84622e-17 -2.65152e-16)
(10.4493 8.97734e-17 -2.37386e-16)
(9.06259 1.22516e-16 -2.09801e-16)
(7.7825 1.45841e-16 -1.8314e-16)
(6.60842 1.58148e-16 -1.5797e-16)
(5.5354 1.61625e-16 -1.34517e-16)
(4.55655 1.57021e-16 -1.12868e-16)
(3.66444 1.44397e-16 -9.29064e-17)
(2.8518 1.25978e-16 -7.44257e-17)
(2.11175 1.01297e-16 -5.71153e-17)
(1.43794 7.20113e-17 -4.04537e-17)
(0.824536 4.13513e-17 -2.37907e-17)
(0.266186 1.42905e-17 -7.55278e-18)
(46.9036 -4.73166e-17 -2.93741e-16)
(46.7303 1.84373e-16 1.06378e-16)
(46.4223 5.01602e-16 2.26078e-16)
(46.0071 5.71411e-16 1.77803e-16)
(45.5057 4.82083e-16 7.33696e-17)
(44.9346 3.34596e-16 1.16534e-18)
(44.3063 6.09421e-17 -7.66421e-17)
(43.631 -1.98263e-16 -1.52966e-16)
(42.9161 -2.84853e-16 -2.16966e-16)
(42.1652 -3.57534e-16 -2.55516e-16)
(41.3775 -4.62137e-16 -3.02208e-16)
(40.5547 -5.12566e-16 -3.30258e-16)
(39.7018 -4.72522e-16 -3.37863e-16)
(38.8226 -4.18245e-16 -3.36994e-16)
(37.9193 -4.02069e-16 -3.46621e-16)
(36.9921 -3.64857e-16 -3.64808e-16)
(36.0398 -2.77235e-16 -3.92317e-16)
(35.0604 -2.20008e-16 -4.23613e-16)
(34.0513 -2.32402e-16 -4.53934e-16)
(33.009 -2.77417e-16 -4.85646e-16)
(31.93 -3.23946e-16 -5.16732e-16)
(30.81 -3.61866e-16 -5.43229e-16)
(29.645 -3.86577e-16 -5.6593e-16)
(28.4306 -3.92613e-16 -5.85818e-16)
(27.163 -3.80781e-16 -6.01788e-16)
(25.8392 -3.59196e-16 -6.12288e-16)
(24.4575 -3.35271e-16 -6.15372e-16)
(23.0186 -3.19578e-16 -6.10749e-16)
(21.526 -3.15232e-16 -5.98162e-16)
(19.9844 -3.118e-16 -5.771e-16)
(18.3954 -3.03549e-16 -5.48202e-16)
(16.7675 -2.94923e-16 -5.12941e-16)
(15.1261 -2.89633e-16 -4.72769e-16)
(13.504 -2.83835e-16 -4.29491e-16)
(11.9356 -2.74798e-16 -3.84916e-16)
(10.4493 -2.64872e-16 -3.40563e-16)
(9.06254 -2.51683e-16 -2.97617e-16)