/*--------------------------------*- C++ -*----------------------------------*\
  =========                 |
  \\      /  F ield         | OpenFOAM: The Open Source CFD Toolbox
   \\    /   O peration     | Website:  https://openfoam.org
    \\  /    A nd           | Version:  7
     \\/     M anipulation  |
\*---------------------------------------------------------------------------*/
FoamFile
{
    version     2.0;
    format      ascii;
    class       volScalarField;
    location    "5125";
    object      V;
}
// * * * * * * * * * * * * * * * * * * * * * * * * * * * * * * * * * * * * * //

dimensions      [0 3 0 0 0 0 0];

internalField   nonuniform List<scalar> 
22090
(
8.66274e-12
7.87521e-12
7.15929e-12
6.50844e-12
5.91676e-12
5.37888e-12
4.88989e-12
4.44535e-12
4.04123e-12
3.67385e-12
3.33986e-12
3.03624e-12
2.76021e-12
2.50929e-12
2.28117e-12
2.07379e-12
1.88526e-12
1.71388e-12
1.55807e-12
1.41643e-12
1.28766e-12
1.1706e-12
1.06418e-12
9.67438e-13
8.79489e-13
7.99536e-13
7.26851e-13
6.60773e-13
6.00703e-13
5.46094e-13
4.96449e-13
4.51317e-13
4.10288e-13
3.72989e-13
3.39081e-13
3.08256e-13
2.80232e-13
2.54757e-13
2.31597e-13
2.10543e-13
1.91403e-13
1.74002e-13
1.58184e-13
1.43804e-13
1.3073e-13
1.18846e-13
1.08042e-13
8.58213e-12
7.80194e-12
7.09267e-12
6.44788e-12
5.86171e-12
5.32883e-12
4.84439e-12
4.40399e-12
4.00363e-12
3.63966e-12
3.30878e-12
3.00799e-12
2.73453e-12
2.48594e-12
2.25994e-12
2.05449e-12
1.86772e-12
1.69793e-12
1.54357e-12
1.40325e-12
1.27568e-12
1.15971e-12
1.05428e-12
9.58437e-13
8.71306e-13
7.92096e-13
7.20088e-13
6.54625e-13
5.95114e-13
5.41013e-13
4.9183e-13
4.47118e-13
4.06471e-13
3.69519e-13
3.35926e-13
3.05387e-13
2.77625e-13
2.52386e-13
2.29442e-13
2.08584e-13
1.89622e-13
1.72383e-13
1.56712e-13
1.42466e-13
1.29514e-13
1.1774e-13
1.07036e-13
8.50228e-12
7.72935e-12
7.02668e-12
6.38789e-12
5.80717e-12
5.27925e-12
4.79932e-12
4.36301e-12
3.96638e-12
3.6058e-12
3.278e-12
2.98e-12
2.70909e-12
2.46281e-12
2.23892e-12
2.03538e-12
1.85034e-12
1.68213e-12
1.52921e-12
1.39019e-12
1.26381e-12
1.14892e-12
1.04447e-12
9.49519e-13
8.63199e-13
7.84726e-13
7.13388e-13
6.48534e-13
5.89577e-13
5.35979e-13
4.87253e-13
4.42958e-13
4.02689e-13
3.66081e-13
3.32801e-13
3.02546e-13
2.75042e-13
2.50038e-13
2.27307e-13
2.06643e-13
1.87857e-13
1.70779e-13
1.55254e-13
1.4114e-13
1.28309e-13
1.16645e-13
1.06041e-13
8.42317e-12
7.65743e-12
6.9613e-12
6.32845e-12
5.75314e-12
5.23013e-12
4.75466e-12
4.32242e-12
3.92947e-12
3.57225e-12
3.2475e-12
2.95227e-12
2.68388e-12
2.43989e-12
2.21808e-12
2.01644e-12
1.83313e-12
1.66648e-12
1.51498e-12
1.37726e-12
1.25205e-12
1.13823e-12
1.03475e-12
9.40684e-13
8.55167e-13
7.77425e-13
7.0675e-13
6.425e-13
5.84091e-13
5.30992e-13
4.8272e-13
4.38836e-13
3.98942e-13
3.62674e-13
3.29704e-13
2.99731e-13
2.72483e-13
2.47712e-13
2.25192e-13
2.0472e-13
1.86109e-13
1.6919e-13
1.53809e-13
1.39827e-13
1.27115e-13
1.15559e-13
1.05054e-13
8.3448e-12
7.58618e-12
6.89653e-12
6.26957e-12
5.69961e-12
5.18146e-12
4.71042e-12
4.2822e-12
3.89291e-12
3.53901e-12
3.21728e-12
2.9248e-12
2.65891e-12
2.41719e-12
2.19745e-12
1.99768e-12
1.81607e-12
1.65097e-12
1.50088e-12
1.36444e-12
1.2404e-12
1.12764e-12
1.02512e-12
9.31931e-13
8.4721e-13
7.70191e-13
7.00174e-13
6.36522e-13
5.78656e-13
5.26051e-13
4.78228e-13
4.34753e-13
3.9523e-13
3.593e-13
3.26636e-13
2.96942e-13
2.69947e-13
2.45407e-13
2.23097e-13
2.02815e-13
1.84378e-13
1.67616e-13
1.52378e-13
1.38526e-13
1.25932e-13
1.14484e-13
1.04076e-13
8.26715e-12
7.51559e-12
6.83236e-12
6.21123e-12
5.64658e-12
5.13325e-12
4.66659e-12
4.24236e-12
3.85669e-12
3.50608e-12
3.18734e-12
2.89759e-12
2.63417e-12
2.3947e-12
2.177e-12
1.97909e-12
1.79917e-12
1.63561e-12
1.48692e-12
1.35175e-12
1.22886e-12
1.11714e-12
1.01559e-12
9.2326e-13
8.39327e-13
7.63025e-13
6.93659e-13
6.30599e-13
5.73272e-13
5.21156e-13
4.73778e-13
4.30708e-13
3.91552e-13
3.55957e-13
3.23597e-13
2.94179e-13
2.67436e-13
2.43123e-13
2.21021e-13
2.00928e-13
1.82662e-13
1.66056e-13
1.5096e-13
1.37237e-13
1.24761e-13
1.13419e-13
1.03108e-13
8.19023e-12
7.44566e-12
6.76878e-12
6.15344e-12
5.59404e-12
5.08549e-12
4.62317e-12
4.20288e-12
3.8208e-12
3.47346e-12
3.15769e-12
2.87063e-12
2.60966e-12
2.37242e-12
2.15674e-12
1.96068e-12
1.78243e-12
1.62039e-12
1.47308e-12
1.33917e-12
1.21743e-12
1.10675e-12
1.00614e-12
9.1467e-13
8.31518e-13
7.55925e-13
6.87205e-13
6.24732e-13
5.67938e-13
5.16307e-13
4.6937e-13
4.267e-13
3.87909e-13
3.52645e-13
3.20586e-13
2.91442e-13
2.64947e-13
2.40861e-13
2.18965e-13
1.99059e-13
1.80963e-13
1.64511e-13
1.49556e-13
1.3596e-13
1.236e-13
1.12363e-13
1.02149e-13
8.11402e-12
7.37638e-12
6.7058e-12
6.09619e-12
5.54199e-12
5.03817e-12
4.58015e-12
4.16378e-12
3.78525e-12
3.44114e-12
3.12831e-12
2.84392e-12
2.58538e-12
2.35034e-12
2.13668e-12
1.94243e-12
1.76585e-12
1.60532e-12
1.45938e-12
1.32671e-12
1.2061e-12
1.09645e-12
9.96775e-13
9.06159e-13
8.23781e-13
7.48892e-13
6.80811e-13
6.18919e-13
5.62653e-13
5.11503e-13
4.65003e-13
4.2273e-13
3.843e-13
3.49364e-13
3.17603e-13
2.8873e-13
2.62482e-13
2.3862e-13
2.16927e-13
1.97207e-13
1.79279e-13
1.62981e-13
1.48164e-13
1.34695e-13
1.2245e-13
1.11318e-13
1.01198e-13
8.03852e-12
7.30775e-12
6.64341e-12
6.03946e-12
5.49042e-12
4.99129e-12
4.53754e-12
4.12503e-12
3.75003e-12
3.40912e-12
3.0992e-12
2.81745e-12
2.56132e-12
2.32847e-12
2.11679e-12
1.92436e-12
1.74942e-12
1.59038e-12
1.4458e-12
1.31436e-12
1.19488e-12
1.08625e-12
9.875e-13
8.97728e-13
8.16116e-13
7.41924e-13
6.74476e-13
6.1316e-13
5.57418e-13
5.06744e-13
4.60676e-13
4.18797e-13
3.80724e-13
3.46113e-13
3.14648e-13
2.86044e-13
2.6004e-13
2.364e-13
2.14909e-13
1.95372e-13
1.77611e-13
1.61464e-13
1.46786e-13
1.33441e-13
1.2131e-13
1.10282e-13
1.00257e-13
7.96373e-12
7.23975e-12
6.58159e-12
5.98327e-12
5.43933e-12
4.94485e-12
4.49532e-12
4.08665e-12
3.71514e-12
3.3774e-12
3.07036e-12
2.79124e-12
2.53749e-12
2.30681e-12
2.0971e-12
1.90645e-12
1.73314e-12
1.57558e-12
1.43235e-12
1.30213e-12
1.18376e-12
1.07614e-12
9.78312e-13
8.89375e-13
8.08522e-13
7.3502e-13
6.682e-13
6.07455e-13
5.52232e-13
5.02029e-13
4.5639e-13
4.149e-13
3.77182e-13
3.42892e-13
3.1172e-13
2.83382e-13
2.5762e-13
2.342e-13
2.12909e-13
1.93554e-13
1.75958e-13
1.59962e-13
1.4542e-13
1.322e-13
1.20182e-13
1.09256e-13
9.93237e-14
7.88963e-12
7.17239e-12
6.52036e-12
5.9276e-12
5.38872e-12
4.89884e-12
4.45349e-12
4.04863e-12
3.68057e-12
3.34597e-12
3.04179e-12
2.76527e-12
2.51388e-12
2.28535e-12
2.07759e-12
1.88871e-12
1.71701e-12
1.56092e-12
1.41902e-12
1.29002e-12
1.17274e-12
1.06613e-12
9.69209e-13
8.81099e-13
8.00999e-13
7.28181e-13
6.61983e-13
6.01803e-13
5.47093e-13
4.97358e-13
4.52143e-13
4.11039e-13
3.73672e-13
3.39702e-13
3.0882e-13
2.80745e-13
2.55223e-13
2.32021e-13
2.10928e-13
1.91753e-13
1.74321e-13
1.58473e-13
1.44067e-13
1.3097e-13
1.19063e-13
1.0824e-13
9.83996e-14
7.81622e-12
7.10566e-12
6.45969e-12
5.87244e-12
5.33858e-12
4.85326e-12
4.41205e-12
4.01096e-12
3.64632e-12
3.31484e-12
3.01349e-12
2.73954e-12
2.49049e-12
2.26408e-12
2.05826e-12
1.87114e-12
1.70104e-12
1.5464e-12
1.40582e-12
1.27801e-12
1.16183e-12
1.05621e-12
9.60191e-13
8.72901e-13
7.93547e-13
7.21406e-13
6.55824e-13
5.96203e-13
5.42003e-13
4.9273e-13
4.47936e-13
4.07215e-13
3.70195e-13
3.36541e-13
3.05947e-13
2.78133e-13
2.52848e-13
2.29862e-13
2.08966e-13
1.89969e-13
1.72699e-13
1.56999e-13
1.42726e-13
1.29751e-13
1.17956e-13
1.07232e-13
9.7484e-14
7.74349e-12
7.03954e-12
6.39958e-12
5.8178e-12
5.28891e-12
4.8081e-12
4.371e-12
3.97364e-12
3.6124e-12
3.284e-12
2.98545e-12
2.71405e-12
2.46732e-12
2.24301e-12
2.0391e-12
1.85373e-12
1.68521e-12
1.53201e-12
1.39274e-12
1.26612e-12
1.15102e-12
1.04638e-12
9.51257e-13
8.64779e-13
7.86163e-13
7.14694e-13
6.49721e-13
5.90656e-13
5.3696e-13
4.88145e-13
4.43768e-13
4.03426e-13
3.66751e-13
3.3341e-13
3.031e-13
2.75545e-13
2.50496e-13
2.27723e-13
2.07021e-13
1.88201e-13
1.71092e-13
1.55538e-13
1.41398e-13
1.28544e-13
1.16858e-13
1.06235e-13
9.6577e-14
7.67144e-12
6.97404e-12
6.34004e-12
5.76367e-12
5.2397e-12
4.76336e-12
4.33033e-12
3.93666e-12
3.57879e-12
3.25344e-12
2.95767e-12
2.68879e-12
2.44436e-12
2.22214e-12
2.02013e-12
1.83648e-12
1.66953e-12
1.51775e-12
1.37978e-12
1.25434e-12
1.14031e-12
1.03665e-12
9.42406e-13
8.56733e-13
7.78848e-13
7.08044e-13
6.43676e-13
5.8516e-13
5.31964e-13
4.83603e-13
4.39639e-13
3.99672e-13
3.63338e-13
3.30308e-13
3.0028e-13
2.72981e-13
2.48165e-13
2.25605e-13
2.05095e-13
1.8645e-13
1.695e-13
1.54091e-13
1.40083e-13
1.27348e-13
1.15771e-13
1.05246e-13
9.56783e-14
7.60007e-12
6.90915e-12
6.28105e-12
5.71004e-12
5.19095e-12
4.71904e-12
4.29004e-12
3.90004e-12
3.54549e-12
3.22317e-12
2.93015e-12
2.66378e-12
2.42162e-12
2.20147e-12
2.00133e-12
1.8194e-12
1.654e-12
1.50363e-12
1.36694e-12
1.24267e-12
1.1297e-12
1.027e-12
9.33637e-13
8.48761e-13
7.71601e-13
7.01456e-13
6.37687e-13
5.79715e-13
5.27014e-13
4.79104e-13
4.35549e-13
3.95953e-13
3.59958e-13
3.27234e-13
2.97486e-13
2.70442e-13
2.45856e-13
2.23505e-13
2.03187e-13
1.84715e-13
1.67923e-13
1.52657e-13
1.38779e-13
1.26163e-13
1.14694e-13
1.04267e-13
9.47881e-14
7.52935e-12
6.84486e-12
6.2226e-12
5.65691e-12
5.14265e-12
4.67513e-12
4.25012e-12
3.86375e-12
3.5125e-12
3.19318e-12
2.90289e-12
2.63899e-12
2.39908e-12
2.18098e-12
1.98271e-12
1.80247e-12
1.63861e-12
1.48964e-12
1.35422e-12
1.23111e-12
1.11919e-12
1.01745e-12
9.2495e-13
8.40864e-13
7.64422e-13
6.94929e-13
6.31754e-13
5.74321e-13
5.2211e-13
4.74646e-13
4.31496e-13
3.92269e-13
3.56608e-13
3.24189e-13
2.94718e-13
2.67925e-13
2.43568e-13
2.21426e-13
2.01296e-13
1.82997e-13
1.6636e-13
1.51237e-13
1.37488e-13
1.24989e-13
1.13626e-13
1.03297e-13
9.39061e-14
7.45929e-12
6.78118e-12
6.1647e-12
5.60428e-12
5.0948e-12
4.63163e-12
4.21058e-12
3.8278e-12
3.47982e-12
3.16347e-12
2.87588e-12
2.61444e-12
2.37676e-12
2.16069e-12
1.96426e-12
1.7857e-12
1.62336e-12
1.47578e-12
1.34162e-12
1.21965e-12
1.10878e-12
1.00798e-12
9.16344e-13
8.3304e-13
7.57309e-13
6.88463e-13
6.25875e-13
5.68978e-13
5.17252e-13
4.70229e-13
4.27481e-13
3.88619e-13
3.5329e-13
3.21173e-13
2.91975e-13
2.65432e-13
2.41302e-13
2.19365e-13
1.99423e-13
1.81294e-13
1.64813e-13
1.4983e-13
1.36209e-13
1.23826e-13
1.12569e-13
1.02336e-13
9.30324e-14
7.38989e-12
6.71808e-12
6.10734e-12
5.55213e-12
5.04739e-12
4.58854e-12
4.1714e-12
3.79218e-12
3.44744e-12
3.13403e-12
2.84912e-12
2.59011e-12
2.35465e-12
2.14059e-12
1.94599e-12
1.76908e-12
1.60825e-12
1.46205e-12
1.32914e-12
1.20831e-12
1.09846e-12
9.986e-13
9.07818e-13
8.25289e-13
7.50263e-13
6.82057e-13
6.20052e-13
5.63683e-13
5.1244e-13
4.65854e-13
4.23504e-13
3.85003e-13
3.50003e-13
3.18185e-13
2.89259e-13
2.62963e-13
2.39057e-13
2.17324e-13
1.97568e-13
1.79607e-13
1.63279e-13
1.48435e-13
1.34941e-13
1.22674e-13
1.11522e-13
1.01383e-13
9.21668e-14
7.32113e-12
6.65557e-12
6.05052e-12
5.50047e-12
5.00043e-12
4.54584e-12
4.13259e-12
3.7569e-12
3.41536e-12
3.10487e-12
2.82261e-12
2.56601e-12
2.33274e-12
2.12067e-12
1.92788e-12
1.75262e-12
1.59329e-12
1.44845e-12
1.31677e-12
1.19706e-12
1.08824e-12
9.89308e-13
8.99371e-13
8.1761e-13
7.43282e-13
6.75711e-13
6.14283e-13
5.58439e-13
5.07672e-13
4.6152e-13
4.19563e-13
3.81421e-13
3.46746e-13
3.15224e-13
2.86567e-13
2.60516e-13
2.36833e-13
2.15302e-13
1.95729e-13
1.77936e-13
1.6176e-13
1.47054e-13
1.33686e-13
1.21533e-13
1.10484e-13
1.0044e-13
9.13092e-14
7.25301e-12
6.59364e-12
5.99422e-12
5.44929e-12
4.9539e-12
4.50355e-12
4.09413e-12
3.72194e-12
3.38358e-12
3.07598e-12
2.79635e-12
2.54214e-12
2.31103e-12
2.10094e-12
1.90994e-12
1.73631e-12
1.57847e-12
1.43497e-12
1.30452e-12
1.18592e-12
1.07811e-12
9.80103e-13
8.91003e-13
8.10003e-13
7.36366e-13
6.69424e-13
6.08567e-13
5.53243e-13
5.02948e-13
4.57225e-13
4.15659e-13
3.77872e-13
3.4352e-13
3.12291e-13
2.83901e-13
2.58092e-13
2.34629e-13
2.13299e-13
1.93908e-13
1.7628e-13
1.60255e-13
1.45686e-13
1.32442e-13
1.20402e-13
1.09456e-13
9.95055e-14
9.04596e-14
7.18552e-12
6.53229e-12
5.93845e-12
5.39859e-12
4.90781e-12
4.46164e-12
4.05604e-12
3.68731e-12
3.3521e-12
3.04736e-12
2.77033e-12
2.51848e-12
2.28953e-12
2.08139e-12
1.89217e-12
1.72016e-12
1.56378e-12
1.42162e-12
1.29238e-12
1.17489e-12
1.06808e-12
9.70984e-13
8.82712e-13
8.02466e-13
7.29514e-13
6.63195e-13
6.02904e-13
5.48095e-13
4.98268e-13
4.52971e-13
4.11792e-13
3.74356e-13
3.40324e-13
3.09385e-13
2.81259e-13
2.5569e-13
2.32446e-13
2.11314e-13
1.92104e-13
1.7464e-13
1.58764e-13
1.44331e-13
1.3121e-13
1.19281e-13
1.08438e-13
9.85797e-14
8.96179e-14
7.11866e-12
6.47151e-12
5.88319e-12
5.34836e-12
4.86214e-12
4.42013e-12
4.0183e-12
3.653e-12
3.32091e-12
3.01901e-12
2.74455e-12
2.49505e-12
2.26823e-12
2.06202e-12
1.87457e-12
1.70415e-12
1.54923e-12
1.40839e-12
1.28035e-12
1.16396e-12
1.05814e-12
9.61949e-13
8.74499e-13
7.94999e-13
7.22727e-13
6.57024e-13
5.97295e-13
5.42995e-13
4.93632e-13
4.48756e-13
4.0796e-13
3.70873e-13
3.37157e-13
3.06507e-13
2.78642e-13
2.53311e-13
2.30283e-13
2.09348e-13
1.90316e-13
1.73015e-13
1.57286e-13
1.42988e-13
1.29989e-13
1.18172e-13
1.07429e-13
9.76625e-14
8.87841e-14
7.05243e-12
6.4113e-12
5.82845e-12
5.29859e-12
4.8169e-12
4.379e-12
3.98091e-12
3.61901e-12
3.29001e-12
2.99092e-12
2.71902e-12
2.47183e-12
2.24712e-12
2.04284e-12
1.85712e-12
1.6883e-12
1.53481e-12
1.39529e-12
1.26844e-12
1.15313e-12
1.0483e-12
9.52999e-13
8.66362e-13
7.87602e-13
7.16002e-13
6.50911e-13
5.91737e-13
5.37943e-13
4.89039e-13
4.44581e-13
4.04164e-13
3.67422e-13
3.3402e-13
3.03655e-13
2.7605e-13
2.50954e-13
2.2814e-13
2.074e-13
1.88546e-13
1.71405e-13
1.55823e-13
1.41657e-13
1.28779e-13
1.17072e-13
1.06429e-13
9.67537e-14
8.7958e-14
6.98681e-12
6.35164e-12
5.77422e-12
5.24929e-12
4.77208e-12
4.33826e-12
3.94387e-12
3.58534e-12
3.2594e-12
2.96309e-12
2.69372e-12
2.44883e-12
2.22621e-12
2.02383e-12
1.83984e-12
1.67259e-12
1.52053e-12
1.3823e-12
1.25664e-12
1.1424e-12
1.03854e-12
9.44131e-13
8.58301e-13
7.80274e-13
7.0934e-13
6.44854e-13
5.86231e-13
5.32938e-13
4.84489e-13
4.40444e-13
4.00404e-13
3.64004e-13
3.30912e-13
3.00829e-13
2.73481e-13
2.48619e-13
2.26018e-13
2.0547e-13
1.86791e-13
1.6981e-13
1.54373e-13
1.40339e-13
1.27581e-13
1.15983e-13
1.05439e-13
9.58535e-14
8.71395e-14
6.9218e-12
6.29254e-12
5.72049e-12
5.20045e-12
4.72768e-12
4.29789e-12
3.90717e-12
3.55198e-12
3.22907e-12
2.93552e-12
2.66865e-12
2.42605e-12
2.2055e-12
2.005e-12
1.82273e-12
1.65702e-12
1.50639e-12
1.36944e-12
1.24495e-12
1.13177e-12
1.02888e-12
9.35347e-13
8.50315e-13
7.73014e-13
7.0274e-13
6.38854e-13
5.80777e-13
5.27979e-13
4.79981e-13
4.36346e-13
3.96678e-13
3.60617e-13
3.27833e-13
2.9803e-13
2.70937e-13
2.46306e-13
2.23915e-13
2.03559e-13
1.85053e-13
1.6823e-13
1.52937e-13
1.39033e-13
1.26394e-13
1.14904e-13
1.04458e-13
9.49616e-14
8.63288e-14
6.85739e-12
6.23399e-12
5.66727e-12
5.15206e-12
4.68369e-12
4.2579e-12
3.87082e-12
3.51893e-12
3.19903e-12
2.9082e-12
2.64382e-12
2.40347e-12
2.18498e-12
1.98634e-12
1.80577e-12
1.64161e-12
1.49237e-12
1.3567e-12
1.23336e-12
1.12124e-12
1.01931e-12
9.26644e-13
8.42403e-13
7.65821e-13
6.96201e-13
6.3291e-13
5.75373e-13
5.23066e-13
4.75515e-13
4.32286e-13
3.92987e-13
3.57261e-13
3.24783e-13
2.95257e-13
2.68416e-13
2.44014e-13
2.21831e-13
2.01665e-13
1.83331e-13
1.66665e-13
1.51514e-13
1.3774e-13
1.25218e-13
1.13834e-13
1.03486e-13
9.4078e-14
8.55255e-14
6.79359e-12
6.17599e-12
5.61454e-12
5.10412e-12
4.64011e-12
4.21828e-12
3.8348e-12
3.48619e-12
3.16926e-12
2.88115e-12
2.61922e-12
2.38111e-12
2.16465e-12
1.96786e-12
1.78896e-12
1.62633e-12
1.47848e-12
1.34408e-12
1.22189e-12
1.11081e-12
1.00982e-12
9.18022e-13
8.34565e-13
7.58696e-13
6.89723e-13
6.27021e-13
5.70019e-13
5.18199e-13
4.7109e-13
4.28264e-13
3.89331e-13
3.53937e-13
3.21761e-13
2.9251e-13
2.65918e-13
2.41744e-13
2.19767e-13
1.99788e-13
1.81626e-13
1.65114e-13
1.50104e-13
1.36458e-13
1.24053e-13
1.12775e-13
1.02523e-13
9.32027e-14
8.47297e-14
6.73038e-12
6.11853e-12
5.5623e-12
5.05663e-12
4.59694e-12
4.17904e-12
3.79912e-12
3.45375e-12
3.13977e-12
2.85434e-12
2.59485e-12
2.35896e-12
2.14451e-12
1.94955e-12
1.77232e-12
1.6112e-12
1.46473e-12
1.33157e-12
1.21052e-12
1.10047e-12
1.00043e-12
9.0948e-13
8.268e-13
7.51636e-13
6.83306e-13
6.21187e-13
5.64715e-13
5.13378e-13
4.66707e-13
4.24279e-13
3.85708e-13
3.50644e-13
3.18767e-13
2.89788e-13
2.63444e-13
2.39494e-13
2.17722e-13
1.97929e-13
1.79936e-13
1.63578e-13
1.48707e-13
1.35188e-13
1.22899e-13
1.11726e-13
1.01569e-13
9.23355e-14
8.39414e-14
6.66775e-12
6.0616e-12
5.51054e-12
5.00958e-12
4.55417e-12
4.14015e-12
3.76377e-12
3.42161e-12
3.11056e-12
2.82778e-12
2.57071e-12
2.33701e-12
2.12455e-12
1.93141e-12
1.75583e-12
1.59621e-12
1.4511e-12
1.31918e-12
1.19925e-12
1.09023e-12
9.91119e-13
9.01018e-13
8.19107e-13
7.44643e-13
6.76948e-13
6.15407e-13
5.59461e-13
5.08601e-13
4.62364e-13
4.20331e-13
3.82119e-13
3.47381e-13
3.15801e-13
2.87092e-13
2.60993e-13
2.37266e-13
2.15696e-13
1.96088e-13
1.78262e-13
1.62056e-13
1.47324e-13
1.33931e-13
1.21755e-13
1.10686e-13
1.00624e-13
9.14763e-14
8.31603e-14
6.60571e-12
6.00519e-12
5.45927e-12
4.96297e-12
4.51179e-12
4.10163e-12
3.72875e-12
3.38978e-12
3.08161e-12
2.80147e-12
2.54679e-12
2.31526e-12
2.10478e-12
1.91344e-12
1.73949e-12
1.58136e-12
1.4376e-12
1.30691e-12
1.1881e-12
1.08009e-12
9.81897e-13
8.92634e-13
8.11485e-13
7.37714e-13
6.70649e-13
6.09681e-13
5.54255e-13
5.03869e-13
4.58062e-13
4.1642e-13
3.78564e-13
3.44149e-13
3.12863e-13
2.84421e-13
2.58564e-13
2.35058e-13
2.13689e-13
1.94263e-13
1.76603e-13
1.60548e-13
1.45953e-13
1.32684e-13
1.20622e-13
1.09656e-13
9.96877e-14
9.06252e-14
8.23865e-14
6.54425e-12
5.94932e-12
5.40847e-12
4.91679e-12
4.46981e-12
4.06346e-12
3.69406e-12
3.35824e-12
3.05294e-12
2.7754e-12
2.52309e-12
2.29372e-12
2.0852e-12
1.89564e-12
1.72331e-12
1.56664e-12
1.42422e-12
1.29475e-12
1.17704e-12
1.07004e-12
9.72761e-13
8.84328e-13
8.03935e-13
7.3085e-13
6.64409e-13
6.04008e-13
5.49098e-13
4.9918e-13
4.538e-13
4.12546e-13
3.75042e-13
3.40947e-13
3.09952e-13
2.81774e-13
2.56158e-13
2.32871e-13
2.11701e-13
1.92456e-13
1.7496e-13
1.59054e-13
1.44595e-13
1.3145e-13
1.195e-13
1.08636e-13
9.87602e-14
8.9782e-14
8.162e-14
6.48336e-12
5.89396e-12
5.35815e-12
4.87104e-12
4.42822e-12
4.02566e-12
3.65969e-12
3.32699e-12
3.02454e-12
2.74958e-12
2.49962e-12
2.27238e-12
2.0658e-12
1.878e-12
1.70727e-12
1.55206e-12
1.41097e-12
1.2827e-12
1.16609e-12
1.06008e-12
9.6371e-13
8.761e-13
7.96455e-13
7.2405e-13
6.58227e-13
5.98388e-13
5.43989e-13
4.94536e-13
4.49578e-13
4.08707e-13
3.71552e-13
3.37775e-13
3.07068e-13
2.79152e-13
2.53775e-13
2.30705e-13
2.09731e-13
1.90665e-13
1.73332e-13
1.57574e-13
1.43249e-13
1.30227e-13
1.18388e-13
1.07625e-13
9.78412e-14
8.89466e-14
8.08605e-14
6.42303e-12
5.83912e-12
5.30829e-12
4.82572e-12
4.38702e-12
3.9882e-12
3.62564e-12
3.29603e-12
2.99639e-12
2.72399e-12
2.47636e-12
2.25123e-12
2.04658e-12
1.86052e-12
1.69139e-12
1.53762e-12
1.39784e-12
1.27076e-12
1.15524e-12
1.05022e-12
9.54743e-13
8.67948e-13
7.89044e-13
7.17313e-13
6.52102e-13
5.9282e-13
5.38928e-13
4.89934e-13
4.45395e-13
4.04904e-13
3.68095e-13
3.34632e-13
3.04211e-13
2.76555e-13
2.51414e-13
2.28558e-13
2.0778e-13
1.88891e-13
1.71719e-13
1.56108e-13
1.41916e-13
1.29015e-13
1.17286e-13
1.06624e-13
9.69309e-14
8.8119e-14
8.01082e-14
6.36327e-12
5.78479e-12
5.2589e-12
4.78082e-12
4.3462e-12
3.95109e-12
3.5919e-12
3.26536e-12
2.96851e-12
2.69865e-12
2.45332e-12
2.23029e-12
2.02753e-12
1.84321e-12
1.67565e-12
1.52332e-12
1.38483e-12
1.25894e-12
1.14449e-12
1.04045e-12
9.4586e-13
8.59872e-13
7.81702e-13
7.10638e-13
6.46035e-13
5.87304e-13
5.33913e-13
4.85376e-13
4.41251e-13
4.01137e-13
3.6467e-13
3.31518e-13
3.0138e-13
2.73982e-13
2.49074e-13
2.26431e-13
2.05847e-13
1.87133e-13
1.70121e-13
1.54656e-13
1.40596e-13
1.27815e-13
1.16195e-13
1.05632e-13
9.6029e-14
8.72991e-14
7.93628e-14
6.30406e-12
5.73097e-12
5.20997e-12
4.73634e-12
4.30576e-12
3.91433e-12
3.55848e-12
3.23498e-12
2.94089e-12
2.67354e-12
2.43049e-12
2.20954e-12
2.00867e-12
1.82606e-12
1.66006e-12
1.50914e-12
1.37195e-12
1.24723e-12
1.13384e-12
1.03076e-12
9.37059e-13
8.51872e-13
7.74429e-13
7.04026e-13
6.40024e-13
5.8184e-13
5.28945e-13
4.80859e-13
4.37145e-13
3.97404e-13
3.61277e-13
3.28433e-13
2.98576e-13
2.71433e-13
2.46757e-13
2.24324e-13
2.03931e-13
1.85392e-13
1.68538e-13
1.53217e-13
1.39288e-13
1.26625e-13
1.15114e-13
1.04649e-13
9.51355e-14
8.64868e-14
7.86244e-14
6.24541e-12
5.67764e-12
5.16149e-12
4.69227e-12
4.2657e-12
3.87791e-12
3.52537e-12
3.20488e-12
2.91353e-12
2.64866e-12
2.40787e-12
2.18898e-12
1.98998e-12
1.80907e-12
1.64461e-12
1.4951e-12
1.35918e-12
1.23562e-12
1.12329e-12
1.02117e-12
9.2834e-13
8.43945e-13
7.67223e-13
6.97476e-13
6.34069e-13
5.76426e-13
5.24024e-13
4.76385e-13
4.33077e-13
3.93707e-13
3.57915e-13
3.25378e-13
2.95798e-13
2.68907e-13
2.44461e-13
2.22237e-13
2.02034e-13
1.83667e-13
1.6697e-13
1.51791e-13
1.37992e-13
1.25447e-13
1.14043e-13
1.03675e-13
9.42503e-14
8.56821e-14
7.78928e-14
6.1873e-12
5.62481e-12
5.11347e-12
4.64861e-12
4.22601e-12
3.84182e-12
3.49257e-12
3.17506e-12
2.88642e-12
2.62402e-12
2.38547e-12
2.16861e-12
1.97146e-12
1.79224e-12
1.62931e-12
1.48119e-12
1.34654e-12
1.22412e-12
1.11284e-12
1.01167e-12
9.19702e-13
8.36093e-13
7.60084e-13
6.90986e-13
6.28169e-13
5.71063e-13
5.19148e-13
4.71953e-13
4.29048e-13
3.90044e-13
3.54585e-13
3.2235e-13
2.93045e-13
2.66405e-13
2.42186e-13
2.20169e-13
2.00154e-13
1.81958e-13
1.65417e-13
1.50379e-13
1.36708e-13
1.2428e-13
1.12982e-13
1.02711e-13
9.33733e-14
8.48848e-14
7.7168e-14
6.12973e-12
5.57248e-12
5.06589e-12
4.60535e-12
4.18669e-12
3.80608e-12
3.46007e-12
3.14552e-12
2.85956e-12
2.5996e-12
2.36327e-12
2.14843e-12
1.95312e-12
1.77556e-12
1.61415e-12
1.46741e-12
1.33401e-12
1.21273e-12
1.10249e-12
1.00226e-12
9.11145e-13
8.28313e-13
7.53012e-13
6.84557e-13
6.22324e-13
5.65749e-13
5.14317e-13
4.67561e-13
4.25056e-13
3.86414e-13
3.51286e-13
3.19351e-13
2.90319e-13
2.63926e-13
2.39933e-13
2.18121e-13
1.98292e-13
1.80265e-13
1.63877e-13
1.48979e-13
1.35436e-13
1.23124e-13
1.1193e-13
1.01755e-13
9.25045e-14
8.4095e-14
7.645e-14
6.07269e-12
5.52063e-12
5.01875e-12
4.5625e-12
4.14773e-12
3.77066e-12
3.42788e-12
3.11625e-12
2.83296e-12
2.57541e-12
2.34129e-12
2.12844e-12
1.93495e-12
1.75904e-12
1.59913e-12
1.45375e-12
1.32159e-12
1.20145e-12
1.09223e-12
9.92934e-13
9.02667e-13
8.20606e-13
7.46006e-13
6.78187e-13
6.16534e-13
5.60485e-13
5.09532e-13
4.63211e-13
4.21101e-13
3.82819e-13
3.48017e-13
3.16379e-13
2.87618e-13
2.6147e-13
2.377e-13
2.16091e-13
1.96447e-13
1.78588e-13
1.62353e-13
1.47593e-13
1.34176e-13
1.21978e-13
1.10889e-13
1.00808e-13
9.16438e-14
8.33125e-14
7.57387e-14
6.01619e-12
5.46926e-12
4.97206e-12
4.52005e-12
4.10914e-12
3.73558e-12
3.39598e-12
3.08726e-12
2.8066e-12
2.55145e-12
2.3195e-12
2.10864e-12
1.91694e-12
1.74268e-12
1.58425e-12
1.44023e-12
1.3093e-12
1.19027e-12
1.08206e-12
9.83695e-13
8.94268e-13
8.12971e-13
7.39065e-13
6.71877e-13
6.10797e-13
5.5527e-13
5.04791e-13
4.58901e-13
4.17183e-13
3.79257e-13
3.44779e-13
3.13435e-13
2.84941e-13
2.59038e-13
2.35489e-13
2.14081e-13
1.94619e-13
1.76926e-13
1.60842e-13
1.4622e-13
1.32927e-13
1.20843e-13
1.09857e-13
9.98702e-14
9.07911e-14
8.25374e-14
7.5034e-14
5.96021e-12
5.41837e-12
4.92579e-12
4.47799e-12
4.0709e-12
3.70082e-12
3.36438e-12
3.05853e-12
2.78048e-12
2.52771e-12
2.29792e-12
2.08902e-12
1.89911e-12
1.72646e-12
1.56951e-12
1.42683e-12
1.29712e-12
1.1792e-12
1.072e-12
9.74542e-13
8.85947e-13
8.05407e-13
7.32188e-13
6.65625e-13
6.05114e-13
5.50104e-13
5.00094e-13
4.54631e-13
4.13301e-13
3.75728e-13
3.41571e-13
3.10519e-13
2.8229e-13
2.56627e-13
2.33298e-13
2.12089e-13
1.92808e-13
1.7528e-13
1.59345e-13
1.44859e-13
1.3169e-13
1.19719e-13
1.08835e-13
9.8941e-14
8.99463e-14
8.17694e-14
7.43358e-14
5.90475e-12
5.36796e-12
4.87996e-12
4.43633e-12
4.03303e-12
3.66639e-12
3.33308e-12
3.03007e-12
2.75461e-12
2.50419e-12
2.27654e-12
2.06958e-12
1.88144e-12
1.7104e-12
1.55491e-12
1.41355e-12
1.28505e-12
1.16822e-12
1.06202e-12
9.65474e-13
8.77704e-13
7.97913e-13
7.25375e-13
6.59432e-13
5.99484e-13
5.44985e-13
4.95441e-13
4.50401e-13
4.09455e-13
3.72232e-13
3.38393e-13
3.0763e-13
2.79664e-13
2.5424e-13
2.31127e-13
2.10115e-13
1.91014e-13
1.73649e-13
1.57863e-13
1.43512e-13
1.30465e-13
1.18605e-13
1.07822e-13
9.80204e-14
8.91094e-14
8.10086e-14
7.36441e-14
5.84981e-12
5.31801e-12
4.83456e-12
4.39505e-12
3.9955e-12
3.63227e-12
3.30207e-12
3.00188e-12
2.72898e-12
2.48089e-12
2.25536e-12
2.05032e-12
1.86393e-12
1.69448e-12
1.54044e-12
1.4004e-12
1.27309e-12
1.15735e-12
1.05214e-12
9.56491e-13
8.69537e-13
7.90488e-13
7.18626e-13
6.53296e-13
5.93906e-13
5.39914e-13
4.90831e-13
4.4621e-13
4.05646e-13
3.68769e-13
3.35244e-13
3.04768e-13
2.77061e-13
2.51874e-13
2.28976e-13
2.0816e-13
1.89237e-13
1.72033e-13
1.56394e-13
1.42176e-13
1.29251e-13
1.17501e-13
1.06819e-13
9.71083e-14
8.82803e-14
8.02548e-14
7.29589e-14
5.79538e-12
5.26853e-12
4.78957e-12
4.35416e-12
3.95832e-12
3.59848e-12
3.27134e-12
2.97395e-12
2.70359e-12
2.45781e-12
2.23437e-12
2.03125e-12
1.84659e-12
1.67872e-12
1.52611e-12
1.38737e-12
1.26124e-12
1.14659e-12
1.04235e-12
9.47591e-13
8.61447e-13
7.83133e-13
7.11939e-13
6.47218e-13
5.8838e-13
5.34891e-13
4.86264e-13
4.42058e-13
4.01871e-13
3.65337e-13
3.32125e-13
3.01932e-13
2.74483e-13
2.4953e-13
2.26846e-13
2.06223e-13
1.87476e-13
1.70433e-13
1.54939e-13
1.40853e-13
1.28049e-13
1.16408e-13
1.05825e-13
9.62048e-14
8.74589e-14
7.95081e-14
7.22801e-14
5.74146e-12
5.21951e-12
4.74501e-12
4.31364e-12
3.92149e-12
3.56499e-12
3.2409e-12
2.94628e-12
2.67843e-12
2.43494e-12
2.21358e-12
2.01235e-12
1.82941e-12
1.6631e-12
1.51191e-12
1.37446e-12
1.24951e-12
1.13592e-12
1.03265e-12
9.38774e-13
8.53431e-13
7.75847e-13
7.05315e-13
6.41196e-13
5.82905e-13
5.29914e-13
4.8174e-13
4.37945e-13
3.98132e-13
3.61938e-13
3.29035e-13
2.99122e-13
2.71929e-13
2.47209e-13
2.24735e-13
2.04305e-13
1.85731e-13
1.68847e-13
1.53497e-13
1.39543e-13
1.26857e-13
1.15325e-13
1.04841e-13
9.53096e-14
8.66451e-14
7.87683e-14
7.16075e-14
5.68804e-12
5.17094e-12
4.70086e-12
4.27351e-12
3.88501e-12
3.53182e-12
3.21075e-12
2.91886e-12
2.65351e-12
2.41228e-12
2.19298e-12
1.99362e-12
1.81238e-12
1.64762e-12
1.49784e-12
1.36167e-12
1.23788e-12
1.12535e-12
1.02304e-12
9.30039e-13
8.4549e-13
7.68628e-13
6.98752e-13
6.35229e-13
5.77481e-13
5.24983e-13
4.77257e-13
4.3387e-13
3.94428e-13
3.5857e-13
3.25973e-13
2.96339e-13
2.69399e-13
2.44908e-13
2.22644e-13
2.02404e-13
1.84003e-13
1.67276e-13
1.52069e-13
1.38244e-13
1.25677e-13
1.14252e-13
1.03865e-13
9.44228e-14
8.58389e-14
7.80354e-14
7.09413e-14
5.63511e-12
5.12283e-12
4.65712e-12
4.23374e-12
3.84886e-12
3.49896e-12
3.18087e-12
2.8917e-12
2.62882e-12
2.38984e-12
2.17258e-12
1.97507e-12
1.79552e-12
1.63229e-12
1.4839e-12
1.349e-12
1.22636e-12
1.11488e-12
1.01352e-12
9.21386e-13
8.37624e-13
7.61476e-13
6.92251e-13
6.29319e-13
5.72108e-13
5.20098e-13
4.72817e-13
4.29833e-13
3.90758e-13
3.55234e-13
3.2294e-13
2.93582e-13
2.66893e-13
2.4263e-13
2.20572e-13
2.0052e-13
1.82291e-13
1.65719e-13
1.50654e-13
1.36958e-13
1.24507e-13
1.13189e-13
1.02899e-13
9.35443e-14
8.50402e-14
7.73093e-14
7.02812e-14
5.58268e-12
5.07516e-12
4.61378e-12
4.19435e-12
3.81305e-12
3.4664e-12
3.15128e-12
2.8648e-12
2.60436e-12
2.3676e-12
2.15236e-12
1.9567e-12
1.77881e-12
1.6171e-12
1.47009e-12
1.33645e-12
1.21495e-12
1.1045e-12
1.00409e-12
9.12813e-13
8.2983e-13
7.54391e-13
6.8581e-13
6.23463e-13
5.66785e-13
5.15259e-13
4.68417e-13
4.25834e-13
3.87122e-13
3.51929e-13
3.19935e-13
2.9085e-13
2.64409e-13
2.40372e-13
2.1852e-13
1.98655e-13
1.80595e-13
1.64177e-13
1.49252e-13
1.35684e-13
1.23349e-13
1.12135e-13
1.01941e-13
9.26739e-14
8.4249e-14
7.659e-14
6.96272e-14
5.53074e-12
5.02794e-12
4.57086e-12
4.15532e-12
3.77757e-12
3.43415e-12
3.12196e-12
2.83814e-12
2.58013e-12
2.34557e-12
2.13234e-12
1.93849e-12
1.76226e-12
1.60206e-12
1.45642e-12
1.32401e-12
1.20365e-12
1.09423e-12
9.94751e-13
9.04319e-13
8.22109e-13
7.47371e-13
6.79429e-13
6.17662e-13
5.61511e-13
5.10465e-13
4.64059e-13
4.21872e-13
3.8352e-13
3.48654e-13
3.16958e-13
2.88144e-13
2.61949e-13
2.38136e-13
2.16487e-13
1.96806e-13
1.78915e-13
1.6265e-13
1.47863e-13
1.34421e-13
1.22201e-13
1.11092e-13
1.00993e-13
9.18116e-14
8.34651e-14
7.58773e-14
6.89794e-14
5.47927e-12
4.98116e-12
4.52833e-12
4.11666e-12
3.74242e-12
3.4022e-12
3.09291e-12
2.81173e-12
2.55612e-12
2.32375e-12
2.1125e-12
1.92045e-12
1.74587e-12
1.58715e-12
1.44286e-12
1.31169e-12
1.19245e-12
1.08405e-12
9.85496e-13
8.95905e-13
8.14459e-13
7.40417e-13
6.73107e-13
6.11915e-13
5.56287e-13
5.05715e-13
4.59741e-13
4.17946e-13
3.79951e-13
3.4541e-13
3.14009e-13
2.85463e-13
2.59512e-13
2.3592e-13
2.14473e-13
1.94975e-13
1.7725e-13
1.61136e-13
1.46488e-13
1.33171e-13
1.21064e-13
1.10058e-13
1.00053e-13
9.09573e-14
8.26885e-14
7.51713e-14
6.83376e-14
5.42829e-12
4.93481e-12
4.48619e-12
4.07836e-12
3.7076e-12
3.37054e-12
3.06413e-12
2.78557e-12
2.53234e-12
2.30213e-12
2.09284e-12
1.90258e-12
1.72962e-12
1.57238e-12
1.42944e-12
1.29949e-12
1.18135e-12
1.07396e-12
9.76326e-13
8.87569e-13
8.06881e-13
7.33528e-13
6.66844e-13
6.06222e-13
5.51111e-13
5.0101e-13
4.55463e-13
4.14058e-13
3.76416e-13
3.42196e-13
3.11088e-13
2.82807e-13
2.57097e-13
2.33725e-13
2.12477e-13
1.93161e-13
1.75601e-13
1.59637e-13
1.45125e-13
1.31931e-13
1.19938e-13
1.09034e-13
9.91221e-14
9.0111e-14
8.19191e-14
7.44719e-14
6.77017e-14
5.37778e-12
4.88889e-12
4.44445e-12
4.04041e-12
3.6731e-12
3.33918e-12
3.03562e-12
2.75965e-12
2.50878e-12
2.28071e-12
2.07337e-12
1.88488e-12
1.71353e-12
1.55775e-12
1.41614e-12
1.2874e-12
1.17036e-12
1.06397e-12
9.67242e-13
8.79311e-13
7.99373e-13
7.26703e-13
6.60639e-13
6.00581e-13
5.45983e-13
4.96348e-13
4.51225e-13
4.10205e-13
3.72914e-13
3.39012e-13
3.08193e-13
2.80175e-13
2.54705e-13
2.3155e-13
2.105e-13
1.91364e-13
1.73967e-13
1.58152e-13
1.43774e-13
1.30704e-13
1.18822e-13
1.0802e-13
9.81998e-14
8.92725e-14
8.11569e-14
7.3779e-14
6.70718e-14
5.32775e-12
4.84341e-12
4.4031e-12
4.00281e-12
3.63892e-12
3.30811e-12
3.00737e-12
2.73398e-12
2.48543e-12
2.25948e-12
2.05408e-12
1.86734e-12
1.69758e-12
1.54326e-12
1.40296e-12
1.27542e-12
1.15947e-12
1.05407e-12
9.58242e-13
8.71129e-13
7.91936e-13
7.19941e-13
6.54492e-13