7 	0.00391112967796255 	2.42861286636753e-17 	0.263985843611926 	2.43837967698841e-05 	789.722724917983 	1.11987369983186e-08 	4.49102655645226e-38
7 	0.0118766651674914 	2.42861286636753e-17 	0.263985330000003 	0.000234931460678737 	280.46879053257 	9.50639816561253e-07 	0
7 	0.0201340015485761 	1.04083408558608e-17 	0.263980744224905 	0.00104504047588427 	65.2977573356521 	2.02116071851792e-05 	0
7 	0.028693828342395 	6.93889390390723e-18 	0.263970959300962 	0.00271064799403006 	26.3344487573699 	0.000109058412613772 	0
7 	0.0375672266585909 	1.04083408558608e-17 	0.263950728745553 	0.00478811664948827 	14.124064015488 	0.000257347786882937 	0
7 	0.0467656835403032 	1.04083408558608e-17 	0.263917124013567 	0.00674547952486509 	9.17491201643821 	0.000376708566941818 	0
7 	0.0563011068347007 	1.04083408558608e-17 	0.263871486762072 	0.00844336771111536 	6.74965461673941 	0.000457618786665115 	0
7 	0.0661858406082648 	1.04083408558608e-17 	0.26381676731391 	0.00992841682746265 	5.3640041721351 	0.000525140584968201 	0
7 	0.0764326811267815 	2.08166817117217e-17 	0.263755161872231 	0.0112615311188616 	4.4799792659296 	0.000592157026467605 	0
7 	0.0870548934207257 	2.77555756156289e-17 	0.263687986530641 	0.0124867130490463 	3.87117053791778 	0.000662796057672168 	0
7 	0.0980662284574838 	2.42861286636753e-17 	0.263616173943485 	0.0136338606096037 	3.42868119009738 	0.000738532845773826 	0
7 	0.109480940942647 	2.08166817117217e-17 	0.263540505452404 	0.0147236994248595 	3.09428586434209 	0.000820118365760803 	0
7 	0.121313807773416 	2.42861286636753e-17 	0.26346166574989 	0.0157711098076378 	2.83419526106375 	0.000908118837279116 	0
7 	0.13358014716801 	3.12250225675825e-17 	0.26338026766196 	0.0167871583839052 	2.62750625727606 	0.00100307921738524 	0
7 	0.146295838495838 	3.29597460435593e-17 	0.263296874245571 	0.017780341200678 	2.46061446530408 	0.00110557714239356 	0
7 	0.159477342834115 	3.46944695195361e-17 	0.26321201355511 	0.0187573631050315 	2.32429575461275 	0.0012162425456897 	0
7 	0.173141724277517 	4.16333634234434e-17 	0.263126186233496 	0.0197236398010515 	2.21208289812091 	0.00133576598938141 	0
7 	0.18730667202848 	4.68375338513738e-17 	0.263039868527623 	0.0206836288078148 	2.11931417727486 	0.0014649029212912 	0
7 	0.201990523296728 	5.03069808033274e-17 	0.262953512346372 	0.021641050993008 	2.04255070319681 	0.00160447608527733 	0
7 	0.217212287037676 	5.3776427755281e-17 	0.262867543077045 	0.0225990393747814 	1.97920586471297 	0.00175537664023829 	0
7 	0.232991668560441 	5.89805981832114e-17 	0.262782355535079 	0.0235602375185079 	1.92730183978725 	0.00191856387718063 	0
7 	0.249349095037321 	6.07153216591882e-17 	0.262698308279584 	0.0245268613410205 	1.88530489497817 	0.00209506308513143 	0
7 	0.266305741947753 	5.72458747072346e-17 	0.262615716427234 	0.025500732928194 	1.85201100783051 	0.00228596088642569 	0
7 	0.283883560490999 	5.55111512312578e-17 	0.262534843020691 	0.026483291688317 	1.82646444991357 	0.00249239715476834 	0
7 	0.30210530600303 	5.3776427755281e-17 	0.262455888950501 	0.0274755860347061 	1.80789841264529 	0.00271555241047966 	0
7 	0.320994567414413 	5.03069808033274e-17 	0.262378981382098 	0.0284782473824255 	1.79569061590657 	0.00295662934397866 	0
7 	0.340575797787321 	5.03069808033274e-17 	0.262304160596598 	0.0294914473103754 	1.78932921319857 	0.00321682684968665 	0
7 	0.360874345971201 	5.72458747072346e-17 	0.262231365119638 	0.0305148381471377 	1.78838580444088 	0.00349730466463896 	0
7 	0.38191648941809 	5.89805981832114e-17 	0.262160414981875 	0.031547476922302 	1.79249333454234 	0.00379913641889559 	0
7 	0.403729468200046 	5.8113236445223e-17 	0.262090992809043 	0.0325877325675912 	1.80132729600323 	0.00412324867609066 	0
7 	0.426341520272733 	6.76542155630955e-17 	0.262022621940666 	0.0336331764722457 	1.81458909054402 	0.00447034347342788 	0
7 	0.449781918030829 	7.54604712049911e-17 	0.261954640862526 	0.0346804570405479 	1.83199071598839 	0.00484080184979869 	0
7 	0.474081006202548 	7.63278329429795e-17 	0.261886178850024 	0.0357251598410151 	1.85324018233047 	0.00523456494217169 	0
7 	0.499270241132364 	7.97972798949331e-17 	0.261816147492325 	0.0367616564163278 	1.87802726451987 	0.00565098773167173 	0
7 	0.525382231502763 	8.32667268468867e-17 	0.261743211015929 	0.0377829470612468 	1.90600940399086 	0.00608867374080877 	0
7.00000000000001 	0.552450780547767 	7.67615138119737e-17 	0.261665462554105 	0.0387805056093537 	1.9367977860214 	0.00654536607261965 	0
7.00000000000001 	0.58051092981285 	6.57026516526216e-17 	0.261579704449394 	0.0397441347296504 	1.9699437466535 	0.00701815481887302 	0
7.00000000000001 	0.609599004517911 	5.63785129692462e-17 	0.261483590335697 	0.0406618409194271 	2.00492585426349 	0.00750559734135519 	0
7.00000000000001 	0.639752660582033 	4.96564594998361e-17 	0.261389568984626 	0.041519721768128 	2.0411377526043 	0.00813908762545293 	0
7.00000000000001 	0.671010933370887 	5.50774703622636e-17 	0.261310098997464 	0.0423074583497885 	2.07817943201707 	0.00878587721693507 	0
7.00000000000001 	0.703414288229901 	6.93889390390723e-17 	0.261217563096857 	0.0430074094173532 	2.11456720874491 	0.0095193979557915 	0
7.00000000000001 	0.737004672868607 	7.28583859910259e-17 	0.261074473838944 	0.0435703308000101 	2.14667992008368 	0.0101705940449222 	0
7.00000000000001 	0.771825571663977 	6.59194920871187e-17 	0.260869320855372 	0.0439390858028944 	2.17030336061072 	0.0106476279078046 	0
7.00000000000001 	0.807922061953054 	5.89805981832114e-17 	0.260602546842419 	0.0440667557734473 	2.18190319257179 	0.0109275622689859 	0
7.00000000000001 	0.845340872387743 	5.89805981832114e-17 	0.260274638995199 	0.0439221922554503 	2.1791541283585 	0.0110239068317528 	0
7.00000000000001 	0.88413044342731 	5.89805981832114e-17 	0.259882391817019 	0.0434881445863572 	2.16086244231715 	0.0109552188377973 	0
7.00000000000001 	0.924340990046898 	5.89805981832114e-17 	0.259418842678942 	0.0427584486629741 	2.12670477127124 	0.0107307881038169 	0
7.00000000000001 	0.966024566743243 	6.24500451351651e-17 	0.258874447423379 	0.0417376010689612 	2.07702710064691 	0.0103526328472145 	0
7.00000000000001 	1.00923513492173 	5.55111512312578e-17 	0.258238589466651 	0.0404424644003454 	2.01274787700804 	0.00982491892159584 	0
7.00000000000001 	1.05402863275206 	6.24500451351651e-17 	0.257500953899211 	0.0389041102943398 	1.9353277583832 	0.00916240156329068 	0
7.00000000000001 	1.10046304758287 	7.63278329429795e-17 	0.25665255436915 	0.0371678040630954 	1.84675398445397 	0.00839326616611607 	0
7.00000000000001 	1.14859849100923 	7.97972798949331e-17 	0.255686298000506 	0.0352912014581541 	1.74969598864478 	0.00755603760328471 	0
7.00000000000001 	1.19849727668995 	8.67361737988404e-17 	0.25459714650727 	0.0333458841305977 	1.64863050290761 	0.00669494798507848 	0
7.00000000000001 	1.25022400101563 	8.67361737988404e-17 	0.253383205173809 	0.0314091891451423 	1.54890613210912 	0.00585466499507943 	0
7.00000000000001 	1.30384562673186 	8.67361737988404e-17 	0.25204688459594 	0.0295365575523651 	1.45283617837544 	0.00507142443675339 	0
7.00000000000001 	1.35943156962566 	9.36750677027476e-17 	0.250593878290288 	0.0277576289849175 	1.36063626284445 	0.00436751219087509 	0
7.00000000000001 	1.41705378838763 	9.71445146547012e-17 	0.249031661941001 	0.0260877056931433 	1.27264237626643 	0.00375076649404722 	0
7.00000000000001 	1.47678687776592 	9.71445146547012e-17 	0.247368843517005 	0.0245304283544434 	1.18928781642496 	0.00321754027707245 	0
7.00000000000001 	1.50779776549243 	9.85539774789324e-17 	0.24649539871912 	0.0237658150126723 	1.14805188670245 	0.00296651624457233 	0
7.00000000000001 	1.53931529845551 	9.16150835750251e-17 	0.24559896742583 	0.0230604663828361 	1.10925900197135 	0.00275213891461387 	0
7.00000000000001 	1.60289781058851 	9.0205620750794e-17 	0.24378387059146 	0.0216986559956234 	1.0333758753043 	0.00235521803347298 	0
7.00000000000001 	1.66943891073267 	9.0205620750794e-17 	0.241881831758684 	0.0203854753691904 	0.958747453850126 	0.00200497861896324 	0
7.00000000000001 	1.73841760623657 	9.0205620750794e-17 	0.239925173943582 	0.0191225739652616 	0.887844815022291 	0.00169874959610825 	0
7.00000000000001 	1.8099231933566 	9.54097911787244e-17 	0.237938939541365 	0.0179041941758702 	0.824293945457088 	0.00143093788122001 	0
7.00000000000001 	1.88404823953249 	9.36750677027476e-17 	0.235959692789426 	0.0167175431118063 	0.770347863216148 	0.00118485847326609 	0
7.00000000000001 	1.96088870322038 	9.54097911787244e-17 	0.234038644741598 	0.0155729478736306 	0.726536313988026 	0.000960561447325272 	0
7.00000000000001 	2.02025965173185 	9.36750677027476e-17 	0.232581495403627 	0.0146901335260162 	0.698943839900369 	0.000798400382591407 	0
7.00000000000001 	2.06006301192217 	8.84708972748172e-17 	0.231573450447273 	0.0140850155151456 	0.682773273591066 	0.000692154080597197 	0
7.00000000000001 	2.09845978584128 	8.67361737988404e-17 	0.230666339794452 	0.0135346448811696 	0.670275712989344 	0.00059996766432874 	0
7.00000000000001 	2.13549967996946 	8.67361737988404e-17 	0.229812595098765 	0.0130123949021826 	0.660478891045938 	0.000516273777251705 	0
7.00000000000001 	2.17123064424048 	8.67361737988404e-17 	0.229009041366834 	0.0125168589549695 	0.653234209988758 	0.00044038959869686 	0
7.00000000000001 	2.20569893411516 	8.67361737988404e-17 	0.228253512306051 	0.0120468003996184 	0.64844468235373 	0.000371768147101474 	0
7.00000000000001 	2.23894917046123 	8.67361737988404e-17 	0.227543694023372 	0.0116011268232915 	0.646056268958382 	0.000309920538347545 	0
7.00000000000001 	2.27102439731726 	8.67361737988404e-17 	0.226877249538195 	0.0111788714228129 	0.646052082477426 	0.000254417095962441 	0
7.00000000000001 	2.30196613761522 	8.67361737988404e-17 	0.226251905013902 	0.0107792266043752 	0.648448863824903 	0.000204891633934309 	0
7.00000000000001 	2.33181444693392 	8.84708972748172e-17 	0.22566546152232 	0.0104014746772265 	0.653295226124998 	0.00016104267632861 	0
7.00000000000001 	2.3606079653529 	9.0205620750794e-17 	0.225115798805678 	0.010044982018966 	0.66067131172749 	0.000122635680804472 	0
7.00000000000001 	2.38838396747391 	8.84708972748172e-17 	0.224600880951671 	0.00970922718498336 	0.670689600008564 	8.95055863729458e-05 	0
7.00000000000001 	2.41517841067461 	8.84708972748172e-17 	0.224118760639752 	0.00939379889907483 	0.68349667133303 	6.15598623567731e-05 	0
7.00000000000001 	2.44102598165722 	9.0205620750794e-17 	0.223667581086891 	0.00909839529769138 	0.699275802576924 	3.87825943810423e-05 	0
7.00000000000001 	2.46596014135208 	9.0205620750794e-17 	0.223245576380172 	0.00882282454316571 	0.718250301578027 	2.12394057690987e-05 	0
7.00000000000001 	2.49001316823444 	9.0205620750794e-17 	0.222851070599442 	0.00856700543713051 	0.740687501243692 	9.08319993627601e-06 	0
7.00000000000001 	2.51321620011054 	9.19403442267708e-17 	0.22248247596065 	0.00833096777665551 	0.766903325983863 	2.56062210656495e-06 	0
7.00000000000001 	2.53559927442701 	9.36750677027476e-17 	0.222138290170951 	0.00811485484540153 	0.797267302633826 	2.01904057643965e-06 	0
7.00000000000001 	2.55719136715571 	9.36750677027476e-17 	0.221817093288778 	0.00791892068691 	0.832207828390468 	7.91370154547628e-06 	0
7.00000000000001 	2.57802043030466 	9.36750677027476e-17 	0.221517544162892 	0.00774350534954303 	0.8722175043069 	2.08145788477865e-05 	0
7.00000000000001 	2.59811342810315 	9.36750677027476e-17 	0.221238376295 	0.00758902879405727 	0.917858220746269 	4.14123225389598e-05 	0
7.00000000000001 	2.61749637190832 	9.36750677027476e-17 	0.22097839373616 	0.00745597719624363 	0.969765508111501 	7.05225014585129e-05 	0
7.00000000000001 	2.63619435387806 	9.36750677027476e-17 	0.220736466889313 	0.00734487844340751 	1.02865163257657 	0.00010908716497313 	0
7.00000000000001 	2.65423157945406 	9.36750677027476e-17 	0.220511528321052 	0.00725627049481273 	1.09530682767279 	0.000158172661349787 	0
7.00000000000001 	2.67163139869691 	9.36750677027476e-17 	0.22030256869706 	0.00719066256108613 	1.17059800427718 	0.000218962626545747 	0
7.00000000000001 	2.68841633651388 	9.36750677027476e-17 	0.220108632944271 	0.00714848941129213 	1.25546432396006 	0.00029274515099544 	0
7.00000000000001 	2.70460812181851 	9.71445146547012e-17 	0.219928816742531 	0.00713005945048011 	1.35090919094075 	0.000380893415511335 	0
7.00000000000001 	2.72022771565972 	1.02348685082632e-16 	0.219762263316849 	0.00713549847277698 	1.4579885478533 	0.000484839454584692 	0
7.00000000000001 	2.73529533835695 	1.04083408558608e-16 	0.219608160536554 	0.00716469436194571 	1.57779581407566 	0.000606041209900054 	0
7.00000000000001 	2.74983049567626 	1.04083408558608e-16 	0.219465738534515 	0.00721724501796681 	1.71144440411357 	0.000745943625637803 	0
7.00000000000001 	2.76385200408157 	1.05818132034585e-16 	0.219334267759433 	0.00729241296165211 	1.86004950742569 	0.000905935436661953 	0
7.00000000000001 	2.77737801509344 	1.04083408558608e-16 	0.219213057313699 	0.00738909107058325 	2.02471154907302 	0.00108730400136263 	0
7.00000000000001 	2.79042603878708 	1.04083408558608e-16 	0.219101453406576 	0.00750578375026138 	2.20650436373332 	0.00129119105581106 	0
7.00000000000001 	2.80301296646003 	1.07552855510562e-16 	0.218998838040506 	0.00764060683869932 	2.40647150579578 	0.0015185529025774 	0
7.00000000000001 	2.81515509249873 	1.07552855510562e-16 	0.218904628887095 	0.0077913067196883 	2.62563428114437 	0.00177012922387419 	0
7.00000000000001 	2.82686813547238 	1.07552855510562e-16 	0.21881827994369 	0.00795529787073758 	2.86501502941937 	0.00204642511795584 	0
7.00000000000001 	2.83816725848143 	1.07552855510562e-16 	0.218739270073918 	0.0081297174632506 	3.12567890431773 	0.00234945195816116 	0
7.00000000000001 	2.84906708878692 	1.07552855510562e-16 	0.218667071976497 	0.00831151826222601 	3.40894329450595 	0.00269304108615188 	0
7.00000000000001 	2.85958173674617 	1.05818132034585e-16 	0.218601200410245 	0.00849772320588523 	3.71756056348019 	0.00307813754154874 	0
7.00000000000001 	2.86972481407933 	1.05818132034585e-16 	0.218541251304159 	0.00868514054942693 	4.05499979920516 	0.00350747465175425 	0
7.00000000000001 	2.87950945149043 	1.07552855510562e-16 	0.218486863177278 	0.00886833027224123 	4.42223437210235 	0.00397441789932627 	0
7.00000000000001 	2.88894831566567 	1.07552855510562e-16 	0.218437678381473 	0.00903971199613312 	4.81752847042784 	0.00445818234095569 	0
7.00000000000001 	2.89805362567107 	1.09287578986539e-16 	0.218393335961494 	0.00919162904834541 	5.23877982103772 	0.00494550461949375 	0
7.00000000000001 	2.90683716877067 	1.11022302462516e-16 	0.218353503585052 	0.00931753197329596 	5.68526415578709 	0.00543066380038041 	0
7.00000000000001 	2.9153103156857 	1.11022302462516e-16 	0.218317891895666 	0.00941226798551928 	6.1585618734469 	0.00591263129029152 	0
7.00000000000001 	2.92348403531449 	1.11022302462516e-16 	0.2182862522267 	0.00947189891005223 	6.66301875829625 	0.00639317610805408 	0
7.00000000000001 	2.9313689089323 	1.11022302462516e-16 	0.218258370813087 	0.00949335057400505 	7.20609165774941 	0.00687602181855715 	0
7.00000000000001 	2.93897514388925 	1.11022302462516e-16 	0.218234064099471 	0.00947403409676871 	7.79883586747774 	0.00736676824415421 	0
7.00000000000001 	2.94631258682425 	1.14491749414469e-16 	0.218213174929659 	0.00941146552028422 	8.45672139616558 	0.00787320867697683 	0
7.00000000000001 	2.95339073641193 	1.14491749414469e-16 	0.218195567959666 	0.00930285257017196 	9.20098461313563 	0.00840572343904398 	0
7.00000000000001 	2.96021875565916 	1.14491749414469e-16 	0.218181122316181 	0.00914459663387889 	10.060735911183 	0.00897745690433953 	0
7.00000000000001 	2.96680548376697 	1.17961196366423e-16 	0.218169719853642 	0.00893166552334139 	11.0759584521041 	0.00960391618188198 	0
7.00000000000001 	2.97315944757337 	1.17961196366423e-16 	0.218161227850318 	0.00865675037534035 	12.3025904039977 	0.0103013222433579 	0
7.00000000000001 	2.97928887259171 	1.17961196366423e-16 	0.218155475964165 	0.00830913060666834 	13.8206578576922 	0.0110824348880692 	0
7.00000000000001 	2.98520169365903 	1.17961196366423e-16 	0.21815223217665 	0.00787325381507815 	15.7472658431318 	0.0119476540763953 	0
7.00000000000001 	2.99090556520807 	1.196959198424e-16 	0.218151192998672 	0.00732708483443869 	18.2589746733885 	0.0128684582629028 	0
7.00000000000001 	2.99640787117634 	1.21430643318376e-16 	0.218151997190581 	0.0066403864315235 	21.633128724655 	0.0137519467499141 	0
7.00000000000001 	3.00171573456493 	1.2490009027033e-16 	0.218154197759418 	0.00577363774606179 	26.3313135990312 	0.014307752264865 	0
7.00000000000001 	3.00683602665963 	1.28369537222284e-16 	0.218157175681331 	0.00468794742308761 	33.1844161922734 	0.0138928617284813 	0
7.00000000000001 	3.01177537592613 	1.33573707650214e-16 	0.218160209818756 	0.00338919056742616 	43.9069716856884 	0.01154050035054 	0
7.00000000000001 	3.01654017659086 	1.38777878078145e-16 	0.21816271283462 	0.00202334042405295 	62.9117093610957 	0.00705646245121086 	0
7.00000000000001 	3.02113659691865 	1.38777878078145e-16 	0.218164515005777 	0.000909643759172397 	104.521752930206 	0.00265017736855125 	0
7.00000000000001 	3.02557058719785 	1.35308431126191e-16 	0.218165935130308 	0.000279890364314907 	228.063277422697 	0.000531797852720757 	0
7.00000000000001 	3.02984788744325 	1.31838984174237e-16 	0.218167401041196 	5.02688844263918e-05 	840.602297749792 	5.0411598842952e-05 	0
