7 	0.00391112967796255 	2.42861286636753e-17 	-0.00491597054042788 	-4.7697298631618e-05 	3.75780953049235e-21
7 	0.0118766651674914 	2.42861286636753e-17 	-0.0103072352001133 	-0.000126911660370828 	7.76801512515979e-21
7 	0.0201340015485761 	1.04083408558608e-17 	-0.00872173215889502 	-0.00029840061180601 	3.22990681589267e-21
7 	0.028693828342395 	6.93889390390723e-18 	-0.00209465993251634 	-0.000574173078505834 	-1.60345494739203e-20
7 	0.0375672266585909 	1.04083408558608e-17 	0.00580717107034969 	-0.00090324813083479 	-2.59425786774604e-21
7 	0.0467656835403032 	1.04083408558608e-17 	0.0128872578914366 	-0.00126203597851615 	3.32526480909652e-21
7 	0.0563011068347007 	1.04083408558608e-17 	0.0189893461167374 	-0.00164965770113853 	4.91185153819973e-22
7 	0.0661858406082648 	1.04083408558608e-17 	0.0244389856624861 	-0.00206488762186835 	3.02842466683082e-21
7 	0.0764326811267815 	2.08166817117217e-17 	0.0294950207383811 	-0.00250445749714792 	2.87221104739786e-21
7 	0.0870548934207257 	2.77555756156289e-17 	0.0343221270871111 	-0.0029660450152428 	2.37402673345697e-21
7 	0.0980662284574838 	2.42861286636753e-17 	0.0390271408137421 	-0.00344848292972426 	2.02562862628381e-21
7 	0.109480940942647 	2.08166817117217e-17 	0.0436838700747943 	-0.00395118960541878 	6.24407202047145e-22
7 	0.121313807773416 	2.42861286636753e-17 	0.0483469015127925 	-0.00447383689129599 	3.49216217348956e-22
7 	0.13358014716801 	3.12250225675825e-17 	0.0530593075935544 	-0.00501621790024212 	8.58869265204062e-22
7 	0.146295838495838 	3.29597460435593e-17 	0.0578571373054602 	-0.00557818269380243 	-3.91287167931213e-22
7 	0.159477342834115 	3.46944695195361e-17 	0.0627721687301994 	-0.00615959414727985 	1.48882155794447e-21
7 	0.173141724277517 	4.16333634234434e-17 	0.0678336852278836 	-0.00676029315285997 	6.72145580683833e-22
7 	0.18730667202848 	4.68375338513738e-17 	0.0730696814699751 	-0.00738006905048151 	3.1526249598426e-21
7 	0.201990523296728 	5.03069808033274e-17 	0.0785077248043958 	-0.00801863230334643 	-1.82090052689272e-21
7 	0.217212287037676 	5.3776427755281e-17 	0.0841756019732503 	-0.00867558736384501 	1.4251490163462e-21
7 	0.232991668560441 	5.89805981832114e-17 	0.0901018286764171 	-0.0093504043704842 	1.59724151898417e-21
7 	0.249349095037321 	6.07153216591882e-17 	0.0963160693448481 	-0.0100423886917783 	-1.27742030641097e-21
7 	0.266305741947753 	5.72458747072346e-17 	0.102849496438662 	-0.0107506475236738 	3.08775662221087e-22
7 	0.283883560490999 	5.55111512312578e-17 	0.109735107233357 	-0.0114740528540197 	1.41349387318295e-22
7 	0.30210530600303 	5.3776427755281e-17 	0.117008008481776 	-0.0122112001754128 	2.58431792913553e-22
7 	0.320994567414413 	5.03069808033274e-17 	0.124705673890423 	-0.0129603623784317 	4.07120736377456e-21
7 	0.340575797787321 	5.03069808033274e-17 	0.132868175055076 	-0.0137194383052515 	4.32485404587831e-21
7 	0.360874345971201 	5.72458747072346e-17 	0.141538382763364 	-0.0144858954948124 	4.23609252929125e-22
7 	0.38191648941809 	5.89805981832114e-17 	0.150762132003373 	-0.0152567067011096 	0
7 	0.403729468200046 	5.8113236445223e-17 	0.160588340355807 	-0.0160282798543612 	9.07846077920955e-18
7 	0.426341520272733 	6.76542155630955e-17 	0.171069065533683 	-0.0167963814816128 	8.03743769309556e-18
7 	0.449781918030829 	7.54604712049911e-17 	0.182259483633232 	-0.0175560542417667 	-7.94151824301849e-18
7 	0.474081006202548 	7.63278329429795e-17 	0.194217765116355 	-0.0183015273399157 	-6.82945409723564e-18
7 	0.499270241132364 	7.97972798949331e-17 	0.207004819742981 	-0.0190261073201351 	-2.35312457251947e-22
7 	0.525382231502763 	8.32667268468867e-17 	0.220683873216767 	-0.0197220376283333 	-5.97882772887918e-22
7.00000000000001 	0.552450780547767 	7.67615138119737e-17 	0.235319839451525 	-0.0203804665743119 	-9.77039961153866e-21
7.00000000000001 	0.58051092981285 	6.57026516526216e-17 	0.250978522444561 	-0.020991960219404 	-9.80401558633378e-21
7.00000000000001 	0.609599004517911 	5.63785129692462e-17 	0.267726048330404 	-0.0215467560981017 	-1.01246482640694e-20
7.00000000000001 	0.639752660582033 	4.96564594998361e-17 	0.285631473540759 	-0.0220233410512194 	1.64513039677862e-22
7.00000000000001 	0.671010933370887 	5.50774703622636e-17 	0.305116528118966 	-0.0223958811637208 	2.44450002637945e-24
7.00000000000001 	0.703414288229901 	6.93889390390723e-17 	0.326760307637645 	-0.0226377439624027 	4.20841358677913e-18
7.00000000000001 	0.737004672868607 	7.28583859910259e-17 	0.350639635796013 	-0.0227248317607507 	3.10695541895165e-16
7.00000000000001 	0.771825571663977 	6.59194920871187e-17 	0.376558942464949 	-0.0226529032867029 	-3.00584988951314e-16
7.00000000000001 	0.807922061953054 	5.89805981832114e-17 	0.404223620407426 	-0.0224249207896318 	-1.46488400386852e-17
7.00000000000001 	0.845340872387743 	5.89805981832114e-17 	0.433362439985833 	-0.0220423363210186 	5.60374100396216e-22
7.00000000000001 	0.88413044342731 	5.89805981832114e-17 	0.463758620526491 	-0.0215037203628451 	1.14734483866807e-17
7.00000000000001 	0.924340990046898 	5.89805981832114e-17 	0.495219443468979 	-0.0208072107477546 	2.56862935613663e-16
7.00000000000001 	0.966024566743243 	6.24500451351651e-17 	0.527529215165897 	-0.0199543486016838 	-2.57161270960998e-16
7.00000000000001 	1.00923513492173 	5.55111512312578e-17 	0.560416756837472 	-0.0189535592839779 	-1.9015810983334e-17
7.00000000000001 	1.05402863275206 	6.24500451351651e-17 	0.593549384057912 	-0.0178220636046462 	-1.22555224884632e-20
7.00000000000001 	1.10046304758287 	7.63278329429795e-17 	0.626550702715834 	-0.0165857534275724 	-1.67742599436385e-21
7.00000000000001 	1.14859849100923 	7.97972798949331e-17 	0.659030983115361 	-0.0152774547722518 	-1.40977078948659e-20
7.00000000000001 	1.19849727668995 	8.67361737988404e-17 	0.690617131154257 	-0.0139346569485955 	-4.29097370701617e-21
7.00000000000001 	1.25022400101563 	8.67361737988404e-17 	0.720983370302318 	-0.0125957281040582 	-1.37654068061297e-20
7.00000000000001 	1.30384562673186 	8.67361737988404e-17 	0.749892830118851 	-0.0112946399355665 	-3.21888194766144e-20
7.00000000000001 	1.35943156962566 	9.36750677027476e-17 	0.777225881430901 	-0.0100564135570589 	-1.66423718378773e-20
7.00000000000001 	1.41705378838763 	9.71445146547012e-17 	0.802964543151901 	-0.00889611732557841 	-3.20801426444043e-20
7.00000000000001 	1.47678687776592 	9.71445146547012e-17 	0.827150151549609 	-0.00782115650820189 	-1.15295588890503e-20
7.00000000000001 	1.50779776549243 	9.85539774789324e-17 	0.83907552093362 	-0.00729685421230745 	0
7.00000000000001 	1.53931529845551 	9.16150835750251e-17 	0.850085305554853 	-0.00682317824388427 	0
7.00000000000001 	1.60289781058851 	9.0205620750794e-17 	0.871192113092775 	-0.00592916829046067 	4.47988227786121e-21
7.00000000000001 	1.66943891073267 	9.0205620750794e-17 	0.891114482145823 	-0.00511252029271032 	1.59432478871737e-20
7.00000000000001 	1.73841760623657 	9.0205620750794e-17 	0.909656793300519 	-0.00437935622113123 	1.00766394515225e-20
7.00000000000001 	1.8099231933566 	9.54097911787244e-17 	0.926858211253284 	-0.00371423289509114 	1.68611061216772e-20
7.00000000000001 	1.88404823953249 	9.36750677027476e-17 	0.942856273888161 	-0.00307966601511318 	-8.65927297425128e-21
7.00000000000001 	1.96088870322038 	9.54097911787244e-17 	0.95742123419153 	-0.00248491659698354 	9.07326790475693e-20
7.00000000000001 	2.02025965173185 	9.36750677027476e-17 	0.967862117260519 	-0.00201349296859614 	6.38528616467307e-21
7.00000000000001 	2.06006301192217 	8.84708972748172e-17 	0.974650733302555 	-0.00170120241577416 	0
7.00000000000001 	2.09845978584128 	8.67361737988404e-17 	0.980524627121371 	-0.00142633969795923 	0
7.00000000000001 	2.13549967996946 	8.67361737988404e-17 	0.985825134237153 	-0.00117101989589243 	0
7.00000000000001 	2.17123064424048 	8.67361737988404e-17 	0.99059371757215 	-0.000933666349640698 	0
7.00000000000001 	2.20569893411516 	8.67361737988404e-17 	0.994866603884011 	-0.000712989443892772 	0
7.00000000000001 	2.23894917046123 	8.67361737988404e-17 	0.99867523885258 	-0.00050756614373615 	0
7.00000000000001 	2.27102439731726 	8.67361737988404e-17 	1.00204669206061 	-0.000316079011783552 	0
7.00000000000001 	2.30196613761522 	8.67361737988404e-17 	1.00500398783641 	-0.000137348691083621 	0
7.00000000000001 	2.33181444693392 	8.84708972748172e-17 	1.00756638088059 	2.96817836219652e-05 	0
7.00000000000001 	2.3606079653529 	9.0205620750794e-17 	1.00974958831379 	0.000185960590147613 	0
7.00000000000001 	2.38838396747391 	8.84708972748172e-17 	1.01156597320957 	0.000332338511698989 	0
7.00000000000001 	2.41517841067461 	8.84708972748172e-17 	1.01302468885559 	0.000469580415825504 	0
7.00000000000001 	2.44102598165722 	9.0205620750794e-17 	1.01413179381407 	0.00059837669731192 	0
7.00000000000001 	2.46596014135208 	9.0205620750794e-17 	1.01489034327227 	0.000719353969879905 	0
7.00000000000001 	2.49001316823444 	9.0205620750794e-17 	1.01530046286384 	0.000833084843779687 	0
7.00000000000001 	2.51321620011054 	9.19403442267708e-17 	1.01535941197147 	0.000940096775607516 	0
7.00000000000001 	2.53559927442701 	9.36750677027476e-17 	1.01506164459586 	0.00104087989337276 	0
7.00000000000001 	2.55719136715571 	9.36750677027476e-17 	1.01439887803034 	0.00113589373141286 	0
7.00000000000001 	2.57802043030466 	9.36750677027476e-17 	1.01336018084967 	0.00122557307726029 	0
7.00000000000001 	2.59811342810315 	9.36750677027476e-17 	1.01193208959895 	0.00131033258641149 	0
7.00000000000001 	2.61749637190832 	9.36750677027476e-17 	1.01009876767003 	0.00139056979934452 	0
7.00000000000001 	2.63619435387806 	9.36750677027476e-17 	1.00784221946 	0.00146666660697846 	0
7.00000000000001 	2.65423157945406 	9.36750677027476e-17 	1.00514257059654 	0.00153898884519187 	0
7.00000000000001 	2.67163139869691 	9.36750677027476e-17 	1.00197842172741 	0.00160788373985128 	0
7.00000000000001 	2.68841633651388 	9.36750677027476e-17 	0.998327278234293 	0.00167367503355869 	0
7.00000000000001 	2.70460812181851 	9.71445146547012e-17 	0.994166051089414 	0.00173665583547575 	0
7.00000000000001 	2.72022771565972 	1.02348685082632e-16 	0.989471614923007 	0.00179707938901823 	0
7.00000000000001 	2.73529533835695 	1.04083408558608e-16 	0.9842214011221 	0.00185514823536442 	0
7.00000000000001 	2.74983049567626 	1.04083408558608e-16 	0.978393996978021 	0.00191100233785786 	0
7.00000000000001 	2.76385200408157 	1.05818132034585e-16 	0.971969715329465 	0.00196470738863991 	0
7.00000000000001 	2.77737801509344 	1.04083408558608e-16 	0.9649310957774 	0.00201624446730772 	0
7.00000000000001 	2.79042603878708 	1.04083408558608e-16 	0.957263299896538 	0.00206550192896397 	0
7.00000000000001 	2.80301296646003 	1.07552855510562e-16 	0.948954368240761 	0.00211227039555333 	0
7.00000000000001 	2.81515509249873 	1.07552855510562e-16 	0.939995313907689 	0.00215624319613237 	0
7.00000000000001 	2.82686813547238 	1.07552855510562e-16 	0.930380033983992 	0.00219702665422502 	0
7.00000000000001 	2.83816725848143 	1.07552855510562e-16 	0.920105027760835 	0.00223414081682471 	0
7.00000000000001 	2.84906708878692 	1.07552855510562e-16 	0.909161752224972 	0.00226697669022019 	0
7.00000000000001 	2.85958173674617 	1.05818132034585e-16 	0.897478765508354 	0.0022949770636084 	0
7.00000000000001 	2.86972481407933 	1.05818132034585e-16 	0.884929115345092 	0.00231745369742144 	0
7.00000000000001 	2.87950945149043 	1.07552855510562e-16 	0.871450984639102 	0.00233336286829703 	0
7.00000000000001 	2.88894831566567 	1.07552855510562e-16 	0.857080826199904 	0.00234138393165022 	0
7.00000000000001 	2.89805362567107 	1.09287578986539e-16 	0.841898702090054 	0.00234017077648408 	0
7.00000000000001 	2.90683716877067 	1.11022302462516e-16 	0.825987834174627 	0.0023284576747751 	0
7.00000000000001 	2.9153103156857 	1.11022302462516e-16 	0.809414744938455 	0.00230513023846832 	0
7.00000000000001 	2.92348403531449 	1.11022302462516e-16 	0.792221565109599 	0.00226927549089268 	0
7.00000000000001 	2.9313689089323 	1.11022302462516e-16 	0.774423484354069 	0.00222020801729662 	0
7.00000000000001 	2.93897514388925 	1.11022302462516e-16 	0.756006963475343 	0.0021574805109322 	0
7.00000000000001 	2.94631258682425 	1.14491749414469e-16 	0.736926489304321 	0.00208088673824718 	0
7.00000000000001 	2.95339073641193 	1.14491749414469e-16 	0.717098841022827 	0.00199046194233923 	0
7.00000000000001 	2.96021875565916 	1.14491749414469e-16 	0.696394243416623 	0.00188648404528457 	0
7.00000000000001 	2.96680548376697 	1.17961196366423e-16 	0.674623734594782 	0.00176947922891531 	0
7.00000000000001 	2.97315944757337 	1.17961196366423e-16 	0.651521750666771 	0.00164023534916519 	0
7.00000000000001 	2.97928887259171 	1.17961196366423e-16 	0.626722447903188 	0.00149982409342591 	0
7.00000000000001 	2.98520169365903 	1.17961196366423e-16 	0.599727725781708 	0.00134963278699546 	0
7.00000000000001 	2.99090556520807 	1.196959198424e-16 	0.569863407221456 	0.00119143496101048 	0
7.00000000000001 	2.99640787117634 	1.21430643318376e-16 	0.536211810151373 	0.00102757412901791 	0
7.00000000000001 	3.00171573456493 	1.2490009027033e-16 	0.49749003486102 	0.000860958923954705 	0
7.00000000000001 	3.00683602665963 	1.28369537222284e-16 	0.451957614431081 	0.000694748903726041 	0
7.00000000000001 	3.01177537592613 	1.33573707650214e-16 	0.397657480317982 	0.000532529779275106 	0
7.00000000000001 	3.01654017659086 	1.38777878078145e-16 	0.333501218075607 	0.000378762493921427 	0
7.00000000000001 	3.02113659691865 	1.38777878078145e-16 	0.261203906812205 	0.00024082179477933 	0
7.00000000000001 	3.02557058719785 	1.35308431126191e-16 	0.185339753042658 	0.000128341046210916 	0
7.00000000000001 	3.02984788744325 	1.31838984174237e-16 	0.109912176609355 	4.94492259961262e-05 	0
