# Residuals            
# Time                 	Ux                     	Uy                     	p                      	k                      	omega                  
1                      	9.999999999658901e-01	1.000000000000000e+00	1.000000000000000e+00	9.999999999993383e-01	4.095272687256623e-02
2                      	7.802182385446276e-01	8.369261614072599e-01	9.865325569434896e-01	3.223947328123354e-01	1.319896489859505e-02
3                      	1.714683022503349e-01	1.289792509028945e-01	9.238881579034792e-01	1.698801033794404e-01	1.992529618922354e-03
4                      	1.660689205062418e-01	2.829193796065208e-01	4.506477124536019e-01	1.102273386587594e-01	1.905268216684740e-03
5                      	4.741347080962932e-01	6.758198015359225e-01	9.255792032516084e-01	6.111498099939353e-02	1.266983361016124e-03
6                      	4.698889295528994e-01	3.932448875864196e-01	8.284154788193908e-01	4.113914548312615e-02	1.211692147620267e-03
7                      	4.404855895715160e-01	7.631226060689910e-01	6.194545007917832e-01	3.046504287568221e-02	9.862071882508299e-04
8                      	4.242197693346365e-01	4.503991230091894e-01	9.138595039508518e-01	2.355659466812422e-02	7.789993066932316e-04
9                      	1.889792408115815e-01	1.469320650152409e-01	7.537251206355391e-01	2.084072831372614e-02	6.971593415557410e-04
10                     	1.035791919187225e-01	1.952794326166349e-01	5.901299658022445e-01	1.741974065351968e-02	7.007132484757816e-04
11                     	1.948708767360312e-01	3.048030528893891e-01	8.132097347350242e-01	1.637026685570777e-02	5.016604320375238e-04
12                     	2.342346805066043e-01	2.886831817608361e-01	7.562903924887664e-01	1.497947376960552e-02	5.325613800625013e-04
13                     	1.735317042883005e-01	3.063593905372939e-01	6.424917680535102e-01	1.377834480225056e-02	4.216816306621967e-04
14                     	1.759208728453008e-01	2.127417841410512e-01	8.451645941678614e-01	1.362710906736137e-02	3.041093233739676e-04
15                     	1.340556477296518e-01	1.360887831120184e-01	6.653595855986735e-01	1.417280784201330e-02	2.817076516396131e-04
16                     	7.435709862791012e-02	1.306402360147188e-01	5.793765353949110e-01	1.283170752740170e-02	2.427214961308584e-04
17                     	8.013670379133786e-02	1.324262346328490e-01	7.058694399615438e-01	1.356638286957398e-02	2.309784567527849e-04
18                     	1.029841489362252e-01	1.459573673063007e-01	7.347854917530238e-01	1.284827082908362e-02	1.952038578477167e-04
19                     	8.088613530517101e-02	1.350300464899135e-01	6.648983363241834e-01	1.189541011410734e-02	1.511873527612255e-04
20                     	6.819043163881282e-02	9.992346455232694e-02	7.758825445706108e-01	1.245543184693401e-02	1.327977696975326e-04
21                     	6.953302500704737e-02	9.343842115941965e-02	6.347298856183421e-01	1.211511013779153e-02	1.281858740825918e-04
22                     	4.677806730439347e-02	7.984620294248151e-02	5.753590958859607e-01	1.240317575830633e-02	1.148398190807324e-04
23                     	3.793040587317335e-02	6.854326504667844e-02	6.144517171271620e-01	1.326339654368824e-02	1.127527263723567e-04
24                     	4.585029603892541e-02	7.452312334650195e-02	6.604250712730576e-01	1.390472018428706e-02	1.016053350498547e-04
25                     	4.065072701051395e-02	6.898955000538272e-02	7.326018981060960e-01	1.452554913283875e-02	8.718386163818389e-05
26                     	3.056810800851392e-02	5.883267974557565e-02	7.435205689654379e-01	1.536584191847556e-02	9.214660102168421e-05
27                     	3.243901478640393e-02	5.373975889465568e-02	6.590094310073924e-01	1.626865705763687e-02	8.255410188306632e-05
28                     	2.706279461603342e-02	4.692440151782740e-02	5.916483796243137e-01	1.730099653617679e-02	8.004073899571541e-05
29                     	2.035393812394707e-02	4.156614339575232e-02	5.790956449496674e-01	1.897167914672116e-02	7.630256242063475e-05
30                     	2.167483916996820e-02	3.922878688074612e-02	5.883315400398970e-01	2.146750561582491e-02	7.727473702582150e-05
31                     	2.124047994153886e-02	3.778796411107070e-02	6.174900696801882e-01	2.492644508417632e-02	7.543936773751395e-05
32                     	1.621316917636263e-02	3.490017263425953e-02	6.421417718906752e-01	2.894198039738951e-02	7.604217753281428e-05
33                     	1.577788880679933e-02	3.088714096923156e-02	6.251778929857675e-01	3.316427813904022e-02	7.695356187317220e-05
34                     	1.608974066059835e-02	2.821884485864211e-02	5.854041979250815e-01	3.757745678940428e-02	7.643677427264356e-05
35                     	1.296389659699577e-02	2.576386048084296e-02	5.605767554159238e-01	4.240156652035640e-02	7.786820721029996e-05
36                     	1.169249620851393e-02	2.315075630083134e-02	5.478246843198855e-01	4.746048150371899e-02	7.910679486208037e-05
37                     	1.202008953770266e-02	2.315185381929097e-02	5.503626549405072e-01	5.273859419579340e-02	8.060674957970318e-05
38                     	1.044598199521105e-02	2.251048496972901e-02	5.547677816776645e-01	5.716498185389676e-02	8.173490431458331e-05
39                     	1.011969731496245e-02	2.055335354904848e-02	5.461492185652725e-01	6.166381089165448e-02	8.161286325974181e-05
40                     	1.111951265858451e-02	1.926396380282535e-02	5.242725540651204e-01	6.416577077680292e-02	8.132619572591304e-05
41                     	1.024719818040515e-02	1.739942913272297e-02	4.987688780856950e-01	6.482865583571705e-02	8.166183607760407e-05
42                     	8.724886819680906e-03	1.595903856323491e-02	4.790680601266732e-01	6.400707659239838e-02	9.385836131235045e-05
43                     	8.352945392071978e-03	1.641684758443946e-02	4.758336798262771e-01	6.295394880191955e-02	9.652811052102497e-05
44                     	8.191627556084050e-03	1.681120221749874e-02	4.732669731541658e-01	6.226925558650986e-02	8.828894410863686e-05
45                     	8.480045648508055e-03	1.661145452698648e-02	4.692647725608216e-01	6.012560316489206e-02	8.703012919058516e-05
46                     	8.884967559050265e-03	1.537961603922727e-02	4.458614868366225e-01	5.475307749839121e-02	8.877609118198955e-05
47                     	8.640108558700774e-03	1.406445648315187e-02	4.180381681821629e-01	4.764050865681858e-02	8.895934872290670e-05
48                     	7.966699745755694e-03	1.346847812034211e-02	3.952623293480239e-01	4.310375121559239e-02	8.995240253612586e-05
49                     	7.575546614627157e-03	1.333338799379523e-02	3.908070241170997e-01	4.237340127707107e-02	8.973801873454228e-05
50                     	7.566332172820375e-03	1.371352729427182e-02	3.922169236195514e-01	4.106193450632875e-02	8.986854390271165e-05
51                     	7.702414390006613e-03	1.388076078458314e-02	3.795012351573950e-01	3.756617009145158e-02	9.639301135629792e-05
52                     	7.797183348533843e-03	1.336954030188674e-02	3.695339152477520e-01	3.422315912099170e-02	9.646296524916511e-05
53                     	7.711619144828261e-03	1.289171237383639e-02	3.604777450197481e-01	3.329803821611534e-02	9.682870425362486e-05
54                     	7.502396505282126e-03	1.259510096086337e-02	3.481135517312299e-01	3.337876443509111e-02	9.637017721363817e-05
55                     	7.377292318881741e-03	1.247580237526672e-02	3.421218968331184e-01	3.488478857766233e-02	9.820560289086341e-05
56                     	7.378861840237899e-03	1.252963623759919e-02	3.303255504618813e-01	3.643331905280557e-02	9.945380950922003e-05
57                     	7.355958596730237e-03	1.261752382846711e-02	3.155937319729771e-01	3.713164173520712e-02	1.011625900296674e-04
58                     	7.354276759950127e-03	1.269228903980642e-02	3.101631601936540e-01	3.684917665245532e-02	1.046122635763409e-04
59                     	7.374109367153355e-03	1.292414327309350e-02	3.044133271799159e-01	3.610397145782207e-02	1.030725119941602e-04
60                     	7.277254135761229e-03	1.254509134709881e-02	3.002134672393316e-01	3.540147718902061e-02	1.022806092284515e-04
61                     	7.267268033990558e-03	1.212790261857436e-02	2.942045463718498e-01	3.623383550169298e-02	1.012057950069281e-04
62                     	7.338094669946699e-03	1.205497782668905e-02	2.929219408178141e-01	3.794834952442441e-02	1.034331011142995e-04
63                     	7.387651897942158e-03	1.238394878182058e-02	2.827210678906974e-01	3.830918686106219e-02	1.056710148145989e-04
64                     	7.436801739493380e-03	1.279718690740664e-02	2.733373658581806e-01	3.826831577417878e-02	1.069458568757554e-04
65                     	7.464952971668116e-03	1.300368214328795e-02	2.662968562023099e-01	3.783274385235182e-02	1.125726815051549e-04
66                     	7.500158664852280e-03	1.324115958378342e-02	2.618458874261779e-01	3.826485762313718e-02	1.121926996888018e-04
67                     	7.500646916871279e-03	1.308364987431938e-02	2.635288322817943e-01	3.860583848791851e-02	1.119308709697206e-04
68                     	7.570140410487753e-03	1.318638853958782e-02	2.651863997601507e-01	3.891894926066926e-02	1.106058978702290e-04
69                     	7.659359573603768e-03	1.359891839736724e-02	2.636110327464526e-01	3.881595764099171e-02	1.144299199054893e-04
70                     	7.728374273991752e-03	1.414711626195880e-02	2.572017229618537e-01	3.837874246634741e-02	1.173582661129940e-04
71                     	7.799648524099139e-03	1.462859837376803e-02	2.495240969643396e-01	3.750268392057621e-02	1.210041862257489e-04
72                     	7.914866298101265e-03	1.495854731893795e-02	2.453464660007029e-01	3.713831942553154e-02	1.244650633178656e-04
73                     	8.086929635245172e-03	1.528015432935890e-02	2.500407992146263e-01	3.719358225423772e-02	1.283978305237715e-04
74                     	8.236567019724070e-03	1.575746749117547e-02	2.504152788425590e-01	3.701615410910802e-02	1.334770229886224e-04
75                     	8.336210156634584e-03	1.640169627238197e-02	2.462366535855429e-01	3.671970793075198e-02	1.367044428849282e-04
76                     	8.477875490401280e-03	1.700688566342605e-02	2.460520577628053e-01	3.684083899827107e-02	1.399311408308030e-04
77                     	8.726167709754097e-03	1.757256361590611e-02	2.877153598085418e-01	3.712684956768773e-02	1.447354999588269e-04
78                     	8.968958094124813e-03	1.822560373226889e-02	2.871424339424599e-01	3.640462241365897e-02	1.490890714339251e-04
79                     	9.052447072736614e-03	1.890460644881645e-02	2.716004851122547e-01	3.570619723972288e-02	1.499052250324520e-04
80                     	9.022171910442668e-03	1.956678326103527e-02	2.685872059018682e-01	3.508805998167162e-02	1.602245259733752e-04
81                     	8.978136510490013e-03	2.017772577966110e-02	2.835962360136276e-01	3.537123738808689e-02	1.578324935658578e-04
82                     	9.201030147147423e-03	2.055504083602483e-02	3.200831018224617e-01	3.659617163178030e-02	1.624216970275693e-04
83                     	9.588816511156588e-03	2.084587771190364e-02	3.389457539898578e-01	3.779214085025599e-02	1.628774126991784e-04
84                     	9.816034944987595e-03	2.150963595246401e-02	3.081321751997989e-01	3.803165391362535e-02	1.614823239017775e-04
85                     	9.694506013977779e-03	2.189675427262974e-02	2.835944763750747e-01	3.706733434599013e-02	1.583689130872844e-04
86                     	9.422446456509616e-03	2.192213101910966e-02	2.941277645829015e-01	3.873887020687909e-02	1.592109589650300e-04
87                     	9.469863045904685e-03	2.199520070210451e-02	3.318296351257681e-01	4.124910778655487e-02	1.634303735362338e-04
88                     	9.873760189942443e-03	2.219209053946934e-02	3.551948506822445e-01	4.353369188283265e-02	1.652825655961673e-04
89                     	1.031282957211002e-02	2.269534860975556e-02	3.269770616885606e-01	4.477277205574230e-02	1.660489483045827e-04
90                     	1.027347906131474e-02	2.324627918383307e-02	2.866230797434368e-01	4.407698820675630e-02	1.699072791838811e-04
91                     	1.006416399249972e-02	2.330992843566171e-02	2.968805104106768e-01	4.395243767871303e-02	1.633294624064039e-04
92                     	9.982095749459293e-03	2.304189005460848e-02	3.304151239829653e-01	4.872936989541046e-02	1.662825332321650e-04
93                     	1.039064035623071e-02	2.315818088414627e-02	3.459211053281303e-01	4.966390971596448e-02	1.636094478426161e-04
94                     	1.084413776629877e-02	2.368100498258601e-02	3.199958630378728e-01	4.944858574461101e-02	1.638750380537066e-04
95                     	1.080324246431776e-02	2.442124757556095e-02	2.823112426220172e-01	4.727688340935676e-02	1.645696690173229e-04
96                     	1.048884110330315e-02	2.461363410829668e-02	2.997736129141604e-01	4.859124907055273e-02	1.667992171957145e-04
97                     	1.055091311391304e-02	2.444301070912919e-02	3.205520172286701e-01	5.006576035692749e-02	1.704519548366927e-04
98                     	1.080463433360580e-02	2.477762177086313e-02	3.148594811472650e-01	5.027064401305723e-02	1.729134504807528e-04
99                     	1.094339515626422e-02	2.537552669763992e-02	2.868436152943112e-01	4.801163406384599e-02	1.733791350376218e-04
100                    	1.089686377996118e-02	2.609370181781425e-02	2.960778701731432e-01	4.953541417605617e-02	1.762360564330338e-04
101                    	1.097032719794959e-02	2.623318520448914e-02	3.157916162378610e-01	5.050485894326481e-02	1.786751203999214e-04
102                    	1.101345136991965e-02	2.638299659317590e-02	3.091769013534295e-01	4.955337983101082e-02	1.895754546178419e-04
103                    	1.099575635506624e-02	2.670932104068690e-02	2.981683717431190e-01	4.846644818370384e-02	1.825458680229601e-04
104                    	1.107352359637091e-02	2.722578219396608e-02	3.092665344540172e-01	4.848057044057210e-02	1.869923323081834e-04
105                    	1.121883237170648e-02	2.754377098362571e-02	3.145051779928799e-01	4.826901912374604e-02	1.825224506909004e-04
106                    	1.117805055358999e-02	2.776534960355965e-02	3.014032588474629e-01	4.713000547840413e-02	1.852938066535271e-04
107                    	1.116477199731873e-02	2.784921393206391e-02	3.089984633104337e-01	4.681367149715936e-02	1.892609921432257e-04
108                    	1.119574886496719e-02	2.807299322321010e-02	3.103716713580152e-01	4.655622879076784e-02	1.910527387854441e-04
109                    	1.114920099947747e-02	2.824724570082511e-02	3.049636733538756e-01	4.519750786519650e-02	1.919917723306757e-04
110                    	1.118895568358741e-02	2.833333538113192e-02	3.071285350719333e-01	4.468146700651460e-02	1.895037826321557e-04
111                    	1.124610855979152e-02	2.856980306137559e-02	3.057698174723013e-01	4.410459772862645e-02	1.950268752799994e-04
112                    	1.119149684828963e-02	2.875583187731484e-02	3.024422128451003e-01	4.329106877726118e-02	1.907957689673055e-04
113                    	1.124846700722713e-02	2.879939231321063e-02	3.035913336468087e-01	4.284702903437362e-02	1.974333559774738e-04
114                    	1.127275766774404e-02	2.893621377641827e-02	2.944327362061298e-01	4.176733135401290e-02	1.961455976647675e-04
115                    	1.129502267410186e-02	2.898986636870146e-02	3.016792046983524e-01	4.107629856676769e-02	1.939334386976396e-04
116                    	1.143431875370251e-02	2.907922270737391e-02	3.053196708228541e-01	4.101789760156051e-02	2.012172392878775e-04
117                    	1.147071011166252e-02	2.934682764916949e-02	2.987027163588121e-01	4.007366680305505e-02	2.055959280747285e-04
118                    	1.154373077867385e-02	2.954732377458684e-02	2.998415646442622e-01	3.954535889702442e-02	2.006230016750404e-04
119                    	1.155418507487153e-02	2.969078229209915e-02	2.988041451473811e-01	3.905896269786475e-02	2.022900459512485e-04
120                    	1.159268957112505e-02	2.984928677798039e-02	3.103237949621894e-01	3.871973516314796e-02	1.994504570959468e-04
121                    	1.174763780094941e-02	3.002022709507200e-02	3.107329419693698e-01	3.863663067552318e-02	2.038953172300125e-04
122                    	1.177415869540995e-02	3.034686314923550e-02	3.037252586782501e-01	3.801814805167807e-02	2.070005026795393e-04
123                    	1.185286595298684e-02	3.067312467304668e-02	2.996360249916961e-01	3.767869847745114e-02	2.090463107400456e-04
124                    	1.182424575530277e-02	3.099918585732771e-02	3.003311208173067e-01	3.729409018336568e-02	2.122789123251504e-04
125                    	1.190697951399453e-02	3.119286083699467e-02	3.068410642989010e-01	3.699817820452293e-02	2.162411207338432e-04
126                    	1.196606815778747e-02	3.141048026630666e-02	3.070130992135210e-01	3.683809371093713e-02	2.187318912292124e-04
127                    	1.206106770532448e-02	3.167990622631144e-02	3.161788423931257e-01	3.673607346015959e-02	2.199894389434194e-04
128                    	1.215607096949737e-02	3.199458222040006e-02	3.108400056490692e-01	3.670632724952708e-02	2.260820704337393e-04
129                    	1.224830457516261e-02	3.235287976160026e-02	3.182093797069744e-01	3.649901061022227e-02	2.272807174696408e-04
130                    	1.238685151276600e-02	3.251832775858565e-02	3.191613825805853e-01	3.626571885537481e-02	2.295237003716585e-04
131                    	1.246238873930358e-02	3.276406642171090e-02	3.200378574427477e-01	3.614999751977839e-02	2.294210301854300e-04
132                    	1.255426520114207e-02	3.304180251805026e-02	3.195463549470016e-01	3.599789018564833e-02	2.303288637548874e-04
133                    	1.259232240222204e-02	3.341446347171335e-02	3.194505077561904e-01	3.594577838625235e-02	2.418767070591584e-04
134                    	1.273592108708070e-02	3.373711250839738e-02	3.219326626948134e-01	3.576690526219124e-02	2.380327111926231e-04
135                    	1.283175518546908e-02	3.396081322819805e-02	3.269879917426318e-01	3.577394018604457e-02	2.387637299551440e-04
136                    	1.297299501658799e-02	3.415095859151522e-02	3.312134084547854e-01	3.556975104777929e-02	2.371487872506426e-04
137                    	1.308636933559097e-02	3.439776528793233e-02	3.289037220269896e-01	3.518199843823704e-02	2.366148976313627e-04
138                    	1.314021284943075e-02	3.468275509065268e-02	3.246433842756007e-01	3.496929493671659e-02	2.353792212122902e-04
139                    	1.325599843546485e-02	3.492690153642607e-02	3.191628897413594e-01	3.456297172086658e-02	2.374731194596931e-04
140                    	1.334001123495262e-02	3.523859086997035e-02	3.251655915178689e-01	3.442127185058855e-02	2.357167875045140e-04
141                    	1.352241611010660e-02	3.539862246636852e-02	3.249702075093369e-01	3.414931146482359e-02	2.366896607442361e-04
142                    	1.365253954800793e-02	3.557763915817864e-02	3.381193176836397e-01	3.385573296604036e-02	2.380227249752685e-04
143                    	1.383458140752776e-02	3.576645308079798e-02	3.338875314095577e-01	3.348318212471896e-02	2.431204258818971e-04
144                    	1.403539253909852e-02	3.604863372231991e-02	3.244246561218398e-01	3.318989672234608e-02	2.418316181884383e-04
145                    	1.416630452068538e-02	3.622323551847131e-02	3.263235842161242e-01	3.307341132881358e-02	2.359388619007611e-04
146                    	1.434988235434758e-02	3.639526833357983e-02	3.308022088733683e-01	3.279985522991050e-02	2.332724003908489e-04
147                    	1.448267612628154e-02	3.662815871134936e-02	3.383633042857880e-01	3.267256553587805e-02	2.326499600214829e-04
148                    	1.465740337877224e-02	3.684985914820187e-02	3.364571793268697e-01	3.258355810340511e-02	2.334530325212017e-04
149                    	1.488031161839292e-02	3.710624297654540e-02	3.337165063882109e-01	3.233639583441433e-02	2.364651207163196e-04
150                    	1.505117699460520e-02	3.750250650374735e-02	3.349085880291621e-01	3.239208099363425e-02	2.362409486294818e-04
151                    	1.522917168908029e-02	3.783542598954228e-02	3.365368233110761e-01	3.252034325579910e-02	2.353584939076831e-04
152                    	1.542025706528120e-02	3.823414917016306e-02	3.345033277613877e-01	3.232171629895417e-02	2.333149860790977e-04
153                    	1.555588950080463e-02	3.860691965311304e-02	3.369314887032160e-01	3.261025911348142e-02	2.344019262195013e-04
154                    	1.577182405363648e-02	3.900489004774776e-02	3.428692851567227e-01	3.267130170660993e-02	2.392412289308655e-04
155                    	1.599133719818548e-02	3.947294736053483e-02	3.396431676864736e-01	3.262116248253423e-02	2.373112396821715e-04
156                    	1.613012814276683e-02	3.988770545731761e-02	3.484800836625122e-01	3.305139879052912e-02	2.375502359333362e-04
157                    	1.635473279261769e-02	4.031685741797062e-02	3.458763249846217e-01	3.321461332648596e-02	2.385630964970019e-04
158                    	1.656825739834690e-02	4.072594924448175e-02	3.380302872051543e-01	3.324569710465055e-02	2.403000156971475e-04
159                    	1.665339148736947e-02	4.113969661022167e-02	3.563042554921790e-01	3.387062232295634e-02	2.463457108054495e-04
160                    	1.687064618891934e-02	4.151464103159447e-02	3.537080500300395e-01	3.403492173428930e-02	2.462252583094213e-04
161                    	1.711803360517032e-02	4.190040025897326e-02	3.426904328120372e-01	3.408070422123460e-02	2.477269583826827e-04
162                    	1.717658581888113e-02	4.225619156876162e-02	3.428930949775898e-01	3.449572520107653e-02	2.500778084277432e-04
163                    	1.723180986529614e-02	4.247663302947003e-02	3.507402326983053e-01	3.480365743606691e-02	2.535938651956577e-04
164                    	1.741334094330200e-02	4.264716475745618e-02	3.483243354226081e-01	3.490933015600613e-02	2.550126728138034e-04
165                    	1.755554283457709e-02	4.292511204800722e-02	3.396165667151265e-01	3.503964396090889e-02	2.524686778838304e-04
166                    	1.760037984960536e-02	4.314427043757343e-02	3.445598668195963e-01	3.531267540177060e-02	2.532286645966730e-04
167                    	1.768466518056668e-02	4.335166803790316e-02	3.476977734537134e-01	3.547544955257298e-02	2.570529115970527e-04
168                    	1.781690486398855e-02	4.350857739478253e-02	3.441715562718463e-01	3.559852193858445e-02	2.560764064460425e-04
169                    	1.789978630657420e-02	4.369227329784572e-02	3.355316572386736e-01	3.565382965407281e-02	2.546054016920322e-04
170                    	1.792219013266682e-02	4.383103340433817e-02	3.373460083103558e-01	3.582850106151965e-02	2.537455556686649e-04
171                    	1.797016126553739e-02	4.398344511170144e-02	3.390888955797610e-01	3.596340344156768e-02	2.543550442653834e-04
172                    	1.806527745218430e-02	4.416363700900483e-02	3.352310931947036e-01	3.597696779697551e-02	2.579482815342071e-04
173                    	1.814186552030364e-02	4.432224159842854e-02	3.294930429801928e-01	3.599976265306600e-02	2.523650468710314e-04
174                    	1.816148274126742e-02	4.445094815350030e-02	3.256233850308359e-01	3.606864107644611e-02	2.515905230104899e-04
175                    	1.816387672952102e-02	4.462054992190433e-02	3.276966476952661e-01	3.608417894484642e-02	2.505644538445421e-04
176                    	1.820674625072212e-02	4.475924252106157e-02	3.234950824362611e-01	3.611878209790820e-02	2.510664201124410e-04
177                    	1.826378714662717e-02	4.493619905971806e-02	3.171099903373170e-01	3.604047173318631e-02	2.515134095121501e-04
178                    	1.829242921367413e-02	4.513972370227633e-02	3.134044103615468e-01	3.589819476029802e-02	2.546435336779438e-04
179                    	1.829068632777730e-02	4.520021781052737e-02	3.121093206000261e-01	3.575999087095164e-02	2.516594232084887e-04
180                    	1.827390746103430e-02	4.530640648148414e-02	3.131520562572646e-01	3.563901646132576e-02	2.516577198587528e-04
181                    	1.826127341767273e-02	4.542549891540897e-02	3.107000098097999e-01	3.547973263133893e-02	2.489636807356384e-04
182                    	1.824682100837950e-02	4.552945873356048e-02	3.054030773734413e-01	3.525907086072726e-02	2.489422016601395e-04
183                    	1.821943939301492e-02	4.561484622619147e-02	2.987270838614566e-01	3.502286602038120e-02	2.490281796975518e-04
184                    	1.816555791111389e-02	4.563491298472776e-02	2.957990242398122e-01	3.472764005130807e-02	2.487548793239584e-04
185                    	1.811614078550347e-02	4.555736616186420e-02	2.947673366375428e-01	3.442716563896396e-02	2.479953460068600e-04
186                    	1.805447479966795e-02	4.541529635574907e-02	2.940129674900395e-01	3.410251814240967e-02	2.525840795755627e-04
187                    	1.798285102213385e-02	4.518408532849908e-02	2.953116716529087e-01	3.378588092263773e-02	2.456572779619086e-04
188                    	1.788903885347734e-02	4.505071782698467e-02	2.919125346064268e-01	3.346955954675044e-02	2.477801653347764e-04
189                    	1.779007441062812e-02	4.489005631484626e-02	2.895857855543318e-01	3.316192826037438e-02	2.457884823858987e-04
190                    	1.768608923038770e-02	4.466000686925673e-02	2.902664663180260e-01	3.282971405338209e-02	2.430816848558876e-04
191                    	1.758162125076668e-02	4.437289464056381e-02	2.893540066559120e-01	3.249820495310054e-02	2.411573937386693e-04
192                    	1.746483190929896e-02	4.405832775722499e-02	2.869958262385697e-01	3.219300313651843e-02	2.392805924648928e-04
193                    	1.732111060943899e-02	4.372364540098704e-02	2.832022521268509e-01	3.191099427279626e-02	2.378199398409345e-04
194                    	1.716211704358387e-02	4.337888282054268e-02	2.798463893231099e-01	3.164735165592145e-02	2.361055904003440e-04
195                    	1.700374246735130e-02	4.303093444061924e-02	2.789882545093097e-01	3.137480601581003e-02	2.347778629354471e-04
196                    	1.685476672300029e-02	4.267829692138118e-02	2.765507390106287e-01	3.112274737283563e-02	2.332966330361786e-04
197                    	1.670381806421046e-02	4.230131524550569e-02	2.728528896775798e-01	3.088446491589239e-02	2.369068017579584e-04
198                    	1.653486001027429e-02	4.202207000134681e-02	2.658153957959611e-01	3.065951243310417e-02	2.281188219029464e-04
199                    	1.636141743466072e-02	4.163108926956230e-02	2.621524491553429e-01	3.045447112983855e-02	2.297698478829708e-04
200                    	1.617893348266726e-02	4.127898009067076e-02	2.579455636447315e-01	3.026352940043006e-02	2.272984056463237e-04
201                    	1.598645184276687e-02	4.092672073675387e-02	2.553228373706657e-01	3.008829634482538e-02	2.260779131398950e-04
202                    	1.579217253335230e-02	4.058304498483090e-02	2.525735498948409e-01	2.991007846334175e-02	2.258461620199567e-04
203                    	1.559211163362667e-02	4.029915048165633e-02	2.492266877573681e-01	2.974942836362247e-02	2.259943142571835e-04
204                    	1.537415875488802e-02	4.009236545335419e-02	2.400421634886289e-01	2.958963732327344e-02	2.263464334545540e-04
205                    	1.517163085398518e-02	3.976048995493540e-02	2.381715083236952e-01	2.942317697891969e-02	2.198744897439950e-04
206                    	1.495602526246630e-02	3.945691549235458e-02	2.359916988688573e-01	2.927989942445306e-02	2.241367006376526e-04
207                    	1.472550282648987e-02	3.923316777095185e-02	2.277970349524746e-01	2.914086702017706e-02	2.206960295083211e-04
208                    	1.448892491002288e-02	3.891985376103583e-02	2.250707890577576e-01	2.898766380589288e-02	2.172716270626922e-04
209                    	1.423212083674714e-02	3.859549495744581e-02	2.211598609846566e-01	2.880907715421745e-02	2.178909537683172e-04
210                    	1.397558333510184e-02	3.828562068449151e-02	2.200543955733460e-01	2.864038047457801e-02	2.202580216853821e-04
211                    	1.368583201224950e-02	3.798941572436391e-02	2.137973226813167e-01	2.843088860541942e-02	2.164005828165657e-04
212                    	1.340743603299634e-02	3.769157148343615e-02	2.120330844512705e-01	2.823209761608426e-02	2.171664119908142e-04
213                    	1.310728503024820e-02	3.740556440146851e-02	2.106820543195419e-01	2.802076838075077e-02	2.168080564671578e-04
214                    	1.281035985843457e-02	3.711890478731544e-02	2.109465968520241e-01	2.779951531469406e-02	2.172872234003974e-04
215                    	1.246017768675592e-02	3.688067493132909e-02	2.144007064915066e-01	2.755795494712803e-02	2.114983753318140e-04
216                    	1.212408687615886e-02	3.662009558695652e-02	2.181406989785223e-01	2.733564486721251e-02	2.132709076636427e-04
217                    	1.180714928528809e-02	3.626818356354310e-02	2.188210412117525e-01	2.709349298782689e-02	2.144184587216787e-04
218                    	1.150841419663999e-02	3.599470726627770e-02	2.222298274933183e-01	2.688397253280116e-02	2.116383858082426e-04
219                    	1.120417127984730e-02	3.568463200770742e-02	2.282555957491815e-01	2.666203977891120e-02	2.096027274144261e-04
220                    	1.093481971648465e-02	3.534357805995462e-02	2.342579985873701e-01	2.646018566818750e-02	2.084748457797479e-04
221                    	1.067475070500152e-02	3.494398929721995e-02	2.339733604022013e-01	2.623813062835971e-02	2.073893065682664e-04
222                    	1.042035668401489e-02	3.456260685218931e-02	2.286143728946503e-01	2.600792101870798e-02	2.067816615743797e-04