# Wall shear stress
# Time        	patch         	min           	max           
4.050000e+02	wallTop	(-3.193871e+01 -5.010307e-16 -2.387302e-16)	(-1.038876e-01 6.697739e-16 3.582252e-16)
4.050000e+02	wallSide	(-3.193871e+01 -3.796351e-16 -1.289010e-16)	(-1.038876e-01 3.290609e-16 5.462883e-17)
