3 	0.00391112967796268 	1.04083408558608e-17 	0.105694992304733 	3.01133041722471e-05 	783.248202592595 	1.10597079057983e-05 	4.70295684873143e-38
3 	0.0118766651674915 	1.04083408558608e-17 	0.105693396229588 	0.000287272754033829 	290.78167493738 	0.000141851515047532 	0
3 	0.0201340015485761 	0 	0.105692430178305 	0.00122859427327733 	68.4795432805941 	0.000524972249290164 	0
3 	0.0286938283423949 	0 	0.105685198340483 	0.00304477412784208 	28.0981427323174 	0.000741252811332734 	0
3 	0.0375672266585908 	6.93889390390723e-18 	0.105669666947206 	0.00523479413031121 	15.106765948554 	0.000439672109747362 	0
3 	0.0467656835403032 	3.46944695195361e-18 	0.105645019891253 	0.00730570533515652 	9.76058174891661 	0.000121162566388142 	0
3 	0.0563011068347005 	-3.46944695195361e-18 	0.105611756512685 	0.00912669986130972 	7.1530655898229 	2.8728200206008e-05 	0
3 	0.0661858406082648 	3.46944695195361e-18 	0.105571286800323 	0.0107352028404461 	5.67765034828306 	7.08214923787223e-05 	0
3 	0.0764326811267817 	1.38777878078145e-17 	0.105524991900305 	0.0121872042905134 	4.74394838808625 	0.000164932673717345 	0
3 	0.0870548934207257 	1.38777878078145e-17 	0.105473854745748 	0.0135254173027301 	4.10462750552097 	0.000279961692996864 	0
3 	0.0980662284574838 	2.77555756156289e-17 	0.10541856840756 	0.0147797424189596 	3.64180605900548 	0.000405308208210603 	0
3 	0.109480940942647 	3.81639164714898e-17 	0.105359676347853 	0.015971294659788 	3.29301135846389 	0.000537410925799958 	0
3 	0.121313807773417 	3.12250225675825e-17 	0.105297636597463 	0.0171154290510062 	3.02226374705407 	0.000675295383820206 	0
3 	0.13358014716801 	3.12250225675825e-17 	0.105232849633906 	0.0182236793750596 	2.80744612528042 	0.000819039247462671 	0
3 	0.146295838495838 	2.77555756156289e-17 	0.105165676251062 	0.0193049798751621 	2.63424179006026 	0.000969199483392637 	0
3 	0.159477342834115 	2.42861286636753e-17 	0.105096450644797 	0.0203664483960834 	2.49299065300662 	0.0011265852071306 	0
3 	0.173141724277517 	2.42861286636753e-17 	0.105025489827777 	0.0214139014173588 	2.37695171262631 	0.00129216614395174 	0
3 	0.183614095490672 	2.3635607360184e-17 	0.104971801652283 	0.0221872026919386 	2.30343856517179 	0.00142099413651133 	0
3 	0.190823961865322 	2.71050543121376e-17 	0.104935288225068 	0.022704632107838 	2.26015656256186 	0.00151087369165289 	0
3 	0.201990523296728 	3.12250225675825e-17 	0.104879585832283 	0.0234855099352407 	2.20233559932786 	0.00165231029041037 	0
3 	0.217212287037675 	3.12250225675825e-17 	0.104805244112498 	0.0245173634743636 	2.13760272047044 	0.00184939772802757 	0
3 	0.232991668560441 	2.77555756156289e-17 	0.104730387914317 	0.0255509539809744 	2.08508070794875 	0.00205976915016938 	0
3 	0.249349095037321 	3.12250225675825e-17 	0.104655344567859 	0.0265891384450195 	2.04323859552584 	0.00228504591229771 	0
3 	0.266305741947753 	3.12250225675825e-17 	0.104580465004275 	0.0276345057664806 	2.01090578768309 	0.00252702156808035 	0
3 	0.283883560490998 	2.77555756156289e-17 	0.104506134227616 	0.0286894254593757 	1.987189736072 	0.00278768528851943 	0
3 	0.30210530600303 	3.46944695195361e-17 	0.104432784255945 	0.0297560835685684 	1.97141785893127 	0.00306924859232276 	0
3 	0.320994567414414 	3.46944695195361e-17 	0.104360910125579 	0.0308365089830856 	1.96309631742565 	0.00337417570583632 	0
3 	0.340575797787321 	3.46944695195361e-17 	0.104291089623032 	0.0319325924663036 	1.96188085612506 	0.00370521798974511 	0
3 	0.360874345971201 	4.85722573273506e-17 	0.104224007473136 	0.0330461001505035 	1.96755655392692 	0.00406545289693665 	0
3 	0.38191648941809 	5.55111512312578e-17 	0.104160484620689 	0.0341786828489548 	1.98002439201389 	0.00445832783416105 	0
3 	0.403729468200046 	4.85722573273506e-17 	0.104101512961366 	0.0353318822368797 	1.99929324131229 	0.00488770894104203 	0
3 	0.426341520272733 	4.16333634234434e-17 	0.104048297086846 	0.0365071346655914 	2.02547632455066 	0.00535793377415011 	0
3 	0.449781918030829 	3.81639164714898e-17 	0.104002310974689 	0.0377057730251011 	2.05879148046119 	0.0058738652430615 	0
3 	0.474081006202548 	4.16333634234434e-17 	0.103965375052389 	0.0389290265631848 	2.09956467048707 	0.00644094531682552 	0
3 	0.499270241132363 	4.16333634234434e-17 	0.103939673029053 	0.0401780176274034 	2.14823609647284 	0.00706525370659752 	0
3 	0.525382231502763 	3.46944695195361e-17 	0.103927485087264 	0.0414537516914202 	2.20536795517489 	0.00775356118379283 	0
3 	0.552450780547768 	3.81639164714898e-17 	0.103931214618966 	0.0427569021256188 	2.27165227614906 	0.00851329495966409 	0
3 	0.58051092981285 	4.5102810375397e-17 	0.103957762217342 	0.0440871482632708 	2.34791636927957 	0.00937548046236968 	0
3 	0.609599004517911 	4.85722573273506e-17 	0.104026181741509 	0.0454467775946367 	2.43525322191477 	0.0104722120504756 	0
3 	0.639752660582033 	5.20417042793042e-17 	0.104145439484625 	0.0468481324405604 	2.53566753142263 	0.0118413625047638 	0
3 	0.671010933370887 	5.55111512312578e-17 	0.104311773702351 	0.0483055940477182 	2.65093649639214 	0.0135252416386431 	0
3 	0.703414288229901 	5.89805981832114e-17 	0.104528999837598 	0.049792673531187 	2.77842548245701 	0.0154333115729461 	0
3 	0.737004672868606 	6.24500451351651e-17 	0.104799507384122 	0.0512287176622743 	2.90878840082282 	0.01733354976692 	0
3 	0.771825571663976 	5.89805981832114e-17 	0.10512863227338 	0.0525077019130297 	3.02861666901979 	0.019041947477971 	0
3 	0.807922061953054 	5.55111512312578e-17 	0.105520052272925 	0.0535294015685285 	3.12620726762243 	0.0204410015517308 	0
3 	0.845340872387743 	5.20417042793042e-17 	0.105971903541949 	0.054215297648462 	3.19522627723862 	0.0214523269702278 	0
3 	0.884130443427309 	5.55111512312578e-17 	0.106477608381705 	0.0545096023593288 	3.23354152490739 	0.0220146601951918 	0
3 	0.924340990046898 	5.89805981832114e-17 	0.107029571638556 	0.0543765806708099 	3.24059947385625 	0.0220828895335796 	0
3 	0.966024566743242 	5.6920614055489e-17 	0.107622899758474 	0.0538003169983909 	3.21598844257976 	0.0216370232165845 	0
3 	1.00923513492173 	5.908901840046e-17 	0.108259797230126 	0.0527782880360179 	3.15852270946317 	0.0206769035399818 	0
3 	1.05402863275206 	6.07153216591882e-17 	0.108942562664943 	0.0513481734659237 	3.06810425986197 	0.0192463506551201 	0
3 	1.10046304758287 	6.54858112181245e-17 	0.109674519403099 	0.0495777965180801 	2.94576962976313 	0.0174211821294379 	0
3 	1.14859849100923 	7.02563007770607e-17 	0.110457219321695 	0.0475658626722258 	2.79475751724233 	0.0153221151212153 	0
3 	1.19849727668995 	6.85215773010839e-17 	0.111285877815409 	0.0454389777187285 	2.62171293242926 	0.0131283182322165 	0
3 	1.25022400101563 	6.24500451351651e-17 	0.112158221220871 	0.0433247290071817 	2.43588825262354 	0.0110498253459637 	0
3 	1.30384562673186 	5.72458747072346e-17 	0.1130999111859 	0.0413121299235354 	2.24627275428917 	0.0092415434036797 	0
3 	1.35943156962566 	5.72458747072346e-17 	0.1141108686885 	0.0394266199356077 	2.05851393542018 	0.00759332463742229 	0
3 	1.41705378838763 	6.07153216591882e-17 	0.115141060631088 	0.0376856768107432 	1.87839469581577 	0.00621606798374536 	0
3 	1.47678687776592 	5.89805981832114e-17 	0.116166567626646 	0.0360889239231007 	1.71242668976389 	0.00507234449072548 	0
3 	1.53870816513278 	6.24500451351651e-17 	0.117187790513318 	0.0346003588835741 	1.56257160407579 	0.0041562436607444 	0
3 	1.60289781058851 	7.28583859910259e-17 	0.118207927826842 	0.0331566896736599 	1.42609599962765 	0.00344083227068733 	0
3 	1.66943891073267 	7.97972798949331e-17 	0.119228102204239 	0.0316950673662882 	1.30159726671119 	0.00288023227526723 	0
3 	1.71135564625027 	8.32667268468867e-17 	0.119854423111935 	0.0307736114351837 	1.23062287247898 	0.00258544381090482 	0
3 	1.74646535410267 	7.97972798949331e-17 	0.120361083289362 	0.0299931991677853 	1.17855946319299 	0.00237960994861041 	0
3 	1.8099231933566 	7.63278329429795e-17 	0.121252543220876 	0.0285635438920571 	1.09340193629149 	0.00204310515775081 	0
3 	1.88404823953249 	7.63278329429795e-17 	0.122243752818918 	0.0268546615561126 	1.00948763555385 	0.00170566565516133 	0
3 	1.96088870322038 	7.97972798949331e-17 	0.123167969347447 	0.0251160039264161 	0.938984809305209 	0.00140827479289718 	0
3 	2.02025965173185 	8.32667268468867e-17 	0.123874643645785 	0.0236839159215071 	0.890642167581323 	0.00118437482516736 	0
3 	2.06006301192217 	7.97972798949331e-17 	0.12434726389665 	0.0226579267391813 	0.860156846183712 	0.00104072218279391 	0
3 	2.09845978584128 	7.63278329429795e-17 	0.124753675999081 	0.0217332403743543 	0.835472941145496 	0.000916822234000279 	0
3 	2.13549967996946 	7.63278329429795e-17 	0.125131586623487 	0.0208496358914666 	0.814309297917947 	0.000803440285804242 	0
3 	2.17123064424048 	7.28583859910259e-17 	0.125479292995843 	0.0200077049282958 	0.796442007448903 	0.000700388365915602 	0
3 	2.20569893411516 	6.93889390390723e-17 	0.125798418629299 	0.0192073564811112 	0.781689819650514 	0.000606933696344719 	0
3 	2.23894917046123 	6.93889390390723e-17 	0.126091001360842 	0.0184479557489946 	0.769906735744812 	0.000522437852408594 	0
3 	2.27102439731726 	6.93889390390723e-17 	0.126358862089873 	0.0177284571015272 	0.7609781137225 	0.000446281134584775 	0
3 	2.30196613761522 	6.93889390390723e-17 	0.126603714726712 	0.0170475251197612 	0.754818850387863 	0.000377875021431756 	0
3 	2.33181444693392 	6.59194920871187e-17 	0.126827203153017 	0.016403638686711 	0.751372721239649 	0.000316677036225824 	0
3 	2.3606079653529 	6.59194920871187e-17 	0.127030896040308 	0.0157951768509431 	0.750612389484763 	0.000262200005070886 	0
3 	2.38838396747391 	6.59194920871187e-17 	0.127216284239804 	0.0152204874831412 	0.752539855071254 	0.000214018810826674 	0
3 	2.41517841067461 	6.59194920871187e-17 	0.127384781265205 	0.0146779407409472 	0.757187254699164 	0.000171775663400037 	0
3 	2.44102598165722 	6.93889390390723e-17 	0.127537724338738 	0.0141659696700222 	0.764617996286606 	0.000135184304044852 	0
3 	2.46596014135208 	6.93889390390723e-17 	0.127676375682384 	0.0136831002254442 	0.774928246069346 	0.000104033630356338 	0
3 	2.49001316823444 	6.93889390390723e-17 	0.127801924063521 	0.0132279727666364 	0.788248799866025 	7.81911776766959e-05 	0
3 	2.51321620011054 	6.93889390390723e-17 	0.127915486519139 	0.0127993567617279 	0.804747371411701 	5.76067741187911e-05 	0
3 	2.535599274427 	7.28583859910259e-17 	0.128018110174406 	0.012396160091645 	0.824631325112584 	4.2316564775326e-05 	0
3 	2.55719136715571 	7.63278329429795e-17 	0.128110774092236 	0.0120174340014047 	0.84815087064619 	3.24474818628047e-05 	0
3 	2.57802043030466 	7.63278329429795e-17 	0.128194391109643 	0.0116623744219382 	0.875602723808675 	2.82221168588483e-05 	0
3 	2.59811342810315 	7.97972798949331e-17 	0.128269809634008 	0.0113303200889827 	0.907334222861535 	2.99638256226258e-05 	0
3 	2.61749637190832 	8.32667268468867e-17 	0.128337815389483 	0.0110207476229583 	0.943747873790695 	3.81017699445256e-05 	0
3 	2.63619435387806 	7.63278329429795e-17 	0.128399133120335 	0.0107332635140202 	0.98530628403146 	5.31754780670385e-05 	0
3 	2.65423157945406 	7.28583859910259e-17 	0.128454428273388 	0.0104675927928663 	1.03253743700221 	7.58384118620596e-05 	0
3 	2.67163139869691 	7.63278329429795e-17 	0.128504308695364 	0.0102235640793134 	1.08604026660308 	0.000106859991503919 	0
3 	2.68841633651388 	7.63278329429795e-17 	0.128549326392036 	0.0100010907110588 	1.14649052218255 	0.000147125594166877 	0
3 	2.70460812181851 	7.97972798949331e-17 	0.128589979403695 	0.00980014778983918 	1.21464698377702 	0.000197634264278064 	0
3 	2.72022771565972 	8.32667268468867e-17 	0.128626713854248 	0.00962074526116471 	1.2913582096589 	0.000259494299370938 	0
3 	2.73529533835695 	8.32667268468867e-17 	0.128659926227976 	0.00946289757022548 	1.37757018692202 	0.000333917536697006 	0
3 	2.74983049567626 	8.32667268468867e-17 	0.128689965917305 	0.0093265909840399 	1.47433551834159 	0.000422214045053243 	0
3 	2.76385200408157 	7.63278329429795e-17 	0.128717138066413 	0.00921175027070116 	1.58282511032325 	0.000525789938160151 	0
3 	2.77737801509344 	6.93889390390723e-17 	0.128741706709683 	0.00911820696743293 	1.70434370525449 	0.000646152004108594 	0
3 	2.79042603878708 	6.93889390390723e-17 	0.128763898173161 	0.00904567180169657 	1.8403509856434 	0.000784923556924403 	0
3 	2.80301296646003 	6.93889390390723e-17 	0.128783904675545 	0.00899371379930114 	1.99249031159386 	0.000943876109016252 	0
3 	2.81515509249873 	7.28583859910259e-17 	0.128801888038119 	0.00896174810495247 	2.16262738192372 	0.00112498094087742 	0
3 	2.82686813547238 	7.63278329429795e-17 	0.128817983396673 	0.00894903352695215 	2.35290119947302 	0.0013304833452762 	0
3 	2.83816725848143 	7.97972798949331e-17 	0.128832302807383 	0.00895467939446988 	2.56578968812258 	0.00156300036677106 	0
3 	2.84906708878692 	8.32667268468867e-17 	0.128844938653836 	0.00897765970190781 	2.80419223857873 	0.00182564052718496 	0
3 	2.85958173674616 	7.97972798949331e-17 	0.12885596678997 	0.00901683101291252 	3.07153152008015 	0.00212214168053051 	0
3 	2.86972481407933 	7.28583859910259e-17 	0.128865449399641 	0.00907094952447788 	3.37187733444828 	0.00245702105033514 	0
3 	2.87950945149043 	6.93889390390723e-17 	0.128873437665786 	0.00913868231442571 	3.71009642651224 	0.00283572961693153 	0
3 	2.88894831566567 	6.93889390390723e-17 	0.128879974490285 	0.00921860829532009 	4.09203438988812 	0.00326480061166553 	0
3 	2.89805362567107 	6.93889390390723e-17 	0.128885096803333 	0.00930920592259921 	4.52473963444866 	0.00375197746043417 	0
3 	2.90683716877067 	6.93889390390723e-17 	0.128888833747634 	0.00940882753831803 	5.01674567360912 	0.00430630267666219 	0
3 	2.9153103156857 	6.93889390390723e-17 	0.128891198585446 	0.00951566496325265 	5.57843844112253 	0.00493896666004878 	0
3 	2.92348403531449 	6.59194920871187e-17 	0.128892238141726 	0.00962769859771356 	6.22262183672566 	0.00566963735279701 	0
3 	2.9313689089323 	6.59194920871187e-17 	0.128892126318632 	0.00974246252470678 	6.96589428737331 	0.00653556452740341 	0
3 	2.93897514388925 	6.93889390390723e-17 	0.128890987769499 	0.00985628621736157 	7.83134866971673 	0.00754658350732314 	0
3 	2.94631258682425 	6.93889390390723e-17 	0.128888786138949 	0.00996390944735017 	8.84632919853543 	0.00874571702783344 	0
3 	2.95339073641193 	6.93889390390723e-17 	0.128885442300808 	0.0100564290573211 	10.0382557935031 	0.0101381593361684 	0
3 	2.96021875565916 	6.93889390390723e-17 	0.128880891286126 	0.0101215112599448 	11.4380964718902 	0.0117266918489071 	0
3 	2.96680548376697 	6.93889390390723e-17 	0.128875136965041 	0.0101435351122597 	13.0843586174188 	0.0135162718190803 	0
3 	2.97315944757337 	6.93889390390723e-17 	0.128868274861306 	0.010103183861869 	15.0271497895639 	0.015507168961925 	0
3 	2.97928887259171 	6.93889390390723e-17 	0.128860474331321 	0.00997655100060049 	17.3364050718513 	0.0176871425959359 	0
3 	2.98520169365903 	6.93889390390723e-17 	0.128851962607257 	0.00973370140676431 	20.114765710403 	0.0200187325997027 	0
3 	2.99090556520807 	6.93889390390723e-17 	0.128843017457074 	0.0093366803725424 	23.5180313662608 	0.0224119479081569 	0
3 	2.99640787117633 	6.93889390390723e-17 	0.128833972591237 	0.00873738404959235 	27.7924705937334 	0.0246594352510824 	0
3 	3.00171573456492 	6.93889390390723e-17 	0.128825216496029 	0.007878053266424 	33.3516599049495 	0.026357428810424 	0
3 	3.00683602665963 	6.93889390390723e-17 	0.12881716557702 	0.00669868730100524 	40.9667210024153 	0.0267592725684954 	0
3 	3.01177537592613 	6.93889390390723e-17 	0.128810264201441 	0.00516114146830403 	52.3168656504431 	0.0243300323062328 	0
3 	3.01654017659085 	6.93889390390723e-17 	0.128804886575699 	0.00334377728863929 	71.8616354431121 	0.0170555037446981 	0
3 	3.02113659691864 	7.28583859910259e-17 	0.12880114410682 	0.0016416315825115 	114.629559060014 	0.00770726329916585 	0
3 	3.02557058719784 	7.97972798949331e-17 	0.128798634999218 	0.000548101202824459 	247.221171971844 	0.00188912930760139 	0
3 	3.02984788744324 	8.32667268468867e-17 	0.128796685408911 	0.000109067067193784 	968.20906915086 	0.000217677594912171 	0
