3 	0.00391112967796268 	1.04083408558608e-17 	-0.0387078943722857 	5.74274295187237e-05 	-1.14322771389805e-16
3 	0.0118766651674915 	1.04083408558608e-17 	-0.108540522831907 	0.000100576465700768 	2.44818183425145e-16
3 	0.0201340015485761 	0 	-0.163042656818854 	0.000132387518493536 	7.38119443787136e-17
3 	0.0286938283423949 	0 	-0.197189240555578 	0.000114097608700875 	4.84222585014459e-23
3 	0.0375672266585908 	6.93889390390723e-18 	-0.213166617574146 	8.37367355879047e-06 	4.51003729995059e-22
3 	0.0467656835403032 	3.46944695195361e-18 	-0.218775659771543 	-0.000163172094012481 	5.00970476016605e-22
3 	0.0563011068347005 	-3.46944695195361e-18 	-0.219766260239017 	-0.000377467695492497 	8.79783532822224e-18
3 	0.0661858406082648 	3.46944695195361e-18 	-0.218668775924657 	-0.000622955419309564 	2.29304346547694e-17
3 	0.0764326811267817 	1.38777878078145e-17 	-0.216478826928527 	-0.000893758188656241 	-1.45853177723056e-17
3 	0.0870548934207257 	1.38777878078145e-17 	-0.213619816561426 	-0.00118661347429002 	-7.41154819738048e-18
3 	0.0980662284574838 	2.77555756156289e-17 	-0.210290585766842 	-0.00149981224591386 	-4.4321467515514e-17
3 	0.109480940942647 	3.81639164714898e-17 	-0.20659113581738 	-0.001832558661043 	-6.87313260355407e-17
3 	0.121313807773417 	3.12250225675825e-17 	-0.202572887492078 	-0.00218459500817407 	5.03471860572927e-17
3 	0.13358014716801 	3.12250225675825e-17 	-0.198260960371934 	-0.00255601327565608 	4.15868723856557e-17
3 	0.146295838495838 	2.77555756156289e-17 	-0.193664940161299 	-0.00294716293605147 	4.80660425357175e-22
3 	0.159477342834115 	2.42861286636753e-17 	-0.188784443822713 	-0.00335860409693781 	9.55781687202767e-22
3 	0.173141724277517 	2.42861286636753e-17 	-0.18361213742601 	-0.00379108460882845 	1.13177063676481e-21
3 	0.183614095490672 	2.3635607360184e-17 	-0.179577818754145 	-0.00412628044563713 	1.03054794929932e-21
3 	0.190823961865322 	2.71050543121376e-17 	-0.176762205662037 	-0.0043590685544015 	8.19129341272077e-22
3 	0.201990523296728 	3.12250225675825e-17 	-0.17234042690602 	-0.00472282535428269 	5.08303305277899e-22
3 	0.217212287037675 	3.12250225675825e-17 	-0.166203825682904 	-0.00522445938628356 	1.59730886413114e-22
3 	0.232991668560441 	2.77555756156289e-17 	-0.159701364976675 	-0.00575192878942249 	-1.51236643098436e-22
3 	0.249349095037321 	3.12250225675825e-17 	-0.152805170740112 	-0.00630695596700555 	-1.51452104227258e-22
3 	0.266305741947753 	3.12250225675825e-17 	-0.145483671463713 	-0.00689151336931864 	5.46689816290974e-24
3 	0.283883560490998 	2.77555756156289e-17 	-0.137701382577929 	-0.00750785300437802 	-2.60712468227731e-22
3 	0.30210530600303 	3.46944695195361e-17 	-0.129418595977642 	-0.00815854020314604 	-1.22257030711556e-22
3 	0.320994567414414 	3.46944695195361e-17 	-0.120590980005976 	-0.00884649127150981 	-2.10041043856101e-17
3 	0.340575797787321 	3.46944695195361e-17 	-0.111169088685422 	-0.00957501440160595 	-3.8900553614193e-17
3 	0.360874345971201 	4.85722573273506e-17 	-0.101097773863099 	-0.0103478527666371 	4.13432100924963e-17
3 	0.38191648941809 	5.55111512312578e-17 	-0.0903154895392052 	-0.0111692280970508 	1.91336674785179e-17
3 	0.403729468200046 	4.85722573273506e-17 	-0.0787534736345654 	-0.0120438823460281 	-1.72991637803995e-21
3 	0.426341520272733 	4.16333634234434e-17 	-0.0663347888061638 	-0.0129771137139394 	-2.01875192087202e-21
3 	0.449781918030829 	3.81639164714898e-17 	-0.0529732009133983 	-0.0139747975834581 	-2.62715396525726e-21
3 	0.474081006202548 	4.16333634234434e-17 	-0.0385718717106977 	-0.0150433711797311 	-1.08363731350883e-21
3 	0.499270241132363 	4.16333634234434e-17 	-0.0230218422015186 	-0.0161897869722881 	7.95876828406215e-22
3 	0.525382231502763 	3.46944695195361e-17 	-0.00620029219668518 	-0.0174216132132209 	2.68045597754033e-21
3 	0.552450780547768 	3.81639164714898e-17 	0.0120314330769624 	-0.018747455729233 	3.43407901525814e-22
3 	0.58051092981285 	4.5102810375397e-17 	0.0318304523585868 	-0.0201748880078966 	1.33887788783736e-21
3 	0.609599004517911 	4.85722573273506e-17 	0.0534222583728292 	-0.0217047233300177 	1.35095987171851e-21
3 	0.639752660582033 	5.20417042793042e-17 	0.0773776550949069 	-0.0233602524856429 	3.721263926646e-21
3 	0.671010933370887 	5.55111512312578e-17 	0.10465538376257 	-0.0251733633108405 	3.46053682871896e-21
3 	0.703414288229901 	5.89805981832114e-17 	0.136051103132105 	-0.0271642618730507 	-1.55955995708298e-22
3 	0.737004672868606 	6.24500451351651e-17 	0.171859957455755 	-0.029305328945573 	5.31620325392023e-21
3 	0.771825571663976 	5.89805981832114e-17 	0.211989255224025 	-0.0315376419616539 	-2.44517828065182e-24
3 	0.807922061953054 	5.55111512312578e-17 	0.256136135494982 	-0.0337849255573918 	-6.29344473202035e-21
3 	0.845340872387743 	5.20417042793042e-17 	0.303887062911378 	-0.0359659866584439 	1.15802479449277e-20
3 	0.884130443427309 	5.55111512312578e-17 	0.354728629481498 	-0.0380048469333845 	7.51363112084908e-18
3 	0.924340990046898 	5.89805981832114e-17 	0.40802778489774 	-0.0398369225631661 	8.14002679748898e-18
3 	0.966024566743242 	5.6920614055489e-17 	0.463029223348966 	-0.0414099650310057 	3.1375193480606e-20
3 	1.00923513492173 	5.908901840046e-17 	0.51886550973406 	-0.0426719999495531 	5.56397842884898e-22
3 	1.05402863275206 	6.07153216591882e-17 	0.57454133155701 	-0.0435857759491562 	-5.33564907325891e-22
3 	1.10046304758287 	6.54858112181245e-17 	0.629015399038373 	-0.0441202744976295 	-2.91408608049925e-22
3 	1.14859849100923 	7.02563007770607e-17 	0.681217316521861 	-0.0442564691726833 	7.8404431070589e-24
3 	1.19849727668995 	6.85215773010839e-17 	0.730178896028137 	-0.0440081509352927 	-1.72881589708707e-20
3 	1.25022400101563 	6.24500451351651e-17 	0.775270783635599 	-0.0434225175049324 	9.92277687301074e-22
3 	1.30384562673186 	5.72458747072346e-17 	0.81643894888547 	-0.0425319557650955 	2.68797302799229e-21
3 	1.35943156962566 	5.72458747072346e-17 	0.854244884361333 	-0.0413704940835731 	1.66651067315865e-22
3 	1.41705378838763 	6.07153216591882e-17 	0.889029827810725 	-0.0400047336368624 	-2.82744523889486e-21
3 	1.47678687776592 	5.89805981832114e-17 	0.920858396522625 	-0.0385391141929878 	-1.60625285405181e-21
3 	1.53870816513278 	6.24500451351651e-17 	0.949977731195245 	-0.0370464439662047 	-1.33836288895313e-23
3 	1.60289781058851 	7.28583859910259e-17 	0.976738659668631 	-0.035552706529047 	2.82939465390356e-21
3 	1.66943891073267 	7.97972798949331e-17 	1.00148009003045 	-0.0340524267037493 	1.84648483506953e-23
3 	1.71135564625027 	8.32667268468867e-17 	1.01593363767359 	-0.0331210038662774 	-8.45052768677064e-22
3 	1.74646535410267 	7.97972798949331e-17 	1.02707497756501 	-0.0323465498701895 	-4.61904422045042e-21
3 	1.8099231933566 	7.63278329429795e-17 	1.04611726605192 	-0.0309437930132666 	-1.45556869647555e-20
3 	1.88404823953249 	7.63278329429795e-17 	1.06636690042461 	-0.0292874927906149 	-2.90325917725096e-21
3 	1.96088870322038 	7.97972798949331e-17 	1.0846482753066 	-0.027612026147896 	0
3 	2.02025965173185 	8.32667268468867e-17 	1.09800904605564 	-0.0262548484716481 	0
3 	2.06006301192217 	7.97972798949331e-17 	1.10687163928263 	-0.0252675154478146 	0
3 	2.09845978584128 	7.63278329429795e-17 	1.11442434574638 	-0.0243704233623059 	0
3 	2.13549967996946 	7.63278329429795e-17 	1.12128244404348 	-0.0235048088536706 	0
3 	2.17123064424048 	7.28583859910259e-17 	1.12750152014367 	-0.0226685852728391 	0
3 	2.20569893411516 	6.93889390390723e-17 	1.13313127624265 	-0.0218619474300152 	0
3 	2.23894917046123 	6.93889390390723e-17 	1.13821609868878 	-0.0210847466412198 	0
3 	2.27102439731726 	6.93889390390723e-17 	1.14279550747528 	-0.0203365055768947 	0
3 	2.30196613761522 	6.93889390390723e-17 	1.14690454184697 	-0.019616568684657 	0
3 	2.33181444693392 	6.59194920871187e-17 	1.15057409785459 	-0.0189241495573003 	0
3 	2.3606079653529 	6.59194920871187e-17 	1.1538312264487 	-0.0182583603443358 	0
3 	2.38838396747391 	6.59194920871187e-17 	1.1566993962333 	-0.0176182408767366 	0
3 	2.41517841067461 	6.59194920871187e-17 	1.15919872266162 	-0.0170027838167703 	0
3 	2.44102598165722 	6.93889390390723e-17 	1.16134616490939 	-0.0164109550615391 	0
3 	2.46596014135208 	6.93889390390723e-17 	1.16315569187963 	-0.0158417100807232 	0
3 	2.49001316823444 	6.93889390390723e-17 	1.16463841925972 	-0.0152940068413279 	0
3 	2.51321620011054 	6.93889390390723e-17 	1.16580272009265 	-0.0147668158607621 	0
3 	2.535599274427 	7.28583859910259e-17 	1.16665431190303 	-0.0142591278680279 	0
3 	2.55719136715571 	7.63278329429795e-17 	1.16719632404751 	-0.0137699594913212 	0
3 	2.57802043030466 	7.63278329429795e-17 	1.1674293496611 	-0.013298357325339 	0
3 	2.59811342810315 	7.97972798949331e-17 	1.16735148735058 	-0.0128434006681865 	0
3 	2.61749637190832 	8.32667268468867e-17 	1.1669583786126 	-0.0124042031568326 	0
3 	2.63619435387806 	7.63278329429795e-17 	1.16624324774203 	-0.0119799134707771 	0
3 	2.65423157945406 	7.28583859910259e-17 	1.16519695159225 	-0.0115697152155294 	0
3 	2.67163139869691 	7.63278329429795e-17 	1.16380804671885 	-0.0111728260411416 	0
3 	2.68841633651388 	7.63278329429795e-17 	1.16206288087022 	-0.0107884959983945 	-1.2665332711832e-16
3 	2.70460812181851 	7.97972798949331e-17 	1.15994571411679 	-0.0104160050901929 	-1.20928630120006e-16
3 	2.72022771565972 	8.32667268468867e-17 	1.15743887177369 	-0.0100546599444074 	1.38051878899087e-16
3 	2.73529533835695 	8.32667268468867e-17 	1.15452292641209 	-0.00970378952491786 	-1.26526894747951e-17
3 	2.74983049567626 	8.32667268468867e-17 	1.15117689965694 	-0.00936273981918108 	-1.38113581411632e-16
3 	2.76385200408157 	7.63278329429795e-17 	1.14737846650515 	-0.00903086750165459 	1.58665452539104e-16
3 	2.77737801509344 	6.93889390390723e-17 	1.14310413643167 	-0.00870753267756324 	1.51799162575217e-16
3 	2.79042603878708 	6.93889390390723e-17 	1.1383293779273 	-0.00839209095859671 	0
3 	2.80301296646003 	6.93889390390723e-17 	1.13302864797696 	-0.00808388529949284 	0
3 	2.81515509249873 	7.28583859910259e-17 	1.12717528691477 	-0.00778223821043344 	0
3 	2.82686813547238 	7.63278329429795e-17 	1.12074124310313 	-0.00748644512561336 	0
3 	2.83816725848143 	7.97972798949331e-17 	1.11369660099662 	-0.00719576982228774 	0
3 	2.84906708878692 	8.32667268468867e-17 	1.1060088991683 	-0.0069094428231861 	0
3 	2.85958173674616 	7.97972798949331e-17 	1.09764223950959 	-0.00662666367436894 	0
3 	2.86972481407933 	7.28583859910259e-17 	1.08855620218045 	-0.00634660789056886 	0
3 	2.87950945149043 	6.93889390390723e-17 	1.07870459025043 	-0.00606843917589392 	0
3 	2.88894831566567 	6.93889390390723e-17 	1.06803403166446 	-0.00579132705398034 	0
3 	2.89805362567107 	6.93889390390723e-17 	1.05648246456802 	-0.00551446997732543 	0
3 	2.90683716877067 	6.93889390390723e-17 	1.04397752783078 	-0.00523712974840103 	0
3 	2.9153103156857 	6.93889390390723e-17 	1.03043486418629 	-0.00495871372512089 	0
3 	2.92348403531449 	6.59194920871187e-17 	1.01575414825262 	-0.00467874959216473 	0
3 	2.9313689089323 	6.59194920871187e-17 	0.999796025806269 	-0.00439637086591917 	0
3 	2.93897514388925 	6.93889390390723e-17 	0.982318488672891 	-0.00410946505189771 	0
3 	2.94631258682425 	6.93889390390723e-17 	0.963021166309439 	-0.0038155190023286 	0
3 	2.95339073641193 	6.93889390390723e-17 	0.941645826756684 	-0.00351389074336484 	0
3 	2.96021875565916 	6.93889390390723e-17 	0.917948990737699 	-0.00320556279156439 	0
3 	2.96680548376697 	6.93889390390723e-17 	0.891665571257491 	-0.00289260998494368 	0
3 	2.97315944757337 	6.93889390390723e-17 	0.86248276616084 	-0.00257786295058709 	0
3 	2.97928887259171 	6.93889390390723e-17 	0.830013099957494 	-0.00226465411556193 	0
3 	2.98520169365903 	6.93889390390723e-17 	0.79376005640659 	-0.00195665864291141 	0
3 	2.99090556520807 	6.93889390390723e-17 	0.75306998491939 	-0.00165778045062647 	0
3 	2.99640787117633 	6.93889390390723e-17 	0.707065440286798 	-0.00137199568271076 	0
3 	3.00171573456492 	6.93889390390723e-17 	0.654582522123111 	-0.0011033022829542 	0
3 	3.00683602665963 	6.93889390390723e-17 	0.594119060515473 	-0.000855678259672129 	0
3 	3.01177537592613 	6.93889390390723e-17 	0.523711015410186 	-0.000632193951312013 	0
3 	3.01654017659085 	6.93889390390723e-17 	0.441162164569187 	-0.000434826367623636 	0
3 	3.02113659691864 	7.28583859910259e-17 	0.346656200802319 	-0.000267229104677347 	0
3 	3.02557058719784 	7.97972798949331e-17 	0.245533368842057 	-0.000137674719791028 	0
3 	3.02984788744324 	8.32667268468867e-17 	0.144673319077167 	-5.18493449282951e-05 	0
