# Residuals            
# Time                 	Ux                     	Uy                     	p                      	k                      	omega                  
1                      	9.999999999639683e-01	1.000000000000000e+00	1.000000000000000e+00	9.999999999989424e-01	3.820879074843905e-02
2                      	7.882652433450422e-01	7.994211614865354e-01	9.648547753385838e-01	2.957970656832760e-01	1.451946118895555e-02
3                      	1.139549885110798e-01	1.528606414394291e-01	9.092730810887011e-01	1.472685174165876e-01	1.902985604648431e-02
4                      	1.181587861849657e-01	1.107420624317254e-01	7.981732298043043e-01	1.717225175425086e-01	2.034679799959420e-02
5                      	3.076814996088786e-01	3.456093630094518e-01	7.838033938623545e-01	2.384825206097116e-01	2.011213836686713e-02
6                      	5.395987263299588e-01	4.850647464639821e-01	7.947757407725631e-01	2.481500445672653e-01	2.457108225841045e-02
7                      	2.926783767899039e-01	2.674751044828236e-01	7.938620256386055e-01	1.755500081279946e-01	2.815166407815205e-02
8                      	3.547149669472262e-01	3.377783402823198e-01	7.937652481058639e-01	1.997586046963606e-01	2.662101140807643e-02
9                      	3.361522945764231e-01	3.551785101349472e-01	7.507996221292408e-01	2.116797656404099e-01	2.278318562663639e-02
10                     	2.900829168244600e-01	2.887586201014229e-01	7.188189334111830e-01	2.190905760067872e-01	2.831799437741949e-02
11                     	2.589289454203431e-01	2.817896682802166e-01	7.783963743909931e-01	2.136618618801423e-01	2.469573023571823e-02
12                     	3.225727162604711e-01	3.077939000588985e-01	7.999215014754977e-01	2.498736316314759e-01	2.900677364123712e-02
13                     	2.927301643423667e-01	2.892891749722383e-01	7.727217854971977e-01	2.472176239051671e-01	3.479311477921561e-02
14                     	3.104617404012721e-01	3.031641646291066e-01	7.618288767959611e-01	2.172185287021124e-01	3.264338594598438e-02
15                     	3.726506399678289e-01	3.683078127321917e-01	7.652003408249699e-01	2.270466328106211e-01	3.105924933832302e-02
16                     	2.933641944030683e-01	2.917819542738698e-01	7.877237340401461e-01	2.120505107789279e-01	4.012713232105902e-02
17                     	2.057057905074248e-01	2.645608966241759e-01	7.438780930182880e-01	1.894982218795883e-01	3.544021187168176e-02
18                     	2.220954761146528e-01	3.018506871636251e-01	7.318850609577566e-01	1.803457714570277e-01	3.003618459221344e-02
19                     	3.578467560678269e-01	3.400804450844331e-01	7.360521896400710e-01	2.090498871975010e-01	3.331641545807262e-02
20                     	2.837042091964021e-01	2.550710113538932e-01	7.702462128979576e-01	2.082874192787015e-01	4.030891834559573e-02
21                     	2.818605688333478e-01	2.876334111403453e-01	7.717293681318013e-01	2.215605509850875e-01	6.397479922862120e-02
22                     	3.703941175396251e-01	3.893521380742375e-01	7.226172819010316e-01	2.448310269826461e-01	4.662162635957488e-02
23                     	2.974727350906693e-01	3.141447491986472e-01	7.676725835731173e-01	2.502255499880324e-01	3.976008914626246e-02
24                     	2.494602762363514e-01	2.590395978180557e-01	7.605750190539337e-01	8.638453470210412e-02	9.523083999532820e-01
25                     	3.323278724876769e-01	3.118557813984708e-01	7.373642690692058e-01	1.475756939999672e-01	5.386078829489300e-01
26                     	3.570038528730018e-01	3.363634106514516e-01	7.341203193658049e-01	2.288892346804719e-01	5.385188982103272e-01
27                     	2.850137341905375e-01	2.821456790078824e-01	7.543994794846335e-01	2.756827075049931e-01	5.381037842246639e-01
28                     	2.961171906119434e-01	3.297955377089807e-01	7.445344119992351e-01	2.562467984738581e-01	5.355323169728036e-01
29                     	3.139884293374580e-01	3.745608439221207e-01	7.392735229494827e-01	2.679965736046940e-01	5.131132130641918e-01
30                     	2.543953257358639e-01	2.888573753494944e-01	7.559230826680190e-01	2.661579887629447e-01	3.561707909127981e-01
31                     	2.585246148956751e-01	2.881808848926142e-01	7.363843926123537e-01	2.224777731776713e-01	1.154549755690769e-01
32                     	3.252916266741225e-01	3.148143539784385e-01	7.720381594002244e-01	2.572041187533554e-01	4.562757602133433e-02
33                     	2.788983007559961e-01	2.619318385580154e-01	7.848295147488786e-01	2.866967382376830e-01	3.757254600966496e-02
34                     	2.517338938884262e-01	2.890441997400319e-01	7.807117100028477e-01	2.447046662545325e-01	3.752622205208000e-02
35                     	2.603635923354948e-01	3.079507815954874e-01	7.706229753120910e-01	2.290204614904956e-01	4.001680063065333e-02
36                     	2.347309986282093e-01	2.509933642659044e-01	7.459529708046101e-01	2.087277460204396e-01	4.115765348034260e-02
37                     	2.280824076173362e-01	2.433940873843270e-01	7.532830172413053e-01	2.174722426621713e-01	2.964397125727864e-02
38                     	2.423386250281110e-01	2.412076937619975e-01	7.531878711434360e-01	1.523354695823575e-01	2.493315886531541e-02
39                     	2.480953147540785e-01	2.166223030952252e-01	7.447955662857288e-01	2.059936733022791e-01	2.968011182695043e-02
40                     	2.252336021659768e-01	2.233807222923280e-01	7.855737464772669e-01	3.844906484234251e-01	6.857395902433631e-02
41                     	2.308245505024971e-01	2.747335168590105e-01	7.831513037438856e-01	2.924411962039581e-01	7.526911641293543e-02
42                     	2.393727008946347e-01	2.663335265060380e-01	7.527632793194573e-01	2.196638916956389e-01	5.859594516689207e-02
43                     	2.754843785838465e-01	2.908095962407122e-01	7.098840233820879e-01	2.240868316056050e-01	5.095829236514261e-02
44                     	2.148567531321086e-01	2.122680706395177e-01	7.335334409632603e-01	2.326040564778693e-01	4.212962622043005e-02
45                     	1.722709185076332e-01	1.592731584148044e-01	7.138819325396699e-01	1.930514333616075e-01	4.286902710683573e-02
46                     	1.835921661645396e-01	1.860992148169923e-01	7.116059266682474e-01	1.688950078422566e-01	4.619163117765836e-02
47                     	1.998421184152873e-01	1.996819581716258e-01	7.164888562579794e-01	1.240016502016894e-01	3.410336915123639e-02
48                     	1.643662455861173e-01	2.032061690913117e-01	7.139866740265746e-01	1.218775196561465e-01	2.546199789468266e-02
49                     	1.286378000497658e-01	1.942556828056222e-01	7.213374038031727e-01	1.288956830433901e-01	2.440605420360116e-02
50                     	1.161330509513591e-01	1.882982891724266e-01	7.438133605264161e-01	1.204318239504876e-01	2.257596182512979e-02
51                     	1.174600302909022e-01	1.676195207711557e-01	7.243000838252922e-01	8.807183031061980e-02	2.007294664646500e-02
52                     	1.186348310203860e-01	1.554730198104246e-01	6.923674506840880e-01	9.067338504096224e-02	1.561933783185749e-02
53                     	9.971178303075705e-02	1.459066656496602e-01	7.016835702848386e-01	8.636968588566328e-02	1.341745715472298e-02
54                     	8.600049995180274e-02	1.362170980328329e-01	7.167400296425044e-01	8.358746979084131e-02	1.242615602009680e-02
55                     	7.970177600493045e-02	1.316676887032080e-01	7.296202934138623e-01	7.662882721081105e-02	1.160465905461664e-02
56                     	6.893318137893238e-02	1.327372534786874e-01	7.112870059471618e-01	6.999198592719873e-02	1.025173157231116e-02
57                     	6.245635427968100e-02	1.265041636209872e-01	7.083343624744992e-01	7.075528492074212e-02	9.395435896353829e-03
58                     	5.958405739182621e-02	1.098874832381218e-01	7.241206340972889e-01	6.876699458995879e-02	8.873123092434914e-03
59                     	5.391063361014600e-02	9.609808149430954e-02	7.083569414665328e-01	6.356677287541056e-02	7.966380596512650e-03
60                     	4.829881200596831e-02	9.034978475550962e-02	6.905806092305259e-01	5.967175062939040e-02	7.333924679893725e-03
61                     	4.426084164602354e-02	9.372431264361859e-02	7.051694830592056e-01	5.563089806346251e-02	6.910280787785764e-03
62                     	4.235601607997073e-02	8.886196684573919e-02	6.812162318342225e-01	5.317083103406641e-02	6.350460285114584e-03
63                     	3.972850435980735e-02	7.889954039218208e-02	6.507077107351907e-01	5.280210532429346e-02	5.859140601688873e-03
64                     	3.716706158007085e-02	7.256184430036167e-02	6.262450949555527e-01	5.256502801154181e-02	5.347200574146402e-03
65                     	3.448473352046649e-02	7.292196968050629e-02	6.131224453536804e-01	5.120064353525539e-02	5.134905588419498e-03
66                     	3.202656970712412e-02	7.001838748193009e-02	6.235625792622372e-01	4.778574882406430e-02	4.792069227110990e-03
67                     	2.878096091517153e-02	6.534674467057605e-02	6.393822506261841e-01	4.623181335933554e-02	4.373955482866735e-03
68                     	2.767186442402297e-02	5.998619897232866e-02	6.108243801420352e-01	4.605903172010538e-02	4.145929383799432e-03
69                     	2.775697142404085e-02	5.544787506882741e-02	5.802405053721071e-01	4.583707970524835e-02	4.071875416455529e-03
70                     	2.656447249681190e-02	5.331118143090013e-02	5.603733267189646e-01	4.522830599467623e-02	3.920850979838955e-03
71                     	2.523194482432590e-02	5.304058232422044e-02	5.339987718837451e-01	4.365912593274030e-02	3.677135795803157e-03
72                     	2.421524319492380e-02	5.145343185512607e-02	5.394502944990357e-01	4.201552310708134e-02	3.460066397883223e-03
73                     	2.308743400322688e-02	4.851789263275690e-02	5.469548914852870e-01	4.090656849500113e-02	3.383845256018042e-03
74                     	2.245965101583663e-02	4.481669530878735e-02	5.449171234581763e-01	4.010850046134355e-02	3.141654068254473e-03
75                     	2.224473775291563e-02	4.208525202638485e-02	5.280327103779969e-01	3.934342248567899e-02	3.089667588416928e-03
76                     	2.218103317394075e-02	4.178267207607473e-02	5.209038460720211e-01	3.825530252582733e-02	3.517810239262393e-03
77                     	2.199408302514141e-02	4.129111282605658e-02	5.117687388361268e-01	3.673721508837786e-02	4.456324707765732e-03
78                     	2.157333768296828e-02	3.999953700518257e-02	5.058951837564859e-01	3.552532523148630e-02	3.009819945071992e-03
79                     	2.125266181426898e-02	3.860716646804279e-02	4.970300985672558e-01	3.450717224932680e-02	2.731563584026687e-03
80                     	2.117665597863339e-02	3.738816993426045e-02	4.816925695437335e-01	3.345218988211240e-02	2.722610130182758e-03
81                     	2.134497696488555e-02	3.677785096497129e-02	4.636055134556531e-01	3.262126826504098e-02	2.573465946370942e-03
82                     	2.140095175946964e-02	3.662832748744531e-02	4.513143218066228e-01	3.163509810079440e-02	2.506564846875379e-03
83                     	2.140989314855480e-02	3.623358651810969e-02	4.511187384595321e-01	3.069903346797700e-02	2.357515774463636e-03
84                     	2.129100710657024e-02	3.543820321698945e-02	4.426772054569905e-01	3.011693299585268e-02	2.425658917007814e-03
85                     	2.122788882623231e-02	3.463113278833531e-02	4.380335307878452e-01	2.906956212311175e-02	2.261154328653519e-03
86                     	2.118214460369478e-02	3.418424977318797e-02	4.213781313503430e-01	2.874855427949647e-02	2.252766908298104e-03
87                     	2.110259477988829e-02	3.367251294547801e-02	4.037044446512149e-01	2.800644717622696e-02	2.244323412190295e-03
88                     	2.095183518994716e-02	3.318631798719410e-02	3.975266638332408e-01	2.754481904065664e-02	2.135056932624343e-03
89                     	2.070126422454582e-02	3.246186937750514e-02	3.870764259711041e-01	2.682366171226130e-02	2.139792721340548e-03
90                     	2.044848763485823e-02	3.184767551929682e-02	3.741822131439412e-01	2.618331830506275e-02	2.072716617732417e-03
91                     	2.013751208614393e-02	3.124255299061989e-02	3.637049101059058e-01	2.580621458782248e-02	2.059912513644315e-03
92                     	1.986475203863556e-02	3.087850426597992e-02	3.558188327522273e-01	2.535654428390392e-02	2.026709996699837e-03
93                     	1.951130477454472e-02	3.043470171997109e-02	3.490730643776238e-01	2.528385795902521e-02	2.027222224905159e-03
94                     	1.914643235914531e-02	3.012938157210632e-02	3.438631037369728e-01	2.483101659761501e-02	1.998197533647446e-03
95                     	1.885271388549149e-02	2.968139893766684e-02	3.388877623884275e-01	2.483898429505769e-02	2.010801560189173e-03
96                     	1.855438131883375e-02	2.933218760171419e-02	3.353006842676407e-01	2.473757723810729e-02	1.994316331796090e-03
97                     	1.834318779853647e-02	2.892454285895686e-02	3.329507881180043e-01	2.488111412995428e-02	1.962969176110379e-03
98                     	1.806803045957653e-02	2.863622127126290e-02	3.277856988652194e-01	2.517872707192443e-02	1.947612658010187e-03
99                     	1.780443386502737e-02	2.829716644648784e-02	3.236114535283784e-01	2.557084202774055e-02	1.928863492945685e-03
100                    	1.747149574654515e-02	2.793350412764362e-02	3.168015598200044e-01	2.568502893409932e-02	1.912752527721730e-03
101                    	1.723764990222251e-02	2.771913454459302e-02	3.126206895289582e-01	2.630361652257302e-02	1.892579359757050e-03
102                    	1.696417401539940e-02	2.740911361532446e-02	3.094278249821137e-01	2.678614477528045e-02	1.877324299849306e-03
103                    	1.669312961675205e-02	2.710245871212471e-02	3.036196425176225e-01	2.707036589124219e-02	1.850286649573450e-03
104                    	1.645697720613127e-02	2.688349838740595e-02	3.006971267842903e-01	2.743867546720882e-02	1.807244098558400e-03
105                    	1.612091918840912e-02	2.670671906917987e-02	2.978949321709603e-01	2.789427448418580e-02	1.783093992588243e-03
106                    	1.581403065044433e-02	2.654779138273781e-02	2.963025409288925e-01	2.816356816735977e-02	1.742324318288725e-03
107                    	1.548911562067542e-02	2.643472979370329e-02	2.952165498891451e-01	2.825306800884768e-02	1.697783477518473e-03
108                    	1.516295628208959e-02	2.640541366405477e-02	2.916430803345114e-01	2.848167502835932e-02	1.681115445920476e-03
109                    	1.481454218173782e-02	2.644624849403857e-02	2.899033293972882e-01	2.868175253088855e-02	1.643505035818124e-03
110                    	1.449985288439765e-02	2.652412259241632e-02	2.877469569776496e-01	2.868211073108589e-02	1.595855970208042e-03
111                    	1.415779589875991e-02	2.656701864618397e-02	2.837082273295612e-01	2.854688520502856e-02	1.555009193934390e-03
112                    	1.380486612802041e-02	2.655811506849402e-02	2.778959109886356e-01	2.840617509918645e-02	1.515374793788395e-03
113                    	1.348223249494231e-02	2.663771379876981e-02	2.723407630642787e-01	2.820123616269299e-02	1.483669781006463e-03
114                    	1.313474185106164e-02	2.681917193808070e-02	2.671594609566553e-01	2.797822920462535e-02	1.451500422969630e-03
115                    	1.277058497029495e-02	2.706303083011027e-02	2.632081801085127e-01	2.764331585590353e-02	1.421948303942796e-03
116                    	1.240012083727896e-02	2.732236503465134e-02	2.612402528857882e-01	2.730907318832624e-02	1.375568332078483e-03
117                    	1.206619587036356e-02	2.750985729824341e-02	2.580107478348244e-01	2.704367069149446e-02	1.335637034163608e-03
118                    	1.174161720001435e-02	2.762177058467672e-02	2.598241192742273e-01	2.675294964411673e-02	1.312370378552502e-03
119                    	1.142948903376006e-02	2.777416929656138e-02	2.557094835915504e-01	2.643874979400718e-02	1.271598777308917e-03
120                    	1.113366486618466e-02	2.787162298711754e-02	2.515123733247911e-01	2.618219613940388e-02	1.233400924238116e-03
121                    	1.086771679467928e-02	2.790525597450960e-02	2.501362808302683e-01	2.588621846959029e-02	1.221805967854066e-03
122                    	1.065544862153909e-02	2.793465283632953e-02	2.473983778110580e-01	2.554340631038407e-02	1.190518796146370e-03
123                    	1.051663988975793e-02	2.788149846700098e-02	2.451715836089869e-01	2.524336130176516e-02	1.161023440067257e-03
124                    	1.040671194343728e-02	2.783890802281206e-02	2.432094688411263e-01	2.497559035837893e-02	1.142428929797215e-03
125                    	1.032533620125166e-02	2.775630860512746e-02	2.439036239751193e-01	2.474478213104047e-02	1.114411351559452e-03
126                    	1.023921859370700e-02	2.762933293263570e-02	2.440187656213429e-01	2.453372791298038e-02	1.099706674090735e-03
127                    	1.013496342964027e-02	2.757178468039621e-02	2.444385670179729e-01	2.430199781372773e-02	1.080128443164945e-03
128                    	1.004128450477138e-02	2.745726408435966e-02	2.398349663780389e-01	2.409562794164738e-02	1.059043471794573e-03
129                    	9.968827270055358e-03	2.735904451381932e-02	2.382104208021242e-01	2.392861468069486e-02	1.030405836400802e-03
130                    	9.927526965264458e-03	2.722968923014099e-02	2.346478340552869e-01	2.376392645835520e-02	1.019120564453672e-03
131                    	9.868286318441041e-03	2.703147616208030e-02	2.313187376017942e-01	2.358784668216114e-02	1.004753994880409e-03
132                    	9.783341028334940e-03	2.685119220221883e-02	2.294389226588211e-01	2.338055818786347e-02	9.855093193010757e-04
133                    	9.691215429118128e-03	2.673402819598024e-02	2.246310921615549e-01	2.314673227974292e-02	9.590122708766500e-04
134                    	9.601139434417533e-03	2.661084997521619e-02	2.186937918300770e-01	2.291754935781033e-02	9.488961569222777e-04
135                    	9.502496372466892e-03	2.648036159209146e-02	2.153058643139696e-01	2.267632137903884e-02	9.327868856885267e-04
136                    	9.412936637583611e-03	2.628600934436386e-02	2.092675628564760e-01	2.243329048231063e-02	9.114717816876253e-04
137                    	9.310832158232118e-03	2.606442640441187e-02	2.021824621016877e-01	2.214242078051305e-02	9.060659377924067e-04
138                    	9.202956225697402e-03	2.582190605815997e-02	1.974199230574914e-01	2.185643623813768e-02	8.913159493197164e-04
139                    	9.094481864765962e-03	2.553042531611403e-02	1.940163999762826e-01	2.155621456258549e-02	8.918460834308250e-04
140                    	8.989345953877959e-03	2.525784587661639e-02	1.898411453224694e-01	2.124728195553400e-02	8.776961166640194e-04
141                    	8.875438457590286e-03	2.499280044110178e-02	1.848457349808683e-01	2.095970191307526e-02	8.669165209030381e-04
142                    	8.763958708030392e-03	2.468794491565995e-02	1.805076068007045e-01	2.067756520147531e-02	8.566082468053551e-04
143                    	8.668078287093792e-03	2.434384184225757e-02	1.737958505232712e-01	2.039011854774858e-02	8.552348755220160e-04
144                    	8.547740195072361e-03	2.399973181109588e-02	1.711206361860698e-01	2.012324649826339e-02	8.460267095679809e-04
145                    	8.447340152132058e-03	2.363762563948418e-02	1.683114789320758e-01	1.989789806358220e-02	8.322055942240407e-04
146                    	8.337210661204176e-03	2.329936640487362e-02	1.668037696575038e-01	1.969001825712929e-02	8.178073474638049e-04
147                    	8.239841774638759e-03	2.295381952809893e-02	1.625370906373961e-01	1.949668268118987e-02	8.097225926736874e-04
148                    	8.161575421559975e-03	2.261955635334308e-02	1.568762750242647e-01	1.935946670392978e-02	8.030235756863126e-04
149                    	8.087417778195910e-03	2.229754600155121e-02	1.567393149368614e-01	1.927444775697516e-02	8.058868834251143e-04
150                    	8.020506714365010e-03	2.200319047070206e-02	1.518604166841503e-01	1.922107752169205e-02	7.907173867082333e-04
151                    	7.920160239498167e-03	2.174835092015992e-02	1.478703902927744e-01	1.918117829506830e-02	7.954614346874411e-04
152                    	7.816469131555996e-03	2.153046541370359e-02	1.438278871090581e-01	1.912039567004487e-02	7.901124064493295e-04
153                    	7.694303103359444e-03	2.132403518701887e-02	1.508385285043768e-01	1.907665260762457e-02	7.846403651547122e-04
154                    	7.612007767065708e-03	2.110028048634036e-02	1.470554753574199e-01	1.906385289308108e-02	7.807121273586770e-04
155                    	7.523311618026536e-03	2.088280971776613e-02	1.437905203461081e-01	1.901023386355261e-02	7.715650790648317e-04
156                    	7.417405859510828e-03	2.066944893109291e-02	1.447942898870398e-01	1.893961816358902e-02	7.679951707049826e-04
157                    	7.295200179096055e-03	2.048525922355764e-02	1.457465156900520e-01	1.885532734098120e-02	7.644749613777870e-04
158                    	7.172151214874726e-03	2.028665673859966e-02	1.439043063087895e-01	1.875720856610739e-02	7.600213395163515e-04
159                    	7.054866993929829e-03	2.006841413616915e-02	1.412754426008350e-01	1.863812793062533e-02	7.563638657981191e-04
160                    	6.947367428027136e-03	1.982436519884339e-02	1.393652755853284e-01	1.849940317470773e-02	7.516002742730027e-04
161                    	6.845418318176756e-03	1.957550209331435e-02	1.374718705884629e-01	1.834581922528919e-02	7.469432009106499e-04
162                    	6.746276494282682e-03	1.931888097688048e-02	1.358042075934061e-01	1.818420961997750e-02	7.387363273820355e-04
163                    	6.636917554342918e-03	1.909312363180256e-02	1.389173245235443e-01	1.801456382310273e-02	7.375380077582878e-04
164                    	6.545334388997159e-03	1.884990854482058e-02	1.379444719165815e-01	1.783492107239041e-02	7.255323068205847e-04
165                    	6.459922454407210e-03	1.860561895006939e-02	1.366322659683097e-01	1.764594043473892e-02	7.209704708843233e-04
166                    	6.377221957016612e-03	1.836047528649002e-02	1.366919525758241e-01	1.745297923185688e-02	7.218936995946603e-04
167                    	6.304162356898829e-03	1.810217198376303e-02	1.346905777367020e-01	1.725857972607106e-02	7.124912495739906e-04
168                    	6.236554324094434e-03	1.783922611067718e-02	1.321125915117749e-01	1.706226907551850e-02	7.073423351936867e-04
169                    	6.162836611950004e-03	1.758592582623224e-02	1.319073836630247e-01	1.687093032320663e-02	7.082315706499765e-04
170                    	6.100821476087015e-03	1.732439484750693e-02	1.305454927896748e-01	1.668085998029418e-02	6.962596169468499e-04
171                    	6.041188208862660e-03	1.706824032517713e-02	1.293307012922424e-01	1.649706291109037e-02	6.928948001284768e-04
172                    	5.982669937012652e-03	1.681315872636126e-02	1.277279127061731e-01	1.631042763384951e-02	6.869708700758311e-04
173                    	5.921014871889065e-03	1.657224983587562e-02	1.267860462147900e-01	1.612442543656068e-02	6.762329611596265e-04
174                    	5.862376266287674e-03	1.632280706826261e-02	1.238835975910143e-01	1.595333905744713e-02	6.704639633724322e-04
175                    	5.804236834785149e-03	1.607175258301400e-02	1.208943087466913e-01	1.578949668731892e-02	6.584587341598548e-04
176                    	5.747042674279033e-03	1.583246423068259e-02	1.186785200004060e-01	1.564372540452942e-02	6.581849743146330e-04
177                    	5.689961324257185e-03	1.559690996591682e-02	1.167054124671572e-01	1.549449257081316e-02	6.526092245283674e-04
178                    	5.634112274684280e-03	1.535939727442230e-02	1.144997417164681e-01	1.534544753714782e-02	6.468079429193592e-04
179                    	5.576264571147265e-03	1.512198219408639e-02	1.125166378579545e-01	1.519971464088323e-02	6.406701403889146e-04
180                    	5.517030822845374e-03	1.488829687311718e-02	1.105542281729025e-01	1.504895739499955e-02	6.354372748171344e-04
181                    	5.458464844918897e-03	1.465750831904883e-02	1.090117612014945e-01	1.490344128342090e-02	6.278391923071681e-04
182                    	5.403255712565691e-03	1.442227095938173e-02	1.066030789464668e-01	1.475989119043301e-02	6.215784544602828e-04
183                    	5.345674517315572e-03	1.419959078075436e-02	1.063071595813604e-01	1.462101479671125e-02	6.149297370562211e-04
184                    	5.284165751234469e-03	1.397966267335926e-02	1.059154541138956e-01	1.447829375584754e-02	6.092719435471729e-04
185                    	5.221939469427927e-03	1.376464268227062e-02	1.048173845368794e-01	1.434046960963857e-02	6.040284320565790e-04
186                    	5.160028833971497e-03	1.355357897382592e-02	1.034404080301644e-01	1.420028259327709e-02	5.997737017449325e-04
187                    	5.100285424547614e-03	1.334526444947427e-02	1.023692718195440e-01	1.405987666769956e-02	5.948620732493417e-04
188                    	5.039428539037167e-03	1.314567218902529e-02	1.025497270225179e-01	1.392445979367616e-02	5.887752214711741e-04
189                    	4.985773340102085e-03	1.293551095035205e-02	1.020403241102140e-01	1.379488995901008e-02	5.865085182468109e-04
190                    	4.927186734667542e-03	1.274165650564024e-02	1.019397475042122e-01	1.366156743689033e-02	5.809901442461940e-04
191                    	4.865193895914699e-03	1.256498609209418e-02	1.005924830053229e-01	1.352108177727668e-02	5.780120898287477e-04
192                    	4.804084271307483e-03	1.239639365851400e-02	9.892087920678132e-02	1.338510458305328e-02	5.693812750615131e-04
193                    	4.745749941903628e-03	1.223210185065384e-02	9.732679449728006e-02	1.324823338916234e-02	5.697306516922590e-04
194                    	4.690261580882205e-03	1.206742092728466e-02	9.633123958965886e-02	1.311287214503413e-02	5.590756069821217e-04
195                    	4.637047456499532e-03	1.190688027152685e-02	9.577114641374018e-02	1.298587017233032e-02	5.611094395478019e-04
196                    	4.583610600142581e-03	1.175250376459463e-02	9.564677899405677e-02	1.285927946577023e-02	5.590161683329386e-04
197                    	4.530727055421608e-03	1.160859702576651e-02	9.499314865970596e-02	1.273232697036816e-02	5.570919130834002e-04
198                    	4.478557153404178e-03	1.147320937558076e-02	9.442200046082860e-02	1.260279778449610e-02	5.550372699510148e-04
199                    	4.429931324502612e-03	1.134339050772158e-02	9.370598385165864e-02	1.246854458672115e-02	5.522861341312537e-04
200                    	4.384433155177342e-03	1.121796536653829e-02	9.315457132706635e-02	1.233526000858798e-02	5.470015338725021e-04
201                    	4.340708890157933e-03	1.109735885807727e-02	9.264114521853271e-02	1.220593921568375e-02	5.433781682138274e-04
202                    	4.300096241618209e-03	1.098311314959763e-02	9.182650515209116e-02	1.207624310391056e-02	5.393462497673129e-04
203                    	4.261790122759056e-03	1.087983437035611e-02	9.120841975099854e-02	1.195227288562538e-02	5.358743331356363e-04
204                    	4.225642631208366e-03	1.078870120345139e-02	9.128849174620494e-02	1.182417623508628e-02	5.329485128681705e-04
205                    	4.191543562742769e-03	1.070138267860146e-02	9.116164323145559e-02	1.170025366048088e-02	5.285020667173403e-04
206                    	4.159874748829832e-03	1.061355370416531e-02	9.137953510313362e-02	1.157636950884776e-02	5.269348167557987e-04
207                    	4.130434908433947e-03	1.052803889451505e-02	9.120595653851575e-02	1.145533837715172e-02	5.238375925410867e-04
208                    	4.102327219780431e-03	1.044343770260112e-02	9.106120937561593e-02	1.133823853150501e-02	5.215724529696258e-04
209                    	4.075777010020223e-03	1.036155400247282e-02	9.141389289114112e-02	1.122436332253174e-02	5.185834103267064e-04
210                    	4.051945940044748e-03	1.028055368070213e-02	9.170079699578286e-02	1.110706667684328e-02	5.159676911801293e-04
211                    	4.031495737163830e-03	1.019863807603804e-02	9.269120569732174e-02	1.099498264775548e-02	5.151875434112540e-04
212                    	4.013794089716199e-03	1.011924981706442e-02	9.224677417502397e-02	1.088302385764676e-02	5.157977951596324e-04
213                    	3.997057198075451e-03	1.004000321598099e-02	9.236840958490077e-02	1.076917363738957e-02	5.106686108736978e-04
214                    	3.981891568937289e-03	9.963811431982017e-03	9.280065095334075e-02	1.066033367961316e-02	5.013477583703838e-04
215                    	3.968676019227680e-03	9.889803347087606e-03	9.297751746981342e-02	1.055939048554772e-02	5.006891706890011e-04
216                    	3.955787092105166e-03	9.814291213746522e-03	9.483481026279746e-02	1.045695489682966e-02	4.986665733236219e-04
217                    	3.943283994096034e-03	9.739719725177261e-03	9.433463158171941e-02	1.036320216650313e-02	4.961196021584250e-04
218                    	3.931735184757434e-03	9.662787123839816e-03	9.405934449995521e-02	1.026759721098517e-02	4.928143615274641e-04
219                    	3.921940080264123e-03	9.581766917147422e-03	9.419984985891415e-02	1.017889026264013e-02	4.899856499756698e-04
220                    	3.913884871114400e-03	9.503810086387206e-03	9.427328861837359e-02	1.008458081085228e-02	4.864993432240468e-04
221                    	3.906261952906089e-03	9.428558762683463e-03	9.442687694649445e-02	9.997577992200520e-03	4.847215284090297e-04
222                    	3.898759905521443e-03	9.360599032912432e-03	9.399100318740430e-02	9.912796239403400e-03	4.802749378507341e-04