6 	0.00848137685241548 	-2.42861286636753e-17 	0.0920477599427483 	0.000517797115395407 	75.771608928879 	2.24163022738281e-05
6 	0.0257121859855926 	-2.77555756156289e-17 	0.0919911457428332 	0.00371276448928351 	20.0436440587664 	0.000284313713999868
6 	0.0434875779150913 	-2.77555756156289e-17 	0.0918377075086575 	0.00691044584880813 	7.47494665287875 	0.00101943603927712
6 	0.0618247642773333 	-2.42861286636753e-17 	0.0916012929476025 	0.00920848704257631 	4.73713142964338 	0.00200137273989683
6 	0.0807415006855794 	-2.42861286636753e-17 	0.0913398618941471 	0.0110063628507551 	3.65524704467242 	0.00304565621950303
6 	0.100256103922415 	-2.77555756156289e-17 	0.0910815362730676 	0.0125436696548964 	3.10323670350241 	0.00406293924867373
6 	0.120387469675606 	-3.12250225675825e-17 	0.0908347447143866 	0.0139275760723821 	2.78826844268882 	0.00500727279753883
6 	0.141155090834502 	-3.46944695195361e-17 	0.0906038891455307 	0.0152120827738405 	2.60170853874493 	0.00585368633952874
6 	0.162579076364696 	-2.77555756156289e-17 	0.0903915115170246 	0.0164264162106591 	2.49402206977859 	0.0065895925963239
6 	0.184680170779227 	-2.08166817117217e-17 	0.09019814039539 	0.0175860770296124 	2.43933904044517 	0.00721055422354599
6 	0.207479774225169 	-2.42861286636753e-17 	0.0900227678234695 	0.0186976286722508 	2.4227087594738 	0.00771768623599658
6 	0.230999963205059 	-2.42861286636753e-17 	0.0898633712203045 	0.0197608897895116 	2.43470641446109 	0.00811581951403725
6 	0.25526351195324 	-2.42861286636753e-17 	0.0897173261107735 	0.0207699379500791 	2.4688595703244 	0.00841209915916767
6 	0.28029391448779 	-2.42861286636753e-17 	0.0895814850326617 	0.0217135506974814 	2.52029889848216 	0.00861488173394058
6 	0.306115407359419 	-1.73472347597681e-17 	0.0894511319179619 	0.0225753982953924 	2.5849941773212 	0.00873286894534278
6 	0.332752993119347 	-1.38777878078145e-17 	0.0893216280099542 	0.0233341473391084 	2.65929210156879 	0.00877444001645155
6 	0.360232464528886 	-1.38777878078145e-17 	0.0892082294024416 	0.0239634102718312 	2.73963039106529 	0.00872963036997223
6 	0.388580429534169 	-2.08166817117217e-17 	0.0891403751397747 	0.0244297167963992 	2.82228243845451 	0.00834467297767124
6 	0.417824337030213 	-2.77555756156289e-17 	0.0890945149752822 	0.0246852393018445 	2.90037901936839 	0.00783119651225233
6 	0.447992503439259 	-2.42861286636753e-17 	0.0890173917709793 	0.0246596850579123 	2.96251431561168 	0.0073596576392446
6 	0.479114140129122 	-2.08166817117217e-17 	0.0888946581739035 	0.0242902884165405 	2.99767898754249 	0.00694430575098651
6 	0.511219381698111 	-1.73472347597681e-17 	0.0887318318534372 	0.0235422888243999 	2.99979223244665 	0.00655020725010539
6 	0.544339315153887 	-2.08166817117217e-17 	0.0885325196745942 	0.0224110013212761 	2.96852884551405 	0.00615336467106084
6 	0.578506010014536 	-2.77555756156289e-17 	0.0882944080160578 	0.0209182224809277 	2.90643834372919 	0.00575284720650671
6 	0.613752549360983 	-2.77555756156289e-17 	0.0880122554083899 	0.0191118954193613 	2.81548002352982 	0.00536243495174205
6 	0.650113061870824 	-3.46944695195361e-17 	0.0876812876632504 	0.0170703709844195 	2.69611105665913 	0.00500115117042674
6 	0.687622754864603 	-4.5102810375397e-17 	0.0872998138395669 	0.0149127798795898 	2.55051731770507 	0.0046898632721854
6 	0.726317948396507 	-5.20417042793042e-17 	0.086869364339305 	0.0127710435101621 	2.38226556253031 	0.00443945831784972
6 	0.766236110422516 	-5.55111512312578e-17 	0.0863926170692595 	0.01074240405166 	2.18830508597878 	0.0042344474847771
6 	0.807415893080043 	-5.20417042793042e-17 	0.0858732677996099 	0.00890432486655485 	1.96621736511598 	0.00405043027354798
6 	0.849897170114195 	-4.85722573273506e-17 	0.085316138063517 	0.00732604817902719 	1.72233527940295 	0.00388429684985097
6 	0.89372107548691 	-4.16333634234434e-17 	0.0847263644431316 	0.00605223361576243 	1.47254642501676 	0.00376204190092582
6 	0.93893004320633 	-3.46944695195361e-17 	0.084108709056905 	0.00509156350465209 	1.24104168492188 	0.0037223514924301
6 	0.985567848414991 	-3.81639164714898e-17 	0.0834665551136127 	0.00440538986544475 	1.05037898186968 	0.00376743706613843
6 	1.03367964977662 	-4.16333634234434e-17 	0.0828022417810496 	0.00391779765548416 	0.908735375050775 	0.00383022665565743
6 	1.08331203320257 	-4.5102810375397e-17 	0.0821180086291169 	0.00354714676193596 	0.808983727219527 	0.00382671340266553
6 	1.13451305696022 	-4.85722573273506e-17 	0.0814161166413388 	0.00322989400746661 	0.738366676228238 	0.0037310592796933
6 	1.18733229820708 	-4.5102810375397e-17 	0.0806985645907167 	0.00292576626200737 	0.685906941558415 	0.003571984019871
6 	1.24182090099555 	-4.16333634234434e-17 	0.0799669491833838 	0.00261392245285466 	0.643943603306353 	0.00338709893038503
6 	1.29803162579495 	-4.16333634234434e-17 	0.0792225838333443 	0.0022870732055807 	0.607350059345337 	0.00319994642464724
6 	1.35601890057861 	-4.16333634234434e-17 	0.0784671710482875 	0.00194637911297499 	0.572790509945377 	0.0030189662122673
6 	1.4158388735257 	-4.85722573273506e-17 	0.0777022754968397 	0.00159764519583088 	0.538110076019358 	0.00283099998251965
6 	1.47754946738859 	-5.20417042793042e-17 	0.0769237585460713 	0.00124573426626108 	0.501174371220522 	0.00248483775545597
6 	1.54121043557859 	-4.40728183115358e-17 	0.0761323477127031 	0.000897859349474888 	0.458986483270224 	0.00195612816746371
6 	1.6068834200242 	-3.1712913545201e-17 	0.0753335197432727 	0.000577168529157473 	0.408931197854935 	0.00141097095330668
6 	1.6746320108581 	-3.31765864780564e-17 	0.0745321789742787 	0.000314770697381373 	0.351302120864277 	0.000894900078651895
6 	1.74452180799044 	-4.5102810375397e-17 	0.0737341164005041 	0.000132932457251528 	0.291385554871005 	0.000454587288905943
6 	1.81662048462824 	-4.81385764583564e-17 	0.0729456124219416 	3.58635259591157e-05 	0.240369209812464 	0.000147858051120969
6 	1.89099785280229 	-5.24753851482984e-17 	0.0721711781197754 	3.3159884063299e-06 	0.208183572141116 	1.54549275296502e-05
6 	1.96772593096507 	-5.76795555762288e-17 	0.0714110438230784 	2.31955277857746e-07 	0.193003049082822 	1.17658664366589e-06
6 	2.0468790137251 	-5.42101086242752e-17 	0.0706633248118614 	1.74301559991457e-06 	0.185049836441389 	9.43765860768433e-06
6 	2.12853374378525 	-4.9439619065339e-17 	0.0699274122903018 	3.06099412023855e-06 	0.178115190515544 	1.71987132274704e-05
6 	2.21276918615469 	-4.9439619065339e-17 	0.0692034607970912 	3.18788875468323e-06 	0.170787338554219 	1.86637831630013e-05
6 	2.29966690470631 	-4.64038529823796e-17 	0.0684917071440895 	2.49874102947853e-06 	0.163222678880771 	1.52942519384642e-05
6 	2.38931104115376 	-3.90312782094782e-17 	0.067792678195788 	1.73768712391054e-06 	0.155768730802766 	1.11402139296791e-05
6 	2.48178839652453 	-3.46944695195361e-17 	0.0671067127821 	1.27395217945683e-06 	0.148635370098145 	8.56105766003567e-06
6 	2.57718851520809 	-3.38271077815477e-17 	0.0664341070833346 	1.01267401256193e-06 	0.141843198307942 	7.13285273888286e-06
6 	2.67560377166032 	-3.03576608295941e-17 	0.065775132706627 	8.25624257595216e-07 	0.135332833755917 	6.09511394912288e-06
6 	2.77712945984824 	-3.03576608295941e-17 	0.0651300562322097 	6.75777266351552e-07 	0.129056738298485 	5.23125806108978e-06
6 	2.88186388552171 	-3.03576608295941e-17 	0.0644991293044083 	5.59774655389808e-07 	0.123000831813537 	4.5465015374002e-06
6 	2.98990846140133 	-2.60208521396521e-17 	0.0638825499841893 	4.63625307125789e-07 	0.117175524435128 	3.95220011875581e-06
6 	3.10136780537485 	-2.42861286636753e-17 	0.063280518704641 	3.77687077317694e-07 	0.111589047130258 	3.38025415453614e-06
6 	3.21634984179699 	-2.08166817117217e-17 	0.0626932923134706 	3.12010775986678e-07 	0.106223663382902 	2.93428062369845e-06
6 	3.33496590599099 	-2.42861286636753e-17 	0.0621211266932349 	2.76971448902615e-07 	0.101052356893697 	2.73983101643476e-06
6 	3.45733085205282 	-3.29597460435593e-17 	0.0615642065075462 	2.59347847476422e-07 	0.0960823070514437 	2.69856753370622e-06
6 	3.58356316406265 	-3.64291929955129e-17 	0.0610226117007414 	2.34656809319375e-07 	0.0913604544088726 	2.56612579639231e-06
6 	3.71378507081114 	-3.46944695195361e-17 	0.0604964971473874 	1.97168334643664e-07 	0.0869276716700334 	2.26426869524957e-06
6 	3.84812266415166 	-3.29597460435593e-17 	0.059986021691679 	1.59472739710156e-07 	0.0827849855499726 	1.92270247383539e-06
6 	3.98670602109313 	-3.29597460435593e-17 	0.0594916363752179 	1.34834678087908e-07 	0.0789246680844568 	1.70693185476016e-06
6 	4.12966932975153 	-3.12250225675825e-17 	0.0590130591606482 	1.26383314731261e-07 	0.075394764861366 	1.67596785075204e-06
6 	4.27715101928216 	-2.77555756156289e-17 	0.0585511745907851 	1.11565466893736e-07 	0.0722962205016539 	1.53964941411075e-06
6 	4.4292938939185 	-2.25514051876985e-17 	0.0581044456403715 	7.25413927186668e-08 	0.0697053441968681 	1.03459628480059e-06
6 	4.58624527124729 	-1.38777878078145e-17 	0.0576760728560374 	3.56279885355353e-08 	0.0676588902962522 	5.23261602248603e-07
6 	4.74815712485386 	-1.04083408558608e-17 	0.0572612124572517 	2.40646956190982e-08 	0.0662333697988658 	3.63104360180408e-07
