1.00000000000164e-06 	1.0023753330335 	-4.38242141415166e-17 	-0.00159920666165746 	7.98221421410159e-05 	8135.97892307481 	9.95566914427065e-05 	0
1.00000000000164e-06 	1.00402680030972 	-5.23406010305666e-17 	-0.00159383542843726 	0.000367357392389566 	1790.12573300069 	0.00100486707605056 	0
1.00000000000164e-06 	1.00573876566848 	-6.23079553582631e-17 	-0.00158097893358183 	0.0011412482451526 	718.420841781488 	0.00558273964456628 	0
1.00000000000164e-06 	1.00751344533172 	-6.3783698510617e-17 	-0.00155670405438376 	0.00270772934712773 	386.665621880445 	0.0196964218355551 	0
1.00000000000164e-06 	1.00935313670806 	-6.45899679972846e-17 	-0.00151311352962522 	0.00523265061517604 	248.258786739697 	0.0476429695771636 	0
1.00000000000164e-06 	1.01126022136694 	-6.30738849008178e-17 	-0.00143804415837427 	0.00857425750360263 	178.295319791604 	0.0841216107798896 	0
1.00000000000164e-06 	1.01323716812166 	-6.36733724692371e-17 	-0.00131859305135805 	0.0123344693800901 	136.804970164753 	0.115405601976211 	0
1.00000000000164e-06 	1.01528653622536 	-6.47523865649207e-17 	-0.00114541456316079 	0.0161109475831182 	108.777346590394 	0.130908965294037 	0
1.00000000000164e-06 	1.01741097868415 	-6.92706720638119e-17 	-0.000914402613439526 	0.0196781976825036 	88.1645165337094 	0.12980761495174 	0
1.00000000000164e-06 	1.0196132456915 	-7.48881945700024e-17 	-0.000625461203215021 	0.0229808712955291 	72.3340046753539 	0.117523825340986 	0
1.00000000000164e-06 	1.02189618818853 	-7.60533942680691e-17 	-0.000280525327078913 	0.0260482162524981 	59.955801025197 	0.100271659748273 	0
1.00000000000164e-06 	1.02426276155468 	-7.55494096644528e-17 	0.000117711402536819 	0.0289268857290168 	50.2087977102566 	0.0825030991061008 	0
1.00000000000164e-06 	1.0267160294336 	-7.48103734179734e-17 	0.000566405769308114 	0.0316523132402557 	42.4993590418336 	0.0665999357581779 	0
1.00000000000164e-06 	1.02925916769917 	-7.77965880735185e-17 	0.00106293268355147 	0.0342450947779439 	36.3676587327675 	0.0534244963954382 	0
1.00000000000164e-06 	1.03189546856683 	-7.68210178765183e-17 	0.00160516458446065 	0.0367155229731544 	31.454104013016 	0.0429771540057935 	0
1.00000000000164e-06 	1.03462834485551 	-7.49252522614448e-17 	0.00219163646332637 	0.0390686704957957 	27.4807242185474 	0.034884640170864 	0
1.00000000000164e-06 	1.0374613344057 	-7.74141526978332e-17 	0.00282158422763132 	0.041307731912726 	24.2354031655316 	0.0286803964519099 	0
1.00000000000164e-06 	1.04039810465935 	-7.82545152606278e-17 	0.00349489353813894 	0.0434356735318603 	21.5575232970002 	0.0239328720080396 	0
1.00000000000164e-06 	1.04344245740753 	-7.67483848012913e-17 	0.00421200755882778 	0.0454558185478818 	19.3256768606282 	0.0202878827652807 	0
1.00000000000164e-06 	1.04659833371208 	-7.5952385589109e-17 	0.00497382722654031 	0.0473719041463258 	17.4478132788708 	0.0174712055268849 	0
1.00000000000164e-06 	1.04986981900746 	-7.59803376763684e-17 	0.00578161939742262 	0.0491879333867086 	15.8536936208633 	0.0152766687272573 	0
1.00000000000164e-06 	1.05326114838955 	-8.14174421647938e-17 	0.00663693698052833 	0.0509079818535751 	14.4892703240714 	0.0135513475634387 	0
1.00000000000164e-06 	1.0567767120982 	-8.56862764607186e-17 	0.00754155079945194 	0.0525360256178438 	13.3125614997118 	0.0121822916187223 	0
1.00000000000164e-06 	1.06042106120061 	-8.09071048140731e-17 	0.00849739162834661 	0.0540758105082376 	12.2906387849373 	0.0110859580965133 	0
1.00000000000164e-06 	1.06419891348289 	-8.17826192441788e-17 	0.00950650075890231 	0.0555307625078409 	11.3974266169383 	0.0102002537907764 	0
1.00000000000164e-06 	1.06811515955746 	-8.49382404891747e-17 	0.0105709876751043 	0.0569039321686499 	10.6120866108531 	0.00947870557203304 	0
1.00000000000164e-06 	1.07217486919424 	-8.16100362811757e-17 	0.0116929936260729 	0.0581979646601082 	9.9178225646151 	0.00888624573232522 	0
1.00000000000164e-06 	1.07638329788362 	-8.0624407567927e-17 	0.0128746601718212 	0.0594150879518817 	9.30098839921443 	0.0083961791875604 	0
1.00000000000164e-06 	1.08074589364001 	-7.9744657973085e-17 	0.0141181020000108 	0.0605571131215548 	8.75041538188256 	0.00798800022981275 	0
1.00000000000164e-06 	1.08526830405454 	-7.79018319172148e-17 	0.0154253834541119 	0.0616254422570946 	8.25689924682603 	0.00764581506897176 	0
1.00000000000164e-06 	1.08995638360616 	-7.33504062542622e-17 	0.016798498306057 	0.0626210806909279 	7.81280496218999 	0.00735719540902035 	0
1.00000000000164e-06 	1.09481620124051 	-6.7103326510025e-17 	0.0182393523706379 	0.0635446513251239 	7.41175894860544 	0.007112339154221 	0
1.00000000000164e-06 	1.09985404822647 	-6.45656158000511e-17 	0.019749748597616 	0.0643964096118856 	7.04840704045938 	0.00690345075847679 	0
1.00000000000164e-06 	1.10507644630056 	-6.94064090936094e-17 	0.0213313742862448 	0.0651762583799466 	6.71822246637565 	0.0067242794385362 	0
1.00000000000164e-06 	1.11049015610956 	-7.4924511107616e-17 	0.0229857900402117 	0.0658837621823873 	6.41735235989321 	0.00656977151013956 	0
1.00000000000164e-06 	1.11610218596257 	-7.6198342781168e-17 	0.0247144200193555 	0.0665181612148425 	6.1424943174004 	0.00643580575662778 	0
1.00000000000164e-06 	1.12191980090358 	-7.80277221890005e-17 	0.0265185429637173 	0.0670783851387941 	5.89079666264014 	0.00631898961603033 	0
1.00000000000164e-06 	1.1279505321164 	-7.71632191872091e-17 	0.0283992833937751 	0.0675630673615239 	5.65977761122094 	0.00621650019338809 	0
1.00000000000164e-06 	1.13420218667417 	-7.33346302656196e-17 	0.0303576023599698 	0.0679705604877273 	5.44725963489599 	0.00612595847085168 	0
1.00000000000164e-06 	1.14068285764598 	-6.91777101978507e-17 	0.0323942871528161 	0.0682989537801883 	5.25131613168687 	0.00604532817991785 	0
1.00000000000164e-06 	1.14740093457373 	-6.66001889393559e-17 	0.0345099395074012 	0.0685460935579161 	5.0702281048969 	0.00597283301970825 	0
1.00000000000164e-06 	1.1543651143328 	-6.8935988170528e-17 	0.0367049620388252 	0.0687096075264279 	4.90244900579127 	0.00590688752517329 	0
1.00000000000164e-06 	1.16158441239061 	-7.17802189282896e-17 	0.0389795429022556 	0.0687869340800404 	4.74657624612008 	0.00584603810185479 	0
1.00000000000164e-06 	1.16906817447755 	-7.46909417724106e-17 	0.0413336389381488 	0.0687753576407183 	4.60132816863867 	0.00578891168734138 	0
1.00000000000164e-06 	1.17682608868546 	-7.65146037078491e-17 	0.0437669577909907 	0.0686720511000501 	4.46552549706532 	0.00573417026851893 	0
1.00000000000164e-06 	1.18486819800938 	-7.53606271963335e-17 	0.0462789396432864 	0.0684741264059222 	4.3380764848645 	0.00568047015513504 	0
1.00000000000164e-06 	1.19320491334865 	-7.53099110986167e-17 	0.0488687392644565 	0.068178694277822 	4.21796515290558 	0.00562642556426035 	0
1.00000000000164e-06 	1.20184702698435 	-7.15759781088829e-17 	0.0515352090373305 	0.0677829339390669 	4.10424215367589 	0.00557057675277112 	0
1.00000000000164e-06 	1.21080572655041 	-6.90003626745194e-17 	0.0542768835200353 	0.0672841736189552 	3.99601792590087 	0.00551136362449979 	0
1.00000000000164e-06 	1.22009260951658 	-6.9374539478969e-17 	0.0570919659598455 	0.066679982408752 	3.89245790794098 	0.00544710638295564 	0
1.00000000000164e-06 	1.22971969820185 	-6.78505154486217e-17 	0.0599783170228221 	0.0659682738612159 	3.79277966002447 	0.00537599537512164 	0
1.00000000000164e-06 	1.23969945533799 	-6.66741984431223e-17 	0.0629334458560194 	0.0651474214870884 	3.6962518028499 	0.00529609277943466 	0
1.00000000000164e-06 	1.25004480020313 	-7.01819736359391e-17 	0.0659545034646694 	0.0642163859742395 	3.60219471249414 	0.00520534922262848 	0
1.00000000000164e-06 	1.26076912534637 	-6.89584345436303e-17 	0.0690382782632709 	0.063174853472176 	3.50998291941573 	0.00510163873674328 	0
1.00000000000164e-06 	1.27188631392513 	-6.62174359263154e-17 	0.0721811935763419 	0.062023383541105 	3.41904914526752 	0.00498281562643111 	0
1.00000000000164e-06 	1.28341075767753 	-6.50514950744198e-17 	0.0753793069851491 	0.0607635641812253 	3.32888987986068 	0.00484679672056456 	0
1.00000000000164e-06 	1.29535737555319 	-6.50307427672121e-17 	0.078628311599677 	0.0593981694909281 	3.23907235709497 	0.00469167210979087 	0
1.00000000000164e-06 	1.30774163302656 	-6.95452166178407e-17 	0.0819235370458951 	0.057931312699765 	3.14924273510052 	0.00451584658783927 	0
1.00000000000164e-06 	1.3205795621177 	-6.48312665081337e-17 	0.0852599400707524 	0.0563685834001802 	3.05913521580972 	0.00431820983244147 	0
1.00000000000164e-06 	1.33388778214653 	-5.66662924130759e-17 	0.0886320886663915 	0.0547171526333148 	2.96858173241586 	0.00409831897826241 	0
1.00000000000164e-06 	1.34768352124731 	-5.49514742113595e-17 	0.0920342782000482 	0.0529858231382183 	2.87752165482207 	0.00385657632728917 	0
1.00000000000164e-06 	1.36198463867131 	-5.56896634248917e-17 	0.0954610236903975 	0.0511849951151734 	2.78601065093767 	0.00359450017258247 	0
1.00000000000164e-06 	1.37680964790649 	-5.57519203465149e-17 	0.098906515728477 	0.0493265105856572 	2.69422723151664 	0.00331530859942465 	0
1.00000000000164e-06 	1.39217774064407 	-5.84192270974187e-17 	0.102580189095845 	0.04729986739592 	2.59664858628055 	0.00300471777878171 	0
1.00000000000164e-06 	1.41220272459524 	-6.11663667036012e-17 	0.10684674554164 	0.0449134513640769 	2.48419365818965 	0.00263460869729543 	0
1.00000000000164e-06 	1.43617694926586 	-5.76967079934107e-17 	0.111523248669374 	0.0422860704546687 	2.36294271870848 	0.00222817503189374 	0
1.00000000000164e-06 	1.45930396367274 	-5.42270492832203e-17 	0.116030265191175 	0.0397470175357718 	2.24899227452091 	0.00184865071114633 	0
1.00000000000164e-06 	1.48161370685419 	-5.42268375249835e-17 	0.120142795646092 	0.0374256338650099 	2.14855881208793 	0.00152512955418255 	0
1.00000000000164e-06 	1.50313505985141 	-5.42266257667467e-17 	0.123899222844632 	0.0353072053062708 	2.06086226244151 	0.00125649714588271 	0
1.00000000000164e-06 	1.52389588309638 	-5.42266257667467e-17 	0.127335044565112 	0.0333740891508129 	1.98504192276964 	0.00103753583979668 	0
1.00000000000164e-06 	1.54392305247857 	-5.07571788147931e-17 	0.130481666455904 	0.0316078972285114 	1.9202168157812 	0.000861028181243921 	0
1.00000000000164e-06 	1.56324249413703 	-4.72877318628395e-17 	0.133367301579238 	0.0299908264555773 	1.86553920692778 	0.000719342706564129 	0
1.00000000000164e-06 	1.58187921802306 	-4.03488379589322e-17 	0.136017288923627 	0.0285064041667277 	1.82023438744221 	0.00060540488693362 	0
1.00000000000164e-06 	1.59985735027679 	-3.3409944055025e-17 	0.138454279049051 	0.0271398450946262 	1.78362693691425 	0.000513185421150051 	0
1.00000000000164e-06 	1.61720016445966 	-2.99404971030714e-17 	0.140698466143332 	0.0258781574481141 	1.75515538816206 	0.000437860153998467 	0
1.00000000000164e-06 	1.63393011168312 	-2.30016031991642e-17 	0.142767834513398 	0.0247100955894164 	1.73437830182796 	0.000375775341580035 	0
1.00000000000164e-06 	1.65006884967273 	-1.95321562472105e-17 	0.144678393852858 	0.0236260292092981 	1.72097502774127 	0.00032431807333536 	0
1.00000000000164e-06 	1.66563727080512 	-1.60627092952569e-17 	0.14644439706629 	0.0226177751991269 	1.7147437781035 	0.000281756459865604 	0
1.00000000000164e-06 	1.68065552915414 	-1.60627092952569e-17 	0.148078538957241 	0.0216784212842138 	1.71559897030652 	0.000247086054274517 	0
1.00000000000164e-06 	1.69514306658136 	-2.30016031991642e-17 	0.149592135296888 	0.0208021582810519 	1.72356918689747 	0.000219900011862217 	0
1.00000000000164e-06 	1.70911863790442 	-2.30013914409273e-17 	0.150995282864716 	0.0199841295484923 	1.73879660756019 	0.000200289035824104 	0
1.00000000000164e-06 	1.7226003351761 	-1.60622857787833e-17 	0.152297001765982 	0.0192203008407701 	1.7615383970634 	0.000188770943976515 	0
1.00000000000164e-06 	1.73560561110536 	-9.12339187487607e-18 	0.153505361650748 	0.0185073504821592 	1.79217026146132 	0.000186246745640991 	0
1.00000000000164e-06 	1.74815130165068 	-5.65373316468564e-18 	0.154627593545377 	0.0178425778763985 	1.83119217990879 	0.000193978957883077 	0
1.00000000000164e-06 	1.76025364781502 	-2.18407445449521e-18 	0.155670188974165 	0.0172238273152075 	1.87923614713818 	0.000213587524485117 	0
1.00000000000164e-06 	1.77192831667064 	1.2853724974584e-18 	0.156638987954665 	0.0166494234873861 	1.93707559052883 	0.000247058516538491 	0
1.00000000000164e-06 	1.78319042164083 	1.2853724974584e-18 	0.157539257323149 	0.0161181147686611 	2.0056359299327 	0.00029676043916033 	0
1.00000000000164e-06 	1.79405454206499 	1.2853724974584e-18 	0.158375760698607 	0.0156290201532569 	2.08600551102173 	0.000365462276140331 	0
1.00000000000164e-06 	1.80453474207227 	1.2853724974584e-18 	0.159152821227243 	0.015181575521791 	2.17944586098546 	0.000456346356591148 	0
1.00000000000164e-06 	1.81464458878828 	1.2853724974584e-18 	0.159874378063612 	0.0147754748596088 	2.2873999081443 	0.000573007870219786 	0
1.00000000000164e-06 	1.8243971698984 	-2.18407445449521e-18 	0.160544037338419 	0.014410602156665 	2.41149652644872 	0.000719431733654132 	0
1.00000000000164e-06 	1.83380511059041 	-5.65352140644883e-18 	0.161165118139644 	0.0140869502162155 	2.55354960768746 	0.000899937091889194 	0
1.00000000000164e-06 	1.84288058989839 	-5.65373316468564e-18 	0.161740693803174 	0.0138045237013721 	2.71554997393979 	0.00111908081041854 	0
1.00000000000164e-06 	1.85163535646909 	-5.65373316468564e-18 	0.162273628590956 	0.0135632256711246 	2.89964900700754 	0.00138151474503433 	0
1.00000000000164e-06 	1.86008074377113 	-5.65352140644883e-18 	0.162766609657394 	0.013362729709861 	3.1081340846289 	0.00169179804623694 	0
1.00000000000164e-06 	1.8682276847667 	-2.18407445449521e-18 	0.163222174102207 	0.0132023434162003 	3.34339791222237 	0.00205417533737255 	0
1.00000000000164e-06 	1.8760867260648 	1.2853724974584e-18 	0.163642730910357 	0.0130808730254293 	3.60790661425341 	0.00247234334551629 	0
1.00000000000164e-06 	1.88366804157438 	-2.18407445449521e-18 	0.164030577701119 	0.0129965024584052 	3.90417476302073 	0.00294924029031261 	0
1.00000000000164e-06 	1.8909814456749 	-5.65352140644883e-18 	0.164387912435181 	0.0129467020317355 	4.23475888667509 	0.00348690097681086 	0
1.00000000000164e-06 	1.89803640592158 	-5.65352140644883e-18 	0.164716840514843 	0.012928181399746 	4.60228376783243 	0.00408642305061349 	0
1.00000000000164e-06 	1.90484205530155 	-9.12275660016563e-18 	0.165019377986829 	0.0129368974730193 	5.00951744028517 	0.00474808453927366 	0
1.00000000000164e-06 	1.91140720405698 	-9.12254484192881e-18 	0.165297451743674 	0.012968121339031 	5.459510993205 	0.00547164029902619 	0
1.00000000000164e-06 	1.91774035109035 	-5.65288613173839e-18 	0.165552897661973 	0.013016559761112 	5.95581847307511 	0.00625680856787936 	0
1.00000000000164e-06 	1.9238496949667 	-5.65267437350157e-18 	0.165787457497881 	0.0130765184056209 	6.50281135385439 	0.00710394336820718 	0
1.00000000000164e-06 	1.92974314452705 	-9.122333083692e-18 	0.166002775112681 	0.0131420872980483 	7.10610272643851 	0.00801487875260545 	0
1.00000000000164e-06 	1.9354283291268 	-1.25919917938824e-17 	0.166200392289835 	0.0132073252826269 	7.77310022880897 	0.00899392977593507 	0
1.00000000000164e-06 	1.9409126085123 	-9.12254484192881e-18 	0.16638174410722 	0.0132664196351514 	8.51371543932552 	0.0100490427781217 	0
1.00000000000164e-06 	1.94620308234835 	-5.65330964821201e-18 	0.166548153614017 	0.013313798677409 	9.34127255261074 	0.0111931013759458 	0
1.00000000000164e-06 	1.95130659940914 	-2.18407445449521e-18 	0.166700825535304 	0.0133441778307029 	10.2736823787523 	0.0124454088473363 	0
1.00000000000164e-06 	1.95622976644424 	4.75481944941201e-18 	0.166840839085581 	0.0133525213279393 	11.3349813311508 	0.013833372554729 	0
1.00000000000164e-06 	1.96097895673142 	8.22426640136563e-18 	0.166969140391114 	0.0133339011316439 	12.5573824386908 	0.0153943940454296 	0
1.00000000000164e-06 	1.96556031832711 	8.22426640136563e-18 	0.167086532790417 	0.0132832300940445 	13.9840516993688 	0.017177885184344 	0
1.00000000000164e-06 	1.96997978202541 	1.16937133533192e-17 	0.167193658224059 	0.0131948372391269 	15.6729163116237 	0.019247113548539 	0
1.00000000000164e-06 	1.97424306903575 	1.51631603052729e-17 	0.167290988084279 	0.0130618401178028 	17.7019456707729 	0.0216802422570829 	0
1.00000000000164e-06 	1.9783556983893 	1.51631603052729e-17 	0.167378968676294 	0.0128752531001091 	20.176564572867 	0.0246008008834718 	0
1.00000000000164e-06 	1.98232299408358 	1.86326072572265e-17 	0.167458249500893 	0.012621643604564 	23.2423451429915 	0.0281294270789532 	0
1.00000000000164e-06 	1.9861500919747 	2.21020542091801e-17 	0.16752931628897 	0.0122799400495193 	27.1017719543266 	0.0323321004029558 	0
1.00000000000164e-06 	1.98984194642589 	2.21020542091801e-17 	0.167591813166074 	0.0118194173773742 	32.0242328619349 	0.0372276084396662 	0
1.00000000000164e-06 	1.99340333672126 	2.21020542091801e-17 	0.16764491215622 	0.0111984410271003 	38.3549070488672 	0.0426322479846707 	0
1.00000000000164e-06 	1.99683887325273 	2.21020542091801e-17 	0.167688238429341 	0.0103652948654023 	46.5476624675465 	0.0479929534020953 	0
1.00000000000164e-06 	2.00015300348844 	1.86326072572265e-17 	0.167722046090875 	0.00926483133537628 	57.2528404607573 	0.0522766003473091 	0
1.00000000000164e-06 	2.00335001773022 	1.51631603052729e-17 	0.167746920132128 	0.00785387038423399 	71.5517447825129 	0.053711900904529 	0
1.00000000000164e-06 	2.00643405466757 	1.86326072572265e-17 	0.167763768224351 	0.00613348515123311 	91.6170611516825 	0.0493482529849969 	0
1.00000000000164e-06 	2.00940910673542 	2.21020542091801e-17 	0.167774092666291 	0.00422809135438626 	122.689953367895 	0.0373737265914802 	0
1.00000000000164e-06 	2.01227902528252 	2.21020542091801e-17 	0.167779772700852 	0.00244123755189739 	179.692320711013 	0.0213916702019673 	0
1.00000000000164e-06 	2.01504752555717 	2.21020542091801e-17 	0.167782380378138 	0.00111419194993955 	312.854414529609 	0.00846231206087219 	0
1.00000000000164e-06 	2.01771819151684 	1.86328190154633e-17 	0.167782862155335 	0.000374395054022383 	747.392567199257 	0.0020674297623232 	0
1.00000000000164e-06 	2.02029448046774 	1.16941368697929e-17 	0.167781864600738 	8.25969273588986e-05 	3348.37231846242 	0.000264067917689991 	0
1.00000000000164e-06 	2.02277972754047 	4.75503120764883e-18 	0.167780598569922 	9.13897387027913e-06 	7602.88486298292 	1.21563058323009e-05 	6.04043879853187e-38
