3 	0.00391112967796268 	1.04083408558608e-17 	-0.0387081554713057 	5.742695463514e-05 	-1.14324984066314e-16
3 	0.0118766651674915 	1.04083408558608e-17 	-0.108541111747508 	0.000100570384715102 	2.44822164263608e-16
3 	0.0201340015485761 	0 	-0.16304318566582 	0.000132370265064965 	7.38131734028698e-17
3 	0.0286938283423949 	0 	-0.197189365515642 	0.000114065283000449 	4.84229051028759e-23
3 	0.0375672266585908 	6.93889390390723e-18 	-0.21316632204825 	8.32565009559947e-06 	4.51003224324912e-22
3 	0.0467656835403032 	3.46944695195361e-18 	-0.21877509685418 	-0.00016323495867919 	5.00969950942241e-22
3 	0.0563011068347005 	-3.46944695195361e-18 	-0.219765546175854 	-0.000377544931313928 	8.79783044040858e-18
3 	0.0661858406082648 	3.46944695195361e-18 	-0.218667969245969 	-0.0006230469783777 	2.29304194546947e-17
3 	0.0764326811267817 	1.38777878078145e-17 	-0.21647795745951 	-0.000893864180530013 	-1.45853177706431e-17
3 	0.0870548934207257 	1.38777878078145e-17 	-0.213618901381476 	-0.00118673408717035 	-7.4115466190408e-18
3 	0.0980662284574838 	2.77555756156289e-17 	-0.210289635826944 	-0.00149994772763102 	-4.43214679008929e-17
3 	0.109480940942647 	3.81639164714898e-17 	-0.206590158783366 	-0.00183270930557405 	-6.87313274620702e-17
3 	0.121313807773417 	3.12250225675825e-17 	-0.20257188907412 	-0.00218476114552444 	5.03471897755726e-17
3 	0.13358014716801 	3.12250225675825e-17 	-0.198259945003076 	-0.00255619526535378 	4.15868736451402e-17
3 	0.146295838495838 	2.77555756156289e-17 	-0.193663911372813 	-0.00294736116284153 	4.8066037911307e-22
3 	0.159477342834115 	2.42861286636753e-17 	-0.188783404467098 	-0.00335881896755968 	9.557816319927e-22
3 	0.173141724277517 	2.42861286636753e-17 	-0.183611089817848 	-0.0037913165493382 	1.13177063734981e-21
3 	0.183614095490672 	2.3635607360184e-17 	-0.179576766184567 	-0.00412652535664818 	1.0305480024118e-21
3 	0.190823961865322 	2.71050543121376e-17 	-0.176761150314812 	-0.00435932233355788 	8.19129429664408e-22
3 	0.201990523296728 	3.12250225675825e-17 	-0.172339368013501 	-0.00472309277416031 	5.08303388970075e-22
3 	0.217212287037675 	3.12250225675825e-17 	-0.166202763050102 	-0.00522474524293993 	1.59730919143765e-22
3 	0.232991668560441 	2.77555756156289e-17 	-0.159700299461664 	-0.00575223356436312 	-1.51236743324538e-22
3 	0.249349095037321 	3.12250225675825e-17 	-0.152804102915885 	-0.00630728015189303 	-1.51452181547815e-22
3 	0.266305741947753 	3.12250225675825e-17 	-0.145482601627076 	-0.00689185746543987 	5.46692999359224e-24
3 	0.283883560490998 	2.77555756156289e-17 	-0.137700310752284 	-0.00750821752256377 	-2.60712669635938e-22
3 	0.30210530600303 	3.46944695195361e-17 	-0.129417521911355 	-0.00815892566415665 	-1.22257151812451e-22
3 	0.320994567414414 	3.46944695195361e-17 	-0.120589903167068 	-0.00884689820694077 	-2.10041364242694e-17
3 	0.340575797787321 	3.46944695195361e-17 	-0.111168008253225 	-0.00957544335531447 	-3.89006071598576e-17
3 	0.360874345971201 	4.85722573273506e-17 	-0.101096688717574 	-0.0103483042966822 	4.13432845756869e-17
3 	0.38191648941809 	5.55111512312578e-17 	-0.0903143982487717 	-0.0111697027781565 	1.91337007527173e-17
3 	0.403729468200046 	4.85722573273506e-17 	-0.0787523744436046 	-0.0120443807726586 	-1.72992016149529e-21
3 	0.426341520272733 	4.16333634234434e-17 	-0.0663336796238544 	-0.0129776365041603 	-2.01875678406284e-21
3 	0.449781918030829 	3.81639164714898e-17 	-0.0529720793062387 	-0.0139753453832285 	-2.62716077368781e-21
3 	0.474081006202548 	4.16333634234434e-17 	-0.0385707349019457 	-0.0150439446653944 	-1.08364021624846e-21
3 	0.499270241132363 	4.16333634234434e-17 	-0.0230206870816129 	-0.0161903868521115 	7.95879445468455e-22
3 	0.525382231502763 	3.46944695195361e-17 	-0.00619911534930945 	-0.0174222402603324 	2.68046483649999e-21
3 	0.552450780547768 	3.81639164714898e-17 	0.0120326353190113 	-0.0187481109054453 	3.43409232357224e-22
3 	0.58051092981285 	4.5102810375397e-17 	0.0318316838384791 	-0.0201755722975731 	1.33888292947596e-21
3 	0.609599004517911 	4.85722573273506e-17 	0.053423529322843 	-0.0217054366188822 	1.35096535744458e-21
3 	0.639752660582033 	5.20417042793042e-17 	0.0773790176558451 	-0.0233609966194061 	3.7212913436425e-21
3 	0.671010933370887 	5.55111512312578e-17 	0.104656914335449 	-0.0251741410151452 	3.46056910079092e-21
3 	0.703414288229901 	5.89805981832114e-17 	0.136052829443366 	-0.0271650728167455 	-1.55957566038784e-22
3 	0.737004672868606 	6.24500451351651e-17 	0.171861861826186 	-0.0293061711376929 	5.31624601329384e-21
3 	0.771825571663976 	5.89805981832114e-17 	0.211991294953033 	-0.0315385116497454 	-2.44484067314596e-24
3 	0.807922061953054 	5.55111512312578e-17 	0.256138260438855 	-0.0337858178277845 	-6.29348653011302e-21
3 	0.845340872387743 	5.20417042793042e-17 	0.30388922557734 	-0.035966896183013 	1.15803294541527e-20
3 	0.884130443427309 	5.55111512312578e-17 	0.354730788104861 	-0.038005768155885 	7.51368147239739e-18
3 	0.924340990046898 	5.89805981832114e-17 	0.40802990147804 	-0.0398378494472658 	8.1400835202361e-18
3 	0.966024566743242 	5.6920614055489e-17 	0.463031257893299 	-0.0414108907851021 	3.13754207462301e-20
3 	1.00923513492173 	5.908901840046e-17 	0.518867410367128 	-0.0426729168635531 	5.56402336729018e-22
3 	1.05402863275206 	6.07153216591882e-17 	0.574543026465871 	-0.0435866761664623 	-5.33568948516173e-22
3 	1.10046304758287 	6.54858112181245e-17 	0.629016793656716 	-0.0441211510193802 	-2.91410700678721e-22
3 	1.14859849100923 	7.02563007770607e-17 	0.681218303471889 	-0.0442573172528395 	7.84057609605469e-24
3 	1.19849727668995 	6.85215773010839e-17 	0.730179385013922 	-0.0440089702504958 	-1.72882187178453e-20
3 	1.25022400101563 	6.24500451351651e-17 	0.775270745524361 	-0.0434233119941765 	9.92280613117185e-22
3 	1.30384562673186 	5.72458747072346e-17 	0.816438443370274 	-0.0425327233667574 	2.68798044394973e-21
3 	1.35943156962566 	5.72458747072346e-17 	0.854244027925789 	-0.0413712383761893 	1.6665135395316e-22
3 	1.41705378838763 	6.07153216591882e-17 	0.88902872984293 	-0.0400054495648575 	-2.82745350655159e-21
3 	1.47678687776592 	5.89805981832114e-17 	0.920857143713185 	-0.0385397997114051 	-1.60625755085267e-21
3 	1.53870816513278 	6.24500451351651e-17 	0.949976388539385 	-0.0370470941821201 	-1.33837649174897e-23
3 	1.60289781058851 	7.28583859910259e-17 	0.976737266916463 	-0.0355533172093021 	2.82940085235816e-21
3 	1.66943891073267 	7.97972798949331e-17 	1.00147866843539 	-0.0340529956062717 	1.84647600521187e-23
3 	1.71135564625027 	8.32667268468867e-17 	1.0159322041655 	-0.0331215467686583 	-8.45053273590842e-22
3 	1.74646535410267 	7.97972798949331e-17 	1.02707353866583 	-0.0323470717722044 	-4.61904698030064e-21
3 	1.8099231933566 	7.63278329429795e-17 	1.04611582281097 	-0.0309442783725814 	-1.45556957857204e-20
3 	1.88404823953249 	7.63278329429795e-17 	1.06636546282794 	-0.0292879384544691 	-2.90326091013759e-21
3 	1.96088870322038 	7.97972798949331e-17 	1.08464685536115 	-0.027612435367111 	0
3 	2.02025965173185 	8.32667268468867e-17 	1.09800765043662 	-0.0262552295865173 	0
3 	2.06006301192217 	7.97972798949331e-17 	1.10687026607119 	-0.0252678774842409 	0
3 	2.09845978584128 	7.63278329429795e-17 	1.11442299631071 	-0.0243707684625264 	0
3 	2.13549967996946 	7.63278329429795e-17 	1.12128112007445 	-0.0235051377666768 	0
3 	2.17123064424048 	7.28583859910259e-17 	1.12750022270319 	-0.0226688986645312 	0
3 	2.20569893411516 	6.93889390390723e-17 	1.13313000582689 	-0.0218622458789532 	0
3 	2.23894917046123 	6.93889390390723e-17 	1.13821485533042 	-0.0210850306657911 	0
3 	2.27102439731726 	6.93889390390723e-17 	1.14279429086468 	-0.0203367756573537 	0
3 	2.30196613761522 	6.93889390390723e-17 	1.14690335145048 	-0.0196168252804887 	0
3 	2.33181444693392 	6.59194920871187e-17 	1.15057293302121 	-0.0189243931197641 	0
3 	2.3606079653529 	6.59194920871187e-17 	1.15383008650421 	-0.0182585913239435 	0
3 	2.38838396747391 	6.59194920871187e-17 	1.15669828056223 	-0.0176184597269492 	0
3 	2.41517841067461 	6.59194920871187e-17 	1.15919763077691 	-0.0170029909955709 	0
3 	2.44102598165722 	6.93889390390723e-17 	1.16134509650947 	-0.0164111510320421 	0
3 	2.46596014135208 	6.93889390390723e-17 	1.1631546468927 	-0.0158418953113624 	0
3 	2.49001316823444 	6.93889390390723e-17 	1.16463739787534 	-0.0152941818057505 	0
3 	2.51321620011054 	6.93889390390723e-17 	1.16580172278108 	-0.0147669810373501 	0
3 	2.535599274427 	7.28583859910259e-17 	1.1666533394227 	-0.0142592837388924 	0
3 	2.55719136715571 	7.63278329429795e-17 	1.16719537744101 	-0.013770106540587 	0
3 	2.57802043030466 	7.63278329429795e-17 	1.16742843023998 	-0.0132984960365246 	0
3 	2.59811342810315 	7.97972798949331e-17 	1.16735059666921 	-0.0128435315205082 	0
3 	2.61749637190832 	8.32667268468867e-17 	1.16695751843117 	-0.0124043266203406 	0
3 	2.63619435387806 	7.63278329429795e-17 	1.16624241997917 	-0.0119800300003963 	0
3 	2.65423157945406 	7.28583859910259e-17 	1.16519615826775 	-0.0115698252443136 	0
3 	2.67163139869691 	7.63278329429795e-17 	1.16380728988775 	-0.0111729299733398 	0
3 	2.68841633651388 	7.63278329429795e-17 	1.16206216255037 	-0.0107885942032022 	-1.26650453121535e-16
3 	2.70460812181851 	7.97972798949331e-17 	1.15994503621319 	-0.0104160978972423 	-1.20925686521725e-16
3 	2.72022771565972 	8.32667268468867e-17 	1.15743823600444 	-0.0100547476420481 	1.38049145221207e-16
3 	2.73529533835695 	8.32667268468867e-17 	1.15452233424199 	-0.00970387236207345 	-1.26528890033806e-17
3 	2.74983049567626 	8.32667268468867e-17 	1.15117635224617 	-0.00936281801100422 	-1.38110840897153e-16
3 	2.76385200408157 	7.63278329429795e-17 	1.14737796468068 	-0.0090309412383709 	1.58663123120016e-16
3 	2.77737801509344 	6.93889390390723e-17 	1.14310368068817 	-0.0087076021349227 	1.51796696392441e-16
3 	2.79042603878708 	6.93889390390723e-17 	1.13832896846216 	-0.00839215630746506 	0
3 	2.80301296646003 	6.93889390390723e-17 	1.13302828476013 	-0.00808394671161312 	0
3 	2.81515509249873 	7.28583859910259e-17 	1.12717496978946 	-0.00778229585757827 	0
3 	2.82686813547238 	7.63278329429795e-17 	1.12074097190845 	-0.00748649917042463 	0
3 	2.83816725848143 	7.97972798949331e-17 	1.11369637569955 	-0.00719582040103382 	0
3 	2.84906708878692 	8.32667268468867e-17 	1.10600871999093 	-0.00690949002309443 	0
3 	2.85958173674616 	7.97972798949331e-17 	1.09764210703828 	-0.00662670751033309 	0
3 	2.86972481407933 	7.28583859910259e-17 	1.0885561174459 	-0.00634664828677088 	0
3 	2.87950945149043 	6.93889390390723e-17 	1.07870455476655 	-0.00606847595697021 	0
3 	2.88894831566567 	6.93889390390723e-17 	1.06803404740117 	-0.00579135995096355 	0
3 	2.89805362567107 	6.93889390390723e-17 	1.05648253379542 	-0.00551449865381641 	0
3 	2.90683716877067 	6.93889390390723e-17 	1.04397765269876 	-0.00523715380802729 	0
3 	2.9153103156857 	6.93889390390723e-17 	1.0304350458395 	-0.00495873248924969 	0
3 	2.92348403531449 	6.59194920871187e-17 	1.01575439428871 	-0.00467876223863084 	0
3 	2.9313689089323 	6.59194920871187e-17 	0.999796384734375 	-0.00439637949231973 	0
3 	2.93897514388925 	6.93889390390723e-17 	0.982319036253868 	-0.00410947141046294 	0
3 	2.94631258682425 	6.93889390390723e-17 	0.963021947599909 	-0.00381552531629264 	0
3 	2.95339073641193 	6.93889390390723e-17 	0.941646849833957 	-0.00351389697069307 	0
3 	2.96021875565916 	6.93889390390723e-17 	0.91795023944132 	-0.00320556854641341 	0
3 	2.96680548376697 	6.93889390390723e-17 	0.891667019837767 	-0.00289261532431795 	0
3 	2.97315944757337 	6.93889390390723e-17 	0.862484388830024 	-0.00257786815417575 	0
3 	2.97928887259171 	6.93889390390723e-17 	0.830014873559617 	-0.00226465943016039 	0
3 	2.98520169365903 	6.93889390390723e-17 	0.793761959220285 	-0.00195666419411641 	0
3 	2.99090556520807 	6.93889390390723e-17 	0.753071994740252 	-0.00165778622237962 	0
3 	2.99640787117633 	6.93889390390723e-17 	0.70706753307513 	-0.00137200150380639 	0
3 	3.00171573456492 	6.93889390390723e-17 	0.654584667919118 	-0.0011033077969416 	0
3 	3.00683602665963 	6.93889390390723e-17 	0.594121215644255 	-0.000855682909042512 	0
3 	3.01177537592613 	6.93889390390723e-17 	0.523713113029868 	-0.000632197041143427 	0
3 	3.01654017659085 	6.93889390390723e-17 	0.441164096545195 	-0.000434827209390477 	0
3 	3.02113659691864 	7.28583859910259e-17 	0.346657812948686 	-0.000267227530339436 	0
3 	3.02557058719784 	7.97972798949331e-17 	0.24553452947363 	-0.000137671642186549 	0
3 	3.02984788744324 	8.32667268468867e-17 	0.144673991945094 	-5.18464774942781e-05 	0
