5 	0.0083136656172439 	5.55111512312578e-17 	-0.0897883139870774 	-0.00015364126770415 	-1.05321839194193e-20
5 	0.0140938010840031 	5.20417042793042e-17 	-0.13247030237116 	-0.000479127157340976 	8.64521681180834e-21
5 	0.0200856798396763 	4.5102810375397e-17 	-0.157000164342801 	-0.000971538528475901 	-5.2051635655016e-23
5 	0.0262970586610136 	4.85722573273506e-17 	-0.166031755954244 	-0.00155598695958634 	-3.73369755400726e-21
5 	0.0327359784782123 	5.55111512312578e-17 	-0.16774830845081 	-0.00218385149960039 	-3.47830747096045e-18
5 	0.0394107747842905 	4.85722573273506e-17 	-0.166584508562646 	-0.00285635479724142 	-4.79262072531634e-16
5 	0.0463300884257853 	3.81639164714898e-17 	-0.164169294020889 	-0.0035719939811834 	3.46470150418863e-16
5 	0.053502876788747 	2.42861286636753e-17 	-0.161108536329617 	-0.00432601994850602 	-1.80209711014427e-16
5 	0.060938425394508 	2.08166817117217e-17 	-0.157652144347846 	-0.00511550588167337 	1.50636160864499e-16
5 	0.0686463599202388 	1.73472347597681e-17 	-0.153912543175548 	-0.00593933608968879 	1.22708239125751e-16
5 	0.0766366586598531 	0 	-0.149942299236602 	-0.00679726683337026 	-1.0482827111559e-16
5 	0.0849196654413916 	-3.46944695195361e-18 	-0.145764981218048 	-0.00768945106021066 	8.66315702499836e-19
5 	0.0935061030176072 	-3.46944695195361e-18 	-0.141388721938375 	-0.00861626925582071 	9.0051024744576e-17
5 	0.102407086947087 	-3.46944695195361e-18 	-0.136812679088691 	-0.00957825510324791 	-7.60873425191943e-17
5 	0.11163413998388 	0 	-0.132030307577873 	-0.010576049301683 	3.5105045030261e-16
5 	0.121199206994262 	3.46944695195361e-18 	-0.127031087297623 	-0.0116103680210655 	-3.29368402219442e-16
5 	0.131114670419936 	6.93889390390723e-18 	-0.121801452074406 	-0.0126819807693591 	-5.50989155682658e-18
5 	0.141393366307709 	6.93889390390723e-18 	-0.116325280682474 	-0.0137916938026333 	-1.09829423564894e-21
5 	0.152048600926373 	3.46944695195361e-18 	-0.110584134219777 	-0.0149403365718337 	-1.07872559206346e-21
5 	0.163094167992309 	1.04083408558608e-17 	-0.104557338288564 	-0.0161287497150062 	-2.12788393636317e-21
5 	0.174544366526125 	1.73472347597681e-17 	-0.0982219645321655 	-0.0173577736397131 	9.63494797466088e-22
5 	0.186414019363427 	1.38777878078145e-17 	-0.0915527426618963 	-0.018628237005122 	9.28038276813723e-22
5 	0.198718492343699 	1.38777878078145e-17 	-0.0845219211557073 	-0.0199409445507159 	-6.97650255696095e-23
5 	0.211473714202121 	6.93889390390723e-18 	-0.0770990874416359 	-0.0212966637860466 	-8.94663150566244e-22
5 	0.224696197190089 	0 	-0.0692509541153595 	-0.0226961100768721 	6.94744550000401e-23
5 	0.238403058451124 	3.46944695195361e-18 	-0.0609411152813411 	-0.0241399296495947 	2.42096515147856e-23
5 	0.25261204217984 	3.46944695195361e-18 	-0.0521297757518535 	-0.0256286799949445 	-8.8589841305948e-22
5 	0.267341542592663 	-3.46944695195361e-18 	-0.042773455208399 	-0.0271628070885171 	1.3493866169641e-17
5 	0.282610627740031 	-1.38777878078145e-17 	-0.0328246693241797 	-0.0287426187628636 	2.16828028735682e-16
5 	0.298439064190913 	-1.73472347597681e-17 	-0.0222315901631291 	-0.0303682534367887 	-2.13407381860481e-16
5 	0.31484734262158 	-1.38777878078145e-17 	-0.0109376888821081 	-0.0320396431452385 	-1.55750969164528e-17
5 	0.331856704341784 	-1.73472347597681e-17 	0.00111863334327943 	-0.0337564692601011 	-1.97796758214199e-22
5 	0.349489168792654 	-1.38777878078145e-17 	0.0140043842311773 	-0.0355181066313928 	-1.8523558482704e-21
5 	0.367767562051934 	-6.93889390390723e-18 	0.0277923426390269 	-0.0373235571476891 	-2.9918645438396e-22
5 	0.386715546383437 	-3.46944695195361e-18 	0.0425614358442148 	-0.0391713779071852 	-1.92888561185127e-21
5 	0.406357650868994 	-3.46944695195361e-18 	0.0583970751868946 	-0.0410595964573092 	-1.69219543521797e-21
5 	0.426719303162537 	0 	0.0753914369317196 	-0.0429856053664327 	2.63428180286813e-22
5 	0.447826862407422 	6.93889390390723e-18 	0.0936436651909395 	-0.0449460085663566 	3.31089640941373e-21
5 	0.46970765335962 	6.93889390390723e-18 	0.113259959949654 	-0.0469364077212698 	-4.26589848150893e-22
5 	0.49239000176093 	6.93889390390723e-18 	0.134353509519454 	-0.0489514470453513 	-1.40072874642365e-17
5 	0.515903271008024 	-3.46944695195361e-18 	0.157044254882255 	-0.0509858294685429 	-2.06075250294149e-16
5 	0.540277900164783 	-1.21430643318376e-17 	0.181459453109863 	-0.0530331500327809 	2.11977190634958e-16
5 	0.565545443367137 	-6.93889390390723e-18 	0.207780539546955 	-0.0550724721177995 	1.6692384982771e-17
5 	0.591738610671419 	-5.20417042793042e-18 	0.236544803968336 	-0.0570824056877768 	3.3562162962191e-22
5 	0.618891310399116 	-8.67361737988404e-18 	0.268441917003239 	-0.0590440124892069 	4.13535510598522e-21
5 	0.647038693032828 	-1.04083408558608e-17 	0.303744242631308 	-0.0609104580230765 	3.54938338343487e-22
5 	0.676217196720269 	-8.67361737988404e-18 	0.342360880554218 	-0.0626500806446283 	6.97327647026308e-21
5 	0.706464594445211 	-3.46944695195361e-18 	0.384047631757418 	-0.0642405957821775 	-7.94099722521918e-21
5 	0.737820042926437 	3.46944695195361e-18 	0.428556847424988 	-0.065658376013577 	-8.09806401139528e-21
5 	0.770324133308009 	1.04083408558608e-17 	0.475689443556807 	-0.0668757436442618 	-4.65012603863195e-21
5 	0.804018943706461 	1.56125112837913e-17 	0.525269189682938 	-0.0678625793687157 	2.41403356620242e-21
5 	0.838948093682961 	1.73472347597681e-17 	0.577085205930102 	-0.0685895484893431 	-1.43849936321901e-20
5 	0.87515680071094 	1.04083408558608e-17 	0.630842969380032 	-0.0690313315974282 	-9.11987710036053e-21
5 	0.912691938712296 	5.20417042793042e-18 	0.686144705510742 	-0.0691683709717 	-8.92864138377727e-21
5 	0.951602098737955 	5.20417042793042e-18 	0.742503324855833 	-0.0689860525726479 	-1.45105532752524e-21
5 	0.991937651871333 	3.46944695195361e-18 	0.79939092202666 	-0.0684692900212646 	-1.32500502739895e-20
5 	1.03375081443614 	3.46944695195361e-18 	0.856254396728269 	-0.0675901167320914 	-6.40016382056711e-21
5 	1.07709571559294 	8.67361737988404e-19 	0.912246642351809 	-0.0663022634512646 	1.19786136656871e-22
5 	1.12202846741195 	-1.73472347597681e-18 	0.965902847529835 	-0.0645590515265506 	1.09978858476752e-20
5 	1.16860723751287 	8.67361737988404e-19 	1.01551874578286 	-0.0623553211933757 	-3.24217594875834e-21
5 	1.2168923243656 	4.33680868994202e-19 	1.06022976820608 	-0.0597392782980591 	-7.30553575207984e-21
5 	1.26694623534962 	-7.37257477290143e-18 	1.10041345778319 	-0.0567506060533588 	-3.50187884933683e-21
5 	1.31883376767273 	-1.17093834628434e-17 	1.13635728610604 	-0.0534308967003725 	1.54591554127763e-20
5 	1.37262209225426 	-1.25767452008319e-17 	1.16592015580636 	-0.0501216104569041 	8.13184022679628e-21
5 	1.41220272459524 	-1.04083408558608e-17 	1.18578689699735 	-0.0474976288666325 	0
5 	1.43617694926586 	-3.46944695195361e-18 	1.19792291445798 	-0.0456371845477599 	0
5 	1.45930396367274 	-3.46944695195361e-18 	1.20708009661823 	-0.0440704763811617 	0
5 	1.48161370685419 	-1.04083408558608e-17 	1.21512457248915 	-0.0425644876268947 	0
5 	1.50313505985141 	-1.38777878078145e-17 	1.22220338746856 	-0.0411143869126409 	0
5 	1.52389588309638 	-1.38777878078145e-17 	1.22843883699744 	-0.0397173951300343 	0
5 	1.54392305247857 	-1.73472347597681e-17 	1.23393195810397 	-0.0383711026661625 	0
5 	1.56324249413703 	-2.08166817117217e-17 	1.23876584004052 	-0.0370728660169016 	0
5 	1.58187921802306 	-2.08166817117217e-17 	1.24300854886071 	-0.035819971247352 	0
5 	1.59985735027679 	-2.08166817117217e-17 	1.2467156003068 	-0.0346097732578734 	0
5 	1.61720016445966 	-2.08166817117217e-17 	1.24993198804542 	-0.0334397422510016 	0
5 	1.63393011168312 	-2.08166817117217e-17 	1.25269381044669 	-0.0323074766459866 	0
5 	1.65006884967273 	-2.08166817117217e-17 	1.25502955046558 	-0.031210703809956 	0
5 	1.66563727080512 	-1.73472347597681e-17 	1.2569610621695 	-0.0301472733307164 	0
5 	1.68065552915414 	-1.38777878078145e-17 	1.25850431127872 	-0.0291151457668846 	0
5 	1.69514306658136 	-1.38777878078145e-17 	1.25966990932157 	-0.0281123792955038 	0
5 	1.70911863790442 	-1.38777878078145e-17 	1.26046347341252 	-0.027137115823662 	0
5 	1.7226003351761 	-1.38777878078145e-17 	1.26088583709372 	-0.0261875674918881 	0
5 	1.73560561110536 	-1.38777878078145e-17 	1.26093313255661 	-0.0252620041480796 	0
5 	1.74815130165068 	-1.38777878078145e-17 	1.26059676112372 	-0.024358742208706 	0
5 	1.76025364781502 	-1.38777878078145e-17 	1.25986326734841 	-0.0234761352820656 	0
5 	1.77192831667064 	-1.38777878078145e-17 	1.25871413277314 	-0.0226125669744552 	0
5 	1.78319042164083 	-1.38777878078145e-17 	1.25712550865464 	-0.0217664464144434 	0
5 	1.79405454206499 	-1.73472347597681e-17 	1.25506791325327 	-0.0209362071954033 	0
5 	1.80453474207227 	-2.08166817117217e-17 	1.25250592896427 	-0.0201203106299484 	0
5 	1.81464458878828 	-2.08166817117217e-17 	1.24939794771104 	-0.0193172543974163 	0
5 	1.8243971698984 	-2.08166817117217e-17 	1.24569602899897 	-0.0185255877914364 	0
5 	1.83380511059041 	-2.08166817117217e-17 	1.24134595198085 	-0.0177439347554859 	0
5 	1.84288058989839 	-2.08166817117217e-17 	1.2362875571071 	-0.0169710256193726 	0
5 	1.85163535646909 	-2.08166817117217e-17 	1.23045547849496 	-0.0162057377946446 	0
5 	1.86008074377113 	-1.73472347597681e-17 	1.22378035719627 	-0.0154471445430637 	0
5 	1.8682276847667 	-1.38777878078145e-17 	1.21619058989377 	-0.0146945692594267 	0
5 	1.8760867260648 	-1.73472347597681e-17 	1.20761460196973 	-0.0139476407207454 	0
5 	1.88366804157438 	-2.08166817117217e-17 	1.19798354050787 	-0.0132063433128923 	0
5 	1.8909814456749 	-2.08166817117217e-17 	1.18723417493198 	-0.0124710561319479 	0
5 	1.89803640592158 	-1.73472347597681e-17 	1.17531169550953 	-0.0117425707680811 	0
5 	1.90484205530155 	-1.38777878078145e-17 	1.16217204380227 	-0.0110220573322895 	0
5 	1.91140720405698 	-1.04083408558608e-17 	1.1477834183902 	-0.0103109532071776 	0
5 	1.91774035109035 	-6.93889390390723e-18 	1.13212655964334 	-0.00961117030412681 	0
5 	1.9238496949667 	-6.93889390390723e-18 	1.11517719963873 	-0.00892495531106639 	0
5 	1.92974314452705 	-6.93889390390723e-18 	1.09684792940561 	-0.00825354619161969 	0
5 	1.9354283291268 	-6.93889390390723e-18 	1.07697583342259 	-0.00759680966112681 	0
5 	1.9409126085123 	-6.93889390390723e-18 	1.055447675308 	-0.00695594233964547 	0
5 	1.94620308234835 	-6.93889390390723e-18 	1.03230204488483 	-0.00633491468171479 	0
5 	1.95130659940914 	-6.93889390390723e-18 	1.00767331578483 	-0.00573792890845929 	0
5 	1.95622976644424 	-1.04083408558608e-17 	0.981698093548121 	-0.00516793919135875 	0
5 	1.96097895673142 	-1.04083408558608e-17 	0.954470432698826 	-0.00462711355778034 	0
5 	1.96556031832711 	-6.93889390390723e-18 	0.926025922028819 	-0.00411695171155433 	0
5 	1.96997978202542 	-3.46944695195361e-18 	0.896338021811171 	-0.00363835155343138 	0
5 	1.97424306903575 	0 	0.865316789887541 	-0.00319171644623401 	0
5 	1.9783556983893 	0 	0.832805368317416 	-0.00277706627129202 	0
5 	1.98232299408358 	0 	0.798572491002442 	-0.00239412612535659 	0
5 	1.98615009197469 	3.46944695195361e-18 	0.762300694697603 	-0.0020423975286462 	0
5 	1.98984194642589 	6.93889390390723e-18 	0.723569404600541 	-0.00172123028959317 	0
5 	1.99340333672126 	6.93889390390723e-18 	0.681830107274089 	-0.00142992601203349 	0
5 	1.99683887325273 	6.93889390390723e-18 	0.636345115352669 	-0.00116746218895442 	0
5 	2.00015300348844 	3.46944695195361e-18 	0.586090230012334 	-0.000932240921380494 	0
5 	2.00335001773022 	0 	0.529801657437753 	-0.000722538313376868 	0
5 	2.00643405466757 	0 	0.466416363229002 	-0.000537438850321524 	0
5 	2.00940910673542 	0 	0.395967150926395 	-0.000377813547334244 	0
5 	2.01227902528252 	0 	0.320465598301477 	-0.000246014954998317 	0
5 	2.01504752555717 	3.46944695195361e-18 	0.243584029540115 	-0.000144031852223991 	0
5 	2.01771819151684 	6.93889390390723e-18 	0.168869478305389 	-7.18001367274515e-05 	0
5 	2.02029448046774 	6.93889390390723e-18 	0.0982905980992881 	-2.70301231355339e-05 	0
5 	2.02277972754047 	6.93889390390723e-18 	0.0320813979331724 	-5.55447684209041e-06 	0
