2 	0.00391112967796261 	1.10588621593521e-17 	0.0727077259279627 	2.10651379416679e-06 	920.062279632175 	2.04593580174943e-07 	4.38539589048977e-39
2 	0.0118766651674913 	1.95156391047391e-17 	0.0727176361751816 	5.05676547511148e-05 	174.471328107346 	1.22988485700931e-05 	0
2 	0.0201340015485761 	2.16840434497101e-17 	0.0727263287152472 	0.000338610731637989 	56.4488139905741 	0.000160620895161848 	0
2 	0.028693828342395 	1.69135538907739e-17 	0.0727316116812628 	0.0011064086652117 	26.8220872441363 	0.000568027647579986 	0
2 	0.0375672266585909 	8.23993651088983e-18 	0.0727367864095771 	0.00226076742770191 	15.4258457420054 	0.000697453453184092 	0
2 	0.0467656835403032 	2.60208521396521e-18 	0.0727462918200443 	0.00350332261045429 	10.0869740719265 	0.000418077881183528 	0
2 	0.0563011068347007 	-2.60208521396521e-18 	0.0727607673208971 	0.00468581169988633 	7.30675465979694 	0.000166219504282686 	0
2 	0.0661858406082648 	-6.07153216591882e-18 	0.0727775424541026 	0.00577528150732162 	5.71096625559923 	5.36981447299718e-05 	0
2 	0.0764326811267815 	-6.07153216591882e-18 	0.0727939462509093 	0.00677824813053977 	4.70904041404003 	3.05907529187427e-05 	0
2 	0.0870548934207258 	-8.67361737988404e-19 	0.0728083488296429 	0.007709558657885 	4.03188916514573 	5.2519343328971e-05 	0
2 	0.0980662284574839 	-2.60208521396521e-18 	0.0728197762874756 	0.00858318190568559 	3.54730723369068 	9.67534308672352e-05 	0
2 	0.109480940942647 	-1.21430643318376e-17 	0.07282754207628 	0.00941039607199597 	3.18501283475666 	0.000152584755844604 	0
2 	0.121313807773417 	-1.04083408558608e-17 	0.0728311106838518 	0.0101999637037445 	2.90487893835839 	0.000214908881458802 	0
2 	0.13358014716801 	-3.46944695195361e-18 	0.0728300496656111 	0.0109586700623909 	2.68255726340056 	0.000281246185389324 	0
2 	0.146295838495838 	1.73472347597681e-18 	0.0728240020668033 	0.0116918167870497 	2.5025028109456 	0.000350408818004235 	0
2 	0.159477342834115 	1.73472347597681e-18 	0.07281266954091 	0.0124036018376068 	2.35436202828665 	0.00042188498599739 	0
2 	0.173141724277517 	3.46944695195361e-18 	0.0727958043758785 	0.0130973985352543 	2.23099195398478 	0.000495542337007488 	0
2 	0.18730667202848 	1.38777878078145e-17 	0.0727732075319398 	0.013775959336638 	2.12731828808647 	0.000571480163789433 	0
2 	0.201990523296728 	1.73472347597681e-17 	0.0727447305435272 	0.0144415666176823 	2.03964822171205 	0.000649954912396374 	0
2 	0.217212287037676 	3.46944695195361e-18 	0.07271028026851 	0.0150961471587573 	1.96524147913944 	0.000731344143998051 	0
2 	0.232991668560441 	-1.04083408558608e-17 	0.0726698261090791 	0.0157413624267308 	1.90203415010252 	0.0008161323749335 	0
2 	0.249349095037321 	-1.04083408558608e-17 	0.0726234096745164 	0.0163786835396523 	1.84845638381926 	0.000904910907013008 	0
2 	0.266305741947753 	-1.38777878078145e-17 	0.0725711571282685 	0.0170094577477892 	1.80330982072918 	0.000998388216794566 	0
2 	0.283883560490999 	-1.38777878078145e-17 	0.0725132947480203 	0.0176349720889117 	1.76568442580424 	0.00109741003994302 	0
2 	0.30210530600303 	-1.73472347597681e-17 	0.0724501685763191 	0.0182565193684072 	1.73490235961179 	0.00120299005437628 	0
2 	0.320994567414414 	-3.12250225675825e-17 	0.0723822695049869 	0.0188754716531442 	1.71048132714075 	0.00131635359051471 	0
2 	0.340575797787321 	-3.46944695195361e-17 	0.0723102657888293 	0.0194933670010554 	1.69211288101553 	0.00143899840699371 	0
2 	0.360874345971201 	-3.46944695195361e-17 	0.0722350459093511 	0.0201120161856741 	1.67965320317156 	0.00157277849254394 	0
2 	0.379381853751547 	-3.81639164714898e-17 	0.0721670116693618 	0.0206598726739435 	1.67354538819136 	0.00170174124896233 	0
2 	0.390092168053834 	-4.16333634234434e-17 	0.0721279825734098 	0.0209715470842185 	1.67175134734935 	0.00177892280189135 	0
2 	0.403729468200046 	-3.46944695195361e-17 	0.0720799184930348 	0.0213607904232528 	1.67260209675621 	0.00188325508286759 	0
2 	0.426341520272734 	-2.77555756156289e-17 	0.0720033688712489 	0.0219969991265991 	1.67854418023609 	0.00206629840479821 	0
2 	0.449781918030829 	-3.12250225675825e-17 	0.0719306554538219 	0.0226469070042301 	1.69163240913635 	0.00227406652774746 	0
2 	0.474081006202548 	-3.46944695195361e-17 	0.0718650787111577 	0.0233165369608628 	1.7128087842741 	0.00251281975577596 	0
2 	0.499270241132364 	-3.46944695195361e-17 	0.0718109794747884 	0.0240138445212259 	1.74340335930396 	0.00279076609095527 	0
2 	0.525382231502763 	-3.12250225675825e-17 	0.0717740651863467 	0.0247493720052548 	1.78524814552507 	0.00311867614227672 	0
2 	0.552450780547767 	-2.42861286636753e-17 	0.0717617669094885 	0.025537114912995 	1.84082718453221 	0.00351061119119497 	0
2 	0.58051092981285 	-1.73472347597681e-17 	0.0717837872058046 	0.0263956675756859 	1.9134649873802 	0.00398466561564375 	0
2 	0.609599004517911 	-3.46944695195361e-18 	0.0718537716316214 	0.0273491216031522 	2.00753733448873 	0.00456332861412118 	0
2 	0.639752660582033 	1.04083408558608e-17 	0.0719921744947086 	0.0284257164452579 	2.12858240593958 	0.00527975462005642 	0
2 	0.671010933370887 	1.04083408558608e-17 	0.0722166042743699 	0.029665382671778 	2.28251905805233 	0.00620876037291723 	0
2 	0.703414288229901 	1.73472347597681e-17 	0.0724879226725619 	0.031112193850728 	2.46867261701472 	0.00751791835679075 	0
2 	0.737004672868606 	2.08166817117217e-17 	0.0727726080187141 	0.0328297140438026 	2.67859026134717 	0.00923556678893836 	0
2 	0.771825571663976 	1.75640751942652e-17 	0.0731233591061864 	0.0349030139357095 	2.90868597703434 	0.011547039990046 	0
2 	0.807922061953053 	1.84314369322536e-17 	0.0735883043620219 	0.0373661201971679 	3.15629644668556 	0.0142872391631765 	0
2 	0.845340872387742 	1.38777878078145e-17 	0.0741481614018777 	0.0401128984530067 	3.40563393577761 	0.0171462541426852 	0
2 	0.884130443427309 	6.07153216591882e-18 	0.0747535174333141 	0.0428547647856207 	3.62540479539933 	0.0198148447336097 	0
2 	0.924340990046898 	1.73472347597681e-18 	0.075382372822713 	0.0452991246796486 	3.793128967598 	0.0220982591287069 	0
2 	0.966024566743242 	0 	0.076053296948375 	0.0471926982202992 	3.89906773932085 	0.0238460771290945 	0
2 	1.00923513492173 	-1.73472347597681e-18 	0.0768037283630735 	0.0483169048079797 	3.93344755491555 	0.0248052387034936 	0
2 	1.05402863275206 	0 	0.0776623944445074 	0.0485225586214984 	3.88460941819993 	0.024615652863529 	0
2 	1.10046304758287 	0 	0.078666120294199 	0.0478019784534823 	3.74381802425552 	0.0230153821040285 	0
2 	1.14859849100923 	0 	0.0798933645562877 	0.0463420999673899 	3.51356987847647 	0.0200637630132536 	0
2 	1.1731499461078 	0 	0.0805772616897036 	0.0454646559098731 	3.37692109612935 	0.0182663382898158 	0
2 	1.19854810382362 	-3.46944695195361e-18 	0.081336933247383 	0.0444854396466811 	3.21403521599837 	0.016233674728931 	0
2 	1.25022400101563 	-1.04083408558608e-17 	0.0828593199640389 	0.0425852891847564 	2.87699205008838 	0.0123372957879967 	0
2 	1.30384562673186 	-1.04083408558608e-17 	0.0843551640485563 	0.0409141157409496 	2.54019356640729 	0.00907909225963382 	0
2 	1.35943156962566 	-6.93889390390723e-18 	0.085809788458265 	0.0395698856980421 	2.23671047539445 	0.00673112669284826 	0
2 	1.41705378838763 	-1.04083408558608e-17 	0.0872407692637161 	0.0384822976204304 	1.98147619795578 	0.00519808902598627 	0
2 	1.47678687776592 	-1.04083408558608e-17 	0.0886657571887768 	0.0375089044766114 	1.77475730871461 	0.00423840358902094 	0
2 	1.53870816513278 	-1.21430643318376e-17 	0.0901020868707275 	0.0365064424598264 	1.60798325529453 	0.00362066136865028 	0
2 	1.60289781058851 	-1.38777878078145e-17 	0.0915778545594998 	0.0353408125220506 	1.46878536365614 	0.00318381249686862 	0
2 	1.66943891073267 	-6.93889390390723e-18 	0.0930927031393462 	0.0339454086302905 	1.34522992141718 	0.00280916678357384 	0
2 	1.73841760623657 	-5.20417042793042e-18 	0.0946423763785304 	0.0323099223813801 	1.23456050253078 	0.00244734218409378 	0
2 	1.8099231933566 	-1.04083408558608e-17 	0.096216240420073 	0.0304584342280764 	1.13549508502136 	0.00208347860053118 	0
2 	1.87639343533151 	-1.38777878078145e-17 	0.0976372672858062 	0.0286452379859036 	1.05489743397611 	0.00175843057772953 	0
2 	1.91412260223978 	-1.73472347597681e-17 	0.0984254341843027 	0.0275955116724083 	1.0124889842285 	0.00157999446203632 	0
2 	1.96088870322038 	-1.73472347597681e-17 	0.0992869536934692 	0.02639504355347 	0.96909599151354 	0.00138725791935257 	0
2 	2.02025965173185 	-1.38777878078145e-17 	0.100480917036443 	0.0247187583244504 	0.913985483648139 	0.00113080516551779 	0
2 	2.06006301192217 	-1.38777878078145e-17 	0.101299023731119 	0.0235216843200673 	0.878900140502536 	0.000966382748581273 	0
2 	2.09845978584128 	-1.38777878078145e-17 	0.102003866922883 	0.0224704992687137 	0.850858269819702 	0.000831214387792065 	0
2 	2.13549967996946 	-1.38777878078145e-17 	0.102669260796995 	0.0214788413236703 	0.826796303662661 	0.000710633359644329 	0
2 	2.17123064424048 	-1.38777878078145e-17 	0.103291268945142 	0.0205462112790899 	0.806439665391309 	0.000604094709713023 	0
2 	2.20569893411516 	-2.08166817117217e-17 	0.103871795568323 	0.0196708626820455 	0.789541751758412 	0.000510223154491709 	0
2 	2.23894917046123 	-2.77555756156289e-17 	0.104413353145698 	0.0188502104684811 	0.775887903103436 	0.000427744521820009 	0
2 	2.27102439731726 	-2.77555756156289e-17 	0.104918167189201 	0.0180811741943619 	0.765298149343758 	0.00035545805680112 	0
2 	2.30196613761522 	-3.12250225675825e-17 	0.105388358592154 	0.0173604477886516 	0.75762866411678 	0.000292263992105641 	0
2 	2.33181444693392 	-3.46944695195361e-17 	0.105825991279127 	0.0166846980678511 	0.752772245360167 	0.000237181111440816 	0
2 	2.3606079653529 	-3.81639164714898e-17 	0.106233055248207 	0.016050701966945 	0.750658249309158 	0.000189354256831282 	0
2 	2.38838396747391 	-3.81639164714898e-17 	0.106611456098168 	0.0154554350782643 	0.751252352050703 	0.000148056422914881 	0
2 	2.41517841067461 	-3.46944695195361e-17 	0.106963010970564 	0.0148961236664974 	0.754556417439152 	0.000112687698536339 	0
2 	2.44102598165722 	-3.81639164714898e-17 	0.10728944678463 	0.0143702705745501 	0.760608663737788 	8.27723854340562e-05 	0
2 	2.46596014135208 	-4.16333634234434e-17 	0.107592400083394 	0.0138756633115146 	0.76948425561573 	5.79553901951612e-05 	0
2 	2.49001316823444 	-4.16333634234434e-17 	0.107873418239634 	0.0134103705814124 	0.781296400579693 	3.79987466099026e-05 	0
2 	2.51321620011054 	-4.16333634234434e-17 	0.108133961644151 	0.0129727317585674 	0.79619799380086 	2.27788754010968e-05 	0
2 	2.535599274427 	-4.16333634234434e-17 	0.10837540652904 	0.0125613423874746 	0.814383826955688 	1.22849569150633e-05 	0
2 	2.55719136715571 	-3.81639164714898e-17 	0.108599048158715 	0.0121750376586718 	0.836093350380103 	6.61857704656737e-06 	0
2 	2.57802043030466 	-3.81639164714898e-17 	0.108806104192324 	0.0118128749388259 	0.861613949784896 	5.99459785155705e-06 	0
2 	2.59811342810315 	-4.16333634234434e-17 	0.108997718079851 	0.0114741157610266 	0.891284666315159 	1.07429924614383e-05 	0
2 	2.61749637190832 	-3.81639164714898e-17 	0.109174962402355 	0.0111582071655963 	0.925500250568222 	2.13111622214989e-05 	0
2 	2.63619435387806 	-3.46944695195361e-17 	0.109338842105482 	0.0108647618914209 	0.964715398109957 	3.82660228563845e-05 	0
2 	2.65423157945406 	-3.81639164714898e-17 	0.109490297605408 	0.0105935366388063 	1.00944897004945 	6.22949195564789e-05 	0
2 	2.67163139869691 	-4.16333634234434e-17 	0.109630207769088 	0.0103444074620869 	1.06028796602936 	9.42042414732157e-05 	0
2 	2.68841633651388 	-4.16333634234434e-17 	0.109759392786888 	0.0101173413273388 	1.11789100351234 	0.000134914512466811 	0
2 	2.70460812181851 	-4.16333634234434e-17 	0.109878616966068 	0.00991236302631249 	1.18299108883501 	0.000185450821406833 	0
2 	2.72022771565972 	-4.16333634234434e-17 	0.109988591478152 	0.00972951701659574 	1.25639757161136 	0.000246927824543488 	0
2 	2.73529533835695 	-4.16333634234434e-17 	0.110089977092182 	0.00956882439372149 	1.33899738826731 	0.000320529303868802 	0
2 	2.74983049567626 	-3.81639164714898e-17 	0.110183386918816 	0.00943023609234548 	1.43175605354121 	0.000407483457379661 	0
2 	2.76385200408157 	-3.46944695195361e-17 	0.110269389177654 	0.00931358449729223 	1.53571936744195 	0.000509036697795935 	0
2 	2.77737801509344 	-3.81639164714898e-17 	0.110348509982678 	0.00921853677363256 	1.65201745834581 	0.000626430577875787 	0
2 	2.79042603878708 	-3.81639164714898e-17 	0.110421236120119 	0.00914455416403999 	1.78187353008527 	0.000760888224262254 	0
2 	2.80301296646003 	-3.46944695195361e-17 	0.1104880177722 	0.00909086196264833 	1.92662042986234 	0.000913617920378431 	0
2 	2.81515509249873 	-3.46944695195361e-17 	0.110549271122718 	0.00905643458422909 	2.0877287858363 	0.00108584180814583 	0
2 	2.82686813547238 	-3.46944695195361e-17 	0.110605380770299 	0.00903999894444008 	2.2668508680622 	0.0012788568161827 	0
2 	2.83816725848143 	-3.12250225675825e-17 	0.110656701875555 	0.0090400572901307 	2.4658844513693 	0.00149413291322165 	0
2 	2.84906708878692 	-2.77555756156289e-17 	0.110703561981394 	0.00905492794337732 	2.68706085491921 	0.00173345103332087 	0
2 	2.85958173674617 	-2.77555756156289e-17 	0.110746262471742 	0.00908279961271928 	2.93306117892645 	0.00199908019379495 	0
2 	2.86972481407933 	-2.77555756156289e-17 	0.11078507967158 	0.00912179250513992 	3.20716484718536 	0.00229399113557915 	0
2 	2.87950945149043 	-2.42861286636753e-17 	0.110820265631102 	0.00917001786863712 	3.51343525830963 	0.00262210271630157 	0
2 	2.88894831566567 	-2.08166817117217e-17 	0.110852048658601 	0.00922562700794096 	3.85694903557222 	0.00298855723859566 	0
2 	2.89805362567107 	-2.08166817117217e-17 	0.110880633709647 	0.00928684118467235 	4.24407844574842 	0.00340002123546724 	0
2 	2.90683716877067 	-2.08166817117217e-17 	0.110906203065604 	0.00935195489702253 	4.68284153290187 	0.00386500767449836 	0
2 	2.9153103156857 	-2.08166817117217e-17 	0.110928918201183 	0.0094193065962234 	5.18334224098319 	0.0043942122857617 	0
2 	2.92348403531449 	-2.08166817117217e-17 	0.1109489208056 	0.00948721297642626 	5.75833501365296 	0.00500084910534702 	0
2 	2.9313689089323 	-1.73472347597681e-17 	0.11096632121225 	0.00955386622293537 	6.42396851617873 	0.0057009701512755 	0
2 	2.93897514388925 	-1.73472347597681e-17 	0.110981182351559 	0.00961719914009834 	7.20079694947128 	0.00651700942234949 	0
2 	2.94631258682425 	-2.08166817117217e-17 	0.110993688006503 	0.00967460884380989 	8.11548650623046 	0.00748491086983236 	0
2 	2.95339073641193 	-1.73472347597681e-17 	0.111004367370131 	0.00972221559778216 	9.20408115065173 	0.00864864736150169 	0
2 	2.96021875565916 	-1.38777878078145e-17 	0.111013329693893 	0.00975363979842831 	10.5153371061243 	0.0100480894808248 	0
2 	2.96680548376697 	-1.38777878078145e-17 	0.111020137452897 	0.00975874208290597 	12.1095810155151 	0.0117337056264065 	0
2 	2.97315944757337 	-1.38777878078145e-17 	0.111024602338472 	0.00972164986464113 	14.0578386996576 	0.0137256452479563 	0
2 	2.97928887259171 	-1.38777878078145e-17 	0.111026793340134 	0.0096197014366334 	16.4485107683157 	0.0160284156158949 	0
2 	2.98520169365903 	-1.38777878078145e-17 	0.111026886957498 	0.00942207027828576 	19.3990208199028 	0.0186210024943123 	0
2 	2.99090556520807 	-1.38777878078145e-17 	0.111025145953097 	0.00908772523336093 	23.0751687179235 	0.0214201424054781 	0
2 	2.99640787117633 	-1.38777878078145e-17 	0.111021930803113 	0.00856334345013494 	27.7270149067975 	0.0242076125067226 	0
2 	3.00171573456492 	-1.38777878078145e-17 	0.111017690173814 	0.00778393406970745 	33.7635200544787 	0.0265300788995721 	0
2 	3.00683602665963 	-1.73472347597681e-17 	0.111012893583219 	0.00668165735226446 	41.941357788511 	0.027575180150376 	0
2 	3.01177537592613 	-2.42861286636753e-17 	0.111008028536666 	0.00521006896633875 	53.9287099560903 	0.0257081811465697 	0
2 	3.01654017659085 	-2.77555756156289e-17 	0.111003756141387 	0.00343643212028321 	74.2605974414077 	0.0187302935884445 	0
2 	3.02113659691864 	-2.77555756156289e-17 	0.111000575480838 	0.00173509908282425 	118.597658141546 	0.00902982634076586 	0
2 	3.02557058719784 	-3.12250225675825e-17 	0.110998303998194 	0.000602549438540286 	258.337303199876 	0.00244389153017522 	0
2 	3.02984788744324 	-3.46944695195361e-17 	0.110996411346533 	0.000126792003918025 	1051.87999145378 	0.000314361621127118 	0
