2 	0.00391112967796261 	1.10588621593521e-17 	-0.0241667501851406 	0.000107887632013225 	-3.79886890397656e-16
2 	0.0118766651674913 	1.95156391047391e-17 	-0.0717225166667723 	0.000552539875952317 	5.05321183259997e-16
2 	0.0201340015485761 	2.16840434497101e-17 	-0.117429594407553 	0.00141936021007188 	1.51256145534023e-17
2 	0.028693828342395 	1.69135538907739e-17 	-0.155964382183434 	0.00254407932236973 	-1.12781613673565e-22
2 	0.0375672266585909 	8.23993651088983e-18 	-0.181482750023302 	0.00366041094152874 	-6.10178912410289e-21
2 	0.0467656835403032 	2.60208521396521e-18 	-0.195107214362824 	0.0046362378787907 	8.34800905375983e-21
2 	0.0563011068347007 	-2.60208521396521e-18 	-0.201507048280978 	0.00549063985745231 	2.5177329332384e-18
2 	0.0661858406082648 	-6.07153216591882e-18 	-0.204046301048787 	0.00627035097578815 	3.46574064526876e-18
2 	0.0764326811267815 	-6.07153216591882e-18 	-0.204463958483852 	0.00700421514725223 	-1.64383803165895e-18
2 	0.0870548934207258 	-8.67361737988404e-19 	-0.203611437484159 	0.00770785084076465 	-2.62019469243014e-18
2 	0.0980662284574839 	-2.60208521396521e-18 	-0.201922406963483 	0.00839042404147933 	3.53384380720776e-22
2 	0.109480940942647 	-1.21430643318376e-17 	-0.19963127138275 	0.00905757543267406 	3.15637507842895e-23
2 	0.121313807773417 	-1.04083408558608e-17 	-0.196871432881677 	0.00971273462640033 	-1.62063601521669e-21
2 	0.13358014716801 	-3.46944695195361e-18 	-0.193721440469568 	0.0103578616430333 	-7.25563355592735e-18
2 	0.146295838495838 	1.73472347597681e-18 	-0.190228022808929 	0.0109938884889492 	-9.7396039721856e-17
2 	0.159477342834115 	1.73472347597681e-18 	-0.186418281747123 	0.0116209745217063 	8.80451684354046e-17
2 	0.173141724277517 	3.46944695195361e-18 	-0.182306486055273 	0.0122386497188784 	8.67030850541514e-18
2 	0.18730667202848 	1.38777878078145e-17 	-0.177898015929934 	0.0128458903743149 	1.35157722466499e-21
2 	0.201990523296728 	1.73472347597681e-17 	-0.173191722082134 	0.013441151404598 	2.86131401487231e-21
2 	0.217212287037676 	3.46944695195361e-18 	-0.168181357284348 	0.0140223682603152 	5.48022056636875e-24
2 	0.232991668560441 	-1.04083408558608e-17 	-0.162856437198647 	0.0145869355081998 	-1.45363497178486e-23
2 	0.249349095037321 	-1.04083408558608e-17 	-0.157202729887832 	0.0151316657601808 	6.17368486976194e-22
2 	0.266305741947753 	-1.38777878078145e-17 	-0.151202486695153 	0.0156527305299579 	1.36191427586114e-21
2 	0.283883560490999 	-1.38777878078145e-17 	-0.144834476449382 	0.0161455832424028 	2.25807902399449e-22
2 	0.30210530600303 	-1.73472347597681e-17 	-0.138073852773491 	0.0166048637364761 	0
2 	0.320994567414414 	-3.12250225675825e-17 	-0.130891861313976 	0.0170242830801782 	4.70393954599068e-22
2 	0.340575797787321 	-3.46944695195361e-17 	-0.123255374505823 	0.0173964873778701 	1.51717533453295e-21
2 	0.360874345971201 	-3.46944695195361e-17 	-0.115126222397612 	0.0177128996550251 	-2.04001988488688e-23
2 	0.379381853751547 	-3.81639164714898e-17 	-0.107518607317546 	0.0179380351296117 	-1.47349031338878e-21
2 	0.390092168053834 	-4.16333634234434e-17 	-0.103048344706549 	0.018046068312253 	-2.19490978980391e-21
2 	0.403729468200046 	-3.46944695195361e-17 	-0.0972191386767665 	0.0181387462899162 	-1.09844440775732e-17
2 	0.426341520272734 	-2.77555756156289e-17 	-0.0873381719481447 	0.0182246951614877 	-9.71119214241067e-18
2 	0.449781918030829 	-3.12250225675825e-17 	-0.0767430692930836 	0.0182056290887558 	1.10099223861546e-17
2 	0.474081006202548 	-3.46944695195361e-17 	-0.0653497307700374 	0.0180642231821231 	9.67629827312944e-18
2 	0.499270241132364 	-3.46944695195361e-17 	-0.0530560707146733 	0.0177809395533065 	2.17625556259628e-21
2 	0.525382231502763 	-3.12250225675825e-17 	-0.039736525273473 	0.0173341472490228 	2.30155265488551e-21
2 	0.552450780547767 	-2.42861286636753e-17 	-0.025234729700043 	0.0167005370690934 	2.91897208340254e-21
2 	0.58051092981285 	-1.73472347597681e-17 	-0.00935398450970928 	0.0158560785559063 	6.90374770847195e-21
2 	0.609599004517911 	-3.46944695195361e-18 	0.00815472667154347 	0.0147787425049808 	5.74258311021039e-22
2 	0.639752660582033 	1.04083408558608e-17 	0.0276071290797706 	0.0134567216413267 	1.08867584897191e-21
2 	0.671010933370887 	1.04083408558608e-17 	0.0494171410691518 	0.0118951594093919 	9.9581156930698e-21
2 	0.703414288229901 	1.73472347597681e-17 	0.0742317906319219 	0.0100462465968809 	1.1682775395801e-17
2 	0.737004672868606 	2.08166817117217e-17 	0.103375696002581 	0.00782656013535297 	2.58322049832684e-16
2 	0.771825571663976 	1.75640751942652e-17 	0.138641141606994 	0.00507501991112833 	-3.03887874440874e-16
2 	0.807922061953053 	1.84314369322536e-17 	0.181319937337818 	0.00175713269757399 	-3.11528544799832e-18
2 	0.845340872387742 	1.38777878078145e-17 	0.231241726139969 	-0.00196246630840198 	-5.98588330315008e-18
2 	0.884130443427309 	6.07153216591882e-18 	0.28708309370488 	-0.00584704953800892 	-1.37478766529054e-16
2 	0.924340990046898 	1.73472347597681e-18 	0.347459827943745 	-0.0096882572751178 	1.0409147111483e-16
2 	0.966024566743242 	0 	0.411279738159154 	-0.0132936812777615 	1.72365424430277e-17
2 	1.00923513492173 	-1.73472347597681e-18 	0.477610744485806 	-0.0164394041591368 	1.42818654808232e-23
2 	1.05402863275206 	0 	0.545232783135892 	-0.0188815177878045 	7.25141781812214e-21
2 	1.10046304758287 	0 	0.61231074854639 	-0.0204079749978715 	4.22035324159195e-21
2 	1.14859849100923 	0 	0.676546894588209 	-0.0209086156699813 	-5.88203114629224e-21
2 	1.1731499461078 	0 	0.707721074263045 	-0.0209002092690349 	-9.8694629903955e-21
2 	1.19854810382362 	-3.46944695195361e-18 	0.736054674167037 	-0.0205393034277074 	-1.62066879754838e-20
2 	1.25022400101563 	-1.04083408558608e-17 	0.789150565293025 	-0.0196182191036875 	-2.65194709887895e-20
2 	1.30384562673186 	-1.04083408558608e-17 	0.835071371451853 	-0.0185338579659218 	-1.25469362914662e-20
2 	1.35943156962566 	-6.93889390390723e-18 	0.8742977317756 	-0.0175968355958897 	5.89865306666818e-21
2 	1.41705378838763 	-1.04083408558608e-17 	0.908214858942864 	-0.0169130854253271 	5.44787587808807e-21
2 	1.47678687776592 	-1.04083408558608e-17 	0.938357012649607 	-0.0164510097507428 	2.55721547773562e-20
2 	1.53870816513278 	-1.21430643318376e-17 	0.965981183624017 	-0.0161219622781826 	-2.72617190862615e-20
2 	1.60289781058851 	-1.38777878078145e-17 	0.991801629781992 	-0.0158221214530563 	-1.07404719621889e-21
2 	1.66943891073267 	-6.93889390390723e-18 	1.01635007164558 	-0.0154624621969492 	1.69086354700466e-20
2 	1.73841760623657 	-5.20417042793042e-18 	1.0397406908241 	-0.0149938445097785 	-1.50186671702459e-20
2 	1.8099231933566 	-1.04083408558608e-17 	1.06193923878268 	-0.0143976089811776 	-2.66757743969436e-20
2 	1.87639343533151 	-1.38777878078145e-17 	1.08078722405065 	-0.0137592328240726 	-3.61083653948926e-21
2 	1.91412260223978 	-1.73472347597681e-17 	1.09091065563337 	-0.0133779482980274 	-5.85511764789814e-22
2 	1.96088870322038 	-1.73472347597681e-17 	1.10153953419517 	-0.0129128239038119 	0
2 	2.02025965173185 	-1.38777878078145e-17 	1.11535771292029 	-0.0122610553848778 	0
2 	2.06006301192217 	-1.38777878078145e-17 	1.12449573896453 	-0.0117758403067542 	0
2 	2.09845978584128 	-1.38777878078145e-17 	1.13212056243121 	-0.0113382759173088 	0
2 	2.13549967996946 	-1.38777878078145e-17 	1.13899626711109 	-0.0109207980876593 	0
2 	2.17123064424048 	-1.38777878078145e-17 	1.14518948611615 	-0.0105207183358993 	0
2 	2.20569893411516 	-2.08166817117217e-17 	1.15075989072914 	-0.0101391520465095 	0
2 	2.23894917046123 	-2.77555756156289e-17 	1.15576062116248 	-0.0097764082233491 	0
2 	2.27102439731726 	-2.77555756156289e-17 	1.16023876127438 	-0.00943221508650923 	0
2 	2.30196613761522 	-3.12250225675825e-17 	1.16423580254898 	-0.00910599672861247 	0
2 	2.33181444693392 	-3.46944695195361e-17 	1.16778807966209 	-0.0087969744370722 	0
2 	2.3606079653529 	-3.81639164714898e-17 	1.17092717209266 	-0.00850423230518345 	0
2 	2.38838396747391 	-3.81639164714898e-17 	1.17368026984971 	-0.0082267758410625 	0
2 	2.41517841067461 	-3.46944695195361e-17 	1.17607050254891 	-0.00796357886799771 	0
2 	2.44102598165722 	-3.81639164714898e-17 	1.17811723156137 	-0.00771361866037177 	0
2 	2.46596014135208 	-4.16333634234434e-17 	1.17983630536603 	-0.00747590130922981 	0
2 	2.49001316823444 	-4.16333634234434e-17 	1.18124027880114 	-0.007249479180051 	0
2 	2.51321620011054 	-4.16333634234434e-17 	1.18233859766925 	-0.00703346209383467 	0
2 	2.535599274427 	-4.16333634234434e-17 	1.18313775107917 	-0.00682702368378714 	0
2 	2.55719136715571 	-3.81639164714898e-17 	1.18364139498696 	-0.00662940417756955 	0
2 	2.57802043030466 	-3.81639164714898e-17 	1.18385045162066 	-0.00643991063852276 	0
2 	2.59811342810315 	-4.16333634234434e-17 	1.18376319084242 	-0.00625791548956454 	0
2 	2.61749637190832 	-3.81639164714898e-17 	1.18337530099944 	-0.00608285395030486 	0
2 	2.63619435387806 	-3.46944695195361e-17 	1.18267995838225 	-0.00591422084379567 	0
2 	2.65423157945406 	-3.81639164714898e-17 	1.1816679059024 	-0.00575156707301687 	0
2 	2.67163139869691 	-4.16333634234434e-17 	1.18032755276909 	-0.00559449592580765 	0
2 	2.68841633651388 	-4.16333634234434e-17 	1.17864510738999 	-0.00544265923763049 	-2.54103717884978e-16
2 	2.70460812181851 	-4.16333634234434e-17 	1.17660475491169 	-0.00529575332318729 	-6.0798083915417e-16
2 	2.72022771565972 	-4.16333634234434e-17 	1.17418888811094 	-0.00515351448265576 	6.57957172726943e-16
2 	2.73529533835695 	-4.16333634234434e-17 	1.17137839512463 	-0.00501571380277846 	2.65305137510801e-16
2 	2.74983049567626 	-3.81639164714898e-17 	1.16815299933369 	-0.00488215091854912 	0
2 	2.76385200408157 	-3.46944695195361e-17 	1.16449163562245 	-0.00475264639271313 	0
2 	2.77737801509344 	-3.81639164714898e-17 	1.16037283396139 	-0.00462703242311815 	0
2 	2.79042603878708 	-3.81639164714898e-17 	1.1557750674145 	-0.00450514171283908 	0
2 	2.80301296646003 	-3.46944695195361e-17 	1.1506770096313 	-0.00438679453495169 	0
2 	2.81515509249873 	-3.46944695195361e-17 	1.14505763935595 	-0.00427178427712505 	0
2 	2.82686813547238 	-3.46944695195361e-17 	1.1388961287647 	-0.00415986202845195 	0
2 	2.83816725848143 	-3.12250225675825e-17 	1.13217145954725 	-0.00405072102815687 	0
2 	2.84906708878692 	-2.77555756156289e-17 	1.12486172471184 	-0.00394398198837488 	0
2 	2.85958173674617 	-2.77555756156289e-17 	1.11694309230845 	-0.00383918039889526 	0
2 	2.86972481407933 	-2.77555756156289e-17 	1.10838842550048 	-0.00373575691116187 	0
2 	2.87950945149043 	-2.42861286636753e-17 	1.09916556732726 	-0.003633051806426 	0
2 	2.88894831566567 	-2.08166817117217e-17 	1.08923530469831 	-0.00353030446291232 	0
2 	2.89805362567107 	-2.08166817117217e-17 	1.07854902300304 	-0.00342665874681271 	0
2 	2.90683716877067 	-2.08166817117217e-17 	1.0670460504385 	-0.00332117499723631 	0
2 	2.9153103156857 	-2.08166817117217e-17 	1.0546506712593 	-0.00321284758545761 	0
2 	2.92348403531449 	-2.08166817117217e-17 	1.04126876103115 	-0.00310062787205083 	0
2 	2.9313689089323 	-1.73472347597681e-17 	1.02678396308238 	-0.00298347572966861 	0
2 	2.93897514388925 	-1.73472347597681e-17 	1.01105324700624 	-0.00286051658070719 	0
2 	2.94631258682425 	-2.08166817117217e-17 	0.993893879611834 	-0.00273077576492841 	0
2 	2.95339073641193 	-1.73472347597681e-17 	0.975042118777187 	-0.00259207918590729 	0
2 	2.96021875565916 	-1.38777878078145e-17 	0.954110430722949 	-0.00244190031602861 	0
2 	2.96680548376697 	-1.38777878078145e-17 	0.930628480515838 	-0.0022775633257272 	0
2 	2.97315944757337 	-1.38777878078145e-17 	0.904097690435002 	-0.00209828623609718 	0
2 	2.97928887259171 	-1.38777878078145e-17 	0.873960771461497 	-0.00190488319497795 	0
2 	2.98520169365903 	-1.38777878078145e-17 	0.839555015427662 	-0.0016993512449242 	0
2 	2.99090556520807 	-1.38777878078145e-17 	0.800062683622904 	-0.00148480079721125 	0
2 	2.99640787117633 	-1.38777878078145e-17 	0.754447337190636 	-0.00126527526081414 	0
2 	3.00171573456492 	-1.38777878078145e-17 	0.701394859267058 	-0.00104557323962135 	0
2 	3.00683602665963 	-1.73472347597681e-17 	0.639286016010505 	-0.000831388984818354 	0
2 	3.01177537592613 	-2.42861286636753e-17 	0.566107045655045 	-0.00062898098869683 	0
2 	3.01654017659085 	-2.77555756156289e-17 	0.479610836469981 	-0.000443217031027217 	0
2 	3.02113659691864 	-2.77555756156289e-17 	0.379694538532666 	-0.000280163253228287 	0
2 	3.02557058719784 	-3.12250225675825e-17 	0.271240985872712 	-0.00014916923799624 	0
2 	3.02984788744324 	-3.46944695195361e-17 	0.161176859580156 	-5.87633334476424e-05 	0
