3 	0.00273779077457385 	3.46944695195361e-18 	0.0932709239564377 	5.77306323664468e-05 	1583.14872996712 	4.72596765619662e-05 	4.93748347124242e-38
3 	0.00831366561724396 	1.38777878078145e-17 	0.0932595633226278 	0.000532570306963217 	598.345872472445 	0.000645172547089489 	0
3 	0.0140938010840031 	2.08166817117217e-17 	0.0932618953784908 	0.00225949116723116 	139.973022595534 	0.00262776590498028 	0
3 	0.0200856798396764 	2.08166817117217e-17 	0.0932526526639291 	0.00564786743088462 	57.7145086811373 	0.00442904534348106 	0
3 	0.0262970586610136 	2.77555756156289e-17 	0.0932303014399372 	0.00979479158461464 	30.9809811381585 	0.00336486064690048 	0
3 	0.0327359784782122 	3.12250225675825e-17 	0.0931939011379702 	0.0137450864133521 	19.8125412688404 	0.00142854016286098 	0
3 	0.0394107747842905 	2.77555756156289e-17 	0.0931435809764073 	0.0172350256594441 	14.3337777444499 	0.000383031746612116 	0
3 	0.0463300884257855 	2.42861286636753e-17 	0.0930810972040371 	0.020325250054297 	11.2356752180891 	7.0745490896188e-05 	0
3 	0.0535028767887471 	2.08166817117217e-17 	0.0930084329869442 	0.0231164034787017 	9.2783336289475 	9.5841920261623e-05 	0
3 	0.060938425394508 	2.08166817117217e-17 	0.0929270110555276 	0.0256874507273835 	7.93875710873698 	0.000270788619530571 	0
3 	0.0686463599202388 	2.08166817117217e-17 	0.0928377894299736 	0.028094459934658 	6.9676650851359 	0.00051895992165775 	0
3 	0.0766366586598532 	1.38777878078145e-17 	0.0927414864274243 	0.0303772976887657 	6.23326528637055 	0.000807833290525963 	0
3 	0.0849196654413917 	6.93889390390723e-18 	0.0926386886580875 	0.0325650396581938 	5.65987885718989 	0.00112290931260498 	0
3 	0.0935061030176073 	1.04083408558608e-17 	0.092529895622839 	0.0346795374548302 	5.20111014176256 	0.00145765719931605 	0
3 	0.102407086947087 	1.73472347597681e-17 	0.0924155477062005 	0.0367377010688201 	4.82698698755823 	0.0018093648541827 	0
3 	0.111634139983881 	2.77555756156289e-17 	0.0922960466931984 	0.0387529764229161 	4.51730685284038 	0.0021772957234538 	0
3 	0.121199206994262 	3.12250225675825e-17 	0.0921717698411209 	0.0407363242311348 	4.25796847783658 	0.00256181819424385 	0
3 	0.131114670419936 	2.77555756156289e-17 	0.0920430793473084 	0.0426968851612873 	4.03883956502955 	0.00296397532103447 	0
3 	0.14139336630771 	3.46944695195361e-17 	0.0919103289811758 	0.0446424430404578 	3.85246074703568 	0.00338526684539171 	0
3 	0.152048600926373 	3.46944695195361e-17 	0.0917738689832847 	0.0465797547346324 	3.69322735390299 	0.00382753948422962 	0
3 	0.163094167992309 	3.46944695195361e-17 	0.091634049908536 	0.0485147897941939 	3.55685570125181 	0.00429293543516295 	0
3 	0.174544366526125 	3.81639164714898e-17 	0.0914912259018841 	0.0504529075431032 	3.44002500022491 	0.00478387392591853 	0
3 	0.186414019363428 	3.12250225675825e-17 	0.0913457578047672 	0.0523989897755502 	3.34013113517206 	0.00530305270083262 	0
3 	0.198718492343699 	3.12250225675825e-17 	0.0911980164449298 	0.0543575412127875 	3.25511371047506 	0.00585346246365588 	0
3 	0.211473714202121 	3.46944695195361e-17 	0.0910483864479934 	0.0563327659867246 	3.18333229644236 	0.00643841054102946 	0
3 	0.224696197190089 	3.12250225675825e-17 	0.090897270918809 	0.0583286258481543 	3.12347646675852 	0.00706155182462536 	0
3 	0.238403058451125 	2.77555756156289e-17 	0.0907450973686611 	0.0603488840631525 	3.07449953464975 	0.00772692608987022 	0
3 	0.252612042179841 	3.12250225675825e-17 	0.0905923253074099 	0.0623971377661376 	3.03556924111988 	0.00843900143039782 	0
3 	0.267341542592663 	3.12250225675825e-17 	0.0904394559758102 	0.064476840698363 	3.00603080634999 	0.00920272397502614 	0
3 	0.282610627740032 	3.42336835962298e-17 	0.0902870447622999 	0.0665913176587925 	2.98537917700198 	0.0100235743726486 	0
3 	0.298439064190914 	4.3340981845108e-17 	0.090141052482382 	0.0687425029096388 	2.97333627199394 	0.0109083316821624 	0
3 	0.314847342621581 	4.38017677684144e-17 	0.0899994546107654 	0.0709340643899372 	2.96957773818757 	0.0118635755966577 	0
3 	0.331856704341784 	3.64291929955129e-17 	0.089860787823222 	0.0731694529506673 	2.97390405510086 	0.0128965838860501 	0
3 	0.349489168792655 	2.60208521396521e-17 	0.0897260451342772 	0.0754514376123135 	2.98625604769386 	0.0140157675432533 	0
3 	0.367767562051934 	2.25514051876985e-17 	0.0895964059979418 	0.0777826179306617 	3.00666575232095 	0.015230500027887 	0
3 	0.386715546383437 	2.42861286636753e-17 	0.0894732828302608 	0.0801653950972555 	3.03525520122907 	0.0165512376188181 	0
3 	0.406357650868995 	2.77555756156289e-17 	0.0893583767822493 	0.0826019346426666 	3.07223778860044 	0.017989653951662 	0
3 	0.426719303162537 	3.64291929955129e-17 	0.0892537429527197 	0.0850941192128916 	3.11792211516635 	0.0195587881385361 	0
3 	0.447826862407423 	4.16333634234434e-17 	0.0891618674896007 	0.0876434889173281 	3.17271823302361 	0.021273202535658 	0
3 	0.469707653359621 	3.81639164714898e-17 	0.0890857732605653 	0.090251165201371 	3.23714615894212 	0.0231491379908264 	0
3 	0.49239000176093 	3.46944695195361e-17 	0.0890291646574185 	0.0929177518166438 	3.31184635081051 	0.0252046483094431 	0
3 	0.515903271008024 	3.81639164714898e-17 	0.0889964247896198 	0.0956432027192417 	3.39759146882947 	0.02745976903428 	0
3 	0.540277900164783 	4.5102810375397e-17 	0.088992017434265 	0.0984263710778492 	3.49529810658181 	0.0299368750923079 	0
3 	0.565545443367137 	4.16333634234434e-17 	0.0890210409305639 	0.101263902546175 	3.60603597257493 	0.0326629953540323 	0
3 	0.59173861067142 	3.81639164714898e-17 	0.0890997219100852 	0.104152393113205 	3.73103129718152 	0.0358552389030357 	0
3 	0.61347668706516 	4.5102810375397e-17 	0.0892197994047777 	0.106513231428212 	3.84282098645333 	0.0390078579627674 	0
3 	0.627297234813695 	5.20417042793042e-17 	0.0893249519110107 	0.108000226799175 	3.91764697077702 	0.0412321886428072 	0
3 	0.647038693032828 	5.89805981832114e-17 	0.0895213097059734 	0.11011195742922 	4.03160960157906 	0.0447891281428889 	0
3 	0.676217196720269 	6.24500451351651e-17 	0.0898784019653169 	0.113200264375266 	4.2107132099214 	0.0506410103019545 	0
3 	0.706464594445212 	6.59194920871187e-17 	0.0903330609201681 	0.11627229368053 	4.40395489178434 	0.0570232389905296 	0
3 	0.737820042926439 	6.93889390390723e-17 	0.0908983813612241 	0.11914550563357 	4.59787129243778 	0.0632138104581956 	0
3 	0.77032413330801 	7.28583859910259e-17 	0.0915859759032011 	0.121599558483889 	4.77577662452699 	0.0686418381700376 	0
3 	0.804018943706461 	6.93889390390723e-17 	0.0923954168357603 	0.1234317124588 	4.92486774588219 	0.0729093243254881 	0
3 	0.838948093682961 	6.24500451351651e-17 	0.093310030085733 	0.12448888963433 	5.03987264282937 	0.0757511130218308 	0
3 	0.87515680071094 	6.59194920871187e-17 	0.0942983546936747 	0.124677549213207 	5.12154857649665 	0.0770420810840031 	0
3 	0.912691938712297 	6.59194920871187e-17 	0.095320464168781 	0.123963323445655 	5.17387626475305 	0.0768825692865035 	0
3 	0.951602098737956 	6.37510877421477e-17 	0.0963438034574798 	0.122341744586086 	5.20168906563122 	0.0757013823876003 	0
3 	0.991937651871334 	7.15573433840433e-17 	0.0973723427915061 	0.119778847785694 	5.20810809596112 	0.0743454303194874 	0
3 	1.03375081443614 	7.89299181569447e-17 	0.0984588767816279 	0.116173038823885 	5.18996911511367 	0.0724893548512562 	0
3 	1.07709571559294 	8.32667268468867e-17 	0.0997003866768685 	0.111237628508824 	5.12579644467117 	0.0689019168307403 	0
3 	1.12202846741196 	7.45931094670027e-17 	0.101148751887923 	0.104798890311663 	4.97981433858005 	0.0623078031618607 	0
3 	1.16860723751287 	6.24500451351651e-17 	0.102800509773814 	0.0971085647318521 	4.72561430698785 	0.0525139258351589 	0
3 	1.2168923243656 	6.59194920871187e-17 	0.104585963509581 	0.0889070389798272 	4.37550453280294 	0.0414881213528001 	0
3 	1.24526142525226 	6.93889390390723e-17 	0.105626474593906 	0.0842319920367153 	4.15181823921066 	0.035349929572122 	0
3 	1.27073854073959 	6.93889390390723e-17 	0.106514368071924 	0.0803590129191594 	3.94545231250839 	0.0305273772431048 	0
3 	1.31883376767274 	6.24500451351651e-17 	0.108132807405232 	0.0734938039954015 	3.55641929082948 	0.0224051015068867 	0
3 	1.37262209225426 	4.85722573273506e-17 	0.109717570939462 	0.0669354768811076 	3.14538222621596 	0.0158133114082599 	0
3 	1.41220272459525 	4.16333634234434e-17 	0.110909139159792 	0.0624075720252958 	2.84967243140219 	0.0117556847342859 	0
3 	1.43617694926587 	4.16333634234434e-17 	0.111619733957425 	0.0597247175802871 	2.6779187311293 	0.00978225682695889 	0
3 	1.45930396367274 	4.16333634234434e-17 	0.112190599454009 	0.0574979105842688 	2.54417669396085 	0.00827940859116002 	0
3 	1.48161370685419 	4.16333634234434e-17 	0.112730964639516 	0.0554867552355536 	2.43338465088356 	0.0070511425642502 	0
3 	1.50313505985141 	4.16333634234434e-17 	0.11322434187111 	0.0536518420307143 	2.3423140913857 	0.00605024198766557 	0
3 	1.52389588309639 	4.16333634234434e-17 	0.113669428383373 	0.0519608165848913 	2.26802744239882 	0.00522572961250233 	0
3 	1.54392305247858 	4.16333634234434e-17 	0.114070909234496 	0.050387825573781 	2.2080489956467 	0.00453894749766834 	0
3 	1.56324249413704 	4.16333634234434e-17 	0.114432767281821 	0.0489123982732563 	2.1603499392734 	0.00396029690106128 	0
3 	1.58187921802306 	4.16333634234434e-17 	0.114758144355633 	0.0475184018554915 	2.12330072708417 	0.00346709139789159 	0
3 	1.5998573502768 	4.16333634234434e-17 	0.115049844677251 	0.0461931437079428 	2.09561460372222 	0.00304200763907057 	0
3 	1.61720016445966 	3.46944695195361e-17 	0.115310450142111 	0.044926631311303 	2.07629330350854 	0.00267182198646327 	0
3 	1.63393011168312 	3.12250225675825e-17 	0.115542334376306 	0.0437109772934266 	2.0645795324015 	0.0023464148011772 	0
3 	1.65006884967274 	3.12250225675825e-17 	0.115747685450004 	0.0425399290997228 	2.0599176036381 	0.00205801681613425 	0
3 	1.66563727080512 	2.77555756156289e-17 	0.115928531741316 	0.0414085013864507 	2.06192208322451 	0.00180064743078428 	0
3 	1.68065552915415 	2.77555756156289e-17 	0.116086763079786 	0.0403126910892174 	2.0703536986475 	0.00156969832447264 	0
3 	1.69514306658136 	2.77555756156289e-17 	0.116224147284557 	0.0392492580984466 	2.08510161698667 	0.00136162636152618 	0
3 	1.70911863790442 	2.77555756156289e-17 	0.116342343390541 	0.0382155575763044 	2.10617126434349 	0.00117372881003644 	0
3 	1.72260033517611 	2.77555756156289e-17 	0.116442912333632 	0.0372094127600954 	2.13367701492969 	0.00100398092528171 	0
3 	1.73560561110537 	2.77555756156289e-17 	0.116527325604141 	0.0362290194878274 	2.16783926742632 	0.000850921436298629 	0
3 	1.74815130165068 	2.77555756156289e-17 	0.116596972287226 	0.0352728756509676 	2.20898562402681 	0.00071357572950863 	0
3 	1.76025364781503 	3.46944695195361e-17 	0.116653164837352 	0.034339730375676 	2.25755608692982 	0.00059140982480184 	0
3 	1.77192831667065 	4.16333634234434e-17 	0.116697143865449 	0.0334285490198675 	2.31411238995415 	0.000484310858282748 	0
3 	1.78319042164084 	4.16333634234434e-17 	0.116730082159687 	0.0325384911110909 	2.37935179626169 	0.000392591958839953 	0
3 	1.79405454206499 	4.16333634234434e-17 	0.116753088113921 	0.0316688991939564 	2.45412592663193 	0.00031702133051602 	0
3 	1.80453474207227 	3.46944695195361e-17 	0.116767208699103 	0.0308192972509375 	2.53946544808289 	0.000258877197342954 	0
3 	1.81464458878829 	2.77555756156289e-17 	0.11677343208039 	0.0299893979422821 	2.63661176313831 	0.000220032180125993 	0
3 	1.82439716989841 	3.46944695195361e-17 	0.116772689954234 	0.0291791184045149 	2.74705720985888 	0.000203072789600801 	0
3 	1.83380511059041 	3.81639164714898e-17 	0.116765859654187 	0.028388604765504 	2.87259572559325 	0.000211462154894077 	0
3 	1.84288058989839 	3.46944695195361e-17 	0.116753766049883 	0.0276182658742729 	3.01538645363195 	0.000249756945532125 	0
3 	1.8516353564691 	3.46944695195361e-17 	0.116737183239494 	0.0268688169796633 	3.17803338281779 	0.000323892703594559 	0
3 	1.86008074377114 	3.46944695195361e-17 	0.116716836010467 	0.0261413341628671 	3.36368478703967 	0.000441555344678338 	0
3 	1.8682276847667 	3.12250225675825e-17 	0.116693401015616 	0.0254373201210382 	3.57615691693183 	0.00061265998407366 	0
3 	1.87608672606481 	2.77555756156289e-17 	0.116667507580791 	0.0247587812201563 	3.8200869622001 	0.000849960536016089 	0
3 	1.88366804157438 	2.77555756156289e-17 	0.116639738026833 	0.0241083142812747 	4.10112050285053 	0.00116981285205191 	0
3 	1.89098144567491 	2.77555756156289e-17 	0.116610627354755 	0.0234891988888618 	4.42613806673385 	0.0015931072366093 	0
3 	1.89803640592159 	2.42861286636753e-17 	0.116580662115039 	0.022905486516128 	4.8035233073875 	0.00214636780522842 	0
3 	1.90484205530156 	2.08166817117217e-17 	0.116550278271814 	0.0223620707679546 	5.24347068531571 	0.00286297904034195 	0
3 	1.91140720405699 	1.73472347597681e-17 	0.116519857906825 	0.0218647130127964 	5.75832209248903 	0.00378443569194008 	0
3 	1.91774035109036 	1.38777878078145e-17 	0.116489724743102 	0.0214199847607658 	6.36290843215408 	0.00496141512734755 	0
3 	1.92384969496671 	1.38777878078145e-17 	0.116460138756474 	0.021035074149851 	7.07485368631837 	0.00645434623823884 	0
3 	1.92974314452706 	1.38777878078145e-17 	0.11643129042118 	0.0207173936184366 	7.91477842810177 	0.00833302394307431 	0
3 	1.93542832912681 	1.38777878078145e-17 	0.116403295016573 	0.0204739281296379 	8.90632581003663 	0.0106747556093072 	0
3 	1.9409126085123 	1.38777878078145e-17 	0.116376188506244 	0.0203102903575747 	10.0759426362716 	0.0135606189627975 	0
3 	1.94620308234836 	1.38777878078145e-17 	0.116349935635 	0.020229511755666 	11.4524048026342 	0.017069746177522 	0
3 	1.95130659940914 	1.73472347597681e-17 	0.116324469617482 	0.0202306958311042 	13.0662005672985 	0.0212721487823739 	0
3 	1.95622976644425 	2.08166817117217e-17 	0.116299692412144 	0.0203077691527586 	14.9490680373013 	0.0262278932473013 	0
3 	1.96097895673142 	2.42861286636753e-17 	0.116275143132043 	0.020448551840646 	17.1344489004436 	0.032048939377893 	0
3 	1.96556031832711 	2.77555756156289e-17 	0.116249370245024 	0.0206334403352121 	19.6624170643134 	0.0390648709540071 	0
3 	1.96997978202541 	2.42861286636753e-17 	0.116221656347242 	0.020831141291527 	22.596227641852 	0.0468921796738178 	0
3 	1.97424306903576 	1.73472347597681e-17 	0.116193964263597 	0.02100332245674 	25.9931068551417 	0.0557844225062422 	0
3 	1.9783556983893 	1.38777878078145e-17 	0.116168123939606 	0.021096474923536 	29.8673164050068 	0.0652510503464625 	0
3 	1.98232299408358 	1.38777878078145e-17 	0.116143940619481 	0.0210527550156903 	34.2368366441608 	0.074929767901515 	0
3 	1.9861500919747 	6.93889390390723e-18 	0.116120713165299 	0.0208161412985068 	39.1686714117149 	0.0846319600013698 	0
3 	1.9898419464259 	0 	0.116098118107329 	0.0203311610695366 	44.8076446480121 	0.0941956993292436 	0
3 	1.99340333672127 	0 	0.116076205935744 	0.0195379875085662 	51.4034660548063 	0.103337192370765 	0
3 	1.99683887325274 	0 	0.116055270644329 	0.0183671006124942 	59.3552390538918 	0.111383088673554 	0
3 	2.00015300348845 	0 	0.116035784871648 	0.0167396510669648 	69.30250626598 	0.117147130156559 	0
3 	2.00335001773022 	0 	0.116018211397447 	0.0145764693192923 	82.3453762186351 	0.118614091288856 	0
3 	2.00643405466757 	0 	0.116002902929398 	0.0118208082299026 	100.62116704865 	0.112059736909569 	0
3 	2.00940910673543 	3.46944695195361e-18 	0.115990580474067 	0.00850615640752694 	128.912101943827 	0.0891424844071572 	0
3 	2.01227902528252 	6.93889390390723e-18 	0.115981772514401 	0.00505098179733405 	179.926315218895 	0.0523837687062299 	0
3 	2.01504752555717 	1.04083408558608e-17 	0.115975935037844 	0.0022720432444827 	295.146583002912 	0.0192787457692796 	0
3 	2.01771819151684 	1.38777878078145e-17 	0.115971838173265 	0.000708404213614789 	648.134267986389 	0.00389771728181389 	0
3 	2.02029448046774 	1.38777878078145e-17 	0.115968353297364 	0.00013227068451439 	2474.2213287484 	0.000381842612320791 	0
3 	2.02277972754048 	1.73472347597681e-17 	0.115965619838296 	1.1396811168739e-05 	8614.20410583615 	1.39875115478305e-05 	2.97445479410111e-38
