4 	0.0039111296779627 	-3.46944695195361e-18 	-0.0358516737954229 	-5.84413127671676e-05 	-7.34783242043272e-22
4 	0.0118766651674915 	-3.46944695195361e-18 	-0.0978877794355868 	-0.000198426555817303 	1.7552718931345e-21
4 	0.0201340015485761 	-6.93889390390723e-18 	-0.140742345811561 	-0.000501864131864568 	7.39161928335091e-17
4 	0.028693828342395 	-1.73472347597681e-17 	-0.162739133095124 	-0.000971382549046946 	1.04556461677676e-16
4 	0.0375672266585908 	-1.04083408558608e-17 	-0.170238540465844 	-0.00151948490199847 	-1.45529888802832e-17
4 	0.0467656835403032 	-3.46944695195361e-18 	-0.171181534293205 	-0.00211149739439582 	-4.5234872630454e-17
4 	0.0563011068347008 	-1.38777878078145e-17 	-0.169634762421175 	-0.00274413914395313 	1.46744671176064e-22
4 	0.0661858406082648 	-1.38777878078145e-17 	-0.167017331514536 	-0.00341409450009871 	-4.74793427642053e-22
4 	0.0764326811267814 	-1.04083408558608e-17 	-0.163830519398457 	-0.00411719829197051 	-7.90682392663552e-22
4 	0.0870548934207257 	-1.73472347597681e-17 	-0.160274686405615 	-0.00485112700788589 	-6.02467853342997e-22
4 	0.0980662284574838 	-1.73472347597681e-17 	-0.156437396524793 	-0.00561500286164625 	-2.36494541711706e-22
4 	0.109480940942647 	-1.04083408558608e-17 	-0.152357388452832 	-0.00640862139191781 	3.36645840889511e-25
4 	0.121313807773416 	-1.38777878078145e-17 	-0.148049484747201 	-0.00723208983115402 	9.38364625615258e-23
4 	0.13358014716801 	-2.08166817117217e-17 	-0.143515443287938 	-0.00808569505476048 	2.3225209385948e-23
4 	0.146295838495839 	-2.42861286636753e-17 	-0.138749102106494 	-0.00896984237215025 	4.18322330767555e-22
4 	0.159477342834115 	-2.77555756156289e-17 	-0.13373896513547 	-0.00988501730253556 	4.99782887383975e-22
4 	0.173141724277517 	-2.77555756156289e-17 	-0.128469541433255 	-0.0108317595311207 	5.25753273863529e-22
4 	0.187147607962126 	-2.42861286636753e-17 	-0.122984816713145 	-0.0117996669725625 	4.82599679077854e-22
4 	0.194357474336776 	-2.08166817117217e-17 	-0.120139023877252 	-0.0122972340749954 	4.67772080000411e-22
4 	0.201990523296728 	-2.77555756156289e-17 	-0.117075739617488 	-0.0128221574497904 	3.43004826063654e-22
4 	0.217212287037675 	-3.81639164714898e-17 	-0.110906227453158 	-0.0138669037213555 	1.09676956483507e-22
4 	0.232991668560441 	-3.46944695195361e-17 	-0.104385123482386 	-0.0149455823811617 	-2.32837417766848e-22
4 	0.249349095037321 	-4.16333634234434e-17 	-0.0974819183597743 	-0.0160587831314533 	-3.90143525232849e-22
4 	0.266305741947753 	-5.20417042793042e-17 	-0.0901628894542036 	-0.0172070703702161 	-1.27763053921465e-23
4 	0.283883560490999 	-4.85722573273506e-17 	-0.0823908557869385 	-0.018390969678998 	-2.71202476993896e-22
4 	0.30210530600303 	-5.20417042793042e-17 	-0.0741248877035909 	-0.0196109521121782 	-6.83282155160408e-22
4 	0.320994567414413 	-5.20417042793042e-17 	-0.0653199770574643 	-0.0208674154473813 	-1.5854712352765e-22
4 	0.340575797787321 	-5.55111512312578e-17 	-0.0559266721104254 	-0.0221606613889573 	2.06314989732398e-22
4 	0.360874345971201 	-5.89805981832114e-17 	-0.0458906809234933 	-0.0234908674700359 	3.30072485390577e-22
4 	0.38191648941809 	-5.89805981832114e-17 	-0.0351524474913057 	-0.0248580520440351 	7.51820667710523e-22
4 	0.403729468200046 	-6.59194920871187e-17 	-0.0236467062342378 	-0.0262620303236443 	1.61795576568967e-22
4 	0.426341520272733 	-6.59194920871187e-17 	-0.0113020228141517 	-0.0277023591276299 	-1.54813462466169e-22
4 	0.449781918030829 	-6.59194920871187e-17 	0.00195966958275478 	-0.0291782686679294 	-1.50598190384797e-22
4 	0.474081006202548 	-6.59194920871187e-17 	0.0162235273117445 	-0.0306885678665481 	1.55325411021683e-21
4 	0.499270241132363 	-6.59194920871187e-17 	0.0315821991419875 	-0.0322314923888922 	2.22938564755917e-21
4 	0.525382231502763 	-6.24500451351651e-17 	0.0481361200237918 	-0.0338046184062611 	8.65000665446328e-22
4 	0.552450780547767 	-5.20417042793042e-17 	0.0659936900514014 	-0.0354052780176156 	5.59741481642509e-22
4 	0.580510929812849 	-4.85722573273506e-17 	0.085271591629278 	-0.0370303339224405 	-2.23646670480902e-23
4 	0.60959900451791 	-4.5102810375397e-17 	0.106124637930989 	-0.0386710991685433 	-1.8765435541864e-21
4 	0.639752660582033 	-4.5102810375397e-17 	0.128896382617222 	-0.0403117785203655 	-2.67341221454805e-22
4 	0.671010933370886 	-5.20417042793042e-17 	0.154231454657808 	-0.0419413047080438 	-2.85982642020876e-22
4 	0.7034142882299 	-5.72458747072346e-17 	0.182739676039685 	-0.0435367979777666 	-1.13704734795994e-21
4 	0.737004672868606 	-6.59194920871187e-17 	0.214597468428064 	-0.0450647151629687 	-6.21597109944806e-21
4 	0.771825571663976 	-7.28583859910259e-17 	0.249640021232322 	-0.0464961748402147 	-6.85303649789087e-21
4 	0.807922061953053 	-6.93889390390723e-17 	0.28756705148827 	-0.0478026710022105 	3.001656675214e-21
4 	0.845340872387742 	-6.41847686111419e-17 	0.328078940511538 	-0.0489525130429449 	-1.85721599464949e-21
4 	0.884130443427309 	-6.24500451351651e-17 	0.370907642787858 	-0.0499114568342498 	-1.27312313381824e-21
4 	0.924340990046897 	-6.59194920871187e-17 	0.415772578661226 	-0.0506451391394663 	-3.28964417584918e-24
4 	0.966024566743242 	-6.59194920871187e-17 	0.462315650088047 	-0.0511224154552601 	6.67884250962249e-22
4 	1.00923513492173 	-6.24500451351651e-17 	0.510057169744589 	-0.0513189409654949 	7.31354834409854e-21
4 	1.05402863275205 	-6.24500451351651e-17 	0.558391132469447 	-0.0512203070561927 	6.98561163984815e-21
4 	1.10046304758287 	-6.28837260041593e-17 	0.606619660872314 	-0.0508243383561215 	-2.95962065795802e-20
4 	1.14859849100923 	-6.46184494801361e-17 	0.654016902681566 	-0.0501423912980835 	-1.46406144188612e-20
4 	1.19849727668994 	-6.07153216591882e-17 	0.699909192794222 	-0.0491993534920302 	7.26834556382877e-22
4 	1.25022400101563 	-5.55111512312578e-17 	0.743755483970874 	-0.0480316873412032 	1.49278811985278e-20
4 	1.30384562673185 	-5.89805981832114e-17 	0.785161481763093 	-0.0466791309091739 	1.2689338645308e-22
4 	1.35943156962565 	-6.24500451351651e-17 	0.824014035016361 	-0.0451887047286801 	3.18383949342834e-22
4 	1.41705378838762 	-7.28583859910259e-17 	0.860396638603615 	-0.0435985706480778 	3.63565681675144e-23
4 	1.47678687776592 	-9.0205620750794e-17 	0.894476652609124 	-0.0419322234796686 	-1.0133654981091e-20
4 	1.53870816513277 	-1.00613961606655e-16 	0.926459546638755 	-0.0402050118600333 	-4.43887907765086e-22
4 	1.60289781058851 	-1.07552855510562e-16 	0.956511562655411 	-0.0384017432251796 	1.50104833645995e-20
4 	1.66943891073266 	-1.11022302462516e-16 	0.984741486115324 	-0.0365026886003054 	1.41709974303131e-20
4 	1.73841760623657 	-1.11022302462516e-16 	1.01117935722386 	-0.0345179481813962 	2.4120968536365e-21
4 	1.80992319335659 	-1.11022302462516e-16 	1.03584598370937 	-0.0324717630891377 	2.70286472325849e-21
4 	1.88404823953248 	-1.07552855510562e-16 	1.05882957729464 	-0.0303884760447793 	1.53230233943034e-21
4 	1.96088870322037 	-1.14491749414469e-16 	1.07939005130211 	-0.0283667608536431 	4.72537807186889e-21
4 	2.02025965173184 	-1.2490009027033e-16 	1.0944219055834 	-0.0267663359439202 	8.38461725006082e-24
4 	2.06006301192217 	-1.21430643318376e-16 	1.10467543921482 	-0.025615392671085 	0
4 	2.09845978584128 	-1.17961196366423e-16 	1.11329396814409 	-0.0245962858683244 	0
4 	2.13549967996945 	-1.17961196366423e-16 	1.12116270940715 	-0.0236196140159254 	0
4 	2.17123064424048 	-1.11022302462516e-16 	1.12834601067935 	-0.0226840515445423 	0
4 	2.20569893411515 	-1.04083408558608e-16 	1.13489958397348 	-0.0217875147325369 	0
4 	2.23894917046122 	-1.04083408558608e-16 	1.14087198809417 	-0.020928049440117 	0
4 	2.27102439731725 	-1.04083408558608e-16 	1.14630571099413 	-0.0201038919524651 	0
4 	2.30196613761521 	-1.04083408558608e-16 	1.15123799101008 	-0.0193134000898812 	0
4 	2.33181444693391 	-1.07552855510562e-16 	1.15570144921418 	-0.0185550249290892 	0
4 	2.3606079653529 	-1.11022302462516e-16 	1.15972458262961 	-0.0178272968640033 	0
4 	2.3883839674739 	-1.14491749414469e-16 	1.16333215314275 	-0.0171288149133803 	0
4 	2.41517841067461 	-1.14491749414469e-16 	1.16654549598787 	-0.0164582386406142 	0
4 	2.44102598165722 	-1.14491749414469e-16 	1.16938276422427 	-0.0158142821966027 	0
4 	2.46596014135207 	-1.21430643318376e-16 	1.17185912066651 	-0.0151957097752579 	0
4 	2.49001316823443 	-1.2490009027033e-16 	1.17398688543191 	-0.0146013319689038 	0
4 	2.51321620011054 	-1.2490009027033e-16 	1.17577564509568 	-0.0140300026923961 	0
4 	2.535599274427 	-1.21430643318376e-16 	1.17723232804944 	-0.013480616455901 	0
4 	2.55719136715571 	-1.21430643318376e-16 	1.17836124982212 	-0.0129521058382144 	0
4 	2.57802043030465 	-1.2490009027033e-16 	1.17916413170998 	-0.0124434390605424 	0
4 	2.59811342810315 	-1.2490009027033e-16 	1.17964009599404 	-0.0119536175920902 	0
4 	2.61749637190832 	-1.2490009027033e-16 	1.17978564125295 	-0.0114816737392927 	0
4 	2.63619435387806 	-1.28369537222284e-16 	1.17959460177369 	-0.0110266681846495 	0
4 	2.65423157945406 	-1.31838984174237e-16 	1.17905809578678 	-0.0105876874525063 	0
4 	2.67163139869691 	-1.28369537222284e-16 	1.17816446814872 	-0.0101638412907498 	0
4 	2.68841633651388 	-1.2490009027033e-16 	1.17689923406631 	-0.00975425997191488 	0
4 	2.7046081218185 	-1.2490009027033e-16 	1.17524503135024 	-0.0093580915371585 	0
4 	2.72022771565972 	-1.21430643318376e-16 	1.17318158927267 	-0.00897449903425201 	0
4 	2.73529533835694 	-1.17961196366423e-16 	1.1706857220894 	-0.00860265783813671 	0
4 	2.74983049567625 	-1.17961196366423e-16 	1.1677313543227 	-0.00824175319077919 	0
4 	2.76385200408156 	-1.21430643318376e-16 	1.16428958264549 	-0.00789097815564418 	0
4 	2.77737801509343 	-1.21430643318376e-16 	1.16032877541596 	-0.00754953224825979 	0
4 	2.79042603878708 	-1.2490009027033e-16 	1.15581470556284 	-0.00721662107197978 	0
4 	2.80301296646003 	-1.28369537222284e-16 	1.1507107059369 	-0.0068914573471611 	0
4 	2.81515509249872 	-1.2490009027033e-16 	1.14497782915644 	-0.00657326375909119 	0
4 	2.82686813547237 	-1.28369537222284e-16 	1.13857498747606 	-0.00626127805006991 	0
4 	2.83816725848142 	-1.31838984174237e-16 	1.13145904351691 	-0.0059547607273347 	0
4 	2.84906708878691 	-1.38777878078145e-16 	1.12358482077362 	-0.00565300562399123 	0
4 	2.85958173674616 	-1.45716771982052e-16 	1.1149050038959 	-0.00535535332809051 	0
4 	2.86972481407933 	-1.45716771982052e-16 	1.10536990202777 	-0.00506120742116675 	0
4 	2.87950945149043 	-1.45716771982052e-16 	1.09492705216059 	-0.00477005396227673 	0
4 	2.88894831566566 	-1.45716771982052e-16 	1.08352064122666 	-0.00448148324022667 	0
4 	2.89805362567106 	-1.42247325030098e-16 	1.07109072366248 	-0.00419520191243773 	0
4 	2.90683716877067 	-1.38777878078145e-16 	1.05757220486809 	-0.00391102717920289 	0
4 	2.91531031568569 	-1.38777878078145e-16 	1.04289319467629 	-0.00362905645627294 	0
4 	2.92348403531448 	-1.35308431126191e-16 	1.0269482385773 	-0.00334964846195041 	0
4 	2.93136890893229 	-1.35308431126191e-16 	1.00953217372722 	-0.00307175549724275 	0
4 	2.93897514388925 	-1.38777878078145e-16 	0.990395316096214 	-0.00279431964920599 	0
4 	2.94631258682425 	-1.38777878078145e-16 	0.969364581989271 	-0.00251770149064564 	0
4 	2.95339073641193 	-1.42247325030098e-16 	0.946321680189696 	-0.00224375133862457 	0
4 	2.96021875565915 	-1.42247325030098e-16 	0.921145923979712 	-0.00197512232223302 	0
4 	2.96680548376697 	-1.38777878078145e-16 	0.893677045248466 	-0.00171477994460718 	0
4 	2.97315944757337 	-1.38777878078145e-16 	0.863686583808467 	-0.00146571016842755 	0
4 	2.97928887259171 	-1.42247325030098e-16 	0.830848410309584 	-0.00123077212586805 	0
4 	2.98520169365902 	-1.45716771982052e-16 	0.794701258881508 	-0.00101260480251029 	0
4 	2.99090556520806 	-1.45716771982052e-16 	0.754597162381807 	-0.000813541980366233 	0
4 	2.99640787117633 	-1.45716771982052e-16 	0.709630093942024 	-0.000635539475888875 	0
4 	3.00171573456492 	-1.45716771982052e-16 	0.658546353668664 	-0.000480137128481487 	0
4 	3.00683602665962 	-1.45716771982052e-16 	0.599626445778213 	-0.000348187571487561 	0
4 	3.01177537592612 	-1.45716771982052e-16 	0.530500648108082 	-0.000239190849472119 	0
4 	3.01654017659085 	-1.49186218934005e-16 	0.448579649055157 	-0.000151822492146717 	0
4 	3.02113659691864 	-1.56125112837913e-16 	0.353783075759255 	-8.51513062367687e-05 	0
4 	3.02557058719784 	-1.56125112837913e-16 	0.251283490348101 	-3.94341393010944e-05 	0
4 	3.02984788744324 	-1.52655665885959e-16 	0.148318710085979 	-1.31136767273713e-05 	0
