5 	0.00273779077457387 	-1.38777878078145e-17 	-0.0370347303003393 	-1.05787222259456e-05 	1.71331044534524e-17
5 	0.00831366561724397 	-2.08166817117217e-17 	-0.0988538735641816 	-0.000174193861345482 	7.7277201526151e-17
5 	0.0140938010840033 	-3.12250225675825e-17 	-0.144395394573247 	-0.000518235139416924 	6.0070830173007e-17
5 	0.0200856798396765 	-3.12250225675825e-17 	-0.168539908446237 	-0.0010375268198189 	-4.12028150720096e-23
5 	0.0262970586610135 	-3.12250225675825e-17 	-0.176774609902661 	-0.00163224672473161 	-5.00018790817504e-23
5 	0.0327359784782121 	-3.46944695195361e-17 	-0.178061044649641 	-0.00226879353102791 	-4.23397837638098e-22
5 	0.0394107747842905 	-3.46944695195361e-17 	-0.17665653373175 	-0.00295075465696463 	2.68033170622277e-22
5 	0.0463300884257855 	-3.81639164714898e-17 	-0.174072790410875 	-0.00367532928243164 	-1.04613808075463e-24
5 	0.0535028767887471 	-4.16333634234434e-17 	-0.170868645158418 	-0.00443775427023194 	-1.74477735509811e-22
5 	0.060938425394508 	-3.81639164714898e-17 	-0.167276538098946 	-0.00523547232661957 	-5.68954406818563e-24
5 	0.0686463599202388 	-3.46944695195361e-17 	-0.163402613457668 	-0.00606761589229994 	0
5 	0.0766366586598532 	-3.81639164714898e-17 	-0.159297481780979 	-0.00693407175544535 	3.26282469686898e-24
5 	0.0849196654413918 	-4.16333634234434e-17 	-0.154984516878715 	-0.00783507444780238 	6.51168508530122e-24
5 	0.0935061030176073 	-4.5102810375397e-17 	-0.150472420121381 	-0.00877106722535675 	3.2485615594898e-24
5 	0.102407086947087 	-4.85722573273506e-17 	-0.145761279524035 	-0.00974263715251626 	4.93567209256964e-24
5 	0.11163413998388 	-4.5102810375397e-17 	-0.140845679902853 	-0.0107504731947548 	9.84763537353114e-24
5 	0.121199206994262 	-3.46944695195361e-17 	-0.135716369769181 	-0.0117953375929181 	4.91145337512472e-24
5 	0.131114670419936 	-3.12250225675825e-17 	-0.130361174287071 	-0.0128780458102251 	0
5 	0.141393366307709 	-3.46944695195361e-17 	-0.12476549105598 	-0.0139994514644366 	0
5 	0.152048600926373 	-4.16333634234434e-17 	-0.118912542358981 	-0.0151604340074763 	0
5 	0.163094167992309 	-4.85722573273506e-17 	-0.112783477492005 	-0.016361887838324 	0
5 	0.174544366526125 	-4.16333634234434e-17 	-0.106357377511198 	-0.017604712002627 	-3.23972087214393e-24
5 	0.186414019363427 	-3.46944695195361e-17 	-0.0996111925012007 	-0.0188897998669151 	-9.79005120884347e-23
5 	0.198718492343699 	-4.16333634234434e-17 	-0.0925196290369495 	-0.0202180282826003 	-3.21882117090029e-24
5 	0.211473714202121 	-4.16333634234434e-17 	-0.0850549983436376 	-0.0215902458218761 	0
5 	0.224696197190089 	-3.46944695195361e-17 	-0.0771870314280761 	-0.0230072596946565 	0
5 	0.238403058451125 	-3.81639164714898e-17 	-0.0688826649280774 	-0.0244698209545553 	0
5 	0.252612042179841 	-3.81639164714898e-17 	-0.0601057999343082 	-0.0259786075795854 	0
5 	0.267341542592663 	-3.46944695195361e-17 	-0.0508170352109617 	-0.0275342049735727 	0
5 	0.282610627740032 	-3.46944695195361e-17 	-0.0409733758732275 	-0.0291370833780921 	-5.69493371085447e-24
5 	0.298439064190913 	-2.77555756156289e-17 	-0.0305279185619011 	-0.0307875716056985 	-1.83392274984071e-22
5 	0.31484734262158 	-2.42861286636753e-17 	-0.0194295144426556 	-0.0324858264049187 	-2.37554497918419e-23
5 	0.331856704341784 	-2.42861286636753e-17 	-0.0076224124963206 	-0.0342317965533003 	-1.80554386167489e-23
5 	0.349489168792654 	-2.77555756156289e-17 	0.00495411226210572 	-0.0360251809531352 	-5.99864989765729e-24
5 	0.367767562051934 	-2.77555756156289e-17 	0.0183661137860639 	-0.0378653753430101 	7.27841546665344e-25
5 	0.386715546383437 	-2.08166817117217e-17 	0.0326853606153277 	-0.0397514118469302 	-3.43764596460556e-22
5 	0.406357650868994 	-2.42861286636753e-17 	0.0479897465015739 	-0.0416818933524933 	7.19869591001394e-25
5 	0.426719303162537 	-2.42861286636753e-17 	0.0643636674608387 	-0.0436549155429003 	2.45471657827416e-23
5 	0.447826862407422 	-2.77555756156289e-17 	0.0818983676820607 	-0.0456679748885236 	4.11571399038867e-22
5 	0.46970765335962 	-3.46944695195361e-17 	0.100692236347634 	-0.0477178632276883 	4.95090197164889e-23
5 	0.49239000176093 	-3.12250225675825e-17 	0.120851028527859 	-0.0498005297599036 	4.28884014657543e-22
5 	0.515903271008024 	-2.77555756156289e-17 	0.142487973870619 	-0.0519108667941336 	2.4924401487851e-23
5 	0.540277900164783 	-2.08166817117217e-17 	0.165723727718993 	-0.0540425551164418 	0
5 	0.565545443367137 	-1.38777878078145e-17 	0.190686126461389 	-0.0561887788905874 	0
5 	0.591738610671419 	-6.93889390390723e-18 	0.217509873475159 	-0.0583435854937116 	2.86298658864571e-23
5 	0.618891310399116 	-3.46944695195361e-18 	0.246350077301364 	-0.0604919126844297 	8.48754825583174e-23
5 	0.647038693032828 	-3.46944695195361e-18 	0.277622920403422 	-0.0626003447542931 	1.05607037681812e-21
5 	0.676217196720269 	-3.46944695195361e-18 	0.312049974271746 	-0.0646463571265539 	1.08356285946104e-21
5 	0.706464594445211 	-6.93889390390723e-18 	0.350143265171711 	-0.0665800293789277 	-5.39113799102188e-24
5 	0.737820042926438 	-1.04083408558608e-17 	0.391941565071204 	-0.0683646777835313 	3.6901638138676e-23
5 	0.770324133308009 	-1.73472347597681e-17 	0.437228476361396 	-0.0699811275029028 	1.30908258528459e-21
5 	0.804018943706461 	-1.38777878078145e-17 	0.485739600434117 	-0.0714112828126733 	1.37621154331319e-22
5 	0.838948093682961 	-1.04083408558608e-17 	0.537264686080009 	-0.0726304996834562 	1.25008175707442e-21
5 	0.87515680071094 	-6.93889390390723e-18 	0.591641450923959 	-0.0736065562496526 	7.06651940759204e-23
5 	0.912691938712296 	-3.46944695195361e-18 	0.648684806699253 	-0.0743011669734673 	2.79352363919089e-21
5 	0.951602098737956 	-6.93889390390723e-18 	0.708102995148505 	-0.0746720007884036 	2.8513803309332e-21
5 	0.991937651871333 	-6.93889390390723e-18 	0.769440236350679 	-0.0746737056377693 	2.21772700786571e-22
5 	1.03375081443614 	-1.04083408558608e-17 	0.832070630174564 	-0.0742552943489076 	3.01649722760675e-21
5 	1.07709571559294 	-1.73472347597681e-17 	0.89511276768819 	-0.0733593076927182 	1.45965914329331e-22
5 	1.12202846741196 	-1.38777878078145e-17 	0.957252935803724 	-0.0719310691818162 	1.40511076419972e-22
5 	1.16860723751287 	-1.04083408558608e-17 	1.01682087726124 	-0.0699359986424892 	2.81453414416022e-21
5 	1.2168923243656 	-1.04083408558608e-17 	1.07221086220888 	-0.0673756294052452 	-2.72413477991662e-21
5 	1.26694623534962 	-1.04083408558608e-17 	1.12249944244495 	-0.0643067478293071 	-1.28840282128224e-22
5 	1.31883376767273 	-1.38777878078145e-17 	1.16811684645605 	-0.0607887038725417 	0
5 	1.37262209225426 	-1.73472347597681e-17 	1.20944323657158 	-0.0569008608469779 	0
5 	1.41220272459524 	-2.08166817117217e-17 	1.23656831852026 	-0.0538786081436922 	0
5 	1.43617694926586 	-2.08166817117217e-17 	1.25230835689252 	-0.0519729952545032 	0
5 	1.45930396367274 	-2.08166817117217e-17 	1.2662253108209 	-0.0501550444043788 	0
5 	1.48161370685419 	-2.42861286636753e-17 	1.27882231373083 	-0.048385400332189 	0
5 	1.50313505985141 	-2.42861286636753e-17 	1.29021853967687 	-0.0466663216617866 	0
5 	1.52389588309638 	-1.73472347597681e-17 	1.30052248711857 	-0.044999301240255 	0
5 	1.54392305247857 	-1.73472347597681e-17 	1.30983200883036 	-0.043384848018535 	0
5 	1.56324249413703 	-1.73472347597681e-17 	1.31823461110425 	-0.0418227055968496 	0
5 	1.58187921802306 	-1.38777878078145e-17 	1.32580796157358 	-0.0403120641754778 	0
5 	1.59985735027679 	-1.73472347597681e-17 	1.33262051376025 	-0.0388517099911533 	0
5 	1.61720016445966 	-1.73472347597681e-17 	1.33873217828576 	-0.0374401394429801 	0
5 	1.63393011168312 	-1.73472347597681e-17 	1.34419499220306 	-0.0360756491370805 	0
5 	1.65006884967273 	-2.42861286636753e-17 	1.34905375321796 	-0.0347564053407797 	0
5 	1.66563727080512 	-2.42861286636753e-17 	1.3533465969839 	-0.033480496233783 	0
5 	1.68065552915414 	-2.08166817117217e-17 	1.35710550408531 	-0.0322459704264658 	0
5 	1.69514306658136 	-1.73472347597681e-17 	1.360356729212 	-0.0310508647292277 	0
5 	1.70911863790442 	-1.73472347597681e-17 	1.36312114889319 	-0.0298932236036233 	0
5 	1.7226003351761 	-2.42861286636753e-17 	1.3654145265367 	-0.0287711122589573 	0
5 	1.73560561110537 	-2.77555756156289e-17 	1.36724769487744 	-0.0276826249752088 	0
5 	1.74815130165068 	-3.12250225675825e-17 	1.36862665668267 	-0.0266258899260006 	0
5 	1.76025364781503 	-3.12250225675825e-17 	1.36955260504708 	-0.0255990715401846 	0
5 	1.77192831667064 	-2.77555756156289e-17 	1.3700218651779 	-0.0246003712726797 	0
5 	1.78319042164083 	-3.12250225675825e-17 	1.37002576057256 	-0.023628027548801 	0
5 	1.79405454206499 	-3.81639164714898e-17 	1.3695504083231 	-0.0226803155960748 	0
5 	1.80453474207227 	-4.16333634234434e-17 	1.36857645140081 	-0.0217555478783367 	0
5 	1.81464458878828 	-3.81639164714898e-17 	1.36707874070608 	-0.0208520758926797 	0
5 	1.8243971698984 	-3.81639164714898e-17 	1.3650259869717 	-0.0199682941711676 	0
5 	1.83380511059041 	-4.16333634234434e-17 	1.3623804127783 	-0.0191026474298698 	0
5 	1.84288058989839 	-3.81639164714898e-17 	1.35909744821447 	-0.0182536418995265 	0
5 	1.85163535646909 	-3.81639164714898e-17 	1.35512552972352 	-0.0174198619092136 	0
5 	1.86008074377113 	-3.81639164714898e-17 	1.35040607895675 	-0.0165999927085363 	0
5 	1.8682276847667 	-3.12250225675825e-17 	1.34487375382909 	-0.0157928502142763 	0
5 	1.8760867260648 	-2.77555756156289e-17 	1.33845707206363 	-0.014997417751447 	0
5 	1.88366804157438 	-3.12250225675825e-17 	1.33107950071605 	-0.0142128888420433 	0
5 	1.8909814456749 	-4.16333634234434e-17 	1.3226610747678 	-0.0134387136657949 	0
5 	1.89803640592158 	-4.85722573273506e-17 	1.31312054679114 	-0.0126746451026536 	0
5 	1.90484205530155 	-4.85722573273506e-17 	1.30237797688418 	-0.0119207785646892 	0
5 	1.91140720405698 	-4.85722573273506e-17 	1.29035755728783 	-0.0111775786125028 	0
5 	1.91774035109035 	-4.85722573273506e-17 	1.27699035206499 	-0.0104458855165587 	0
5 	1.9238496949667 	-4.5102810375397e-17 	1.26221655108272 	-0.00972689801488835 	0
5 	1.92974314452705 	-3.81639164714898e-17 	1.24598682017149 	-0.00902213286782762 	0
5 	1.9354283291268 	-3.46944695195361e-17 	1.22826239100325 	-0.00833334969460593 	0
5 	1.9409126085123 	-3.12250225675825e-17 	1.20901366396985 	-0.00766239186909225 	0
5 	1.94620308234835 	-3.12250225675825e-17 	1.18821724437562 	-0.00701101415545042 	0
5 	1.95130659940914 	-3.46944695195361e-17 	1.16584866204991 	-0.00638169544488596 	0
5 	1.95622976644424 	-3.81639164714898e-17 	1.14181366857403 	-0.00577656653298318 	0
5 	1.96097895673142 	-3.81639164714898e-17 	1.11591424867299 	-0.00519637097386036 	0
5 	1.96556031832711 	-3.12250225675825e-17 	1.08801607127447 	-0.00464322272752126 	0
5 	1.96997978202541 	-2.77555756156289e-17 	1.05812004455857 	-0.00412042951481524 	0
5 	1.97424306903575 	-3.46944695195361e-17 	1.0262320488263 	-0.00362955523893393 	0
5 	1.9783556983893 	-4.16333634234434e-17 	0.992288056378577 	-0.00317130653541933 	0
4.99999999999999 	1.98232299408358 	-4.5102810375397e-17 	0.956118222393875 	-0.00274588943169232 	0
5 	1.98615009197469 	-4.16333634234434e-17 	0.917426561831457 	-0.00235309753693713 	0
5 	1.98984194642589 	-3.81639164714898e-17 	0.875771653991766 	-0.00199239934095242 	0
5 	1.99340333672126 	-3.81639164714898e-17 	0.830540936290873 	-0.00166305306470399 	0
4.99999999999999 	1.99683887325273 	-3.46944695195361e-17 	0.780911302564018 	-0.0013642678370031 	0
4.99999999999999 	2.00015300348844 	-3.46944695195361e-17 	0.72577930189336 	-0.00109546578723881 	0
4.99999999999999 	2.00335001773022 	-3.12250225675825e-17 	0.663533565753769 	-0.00085473843979358 	0
4.99999999999999 	2.00643405466757 	-2.77555756156289e-17 	0.592078073390387 	-0.000640699647909775 	0
4.99999999999999 	2.00940910673542 	-2.77555756156289e-17 	0.509721488779584 	-0.000452718884027465 	0
4.99999999999999 	2.01227902528252 	-3.12250225675825e-17 	0.417047810087658 	-0.000293835450802178 	0
4.99999999999999 	2.01504752555717 	-3.46944695195361e-17 	0.31869562706901 	-0.000169005606581778 	0
4.99999999999999 	2.01771819151684 	-3.46944695195361e-17 	0.221178534416901 	-8.06501347254723e-05 	0
4.99999999999999 	2.02029448046774 	-3.12250225675825e-17 	0.128472023759903 	-2.67413776766861e-05 	0
4.99999999999999 	2.02277972754047 	-2.94902990916057e-17 	0.0415144472701818 	-2.19419177044684e-06 	0
