/*--------------------------------*- C++ -*----------------------------------*\
  =========                 |
  \\      /  F ield         | OpenFOAM: The Open Source CFD Toolbox
   \\    /   O peration     | Website:  https://openfoam.org
    \\  /    A nd           | Version:  7
     \\/     M anipulation  |
\*---------------------------------------------------------------------------*/
FoamFile
{
    version     2.0;
    format      ascii;
    class       volScalarField;
    location    "0";
    object      Cx;
}
// * * * * * * * * * * * * * * * * * * * * * * * * * * * * * * * * * * * * * //

dimensions      [0 1 0 0 0 0 0];

internalField   nonuniform List<scalar> 
15600
(
0.0525328740872448
0.157588686473411
0.261244685041756
0.359624143724796
0.450258445773575
0.534802248621494
0.61594759597138
0.695897426313365
0.776275409297255
0.857667487081774
0.939905601913822
1.02273278636268
1.10594971683295
1.18977946506373
1.27495409613558
1.36237730375404
1.45296503612119
1.54729608015221
1.64533927816333
1.74659926691994
1.85019692053902
1.95495838019561
2.06001992241153
2.16508605781389
2.27015219321625
2.37521832861861
2.48028446402097
2.58535059942333
2.69041673482569
2.79548287022805
2.90054900563041
3.00561514103276
3.11068127643512
3.21574741183748
3.32081354723984
3.4258796826422
3.53094581804456
3.63601195344692
3.74107808884927
3.84614422425164
3.951210359654
4.05627649505636
4.16134263045871
4.26640876586107
4.37147490126343
4.47654103666579
4.58160717206815
4.68667330747051
4.79173944287287
4.89680557827523
5.00187171367759
5.10693784907995
5.21200398448231
5.31707011988467
5.42213625528702
5.52720239068938
5.63226852609174
5.7373346614941
5.84240079689646
5.94746693229881
6.05253306770117
6.15759920310353
6.26266533850589
6.36773147390825
6.47279760931061
6.57786374471297
6.68292988011533
6.78799601551769
6.89306215092004
6.9981282863224
7.10319442172477
7.20826055712712
7.31332669252948
7.41839282793184
7.5234589633342
7.62852509873656
7.73359123413892
7.83865736954127
7.94372350494363
8.04878964034599
8.15385577574835
8.25892191115071
8.36398804655307
8.46905418195543
8.57412031735779
8.67918645276015
8.78425258816251
8.88931872356487
8.99438485896722
9.09945099436958
9.20451712977195
9.3095832651743
9.41464940057666
9.51971553597902
9.62478167138138
9.72984780678373
9.83491394218609
9.93998007758845
10.0450416198044
10.149803079461
10.25340073308
10.3546607218367
10.4527039198478
10.5470349638787
10.6376226962459
10.7250459038644
10.8102205349363
10.8940502831671
10.9772672136372
11.0600943980862
11.1423325129183
11.2237245907027
11.3041025736865
11.3840524040287
11.4651977513783
11.5497415542266
11.6403758562753
11.7387553149583
11.8424113135266
11.9474671259128
0.0525227657117113
0.157558984039191
0.261201791953475
0.359589112417603
0.450261287159614
0.534866724022748
0.616087067633772
0.696116581573931
0.776572528327937
0.858038582726271
0.94034735224177
1.02324288412984
1.10652663599839
1.1904207535485
1.27565436913497
1.36312756495044
1.45375262580327
1.54810604246164
1.64615678758517
1.747411471045
1.85099447534054
1.95573671650322
2.06077805058345
2.16582396923456
2.27086988788567
2.37591580653678
2.48096172518789
2.586007643839
2.6910535624901
2.79609948114121
2.90114539979232
3.00619131844343
3.11123723709453
3.21628315574564
3.32132907439675
3.42637499304785
3.53142091169896
3.63646683035007
3.74151274900118
3.84655866765229
3.9516045863034
4.0566505049545
4.16169642360561
4.26674234225672
4.37178826090783
4.47683417955894
4.58188009821005
4.68692601686115
4.79197193551226
4.89701785416337
5.00206377281447
5.10710969146558
5.21215561011669
5.3172015287678
5.4222474474189
5.52729336607001
5.63233928472112
5.73738520337223
5.84243112202334
5.94747704067444
6.05252295932555
6.15756887797666
6.26261479662777
6.36766071527887
6.47270663392998
6.57775255258109
6.6827984712322
6.7878443898833
6.89289030853441
6.99793622718552
7.10298214583663
7.20802806448773
7.31307398313884
7.41811990178995
7.52316582044106
7.62821173909216
7.73325765774327
7.83830357639438
7.94334949504549
8.04839541369659
8.1534413323477
8.25848725099881
8.36353316964992
8.46857908830103
8.57362500695213
8.67867092560324
8.78371684425435
8.88876276290546
8.99380868155656
9.09885460020767
9.20390051885878
9.30894643750989
9.41399235616099
9.5190382748121
9.62408419346321
9.72913011211432
9.83417603076542
9.93922194941653
10.0442632834968
10.1490055246594
10.252588528955
10.3538432124148
10.4518939575383
10.5462473741967
10.6368724350495
10.724345630865
10.8095792464515
10.8934733640017
10.9767571158701
11.0596526477582
11.1419614172737
11.2234274716722
11.3038834184261
11.3839129323661
11.4651332759773
11.5497387128403
11.6404108875823
11.7387982080465
11.8424410159608
11.9474772342883
0.0525122870370535
0.157528193518839
0.261157327564988
0.359552797829645
0.450264232628945
0.534933561199963
0.616231648270491
0.696343764824527
0.776880531442097
0.858423272487861
0.940805285016515
1.0237716681408
1.10712468929447
1.19108553423138
1.2763802951431
1.36390531039869
1.45456906720211
1.54894567605713
1.64700424475059
1.74825342855064
1.85182124687021
1.95654356551428
2.06156395117686
2.16658891247881
2.27161387378076
2.37663883508271
2.48166379638466
2.58668875768661
2.69171371898857
2.79673868029052
2.90176364159247
3.00678860289441
3.11181356419636
3.21683852549831
3.32186348680026
3.42688844810221
3.53191340940416
3.63693837070611
3.74196333200806
3.84698829331002
3.95201325461197
4.05703821591392
4.16206317721587
4.26708813851782
4.37211309981977
4.47713806112172
4.58216302242367
4.68718798372562
4.79221294502757
4.89723790632952
5.00226286763147
5.10728782893342
5.21231279023537
5.31733775153732
5.42236271283927
5.52738767414122
5.63241263544317
5.73743759674512
5.84246255804707
5.94748751934902
6.05251248065097
6.15753744195292
6.26256240325487
6.36758736455682
6.47261232585877
6.57763728716072
6.68266224846267
6.78768720976462
6.89271217106657
6.99773713236852
7.10276209367047
7.20778705497242
7.31281201627437
7.41783697757632
7.52286193887827
7.62788690018022
7.73291186148217
7.83793682278412
7.94296178408607
8.04798674538802
8.15301170668997
8.25803666799193
8.36306162929388
8.46808659059582
8.57311155189778
8.67813651319973
8.78316147450168
8.88818643580362
8.99321139710557
9.09823635840752
9.20326131970947
9.30828628101142
9.41331124231337
9.51833620361532
9.62336116491728
9.72838612621922
9.83341108752117
9.93843604882312
10.0434564344857
10.1481787531298
10.2517465714493
10.3529957552495
10.4510543239429
10.5454309327978
10.6360946896013
10.723619704857
10.8089144657687
10.8928753107054
10.9762283318593
11.0591947149835
11.1415767275122
11.2231194685578
11.3036562351754
11.3837683517296
11.4650664387999
11.549735767371
11.6404472021703
11.7388426724351
11.8424718064811
11.9474877129629
0.0525014244984641
0.157496275052517
0.26111123431489
0.359515152951979
0.450267285994096
0.535002846661311
0.616381525017972
0.696579270131595
0.777199817336931
0.858822054344032
0.941279993036671
1.02431982291773
1.10774465091842
1.19177466769472
1.27713281390169
1.36471154692644
1.45541541724059
1.54981606788439
1.64788274673159
1.74912622938769
1.85267830541933
1.95737997172997
2.06237864157436
2.16738187779904
2.27238511402372
2.37738835024841
2.48239158647309
2.58739482269777
2.69239805892246
2.79740129514714
2.90240453137183
3.00740776759651
3.11241100382119
3.21741424004588
3.32241747627056
3.42742071249524
3.53242394871993
3.63742718494461
3.74243042116929
3.84743365739398
3.95243689361867
4.05744012984335
4.16244336606803
4.26744660229272
4.3724498385174
4.47745307474208
4.58245631096677
4.68745954719145
4.79246278341614
4.89746601964082
5.0024692558655
5.10747249209019
5.21247572831487
5.31747896453955
5.42248220076424
5.52748543698892
5.6324886732136
5.73749190943829
5.84249514566297
5.94749838188765
6.05250161811233
6.15750485433702
6.26250809056171
6.36751132678639
6.47251456301107
6.57751779923575
6.68252103546044
6.78752427168512
6.89252750790981
6.99753074413449
7.10253398035917
7.20753721658386
7.31254045280854
7.41754368903322
7.5225469252579
7.62755016148259
7.73255339770727
7.83755663393196
7.94255987015664
8.04756310638132
8.15256634260601
8.2575695788307
8.36257281505538
8.46757605128006
8.57257928750475
8.67758252372943
8.78258575995411
8.88758899617879
8.99259223240347
9.09759546862816
9.20259870485284
9.30760194107753
9.41260517730221
9.5176084135269
9.62261164975158
9.72761488597626
9.83261812220094
9.93762135842563
10.04262002827
10.1473216945807
10.2508737706123
10.3521172532684
10.4501839321155
10.5445845827594
10.6352884530735
10.7228671860984
10.8082253323052
10.8922553490816
10.9756801770823
11.0587200069634
11.1411779456559
11.2228001826631
11.3034207298685
11.383618474982
11.4649971533388
11.5497327140058
11.6404848470481
11.738888765685
11.8425037249475
11.9474985755015
0.0524901640337245
0.157463187320423
0.261063452533182
0.35947612905366
0.450270451207206
0.535074670083286
0.616536891866578
0.696823402332512
0.77753079931373
0.859235444513586
0.941772090815919
1.02488805805821
1.1083873234279
1.19248904604606
1.27791289957777
1.36554731824435
1.45629277155978
1.55071834470711
1.64879343078901
1.75003100343487
1.85356676048689
1.95824701791444
2.06322317642805
2.1682038917233
2.27318460701856
2.37816532231381
2.48314603760906
2.58812675290431
2.69310746819956
2.79808818349481
2.90306889879007
3.00804961408532
3.11303032938057
3.21801104467582
3.32299175997107
3.42797247526632
3.53295319056158
3.63793390585683
3.74291462115208
3.84789533644733
3.95287605174259
4.05785676703784
4.16283748233309
4.26781819762834
4.3727989129236
4.47777962821885
4.5827603435141
4.68774105880935
4.7927217741046
4.89770248939985
5.00268320469511
5.10766391999036
5.21264463528561
5.31762535058086
5.42260606587611
5.52758678117136
5.63256749646662
5.73754821176187
5.84252892705712
5.94750964235237
6.05249035764762
6.15747107294287
6.26245178823812
6.36743250353338
6.47241321882863
6.57739393412388
6.68237464941913
6.78735536471438
6.89233608000964
6.99731679530489
7.10229751060014
7.20727822589539
7.31225894119064
7.4172396564859
7.52222037178114
7.62720108707639
7.73218180237164
7.8371625176669
7.94214323296215
8.0471239482574
8.15210466355266
8.25708537884791
8.36206609414316
8.46704680943841
8.57202752473367
8.67700824002892
8.78198895532417
8.88696967061942
8.99195038591467
9.09693110120992
9.20191181650517
9.30689253180042
9.41187324709568
9.51685396239093
9.62183467768618
9.72681539298143
9.83179610827668
9.93677682357193
10.0417529820856
10.1464332395131
10.2499689965652
10.3512065692109
10.4492816552929
10.5437072284402
10.6344526817557
10.7220871004223
10.8075109539539
10.8916126765721
10.9751119419418
11.058227909184
11.1407645554865
11.2224692006862
11.3031765976675
11.3834631081334
11.4649253299166
11.5497295487928
11.6405238709464
11.7389365474668
11.8425368126796
11.9475098359663
0.0524784910658258
0.157428887489001
0.261013920363868
0.359435675618699
0.450273732365178
0.535149124426684
0.616697949911576
0.697076477430029
0.777873905812812
0.859663978124777
0.942282215378476
1.02547710915369
1.10905353878005
1.19322959407308
1.27872156202465
1.36641370629719
1.45720226593731
1.55165367456559
1.64973747584477
1.75096892196143
1.85448776221584
1.95914582649645
2.06409864902485
2.16905601838419
2.27401338774353
2.37897075710286
2.4839281264622
2.58888549582154
2.69384286518087
2.79880023454021
2.90375760389955
3.00871497325889
3.11367234261822
3.21862971197756
3.32358708133689
3.42854445069623
3.53350182005557
3.63845918941491
3.74341655877425
3.84837392813358
3.95333129749292
4.05828866685226
4.1632460362116
4.26820340557094
4.37316077493027
4.47811814428961
4.58307551364895
4.68803288300829
4.79299025236762
4.89794762172696
5.00290499108629
5.10786236044563
5.21281972980497
5.31777709916431
5.42273446852364
5.52769183788298
5.63264920724232
5.73760657660165
5.84256394596099
5.94752131532032
6.05247868467966
6.157436054039
6.26239342339834
6.36735079275768
6.47230816211701
6.57726553147635
6.68222290083569
6.78718027019503
6.89213763955436
6.9970950089137
7.10205237827304
7.20700974763237
7.31196711699171
7.41692448635105
7.52188185571038
7.62683922506972
7.73179659442906
7.83675396378839
7.94171133314773
8.04666870250707
8.1516260718664
8.25658344122575
8.36154081058508
8.46649817994442
8.57145554930375
8.67641291866309
8.78137028802243
8.88632765738176
8.9912850267411
9.09624239610044
9.20119976545977
9.30615713481911
9.41111450417845
9.51607187353779
9.62102924289712
9.72598661225646
9.8309439816158
9.93590135097513
10.0408541735035
10.1455122377842
10.2490310780385
10.3502625241552
10.4483463254344
10.5427977340627
10.6335862937028
10.7212784379753
10.806770405927
10.8909464612199
10.9745228908463
11.0577177846215
11.1403360218751
11.2221260941872
11.30292352257
11.3833020500883
11.4648508755734
11.5497262676348
11.6405643243813
11.7389860796361
11.842571112511
11.9475215089342
0.0524663904833721
0.157393331155578
0.260962573685149
0.35939374028068
0.450277133714973
0.53522630605686
0.616864907613306
0.69733882300121
0.778229580967958
0.860108209907949
0.94281102708364
1.02608773874164
1.10974415940836
1.19399727044058
1.27955984808932
1.3673118326644
1.45814507775767
1.55262326828881
1.65071610400801
1.75194119914344
1.85544250288195
1.96007756102237
2.06500619270174
2.16993936089636
2.27487252909098
2.3798056972856
2.48473886548022
2.58967203367484
2.69460520186946
2.79953837006408
2.9044715382587
3.00940470645332
3.11433787464794
3.21927104284256
3.32420421103718
3.4291373792318
3.53407054742642
3.63900371562104
3.74393688381566
3.84887005201028
3.9538032202049
4.05873638839952
4.16366955659414
4.26860272478877
4.37353589298339
4.478469061178
4.58340222937262
4.68833539756725
4.79326856576187
4.89820173395649
5.00313490215111
5.10806807034573
5.21300123854035
5.31793440673497
5.42286757492959
5.52780074312421
5.63273391131883
5.73766707951345
5.84260024770807
5.94753341590268
6.0524665840973
6.15739975229192
6.26233292048655
6.36726608868117
6.47219925687579
6.57713242507041
6.68206559326503
6.78699876145965
6.89193192965427
6.99686509784889
7.10179826604351
7.20673143423813
7.31166460243275
7.41659777062737
7.52153093882199
7.62646410701661
7.73139727521123
7.83633044340585
7.94126361160047
8.04619677979509
8.15112994798971
8.25606311618433
8.36099628437895
8.46592945257357
8.57086262076819
8.67579578896281
8.78072895715743
8.88566212535205
8.99059529354667
9.09552846174129
9.20046162993591
9.30539479813052
9.41032796632515
9.51526113451977
9.62019430271439
9.72512747090901
9.83006063910363
9.93499380729824
10.0399224389776
10.144557497118
10.2480588008566
10.349283895992
10.4473767317112
10.5418549222423
10.6326881673356
10.7204401519107
10.8060027295594
10.8902558405915
10.9739122612584
11.0571889729163
11.1398917900921
11.221770419032
11.3026611769988
11.3831350923867
11.4647736939431
11.5497228662849
11.6406062597193
11.7390374263149
11.8426066688444
11.9475336095166
0.0524538466219769
0.157356472290833
0.260909346026102
0.359350268754968
0.450280659659092
0.535306314868418
0.617037981066877
0.697610778621268
0.778598285181253
0.860568714913537
0.943359210480537
1.02672073729273
1.11046007933903
1.19479306893162
1.28042884296751
1.36824286001212
1.45912242753638
1.55362838106198
1.65173058215714
1.75294909363553
1.85643221843729
1.96104342766244
2.06594698231292
2.17085506278458
2.27576314325623
2.38067122372789
2.48557930419954
2.5904873846712
2.69539546514285
2.80030354561451
2.90521162608616
3.01011970655782
3.11502778702947
3.21993586750113
3.32484394797278
3.42975202844443
3.53466010891609
3.63956818938775
3.7444762698594
3.84938435033106
3.95429243080272
4.05920051127437
4.16410859174603
4.26901667221768
4.37392475268934
4.47883283316099
4.58374091363265
4.68864899410431
4.79355707457596
4.89846515504762
5.00337323551927
5.10828131599093
5.21318939646258
5.31809747693424
5.4230055574059
5.52791363787755
5.63282171834921
5.73772979882086
5.84263787929252
5.94754595976417
6.05245404023582
6.15736212070748
6.26227020117914
6.3671782816508
6.47208636212245
6.5769944425941
6.68190252306576
6.78681060353741
6.89171868400907
6.99662676448072
7.10153484495238
7.20644292542404
7.31135100589569
7.41625908636734
7.521167166839
7.62607524731065
7.73098332778231
7.83589140825396
7.94079948872562
8.04570756919727
8.15061564966893
8.25552373014058
8.36043181061224
8.4653398910839
8.57024797155556
8.67515605202721
8.78006413249886
8.88497221297052
8.98988029344217
9.09478837391383
9.19969645438549
9.30460453485714
9.40951261532879
9.51442069580045
9.6193287762721
9.72423685674376
9.82914493721541
9.93405301768707
10.0389565723376
10.1435677815627
10.2470509063645
10.3482694178428
10.446371618938
10.5408775724636
10.6317571399879
10.7195711570325
10.8052069310683
10.8895399206611
10.9732792627072
11.0566407895196
11.1394312850864
11.2214017148187
11.3023892213787
11.3829620189331
11.4646936851315
11.5497193403409
11.640649731245
11.7390906539739
11.8426435277092
11.947546153378
0.0524408432427636
0.157318263179517
0.260854168480796
0.359305204768463
0.450284314761272
0.535389254414412
0.617217394281731
0.697892696302991
0.778980495718894
0.861046089256345
0.943927475194213
1.02737692423387
1.11120222534837
1.19561801973382
1.28132967160858
1.36920799359828
1.46013558050001
1.55467031405133
1.65278222357993
1.75399391020026
1.85745819011012
1.96204467677217
2.06692223575068
2.17180430946399
2.27668638317731
2.38156845689062
2.48645053060394
2.59133260431725
2.69621467803057
2.80109675174388
2.9059788254572
3.01086089917051
3.11574297288383
3.22062504659714
3.32550712031046
3.43038919402377
3.53527126773708
3.6401533414504
3.74503541516372
3.84991748887704
3.95479956259035
4.05968163630367
4.16456371001698
4.2694457837303
4.37432785744361
4.47920993115693
4.58409200487024
4.68897407858356
4.79385615229688
4.89873822601019
5.0036202997235
5.10850237343682
5.21338444715013
5.31826652086345
5.42314859457676
5.52803066829008
5.63291274200339
5.73779481571671
5.84267688943002
5.94755896314334
6.05244103685665
6.15732311056997
6.26220518428329
6.3670872579966
6.47196933170992
6.57685140542323
6.68173347913655
6.78661555284986
6.89149762656318
6.99637970027649
7.10126177398981
7.20614384770312
7.31102592141644
7.41590799512975
7.52079006884307
7.62567214255638
7.73055421626969
7.83543628998301
7.94031836369632
8.04520043740964
8.15008251112295
8.25496458483627
8.35984665854959
8.46472873226291
8.56961080597622
8.67449287968953
8.77937495340285
8.88425702711616
8.98913910082947
9.09402117454279
9.19890324825611
9.30378532196942
9.40866739568273
9.51354946939605
9.61843154310936
9.72331361682268
9.828195690536
9.93307776424931
10.0379553232278
10.1425418098899
10.2460060897997
10.3472177764201
10.4453296859486
10.5398644195
10.6307920064017
10.7186703283913
10.8043819802662
10.8887977746516
10.9726230757662
11.0560725248057
11.1389539107437
11.2210195042811
11.3021073036969
11.3827826057183
11.4646107455856
11.5497156852389
11.6406947952315
11.7391458315192
11.8426817368205
11.9475591567572
0.0524273635124648
0.157278654358052
0.260796969619145
0.359258489986755
0.450288103752407
0.535475232040304
0.617403379471443
0.698184940952194
0.779376707328876
0.861540950887108
0.94451655684415
1.02805714900908
1.11197155816234
1.19647319077307
1.28226350017175
1.37020848283273
1.46118584822414
1.55575041608862
1.65387238967351
1.7550770013972
1.85852174606356
1.963082604511
2.06793321552199
2.17278832977474
2.27764344402748
2.38249855828023
2.48735367253298
2.59220878678573
2.69706390103847
2.80191901529122
2.90677412954397
3.01162924379671
3.11648435804946
3.2213394723022
3.32619458655495
3.4310497008077
3.53590481506044
3.64075992931319
3.74561504356594
3.85047015781869
3.95532527207144
4.06018038632418
4.16503550057693
4.26989061482968
4.37474572908242
4.47960084333517
4.58445595758792
4.68931107184066
4.79416618609341
4.89902130034615
5.0038764145989
5.10873152885165
5.2135866431044
5.31844175735714
5.42329687160989
5.52815198586264
5.63300710011538
5.73786221436813
5.84271732862088
5.94757244287362
6.05242755712636
6.15728267137912
6.26213778563187
6.36699289988461
6.47184801413736
6.5767031283901
6.68155824264285
6.7864133568956
6.89126847114835
6.99612358540109
7.10097869965384
7.20583381390658
7.31068892815933
7.41554404241208
7.52039915666482
7.62525427091757
7.73010938517032
7.83496449942306
7.93981961367581
8.04467472792856
8.1495298421813
8.25438495643405
8.3592400706868
8.46409518493955
8.56895029919229
8.67380541344504
8.77866052769779
8.88351564195053
8.98837075620328
9.09322587045603
9.19808098470878
9.30293609896152
9.40779121321426
9.51264632746701
9.61750144171976
9.7223565559725
9.82721167022525
9.932066784478
10.036917395489
10.1414782539365
10.2449229986028
10.3461276103265
10.4442495839114
10.5388141517759
10.6297915171672
10.7177364998283
10.803526809227
10.8880284418377
10.9719428509909
11.0554834431559
11.1384590491129
11.2206232926711
11.3018150590479
11.3825966205285
11.4645247679597
11.5497118962475
11.6407415100132
11.7392030303808
11.842721345642
11.9475726364876
0.052413389980997
0.157237594551173
0.260737675394315
0.359210063938633
0.450292031536652
0.535564359022821
0.617596177354123
0.698487890839914
0.779787432881249
0.862053940392289
0.945127217996433
1.02876229217886
1.11276907370026
1.19735968909584
1.28323153753569
1.3712456228949
1.46227459033113
1.55687008541717
1.65500249170681
1.75619976933379
1.85962426311486
1.96415855452013
2.06898123038287
2.17380839757266
2.27863556476245
2.38346273195224
2.48828989914203
2.59311706633182
2.69794423352161
2.8027714007114
2.90759856790119
3.01242573509098
3.11725290228077
3.22208006947056
3.32690723666035
3.43173440385014
3.53656157103993
3.64138873822972
3.74621590541951
3.85104307260931
3.9558702397991
4.06069740698889
4.16552457417867
4.27035174136847
4.37517890855826
4.48000607574804
4.58483324293783
4.68966041012762
4.79448757731741
4.8993147445072
5.00414191169699
5.10896907888678
5.21379624607657
5.31862341326636
5.42345058045615
5.52827774764594
5.63310491483573
5.73793208202552
5.84275924921531
5.9475864164051
6.05241358359489
6.15724075078468
6.26206791797447
6.36689508516426
6.47172225235405
6.57654941954384
6.68137658673363
6.78620375392342
6.89103092111321
6.995858088303
7.10068525549279
7.20551242268258
7.31033958987237
7.41516675706216
7.51999392425195
7.62482109144174
7.72964825863153
7.83447542582132
7.93930259301111
8.0441297602009
8.14895692739069
8.25378409458048
8.35861126177027
8.46343842896006
8.56826559614985
8.67309276333964
8.77791993052943
8.88274709771921
8.98757426490901
9.0924014320988
9.19722859928859
9.30205576647838
9.40688293366817
9.51171010085796
9.61653726804775
9.72136443523754
9.82619160242733
9.93101876961711
10.0358414454799
10.1403757368851
10.2438002306662
10.3449975082932
10.4431299145828
10.5377254096688
10.6287543771051
10.7167684624643
10.8026403109041
10.8872309262998
10.9712377078211
11.0548727820036
11.1379460596077
11.2202125671187
11.30151210916
11.382403822646
11.4644356409772
11.5497079684633
11.6407899360614
11.7392623246058
11.8427624054488
11.947586610019
0.0523989045590426
0.157195030605129
0.260676209046902
0.359159863937793
0.450296103197777
0.535656750713898
0.617796037463827
0.698801938091832
0.780213204031848
0.862585721823199
0.945760249150795
1.02949326656013
1.11359580436396
1.19827866230229
1.2842350368635
1.3723207564102
1.46340321625036
1.55803077150203
1.65617399264749
1.75736366748048
1.86076716851775
1.96527391966199
2.07006763703258
2.17486583337837
2.27966402972417
2.38446222606997
2.48926042241577
2.59405861876156
2.69885681510736
2.80365501145316
2.90845320779896
3.01325140414475
3.11804960049055
3.22284779683635
3.32764599318215
3.43244418952795
3.53724238587374
3.64204058221954
3.74683877856534
3.85163697491114
3.95643517125694
4.06123336760274
4.16603156394853
4.27082976029434
4.37562795664013
4.48042615298593
4.58522434933173
4.69002254567752
4.79482074202332
4.89961893836912
5.00441713471492
5.10921533106072
5.21401352740651
5.31881172375231
5.42360992009811
5.5284081164439
5.6332063127897
5.7380045091355
5.8428027054813
5.9476009018271
6.05239909817289
6.15719729451869
6.26199549086449
6.36679368721029
6.47159188355609
6.57639007990189
6.68118827624768
6.78598647259348
6.89078466893928
6.99558286528507
7.10038106163087
7.20517925797667
7.30997745432247
7.41477565066827
7.51957384701406
7.62437204335987
7.72917023970566
7.83396843605146
7.93876663239726
8.04356482874305
8.14836302508885
8.25316122143465
8.35795941778045
8.46275761412625
8.56755581047204
8.67235400681784
8.77715220316364
8.88195039950944
8.98674859585524
9.09154679220103
9.19634498854683
9.30114318489263
9.40594138123843
9.51073957758422
9.61553777393002
9.72033597027582
9.82513416662162
9.92993236296741
10.034726080338
10.1392328314823
10.2426363325195
10.3438260073525
10.441969228498
10.5365967837497
10.6276792435898
10.7157649631365
10.8017213376978
10.8864041956359
10.9705067334399
11.0542397508492
11.1374142781767
11.2197867959682
11.3011980619082
11.3822039625361
11.4643432492861
11.5497038968023
11.6408401360623
11.739323790953
11.8428049693949
11.9476010954409
0.0523838884945059
0.1571509074191
0.260612491005569
0.359107825001735
0.450300324005749
0.535752526689883
0.618003218473352
0.69912748919564
0.780654571910342
0.863136983555445
0.946416469763791
1.03025101840776
1.11445282037412
1.19923130003182
1.28527529722491
1.37343527518829
1.4645731870427
1.55923397690636
1.65738840905576
1.7585702025522
1.86195194181001
1.96643014382325
2.07119384186987
2.17596200608667
2.28073017030348
2.38549833452028
2.49026649873709
2.59503466295389
2.69980282717069
2.8045709913875
2.9093391556043
3.0141073198211
3.1188754840379
3.22364364825471
3.32841181247151
3.43317997668831
3.53794814090512
3.64271630512192
3.74748446933872
3.85225263355553
3.95702079777233
4.06178896198914
4.16655712620594
4.27132529042274
4.37609345463955
4.48086161885635
4.58562978307315
4.69039794728996
4.79516611150676
4.89993427572357
5.00470243994037
5.10947060415717
5.21423876837397
5.31900693259077
5.42377509680758
5.52854326102438
5.63331142524118
5.73807958945799
5.84284775367479
5.94761591789159
6.0523840821084
6.15715224632521
6.26192041054201
6.36668857475881
6.47145673897561
6.57622490319242
6.68099306740922
6.78576123162602
6.89052939584282
6.99529756005962
7.10006572427643
7.20483388849323
7.30960205271004
7.41437021692684
7.51913838114364
7.62390654536044
7.72867470957725
7.83344287379405
7.93821103801085
8.04297920222766
8.14774736644446
8.25251553066126
8.35728369487807
8.46205185909487
8.56682002331168
8.67158818752848
8.77635635174528
8.88112451596209
8.98589268017889
9.09066084439569
9.1954290086125
9.3001971728293
9.4049653370461
9.5097335012629
9.6145016654797
9.71926982969651
9.82403799391332
9.92880615813012
10.0335698561767
10.13804805819
10.2414297974478
10.3426115909442
10.4407660230936
10.5354268129573
10.6265647248118
10.7147247027751
10.8007686999682
10.8855471796259
10.9697489815922
11.0535835302362
11.1368630164446
11.2193454280897
11.3008725108043
11.3819967815267
11.4642474733102
11.5496996759942
11.6408921749982
11.7393875089945
11.8428490925809
11.9476161115055
0.0523683223485837
0.157105167873639
0.260546438784057
0.359053879767651
0.450304699423526
0.535851810906199
0.618217988528863
0.699464965526992
0.781112107833437
0.863708439179875
0.94709672930951
1.03103652863938
1.1153412311557
1.20021883550301
1.2863536652779
1.37459062202472
1.46578601729198
1.56048125923651
1.65864731304768
1.7598209364589
1.86318011672881
1.96762872378401
2.07236130281368
2.17709833473865
2.28183536666362
2.38657239858859
2.49130943051355
2.59604646243852
2.70078349436349
2.80552052628846
2.91025755821343
3.01499459013839
3.11973162206336
3.22446865398833
3.3292056859133
3.43394271783827
3.53867974976324
3.64341678168821
3.74815381361317
3.85289084553815
3.95762787746312
4.06236490938808
4.16710194131305
4.27183897323802
4.37657600516299
4.48131303708796
4.58605006901293
4.69078710093789
4.79552413286286
4.90026116478783
5.0049981967128
5.10973522863777
5.21447226056274
5.3192092924877
5.42394632441267
5.52868335633764
5.63342038826261
5.73815742018758
5.84289445211254
5.94763148403751
6.05236851596248
6.15710554788745
6.26184257981242
6.36657961173739
6.47131664366236
6.57605367558732
6.68079070751229
6.78552773943726
6.89026477136222
6.99500180328719
7.09973883521216
7.20447586713713
7.3092128990621
7.41394993098706
7.51868696291203
7.623423994837
7.72816102676197
7.83289805868694
7.93763509061191
8.04237212253688
8.14710915446184
8.25184618638681
8.35658321831178
8.46132025023675
8.56605728216172
8.67079431408669
8.77553134601166
8.88026837793662
8.98500540986159
9.08974244178656
9.19447947371153
9.2992165056365
9.40395353756147
9.50869056948644
9.6134276014114
9.71816463333637
9.82290166526134
9.92763869718631
10.032371276216
10.1368198832712
10.2401790635411
10.3413526869523
10.4395187407635
10.534213982708
10.6254093779753
10.7136463347222
10.7997811644969
10.8846587688443
10.9689634713606
11.0529032706905
11.1362915608202
11.2188878921665
11.3005350344731
11.3817820114711
11.4641481890937
11.5496953005765
11.6409461202324
11.7394535612159
11.8428948321264
11.9476316776514
0.0523521859702353
0.157057752756926
0.260477966874394
0.358997958405254
0.450309235114147
0.535954731857685
0.618440625596748
0.699814803894692
0.781586404044236
0.864300828426154
0.947801908379048
1.03185081410512
1.116262186774
1.20124254711001
1.2874715370121
1.37578829256871
1.46704327706565
1.56177423315851
1.65995233433025
1.76111748832741
1.86445328319611
1.96887121115538
2.07357153119035
2.17827629035861
2.28298104952687
2.38768580869512
2.49239056786338
2.59709532703163
2.70180008619989
2.80650484536815
2.91120960453641
3.01591436370466
3.12061912287292
3.22532388204118
3.33002864120943
3.43473340037769
3.53943815954595
3.64414291871421
3.74884767788247
3.85355243705073
3.95825719621898
4.06296195538724
4.1676667145555
4.27237147372375