/*--------------------------------*- C++ -*----------------------------------*\
  =========                 |
  \\      /  F ield         | OpenFOAM: The Open Source CFD Toolbox
   \\    /   O peration     | Website:  https://openfoam.org
    \\  /    A nd           | Version:  7
     \\/     M anipulation  |
\*---------------------------------------------------------------------------*/
FoamFile
{
    version     2.0;
    format      ascii;
    class       volScalarField;
    location    "0";
    object      k_LES;
}
// * * * * * * * * * * * * * * * * * * * * * * * * * * * * * * * * * * * * * //

dimensions      [0 2 -2 0 0 0 0];

internalField   nonuniform List<scalar>
15600
(
0.00740129
0.00720015
0.00572881
0.00249375
0.00344770
0.00675850
0.00197192
0.00208081
0.00111276
0.00139372
0.00113566
0.00081584
0.00120601
0.00070268
0.00156571
0.00060919
0.00092405
0.00183455
0.00274029
0.00345780
0.00436144
0.00219863
0.00260407
0.00297977
0.00333461
0.00362082
0.00392259
0.00432292
0.00444232
0.00459548
0.00471899
0.00487515
0.00500793
0.00512069
0.00509280
0.00501224
0.00496808
0.00503296
0.00494097
0.00498325
0.00495592
0.00483952
0.00473085
0.00461387
0.00451460
0.00440846
0.00425017
0.00415749
0.00398069
0.00390762
0.00377025
0.00369387
0.00355917
0.00342302
0.00331071
0.00322415
0.00307734
0.00296289
0.00284584
0.00278566
0.00270687
0.00261605
0.00258655
0.00243128
0.00243012
0.00223494
0.00217186
0.00211911
0.00206007
0.00198510
0.00187695
0.00184058
0.00179676
0.00175302
0.00171430
0.00170574
0.00165114
0.00161102
0.00156193
0.00152165
0.00145537
0.00141621
0.00134152
0.00129315
0.00128974
0.00123168
0.00117947
0.00114000
0.00108786
0.00110758
0.00102333
0.00097990
0.00096928
0.00094314
0.00095699
0.00086043
0.00086905
0.00086567
0.00099883
0.00350343
0.00131308
0.00054922
-0.00003207
-0.00019901
-0.00020935
-0.00052345
-0.00024675
-0.00007683
-0.00025085
-0.00042363
-0.00018962
-0.00037753
-0.00013036
-0.00044423
-0.00037308
-0.00053950
-0.00086556
-0.00156100
0.00005618
0.00371904
0.01062391
0.01206796
0.00856612
0.00455892
0.00639152
0.01108959
0.00460725
0.00454679
0.00261447
0.00287085
0.00256096
0.00246083
0.00347267
0.00361063
0.00492429
0.00407090
0.00504616
0.00730938
0.00793396
0.00899717
0.00985854
0.00772409
0.00912287
0.01038162
0.01149754
0.01242406
0.01341680
0.01436850
0.01487415
0.01543598
0.01584684
0.01627662
0.01667692
0.01684943
0.01693624
0.01676864
0.01661759
0.01673235
0.01659299
0.01674495
0.01664788
0.01635477
0.01608326
0.01580216
0.01557153
0.01530186
0.01480251
0.01455627
0.01403362
0.01371268
0.01339393
0.01309554
0.01284258
0.01250289
0.01200754
0.01190548
0.01129788
0.01098955
0.01074727
0.01057003
0.01027929
0.00993633
0.00969384
0.00929785
0.00906365
0.00878257
0.00857253
0.00821115
0.00802685
0.00780822
0.00751305
0.00734095
0.00719050
0.00703936
0.00691713
0.00678906
0.00669420
0.00655062
0.00636629
0.00622660
0.00594015
0.00577920
0.00569750
0.00551973
0.00548867
0.00517477
0.00501372
0.00487500
0.00472749
0.00470161
0.00443556
0.00424730
0.00417834
0.00397478
0.00382613
0.00368658
0.00356423
0.00356718
0.00376709
0.00741031
0.00645345
0.00465009
0.00301712
0.00117860
0.00098624
-0.00026347
0.00029556
0.00029308
0.00011050
-0.00004607
0.00034841
0.00013170
0.00005305
-0.00013944
0.00114581
0.00020077
-0.00074633
-0.00069186
0.00124260
0.00577604
0.01513085
0.01803298
0.01255876
0.00782894
0.01019897
0.01665646
0.00858199
0.00682678
0.00555836
0.00565246
0.00543073
0.00523707
0.00673427
0.00736484
0.00977020
0.00941019
0.01118329
0.01276991
0.01371371
0.01458186
0.01497259
0.01492394
0.01729328
0.01937070
0.02114474
0.02272521
0.02427908
0.02566552
0.02654109
0.02750371
0.02823357
0.02886681
0.02936390
0.02959562
0.02983081
0.02972738
0.02957451
0.02980291
0.02959651
0.02986810
0.02998267
0.02957318
0.02919376
0.02895009
0.02867778
0.02828717
0.02761464
0.02723550
0.02637536
0.02587164
0.02544396
0.02497388
0.02463201
0.02406065
0.02325719
0.02296332
0.02212863
0.02164514
0.02121752
0.02095768
0.02054809
0.01999194
0.01943593
0.01896477
0.01844396
0.01798676
0.01751958
0.01704254
0.01671734
0.01633686
0.01584573
0.01550001
0.01522618
0.01491278
0.01470932
0.01455612
0.01433001
0.01406867
0.01372390
0.01341734
0.01299353
0.01269645
0.01243678
0.01212261
0.01186740
0.01151450
0.01120333
0.01089755
0.01060974
0.01033620
0.00996458
0.00960466
0.00929966
0.00896146
0.00863776
0.00830527
0.00800268
0.00779516
0.00793286
0.01131072
0.01324469
0.01323294
0.01133242
0.00745989
0.00640583
0.00335069
0.00528391
0.00288567
0.00310479
0.00163206
0.00325161
0.00224207
0.00062669
0.00081333
0.00328221
0.00115900
-0.00056488
0.00125577
0.00310055
0.00880965
0.02080230
0.02527216
0.01748402
0.01212646
0.01560164
0.02084156
0.01205301
0.01030661
0.00955282
0.00940983
0.00903890
0.00933359
0.00997672
0.01129400
0.01401136
0.01401411
0.01562430
0.01661584
0.01761143
0.01868197
0.01916448
0.02066145
0.02351428
0.02605569
0.02817310
0.03017236
0.03208599
0.03365944
0.03501392
0.03600919
0.03704353
0.03763720
0.03825761
0.03857492
0.03892213
0.03897092
0.03896051
0.03913590
0.03910734
0.03949510
0.03958164
0.03907175
0.03880500
0.03861310
0.03830930
0.03796611
0.03725277
0.03672540
0.03573782
0.03515704
0.03454896
0.03413429
0.03373619
0.03319345
0.03224118
0.03175442
0.03089600
0.03026332
0.02980234
0.02940079
0.02890788
0.02822149
0.02759297
0.02698620
0.02628416
0.02572927
0.02515376
0.02463834
0.02417408
0.02367759
0.02304753
0.02262299
0.02226956
0.02185690
0.02156146
0.02138170
0.02110266
0.02073746
0.02029255
0.01986683
0.01943218
0.01902799
0.01863723
0.01827801
0.01787343
0.01745206
0.01706543
0.01661171
0.01620575
0.01582232
0.01535722
0.01490031
0.01444351
0.01396892
0.01348886
0.01301887
0.01253658
0.01212767
0.01207521
0.01508740
0.01783916
0.01938571
0.01999120
0.01769398
0.01435456
0.01363965
0.01245265
0.00817623
0.00791149
0.00658104
0.00651954
0.00618261
0.00440207
0.00281540
0.00739308
0.00222793
0.00043192
0.00490520
0.00625915
0.01288549
0.02698872
0.03402848
0.02305278
0.01852229
0.02105389
0.02325892
0.01522236
0.01445430
0.01293300
0.01230567
0.01195194
0.01264957
0.01387795
0.01492656
0.01703162
0.01753729
0.01866776
0.01951109
0.02072349
0.02170653
0.02266003
0.02495289
0.02805799
0.03087018
0.03321763
0.03542690
0.03754709
0.03929035
0.04084349
0.04201188
0.04313462
0.04392261
0.04447790
0.04477706
0.04530392
0.04558694
0.04560653
0.04583122
0.04581410
0.04629343
0.04643628
0.04603075
0.04572266
0.04564606
0.04539757
0.04502714
0.04441417
0.04378209
0.04269031
0.04204667
0.04144470
0.04100810
0.04056237
0.03999246
0.03901459
0.03846780
0.03756794
0.03681434
0.03632569
0.03586743
0.03534842
0.03450822
0.03385370
0.03316523
0.03242390
0.03180804
0.03117979
0.03054218
0.03006842
0.02948642
0.02879277
0.02830675
0.02791534
0.02743582
0.02707095
0.02687303
0.02652268
0.02611999
0.02564072
0.02512596
0.02465506
0.02419266
0.02378566
0.02331194
0.02287104
0.02236327
0.02189417
0.02142291
0.02098265
0.02052940
0.01997884
0.01944662
0.01894852
0.01840481
0.01785363
0.01730295
0.01672112
0.01617994
0.01597304
0.01850107
0.02199643
0.02422682
0.02547245
0.02481815
0.02375393
0.02392250
0.02169370
0.01766373
0.01582350
0.01436270
0.01229238
0.00978339
0.01043338
0.00681547
0.01467148
0.00460750
0.00213909
0.01002155
0.01176966
0.01791092
0.03402529
0.04406335
0.02968511
0.02514677
0.02397804
0.02557313
0.01823332
0.01716240
0.01572029
0.01468559
0.01464465
0.01561132
0.01683539
0.01799273
0.01949784
0.02023841
0.02094109
0.02176429
0.02290395
0.02409890
0.02538881
0.02816952
0.03141413
0.03439951
0.03689894
0.03924231
0.04150606
0.04336584
0.04506670
0.04631802
0.04757421
0.04837693
0.04901187
0.04939202
0.05006594
0.05036332
0.05052089
0.05080771
0.05089894
0.05136321
0.05153175
0.05110937
0.05085109
0.05089831
0.05069361
0.05036712
0.04984483
0.04914052
0.04795874
0.04727884
0.04666475
0.04626156
0.04574381
0.04521494
0.04420910
0.04363423
0.04272687
0.04190146
0.04135659
0.04082185
0.04023567
0.03939092
0.03869387
0.03796081
0.03710151
0.03647774
0.03583946
0.03515835
0.03464253
0.03399379
0.03325640
0.03273530
0.03231661
0.03180283
0.03136776
0.03112583
0.03076935
0.03028424
0.02974742
0.02919782
0.02868510
0.02824609
0.02777086
0.02729054
0.02677759
0.02628022
0.02577613
0.02524853
0.02475632
0.02426118
0.02370039
0.02315039
0.02261925
0.02205184
0.02147458
0.02091732
0.02031853
0.01972662
0.01943639
0.02147470
0.02493550
0.02760780
0.02928652
0.02979158
0.03002583
0.02969897
0.02806561
0.02610720
0.02516469
0.02334850
0.02222983
0.01752802
0.01518644
0.01484367
0.02241729
0.00889933
0.00487736
0.01605874
0.01949927
0.02386675
0.04187898
0.05405177
0.03706327
0.03048336
0.02825711
0.02949369
0.02190734
0.01976104
0.01787484
0.01712671
0.01707942
0.01823421
0.01920138
0.02047828
0.02145811
0.02206774
0.02273969
0.02333794
0.02455131
0.02593769
0.02756895
0.03060923
0.03396135
0.03711379
0.03971070
0.04217229
0.04452660
0.04647396
0.04827681
0.04961440
0.05092612
0.05182948
0.05249373
0.05293133
0.05366844
0.05407207
0.05430734
0.05463695
0.05480407
0.05523689
0.05544143
0.05502552
0.05479768
0.05497034
0.05481027
0.05448662
0.05402386
0.05332934
0.05206418
0.05137447
0.05076449
0.05037978
0.04980546
0.04931383
0.04830772
0.04765720
0.04677597
0.04591030
0.04532199
0.04472337
0.04404695
0.04320549
0.04249018
0.04170943
0.04081733
0.04013204
0.03947760
0.03878665
0.03821562
0.03752904
0.03677503
0.03620461
0.03576473
0.03521813
0.03471535
0.03443552
0.03406857
0.03355000
0.03296209
0.03239708
0.03187263
0.03139488
0.03092714
0.03040335
0.02988285
0.02934375
0.02880436
0.02826159
0.02775899
0.02723776
0.02664277
0.02608822
0.02554919
0.02497669
0.02440672
0.02386684
0.02330381
0.02273430
0.02239607
0.02402980
0.02721537
0.02993458
0.03190231
0.03277148
0.03380180
0.03424805
0.03281465
0.03367259
0.03169851
0.03058141
0.02960405
0.02680891
0.02359119
0.02271518
0.02871262
0.01484196
0.00927514
0.02227501
0.02785370
0.03087331
0.05019307
0.06485285
0.04491081
0.03462074
0.03484777
0.03227646
0.02551423
0.02188981
0.01967883
0.01919397
0.01926412
0.02021300
0.02114681
0.02207140
0.02278764
0.02333651
0.02381341
0.02450766
0.02583976
0.02736142
0.02933349
0.03252198
0.03600810
0.03926891
0.04197202
0.04453056
0.04695637
0.04897241
0.05084623
0.05218695
0.05358424
0.05454810
0.05529161
0.05579850
0.05654347
0.05704739
0.05733311
0.05769577
0.05790880
0.05831066
0.05858042
0.05815128
0.05791194
0.05822339
0.05810438
0.05778477
0.05734225
0.05667968
0.05535234
0.05465559
0.05406513
0.05369765
0.05307586
0.05262987
0.05161008
0.05091699
0.05005759
0.04913464
0.04849702
0.04782578
0.04711478
0.04625609
0.04552899
0.04468055
0.04377860
0.04306691
0.04240094
0.04165857
0.04108662
0.04036717
0.03960692
0.03898455
0.03852318
0.03794218
0.03739447
0.03706776
0.03667782
0.03615290
0.03552312
0.03491562
0.03436485
0.03389251
0.03338858
0.03286168
0.03233560
0.03178106
0.03121602
0.03065262
0.03012969
0.02958636
0.02898513
0.02841562
0.02787495
0.02730931
0.02674602
0.02624255
0.02572263
0.02519066
0.02488347
0.02616677
0.02897723
0.03159141
0.03375564
0.03513228
0.03648400
0.03754219
0.03704672
0.03727793
0.03690927
0.03640435
0.03510066
0.03418805
0.03187951
0.03006723
0.03645599
0.02347299
0.01580009
0.02856882
0.03652325
0.03901524
0.05889941
0.07553084
0.05297755
0.03882366
0.03942759
0.03451391
0.02723681
0.02364706
0.02150247
0.02085232
0.02098883
0.02176508
0.02265238
0.02328560
0.02386747
0.02428321
0.02464010
0.02545336
0.02689825
0.02854122
0.03078544
0.03410473
0.03771419
0.04108014
0.04387533
0.04653498
0.04899702
0.05109013
0.05300537
0.05431941
0.05576507
0.05682731
0.05763873
0.05822829
0.05895899
0.05955774
0.05985204
0.06023649
0.06047676
0.06081090
0.06113617
0.06068364
0.06047603
0.06088911
0.06078836
0.06047683
0.06003369
0.05940520
0.05803255
0.05733879
0.05677628
0.05642789
0.05577052
0.05533380
0.05431709
0.05355917
0.05274006
0.05179491
0.05110291
0.05036401
0.04960465
0.04875441
0.04798770
0.04712341
0.04621889
0.04547826
0.04477195
0.04401807
0.04341318
0.04269212
0.04193460
0.04125824
0.04077009
0.04014914
0.03956597
0.03918431
0.03877715
0.03824574
0.03759018
0.03694804
0.03639533
0.03588809
0.03537010
0.03482969
0.03432131
0.03374941
0.03317442
0.03259111
0.03203823
0.03146420
0.03086694
0.03027987
0.02973732
0.02918151
0.02863612
0.02817040
0.02769442
0.02721947
0.02691951
0.02795943
0.03038729
0.03284953
0.03510694
0.03704879
0.03839640
0.03952236
0.04044256
0.04049056
0.04019102
0.03959953
0.03988539
0.03983502
0.03828243
0.03833622
0.04210412
0.03154681
0.02319248
0.03398968
0.04547119
0.04814581
0.06763750
0.08478626
0.06165111
0.04522462
0.04111012
0.03572587
0.02938588
0.02531415
0.02324424
0.02224870
0.02238134
0.02303473
0.02386221
0.02416567
0.02471211
0.02495515
0.02531291
0.02618479
0.02773068
0.02951866
0.03202947
0.03545916
0.03920379
0.04265822
0.04554510
0.04830157
0.05079966
0.05297028
0.05489681
0.05616694
0.05763596
0.05880180
0.05967610
0.06035654
0.06104425
0.06175317
0.06202896
0.06242152
0.06265060
0.06291578
0.06327714
0.06278293
0.06263634
0.06313632
0.06305004
0.06272029
0.06227136
0.06166221
0.06026370
0.05957762
0.05904539
0.05871727
0.05802127
0.05760435
0.05656588
0.05578242
0.05497429
0.05400068
0.05325829
0.05247419
0.05167622
0.05083914
0.05000681
0.04915787
0.04826076
0.04748873
0.04674189
0.04597512
0.04534251
0.04463474
0.04388120
0.04315171
0.04263153
0.04197245
0.04136984
0.04093596
0.04049621
0.03995535
0.03929096
0.03863723
0.03805606
0.03752678
0.03699684
0.03644286
0.03593294
0.03536876
0.03479224
0.03419435
0.03360618
0.03300439
0.03240545
0.03180290
0.03125422
0.03071520
0.03017686
0.02973161
0.02928548
0.02887807
0.02860939
0.02944444
0.03152678
0.03384159
0.03609037
0.03808576
0.03967089
0.04089292
0.04249084
0.04254525
0.04320148
0.04289718
0.04326408
0.04253442
0.04256818
0.04290622
0.04523531
0.03729172
0.03095319
0.03916853
0.05157876
0.05704140
0.07652013
0.09303771
0.07079785
0.05084528
0.04327144
0.03737254
0.03094817
0.02674973
0.02467837
0.02343381
0.02355133
0.02415214
0.02471357
0.02484992
0.02519678
0.02547029
0.02590746
0.02684810
0.02844101
0.03040129
0.03312427
0.03666955
0.04055736
0.04409039
0.04706870
0.04992666
0.05245986
0.05470568
0.05662294
0.05783992
0.05931069
0.06058936
0.06149078
0.06227699
0.06293346
0.06373733
0.06397129
0.06435783
0.06452896
0.06475782
0.06510221
0.06458027
0.06450040
0.06507516
0.06498211
0.06461824
0.06418932
0.06356951
0.06216973
0.06148969
0.06097351
0.06064188
0.05993445
0.05952012
0.05845703
0.05764266
0.05685918
0.05588337
0.05507751
0.05426456
0.05343220
0.05260550
0.05171716
0.05088341
0.04997589
0.04919192
0.04840665
0.04763117
0.04697586
0.04628494
0.04553352
0.04475691
0.04421733
0.04351047
0.04289336
0.04239810
0.04192914
0.04138276
0.04071513
0.04004636
0.03945345
0.03889430
0.03835011
0.03779852
0.03727593
0.03671755
0.03614112
0.03553837
0.03491801
0.03429284
0.03368667
0.03306443
0.03250406
0.03198673
0.03145334
0.03101643
0.03059969
0.03024586
0.03001150
0.03068869
0.03245385
0.03461982
0.03678407
0.03882367
0.04059632
0.04228123
0.04354635
0.04401460
0.04442221
0.04467724
0.04542943
0.04426321
0.04449620
0.04607605
0.04875456
0.04517795
0.03848430
0.04360333
0.05607356
0.06605494
0.08518816
0.10052731
0.08026024
0.05509470
0.04590383
0.03885520
0.03217244
0.02822225
0.02563410
0.02445621
0.02440490
0.02493202
0.02527602
0.02542307
0.02556259
0.02586312
0.02635204
0.02740789
0.02910840
0.03122194
0.03412992
0.03779799
0.04182757
0.04543897
0.04851114
0.05146955
0.05404252
0.05634650
0.05823208
0.05941761
0.06086943
0.06226022
0.06316729
0.06406457
0.06467837
0.06555919
0.06575844
0.06612245
0.06622224
0.06642306
0.06671748
0.06615167
0.06615405
0.06677830
0.06667335
0.06626588
0.06586103
0.06520459
0.06384068
0.06316300
0.06263572
0.06228768
0.06158033
0.06115693
0.06006683
0.05924605
0.05847502
0.05750725
0.05663362
0.05580264
0.05495167
0.05412376
0.05318527
0.05236939
0.05144863
0.05064554
0.04984538
0.04904895
0.04838047
0.04770866
0.04696368
0.04614692
0.04557056
0.04483723
0.04420285
0.04365817
0.04314679
0.04259314
0.04192540
0.04125112
0.04064093
0.04006437
0.03950066
0.03894716
0.03840759
0.03785980
0.03728079
0.03668087
0.03603269
0.03539332
0.03477550
0.03414243
0.03357258
0.03307302
0.03254427
0.03208602
0.03168941
0.03138401
0.03118001
0.03172089
0.03322518
0.03520632
0.03736333
0.03942039
0.04134577
0.04323846
0.04433720
0.04567375
0.04566522
0.04636748
0.04745676
0.04728207
0.04810218
0.04929360
0.05223855
0.05271505
0.04510050
0.04702493
0.05919437
0.07388680
0.09315968
0.10724409
0.08981425
0.05957738
0.04881244
0.04028911
0.03369103
0.02914188
0.02652670
0.02534042
0.02522661
0.02560813
0.02572611
0.02582255
0.02588201
0.02614914
0.02674537
0.02790984
0.02971774
0.03200723
0.03508035
0.03888253
0.04304707
0.04672538
0.04990560
0.05296671
0.05558115
0.05791499
0.05976731
0.06094788
0.06237619
0.06384392
0.06476674
0.06575664
0.06634160
0.06724995
0.06741324
0.06777133
0.06778612
0.06796439
0.06819508
0.06757168
0.06766555
0.06830849
0.06818068
0.06772483
0.06733872
0.06663948
0.06533870
0.06465585
0.06409114
0.06371517
0.06300690
0.06255749
0.06146432
0.06064832
0.05989100
0.05892683
0.05799579
0.05715861
0.05628701
0.05543858
0.05448140
0.05367404
0.05272507
0.05191075
0.05110816
0.05029260
0.04960947
0.04894485
0.04821030
0.04736160
0.04673120
0.04599755
0.04534661
0.04476374
0.04420078
0.04364356
0.04297567
0.04229510
0.04167545
0.04108227
0.04049898
0.03994475
0.03938149
0.03884312
0.03825527
0.03766010
0.03699227
0.03634503
0.03571768
0.03507417
0.03449668
0.03400174
0.03347856
0.03300825
0.03262604
0.03234405
0.03215608
0.03258941
0.03388025
0.03570069
0.03780869
0.03984374
0.04190207
0.04355268
0.04492924
0.04674246
0.04686467
0.04732185
0.04846976
0.04926419
0.04997336
0.05181239
0.05349466
0.05602137
0.05026019
0.04967903
0.06049727
0.07995108
0.10012521
0.11364852
0.09914334
0.06459456
0.05145973
0.04202576
0.03492259
0.03025640
0.02743898
0.02612774
0.02591758
0.02604891
0.02602941
0.02607223
0.02614310
0.02639948
0.02710937
0.02840984
0.03031994
0.03277297
0.03600843
0.03995175
0.04424328
0.04797704
0.05128039
0.05443859
0.05710287
0.05944221
0.06126336
0.06244992
0.06387857
0.06537139
0.06632196
0.06739040
0.06795232
0.06883092
0.06896984
0.06935164
0.06927716
0.06942146
0.06955156
0.06889012
0.06907739
0.06969569
0.06954019
0.06904406
0.06865785
0.06791133
0.06670209
0.06600663
0.06539445
0.06497495
0.06425820
0.06377152
0.06270056
0.06190624
0.06116470
0.06019453
0.05921160
0.05837591
0.05748732
0.05659832
0.05564463
0.05482630
0.05386223
0.05304370
0.05224444
0.05140290
0.05069903
0.05003517
0.04930527
0.04842893
0.04773366
0.04702244
0.04635576
0.04574359
0.04513792
0.04456072
0.04388868
0.04320260
0.04258279
0.04197414
0.04137987
0.04082268
0.04023984
0.03970052
0.03909799
0.03849672
0.03781953
0.03717365
0.03655193
0.03590128
0.03531249
0.03481363
0.03429425
0.03381287
0.03344076
0.03317294
0.03298531
0.03332803
0.03443710
0.03607899
0.03806309
0.04011272
0.04211915
0.04380807
0.04561127
0.04725945
0.04813653
0.04845687
0.04915812
0.05091406
0.05243045
0.05308199
0.05560030
0.05746094
0.05393940
0.05144581
0.06025583
0.08425281
0.10595245
0.11943247
0.10827718
0.07094501
0.05415689
0.04389689
0.03627149
0.03119315
0.02826049
0.02683588
0.02642217
0.02634078
0.02630376
0.02625490
0.02636247
0.02667360
0.02747629
0.02890123
0.03091176
0.03354226
0.03693591
0.04103528
0.04542955
0.04922287
0.05264682
0.05588579
0.05862555
0.06095725
0.06275127
0.06393357
0.06539085
0.06687013
0.06785533
0.06897629
0.06953208
0.07034452
0.07046204
0.07088481
0.07073789
0.07081656
0.07080909
0.07016999
0.07042133
0.07097380
0.07079476
0.07028024
0.06986552
0.06907611
0.06796105
0.06724673
0.06659121
0.06611762
0.06537364
0.06485216
0.06382526
0.06306576
0.06233191
0.06133072
0.06030661
0.05948300
0.05859067
0.05763006
0.05669691
0.05585513
0.05489191
0.05407817
0.05327797
0.05241409
0.05167904
0.05100700
0.05027055
0.04937778
0.04861971
0.04794285
0.04724918
0.04661975
0.04598077
0.04536864
0.04469938
0.04400303
0.04337888
0.04277133
0.04217027
0.04160641
0.04100881
0.04045932
0.03983639
0.03921883
0.03854041
0.03789771
0.03728581
0.03664754
0.03604047
0.03552533
0.03501718
0.03452873
0.03415744
0.03389225
0.03370524
0.03397113
0.03491742
0.03639458
0.03830399
0.04029301
0.04218753
0.04413585
0.04610224
0.04732713
0.04921969
0.04980427
0.05029763
0.05150204
0.05367199
0.05376527
0.05623695
0.05696665
0.05631977
0.05275502
0.05936187
0.08663409
0.10945642
0.12429206
0.11663476
0.07805492
0.05752401
0.04579827
0.03753341
0.03216752
0.02902142
0.02748910
0.02681867
0.02665055
0.02655971
0.02639800
0.02652458
0.02692204
0.02784936
0.02940153
0.03152914
0.03432510
0.03788482
0.04214445
0.04661080
0.05048772
0.05402545
0.05732678
0.06014480
0.06247122
0.06425540
0.06542116
0.06691268
0.06836582
0.06939579
0.07054089
0.07110004
0.07183296
0.07192501
0.07237614
0.07218909
0.07218096
0.07201078
0.07146362
0.07172260
0.07217806
0.07199063
0.07146253
0.07100003
0.07017086
0.06913305
0.06841282
0.06773695
0.06717663
0.06640271
0.06584682
0.06486572
0.06415655
0.06342196
0.06237565
0.06131403
0.06049879
0.05960144
0.05857018
0.05765404
0.05679843
0.05583229
0.05503240
0.05422662
0.05335220
0.05256973
0.05187713
0.05112734
0.05022807
0.04943035
0.04877596
0.04805260
0.04741204
0.04674264
0.04609960
0.04542738
0.04472201
0.04408001
0.04348955
0.04288883
0.04231828
0.04170298
0.04113179
0.04049004
0.03985062
0.03918235
0.03853627
0.03793532
0.03731772
0.03669869
0.03616283
0.03566338
0.03517319
0.03479013
0.03452233
0.03434046
0.03453813
0.03534479
0.03665099
0.03844722
0.04040093
0.04236766
0.04438772
0.04631525
0.04752739
0.04950707
0.05086254
0.05123859
0.05203408
0.05401485
0.05501485
0.05642991
0.05948589
0.05792768
0.05400840
0.05748750
0.08594674
0.11048968
0.12789673
0.12422270
0.08542228
0.06170052
0.04798356
0.03891732
0.03319237
0.02985383
0.02800488
0.02724581
0.02692147
0.02672542
0.02658484
0.02668927
0.02716989
0.02823898
0.02993595
0.03215697
0.03513423
0.03887873
0.04328380
0.04780290
0.05178412
0.05544628
0.05878688
0.06167172
0.06401623
0.06579017
0.06692887
0.06845811
0.06989263
0.07096076
0.07209933
0.07266639
0.07332003
0.07338982
0.07383210
0.07364292
0.07355577
0.07323415
0.07278382
0.07299120
0.07334739
0.07316395
0.07260564
0.07208799
0.07121435
0.07025919
0.06955094
0.06883704
0.06817969
0.06736941
0.06677185
0.06586591
0.06520025
0.06445946
0.06336385
0.06226872
0.06145577
0.06053834
0.05944877
0.05854916
0.05769794
0.05671356
0.05591720
0.05510890
0.05422876
0.05339378
0.05267652
0.05190633
0.05100752
0.05019023
0.04953699
0.04878906
0.04812855
0.04743767
0.04677398
0.04608981
0.04537948
0.04471332
0.04414115
0.04354927
0.04296742
0.04233218
0.04173418
0.04107899
0.04042252
0.03976992
0.03911373
0.03851908
0.03792471
0.03730552
0.03675090
0.03624929
0.03575942
0.03535522
0.03508324
0.03490296
0.03504586
0.03573441
0.03688952
0.03856191
0.04048188
0.04244877
0.04454857
0.04633381
0.04794591
0.04952722
0.05116396
0.05249830
0.05209975
0.05432161
0.05612692
0.05681700
0.05846724
0.05837897
0.05525460
0.05580793
0.08301462
0.10963518
0.12969810
0.13087517
0.09334408
0.06621034
0.05043970
0.04052460
0.03437746
0.03064268
0.02858357
0.02764960
0.02717757
0.02687397
0.02674359
0.02691047
0.02745421
0.02865781
0.03050845
0.03282394
0.03597541
0.03991218
0.04445809
0.04903732
0.05311440
0.05689759
0.06029530
0.06322288
0.06559275
0.06735213
0.06847168
0.07004700
0.07146252
0.07257111
0.07367047
0.07425031
0.07482817
0.07487316
0.07529150
0.07511283
0.07496572
0.07450667
0.07413826
0.07425276
0.07451399
0.07432971
0.07373469
0.07313149
0.07225268
0.07137096
0.07068922
0.06990232
0.06916510
0.06830479
0.06766304
0.06685093
0.06620394
0.06545830
0.06431579
0.06319089
0.06237120
0.06142575
0.06028696
0.05941397
0.05856345
0.05755976
0.05675172
0.05593588
0.05504326
0.05417161
0.05343136
0.05263284
0.05174281
0.05091608
0.05024201
0.04948052
0.04878163
0.04808844
0.04740325
0.04671382
0.04598701
0.04530638
0.04473914
0.04415980
0.04356322
0.04290711
0.04227844
0.04161294
0.04094551
0.04030938
0.03965329
0.03905548
0.03847936
0.03787323
0.03729602
0.03678273
0.03629524
0.03587219
0.03558802
0.03540724
0.03550390
0.03610100
0.03710476
0.03866400
0.04053690
0.04244929
0.04439074
0.04640082
0.04821699
0.04946857
0.05103122
0.05292956
0.05304286
0.05413293
0.05681075
0.05757649
0.05788392
0.05941903
0.05626160
0.05518207
0.07882620
0.10661444
0.12982090
0.13631263
0.10161841
0.07113249
0.05330002
0.04230460
0.03561602
0.03142979
0.02917352
0.02807152
0.02744033
0.02703616
0.02690575
0.02714188
0.02778353
0.02912008
0.03110921
0.03353059
0.03685687
0.04097254
0.04567009
0.05032118
0.05448840
0.05838244
0.06185069
0.06482777
0.06718729
0.06895001
0.07007757
0.07168238
0.07305780
0.07424769
0.07528000
0.07586765
0.07639071
0.07640045
0.07677574
0.07661783
0.07639942
0.07583115
0.07552510
0.07554162
0.07569645
0.07551716
0.07486059
0.07416298
0.07332740
0.07250732
0.07183907
0.07096226
0.07016846
0.06924724
0.06857117
0.06784659
0.06719409
0.06644525
0.06524175
0.06410434
0.06325527
0.06226932
0.06109684
0.06026209
0.05939958
0.05839247
0.05756143
0.05671168
0.05580635
0.05490983
0.05414273
0.05332501
0.05245848
0.05162488
0.05091382
0.05013668
0.04939422
0.04871033
0.04799311
0.04730524
0.04656331
0.04587180
0.04530460
0.04472345
0.04410779
0.04343734
0.04277718
0.04210058
0.04143705
0.04081037
0.04017041
0.03956085
0.03900002
0.03839950
0.03780309
0.03727501
0.03678748
0.03635013
0.03604873
0.03586904
0.03592440
0.03644604
0.03732797
0.03876177
0.04056521
0.04246592
0.04443235
0.04655455
0.04824166
0.04968568
0.05097422
0.05275111
0.05378517
0.05408556
0.05708741
0.05861608
0.05851498
0.05967521
0.05697672
0.05498959
0.07373653
0.10170640
0.12798398
0.14038250
0.11049883
0.07658960
0.05649829
0.04427033
0.03686607
0.03228991
0.02980128
0.02851243
0.02770477
0.02723944
0.02711058
0.02739928
0.02814104
0.02962566
0.03174990
0.03428647
0.03778799
0.04206255
0.04692752
0.05165617
0.05593257
0.05993244
0.06346303
0.06652267
0.06882280
0.07057723
0.07177090
0.07335059
0.07471341
0.07598900
0.07695605
0.07755098
0.07801369
0.07798765
0.07829190
0.07816607
0.07786755
0.07722378
0.07691301
0.07686733
0.07693090
0.07675052
0.07599835
0.07522832
0.07445517
0.07369785
0.07300906
0.07204229
0.07121760
0.07020581
0.06952833
0.06886076
0.06819396
0.06742774
0.06615885
0.06502706
0.06410745
0.06308636
0.06189500
0.06108700
0.06022198
0.05922484
0.05836230
0.05745876
0.05653577
0.05562323
0.05482747
0.05400530
0.05315922
0.05232694
0.05156269
0.05076948
0.04998437
0.04930178
0.04855868
0.04786894
0.04712530
0.04641701
0.04584889
0.04524811
0.04460960
0.04393453
0.04324667
0.04256436
0.04190718
0.04128910
0.04066760
0.04004890
0.03949011
0.03888478
0.03827441
0.03774185
0.03725221
0.03680141
0.03648021
0.03629594
0.03631805
0.03677801
0.03756517
0.03886858
0.04058994
0.04250152
0.04451813
0.04649730
0.04812368
0.04976093
0.05106745
0.05256531
0.05445114
0.05530773
0.05725994
0.05926815
0.06044136
0.05955207
0.05747703
0.05519806
0.06899694
0.09580330
0.12441017
0.14312341
0.11945347
0.08242182
0.06010306
0.04650422
0.03828267
0.03324025
0.03051448
0.02897464
0.02801257
0.02748041
0.02737709
0.02769688
0.02855477
0.03019038
0.03242674
0.03510473
0.03877631
0.04319956
0.04822447
0.05303861
0.05745418
0.06156401
0.06516951
0.06827758
0.07051018
0.07224968
0.07355347
0.07507576
0.07647306
0.07780471
0.07869764
0.07931202
0.07969705
0.07962631
0.07986815
0.07975551
0.07940408
0.07869211
0.07833310
0.07823785
0.07824639
0.07802404
0.07718156
0.07637102
0.07564332
0.07494389
0.07420365
0.07317619
0.07231955
0.07122577
0.07053669
0.06989379
0.06921472
0.06841909
0.06707619
0.06594011
0.06493721
0.06388637
0.06269100
0.06188535
0.06103799
0.06004340
0.05915173
0.05820454
0.05725135
0.05631954
0.05550877
0.05467484
0.05384134
0.05302368
0.05220599
0.05138712
0.05057410
0.04986866
0.04911033
0.04841359
0.04768174
0.04695855
0.04636941
0.04574585
0.04508302
0.04441029
0.04370996
0.04301532
0.04236671
0.04175352
0.04114981
0.04052108
0.03994857
0.03934124
0.03872763
0.03819183
0.03769298
0.03723161
0.03689101
0.03669878
0.03670314
0.03709933
0.03781664
0.03899503
0.04059981
0.04243531
0.04439530
0.04623828
0.04813449
0.04975023
0.05119626
0.05255356
0.05468022
0.05606599
0.05742139
0.05886697
0.05933630
0.05956232
0.05775021
0.05548866
0.06487368
0.08909738
0.11961306
0.14449253
0.12851817
0.08890479
0.06419918
0.04908199
0.03992920
0.03433205
0.03127334
0.02950917
0.02837803
0.02777297
0.02769478
0.02806055
0.02903673
0.03080530
0.03316407
0.03598559
0.03982285
0.04439447
0.04958842
0.05448980
0.05903134
0.06325186
0.06696157
0.07008033
0.07227345
0.07401941
0.07539922
0.07689850
0.07834339
0.07969657
0.08049273
0.08113548
0.08144664
0.08134969
0.08151203
0.08140582
0.08101958
0.08024896
0.07982850
0.07968318
0.07964238
0.07932630
0.07842932
0.07757461
0.07687907
0.07621956
0.07541175
0.07439404
0.07346316
0.07233373
0.07159426
0.07094480
0.07025247
0.06942034
0.06800543
0.06684763
0.06578028
0.06468648
0.06349485
0.06266665
0.06183253
0.06083969
0.05993040
0.05895461
0.05796750
0.05701619
0.05619279
0.05532622
0.05452040
0.05370506
0.05284684
0.05200157
0.05117713
0.05042980
0.04965244
0.04895186
0.04823878
0.04749394
0.04686150
0.04622702
0.04554593
0.04487406
0.04417305
0.04346084
0.04282344
0.04220522
0.04161839
0.04098160
0.04038179
0.03978313
0.03917348
0.03862740
0.03810773
0.03764700
0.03729033
0.03708243
0.03707735
0.03741722
0.03808302
0.03913968
0.04064920
0.04238371
0.04429347
0.04614092
0.04795837
0.04962915
0.05121126
0.05251541
0.05453714
0.05664762
0.05764539
0.05842682
0.06129973
0.06000414
0.05800668
0.05580906
0.06159752
0.08264424
0.11368720
0.14435355
0.13707665
0.09591537
0.06881307
0.05201975
0.04176633
0.03560179
0.03213228
0.03013361
0.02881510
0.02813760
0.02807050
0.02848475
0.02957617
0.03146857
0.03397226
0.03693844
0.04091704
0.04566298
0.05099540