/*--------------------------------*- C++ -*----------------------------------*\
  =========                 |
  \\      /  F ield         | OpenFOAM: The Open Source CFD Toolbox
   \\    /   O peration     | Website:  https://openfoam.org
    \\  /    A nd           | Version:  7
     \\/     M anipulation  |
\*---------------------------------------------------------------------------*/
FoamFile
{
    version     2.0;
    format      ascii;
    class       volSymmTensorField;
    location    "0";
    object      tauij_LES;
}
// * * * * * * * * * * * * * * * * * * * * * * * * * * * * * * * * * * * * * //

dimensions      [0 2 -2 0 0 0 0];

internalField   nonuniform List<symmTensor>
15600
(
(0.00927599 -0.00014016 0.00000000 0.00004475 0.00000000 0.00548185)
(0.00912120 0.00000598 0.00000000 -0.00004660 0.00000000 0.00532570)
(0.00257979 -0.00032319 0.00000000 0.00060696 0.00000000 0.00827087)
(-0.00019291 -0.00063872 0.00000000 0.00043274 0.00000000 0.00474767)
(0.00238455 -0.00191577 0.00000000 0.00134531 0.00000000 0.00316554)
(0.00469167 -0.00363197 0.00000000 0.00279838 0.00000000 0.00602695)
(0.00137462 -0.00104760 0.00000000 0.00077939 0.00000000 0.00178983)
(0.00139694 -0.00105060 0.00000000 0.00079703 0.00000000 0.00196765)
(0.00072086 -0.00052631 0.00000000 0.00038918 0.00000000 0.00111549)
(0.00102029 -0.00072550 0.00000000 0.00051308 0.00000000 0.00125408)
(0.00087011 -0.00060378 0.00000000 0.00041686 0.00000000 0.00098434)
(0.00072342 -0.00044845 0.00000000 0.00025987 0.00000000 0.00064838)
(0.00061815 -0.00045004 0.00000000 0.00032041 0.00000000 0.00147346)
(0.00048144 -0.00030603 0.00000000 0.00019779 0.00000000 0.00072612)
(0.00041066 -0.00058651 0.00000000 0.00071915 0.00000000 0.00200161)
(0.00046522 -0.00027463 0.00000000 0.00015674 0.00000000 0.00059642)
(0.00073072 -0.00040924 0.00000000 0.00022909 0.00000000 0.00088829)
(0.00130006 -0.00068135 0.00000000 0.00036534 0.00000000 0.00200369)
(0.00231706 -0.00105550 0.00000000 0.00048366 0.00000000 0.00267987)
(0.00251519 -0.00084976 0.00000000 0.00032523 0.00000000 0.00407518)
(0.00411419 -0.00021254 0.00000000 0.00005033 0.00000000 0.00455836)
(0.00245254 0.00000683 0.00000000 -0.00001130 0.00000000 0.00195602)
(0.00286700 0.00001210 0.00000000 -0.00000914 0.00000000 0.00235029)
(0.00316433 0.00001355 0.00000000 -0.00001583 0.00000000 0.00281105)
(0.00344555 0.00001777 0.00000000 -0.00001984 0.00000000 0.00324350)
(0.00363798 0.00001950 0.00000000 -0.00002687 0.00000000 0.00363052)
(0.00387874 0.00001996 0.00000000 -0.00002953 0.00000000 0.00399596)
(0.00420616 0.00002331 0.00000000 -0.00001261 0.00000000 0.00445229)
(0.00426736 0.00002288 0.00000000 -0.00003038 0.00000000 0.00464767)
(0.00438880 0.00002212 0.00000000 -0.00002545 0.00000000 0.00482762)
(0.00450250 0.00002258 0.00000000 -0.00003627 0.00000000 0.00497174)
(0.00461655 0.00002200 0.00000000 -0.00003667 0.00000000 0.00517042)
(0.00469376 0.00002133 0.00000000 -0.00003920 0.00000000 0.00536130)
(0.00479166 0.00002123 0.00000000 -0.00003434 0.00000000 0.00548406)
(0.00473976 0.00002018 0.00000000 -0.00004055 0.00000000 0.00548638)
(0.00458847 0.00001752 0.00000000 -0.00003980 0.00000000 0.00547581)
(0.00458155 0.00001628 0.00000000 -0.00003930 0.00000000 0.00539391)
(0.00463146 0.00001312 0.00000000 -0.00002888 0.00000000 0.00546335)
(0.00450344 0.00001314 0.00000000 -0.00003657 0.00000000 0.00541506)
(0.00463154 0.00001137 0.00000000 -0.00003682 0.00000000 0.00537178)
(0.00459878 0.00001102 0.00000000 -0.00003391 0.00000000 0.00534697)
(0.00444417 0.00000833 0.00000000 -0.00002952 0.00000000 0.00526440)
(0.00433864 0.00000704 0.00000000 -0.00002819 0.00000000 0.00515126)
(0.00425864 0.00000566 0.00000000 -0.00002949 0.00000000 0.00499859)
(0.00413101 0.00000545 0.00000000 -0.00002866 0.00000000 0.00492684)
(0.00403241 0.00000289 0.00000000 -0.00002726 0.00000000 0.00481177)
(0.00390869 0.00000390 0.00000000 -0.00002675 0.00000000 0.00461841)
(0.00384796 0.00000286 0.00000000 -0.00002700 0.00000000 0.00449403)
(0.00368380 0.00000167 0.00000000 -0.00002495 0.00000000 0.00430252)
(0.00358771 0.00000195 0.00000000 -0.00002266 0.00000000 0.00425020)
(0.00341847 0.00000219 0.00000000 -0.00002436 0.00000000 0.00414638)
(0.00334793 -0.00000069 0.00000000 -0.00002058 0.00000000 0.00406038)
(0.00323648 0.00000097 0.00000000 -0.00002356 0.00000000 0.00390541)
(0.00308316 0.00000184 0.00000000 -0.00002416 0.00000000 0.00378703)
(0.00299961 -0.00000180 0.00000000 -0.00001804 0.00000000 0.00363984)
(0.00293800 -0.00000218 0.00000000 -0.00001660 0.00000000 0.00352690)
(0.00276711 -0.00000169 0.00000000 -0.00001736 0.00000000 0.00340493)
(0.00265135 -0.00000122 0.00000000 -0.00001777 0.00000000 0.00329220)
(0.00255729 0.00000107 0.00000000 -0.00001945 0.00000000 0.00315384)
(0.00252104 0.00000166 0.00000000 -0.00001857 0.00000000 0.00306886)
(0.00246634 0.00000118 0.00000000 -0.00001724 0.00000000 0.00296466)
(0.00235406 0.00000074 0.00000000 -0.00001609 0.00000000 0.00289412)
(0.00231105 -0.00000428 0.00000000 -0.00000930 0.00000000 0.00287135)
(0.00216381 0.00000026 0.00000000 -0.00001425 0.00000000 0.00271299)
(0.00216518 -0.00000606 0.00000000 -0.00000687 0.00000000 0.00270192)
(0.00197117 0.00000086 0.00000000 -0.00001320 0.00000000 0.00251190)
(0.00192977 -0.00000021 0.00000000 -0.00001157 0.00000000 0.00242551)
(0.00190134 -0.00000119 0.00000000 -0.00001020 0.00000000 0.00234707)
(0.00185569 -0.00000078 0.00000000 -0.00000996 0.00000000 0.00227442)
(0.00178387 -0.00000040 0.00000000 -0.00000999 0.00000000 0.00219631)
(0.00166246 0.00000074 0.00000000 -0.00001008 0.00000000 0.00210153)
(0.00165083 0.00000020 0.00000000 -0.00000922 0.00000000 0.00203955)
(0.00160173 0.00000067 0.00000000 -0.00000919 0.00000000 0.00200098)
(0.00156569 0.00000085 0.00000000 -0.00000892 0.00000000 0.00194926)
(0.00151460 0.00000061 0.00000000 -0.00000864 0.00000000 0.00192265)
(0.00152269 -0.00000046 0.00000000 -0.00000792 0.00000000 0.00189671)
(0.00147588 0.00000083 0.00000000 -0.00000822 0.00000000 0.00183462)
(0.00144214 0.00000101 0.00000000 -0.00000810 0.00000000 0.00178800)
(0.00140500 0.00000030 0.00000000 -0.00000726 0.00000000 0.00172612)
(0.00137842 -0.00000040 0.00000000 -0.00000632 0.00000000 0.00167120)
(0.00130833 0.00000055 0.00000000 -0.00000655 0.00000000 0.00160896)
(0.00126832 0.00000011 0.00000000 -0.00000586 0.00000000 0.00156995)
(0.00119649 0.00000235 0.00000000 -0.00000694 0.00000000 0.00149349)
(0.00116323 0.00000290 0.00000000 -0.00000695 0.00000000 0.00143002)
(0.00117508 0.00000061 0.00000000 -0.00000544 0.00000000 0.00140986)
(0.00111988 0.00000197 0.00000000 -0.00000597 0.00000000 0.00134945)
(0.00106461 0.00000259 0.00000000 -0.00000605 0.00000000 0.00130038)
(0.00102273 0.00000253 0.00000000 -0.00000577 0.00000000 0.00126305)
(0.00096222 0.00000355 0.00000000 -0.00000602 0.00000000 0.00121952)
(0.00098760 -0.00000014 0.00000000 -0.00000380 0.00000000 0.00123136)
(0.00089564 0.00000267 0.00000000 -0.00000520 0.00000000 0.00115622)
(0.00084901 0.00000280 0.00000000 -0.00000509 0.00000000 0.00111588)
(0.00083901 0.00000156 0.00000000 -0.00000427 0.00000000 0.00110383)
(0.00080637 0.00000128 0.00000000 -0.00000400 0.00000000 0.00108392)
(0.00081005 -0.00000113 0.00000000 -0.00000218 0.00000000 0.00110611)
(0.00068564 0.00000316 0.00000000 -0.00000491 0.00000000 0.00104014)
(0.00067243 0.00000183 0.00000000 -0.00000405 0.00000000 0.00106972)
(0.00063270 0.00000285 0.00000000 -0.00000502 0.00000000 0.00110365)
(0.00069565 0.00000247 0.00000000 -0.00000490 0.00000000 0.00130691)
(0.00160111 0.00012614 0.00000000 0.00004907 0.00000000 0.00535669)
(0.00065641 0.00008465 0.00000000 0.00001121 0.00000000 0.00195854)
(0.00027546 -0.00000368 0.00000000 -0.00003609 0.00000000 0.00085908)
(-0.00002024 -0.00000177 0.00000000 0.00000120 0.00000000 -0.00004510)
(-0.00011823 -0.00003105 0.00000000 -0.00000632 0.00000000 -0.00027347)
(-0.00008649 -0.00005152 0.00000000 -0.00002890 0.00000000 -0.00030331)
(-0.00011334 -0.00011574 0.00000000 -0.00011434 0.00000000 -0.00081921)
(-0.00008094 -0.00005107 0.00000000 -0.00003161 0.00000000 -0.00038095)
(-0.00010309 -0.00008311 0.00000000 -0.00007109 0.00000000 0.00002053)
(-0.00014890 -0.00009514 0.00000000 -0.00006112 0.00000000 -0.00029169)
(-0.00022676 -0.00014654 0.00000000 -0.00010275 0.00000000 -0.00051775)
(-0.00004434 -0.00002603 0.00000000 -0.00001445 0.00000000 -0.00032045)
(-0.00021469 -0.00015270 0.00000000 -0.00011296 0.00000000 -0.00042741)
(-0.00001808 -0.00001061 0.00000000 -0.00000475 0.00000000 -0.00023789)
(-0.00015531 -0.00012240 0.00000000 -0.00009431 0.00000000 -0.00063884)
(-0.00014204 -0.00009817 0.00000000 -0.00007159 0.00000000 -0.00053253)
(-0.00019024 -0.00012448 0.00000000 -0.00008687 0.00000000 -0.00080190)
(-0.00048215 -0.00025748 0.00000000 -0.00012956 0.00000000 -0.00111940)
(-0.00254376 -0.00018013 0.00000000 0.00004575 0.00000000 -0.00062398)
(-0.00070589 -0.00007771 0.00000000 0.00000807 0.00000000 0.00081018)
(0.00417592 -0.00002705 0.00000000 0.00001430 0.00000000 0.00324785)
(0.01364860 -0.00028375 0.00000000 0.00014390 0.00000000 0.00745532)
(0.01554289 -0.00018088 0.00000000 0.00009830 0.00000000 0.00849474)
(0.00453977 -0.00117524 0.00000000 0.00119063 0.00000000 0.01140185)
(0.00128875 -0.00137049 0.00000000 0.00096731 0.00000000 0.00686177)
(0.00434132 -0.00341781 0.00000000 0.00256487 0.00000000 0.00587684)
(0.00759261 -0.00581149 0.00000000 0.00469276 0.00000000 0.00989380)
(0.00324941 -0.00244120 0.00000000 0.00189853 0.00000000 0.00406656)
(0.00304676 -0.00229277 0.00000000 0.00178802 0.00000000 0.00425880)
(0.00172853 -0.00126652 0.00000000 0.00094548 0.00000000 0.00255493)
(0.00209162 -0.00148847 0.00000000 0.00107356 0.00000000 0.00257653)
(0.00195340 -0.00135453 0.00000000 0.00095098 0.00000000 0.00221754)
(0.00205914 -0.00138773 0.00000000 0.00093937 0.00000000 0.00192315)
(0.00187545 -0.00162124 0.00000000 0.00146995 0.00000000 0.00359995)
(0.00286131 -0.00187177 0.00000000 0.00124197 0.00000000 0.00311799)
(0.00282031 -0.00260651 0.00000000 0.00250038 0.00000000 0.00452788)
(0.00342414 -0.00199530 0.00000000 0.00119845 0.00000000 0.00351920)
(0.00439296 -0.00247942 0.00000000 0.00144091 0.00000000 0.00425845)
(0.00613213 -0.00300797 0.00000000 0.00159541 0.00000000 0.00689122)
(0.00731150 -0.00252033 0.00000000 0.00105612 0.00000000 0.00750031)
(0.00821653 -0.00203219 0.00000000 0.00076020 0.00000000 0.00901761)
(0.00993977 -0.00051554 0.00000000 0.00029518 0.00000000 0.00948213)
(0.00858980 0.00002807 0.00000000 0.00009470 0.00000000 0.00676368)
(0.00991577 0.00006493 0.00000000 0.00011513 0.00000000 0.00821484)
(0.01082913 0.00007108 0.00000000 0.00013580 0.00000000 0.00979832)
(0.01159499 0.00008592 0.00000000 0.00016784 0.00000000 0.01123223)
(0.01215942 0.00008507 0.00000000 0.00017341 0.00000000 0.01251528)
(0.01287966 0.00008290 0.00000000 0.00018792 0.00000000 0.01376603)
(0.01360084 0.00008530 0.00000000 0.00021714 0.00000000 0.01491901)
(0.01391628 0.00007570 0.00000000 0.00021071 0.00000000 0.01562132)
(0.01437809 0.00006881 0.00000000 0.00023869 0.00000000 0.01625518)
(0.01472337 0.00006402 0.00000000 0.00023522 0.00000000 0.01673509)
(0.01500433 0.00005681 0.00000000 0.00023411 0.00000000 0.01731481)
(0.01520038 0.00003946 0.00000000 0.00025197 0.00000000 0.01790149)
(0.01532387 0.00003611 0.00000000 0.00026072 0.00000000 0.01811427)
(0.01530777 0.00002759 0.00000000 0.00025608 0.00000000 0.01830864)
(0.01496066 0.00002266 0.00000000 0.00025272 0.00000000 0.01832389)
(0.01490302 -0.00000227 0.00000000 0.00025299 0.00000000 0.01807918)
(0.01501768 -0.00000865 0.00000000 0.00025303 0.00000000 0.01819399)
(0.01479947 -0.00002284 0.00000000 0.00025010 0.00000000 0.01813639)
(0.01521426 -0.00003955 0.00000000 0.00024127 0.00000000 0.01803437)
(0.01516759 -0.00003481 0.00000000 0.00024153 0.00000000 0.01788664)
(0.01480632 -0.00004183 0.00000000 0.00023025 0.00000000 0.01767298)
(0.01457618 -0.00005136 0.00000000 0.00021571 0.00000000 0.01737462)
(0.01442799 -0.00006146 0.00000000 0.00021727 0.00000000 0.01695907)
(0.01413561 -0.00006962 0.00000000 0.00020817 0.00000000 0.01679928)
(0.01389899 -0.00008663 0.00000000 0.00019909 0.00000000 0.01650565)
(0.01352357 -0.00008013 0.00000000 0.00019393 0.00000000 0.01588751)
(0.01340198 -0.00009379 0.00000000 0.00019093 0.00000000 0.01551963)
(0.01295968 -0.00009378 0.00000000 0.00017961 0.00000000 0.01492795)
(0.01260014 -0.00009170 0.00000000 0.00017088 0.00000000 0.01465434)
(0.01219794 -0.00009861 0.00000000 0.00016701 0.00000000 0.01442292)
(0.01192179 -0.00011055 0.00000000 0.00016151 0.00000000 0.01410777)
(0.01175697 -0.00011062 0.00000000 0.00015275 0.00000000 0.01377543)
(0.01137668 -0.00010803 0.00000000 0.00014638 0.00000000 0.01348271)
(0.01102293 -0.00011876 0.00000000 0.00013737 0.00000000 0.01285478)
(0.01099320 -0.00012692 0.00000000 0.00014728 0.00000000 0.01267049)
(0.01032551 -0.00011498 0.00000000 0.00012957 0.00000000 0.01214068)
(0.01003156 -0.00012205 0.00000000 0.00012075 0.00000000 0.01182680)
(0.00985860 -0.00012370 0.00000000 0.00011778 0.00000000 0.01151817)
(0.00976724 -0.00012597 0.00000000 0.00011236 0.00000000 0.01126045)
(0.00956906 -0.00012094 0.00000000 0.00010432 0.00000000 0.01088519)
(0.00917655 -0.00011799 0.00000000 0.00009900 0.00000000 0.01059710)
(0.00891025 -0.00012666 0.00000000 0.00010277 0.00000000 0.01037467)
(0.00854567 -0.00011963 0.00000000 0.00008884 0.00000000 0.00996119)
(0.00832507 -0.00012361 0.00000000 0.00008721 0.00000000 0.00971502)
(0.00808112 -0.00012331 0.00000000 0.00008293 0.00000000 0.00940109)
(0.00795732 -0.00012634 0.00000000 0.00008566 0.00000000 0.00910207)
(0.00768425 -0.00011850 0.00000000 0.00007640 0.00000000 0.00866165)
(0.00754891 -0.00011722 0.00000000 0.00007408 0.00000000 0.00843071)
(0.00735098 -0.00011592 0.00000000 0.00006968 0.00000000 0.00819577)
(0.00703546 -0.00011468 0.00000000 0.00006612 0.00000000 0.00792452)
(0.00694420 -0.00011394 0.00000000 0.00006402 0.00000000 0.00767369)
(0.00678723 -0.00011290 0.00000000 0.00006203 0.00000000 0.00753174)
(0.00666257 -0.00011153 0.00000000 0.00005991 0.00000000 0.00735625)
(0.00652858 -0.00011442 0.00000000 0.00005826 0.00000000 0.00724743)
(0.00644302 -0.00011231 0.00000000 0.00005535 0.00000000 0.00707976)
(0.00638483 -0.00011200 0.00000000 0.00005427 0.00000000 0.00694929)
(0.00626599 -0.00010996 0.00000000 0.00005280 0.00000000 0.00678244)
(0.00612652 -0.00010977 0.00000000 0.00005054 0.00000000 0.00655553)
(0.00603025 -0.00010820 0.00000000 0.00005021 0.00000000 0.00637274)
(0.00572566 -0.00010000 0.00000000 0.00004399 0.00000000 0.00611064)
(0.00556493 -0.00009887 0.00000000 0.00004292 0.00000000 0.00595055)
(0.00552508 -0.00010208 0.00000000 0.00004258 0.00000000 0.00582733)
(0.00540386 -0.00009850 0.00000000 0.00004175 0.00000000 0.00559385)
(0.00542284 -0.00010166 0.00000000 0.00004341 0.00000000 0.00551109)
(0.00509750 -0.00008902 0.00000000 0.00003617 0.00000000 0.00521586)
(0.00493180 -0.00008698 0.00000000 0.00003602 0.00000000 0.00505963)
(0.00478465 -0.00008642 0.00000000 0.00003539 0.00000000 0.00492995)
(0.00460729 -0.00008232 0.00000000 0.00003311 0.00000000 0.00481458)
(0.00457625 -0.00008717 0.00000000 0.00003654 0.00000000 0.00479043)
(0.00428047 -0.00007767 0.00000000 0.00003211 0.00000000 0.00455853)
(0.00406956 -0.00007273 0.00000000 0.00003074 0.00000000 0.00439431)
(0.00398735 -0.00007396 0.00000000 0.00003267 0.00000000 0.00433666)
(0.00372743 -0.00006410 0.00000000 0.00002978 0.00000000 0.00419236)
(0.00349804 -0.00005788 0.00000000 0.00002902 0.00000000 0.00412519)
(0.00324638 -0.00005241 0.00000000 0.00002910 0.00000000 0.00409769)
(0.00298475 -0.00004542 0.00000000 0.00002815 0.00000000 0.00411555)
(0.00278511 -0.00004137 0.00000000 0.00003178 0.00000000 0.00431746)
(0.00266798 -0.00003817 0.00000000 0.00003651 0.00000000 0.00482968)
(0.00355519 0.00026675 0.00000000 0.00018112 0.00000000 0.01108430)
(0.00312688 0.00048956 0.00000000 0.00017000 0.00000000 0.00961002)
(0.00204166 0.00050513 0.00000000 0.00015624 0.00000000 0.00710228)
(0.00157947 0.00041842 0.00000000 0.00013334 0.00000000 0.00432144)
(0.00066787 0.00021265 0.00000000 0.00007095 0.00000000 0.00161838)
(0.00040555 0.00023558 0.00000000 0.00013473 0.00000000 0.00143221)
(-0.00002197 -0.00007609 0.00000000 -0.00011616 0.00000000 -0.00038880)
(-0.00001977 -0.00002277 0.00000000 -0.00002680 0.00000000 0.00063769)
(-0.00024873 -0.00014287 0.00000000 -0.00006953 0.00000000 0.00090441)
(-0.00004739 -0.00003325 0.00000000 -0.00002547 0.00000000 0.00029387)
(-0.00009240 -0.00005856 0.00000000 -0.00004409 0.00000000 0.00004436)
(0.00011905 0.00008582 0.00000000 0.00005805 0.00000000 0.00051971)
(-0.00004079 -0.00002470 0.00000000 -0.00001966 0.00000000 0.00032386)
(0.00003530 0.00002938 0.00000000 0.00002395 0.00000000 0.00004685)
(-0.00005165 -0.00002312 0.00000000 -0.00001211 0.00000000 -0.00021512)
(0.00054281 0.00043395 0.00000000 0.00032238 0.00000000 0.00142643)
(0.00059289 0.00051951 0.00000000 0.00039502 0.00000000 -0.00058638)
(-0.00042642 -0.00021636 0.00000000 -0.00010871 0.00000000 -0.00095754)
(-0.00129242 0.00004850 0.00000000 0.00012454 0.00000000 -0.00021586)
(0.00093733 -0.00002294 0.00000000 0.00001977 0.00000000 0.00152810)
(0.00695580 -0.00005136 0.00000000 0.00004055 0.00000000 0.00455573)
(0.01999845 -0.00055383 0.00000000 0.00035127 0.00000000 0.00991199)
(0.02343299 -0.00038320 0.00000000 0.00028272 0.00000000 0.01235025)
(0.00797767 -0.00257338 0.00000000 0.00203095 0.00000000 0.01510890)
(0.00329542 -0.00255201 0.00000000 0.00184105 0.00000000 0.01052140)
(0.00682198 -0.00528471 0.00000000 0.00418250 0.00000000 0.00939345)
(0.01131652 -0.00860102 0.00000000 0.00716502 0.00000000 0.01483137)
(0.00606948 -0.00452373 0.00000000 0.00359841 0.00000000 0.00749609)
(0.00452624 -0.00339421 0.00000000 0.00267291 0.00000000 0.00645442)
(0.00374260 -0.00278159 0.00000000 0.00215042 0.00000000 0.00522370)
(0.00413160 -0.00296706 0.00000000 0.00221027 0.00000000 0.00496304)
(0.00418638 -0.00293675 0.00000000 0.00213188 0.00000000 0.00454320)
(0.00432634 -0.00299693 0.00000000 0.00213302 0.00000000 0.00401478)
(0.00434382 -0.00354887 0.00000000 0.00313226 0.00000000 0.00599246)
(0.00606029 -0.00396820 0.00000000 0.00273188 0.00000000 0.00593750)
(0.00718841 -0.00565765 0.00000000 0.00472603 0.00000000 0.00762595)
(0.00810525 -0.00465820 0.00000000 0.00285628 0.00000000 0.00785884)
(0.01001718 -0.00530206 0.00000000 0.00307451 0.00000000 0.00927490)
(0.01144669 -0.00477126 0.00000000 0.00245396 0.00000000 0.01163918)
(0.01303284 -0.00391633 0.00000000 0.00171407 0.00000000 0.01268051)
(0.01451433 -0.00279479 0.00000000 0.00118118 0.00000000 0.01346821)
(0.01545200 -0.00061987 0.00000000 0.00075816 0.00000000 0.01373503)
(0.01646191 0.00005180 0.00000000 0.00050571 0.00000000 0.01288027)
(0.01845080 0.00013803 0.00000000 0.00060861 0.00000000 0.01552715)
(0.01973378 0.00013615 0.00000000 0.00072405 0.00000000 0.01828358)
(0.02073967 0.00015445 0.00000000 0.00081827 0.00000000 0.02073154)
(0.02159351 0.00013019 0.00000000 0.00089800 0.00000000 0.02295892)
(0.02256098 0.00010820 0.00000000 0.00098058 0.00000000 0.02501660)
(0.02347447 0.00009544 0.00000000 0.00105594 0.00000000 0.02680062)
(0.02405002 0.00005118 0.00000000 0.00113478 0.00000000 0.02789737)
(0.02490068 0.00003653 0.00000000 0.00114523 0.00000000 0.02896151)
(0.02546752 0.00001848 0.00000000 0.00119309 0.00000000 0.02980653)
(0.02579190 -0.00000564 0.00000000 0.00122837 0.00000000 0.03071335)
(0.02593494 -0.00006124 0.00000000 0.00128022 0.00000000 0.03151265)
(0.02603259 -0.00006857 0.00000000 0.00131091 0.00000000 0.03184774)
(0.02610979 -0.00009388 0.00000000 0.00130116 0.00000000 0.03225066)
(0.02577784 -0.00009700 0.00000000 0.00130707 0.00000000 0.03236986)
(0.02571585 -0.00016469 0.00000000 0.00129191 0.00000000 0.03214126)
(0.02596399 -0.00018006 0.00000000 0.00129154 0.00000000 0.03235029)
(0.02577623 -0.00022257 0.00000000 0.00128510 0.00000000 0.03213167)
(0.02644235 -0.00027204 0.00000000 0.00127215 0.00000000 0.03202169)
(0.02674137 -0.00024235 0.00000000 0.00123922 0.00000000 0.03198476)
(0.02631077 -0.00025317 0.00000000 0.00119138 0.00000000 0.03164421)
(0.02606173 -0.00028782 0.00000000 0.00115745 0.00000000 0.03116834)
(0.02607525 -0.00030158 0.00000000 0.00113194 0.00000000 0.03069299)
(0.02576736 -0.00032918 0.00000000 0.00109707 0.00000000 0.03049113)
(0.02544729 -0.00037006 0.00000000 0.00105390 0.00000000 0.03007316)
(0.02501084 -0.00035330 0.00000000 0.00102217 0.00000000 0.02919626)
(0.02488527 -0.00038594 0.00000000 0.00099273 0.00000000 0.02859300)
(0.02423851 -0.00038067 0.00000000 0.00095946 0.00000000 0.02755275)
(0.02372454 -0.00038600 0.00000000 0.00093271 0.00000000 0.02708603)
(0.02320082 -0.00039896 0.00000000 0.00089450 0.00000000 0.02679260)
(0.02277065 -0.00043056 0.00000000 0.00085845 0.00000000 0.02631865)
(0.02262395 -0.00042729 0.00000000 0.00082230 0.00000000 0.02581778)
(0.02202948 -0.00042003 0.00000000 0.00080646 0.00000000 0.02528536)
(0.02154068 -0.00045038 0.00000000 0.00075687 0.00000000 0.02421684)
(0.02136389 -0.00044395 0.00000000 0.00072344 0.00000000 0.02383931)
(0.02046337 -0.00042867 0.00000000 0.00070162 0.00000000 0.02309226)
(0.02003963 -0.00045466 0.00000000 0.00066460 0.00000000 0.02258606)
(0.01972236 -0.00046074 0.00000000 0.00064225 0.00000000 0.02207044)
(0.01962849 -0.00047527 0.00000000 0.00061813 0.00000000 0.02166874)
(0.01940009 -0.00046310 0.00000000 0.00059794 0.00000000 0.02109816)
(0.01880509 -0.00045434 0.00000000 0.00056769 0.00000000 0.02061111)
(0.01825178 -0.00046407 0.00000000 0.00054607 0.00000000 0.02007402)
(0.01784809 -0.00046671 0.00000000 0.00052015 0.00000000 0.01956130)
(0.01738956 -0.00046634 0.00000000 0.00049081 0.00000000 0.01900755)
(0.01702910 -0.00046333 0.00000000 0.00046448 0.00000000 0.01847994)
(0.01672893 -0.00045708 0.00000000 0.00044360 0.00000000 0.01786663)
(0.01646212 -0.00045685 0.00000000 0.00043415 0.00000000 0.01718882)
(0.01623113 -0.00045141 0.00000000 0.00041639 0.00000000 0.01678716)
(0.01591105 -0.00044938 0.00000000 0.00040097 0.00000000 0.01636171)
(0.01542676 -0.00044676 0.00000000 0.00037917 0.00000000 0.01588553)
(0.01523209 -0.00044453 0.00000000 0.00036605 0.00000000 0.01540188)
(0.01496894 -0.00044335 0.00000000 0.00035681 0.00000000 0.01512661)
(0.01470382 -0.00043952 0.00000000 0.00034554 0.00000000 0.01477619)
(0.01453666 -0.00044822 0.00000000 0.00033528 0.00000000 0.01454670)
(0.01445884 -0.00044732 0.00000000 0.00032243 0.00000000 0.01433097)
(0.01429686 -0.00044152 0.00000000 0.00031253 0.00000000 0.01405063)
(0.01408979 -0.00043615 0.00000000 0.00030393 0.00000000 0.01374362)
(0.01384256 -0.00043613 0.00000000 0.00029353 0.00000000 0.01331170)
(0.01359979 -0.00041872 0.00000000 0.00027582 0.00000000 0.01295906)
(0.01318070 -0.00041541 0.00000000 0.00027213 0.00000000 0.01253423)
(0.01290580 -0.00041281 0.00000000 0.00026284 0.00000000 0.01222425)
(0.01271895 -0.00041077 0.00000000 0.00025203 0.00000000 0.01190258)
(0.01251344 -0.00040049 0.00000000 0.00024302 0.00000000 0.01148877)
(0.01231682 -0.00038603 0.00000000 0.00023015 0.00000000 0.01118783)
(0.01199974 -0.00038287 0.00000000 0.00022912 0.00000000 0.01080015)
(0.01168188 -0.00037314 0.00000000 0.00022146 0.00000000 0.01050332)
(0.01135576 -0.00036670 0.00000000 0.00021242 0.00000000 0.01022692)
(0.01100893 -0.00035545 0.00000000 0.00020340 0.00000000 0.01000715)
(0.01066965 -0.00034352 0.00000000 0.00019465 0.00000000 0.00980810)
(0.01025750 -0.00033202 0.00000000 0.00018883 0.00000000 0.00948284)
(0.00985368 -0.00031873 0.00000000 0.00018425 0.00000000 0.00917138)
(0.00947860 -0.00030620 0.00000000 0.00017901 0.00000000 0.00894172)
(0.00902214 -0.00028307 0.00000000 0.00017465 0.00000000 0.00872614)
(0.00851117 -0.00026195 0.00000000 0.00017045 0.00000000 0.00859390)
(0.00789889 -0.00024214 0.00000000 0.00017054 0.00000000 0.00854112)
(0.00724049 -0.00021988 0.00000000 0.00017177 0.00000000 0.00859309)
(0.00650005 -0.00019266 0.00000000 0.00017612 0.00000000 0.00891415)
(0.00585953 -0.00017963 0.00000000 0.00019864 0.00000000 0.00980755)
(0.00625375 0.00021652 0.00000000 0.00043652 0.00000000 0.01593118)
(0.00650493 0.00095286 0.00000000 0.00049546 0.00000000 0.01948899)
(0.00622937 0.00157718 0.00000000 0.00064324 0.00000000 0.01959327)
(0.00554086 0.00179346 0.00000000 0.00076017 0.00000000 0.01636382)
(0.00384387 0.00148459 0.00000000 0.00066866 0.00000000 0.01040726)
(0.00276299 0.00154207 0.00000000 0.00089795 0.00000000 0.00915071)
(0.00142253 0.00084374 0.00000000 0.00048315 0.00000000 0.00479570)
(0.00181398 0.00118890 0.00000000 0.00077917 0.00000000 0.00797467)
(0.00038007 0.00054142 0.00000000 0.00063032 0.00000000 0.00476095)
(0.00121370 0.00080314 0.00000000 0.00052306 0.00000000 0.00447284)
(0.00044326 0.00028231 0.00000000 0.00017620 0.00000000 0.00264466)
(0.00118416 0.00081867 0.00000000 0.00055159 0.00000000 0.00476746)
(0.00069675 0.00050041 0.00000000 0.00034929 0.00000000 0.00343810)
(0.00007109 0.00004241 0.00000000 0.00002036 0.00000000 0.00116193)
(0.00029147 0.00027257 0.00000000 0.00022083 0.00000000 0.00111437)
(0.00153214 0.00121716 0.00000000 0.00091026 0.00000000 0.00412204)
(0.00126123 0.00103150 0.00000000 0.00076611 0.00000000 0.00029065)
(-0.00043598 -0.00011437 0.00000000 -0.00004201 0.00000000 -0.00065177)
(0.00144968 0.00059483 0.00000000 0.00027721 0.00000000 0.00078466)
(0.00368887 0.00009936 0.00000000 0.00003912 0.00000000 0.00247312)
(0.01129160 -0.00008990 0.00000000 0.00008827 0.00000000 0.00623943)
(0.02826042 -0.00094574 0.00000000 0.00065370 0.00000000 0.01269048)
(0.03313806 -0.00073287 0.00000000 0.00059732 0.00000000 0.01680894)
(0.01282189 -0.00424788 0.00000000 0.00298751 0.00000000 0.01915865)
(0.00641403 -0.00409949 0.00000000 0.00300449 0.00000000 0.01483440)
(0.01026190 -0.00781125 0.00000000 0.00656732 0.00000000 0.01437405)
(0.01394561 -0.01046685 0.00000000 0.00901328 0.00000000 0.01872423)
(0.00846235 -0.00627188 0.00000000 0.00506450 0.00000000 0.01057917)
(0.00677314 -0.00509557 0.00000000 0.00411780 0.00000000 0.00972229)
(0.00642076 -0.00482454 0.00000000 0.00385018 0.00000000 0.00883470)
(0.00689070 -0.00496935 0.00000000 0.00377959 0.00000000 0.00814937)
(0.00701237 -0.00493950 0.00000000 0.00366225 0.00000000 0.00740319)
(0.00769628 -0.00541195 0.00000000 0.00397581 0.00000000 0.00699509)
(0.00699196 -0.00553405 0.00000000 0.00478330 0.00000000 0.00817817)
(0.00934066 -0.00617749 0.00000000 0.00440846 0.00000000 0.00883888)
(0.01102113 -0.00783568 0.00000000 0.00609768 0.00000000 0.01090391)
(0.01219258 -0.00683415 0.00000000 0.00432259 0.00000000 0.01151304)
(0.01414892 -0.00675151 0.00000000 0.00392714 0.00000000 0.01317254)
(0.01529376 -0.00559060 0.00000000 0.00299744 0.00000000 0.01494049)
(0.01683233 -0.00459956 0.00000000 0.00238145 0.00000000 0.01600908)
(0.01868035 -0.00312245 0.00000000 0.00181122 0.00000000 0.01687237)
(0.01995395 -0.00090256 0.00000000 0.00142246 0.00000000 0.01695257)
(0.02243909 0.00003261 0.00000000 0.00121813 0.00000000 0.01766569)
(0.02450624 0.00010676 0.00000000 0.00145764 0.00000000 0.02106467)
(0.02585556 0.00006620 0.00000000 0.00170642 0.00000000 0.02454939)
(0.02682861 0.00004819 0.00000000 0.00191803 0.00000000 0.02759956)
(0.02786545 -0.00003011 0.00000000 0.00207712 0.00000000 0.03040215)
(0.02897337 -0.00007914 0.00000000 0.00225153 0.00000000 0.03294709)
(0.02989073 -0.00013061 0.00000000 0.00241359 0.00000000 0.03501455)
(0.03088685 -0.00019872 0.00000000 0.00254263 0.00000000 0.03659837)
(0.03172233 -0.00024131 0.00000000 0.00260013 0.00000000 0.03769591)
(0.03253836 -0.00026020 0.00000000 0.00268885 0.00000000 0.03885984)
(0.03271382 -0.00029986 0.00000000 0.00278282 0.00000000 0.03977777)
(0.03287967 -0.00038584 0.00000000 0.00287256 0.00000000 0.04076297)
(0.03299354 -0.00039647 0.00000000 0.00292666 0.00000000 0.04122965)
(0.03315321 -0.00043713 0.00000000 0.00292101 0.00000000 0.04177004)
(0.03299220 -0.00042953 0.00000000 0.00293769 0.00000000 0.04201195)
(0.03302629 -0.00051626 0.00000000 0.00288762 0.00000000 0.04200709)
(0.03328216 -0.00054732 0.00000000 0.00290322 0.00000000 0.04208642)
(0.03340548 -0.00059945 0.00000000 0.00287484 0.00000000 0.04193436)
(0.03422589 -0.00067039 0.00000000 0.00284182 0.00000000 0.04192249)
(0.03461746 -0.00061102 0.00000000 0.00279327 0.00000000 0.04175253)
(0.03416570 -0.00061599 0.00000000 0.00271700 0.00000000 0.04126081)
(0.03412684 -0.00066727 0.00000000 0.00263217 0.00000000 0.04085100)
(0.03425748 -0.00067502 0.00000000 0.00258725 0.00000000 0.04038148)
(0.03399564 -0.00071661 0.00000000 0.00252096 0.00000000 0.04010200)
(0.03374101 -0.00076231 0.00000000 0.00242380 0.00000000 0.03976741)
(0.03335867 -0.00074053 0.00000000 0.00236488 0.00000000 0.03878199)
(0.03316181 -0.00077783 0.00000000 0.00230661 0.00000000 0.03798238)
(0.03251755 -0.00075413 0.00000000 0.00223367 0.00000000 0.03672443)
(0.03196698 -0.00077115 0.00000000 0.00217179 0.00000000 0.03617530)
(0.03128904 -0.00078166 0.00000000 0.00210884 0.00000000 0.03570004)
(0.03093018 -0.00083156 0.00000000 0.00201797 0.00000000 0.03532042)
(0.03083063 -0.00081746 0.00000000 0.00194699 0.00000000 0.03469477)
(0.03032579 -0.00080190 0.00000000 0.00189640 0.00000000 0.03416471)
(0.02980377 -0.00084565 0.00000000 0.00179239 0.00000000 0.03288620)
(0.02945213 -0.00082480 0.00000000 0.00174013 0.00000000 0.03231659)
(0.02857596 -0.00079809 0.00000000 0.00167213 0.00000000 0.03154392)
(0.02805526 -0.00084509 0.00000000 0.00159966 0.00000000 0.03087172)
(0.02772269 -0.00086147 0.00000000 0.00154071 0.00000000 0.03034129)
(0.02755893 -0.00088875 0.00000000 0.00149486 0.00000000 0.02974779)
(0.02729851 -0.00085390 0.00000000 0.00144553 0.00000000 0.02907172)
(0.02662823 -0.00084300 0.00000000 0.00137811 0.00000000 0.02843664)
(0.02603988 -0.00086003 0.00000000 0.00132342 0.00000000 0.02782264)
(0.02553220 -0.00086921 0.00000000 0.00127219 0.00000000 0.02716800)