2 	0.0118764442016 	-6.93889390390723e-18 	-0.0291878518215579 	0.000722096407114254 	-1.47976695391559e-21
2 	0.0201337737453494 	0 	-0.0517482313021584 	0.00185314111700073 	-1.25536776369448e-21
2 	0.0286935935154032 	3.46944695195361e-18 	-0.0756128664623948 	0.00345787667306441 	-5.55917134292643e-21
2 	0.0375669846194085 	3.46944695195361e-18 	-0.0983006256315381 	0.0053709953793906 	-9.15934444220313e-22
2 	0.0467654340988033 	6.93889390390723e-18 	-0.116880670166663 	0.00735494051671701 	-4.22943843947587e-21
2 	0.0563008497993879 	1.38777878078145e-17 	-0.129947322968596 	0.0092109617846079 	1.13132046771218e-21
2 	0.0661855757866513 	2.08166817117217e-17 	-0.138100902867293 	0.0108603794884815 	4.69581530167034e-18
2 	0.0764324083258084 	2.42861286636753e-17 	-0.142736812316625 	0.012313965806386 	5.30857504561559e-18
2 	0.0870546124472355 	2.42861286636753e-17 	-0.145070701639274 	0.0136110856915257 	-2.68423843060903e-18
2 	0.0980659391187486 	2.08166817117217e-17 	-0.145908689519244 	0.0147888668054121 	-3.28104703079091e-18
2 	0.109480643046957 	2.08166817117217e-17 	-0.145738077226839 	0.0158752037978451 	-1.5723007108348e-22
2 	0.121313501130732 	1.04083408558608e-17 	-0.144848930643823 	0.0168896885283187 	1.06521401619656e-23
2 	0.13357983159069 	6.93889390390723e-18 	-0.143416479444263 	0.0178457600578741 	1.75108769804606e-21
2 	0.146295513799441 	1.04083408558608e-17 	-0.141548864112853 	0.018752516553297 	1.65156255737031e-21
2 	0.159477008838289 	3.46944695195361e-18 	-0.139313881251903 	0.0196160120355249 	1.50986114947451e-21
2 	0.173141380806978 	-3.46944695195361e-18 	-0.136754114738978 	0.0204401274834096 	-1.46890463607697e-21
2 	0.187306318914096 	-3.46944695195361e-18 	-0.133895717084198 	0.021227138434144 	-5.31363483133666e-21
2 	0.201990160376705 	0 	-0.130753655770649 	0.0219780786426555 	2.58386798380217e-21
2 	0.217211914158871 	0 	-0.127334932546746 	0.0226929680207459 	5.08573598084289e-23
2 	0.232991285579799 	6.93889390390723e-18 	-0.123640599640128 	0.0233709482207783 	2.47425267943761e-21
2 	0.24934870182345 	1.38777878078145e-17 	-0.119667034193858 	0.0240103525623318 	2.0693482903074e-23
2 	0.266305338382659 	1.04083408558608e-17 	-0.115406734617265 	0.0246087262565866 	-8.77321120480891e-24
2 	0.283883146471979 	8.23993651088983e-18 	-0.110846632150494 	0.0251647950503775 	2.45860223902205e-21
2 	0.302104881444751 	1.51788304147971e-17 	-0.105966783566643 	0.0256792037826609 	-2.19399668867279e-21
2 	0.320994132251181 	2.03830008427275e-17 	-0.100757876468671 	0.0261388848373465 	-1.55776230488353e-22
2 	0.340575351975563 	1.69135538907739e-17 	-0.0951988885127176 	0.0265375633646946 	1.48320271712461e-22
2 	0.360873889492183 	1.30104260698261e-17 	-0.0892650823899623 	0.026867694216021 	3.74552100516874e-21
2 	0.381916022280877 	1.64798730217797e-17 	-0.0829273433352389 	0.0271202399931452 	-8.63631670922127e-25
2 	0.403728990444736 	2.68882138776405e-17 	-0.0761511516938986 	0.0272843961125991 	2.66332292447526e-24
2 	0.426341031973991 	3.20923843055709e-17 	-0.0688950318417113 	0.0273472589885999 	-2.17003831647095e-21
2 	0.449781419301732 	3.12250225675825e-17 	-0.0611082289548802 	0.0272934406730728 	3.81144997986424e-21
2 	0.474080497198786 	3.81639164714898e-17 	-0.0527272297582149 	0.0271046463312729 	-1.1644708844024e-21
2 	0.499269722056809 	4.85722573273506e-17 	-0.0436705382731412 	0.0267592552566462 	-1.00897393569059e-21
2 	0.525381702610457 	4.68375338513738e-17 	-0.0338308151074791 	0.026232063875783 	2.82136628257662e-21
2 	0.552450242151345 	3.81639164714898e-17 	-0.0230630957031449 	0.0254948120886933 	4.41764370709081e-21
2 	0.58051038228845 	4.16333634234434e-17 	-0.0111677090273728 	0.0245184060857916 	1.85945868320421e-17
2 	0.609598448311611 	4.5102810375397e-17 	0.00212850525523526 	0.023275389422184 	5.98076253229793e-17
2 	0.63975209621685 	3.81639164714898e-17 	0.017172343039135 	0.0217398708116133 	-5.65938395626285e-17
2 	0.671010361454398 	2.42861286636753e-17 	0.0343563940328081 	0.0198952103018395 	-2.54734981651561e-17
2 	0.703413709462536 	1.73472347597681e-17 	0.0541410448449229 	0.0177303254370017 	2.57853136151939e-21
2 	0.737004088052664 	1.73472347597681e-17 	0.0773660529184933 	0.0151817756407514 	-2.36586960089892e-21
2 	0.761415631590922 	1.38777878078145e-17 	0.0964002910310096 	0.0131182178449227 	-5.05732823392246e-21
2 	0.779158441314593 	1.73472347597681e-17 	0.111860797841924 	0.0114675423468734 	-1.75822890812671e-21
2 	0.807992208527445 	1.73472347597681e-17 	0.139820119271368 	0.00856144779708383 	4.70521920147109e-21
2 	0.845474782010776 	6.93889390390723e-18 	0.181192172044334 	0.00447782752934259 	1.03886974283798e-20
2 	0.884326095109732 	-3.46944695195361e-18 	0.229134066131865 	0.000152839864210027 	-9.41933963471288e-21
2 	0.924595946175681 	-3.46944695195361e-18 	0.282396568402343 	-0.00405322875576402 	-1.01430691063852e-20
2 	0.966335930161379 	3.46944695195361e-18 	0.339473796037246 	-0.00776765854976037 	-4.13036193261464e-21
2 	1.00959950211694 	3.46944695195361e-18 	0.398746812594724 	-0.0106999165378777 	1.84117822778414e-20
2 	1.0544420428071 	0 	0.458555515045562 	-0.0125885686867697 	8.46510486416497e-21
2 	1.1009209265081 	-6.93889390390723e-18 	0.516956738228302 	-0.0134093120461061 	-6.46601054435585e-21
2 	1.14909559104284 	-1.38777878078145e-17 	0.571250164384734 	-0.0133172519054271 	3.99501327730937e-22
2 	1.19902761011263 	-1.38777878078145e-17 	0.618999441066836 	-0.0126995493380964 	8.49631220484211e-21
2 	1.25078076798373 	-1.73472347597681e-17 	0.659287514363993 	-0.0119983495740376 	-8.05061673666505e-21
2 	1.30442113658637 	-1.38777878078145e-17 	0.69268115147012 	-0.0114925061506217 	-1.60241548710804e-20
2 	1.36001715508263 	-1.21430643318376e-17 	0.721060682878732 	-0.0112419367547266 	-1.52452034549653e-21
2 	1.41763971195865 	-1.90819582357449e-17 	0.74602824145897 	-0.011209655642962 	3.34421041692276e-20
2 	1.47736222969459 	-1.90819582357449e-17 	0.768850699328871 	-0.0113141440713476 	6.12508002611631e-22
2 	1.53926075206349 	-2.25514051876985e-17 	0.790391919766748 	-0.0114665736084717 	1.18062709696172e-20
2 	1.60341403410744 	-2.77555756156289e-17 	0.811161033434468 	-0.0115920014107625 	-4.67253717977224e-21
2 	1.66893387175961 	-2.77555756156289e-17 	0.831113965149133 	-0.0116393024533346 	1.8478664060467e-21
2 	1.70277427891704 	-2.77555756156289e-17 	0.841119652191244 	-0.0116391846740911 	2.05078513973738e-21
2 	1.73884797298113 	-3.81639164714898e-17 	0.851199248266421 	-0.0115859334767006 	-1.59833176634928e-21
2 	1.81031023819438 	-4.16333634234434e-17 	0.870529439737139 	-0.0114211018358965 	2.64156137786649e-21
2 	1.8843295834168 	-3.81639164714898e-17 	0.889287435955073 	-0.0111420791499215 	1.31388932654489e-20
2 	1.96099472017776 	-4.5102810375397e-17 	0.907372426832149 	-0.0107647026226212 	2.67316973138626e-20
2 	2.04004996790234 	-4.85722573273506e-17 	0.924576849214644 	-0.0102992962699467 	1.56697807321338e-21
2 	2.11873460271874 	-4.85722573273506e-17 	0.940307331616802 	-0.00975232134546201 	0
2 	2.19463865000284 	-4.85722573273506e-17 	0.954264124843888 	-0.00922426221041129 	0
2 	2.26786037121375 	-4.85722573273506e-17 	0.966599016364422 	-0.0087091600231235 	0
2 	2.33849455540975 	-4.85722573273506e-17 	0.977489375941237 	-0.00822013841949413 	0
2 	2.40663264195736 	-4.85722573273506e-17 	0.987100347852087 	-0.00776218313037155 	0
2 	2.47236283890404 	-5.20417042793042e-17 	0.995586978374213 	-0.0073370949148572 	0
2 	2.5357702371677 	-5.20417042793042e-17 	1.00309183560552 	-0.00694471197713256 	0
2 	2.59693692069107 	-4.85722573273506e-17 	1.00973910444461 	-0.00658389301808763 	0
2 	2.65594207270333 	-4.5102810375397e-17 	1.01563301649686 	-0.00625301566117206 	0
2 	2.71286207822658 	-4.85722573273506e-17 	1.02086085718796 	-0.00595008582409733 	0
2 	2.76777062295999 	-4.85722573273506e-17 	1.02549617783349 	-0.00567285229105852 	0
2 	2.82073878866949 	-4.16333634234434e-17 	1.02960102615359 	-0.00541896176650394 	0
2 	2.87183514520654 	-4.5102810375397e-17 	1.03322759334479 	-0.00518608653723835 	0
2 	2.92112583927514 	-5.55111512312578e-17 	1.03641955183333 	-0.00497201227248654 	0
2 	2.96867468006189 	-6.24500451351651e-17 	1.03921318569186 	-0.0047746889861255 	0
