8 	1.00195556483898 	0 	-0.0346336144609123 	7.70953246900672e-06 	3712.48869296347 	2.06203203794008e-06 	1.87293060423329e-39
8 	1.00593833258374 	3.46944695195361e-18 	-0.0345475146736499 	0.000211612422843963 	663.625940804514 	0.000296328192085223 	0
8 	1.01006700077429 	-3.46944695195361e-18 	-0.0344094557348629 	0.00146760828015666 	239.473680775601 	0.00711970271311376 	0
8 	1.0143469141712 	-6.93889390390723e-18 	-0.0340574395989861 	0.00474064447693472 	134.311500914151 	0.0333952388877244 	0
8 	1.01878361332929 	0 	-0.0332904540301733 	0.00931257715435001 	88.2096032404574 	0.0522491928588092 	0
8 	1.02338284177015 	3.46944695195361e-18 	-0.0320746607959137 	0.0140620573649725 	60.3312604405082 	0.0439290729835614 	0
8 	1.02815055341735 	0 	-0.0305100528130707 	0.0186631293072619 	42.4980174336327 	0.0271484326875225 	0
8 	1.03309292030413 	0 	-0.0287006712129252 	0.0229877811977086 	31.0205187252057 	0.0152154351504151 	0
8 	1.03821634056339 	6.93889390390723e-18 	-0.0267159296592667 	0.0269182450824907 	23.4922188037211 	0.00892559057096493 	0
8 	1.04352744671036 	6.93889390390723e-18 	-0.0245997526477263 	0.0304050545534636 	18.4187886225078 	0.00588374658007583 	0
8 	1.04903311422875 	0 	-0.0223805730883877 	0.033465453997755 	14.9025611061925 	0.004381908791421 	0
8 	1.05474047047133 	3.46944695195361e-18 	-0.0200766876255677 	0.0361492874267293 	12.398953966405 	0.00357772462053678 	0
8 	1.06065690388671 	3.46944695195361e-18 	-0.0176989738417475 	0.0385134556850229 	10.5693058675256 	0.00309302201144896 	0
8 	1.06679007358401 	6.93889390390723e-18 	-0.0152525588994267 	0.0406097933628161 	9.19750574095588 	0.00275975519898225 	0
8 	1.07314791924792 	1.73472347597681e-17 	-0.0127384650496824 	0.042481159265152 	8.14245908541221 	0.00250217229772219 	0
8 	1.07973867141706 	1.38777878078145e-17 	-0.0101553742537647 	0.044161318123535 	7.31028075525061 	0.00228526145433497 	0
8 	1.08657086213876 	1.04083408558608e-17 	-0.00750128295801209 	0.0456762246156517 	6.63755725849666 	0.00209200284013769 	0
8.00000000000001 	1.09365333601424 	1.04083408558608e-17 	-0.0047748644293708 	0.0470456264473052 	6.08098332195306 	0.00191343547293859 	0
8.00000000000001 	1.10099526164837 	3.46944695195361e-18 	-0.00197638890529848 	0.048284553157559 	5.61076271768401 	0.00174448454981145 	0
8.00000000000001 	1.10860614351884 	0 	0.000891833154982947 	0.0494045434857706 	5.20629146778345 	0.00158224475358028 	0
8.00000000000001 	1.11649583428022 	0 	0.00382536584426826 	0.0504145902435947 	4.85326534231594 	0.00142529431959684 	0
8.00000000000001 	1.12467454751866 	3.46944695195361e-18 	0.0068178210707514 	0.051321834513915 	4.5417039475135 	0.00127342049469134 	0
8.00000000000001 	1.13315287097388 	1.04083408558608e-17 	0.00986121808915425 	0.0521320581260393 	4.26458276444042 	0.00112748047616569 	0
8.00000000000001 	1.1419417802455 	1.38777878078145e-17 	0.0129464639227249 	0.0528500238147248 	4.01687910368715 	0.000989273822705825 	0
8.00000000000001 	1.15105265300152 	1.38777878078145e-17 	0.0160639030834559 	0.0534797057247528 	3.79490558926117 	0.000861378044361557 	0
8.00000000000001 	1.16049728370721 	1.38777878078145e-17 	0.0192038925225668 	0.0540244438739269 	3.59584626251058 	0.000746938568006906 	0
8 	1.17028789889366 	2.08166817117217e-17 	0.0223573550648389 	0.0544870475123027 	3.41743691486029 	0.000649417871705857 	0
8 	1.1804371729856 	3.46944695195361e-17 	0.0255162585739327 	0.054869865342878 	3.25774878505383 	0.000572308816963467 	0
8 	1.19095824470905 	4.16333634234434e-17 	0.0286739664405224 	0.0551748356458656 	3.11504658074099 	0.00051881672782878 	0
8 	1.20186473410003 	4.5102810375397e-17 	0.0318254096650878 	0.0554035261779549 	2.98769988372623 	0.000491522535461071 	0
8 	1.21317076013637 	4.5102810375397e-17 	0.0349670398376383 	0.0555571716966481 	2.8741326700525 	0.000492062658301985 	0
8 	1.22489095901542 	4.16333634234434e-17 	0.0380965631063291 	0.0556367153733488 	2.77279976750146 	0.000520892195821236 	0
8 	1.23704050310128 	4.16333634234434e-17 	0.0412125369265202 	0.0556428582425422 	2.68218205074556 	0.000577202446715743 	0
8 	1.24963512056619 	3.81639164714898e-17 	0.0443139211278926 	0.0555761166686065 	2.60079419477931 	0.000659100734620029 	0
8 	1.26269111575139 	3.46944695195361e-17 	0.0473997660247664 	0.0554368825131559 	2.52720001130869 	0.000763921804453071 	0
8 	1.27622539027389 	3.46944695195361e-17 	0.0504688759054661 	0.0552254833782261 	2.46003145430067 	0.000888466309429591 	0
8 	1.29025546490643 	3.46944695195361e-17 	0.0535195748101569 	0.054942239039417 	2.39800867077727 	0.00102918527015856 	0
8 	1.30479950225896 	3.81639164714898e-17 	0.0565495691980717 	0.0545875104586808 	2.33995901253281 	0.00118229916351598 	0
8 	1.31987633029102 	4.16333634234434e-17 	0.0595559528951893 	0.0541617394703707 	2.28483328236322 	0.00134387450817129 	0
8 	1.33550546668545 	3.81639164714898e-17 	0.0625353209239152 	0.0536654798138342 	2.23171781119683 	0.00150986988257786 	0
8 	1.35170714411495 	4.16333634234434e-17 	0.0654839417924895 	0.0530994230526224 	2.1798413712924 	0.00167616680576878 	0
8 	1.3685023364343 	3.80758250449753e-17 	0.0683991661827047 	0.0524643840194721 	2.12857833268159 	0.0018388785519493 	0
8 	1.38591278583199 	2.63393365278197e-17 	0.0712774647543712 	0.0517614189045116 	2.07743616532779 	0.00199396899106661 	0
8 	1.40396103097653 	3.05067386283109e-17 	0.0741134537221814 	0.0509918506819655 	2.02605498518801 	0.00213713515662297 	0
8 	1.42267043619387 	3.01814779765652e-17 	0.0769041069217172 	0.0501572522307274 	1.97419553104425 	0.00226479499080209 	0
8 	1.44206522171365 	2.64545330086463e-17 	0.0796469070448533 	0.0492595159433091 	1.9217171691789 	0.00237376127750441 	0
8 	1.46217049502345 	2.63190077370856e-17 	0.0823398197209987 	0.0483008918364404 	1.86855991970223 	0.00246131846225418 	0
8 	1.48301228337162 	2.15756232324615e-17 	0.0849812203021289 	0.047284023473929 	1.81472774209436 	0.00252528412752198 	0
8 	1.50461756746086 	1.58293517182884e-17 	0.0875698027107033 	0.0462119810916998 	1.76027461288226 	0.00256407542231495 	0
8 	1.52701431637602 	1.38235776991902e-17 	0.0901044854799762 	0.0450882892440063 	1.70529407851106 	0.00257677693685637 	0
8 	1.55023152379143 	1.22514845490862e-17 	0.0925843302935288 	0.0439169438908294 	1.6499119889836 	0.00256319386456281 	0
8 	1.57429924550461 	7.69783542464708e-18 	0.095008483111396 	0.0427024122611397 	1.59428135224919 	0.00252387054263475 	0
8 	1.59924863834497 	1.00830802041152e-17 	0.0973761377853624 	0.0414496093295096 	1.53857800187198 	0.00246006344579155 	0
8 	1.62511200050781 	1.0842021724855e-17 	0.0996865143987617 	0.0401638481138373 	1.48299617008754 	0.0023736808277804 	0
8 	1.65192281336592 	8.45677694538693e-18 	0.101938843195658 	0.0388507659695863 	1.42774389929455 	0.00226722483615586 	0
7.99999999999999 	1.67971578481282 	5.63785129692462e-18 	0.104132359255567 	0.0375162308045189 	1.37303890235662 	0.00214376159090042 	0
7.99999999999999 	1.70852689419381 	2.16840434497101e-18 	0.106266319794364 	0.0361662257444098 	1.31910535764606 	0.00200689943959711 	0
7.99999999999999 	1.73839343888296 	2.71050543121376e-18 	0.10834005141313 	0.0348067109065493 	1.26617145949252 	0.00186070341592566 	0
7.99999999999999 	1.76935408256639 	-2.27682456221956e-18 	0.110353025578837 	0.0334434965826155 	1.21446740383087 	0.00170948824942389 	0
7.99999999999999 	1.80144890529425 	-3.68628738645072e-18 	0.112304928032675 	0.0320822500003111 	1.16422413039411 	0.00155750436665686 	0
7.99999999999999 	1.83471945536633 	2.38524477946811e-18 	0.114195624511 	0.0307287731439632 	1.11567380009811 	0.00140861679984604 	0
7.99999999999999 	1.86920880311829 	7.58941520739853e-18 	0.116025201374048 	0.0293888435668187 	1.06905117222091 	0.00126597615008592 	0
7.99999999999999 	1.9049615966783 	1.38777878078145e-17 	0.117794119643955 	0.0280684132770237 	1.02459422215262 	0.00113172000637401 	0
7.99999999999999 	1.94202411976624 	1.30104260698261e-17 	0.119502701187708 	0.0267745990539474 	0.982546306475713 	0.00100704302770165 	0
7.99999999999999 	1.98044435161018 	1.30104260698261e-17 	0.121149465685376 	0.0255150930511154 	0.943160360581807 	0.000892283560130877 	0
7.99999999999999 	2.02025965173184 	1.73472347597681e-17 	0.122734035816024 	0.0242955734192853 	0.906719951701636 	0.000789200671556592 	0
7.99999999999999 	2.06006301192217 	2.08166817117217e-17 	0.124202722296245 	0.0231526459929098 	0.874544860081415 	0.000698628451795711 	0
7.99999999999999 	2.09845978584128 	2.40692882291782e-17 	0.125526643895682 	0.0221065448864328 	0.847235669714182 	0.000621654877127527 	0
7.99999999999999 	2.13549967996945 	2.01661604082304e-17 	0.126723974951286 	0.0211417512864808 	0.824228163103236 	0.000554945264205679 	0
7.99999999999999 	2.17123064424048 	1.30104260698261e-17 	0.127811433851525 	0.0202458965145598 	0.805052227697503 	0.000496129910988956 	0
7.99999999999999 	2.20569893411515 	2.60208521396521e-18 	0.128802922515602 	0.0194094681673721 	0.789332198845531 	0.000443470384697532 	0
7.99999999999999 	2.23894917046122 	-8.67361737988404e-19 	0.129710094679608 	0.0186251067369843 	0.776773652163552 	0.000395761375426362 	0
7.99999999999999 	2.27102439731725 	-8.67361737988404e-19 	0.130542804519214 	0.0178870688864984 	0.767152458417812 	0.000352182070176087 	0
7.99999999999999 	2.30196613761521 	-8.67361737988404e-19 	0.131309422226966 	0.017190825828858 	0.760305257588724 	0.000312188043883329 	0
7.99999999999999 	2.33181444693391 	-8.67361737988404e-19 	0.132017088623591 	0.0165327655374476 	0.756121403237093 	0.000275433704629412 	0
7.99999999999999 	2.3606079653529 	2.60208521396521e-18 	0.132671921769339 	0.0159099735083275 	0.75453656135252 	0.000241716967156009 	0
7.99999999999999 	2.3883839674739 	9.54097911787244e-18 	0.133279183806211 	0.0153200726001274 	0.755528029017902 	0.000210941510317628 	0
7.99999999999999 	2.41517841067461 	9.54097911787244e-18 	0.133843416981211 	0.014761107060686 	0.759111706496878 	0.000183092480336568 	0
7.99999999999999 	2.44102598165722 	9.54097911787244e-18 	0.134368555637532 	0.0142314593839103 	0.765340581824142 	0.000158222198249969 	0
7.99999999999999 	2.46596014135207 	1.30104260698261e-17 	0.1348580190931 	0.0137297913754834 	0.774304567304798 	0.00013644328632537 	0
7.99999999999999 	2.49001316823443 	1.62630325872826e-17 	0.135314789130248 	0.0132550029166907 	0.786131541206668 	0.000117927340000707 	0
7.99999999999999 	2.51321620011054 	1.23599047663348e-17 	0.135741474985664 	0.0128062035246514 	0.800989475426861 	0.000102907815343316 	0
7.99999999999999 	2.535599274427 	1.73472347597681e-18 	0.136140368119468 	0.0123826930070896 	0.819089556921252 	9.1686199492818e-05 	0
7.99999999999999 	2.55719136715571 	-1.73472347597681e-18 	0.136513488589878 	0.0119839483738492 	0.8406902280152 	8.46407978873233e-05 	0
7.99999999999999 	2.57802043030465 	-1.73472347597681e-18 	0.136862624516371 	0.0116096147552933 	0.866102072122069 	8.22376170792592e-05 	0
7.99999999999999 	2.59811342810315 	-8.67361737988404e-18 	0.137189365845726 	0.0112594984385076 	0.895693451949436 	8.50428502867107e-05 	0
7.99999999999999 	2.61749637190832 	-1.9298798670242e-17 	0.137495133420132 	0.0109335603071165 	0.929896762464149 	9.37363840893235e-05 	0
7.99999999999999 	2.63619435387806 	-2.64545330086463e-17 	0.137781204169427 	0.0106319079972784 	0.969215086633165 	0.000109125536472043 	0
7.99999999999999 	2.65423157945406 	-2.29850860566927e-17 	0.138048733099313 	0.0103547850012299 	1.01422893561283 	0.000132157910568902 	0
7.99999999999999 	2.67163139869691 	-1.95156391047391e-17 	0.138298772615093 	0.0101025548106377 	1.06560261765139 	0.000163931820905857 	0
7.99999999999999 	2.68841633651388 	-1.95156391047391e-17 	0.138532289599177 	0.00987567806312632 	1.12408961979926 	0.000205702263378874 	0
7.99999999999999 	2.7046081218185 	-1.95156391047391e-17 	0.138750180545687 	0.0096746806297184 	1.19053622401741 	0.000258879943499411 	0
7.99999999999999 	2.72022771565972 	-2.29850860566927e-17 	0.138953284945316 	0.00950011077780006 	1.26588245227721 	0.000325020591712478 	0
7.99999999999999 	2.73529533835694 	-2.99239799605999e-17 	0.139142397010537 	0.00935248409914263 	1.3511594027217 	0.000405801876327646 	0
7.99999999999999 	2.74983049567625 	-3.33934269125535e-17 	0.139318275742429 	0.00923221592948344 	1.44748217968015 	0.000502985898201078 	0
7.99999999999999 	2.76385200408156 	-3.36102673470506e-17 	0.139481653276631 	0.00913954256880974 	1.55603802203656 	0.000618366706530201 	0
7.99999999999999 	2.77737801509343 	-3.38271077815477e-17 	0.13963324142008 	0.0090744346784757 	1.67806996991559 	0.000753704570174006 	0
7.99999999999999 	2.79042603878708 	-3.38271077815477e-17 	0.139773736311995 	0.00903650853663972 	1.81485750039884 	0.000910651694008462 	0
7.99999999999999 	2.80301296646003 	-3.03576608295941e-17 	0.139903821213103 	0.00902494292712775 	1.96769693982082 	0.00109067720222126 	0
7.99999999999999 	2.81515509249872 	-2.34187669256869e-17 	0.140024167534238 	0.00903841072403399 	2.13788593915315 	0.00129500177197481 	0
7.99999999999999 	2.82686813547237 	-1.99493199737333e-17 	0.140135434333017 	0.00907503413209915 	2.32671759590688 	0.0015245534530988 	0
7.99999999999999 	2.83816725848142 	-2.01661604082304e-17 	0.140238266602005 	0.00913237070224222 	2.53549060544619 	0.0017799553104907 	0
7.99999999999999 	2.84906708878691 	-2.40692882291782e-17 	0.140333292715672 	0.00920743375328568 	2.76554189922053 	0.00206155244129445 	0
7.99999999999999 	2.85958173674616 	-3.12250225675825e-17 	0.140421121387385 	0.00929674630918285 	3.01830758111463 	0.00236948126018997 	0
7.99999999999999 	2.86972481407933 	-2.77555756156289e-17 	0.1405023384328 	0.00939642313855114 	3.29541697070598 	0.0027037792007751 	0
7.99999999999999 	2.87950945149043 	-2.77555756156289e-17 	0.140577503599889 	0.00950227212841648 	3.59882400849079 	0.00306453055292505 	0
7.99999999999999 	2.88894831566566 	-3.46944695195361e-17 	0.140647147764091 	0.009609904958956 	3.93098140310954 	0.00345204723973896 	0
7.99999999999999 	2.89805362567106 	-3.46944695195361e-17 	0.140711770776331 	0.00971484814840946 	4.29506717543655 	0.00386709517054372 	0
7.99999999999999 	2.90683716877067 	-3.81639164714898e-17 	0.140771839894966 	0.00981264826861607 	4.69528193309028 	0.00431119829478724 	0
7.99999999999999 	2.91531031568569 	-3.81639164714898e-17 	0.14082778863553 	0.00989896744537718 	5.13724857647992 	0.00478707653476086 	0
7.99999999999999 	2.92348403531448 	-4.16333634234434e-17 	0.140880017749598 	0.00996966386340652 	5.62856282120943 	0.00529927441565205 	0
7.99999999999999 	2.93136890893229 	-4.85722573273506e-17 	0.140928894553441 	0.0100208437796051 	6.17956046511351 	0.00585497566534949 	0
7.99999999999999 	2.93897514388925 	-5.55111512312578e-17 	0.140974745881064 	0.0100488585941948 	6.80438592532569 	0.00646494855983105 	0
7.99999999999999 	2.94631258682425 	-5.89805981832114e-17 	0.141017851397737 	0.0100502118589967 	7.52247305320648 	0.00714467192726274 	0
7.99999999999999 	2.95339073641193 	-5.55111512312578e-17 	0.141058432908571 	0.0100213385484133 	8.36060517032351 	0.00791574456183297 	0
7.99999999999999 	2.96021875565915 	-5.20417042793042e-17 	0.141096636105521 	0.00995821533261951 	9.35584720354559 	0.00880747117250901 	0
7.99999999999999 	2.96680548376697 	-4.5102810375397e-17 	0.141132507913643 	0.00985575264780797 	10.5598580600921 	0.00985839498647717 	0
7.99999999999999 	2.97315944757337 	-4.16333634234434e-17 	0.141166006517763 	0.00970689369838052 	12.0454520998275 	0.0111179986126084 	0
7.99999999999999 	2.97928887259171 	-4.5102810375397e-17 	0.141197216814431 	0.00950125428337276 	13.9169321631007 	0.0126878577386348 	0
7.99999999999999 	2.98520169365902 	-5.20417042793042e-17 	0.141226374389125 	0.00922018406943478 	16.3303295996922 	0.0145930647114169 	0
7.99999999999999 	2.99090556520806 	-5.55111512312578e-17 	0.14125303896254 	0.00883447302554599 	19.5155067049918 	0.0169105911362723 	0
7.99999999999999 	2.99640787117633 	-4.85722573273506e-17 	0.141276279137005 	0.00829949863470812 	23.8009048836573 	0.0195752820655166 	0
7.99999999999999 	3.00171573456492 	-4.16333634234434e-17 	0.14129555022875 	0.00755240944435378 	29.6760092104818 	0.0222988219500246 	0
7.99999999999999 	3.00683602665962 	-4.5102810375397e-17 	0.141310661818837 	0.00651586602092937 	37.9347034328369 	0.0243703557327087 	0
7.99999999999999 	3.01177537592612 	-4.85722573273506e-17 	0.141321597922508 	0.00511992292176949 	50.0840359273398 	0.0243619177236655 	0
7.99999999999999 	3.01654017659085 	-4.85722573273506e-17 	0.141328809185509 	0.00336044861692652 	69.7186778141281 	0.0185369905330999 	0
7.99999999999999 	3.02113659691864 	-4.85722573273506e-17 	0.141333126951936 	0.00160614677749475 	107.995597921065 	0.00844292979533996 	0
7.99999999999999 	3.02557058719784 	-4.85722573273506e-17 	0.141335513272696 	0.000477152991112161 	210.21424764056 	0.00169040578168863 	0
7.99999999999999 	3.02984788744324 	-4.85722573273506e-17 	0.141336924166791 	6.98848720667734e-05 	630.477862042684 	0.000109816378748311 	0
