/*--------------------------------*- C++ -*----------------------------------*\
  =========                 |
  \\      /  F ield         | OpenFOAM: The Open Source CFD Toolbox
   \\    /   O peration     | Website:  https://openfoam.org
    \\  /    A nd           | Version:  7
     \\/     M anipulation  |
\*---------------------------------------------------------------------------*/
FoamFile
{
    version     2.0;
    format      ascii;
    class       volScalarField;
    location    "0";
    object      Cy;
}
// * * * * * * * * * * * * * * * * * * * * * * * * * * * * * * * * * * * * * //

dimensions      [0 1 0 0 0 0 0];

internalField   nonuniform List<scalar> 
15600
(
1.00195552661621
1.00098982732375
0.995041871687548
0.978946172537143
0.949496200491004
0.907480352769988
0.85681294031917
0.800988441632287
0.742537649324287
0.683502228185276
0.625291616122338
0.568275863179981
0.512251341784576
0.456969788429227
0.402175255245536
0.347837292001301
0.294464617721204
0.242935968399715
0.194248878222213
0.149539400382855
0.109880284677664
0.075966080081492
0.0482290963872532
0.0270554766705787
0.0127786701161332
0.00565565940868856
0.00390981920379557
0.00391105323242201
0.00391105323242206
0.00391105323242195
0.00391105323242198
0.00391105323242193
0.00391105323242179
0.00391105323242204
0.0039110532324219
0.00391105323242192
0.0039110532324219
0.0039110532324219
0.00391105323242201
0.00391105323242204
0.00391105323242201
0.00391105323242203
0.00391105323242206
0.00391105323242201
0.00391105323242201
0.00391105323242198
0.00391105323242192
0.00391105323242184
0.00391105323242196
0.00391105323242187
0.00391105323242187
0.003911053232422
0.00391105323242196
0.00391105323242195
0.00391105323242212
0.00391105323242212
0.0039110532324219
0.0039110532324219
0.0039110532324219
0.0039110532324219
0.00391105323242182
0.00391105323242192
0.0039110532324219
0.0039110532324219
0.00391105323242206
0.00391105323242206
0.00391105323242204
0.00391105323242198
0.00391105323242212
0.00391105323242185
0.0039110532324219
0.00391105323242195
0.0039110532324219
0.003911053232422
0.00391105323242185
0.00391105323242201
0.00391105323242196
0.00391105323242205
0.00391105323242198
0.00391105323242199
0.00391105323242201
0.00391105323242201
0.00391105323242184
0.00391105323242191
0.00391105323242195
0.00391105323242187
0.00391105323242225
0.00391105323242168
0.00391105323242173
0.00391105323242229
0.00391105323242227
0.00391105323242177
0.00391105323242172
0.00391003734910182
0.00566870670111491
0.0128171730559042
0.0271192047457665
0.0483169607323344
0.0760767393167578
0.11001238085391
0.149691076104408
0.194416865203881
0.243116150248641
0.29465304247845
0.348030600807705
0.402370811841825
0.457166744980092
0.512450497558315
0.568478134580683
0.625497860568573
0.683712695741789
0.742749201619244
0.801194469319901
0.857005472349091
0.907648716366673
0.949625789577646
0.979026757844972
0.995078938831651
1.00099931821338
1.00195552661621
1.00593829150435
1.0049764458981
0.999052225621329
0.983020758270468
0.953688323391833
0.911840179662589
0.861374999079727
0.805773298020744
0.747555763297223
0.688755913397459
0.630777575449291
0.573989333362986
0.518188371305673
0.463127415491825
0.408551538692475
0.354430409565845
0.301270714541176
0.249947683957766
0.201454872656598
0.156923801736232
0.117422941729169
0.083644070290569
0.0560177712126567
0.034928645866775
0.0207088121763179
0.013614226507145
0.0118753543114449
0.0118765830087033
0.0118765830087034
0.0118765830087034
0.0118765830087033
0.0118765830087033
0.0118765830087033
0.0118765830087033
0.0118765830087033
0.0118765830087033
0.0118765830087033
0.0118765830087035
0.0118765830087035
0.0118765830087034
0.0118765830087034
0.0118765830087034
0.0118765830087034
0.0118765830087034
0.0118765830087033
0.0118765830087034
0.0118765830087034
0.0118765830087032
0.0118765830087033
0.0118765830087032
0.0118765830087033
0.0118765830087034
0.0118765830087035
0.0118765830087034
0.0118765830087034
0.0118765830087034
0.0118765830087034
0.0118765830087032
0.0118765830087034
0.0118765830087032
0.0118765830087032
0.0118765830087033
0.0118765830087032
0.0118765830087034
0.0118765830087034
0.0118765830087034
0.0118765830087034
0.0118765830087036
0.0118765830087034
0.0118765830087034
0.0118765830087033
0.0118765830087033
0.0118765830087033
0.0118765830087032
0.0118765830087033
0.0118765830087032
0.0118765830087035
0.0118765830087034
0.0118765830087034
0.0118765830087033
0.0118765830087034
0.0118765830087035
0.0118765830087034
0.0118765830087033
0.0118765830087033
0.0118765830087031
0.0118765830087033
0.0118765830087038
0.0118765830087033
0.0118765830087033
0.0118765830087033
0.0118765830087033
0.0118765830087038
0.0118755715141809
0.013627221802968
0.0207471614657536
0.0349921196308433
0.0561052849330888
0.0837542879433372
0.117554510783905
0.157074872218722
0.201622189311058
0.250127146817326
0.301458387414715
0.3546229469867
0.408746314925703
0.463323586099562
0.518386732370237
0.574190797634501
0.630982996929374
0.68896554114727
0.747766471401648
0.805978503488294
0.861566762679389
0.91200787125048
0.953817395243152
0.983101021982452
0.999089144848813
1.004985898914
1.00593829150435
1.01006695662459
1.00910910587772
1.00320949047684
0.98724460798721
0.958034016032131
0.916359719632
0.866104179037002
0.810733437185237
0.752757704945891
0.694202056071053
0.636464501263983
0.579912104524841
0.524342891509464
0.469510614420416
0.415161404064393
0.361265052355962
0.308326138672395
0.25721625926481
0.208924843843943
0.164578715380887
0.12524190838603
0.0916033276888269
0.0640917678647391
0.0430902321141457
0.0289294583400042
0.0218643389838176
0.0201326900933959
0.0201339132491666
0.0201339132491667
0.0201339132491667
0.0201339132491668
0.0201339132491668
0.0201339132491668
0.0201339132491667
0.0201339132491667
0.0201339132491667
0.0201339132491668
0.0201339132491668
0.0201339132491669
0.0201339132491668
0.0201339132491667
0.0201339132491667
0.0201339132491667
0.0201339132491667
0.0201339132491666
0.0201339132491667
0.0201339132491668
0.0201339132491668
0.0201339132491667
0.0201339132491667
0.0201339132491667
0.0201339132491668
0.0201339132491669
0.0201339132491668
0.0201339132491667
0.0201339132491667
0.0201339132491667
0.0201339132491667
0.0201339132491667
0.0201339132491667
0.0201339132491667
0.0201339132491667
0.0201339132491667
0.0201339132491667
0.0201339132491667
0.0201339132491667
0.0201339132491668
0.0201339132491669
0.0201339132491668
0.0201339132491667
0.0201339132491667
0.0201339132491667
0.0201339132491667
0.0201339132491667
0.0201339132491667
0.0201339132491667
0.0201339132491667
0.0201339132491667
0.0201339132491666
0.0201339132491668
0.0201339132491668
0.0201339132491669
0.0201339132491669
0.0201339132491668
0.0201339132491667
0.0201339132491671
0.0201339132491664
0.020133913249167
0.0201339132491664
0.020133913249167
0.0201339132491664
0.020133913249167
0.0201339132491664
0.0201329063164121
0.0218772803807962
0.0289676483505052
0.0431534422510952
0.0641789181163415
0.0917130875828944
0.125372931009447
0.164729158452836
0.20909146561519
0.257394976796241
0.308513032118515
0.361456790133065
0.415355371347342
0.46970597029349
0.524540428752088
0.580112732099347
0.636669069629826
0.694410813248992
0.752967537934532
0.8109377903125
0.866295146057272
0.916526714594245
0.958162551700505
0.987324538322095
1.00324625636895
1.00911851963245
1.01006695662459
1.01434686672149
1.01339315717888
1.00751904802485
0.991623189662394
0.962538904121264
0.921044823424876
0.871006602302263
0.81587528020865
0.758150208377253
0.699847706456198
0.642359755537724
0.586051843961154
0.530722869709586
0.476127648569653
0.422013408150466
0.368350068149566
0.315640023708356
0.264751103851188
0.216668462031286
0.172514050977577
0.133347306677455
0.0998541559113425
0.0724615385070105
0.0515508009594464
0.0374512506064887
0.0304166769816134
0.0286925160476273
0.028693733442977
0.0286937334429769
0.028693733442977
0.028693733442977
0.028693733442977
0.028693733442977
0.0286937334429769
0.028693733442977
0.0286937334429769
0.0286937334429769
0.028693733442977
0.0286937334429769
0.0286937334429769
0.0286937334429769
0.0286937334429769
0.028693733442977
0.0286937334429769
0.0286937334429769
0.0286937334429768
0.0286937334429769
0.0286937334429769
0.028693733442977
0.0286937334429769
0.0286937334429769
0.028693733442977
0.028693733442977
0.0286937334429769
0.028693733442977
0.0286937334429769
0.0286937334429769
0.0286937334429769
0.0286937334429769
0.0286937334429769
0.0286937334429769
0.028693733442977
0.0286937334429769
0.0286937334429769
0.028693733442977
0.0286937334429769
0.0286937334429769
0.028693733442977
0.028693733442977
0.0286937334429769
0.0286937334429769
0.0286937334429769
0.0286937334429769
0.0286937334429769
0.0286937334429769
0.0286937334429769
0.028693733442977
0.0286937334429769
0.0286937334429769
0.0286937334429769
0.0286937334429769
0.0286937334429769
0.0286937334429769
0.0286937334429769
0.028693733442977
0.0286937334429765
0.0286937334429772
0.0286937334429766
0.0286937334429772
0.0286937334429766
0.0286937334429772
0.0286937334429766
0.0286937334429772
0.028692731252212
0.0304295625080168
0.0374892755032697
0.0516137378120155
0.0725483119750992
0.0999634412779509
0.133477762852409
0.172663843655301
0.216834363463768
0.26492904875092
0.315826109174156
0.368540976989489
0.422206536848871
0.476322159861834
0.530919552950919
0.586251604187701
0.642563439536784
0.700055561169978
0.758359134191554
0.81607874977237
0.87119674356283
0.92121109624281
0.962666883964961
0.991702774407313
1.00755565496432
1.01340253023417
1.01434686672149
1.01878356233268
1.01783414570035
1.01198647718566
0.996162171578825
0.967208819454821
0.925901556117045
0.876088615255632
0.821205483394148
0.763740254385509
0.70570017307214
0.648470969930947
0.592416499842135
0.537336565085164
0.48298708400485
0.429116421200084
0.375694628844672
0.323221837833148
0.272561971946305
0.224695751715539
0.180740081207196
0.141749629432159
0.10840723604509
0.0811379181955458
0.0603213049952655
0.0462852208214074
0.0392823118869895
0.0375659132585867
0.0375671246653599
0.03756712466536
0.03756712466536
0.03756712466536
0.0375671246653599
0.0375671246653599
0.0375671246653599
0.0375671246653599
0.03756712466536
0.03756712466536
0.0375671246653599
0.0375671246653599
0.0375671246653599
0.0375671246653599
0.0375671246653599
0.0375671246653599
0.0375671246653599
0.0375671246653599
0.0375671246653599
0.0375671246653599
0.0375671246653599
0.0375671246653599
0.03756712466536
0.03756712466536
0.0375671246653599
0.0375671246653598
0.0375671246653599
0.0375671246653599
0.0375671246653599
0.0375671246653599
0.0375671246653599
0.0375671246653599
0.0375671246653598
0.0375671246653598
0.0375671246653598
0.0375671246653599
0.0375671246653599
0.0375671246653599
0.0375671246653599
0.0375671246653599
0.0375671246653599
0.0375671246653599
0.0375671246653599
0.0375671246653599
0.0375671246653599
0.0375671246653599
0.0375671246653598
0.0375671246653599
0.0375671246653599
0.0375671246653599
0.0375671246653599
0.0375671246653599
0.0375671246653598
0.0375671246653598
0.0375671246653599
0.0375671246653599
0.03756712466536
0.03756712466536
0.0375671246653604
0.0375671246653594
0.03756712466536
0.0375671246653601
0.0375671246653601
0.0375671246653595
0.0375671246653601
0.03756712466536
0.0375661274043983
0.0392951394990637
0.0463230745559434
0.0603839585524257
0.081224301077706
0.108516029501205
0.141879498408244
0.180889199665072
0.224860906421151
0.27273911591057
0.323407085719847
0.375884678380898
0.429308680593989
0.483180719776401
0.537532363040467
0.59261536094682
0.648673737165702
0.705907092261226
0.763948239792907
0.821408037027003
0.87627790050726
0.926067080337313
0.967336223112603
0.996241398073511
1.01202291934943
1.01784347656523
1.01878356233268
1.02338278696123
1.02243782050276
1.01661756125122
1.00086742966499
0.972049807464138
0.93093620496496
0.881356796761562
0.826730946881783
0.769535079488751
0.711767032168228
0.65480605567263
0.599014311501782
0.544192539372729
0.490097800591089
0.436479638405769
0.383308242332938
0.331081396078454
0.280658975105991
0.233017104620728
0.189267455069295
0.15045975386184
0.117273640456075
0.0901321389054041
0.0694130980385644
0.055442804957853
0.0484727206622481
0.046764368742063
0.0467655739224542
0.0467655739224542
0.0467655739224543
0.0467655739224542
0.0467655739224542
0.0467655739224542
0.0467655739224541
0.0467655739224542
0.0467655739224541
0.0467655739224542
0.0467655739224541
0.0467655739224541
0.0467655739224542
0.0467655739224541
0.0467655739224541
0.0467655739224541
0.0467655739224542
0.0467655739224542
0.0467655739224541
0.0467655739224541
0.0467655739224541
0.0467655739224541
0.0467655739224543
0.0467655739224542
0.0467655739224541
0.0467655739224542
0.0467655739224541
0.0467655739224542
0.0467655739224541
0.0467655739224541
0.0467655739224541
0.0467655739224541
0.046765573922454
0.0467655739224539
0.0467655739224541
0.0467655739224541
0.0467655739224541
0.0467655739224541
0.0467655739224542
0.0467655739224541
0.0467655739224541
0.0467655739224542
0.0467655739224542
0.0467655739224541
0.0467655739224541
0.046765573922454
0.0467655739224541
0.046765573922454
0.0467655739224541
0.0467655739224541
0.046765573922454
0.0467655739224541
0.0467655739224541
0.0467655739224539
0.046765573922454
0.0467655739224541
0.0467655739224541
0.0467655739224542
0.0467655739224541
0.0467655739224546
0.046765573922454
0.046765573922454
0.0467655739224541
0.0467655739224548
0.0467655739224541
0.046765573922454
0.046764581787055
0.0484854882415913
0.055480481260048
0.0694754579225745
0.0902181168936061
0.117381923981903
0.150589014128496
0.189415874608924
0.233181485244766
0.280835288794079
0.331265775702984
0.38349740108651
0.436670996649833
0.490290528768982
0.54438741961111
0.599212240546735
0.655007872558728
0.711972981560834
0.769742090038944
0.826932551030944
0.881545194647055
0.93110095316512
0.972176613828892
1.00094628478537
1.01665383260291
1.02244710763165
1.02338278696123
1.02815049451082
1.02721014125095
1.02141829537186
1.00574505510167
0.977068135042422
0.93615528754475
0.886817966685278
0.832458823580726
0.775542185296666
0.71805613753151
0.661373213801572
0.605853820104015
0.551299667949669
0.497469003488651
0.444112591806809
0.391200764808061
0.339228873029677
0.289052595302433
0.241643293150647
0.198107211667746
0.159488955642248
0.126464847123001
0.0994558440708666
0.078837949828612
0.0649358579206453
0.057999800702856
0.0562997903155476
0.0563009890216486
0.0563009890216487
0.0563009890216486
0.0563009890216487
0.0563009890216487
0.0563009890216487
0.0563009890216488
0.0563009890216487
0.0563009890216487
0.0563009890216487
0.0563009890216486
0.0563009890216487
0.0563009890216486
0.0563009890216488
0.0563009890216488
0.0563009890216486
0.0563009890216486
0.0563009890216487
0.0563009890216487
0.0563009890216486
0.0563009890216487
0.0563009890216486
0.0563009890216487
0.0563009890216488
0.0563009890216488
0.0563009890216488
0.0563009890216488
0.0563009890216486
0.0563009890216486
0.0563009890216487
0.0563009890216487
0.0563009890216486
0.0563009890216486
0.0563009890216487
0.0563009890216486
0.0563009890216487
0.0563009890216487
0.0563009890216486
0.0563009890216488
0.0563009890216489
0.0563009890216488
0.0563009890216487
0.0563009890216487
0.0563009890216487
0.0563009890216487
0.0563009890216486
0.0563009890216487
0.0563009890216487
0.0563009890216486
0.0563009890216485
0.0563009890216486
0.0563009890216487
0.0563009890216487
0.0563009890216486
0.0563009890216486
0.0563009890216487
0.0563009890216489
0.0563009890216487
0.0563009890216487
0.0563009890216486
0.0563009890216487
0.0563009890216486
0.0563009890216492
0.0563009890216486
0.0563009890216486
0.0563009890216485
0.0563000022158869
0.0580125060537029
0.0649733502907183
0.0789000052815749
0.0995414023329631
0.126572602038655
0.159617584900954
0.198254906685908
0.241806871336356
0.289228048298832
0.339412352584918
0.391389000146822
0.44430301588915
0.497660790824874
0.551493596852146
0.606050782944726
0.661574045524422
0.718261081600368
0.775748185277442
0.832659443464085
0.887005444698775
0.936319231297917
0.977194322233868
1.00582352524285
1.02145438965394
1.02721938304165
1.02815049451082
1.03309285699333
1.03215728592899
1.0263948943172
1.01080136220727
0.982270298657534
0.941565560189447
0.892479194721155
0.838396528428739
0.781769348221397
0.724575630653509
0.668180945782905
0.612943879699494
0.558667151323834
0.505110235069473
0.452025162628953
0.39938241352512
0.347674815997405
0.297753698493692
0.250585484334279
0.207270794501431
0.168848923510076
0.135992754496011
0.109121103658324
0.0886080612633437
0.0747766688929167
0.0678758852390233
0.0661845220133317
0.0661857139866575
0.0661857139866573
0.0661857139866575
0.0661857139866574
0.0661857139866576
0.0661857139866575
0.0661857139866575
0.0661857139866575
0.0661857139866576
0.0661857139866574
0.0661857139866575
0.0661857139866574
0.0661857139866576
0.0661857139866575
0.0661857139866575
0.0661857139866574
0.0661857139866574
0.0661857139866575
0.0661857139866575
0.0661857139866576
0.0661857139866573
0.0661857139866575
0.0661857139866575
0.0661857139866574
0.0661857139866573
0.0661857139866575
0.0661857139866575
0.0661857139866575
0.0661857139866575
0.0661857139866573
0.0661857139866575
0.0661857139866575
0.0661857139866575
0.0661857139866575
0.0661857139866575
0.0661857139866577
0.0661857139866573
0.0661857139866574
0.0661857139866574
0.0661857139866577
0.0661857139866575
0.0661857139866574
0.0661857139866573
0.0661857139866577
0.0661857139866574
0.0661857139866574
0.0661857139866575
0.0661857139866576
0.0661857139866576
0.0661857139866573
0.0661857139866574
0.0661857139866575
0.0661857139866575
0.0661857139866576
0.0661857139866575
0.0661857139866574
0.0661857139866575
0.0661857139866575
0.0661857139866572
0.0661857139866578
0.0661857139866578
0.0661857139866578
0.0661857139866563
0.0661857139866578
0.0661857139866578
0.0661857139866578
0.0661847327233123
0.0678885260854319
0.0748139705929868
0.0886698011332855
0.109206226818846
0.136099961437324
0.16897689864547
0.207417738457103
0.250748230685989
0.29792825926875
0.347857362511042
0.399569691621475
0.452214618328333
0.505301047097976
0.558860094039885
0.613139840940706
0.668380756252326
0.724779532569809
0.781974300612279
0.838596127990181
0.892665719166
0.941728670027472
0.982395843993823
1.01087943326597
1.02643080504289
1.0321664807206
1.03309285699333
1.03821627251864
1.03728565883778
1.03155380052141
1.01604289661198
0.987663032761985
0.947174026735271
0.898347809544536
0.84455174799078
0.788224629544088
0.731333951269574
0.675238064513398
0.620293668687521
0.566304527043932
0.51303138727021
0.460227594076102
0.407863780027316
0.35643015867151
0.306773548690203
0.259855254282142
0.216770066278447
0.178551774394597
0.145869696899741
0.119140429791324
0.0987360801938628
0.0849779772448794
0.0781137593014786
0.0764313600662991
0.0764325450372849
0.076432545037285
0.076432545037285
0.076432545037285
0.076432545037285
0.076432545037285
0.076432545037285
0.0764325450372851
0.0764325450372849
0.076432545037285
0.0764325450372849
0.076432545037285
0.076432545037285
0.0764325450372851
0.0764325450372849
0.076432545037285
0.076432545037285
0.076432545037285
0.076432545037285
0.076432545037285
0.076432545037285
0.0764325450372849
0.0764325450372851
0.0764325450372849
0.076432545037285
0.076432545037285
0.076432545037285
0.076432545037285
0.076432545037285
0.0764325450372849
0.076432545037285
0.0764325450372851
0.0764325450372849
0.0764325450372849
0.0764325450372851
0.076432545037285
0.0764325450372849
0.0764325450372849
0.0764325450372851
0.0764325450372848
0.076432545037285
0.0764325450372849
0.076432545037285
0.076432545037285
0.076432545037285
0.0764325450372849
0.076432545037285
0.0764325450372851
0.0764325450372849
0.0764325450372851
0.076432545037285
0.076432545037285
0.076432545037285
0.0764325450372849
0.076432545037285
0.0764325450372849
0.0764325450372849
0.0764325450372848
0.0764325450372847
0.0764325450372854
0.0764325450372847
0.0764325450372847
0.0764325450372855
0.0764325450372847
0.0764325450372847
0.0764325450372855
0.0764315695382589
0.0781263332844061
0.0850150812902441
0.0987974929203019
0.119225101911574
0.145976335793214
0.178679071444554
0.21691623165828
0.260017138327444
0.306947184559113
0.356611737963341
0.408050065814565
0.460416045917611
0.51322118826242
0.566496447446346
0.620488591637088
0.675436816317295
0.731536772855247
0.788428495968434
0.844750289853299
0.898533345489852
0.947336272110459
0.987787912730443
1.01612055396824
1.0315895209663
1.03729480490857
1.03821627251864
1.04352737357729
1.04260189888566
1.03690169242319
1.02147644373143
0.993253318511017
0.952987947588321
0.904431408298757
0.850932450409254
0.794916385850247
0.738339848284129
0.682553705730053
0.627912701697763
0.574221682046288
0.52124271439777
0.468730504590628
0.416655843857272
0.36550623527536
0.31612382253669
0.269464603172152
0.226617324272974
0.188610069103599
0.156108460500647
0.129526792948002
0.109235117797534
0.0955529890253696
0.088726676272107
0.087053569467094
0.087054747154569
0.0870547471545689
0.0870547471545689
0.0870547471545689
0.0870547471545689
0.0870547471545689
0.0870547471545688
0.0870547471545688
0.0870547471545689
0.0870547471545688
0.0870547471545688
0.0870547471545689
0.087054747154569
0.087054747154569
0.0870547471545688
0.0870547471545688
0.0870547471545688
0.0870547471545688
0.087054747154569
0.0870547471545689
0.087054747154569
0.0870547471545688
0.0870547471545689
0.0870547471545689
0.0870547471545688
0.0870547471545689
0.0870547471545688
0.0870547471545689
0.0870547471545689
0.0870547471545689
0.0870547471545688
0.0870547471545688
0.0870547471545688
0.0870547471545688
0.0870547471545688
0.0870547471545689
0.0870547471545689
0.0870547471545689
0.0870547471545689
0.0870547471545688
0.0870547471545689
0.0870547471545688
0.087054747154569
0.0870547471545688
0.0870547471545688
0.0870547471545689
0.0870547471545688
0.0870547471545689
0.0870547471545689
0.0870547471545688
0.0870547471545689
0.0870547471545688
0.0870547471545688
0.0870547471545688
0.0870547471545688
0.0870547471545688
0.0870547471545688
0.0870547471545689
0.0870547471545692
0.0870547471545682
0.0870547471545689
0.0870547471545689
0.0870547471545689
0.0870547471545689
0.0870547471545689
0.0870547471545682
0.0870537776513172
0.0887391809463941
0.0955898881754643
0.109296191396504
0.12961099750544
0.156214510537454
0.188736663228213
0.226762682555765
0.269625593322338
0.316296499617381
0.365686811913088
0.416841100983967
0.468917915799833
0.521431467316212
0.574412542684297
0.628106548319584
0.682751360085569
0.738541549962662
0.795119126525331
0.851129895826764
0.904615919533941
0.953149296834175
0.993377508737611
1.02155367222968
1.03693721561652
1.0426109944508
1.04352737357729
1.04903303562637
1.04811288818266
1.04244549311127
1.02710903755064
0.999048392800034
0.959014849123395
0.910737866429725
0.85754689571874
0.801853279847274
0.745602391096308
0.690137339836469
0.635810841907309
0.582428865453873
0.52975484640397
0.477544901599471
0.425769986770594
0.374914795238533
0.325816624428193
0.279425970784524
0.236825316244744
0.199036828583956
0.166722299859244
0.140293638751864
0.120118765550862
0.106515394057514
0.0997283750408755
0.0980649011421139
0.098066071252742
0.098066071252742
0.0980660712527422
0.0980660712527423
0.098066071252742
0.098066071252742
0.0980660712527421
0.098066071252742
0.0980660712527419
0.0980660712527419
0.0980660712527421
0.098066071252742
0.0980660712527421
0.0980660712527421
0.098066071252742
0.0980660712527423
0.0980660712527422
0.0980660712527421
0.098066071252742
0.0980660712527421
0.0980660712527422
0.0980660712527419
0.098066071252742
0.098066071252742
0.0980660712527422
0.0980660712527422
0.098066071252742
0.098066071252742
0.0980660712527421
0.098066071252742
0.0980660712527421
0.098066071252742
0.098066071252742
0.0980660712527422
0.0980660712527422
0.0980660712527421
0.0980660712527422
0.098066071252742
0.0980660712527421
0.0980660712527421
0.0980660712527419
0.098066071252742
0.098066071252742
0.0980660712527421
0.0980660712527419
0.098066071252742
0.0980660712527423
0.0980660712527422
0.0980660712527421
0.0980660712527419
0.098066071252742
0.098066071252742
0.098066071252742
0.098066071252742
0.098066071252742
0.0980660712527421
0.098066071252742
0.098066071252742
0.0980660712527415
0.0980660712527427
0.0980660712527418
0.0980660712527418
0.0980660712527429
0.0980660712527421
0.0980660712527418
0.0980660712527418
0.098065107986732
0.0997408078721093
0.106552080806539
0.120179487599417
0.140377358618693
0.166827739468314
0.199162694033407
0.236969837864485
0.279586034293676
0.325988307597406
0.37509433249178
0.425954177553687
0.47773123405478
0.529942512854334
0.58261862750488
0.63600357277178
0.690333856540058
0.745802931841023
0.802054853533331
0.857743204525571
0.910921315418009
0.959175269413344
0.999171868017896
1.02718582148009
1.04248081182687
1.04812193139194
1.04903303562637
1.05474038599012
1.05382576094964
1.04819237928654
1.03294796972992
1.00505575763315
0.965262533427122
0.917275347880729
0.864403646538557
0.809044291578353
0.753130981340299
0.697998784162558
0.643998313808846
0.590936701844229
0.538578802646501
0.486682195763751
0.435218007470099
0.384668018407132
0.335864502179846
0.289752252605721
0.247407256941671
0.209845550777854
0.177724955088695
0.151454905377669
0.131401112824133
0.117879383660653
0.111133097791256
0.10947960975255
0.109480771980245
0.109480771980245
0.109480771980245
0.109480771980245
0.109480771980245
0.109480771980245
0.109480771980245
0.109480771980245
0.109480771980245
0.109480771980245
0.109480771980245
0.109480771980245
0.109480771980245
0.109480771980245
0.109480771980245
0.109480771980245
0.109480771980245
0.109480771980245
0.109480771980245
0.109480771980245
0.109480771980245
0.109480771980245
0.109480771980245
0.109480771980245
0.109480771980245
0.109480771980245
0.109480771980245
0.109480771980245
0.109480771980245
0.109480771980245
0.109480771980245
0.109480771980245
0.109480771980245
0.109480771980245
0.109480771980245
0.109480771980245
0.109480771980245
0.109480771980245
0.109480771980245
0.109480771980245
0.109480771980245
0.109480771980245
0.109480771980245
0.109480771980245
0.109480771980245
0.109480771980245
0.109480771980245
0.109480771980245
0.109480771980245
0.109480771980245
0.109480771980245
0.109480771980245
0.109480771980245
0.109480771980245
0.109480771980245
0.109480771980245
0.109480771980245
0.109480771980245
0.109480771980245
0.109480771980245
0.109480771980245
0.109480771980245
0.109480771980245
0.109480771980245
0.109480771980245
0.109480771980246
0.109479815203443
0.111145456152526
0.117915850227855
0.131461470444256
0.151538122798691
0.17782976190877
0.209970660859028
0.247550911249324
0.289911355528354
0.336035155027567
0.384846478200071
0.43540109284608
0.486867409947014
0.538765342828006
0.591125325063336
0.644189888041872
0.698194121537842
0.753330318621734
0.80924465552449
0.864598777097958
0.91745769571011
0.965421990732248
1.00517849164979
1.03302429280423
1.04822748603355
1.0538347498851
1.05474038599012
1.06065681308642
1.05974791275381
1.0541497905526
1.03900079904418
1.01128318983482
0.971739088397987
0.92405231566072
0.871511579157008
0.816498730047029
0.760935365055906
0.706148215673278
0.652485716446625
0.599756205003373
0.547726006153965
0.496154215750434
0.445012136879866
0.394778530811173
0.346280463270732
0.30045681652236
0.258376845207022
0.221050228096526
0.189130669641983
0.163025041594911
0.143096765120578
0.129659669021451
0.122955608437169
0.121312472147526
0.121313626172829
0.121313626172829
0.121313626172829
0.121313626172829
0.121313626172829
0.121313626172829
0.121313626172829
0.121313626172829
0.121313626172829
0.121313626172829
0.121313626172829
0.121313626172829
0.121313626172829
0.121313626172829
0.121313626172829
0.121313626172829
0.121313626172829
0.121313626172829
0.121313626172829
0.121313626172829
0.121313626172829
0.121313626172829
0.121313626172829
0.121313626172829
0.121313626172829
0.121313626172829
0.121313626172829
0.121313626172829
0.121313626172829
0.121313626172829
0.121313626172829
0.121313626172829
0.121313626172829
0.121313626172829
0.121313626172829
0.121313626172829
0.121313626172829
0.121313626172829
0.121313626172829
0.121313626172829
0.121313626172829
0.121313626172829
0.121313626172829
0.121313626172829
0.121313626172829
0.121313626172829
0.121313626172829
0.121313626172829
0.121313626172829
0.121313626172829
0.121313626172829
0.121313626172829
0.121313626172829
0.121313626172829
0.121313626172829
0.121313626172829
0.121313626172829
0.121313626172829
0.121313626172829
0.121313626172829
0.121313626172829
0.12131362617283
0.121313626172829
0.121313626172829
0.12131362617283
0.121313626172829
0.121312676148207
0.122967889605705
0.129695907341058
0.143156744962514
0.163107738164535
0.189234820492687
0.221174555138535
0.258519600430771
0.300614923669482
0.34645004805322
0.394955873673036
0.445194076354219
0.496338270695814
0.547911378807745
0.599943647671394
0.652676091676808
0.706342330517035
0.761133454786456
0.816697839936487
0.871705488306769
0.924233521993989
0.971897547442854
1.01140515549835
1.03907664438032
1.05418467756572
1.05975684542719
1.06065681308642
1.06678997599132
1.06588701008245
1.0603254390466
1.04527536116815
1.01773875111742
0.97845289821636
0.931077542799712
0.878879895021653
0.824226245267677
0.7690256453048
0.714596184142951
0.661284037137282
0.60889879218362
0.557208298413479
0.505973223545087
0.455165053978745
0.405259421009692
0.357077991682748
0.311553520126679
0.269748281713284
0.23266536553409
0.200954208750659
0.175019025472303
0.155220862983691
0.141871500237993
0.13521121173531
0.133578806493212
0.133579951982639
0.133579951982639
0.133579951982639
0.133579951982639
0.133579951982639
0.133579951982639
0.133579951982639
0.133579951982639
0.13357995198264