/*--------------------------------*- C++ -*----------------------------------*\
  =========                 |
  \\      /  F ield         | OpenFOAM: The Open Source CFD Toolbox
   \\    /   O peration     | Website:  https://openfoam.org
    \\  /    A nd           | Version:  7
     \\/     M anipulation  |
\*---------------------------------------------------------------------------*/
FoamFile
{
    version     2.0;
    format      ascii;
    class       volScalarField;
    location    "0";
    object      Cz;
}
// * * * * * * * * * * * * * * * * * * * * * * * * * * * * * * * * * * * * * //

dimensions      [0 1 0 0 0 0 0];

internalField   nonuniform List<scalar> 
15600
(
0
-1.60361986554574e-18
-9.31596899814997e-18
-1.53309095328162e-17
9.48441345782699e-20
-1.59915568093045e-18
0
2.75785242627565e-18
-1.10060117028333e-17
5.36603546244339e-18
7.455145334609e-18
-2.43020171058235e-18
-2.13782477971699e-18
4.37757284657888e-18
-2.15509268092793e-18
-1.98409525302189e-18
0
1.92921380959673e-18
1.57251774213304e-18
8.67361705117433e-18
4.9152860492072e-18
0
-9.58461959354903e-20
0
1.60886063677829e-18
0
-2.29893881491507e-16
-2.25728340547889e-16
0
-1.60465712541808e-18
-9.6373526479974e-20
-2.40173598460098e-16
-2.53036560718446e-16
-9.63735264799733e-20
0
-1.50828359893818e-18
0
9.63735264799715e-20
2.29519239741044e-16
2.32114715311023e-16
0
-6.12950792223261e-18
0
0
0
-3.11294072435634e-18
-2.38472567808199e-16
-2.43857684304504e-16
-9.63735264799737e-20
-3.11294072435636e-18
3.11294072435622e-18
0
-2.35648747663282e-16
-2.31026290096562e-16
0
0
0
-1.50828359893809e-18
0
-3.11294072435614e-18
6.22588144871307e-18
-9.63735264799723e-20
0
-1.60465712541822e-18
0
0
-9.63735264799771e-20
3.11294072435644e-18
0
1.50828359893819e-18
0
-6.12950792223282e-18
2.29519239741036e-16
4.65993032987381e-16
2.31011609227831e-16
6.2258814487125e-18
-7.73416504765069e-18
9.6373526479975e-20
0
2.32632180465401e-16
2.3372343613497e-16
-3.11294072435628e-18
0
0
-6.12950792223279e-18
-4.71759784977335e-18
-3.11294072435644e-18
1.50828359893891e-18
0
-3.11294072435645e-18
0
0
0
0
0
0
7.83563386162891e-18
5.44292071131472e-16
5.39145175562335e-16
1.01233049954031e-17
-1.69681001154609e-18
-1.76322109920482e-18
-5.60079849345093e-18
1.90861485182498e-18
-2.08222422033363e-18
1.95846812279868e-19
4.1854657308709e-18
-1.1360351671823e-17
0
2.55235980596739e-18
-7.86629707179553e-18
2.92565189754292e-18
0
8.94944570442622e-18
0
0
0
6.2123552160353e-18
-1.60378828386705e-18
0
-9.63787341915215e-20
0
-1.64399468124494e-18
-1.45134914549586e-18
-1.4576359320104e-18
-5.61416324711034e-18
0
-5.69056171170914e-18
0
0
4.73210494488783e-18
0
1.9102219419554e-19
4.13041592218891e-18
0
-3.82513947654894e-19
1.91350878883404e-19
3.53806604356427e-18
0
5.10137952261985e-18
3.16108624207578e-18
-1.92069842510334e-19
-3.19164595787684e-18
4.80827755568964e-18
-2.72634795506924e-18
0
2.26352458627642e-16
2.22440158983598e-16
1.64790933812665e-18
-6.206132831158e-18
-4.75097575370561e-18
2.42674527931552e-16
2.31188936311432e-16
6.01338057048349e-18
0
1.92752260674252e-19
0
0
-2.23179229142647e-16
-2.29290763138343e-16
0
0
1.4551570774524e-18
0
0
-1.64790933812659e-18
2.32102923868034e-16
2.30673958988416e-16
0
-7.85404216928443e-18
0
0
2.21724072065191e-16
2.27875335870861e-16
1.45515707745239e-18
1.64790933812664e-18
3.29581867625332e-18
-1.92752260674255e-19
1.64790933812667e-18
0
-1.6479093381267e-18
6.20613283115788e-18
0
1.45515707745241e-18
1.4551570774524e-18
1.64790933812665e-18
0
1.64790933812665e-18
0
-4.75097575370576e-18
0
0
-2.24634386220103e-16
-4.53567204480498e-16
-2.24370600167851e-16
0
-1.92752260674248e-19
6.01338057048384e-18
1.64790933812658e-18
-2.23179229142662e-16
-2.25999096359755e-16
0
-6.20613283115767e-18
0
-6.01338057048369e-18
0
0
1.64790933812701e-18
1.64790933812644e-18
-3.29581867625291e-18
-1.64790933812646e-18
-1.64790933812645e-18
0
-1.92751928788508e-19
0
-1.65245145594123e-18
-2.94916395112356e-18
-5.19917075007569e-16
-5.26732462185208e-16
0
1.93739299536218e-19
0
0
-7.36324002753609e-18
-8.04371410876733e-18
5.76749916623256e-18
-6.39089907072637e-18
1.95888229095831e-18
2.05825672731928e-18
0
2.69163157557366e-18
5.45683077930056e-18
5.69590392635635e-18
-1.8123810016373e-18
1.47078196353493e-17
3.88533921975972e-19
-6.38636732445982e-18
7.64468111251478e-18
-4.55555253017395e-18
6.01338057047716e-18
-1.50028692908496e-18
0
0
4.00853046794208e-18
-6.0064031692608e-18
-4.19882029405756e-18
-8.61081966531882e-18
0
-2.34590561201182e-18
-1.20355320601884e-17
4.37246259554677e-18
-4.34425740327657e-18
0
1.91111263257475e-19
-3.8325825559815e-18
-5.34524817095957e-18
-1.96648988581615e-18
2.0891778762059e-18
8.20115255656171e-18
1.57863472020254e-18
-4.76602197467429e-18
7.78832494761987e-18
-3.08591956247269e-18
0
0
0
0
0
0
-1.59666045557109e-18
0
0
-1.92752452119261e-19
4.78998136671325e-18
-4.40447646247471e-18
0
5.80838446592663e-18
-2.80781600690386e-18
-1.21115555133261e-18
-3.19332091114221e-18
1.92752452119261e-19
-1.92752452119258e-19
0
-1.4039080034518e-18
-1.59666045557107e-18
0
0
0
0
0
-3.0005684590229e-18
0
1.78941290769039e-18
0
4.40447646247489e-18
-3.0005684590229e-18
0
-3.00056845902292e-18
4.59722891459397e-18
-3.00056845902289e-18
-3.19332091114239e-18
-3.0005684590229e-18
3.0005684590229e-18
-3.0005684590229e-18
0
0
0
4.4044764624749e-18
0
0
0
0
1.92752452119261e-19
-3.0005684590229e-18
0
0
0
0
-3.00056845902291e-18
0
-3.19332091114221e-18
3.19332091114228e-18
-3.19332091114227e-18
1.78941290769036e-18
0
0
0
0
-1.92752452119285e-19
0
-2.80781600690409e-18
0
8.80895292495083e-18
0
1.59388420260978e-18
0
0
0
1.93429664384668e-19
4.57462385773979e-18
0
1.64046095800667e-18
1.94015742013548e-19
0
3.88573649022878e-18
1.1887912169022e-17
-6.36468646262552e-18
0
0
-9.32289861490948e-18
7.41760226001181e-18
3.89912927621509e-19
-2.84713929644658e-18
0
-1.78908068857304e-18
-6.01243218824328e-18
4.58767192951222e-18
0
-4.40189682654851e-18
0
2.7089400650977e-18
1.92672228346559e-19
5.40464705195432e-18
-2.89322802367035e-18
-8.32825805205793e-18
0
1.90537495984946e-19
-7.86125981854664e-18
0
0
-2.39095970877428e-18
-1.08552026733112e-17
1.91022302695131e-19
0
0
1.91256949829454e-19
5.5188565589296e-18
1.64568161837249e-18
0
1.7145244034375e-18
1.66274901372976e-18
6.09849969788583e-18
-3.17615359548449e-18
0
2.71694313441265e-18
-3.08786034987309e-18
-2.52175936309957e-18
0
-3.0944453663526e-18
0
2.90169271572511e-18
-2.70894006509761e-18
2.90169271572511e-18
0
0
-1.92752650627519e-19
-1.92752650627517e-19
0
0
-1.92752650627516e-19
0
0
-1.9275265062751e-19
8.51232549654771e-18
0
2.70894006509755e-18
0
-1.92752650627518e-19
-1.92752650627515e-19
3.28719801698012e-18
-3.09444536635258e-18
-2.81505805250569e-16
-2.82534705659937e-16
3.28719801698011e-18
2.70894006509768e-18
0
3.28719801698011e-18
1.92752650627518e-19
-3.09444536635258e-18
-2.70894006509748e-18
-1.92752650627517e-19
-5.80338543144991e-18
5.99613808207772e-18
-1.9275265062752e-19
1.92752650627516e-19
0
-1.9275265062752e-19
2.86730932730145e-16
2.85243645725028e-16
3.0944453663526e-18
2.90169271572508e-18
5.80338543145046e-18
-1.92752650627522e-19
-1.9275265062752e-19
0
0
-2.70894006509744e-18
0
0
2.70894006509756e-18
-5.80338543145014e-18
-1.92752650627519e-19
3.09444536635263e-18
0
1.92752650627516e-19
0
0
2.51618741446945e-18
0
0
2.90169271572559e-18
2.70894006509703e-18
0
-2.71352509041979e-18
-1.92826343413458e-19
2.71700973012652e-18
-1.93128728678917e-19
0
8.95923719505939e-18
6.27117227642953e-18
-3.23971015723291e-18
-1.93886516938407e-19
3.87388384369429e-18
-1.94125477214308e-19
-1.94216475769307e-19
-5.73933067030516e-18
-3.88717961749673e-19
2.19709274662372e-18
0
4.59586544646414e-18
0
-5.84864328395596e-19
1.04242249268774e-17
5.48613521293137e-18
-2.89445411621712e-18
-1.94266373910643e-19
5.40277394954381e-18
-2.89551471948412e-18
1.12145684497225e-17
2.90169271572571e-18
-2.70993765980672e-18
-5.60911680043324e-18
-1.92338588032076e-19
-5.40393650113322e-18
-2.80744780837323e-18
-5.20704693874949e-18
0
0
-4.71629248310942e-18
4.47614660872922e-18
0
0
3.861936001557e-18
0
0
0
3.30238760309047e-18
-1.97018551609183e-18
-3.24361884602979e-18
-3.12952236991088e-18
4.2566199980859e-18
-2.94844841655534e-18
-2.88554351151849e-18
0
0
1.92680854943257e-19
1.9275251622066e-19
0
0
0
-1.92752856461522e-19
5.41986951613005e-18
-5.41986951612989e-18
-5.41986951612987e-18
2.61355832983404e-18
0
-2.80631118629565e-18
2.80631118629567e-18
5.41986951612978e-18
5.4198695161298e-18
0
5.61262237259131e-18
-5.61262237259109e-18
1.92752856461529e-19
0
0
5.61262237259131e-18
0
-1.92752856461523e-19
0
1.92752856461525e-19
2.74100311045073e-16
2.75221468769209e-16
0
0
0
0
0
0
-2.61355832983405e-18
-1.92752856461522e-19
-1.92752856461529e-19
2.80631118629568e-18
0
0
2.80631118629567e-18
5.4198695161299e-18
-2.7129399985879e-16
-2.74835963056268e-16
2.99906404275731e-18
0
0
-5.22711665966837e-18
1.92752856461523e-19
1.92752856461522e-19
-1.92752856461522e-19
0
0
-1.92752856461524e-19
0
1.92752856461524e-19
-1.92752856461521e-19
0
0
-2.80631118629565e-18
2.80631118629554e-18
-5.4198695161316e-18
-3.85505712923028e-19
0
1.92752856461518e-19
0
0
0
-5.62143008748687e-18
0
0
-3.86257943138736e-19
-5.5803166574197e-18
0
0
0
-1.9388621027096e-19
0
8.64543616314131e-18
0
-5.73622422138582e-18
-5.55793460111825e-18
4.05699564909656e-18
3.89101286470933e-19
8.68272149141923e-18
4.86670169843006e-18
-1.94953028229597e-19
1.25241165264634e-17
0
-5.20733409794979e-18
2.81046733725534e-18
5.40575315739848e-18
-2.8003147149969e-18
2.80473332215148e-18
0
0
0
-5.22291605116404e-18
0
2.90594531828162e-18
-5.02166882184708e-18
-5.30056633462052e-18
-7.3221422819931e-18
4.92843070815671e-18
1.90628384405274e-19
0
0
1.9102241914711e-19
-5.3591438669529e-18
0
5.34884591914866e-18
-1.91350756038421e-19
3.2532540615657e-18
-1.47190923280029e-18
6.05111169652689e-18
-5.85881115179434e-18
-2.85120916778007e-18
3.1750832155345e-18
0
-5.2505898259774e-18
7.73955501748149e-18
0
-2.71430039477678e-18
2.7143003947769e-18
2.52154732488321e-18
3.09980653456425e-18
0
0
-5.42860078955368e-18
-2.71430039477678e-18
-2.9070534646706e-18
0
-2.52154732488323e-18
2.71430039477688e-18
0
2.71430039477688e-18
0
-1.92753069893683e-19
-5.42860078955404e-18
0
2.71430039477688e-18
0
2.5215473248832e-18
0
5.62135385944726e-18
0
2.90705346467057e-18
2.71430039477693e-18
-5.23584771965995e-18
0
0
-1.92753069893684e-19
2.71430039477688e-18
0
0
0
0
5.2358477196601e-18
0
2.5215473248832e-18
-5.4286007895535e-18
2.9070534646705e-18
-2.71430039477684e-18
-5.62135385944724e-18
-1.92753069893678e-19
0
0
-2.90705346467055e-18
1.92753069893675e-19
2.71430039477689e-18
0
0
1.92753069893683e-19
2.52154732488321e-18
0
0
-2.71430039477689e-18
2.52154732488321e-18
-5.42860078955381e-18
1.92753069893679e-19
0
5.42860078955531e-18
0
5.2358477196596e-18
-5.2358477196597e-18
-3.85506139787311e-19
-4.85034157987233e-18
0
5.43705963357403e-18
2.70935102381939e-18
3.85957367813165e-19
2.74826877895051e-18
2.79188153733859e-18
2.85282815583357e-18
-2.93138229007704e-18
9.08381172286886e-18
-5.88846027448096e-18
1.72512913133831e-18
4.77816385233784e-18
0
-1.09233969379222e-15
-1.11327049907103e-15
0
0
-1.94676765278411e-19
4.12206014161103e-18
0
1.94991561225027e-19
-2.26508492636275e-18
5.02194821779453e-18
-1.94265743283999e-19
0
-2.51531484254384e-18
5.42555436839001e-18
-2.71430039477485e-18
2.43278793759095e-18
0
-7.66477396790995e-18
-2.61717958299445e-18
-1.91217206357048e-19
-1.90773047269148e-19
9.67791647802514e-18
1.90462149847217e-19
1.90501435268049e-19
0
4.51776855810246e-18
-3.75671148651051e-18
-5.76922175136687e-18
-7.08200315030272e-18
1.84880444976775e-18
3.3842884377458e-18
0
0
0
-2.92526334925569e-18
-3.83825158094411e-19
0
-1.92224487049801e-19
-5.31486927830165e-18
0
0
-1.92752921507045e-19
5.25108245759452e-18
0
0
0
0
2.81829452000394e-18
2.62554122879726e-18
0
0
0
0
0
0
-7.87662368639167e-18
2.62554122879722e-18
2.62554122879738e-18
0
0
2.43278793759056e-18
-1.92753291206674e-19
-2.62554122879727e-18
0
-7.49111710397837e-18
0
0
2.81829452000401e-18
2.62554122879733e-18
2.6255412287973e-18
0
0
0
2.62554122879733e-18
7.87662368639119e-18
0
0
-2.43278793759063e-18
0
0
-1.92753291206675e-19
-1.92753291206675e-19
0
0
5.25108245759461e-18
0
0
-2.62554122879743e-18
0
0
2.62554122879736e-18
5.0583291663879e-18
0
2.62554122879732e-18
-1.92753291206673e-19
-2.62554122879732e-18
0
5.05832916638782e-18
0
0
0
1.92753291206679e-19
0
0
0
0
-2.62554122879752e-18
-1.92753291206681e-19
-7.69605420321907e-18
-1.92827078357763e-19
-5.07314832640626e-18
0
2.70031947655108e-18
-1.93430210713616e-19
-1.9358299691268e-19
8.78288977256208e-18
0
-6.10096332376116e-18
4.99648812629233e-18
-1.79095234129991e-18
1.03814540794337e-15
1.10172582051799e-15
-1.79601094774075e-18
5.83058798468427e-18
-1.94675331522033e-19
-2.27602099525622e-18
1.94949343336807e-19
2.48743608410533e-18
-2.37209673378907e-18
1.94695282719185e-19
-5.06235287781353e-18
1.93668300247898e-19
5.2397774327783e-18
1.92832830229404e-19
2.81829452000458e-18
-2.44354525887309e-18
-4.88397807954368e-18
5.06715707007968e-18
2.33976092876388e-18
1.5634328442823e-15
1.51035090297825e-15
0
-1.90462522927547e-19
-4.41790020474324e-18
2.00627740975083e-18
-7.79951468196535e-18
-3.6225709474893e-18
0
-3.51374043322792e-18
1.78974786774952e-18
1.34841326949759e-18
6.11624517266607e-18
0
-3.12194732692278e-18
5.46527889372147e-18
-2.54748889278346e-18
2.47484798378178e-18
0
-4.94894015874943e-18
7.25502371748748e-18
0
0
4.88708405005747e-18
-5.27259109144519e-18
0
1.63847815453624e-16
1.72347108005374e-16
2.5399187853758e-18
2.53991878537559e-18
-5.07983757075124e-18
-5.07983757075109e-18
0
5.07983757075126e-18
0
2.53991878537563e-18
0
0
-1.92753520693864e-19
5.07983757075147e-18
-1.92753520693868e-19
-2.53991878537562e-18
1.73814737074433e-16
1.82173065267856e-16
0
-1.92753520693865e-19
0
-1.92753520693872e-19
1.92753520693867e-19
2.53991878537551e-18
0
-7.6197563561268e-18
-2.53991878537564e-18
0
0
0
0
-5.07983757075135e-18
0
-2.53991878537564e-18
-2.53991878537565e-18
0
7.42700283543328e-18
5.07983757075167e-18
0
0
0
2.53991878537566e-18
-1.92753520693872e-19
-1.92753520693867e-19
-5.0798375707516e-18
0
5.07983757075116e-18
1.92753520693866e-19
1.92753520693872e-19
1.92753520693869e-19
1.92753520693866e-19
0
-1.92753520693874e-19
0
0
-5.07983757075054e-18
5.07983757075155e-18
2.73267230606964e-18
7.42700283543343e-18
0
0
-7.4270028354335e-18
-2.34716526468191e-18
-2.54381757758551e-18
0
-2.54720161413528e-18
2.37839914885024e-18
-2.61199314509352e-18
2.47508803781627e-18
0
-2.63712881072501e-18
3.12690288002226e-18
-1.94013259078811e-19
-6.11988766851751e-18
-1.34567119184316e-18
0
3.51747270333768e-18
-1.53750115455575e-18
0
-3.80508193710564e-18
-3.81853348049565e-18
4.2281561185765e-18
6.82596719100862e-18
-4.76950779491328e-18
-1.51290489602992e-15
-1.57058959226401e-15
-2.14608475109875e-18
-1.93164654197863e-19
1.92833068943908e-19
2.53991878537727e-18
2.4573289278126e-18
0
0
-2.449022846944e-18
-1.52575121033461e-15
-1.45948230466357e-15
2.39579369582684e-18
2.13079608675819e-18
-1.84740677215715e-18
1.74378011961094e-18
7.33659698943632e-18
1.93750028189064e-18
0
-3.39526444296384e-18
-4.43360052685954e-18
-6.13059144552668e-18
-1.61987418501056e-18
2.74696608420529e-18
5.2832390095045e-18
2.7351856733149e-18
0
0
0
-2.4869493237838e-18
0
-4.90407706835142e-18
0
-2.26456846351357e-18
-1.92753758659729e-19
1.58231238209433e-16
-7.35784354777183e-18
-1.60759769207403e-16
-4.72189068568685e-18
0
0
2.26456846351362e-18
4.72189068568691e-18
0
0
-1.5596666974592e-16
-2.41369516799412e-19
1.53861232797694e-16
0
0
0
5.10739820300661e-18
-1.7032509556164e-16
-1.66024392246778e-16
0
-2.26456846351358e-18
2.45732222217332e-18
0
-4.52913692702721e-18
7.37196666651981e-18
-4.91464444434691e-18
0
5.1073982030066e-18
-2.26456846351353e-18
1.92753758659726e-19
0
0
0
4.91464444434653e-18
2.2645684635137e-18
0
-2.45732222217329e-18
4.72189068568698e-18
0
-1.9275375865973e-19
0
-4.72189068568676e-18
-4.52913692702721e-18
1.92753758659729e-19
2.26456846351353e-18
3.18919798641051e-16
3.2038434163011e-16
4.52913692702721e-18
2.45732222217323e-18
-1.5350934752375e-16
-1.53861232797701e-16
1.92753758659734e-19
0
-4.91464444434665e-18
-1.92753758659728e-19
1.92753758659735e-19
2.4573222221737e-18
2.26456846351267e-18
4.91464444434661e-18
-4.721890685687e-18
0
1.92753758659741e-19
0
0
-1.92753343167977e-19
1.67358877110622e-16
1.61647176500468e-16
2.68094536360241e-18
4.86029643624156e-18
0
1.93583048542633e-19
0
0
-2.55334674385374e-18
-5.90905446994833e-18
-1.94212441373795e-19
-1.94283501591345e-19
0
-1.47569873044176e-18
-1.94143234649135e-18
0
2.12961739177912e-18
-3.881602797056e-18
8.52443866558893e-18
-1.94916192977087e-19
1.45289447882286e-15
1.52067445672626e-15
-1.93668553690141e-19
2.64515459654634e-18
2.26311832910372e-18
0
0
-1.9267349883569e-19
1.9233930601305e-19
-2.17754654251876e-18
-2.18426075896203e-18
2.3624730412759e-18
-3.81078358477715e-19
0
-2.15530077467631e-18
2.24634100755391e-18
0
3.55926101721918e-18
1.91022678233728e-19
1.91111468153418e-19
-2.97327788247752e-18
0
0
5.10724219504661e-18
5.28743981774667e-18
4.90680662436117e-18
-2.56258898434776e-18
2.49542217998342e-18
-1.92224838889649e-19
0
0
4.74516283823078e-18
0
0
0
-1.50628258894354e-16
-1.46012563949202e-16
0
-6.74742583117135e-18
-1.92754005420259e-19
0
4.75528922800812e-18
0
0
-4.7552892280081e-18
1.50628258894352e-16
3.66998526447052e-19
-1.50805120311136e-16
-2.37764461400395e-18
0
-2.37764461400407e-18
0
0
-6.94017983659209e-18
0
0
0
0
2.37764461400395e-18
0
2.37764461400404e-18
0
2.37764461400406e-18
0
0
0
4.94804323342857e-18
0
-2.18489060858368e-18
2.37764461400411e-18
0
-1.92754005420255e-19
0
-2.37764461400395e-18
0
0
0
0
1.92754005420255e-19
0
-3.10188834228465e-16
-3.11468851090514e-16
0
0
1.51013766905197e-16
3.10558449650677e-16
1.64721884906117e-16
2.37764461400399e-18
-2.37764461400411e-18
0
-1.57182930720114e-16
-1.53203138981364e-16
-2.18489060858306e-18
-2.18489060858398e-18
-7.13293384201266e-18
0
0
-2.37764461400425e-18
0
0
-1.63816309898915e-16
-1.59146638755985e-16
-2.60019050008096e-18
7.14050280913162e-18
0
-4.7418792038482e-18
2.45374137997792e-18
5.09654921377274e-18
1.94012135346079e-19
-5.51155111502865e-18
-3.25269143862399e-18
-3.16796912407384e-18
-1.94353044162273e-19
-1.9443935953724e-19
0
-5.50122918458659e-18
-1.67063409352058e-18
0
-3.91440305262223e-18
-6.37973515621786e-18
-8.68730032685715e-18
-8.5427110012809e-18
1.93668687437379e-19
1.93165178380223e-19
-6.74329693180285e-18
0
0
0
4.78213672846663e-18
4.39325383428619e-18
1.41130761658968e-15
1.35923982523721e-15
4.10046907075444e-18
-2.17115049044444e-18
-1.90502976901583e-19
-1.79820552615896e-18
5.11563587136275e-18
0
4.65828755329014e-18
0
-1.62480926800096e-18
-5.33236860136337e-18
-5.31458037855894e-18
-2.55519045673727e-18
2.2659352559451e-18
-2.55830476455903e-18
2.28692823056254e-18
4.63631421023495e-18
-2.36409063856133e-18
0
0
-2.29593234689502e-18
-2.30496951398713e-18
0
0
0
1.92754261303425e-19
-4.40881136752547e-18
2.30078281441455e-18
0
0
-1.92754261303426e-19
0
-6.51683992063677e-18
0
4.40881136752554e-18
0
0
-1.92754261303421e-19
4.60156562882866e-18
4.40881136752565e-18
2.30078281441444e-18
4.40881136752551e-18
-2.10802855311116e-18
0
0
0
1.92754261303421e-19
0
-1.92754261303423e-19
0
2.30078281441447e-18
6.90234844324333e-18
2.30078281441454e-18
6.70959418193985e-18
-1.92754261303422e-19
1.92754261303417e-19
-6.7095941819396e-18
-2.30078281441448e-18
1.9275426130342e-19
0
1.92754261303419e-19
-2.49353707571794e-18
0
0
4.60156562882889e-18
4.60156562882906e-18
0
-9.01037699635509e-18
-1.92754261303414e-19
0
4.60156562882902e-18
0
0
1.92754261303423e-19
-1.51417083943852e-16
-1.50388929095052e-16
0
0
0
1.51802592466448e-16
1.48824512529689e-16
-1.92754261303397e-19
0
0
-1.92754261303393e-19
0
0
0
0
1.92828191471827e-19
0
1.93130629238073e-19
2.36530516098117e-18
2.22233604405098e-18
0
2.56061704552492e-18
0
-5.11111030407354e-18
-8.36127774213503e-18
-1.94210616688206e-19
2.86764484918095e-18
0
3.88876227455471e-19
-8.51031495428239e-18
9.11166654627664e-18
-5.39569123726523e-18
3.9841640817588e-18
-6.13791830486416e-18
0
-1.37613551453859e-15
-1.40813489452242e-15
0
0
4.40617657607936e-18
-2.30078281441373e-18
2.13026379563353e-18
8.70825282133721e-18
0
2.02659442064666e-18
-1.36752962220669e-15
-1.30406996942102e-15
4.14415936303653e-18
3.81917713628405e-18
-1.63573657561135e-18
3.46738690467609e-18
1.45335706509761e-18
1.9091475670092e-19
1.68831538798086e-18
-6.12874936187514e-18
5.72112679662386e-18
-8.37260009519465e-18
8.05801127617086e-16
8.08046971919186e-16
0
-4.94904848197743e-18
2.01422698401325e-18
0
4.38299352055248e-18
-1.92377896826425e-19
2.23254357196777e-18
2.02930947419931e-18
4.46130623618781e-18
-4.26052011766243e-18
-2.22663732215597e-18
-2.22663732215614e-18
6.48715743981851e-18
6.48715743981825e-18
2.22663732215596e-18
0
0
0
2.03388279550639e-18
0
4.06776559101279e-18
-1.92754526649665e-19
-4.26052011766211e-18
0
-2.22663732215608e-18
2.22663732215614e-18
-2.22663732215597e-18
-7.15441632308086e-16
-7.19316372343772e-16
0
0
0
0
-4.06776559101294e-18
-4.06776559101279e-18
-2.22663732215613e-18
-7.17668269630213e-16
-7.14763314011075e-16
-2.22663732215597e-18
-8.71379476197423e-18
0
-8.71379476197423e-18
0
0
2.22663732215606e-18
0
0
0
1.92754526649671e-19
0
-6.48715743981848e-18
7.17668269630213e-16
7.12782705463215e-16
0
-1.92754526649666e-19
-2.03388279550637e-18
0
-1.92754526649668e-19
-4.06776559101244e-18
-4.6460291709618e-18
-4.45327464431195e-18
6.48715743981867e-18
-4.45327464431199e-18
4.06776559101276e-18
-8.71379476197426e-18
4.26052011766242e-18
-1.92754526649664e-19
1.92754526649658e-19
0
-6.67991196646941e-18
-4.26052011766334e-18
0
-4.067765591014e-18
4.26052011766347e-18
-4.2605201176617e-18
-1.92754068235654e-19
0
0
-2.25401065851788e-18
1.93280733479565e-19
0
7.00631675267747e-18
2.47682410489518e-18
0
1.94010928776223e-19
5.32021807902669e-18
1.10433453439129e-17
0
-2.87368426710635e-18
0
0
-1.8391167213365e-18
5.84447755099083e-19
-3.45819470875604e-18
-1.94979548274403e-19
-3.9540471671789e-18
1.3044059548575e-15
1.36757819600307e-15
-1.83292242315015e-18
0
2.03256963308865e-18
0
0
-8.42232317494138e-18
-2.14950559722172e-18
-2.14692332993707e-18
2.1512299401357e-18
0
-3.62142121688067e-18
4.06293751932834e-18
1.90503832097432e-19
3.15229396766812e-18
6.53170291148916e-18
7.93114556722019e-18
0
2.77066999405917e-18
-5.52379801501283e-18
5.32803921227412e-18
-7.98480705140306e-16
-7.5598753988162e-16
0
4.78740880596487e-18
0
0
-6.90011116070391e-16
-7.00604922923912e-16
4.12910996624035e-18
2.15066493431351e-18
1.92754329632971e-19
-6.27258165531805e-18
1.92754801812364e-19
-6.27258165531805e-18
0
-4.11746950294143e-18
1.96235735056444e-18
-4.31022430475346e-18
0
0
2.1551121523768e-18
0
0
-2.34786695418917e-18
-1.9275480181236e-19
1.96235735056443e-18
0
-3.92471470112889e-18
0
6.96481520927794e-16
6.90514583031727e-16
0
0
0
0
0
-1.92754801812363e-19
6.27258165531806e-18
6.88439336723695e-16
6.8841225626626e-16
-1.92754801812364e-19
1.92754801812365e-19
8.42769380769486e-18
-1.92754801812361e-19
-6.07982685350567e-18
-1.9275480181236e-19
8.4276938076949e-18
0
6.2725816553183e-18
-4.11746950294109e-18
6.27258165531808e-18
0
0
-6.90594448876076e-16
-6.90611853905434e-16
-2.15511215237671e-18
0
8.42769380769486e-18
1.92754801812362e-19
2.15511215237689e-18
0
6.27258165531808e-18
-1.92754801812364e-19
0
0
-6.07982685350564e-18
-4.11746950294096e-18
0
1.92754801812365e-19
-4.31022430475427e-18
0
4.11746950294289e-18
4.31022430475354e-18
1.96235735056355e-18
0
0
-4.11746950293944e-18
6.28208906954615e-18
0
0
0
2.21503389789715e-18
-4.71703468972516e-18
2.32202381714618e-18
2.39599227937717e-18
1.9388331941276e-19
-2.37706834667588e-18
-4.94352783964351e-18
-2.76295568515036e-18
-8.19429795544551e-18
1.94349569616321e-19
2.69358742927058e-18
-3.02024409579131e-18
1.58552623084733e-18
3.53840247969708e-18
0
1.14973946007252e-15
1.19137622102263e-15
3.89529518994204e-18
8.22853527910062e-18
-3.9101864939135e-18
2.15035412820491e-18
4.11500770580782e-18
-1.92754801812336e-19
0
1.92674513244036e-19
-1.92339981845483e-19
-1.91828173431507e-19
0
0
0
5.32453428830167e-18
3.58511783719809e-18
1.90630829761828e-19
-1.33761592104509e-18
1.90915027432023e-19
1.39216550310221e-18
-2.48059152958713e-18
0
2.47677694700572e-18
2.57470845285139e-18
-2.10073772435237e-18
-2.20508905080854e-18
1.91750973233541e-19
-2.24493892193977e-18
0
6.81679439332494e-16
6.63885302946856e-16
-1.89910088843126e-18
-2.08185853846285e-18
0
2.08611471236433e-18
-2.08611471236433e-18
0
0
-1.92755087158334e-19
0
4.36498451188699e-18
1.92755087158331e-19
-1.89335962520576e-18
2.08611471236418e-18
-2.08611471236426e-18
0
6.63947365475248e-16
6.74164927759725e-16
4.17222942472835e-18
-1.92755087158334e-19
0
0
2.08611471236424e-18
-1.89335962520577e-18
-1.89335962520591e-18
-3.97947433757034e-18
-4.36498451188699e-18
0
-1.92755087158331e-19
2.08611471236426e-18
-3.97947433757034e-18
0
0
-1.9275508715833e-19
0
-2.08611471236432e-18
3.97947433757e-18
0
0
0
-4.36498451188698e-18
6.63947365475272e-16
6.66510497456636e-16
-1.92755087158323e-19
1.92755087158331e-19
1.92755087158333e-19
0
-3.7867192504119e-18
1.9275508715833e-19
-2.08611471236417e-18
-2.08611471236418e-18
0
1.92755087158331e-19
0
-1.92755087158324e-19
-4.17222942472837e-18
4.17222942472853e-18
6.7379967377562e-16
6.67585016531997e-16
-6.45109922425111e-18
-5.87283396277601e-18
0
-6.69820199438027e-16
-6.62337131056217e-16
-1.92755087158309e-19
0
0
0
0
1.92755087158341e-19
2.0891527926007e-18
1.92829139183782e-19
0
0
0
1.93431378966747e-19
2.24683538122485e-18
1.93737512418287e-19
4.41078544762398e-18
-4.97307431491792e-18
2.38370496056281e-18
0
-5.53152136477913e-18
-2.8664423667689e-18
-1.94434102258871e-19
-1.94538259689153e-19
-1.52868618935464e-18
4.8352530310873e-18
6.98537538785089e-18
-1.09701715592316e-15
-1.17071706074195e-15
-1.94687325448487e-19
0
2.27346029099197e-18
-1.93166347997941e-19
-1.92834698373371e-19
3.97947433756944e-18
0
0
0
-2.01141571302888e-18
-1.63219368308565e-18
0
-1.90540879225546e-19
-1.71102471867122e-18
-6.73546076852859e-18
1.93478528672667e-18
0
0
5.56051225350642e-18
-8.49314998346942e-18
0
1.91256782643539e-19
0
4.80425131771226e-18
-2.31841504848206e-18
4.2893130271252e-18
0
-1.92070634026429e-19
5.83755943088196e-18
-1.85090614028779e-18
0
1.92683521401686e-19
-1.83033918373636e-18
0
-4.03911136335983e-18
-2.01955568167991e-18
0
0
-6.40672397068786e-16
-6.45827021288039e-16
2.21231106474836e-18
0
5.67315627890364e-18
2.01955568167997e-18
-1.92755383068383e-19
-6.42499197367472e-16
-6.46405596641984e-16
4.03911136335997e-18
0
-3.84635598029145e-18
1.9275538306839e-19
0
-3.84635598029173e-18
0
6.05866704504001e-18
0
0
1.92755383068388e-19
-3.46084521415471e-18
5.67315627890251e-18
0
3.84635598029131e-18
1.82680029861161e-18
1.92755383068381e-19
-5.86591166197136e-18
0
1.92755383068384e-19
2.01955568167984e-18
-1.92755383068382e-19
1.92755383068388e-19
-6.42884708133582e-16
-6.44686610111307e-16
-3.84635598029116e-18
1.9275538306839e-19
6.50384664711098e-16
6.43036452614387e-16
0
0
-2.01955568167996e-18
3.84635598029172e-18
2.01955568168e-18
0
1.9275538306838e-19
0
0
3.84635598029158e-18
-6.40672397068869e-16
-6.38508353479841e-16
-5.86591166197141e-18
0
-2.01955568167999e-18
6.40672397068782e-16
1.28834137918755e-15
6.44869878888124e-16
-2.01955568168015e-18
3.84635598029324e-18
0
-3.65360059722339e-18
-1.92755383068401e-19
1.92754876742618e-19
0
2.0253828737286e-18
-2.04412837932523e-18
1.93281591003457e-19
2.11852625346252e-18
0
0
0
-2.21097449533367e-18
0
8.14557356691527e-16
8.13253450922348e-16
1.94347040767199e-19
-5.7592011634308e-18
1.94536626519465e-19
1.94661857945238e-19
1.35902126502336e-18
-3.07813120011248e-18
-1.94972531922831e-19
-3.73878492160428e-18
0
-1.94262274779071e-19
1.9366943362277e-19
0
0
2.01955568168242e-18
5.38416178316377e-18
-1.92675078498677e-19
1.95012275430497e-18
-3.510807215864e-18
0
-5.23890886597347e-18
0
-1.90466025694308e-19
-1.57733073928221e-18
-4.49298643597089e-18
2.45982763222927e-18
0
0
0
0
7.10070173518083e-18
1.91350360599911e-19
0
1.91597819847289e-19
0
-4.01299927855897e-18
0
2.19999937320352e-18
0
-1.92530942266415e-19
-1.92683845320173e-19
0
0
1.92755689937865e-19
-1.95534889653079e-18
0
-1.92755689937865e-19
6.23294563782507e-16
6.12132859541635e-16
0
-1.92755689937864e-19
-1.76259320659294e-18
5.67329099965452e-18
1.92755689937864e-19
1.76259320659285e-18
-1.76259320659293e-18
-5.6732909996545e-18
6.21917481955815e-16
6.21920232013785e-16
5.6732909996545e-18
1.92755689937864e-19
1.92755689937864e-19
1.92755689937865e-19
5.67329099965453e-18
-1.76259320659286e-18
-1.92755689937866e-19
-1.76259320659292e-18
-1.92755689937868e-19
-3.71794210312382e-18
-1.92755689937864e-19
-1.95534889653079e-18
5.67329099965454e-18
0
5.67329099965453e-18
1.95534889653072e-18
3.71794210312401e-18
0
0
-1.76259320659293e-18
0
-1.95534889653079e-18
0
0
-6.21917481955745e-16
-6.19829822524291e-16
0
3.71794210312372e-18
0
-3.71794210312358e-18
-1.92755689937863e-19
3.71794210312372e-18
5.48053530971643e-18
0
1.9553488965308e-18
0
0
0
0
0
-3.71794210312375e-18
-3.52518641318484e-18
-6.14481597749642e-16
-6.24856523367598e-16
-1.9275568993786e-19
-3.71794210312459e-18
-1.92755689937887e-19
-1.76259320659331e-18
-1.92755689937851e-19
-1.95813884540484e-18
1.75936540652476e-18
1.92981834060547e-19
0
-1.9328189821067e-19
-1.85723137431395e-18
0
1.97649831251549e-18
2.245474590538e-18
-1.9382954431793e-18
-1.14723021649884e-17
-7.64556628465684e-16
-8.16419260387901e-16
5.3576977181664e-18
0
0
-5.87851449038854e-18
-1.69276555448567e-18
0
-1.64970607540647e-18
3.61161179990866e-18
-1.94684666978606e-19
3.51740818220582e-18
0
0
0
1.9275568993786e-19
0
-1.6995297069653e-18
5.28022775109134e-18
0
9.0551181390377e-18
-3.81549083466078e-19
6.96842453022174e-18
-1.15114590249818e-17