/*--------------------------------*- C++ -*----------------------------------*\
  =========                 |
  \\      /  F ield         | OpenFOAM: The Open Source CFD Toolbox
   \\    /   O peration     | Website:  https://openfoam.org
    \\  /    A nd           | Version:  7
     \\/     M anipulation  |
\*---------------------------------------------------------------------------*/
FoamFile
{
    version     2.0;
    format      ascii;
    class       volScalarField;
    location    "0";
    object      k_LES;
}
// * * * * * * * * * * * * * * * * * * * * * * * * * * * * * * * * * * * * * //

dimensions      [0 2 -2 0 0 0 0];

internalField   nonuniform List<scalar>
15600
(
0.00226057
0.00250878
0.00054087
0.00043603
0.00084217
0.00138419
0.00096945
0.00085259
0.00135666
0.00103709
0.00108635
0.00172840
0.00115712
0.00037024
0.00140190
0.00048549
0.00139666
0.00087671
0.00125957
0.00108330
0.00125798
0.00090572
0.00161826
0.00194187
0.00212435
0.00209185
0.00150279
0.00161083
0.00170292
0.00176047
0.00182033
0.00185484
0.00193247
0.00191220
0.00193076
0.00184009
0.00176884
0.00174827
0.00182074
0.00169322
0.00159866
0.00155603
0.00147592
0.00151053
0.00141383
0.00136730
0.00131534
0.00126252
0.00118960
0.00114912
0.00110460
0.00109303
0.00104023
0.00099657
0.00102609
0.00092906
0.00089724
0.00087457
0.00086178
0.00083972
0.00078819
0.00077437
0.00075462
0.00072908
0.00070309
0.00069484
0.00066294
0.00064454
0.00062665
0.00061125
0.00059354
0.00057580
0.00055846
0.00054332
0.00056757
0.00050581
0.00050515
0.00049763
0.00048197
0.00047519
0.00045798
0.00048073
0.00044255
0.00045963
0.00042401
0.00041456
0.00039962
0.00040444
0.00037557
0.00036459
0.00036213
0.00035379
0.00035068
0.00034392
0.00057195
0.00084541
0.00034853
0.00051796
0.00017869
0.00017208
0.00009405
0.00006388
0.00004096
0.00005196
-0.00008798
0.00010037
-0.00005190
-0.00002985
0.00007655
0.00020745
-0.00005177
-0.00003917
-0.00004911
-0.00005297
-0.00023179
-0.00000442
-0.00001819
0.00003873
0.00126141
0.00182024
0.00489000
0.00552143
0.00225990
0.00151811
0.00233106
0.00297218
0.00408518
0.00363916
0.00448831
0.00338474
0.00437120
0.00450551
0.00428122
0.00327536
0.00474206
0.00330205
0.00441065
0.00400723
0.00406755
0.00412894
0.00458681
0.00449937
0.00557883
0.00632720
0.00716268
0.00734611
0.00707780
0.00752558
0.00794967
0.00824210
0.00840595
0.00858842
0.00878743
0.00888877
0.00882042
0.00878700
0.00852761
0.00847316
0.00845337
0.00825530
0.00802926
0.00771773
0.00751430
0.00738747
0.00715429
0.00698359
0.00678734
0.00650874
0.00628131
0.00607824
0.00591883
0.00576148
0.00557592
0.00543052
0.00528570
0.00511092
0.00496634
0.00483236
0.00471545
0.00460376
0.00449886
0.00438674
0.00425742
0.00414534
0.00404480
0.00396701
0.00388749
0.00380184
0.00369358
0.00360206
0.00352580
0.00343027
0.00334462
0.00325474
0.00316029
0.00308017
0.00301552
0.00297680
0.00293090
0.00285283
0.00278230
0.00273616
0.00268149
0.00261895
0.00255968
0.00249984
0.00242821
0.00236487
0.00229710
0.00223058
0.00217032
0.00209626
0.00204100
0.00197882
0.00236847
0.00296247
0.00321094
0.00328279
0.00274882
0.00273756
0.00256192
0.00252827
0.00190723
0.00232279
0.00077060
0.00185704
0.00045435
0.00104292
0.00181592
0.00123195
0.00044871
0.00056951
0.00021213
0.00019232
0.00037198
0.00087784
0.00075694
0.00094263
0.00330807
0.00411339
0.00811337
0.00932202
0.00596612
0.00385905
0.00459948
0.00629738
0.00745731
0.00802811
0.00839131
0.00745960
0.00742885
0.00763385
0.00730655
0.00684663
0.00758412
0.00677017
0.00730193
0.00695700
0.00716815
0.00737101
0.00784487
0.00811745
0.00915629
0.00999238
0.01103557
0.01168816
0.01224653
0.01295723
0.01362859
0.01420966
0.01442779
0.01474921
0.01501092
0.01528102
0.01529398
0.01538244
0.01509825
0.01499951
0.01494983
0.01472789
0.01443493
0.01399026
0.01370779
0.01346768
0.01311741
0.01289844
0.01260230
0.01220259
0.01184071
0.01152710
0.01127985
0.01101218
0.01072504
0.01051067
0.01025533
0.00997398
0.00976965
0.00957128
0.00936779
0.00918581
0.00901176
0.00882874
0.00860476
0.00841325
0.00825090
0.00812844
0.00800745
0.00785838
0.00766799
0.00749506
0.00735299
0.00720090
0.00704678
0.00688210
0.00670388
0.00654829
0.00642766
0.00634440
0.00626224
0.00613962
0.00601377
0.00591425
0.00580925
0.00569311
0.00558251
0.00545969
0.00532009
0.00518507
0.00505331
0.00491142
0.00476673
0.00460427
0.00445000
0.00429021
0.00456648
0.00541936
0.00613045
0.00657974
0.00639063
0.00669041
0.00649545
0.00633632
0.00622551
0.00633076
0.00506430
0.00591243
0.00395513
0.00469918
0.00451038
0.00415708
0.00279968
0.00307335
0.00217144
0.00229817
0.00280963
0.00313275
0.00375241
0.00379591
0.00624237
0.00704920
0.01152104
0.01295246
0.01111145
0.00704632
0.00679808
0.00901386
0.01020807
0.01109964
0.01097918
0.01011784
0.01018387
0.01025545
0.01003623
0.00961729
0.01008949
0.00966925
0.00973497
0.00950256
0.00966898
0.00997746
0.01038935
0.01082000
0.01171237
0.01263326
0.01371225
0.01478655
0.01585017
0.01671268
0.01753227
0.01829815
0.01861545
0.01902094
0.01934002
0.01970295
0.01984408
0.02004330
0.01981874
0.01969728
0.01966380
0.01942876
0.01910949
0.01864451
0.01832580
0.01799725
0.01762691
0.01734543
0.01705120
0.01659173
0.01615396
0.01577713
0.01548310
0.01514760
0.01484339
0.01458893
0.01425027
0.01390378
0.01369273
0.01348891
0.01323682
0.01301896
0.01280646
0.01257314
0.01231622
0.01208797
0.01188559
0.01173977
0.01160241
0.01141591
0.01118370
0.01095301
0.01076704
0.01056473
0.01037463
0.01015343
0.00992828
0.00972472
0.00956000
0.00944250
0.00933611
0.00919458
0.00904073
0.00891741
0.00878444
0.00864027
0.00849889
0.00833228
0.00813980
0.00795728
0.00778249
0.00760134
0.00740515
0.00718092
0.00695288
0.00671354
0.00683487
0.00769844
0.00864473
0.00936779
0.00963627
0.01001102
0.01010070
0.01013395
0.01010066
0.01027882
0.00932101
0.00986039
0.00870185
0.00856084
0.00850015
0.00812083
0.00737883
0.00794080
0.00700250
0.00715428
0.00701604
0.00735793
0.00843918
0.00830882
0.00977027
0.01037992
0.01522528
0.01666442
0.01572953
0.01026239
0.00846601
0.01084504
0.01247213
0.01331645
0.01335385
0.01258023
0.01240136
0.01221282
0.01208350
0.01194622
0.01205409
0.01192413
0.01167583
0.01138613
0.01152809
0.01186305
0.01230561
0.01278876
0.01360651
0.01452500
0.01569010
0.01702359
0.01839728
0.01930474
0.02026905
0.02109437
0.02153559
0.02200460
0.02238998
0.02280763
0.02305181
0.02333405
0.02317994
0.02304188
0.02299816
0.02276261
0.02244180
0.02198294
0.02163636
0.02127977
0.02088871
0.02059086
0.02028695
0.01979530
0.01931790
0.01892690
0.01858461
0.01821646
0.01787360
0.01760526
0.01719075
0.01681581
0.01660279
0.01641020
0.01615077
0.01591348
0.01565783
0.01541470
0.01514590
0.01491592
0.01468961
0.01450372
0.01435719
0.01415030
0.01390784
0.01363394
0.01339698
0.01316445
0.01294570
0.01270461
0.01244314
0.01222707
0.01203833
0.01190002
0.01178080
0.01162905
0.01146240
0.01132540
0.01119717
0.01103567
0.01087591
0.01070148
0.01048839
0.01027119
0.01007602
0.00988560
0.00968005
0.00944526
0.00918918
0.00891781
0.00892301
0.00962511
0.01057742
0.01140037
0.01191748
0.01233477
0.01265732
0.01288937
0.01313483
0.01312744
0.01282757
0.01305044
0.01234207
0.01234204
0.01206878
0.01198359
0.01159726
0.01161580
0.01193949
0.01178868
0.01212177
0.01237214
0.01253948
0.01258898
0.01351396
0.01405898
0.01902499
0.02049240
0.01966042
0.01379226
0.01041107
0.01242776
0.01429168
0.01522986
0.01522078
0.01456782
0.01402420
0.01382867
0.01376353
0.01367080
0.01362686
0.01358168
0.01311592
0.01280058
0.01293691
0.01324801
0.01371022
0.01424635
0.01505487
0.01595013
0.01721861
0.01873616
0.02029314
0.02122933
0.02228702
0.02315106
0.02369534
0.02421422
0.02466012
0.02511117
0.02544173
0.02576399
0.02568622
0.02552267
0.02547745
0.02524425
0.02490758
0.02447498
0.02409130
0.02372353
0.02333214
0.02299591
0.02270112
0.02218985
0.02167892
0.02129427
0.02090140
0.02050779
0.02014119
0.01983923
0.01937271
0.01898076
0.01877355
0.01857980
0.01831460
0.01806579
0.01778015
0.01751987
0.01727464
0.01705110
0.01681095
0.01659590
0.01642713
0.01620164
0.01594563
0.01564595
0.01536650
0.01509653
0.01485584
0.01459804
0.01433163
0.01410618
0.01391067
0.01376622
0.01363783
0.01347752
0.01329877
0.01316709
0.01303726
0.01286788
0.01269714
0.01252325
0.01230258
0.01207690
0.01186918
0.01167898
0.01149241
0.01127301
0.01102281
0.01076172
0.01070227
0.01121073
0.01203518
0.01283414
0.01344944
0.01390953
0.01428900
0.01462011
0.01491530
0.01510058
0.01520885
0.01514859
0.01502124
0.01492821
0.01479979
0.01483365
0.01452701
0.01469256
0.01534986
0.01555406
0.01562591
0.01610629
0.01599281
0.01580653
0.01686062
0.01776910
0.02230151
0.02384470
0.02359385
0.01800799
0.01260588
0.01396691
0.01592298
0.01685419
0.01660206
0.01602018
0.01532277
0.01510973
0.01507478
0.01498453
0.01486282
0.01480985
0.01423410
0.01386609
0.01402430
0.01430158
0.01478348
0.01538572
0.01621598
0.01709830
0.01847905
0.02011992
0.02178415
0.02275211
0.02386402
0.02476046
0.02539060
0.02594849
0.02645121
0.02692289
0.02731346
0.02765096
0.02761074
0.02743193
0.02738454
0.02717537
0.02680685
0.02639801
0.02598066
0.02561269
0.02521214
0.02486327
0.02456925
0.02403189
0.02350943
0.02312460
0.02270327
0.02227065
0.02187859
0.02154159
0.02104165
0.02064596
0.02043089
0.02023502
0.01997256
0.01970005
0.01939183
0.01911720
0.01889571
0.01867896
0.01843362
0.01819041
0.01799977
0.01775636
0.01747659
0.01715358
0.01683643
0.01653551
0.01627835
0.01600307
0.01572422
0.01551019
0.01531337
0.01516306
0.01502529
0.01486086
0.01467704
0.01454478
0.01441311
0.01424171
0.01405934
0.01388746
0.01367931
0.01345050
0.01323492
0.01305244
0.01288247
0.01268464
0.01246226
0.01223296
0.01214599
0.01249339
0.01315711
0.01386740
0.01447992
0.01495869
0.01539095
0.01576652
0.01612499
0.01638865
0.01665335
0.01670059
0.01683778
0.01664129
0.01677296
0.01674562
0.01682249
0.01732648
0.01724981
0.01790414
0.01794856
0.01829838
0.01801167
0.01787122
0.01914877
0.02076927
0.02467545
0.02637964
0.02701533
0.02235419
0.01526261
0.01547543
0.01741212
0.01823239
0.01777508
0.01714790
0.01642836
0.01619628
0.01614379
0.01599400
0.01586828
0.01578890
0.01512966
0.01473053
0.01487636
0.01512918
0.01564536
0.01631586
0.01720539
0.01808862
0.01956012
0.02129725
0.02302634
0.02401985
0.02515080
0.02607861
0.02679138
0.02738103
0.02791764
0.02842072
0.02883661
0.02918302
0.02914189
0.02895976
0.02890932
0.02872574
0.02831810
0.02794592
0.02750315
0.02711854
0.02669736
0.02634867
0.02605314
0.02550665
0.02497853
0.02458312
0.02414501
0.02366327
0.02325386
0.02288076
0.02237694
0.02198341
0.02175343
0.02154447
0.02128163
0.02098419
0.02066136
0.02037206
0.02016722
0.01995244
0.01970029
0.01943602
0.01922420
0.01895980
0.01864733
0.01830311
0.01796073
0.01763245
0.01736236
0.01707139
0.01678852
0.01657689
0.01638458
0.01622753
0.01607566
0.01590803
0.01572429
0.01558156
0.01544885
0.01527590
0.01508373
0.01490833
0.01471276
0.01449582
0.01427909
0.01410233
0.01394882
0.01376676
0.01357338
0.01338466
0.01328662
0.01352149
0.01403360
0.01463174
0.01520427
0.01567996
0.01611910
0.01653625
0.01694389
0.01726441
0.01761278
0.01775968
0.01798181
0.01805091
0.01810599
0.01829662
0.01871826
0.01920372
0.01902731
0.01934487
0.01960816
0.01977236
0.01925350
0.01894398
0.02019928
0.02263181
0.02607131
0.02805520
0.02931778
0.02629796
0.01850613
0.01714912
0.01884218
0.01945669
0.01890191
0.01813849
0.01741450
0.01714615
0.01705877
0.01685633
0.01669994
0.01657092
0.01586399
0.01544274
0.01558446
0.01581431
0.01637211
0.01711847
0.01808299
0.01899315
0.02052655
0.02234100
0.02410206
0.02511883
0.02624967
0.02720138
0.02800002
0.02861406
0.02915686
0.02970692
0.03010981
0.03046666
0.03039550
0.03022170
0.03017183
0.03000452
0.02955748
0.02923218
0.02878055
0.02834917
0.02790481
0.02756084
0.02726439
0.02672112
0.02619352
0.02578421
0.02532468
0.02478525
0.02437686
0.02397294
0.02348867
0.02310614
0.02284560
0.02261435
0.02234719
0.02202949
0.02169620
0.02139565
0.02119366
0.02097660
0.02071094
0.02042928
0.02020182
0.01992153
0.01957108
0.01920877
0.01884196
0.01850091
0.01822050
0.01791733
0.01763571
0.01742199
0.01722629
0.01705901
0.01689342
0.01672330
0.01653965
0.01638258
0.01624256
0.01606603
0.01586635
0.01569236
0.01550993
0.01530245
0.01508796
0.01491500
0.01477511
0.01460981
0.01443822
0.01427834
0.01417538
0.01433267
0.01472324
0.01520925
0.01570864
0.01617113
0.01662427
0.01706076
0.01751069
0.01786771
0.01827549
0.01848725
0.01880301
0.01899477
0.01905504
0.01931531
0.01968908
0.01998771
0.02066410
0.02048963
0.02098112
0.02064992
0.02002441
0.01948745
0.02046117
0.02342514
0.02649956
0.02893055
0.03084654
0.02961462
0.02219646
0.01906820
0.02031888
0.02067112
0.01998253
0.01906460
0.01833292
0.01802534
0.01789059
0.01762384
0.01742969
0.01722160
0.01650350
0.01607050
0.01620608
0.01643092
0.01700860
0.01785076
0.01889378
0.01984916
0.02142765
0.02329470
0.02505930
0.02611252
0.02722615
0.02819722
0.02908188
0.02970362
0.03023930
0.03083438
0.03119837
0.03156743
0.03144797
0.03129202
0.03125611
0.03108274
0.03060608
0.03032486
0.02987727
0.02938731
0.02891660
0.02857728
0.02827886
0.02776262
0.02722323
0.02680341
0.02630618
0.02571394
0.02530971
0.02488955
0.02443988
0.02407940
0.02377956
0.02351584
0.02323361
0.02289922
0.02256275
0.02225336
0.02204686
0.02181991
0.02153938
0.02124186
0.02100028
0.02070845
0.02032382
0.01995164
0.01956335
0.01921791
0.01892832
0.01862036
0.01834126
0.01812147
0.01791415
0.01772873
0.01755401
0.01737924
0.01719569
0.01702389
0.01686502
0.01668286
0.01648410
0.01631106
0.01613248
0.01593634
0.01572488
0.01555346
0.01542157
0.01528133
0.01512392
0.01497905
0.01487226
0.01497021
0.01526676
0.01565206
0.01607649
0.01652108
0.01696623
0.01744129
0.01790296
0.01831086
0.01874983
0.01901554
0.01937053
0.01954272
0.01977317
0.02006167
0.02039721
0.02067219
0.02154481
0.02123311
0.02177066
0.02143561
0.02064430
0.01985829
0.02035314
0.02336562
0.02611903
0.02898111
0.03165858
0.03215818
0.02615640
0.02131971
0.02194304
0.02197609
0.02110722
0.02000772
0.01923601
0.01887696
0.01867344
0.01835395
0.01810266
0.01781874
0.01710840
0.01666445
0.01678444
0.01701823
0.01759417
0.01854808
0.01966702
0.02067746
0.02228786
0.02418259
0.02593982
0.02704023
0.02812480
0.02912361
0.03007974
0.03069411
0.03122404
0.03183435
0.03214662
0.03251252
0.03234677
0.03222017
0.03220978
0.03200696
0.03152033
0.03126717
0.03083659
0.03029725
0.02978140
0.02944853
0.02914216
0.02867667
0.02811425
0.02769359
0.02714364
0.02651159
0.02610023
0.02568110
0.02527555
0.02494015
0.02460122
0.02429986
0.02399113
0.02363506
0.02329968
0.02298897
0.02277601
0.02253280
0.02223813
0.02192145
0.02166258
0.02136400
0.02096333
0.02058652
0.02018085
0.01983025
0.01953497
0.01923051
0.01895711
0.01871859
0.01849663
0.01829185
0.01811004
0.01792838
0.01773778
0.01755360
0.01737419
0.01717895
0.01698554
0.01681111
0.01663305
0.01644355
0.01623754
0.01606262
0.01593041
0.01582135
0.01567799
0.01553516
0.01542697
0.01547572
0.01569897
0.01599584
0.01635747
0.01677310
0.01723491
0.01769994
0.01818369
0.01860190
0.01909119
0.01941605
0.01978921
0.02002077
0.02029473
0.02059434
0.02102405
0.02145238
0.02173466
0.02202355
0.02232495
0.02201894
0.02115246
0.02021031
0.02018201
0.02270760
0.02520169
0.02834925
0.03169633
0.03378050
0.03005528
0.02393482
0.02371524
0.02341668
0.02227860
0.02097666
0.02015025
0.01975014
0.01945697
0.01908014
0.01876845
0.01840008
0.01770170
0.01725986
0.01733835
0.01759883
0.01815268
0.01923186
0.02042153
0.02149140
0.02312618
0.02501885
0.02678118
0.02791524
0.02897745
0.03001574
0.03101989
0.03162989
0.03214476
0.03273995
0.03298631
0.03334680
0.03313193
0.03304396
0.03305736
0.03281734
0.03233711
0.03210301
0.03168822
0.03111056
0.03054914
0.03021469
0.02989950
0.02948947
0.02890135
0.02848216
0.02788681
0.02723309
0.02679083
0.02639298
0.02602402
0.02570779
0.02533648
0.02499996
0.02465210
0.02426911
0.02393728
0.02363555
0.02341477
0.02315250
0.02284627
0.02251001
0.02222877
0.02192394
0.02152487
0.02114390
0.02072986
0.02036636
0.02006804
0.01977756
0.01950855
0.01924487
0.01900686
0.01878539
0.01859402
0.01840092
0.01820036
0.01800438
0.01780444
0.01759854
0.01740590
0.01722558
0.01704629
0.01686088
0.01665941
0.01647662
0.01634554
0.01625974
0.01613379
0.01598520
0.01587407
0.01588124
0.01604427
0.01627195
0.01657919
0.01696783
0.01743792
0.01790903
0.01839057
0.01886211
0.01933759
0.01970125
0.02008444
0.02036903
0.02060302
0.02100395
0.02141965
0.02184852
0.02188652
0.02275201
0.02263908
0.02238962
0.02152230
0.02053831
0.02012680
0.02192043
0.02406723
0.02729643
0.03110709
0.03461550
0.03359267
0.02691824
0.02570591
0.02502579
0.02356500
0.02204094
0.02111396
0.02063902
0.02023999
0.01981619
0.01944340
0.01899914
0.01831959
0.01787479
0.01790341
0.01818684
0.01870641
0.01991704
0.02116752
0.02229969
0.02396455
0.02581507
0.02760662
0.02876622
0.02981619
0.03089522
0.03191935
0.03254573
0.03300320
0.03360506
0.03377078
0.03410317
0.03385364
0.03379440
0.03382788
0.03355127
0.03309014
0.03286796
0.03244784
0.03183871
0.03125283
0.03090760
0.03059505
0.03021138
0.02961031
0.02918190
0.02857204
0.02790262
0.02741563
0.02704744
0.02670164
0.02639514
0.02600461
0.02562913
0.02524346
0.02483637
0.02450375
0.02421460
0.02398395
0.02370386
0.02338719
0.02303770
0.02272956
0.02241279
0.02203183
0.02163603
0.02122692
0.02085068
0.02054657
0.02027727
0.02001245
0.01972368
0.01946738
0.01923270
0.01902910
0.01882133
0.01860817
0.01839816
0.01817832
0.01796800
0.01777270
0.01758160
0.01739745
0.01721721
0.01701859
0.01682707
0.01669733
0.01661914
0.01651102
0.01635827
0.01623974
0.01621334
0.01632889
0.01650506
0.01677192
0.01713393
0.01759786
0.01807261
0.01855095
0.01903814
0.01952860
0.01992556
0.02032268
0.02062846
0.02091136
0.02126767
0.02172166
0.02205784
0.02249850
0.02304182
0.02289163
0.02265693
0.02183155
0.02084768
0.02020861
0.02126581
0.02299998
0.02604040
0.03010312
0.03472899
0.03641529
0.03024082
0.02792703
0.02677569
0.02497578
0.02322304
0.02214954
0.02159865
0.02107838
0.02058547
0.02015489
0.01963940
0.01897754
0.01852265
0.01849821
0.01879543
0.01929029
0.02060856
0.02191684
0.02311034
0.02480958
0.02659000
0.02842544
0.02961654
0.03066955
0.03177276
0.03280012
0.03343669
0.03382773
0.03445269
0.03454124
0.03478353
0.03455189
0.03449041
0.03454282
0.03424352
0.03380466
0.03359418
0.03314078
0.03250095
0.03190891
0.03155697
0.03125055
0.03085476
0.03026806
0.02981309
0.02920708
0.02852465
0.02799636
0.02766022
0.02732821
0.02702125
0.02661583
0.02620097
0.02578342
0.02536471
0.02502783
0.02474889
0.02450509
0.02420806
0.02387459
0.02352082
0.02318504
0.02284578
0.02248608
0.02207404
0.02167714
0.02129908
0.02098507
0.02073456
0.02047306
0.02016469
0.01988944
0.01964436
0.01943096
0.01920879
0.01897376
0.01874684
0.01851232
0.01830188
0.01810327
0.01790136
0.01770900
0.01752901
0.01733402
0.01713720
0.01700107
0.01691709
0.01682106
0.01667223
0.01654377
0.01648863
0.01657066
0.01671326
0.01695615
0.01728902
0.01773123
0.01819671
0.01868201
0.01917657
0.01967778
0.02009556
0.02048066
0.02080861
0.02113563
0.02147242
0.02195234
0.02246853
0.02302535
0.02306570
0.02297849
0.02285551
0.02207784
0.02112734
0.02037293
0.02082076
0.02213911
0.02478175
0.02879195
0.03423083
0.03842592
0.03378370
0.03039333
0.02876152
0.02655813
0.02455422
0.02327331
0.02262055
0.02198136
0.02142420
0.02093576
0.02033421
0.01968767
0.01920752
0.01913678
0.01944198
0.01993546
0.02131756
0.02268670
0.02394521
0.02565889
0.02735421
0.02923211
0.03046900
0.03153628
0.03264779
0.03367140
0.03430038
0.03465980
0.03529185
0.03531142
0.03542573
0.03524636
0.03515213
0.03522516
0.03490470
0.03450036
0.03430587
0.03378925
0.03311910
0.03253629
0.03217283
0.03187456
0.03144446
0.03088994
0.03039962
0.02979857
0.02911810
0.02855266
0.02823599
0.02791296
0.02759367
0.02717438
0.02672218
0.02628163
0.02586085
0.02552930
0.02525944
0.02500100
0.02468245
0.02431527
0.02396395
0.02360710
0.02323605
0.02288637
0.02247334
0.02208710
0.02171746
0.02139711
0.02114944
0.02088933
0.02056847
0.02027977
0.02003066
0.01980369
0.01956361
0.01930397
0.01906207
0.01881800
0.01860917
0.01840491
0.01820175
0.01799865
0.01780958
0.01761710
0.01742045
0.01726825
0.01716733
0.01707835
0.01693773
0.01679595
0.01672030
0.01677685
0.01690277
0.01713300
0.01743771
0.01784862
0.01830545
0.01878971
0.01928355
0.01978748
0.02021436
0.02060690
0.02092776
0.02127128
0.02164419
0.02207848
0.02254492
0.02293865
0.02311979
0.02314773
0.02297425
0.02224216
0.02135405
0.02057263
0.02060595
0.02152200
0.02366517
0.02737303
0.03324562
0.03952518
0.03736436
0.03311713
0.03094856
0.02832414
0.02603904
0.02450771
0.02373952
0.02296396
0.02234717
0.02179393
0.02110184
0.02045369
0.01993187
0.01982809
0.02013930
0.02065630
0.02206830
0.02348113
0.02481734
0.02651165
0.02813760
0.03002930
0.03131592
0.03241536
0.03351101
0.03454335
0.03516138
0.03552558
0.03612920
0.03609079
0.03609019
0.03592884
0.03581733
0.03589116
0.03554434
0.03518774
0.03499745
0.03442041
0.03371138
0.03316780
0.03276503
0.03246945
0.03200254
0.03147960
0.03094935
0.03035323
0.02969372
0.02909920
0.02878143
0.02845629
0.02811881
0.02767926
0.02719672
0.02674410
0.02633397
0.02601000
0.02574982
0.02547713
0.02512629
0.02472406
0.02437323
0.02399896
0.02359592
0.02323959
0.02284418
0.02247148
0.02211148
0.02179187
0.02153407
0.02126422
0.02093891
0.02064475
0.02039306
0.02014361
0.01988166
0.01960973
0.01935725
0.01910775
0.01889592
0.01868986
0.01848942
0.01827291
0.01807409
0.01787767
0.01768160
0.01750922
0.01738716
0.01730167
0.01716824
0.01701041
0.01692285
0.01695568
0.01707737
0.01729303
0.01757589
0.01796005
0.01840211
0.01888203
0.01936858
0.01986935
0.02030015
0.02067169
0.02101860
0.02136807
0.02174506
0.02221094
0.02242160
0.02274368
0.02317357
0.02334186
0.02305869
0.02236504
0.02153515
0.02076668
0.02054051
0.02111827
0.02274913
0.02598968
0.03191477
0.03974779
0.04068075
0.03609018
0.03336206
0.03029649
0.02771152
0.02588932
0.02497316
0.02405277
0.02337002
0.02272504
0.02195614
0.02128445
0.02070500
0.02058223
0.02090056
0.02145340
0.02286573
0.02430991
0.02572623
0.02739681
0.02896616
0.03084791
0.03216422
0.03332153
0.03437690
0.03542544
0.03602757
0.03642929
0.03696771
0.03688846
0.03679836
0.03661086
0.03652273
0.03655816
0.03619739
0.03585996
0.03566371
0.03504691
0.03429402
0.03380490
0.03335766
0.03304382
0.03256594
0.03204078
0.03147744
0.03088748
0.03026181
0.02964167
0.02929217
0.02895739
0.02860118
0.02814089
0.02763781
0.02718679
0.02679282
0.02647025
0.02621326
0.02591576
0.02552717
0.02511428
0.02475482
0.02435882
0.02393927
0.02356375
0.02319256
0.02283785
0.02248895
0.02217319
0.02189748
0.02160607
0.02128435
0.02099016
0.02072603
0.02044918
0.02017203
0.01989945
0.01964120
0.01939152
0.01917120
0.01896651
0.01876183
0.01853989
0.01833389
0.01813047
0.01792960
0.01773752
0.01759324
0.01750621
0.01737868
0.01720743
0.01710772
0.01711911
0.01723712
0.01743162
0.01770247
0.01807362
0.01849788
0.01896132
0.01944141
0.01993073
0.02035707
0.02072574
0.02107741
0.02141958
0.02177207
0.02219591
0.02259924
0.02283143
0.02315091
0.02334637
0.02308095
0.02244017
0.02166874
0.02093530
0.02056009
0.02086897
0.02205508
0.02475168
0.03036630
0.03920389
0.04349729
0.03928674
0.03597056
0.03251231
0.02957816
0.02743134
0.02632964
0.02526119
0.02450416
0.02373291
0.02290426
0.02218978
0.02155360
0.02139784
0.02172105
0.02229958
0.02369367
0.02518645
0.02667274
0.02831948
0.02984395
0.03169421
0.03306216
0.03425062
0.03525687
0.03630867
0.03691937
0.03736840
0.03780153
0.03769664
0.03755503
0.03732760
0.03726886
0.03723115
0.03688249
0.03652066
0.03630643
0.03564601
0.03487968
0.03443385
0.03397925
0.03361166
0.03316148
0.03260011
0.03199065
0.03142027
0.03082728
0.03018399
0.02977993
0.02942352
0.02905018
0.02857785
0.02806325
0.02762248
0.02724278
0.02690343
0.02663458
0.02631556
0.02588724
0.02548657
0.02510720
0.02469352
0.02427485
0.02387741
0.02352023
0.02317929
0.02284986
0.02253722
0.02223644
0.02192421
0.02160987
0.02131694
0.02103583
0.02073059
0.02045030
0.02017597
0.01991634
0.01967118
0.01944406
0.01923221
0.01902001
0.01879963
0.01858915
0.01838418
0.01817556
0.01796656
0.01780195
0.01769735
0.01757729
0.01740091
0.01728360
0.01727733
0.01738518
0.01755952
0.01782528
0.01818810
0.01859400
0.01904134
0.01950859
0.01998407
0.02039829
0.02076817
0.02109615
0.02144829
0.02181628
0.02220339
0.02267361
0.02310901
0.02314572
0.02329986
0.02307295
0.02247729
0.02176155
0.02106945
0.02062178
0.02071615
0.02153056
0.02369646
0.02875948
0.03805522
0.04550723
0.04263340
0.03879014
0.03495821
0.03165287
0.02917382
0.02783465
0.02659620
0.02576216
0.02483752
0.02395647
0.02317954
0.02249446
0.02228609
0.02260023
0.02319810
0.02458634
0.02612009
0.02767583
0.02926053
0.03079997
0.03257895
0.03401680
0.03520337
0.03616352
0.03718204
0.03782941
0.03832219
0.03862142
0.03852530
0.03833227
0.03811764
0.03805788
0.03792428
0.03758843
0.03720382
0.03691432
0.03622421
0.03549013
0.03506052
0.03462397
0.03420553
0.03377445
0.03316196
0.03250016
0.03195307
0.03138474
0.03072263
0.03027138
0.02988017
0.02947500
0.02900399
0.02849428
0.02806554
0.02768457
0.02730926
0.02701362
0.02668535
0.02622120
0.02583869
0.02542998
0.02500395
0.02459546
0.02418831
0.02383407
0.02349375
0.02318657
0.02287391
0.02254630
0.02221847
0.02191751
0.02162082
0.02132375
0.02099806
0.02072065
0.02044362
0.02018306
0.01994168
0.01970740
0.01948526
0.01927042
0.01905087
0.01883935
0.01863740
0.01842353
0.01820261
0.01801961
0.01788396
0.01776564
0.01759438
0.01746169
0.01743701
0.01753133
0.01769429
0.01795028
0.01830204
0.01869304
0.01911684
0.01957678
0.02002457
0.02042890
0.02079416
0.02112592
0.02146466
0.02182356
0.02223906
0.02259303
0.02316477
0.02325883
0.02324675
0.02304043
0.02248388
0.02181809
0.02116651
0.02068858
0.02062280
0.02113523
0.02282272
0.02721645
0.03644816
0.04659114
0.04596762
0.04179857
0.03764202
0.03392614
0.03112152
0.02950588
0.02809067
0.02711865
0.02605760
0.02511025
0.02425683
0.02353394
0.02325378
0.02352731
0.02417466
0.02555820
0.02711119
0.02872681
0.03024452
0.03183116
0.03351009
0.03500118
0.03619193
0.03711686
0.03805344
0.03876001
0.03925585
0.03945048
0.03939426
0.03911462
0.03898150
0.03887400
0.03866587
0.03828813
0.03789927
0.03748055
0.03681160
0.03614131
0.03569489
0.03526717
0.03483616
0.03438281
0.03374012
0.03301568
0.03247046
0.03192668
0.03125630
0.03076642
0.03033985
0.02989212
0.02942928
0.02894345
0.02851835
0.02811564
0.02770006
0.02736975
0.02702107
0.02654272
0.02616352
0.02574066
0.02529277
0.02488969
0.02448780
0.02413527
0.02378936
0.02349335
0.02317333
0.02283455
0.02249664
0.02220492
0.02190049
0.02158723
0.02126185
0.02098250
0.02070470
0.02044668
0.02019733
0.01995176
0.01972392
0.01951157
0.01929380
0.01908542
0.01888594
0.01866994
0.01844845
0.01824451
0.01807443
0.01794559
0.01778446
0.01764356
0.01760057
0.01768434
0.01784032
0.01808159
0.01841565
0.01879595
0.01919891
0.01964305
0.02006135
0.02045144
0.02080716
0.02113197
0.02145787
0.02180107
0.02220240
0.02264910
0.02293907
0.02326421
0.02319652
0.02297737
0.02246309
0.02184415
0.02123088
0.02074301
0.02056244
0.02083350
0.02210378
0.02581497
0.03453488
0.04666168
0.04906169
0.04494053
0.04053336
0.03640500
0.03327493
0.03136804
0.02975866
0.02856898
0.02739521
0.02635575
0.02543062
0.02465112
0.02429473
0.02451330
0.02522637
0.02658343
0.02817899
0.02980494
0.03128427
0.03290572
0.03447533
0.03600906
0.03720846
0.03812057
0.03895786
0.03971139
0.04017241
0.04030351
0.04026871
0.03994467
0.03989328
0.03971074
0.03945103
0.03898102
0.03858597
0.03805101
0.03741880
0.03680583
0.03632190
0.03589286
0.03546891
0.03498878
0.03433223
0.03355075
0.03299459
0.03247159
0.03179439
0.03125991
0.03080468
0.03031945
0.02986638
0.02941457
0.02896939
0.02853221
0.02809342
0.02771406
0.02732456
0.02686061
0.02646918
0.02604012
0.02556477
0.02515891
0.02477734
0.02442352
0.02407929
0.02377437
0.02343759
0.02310856
0.02276228
0.02247198
0.02215810
0.02183496
0.02152681
0.02123811
0.02096340
0.02070469
0.02043624
0.02018681
0.01995241
0.01973770
0.01952632
0.01932076
0.01912377
0.01890875
0.01869389
0.01846986
0.01827261
0.01812395
0.01797208
0.01783093
0.01777696
0.01784818
0.01799946
0.01822533
0.01853334
0.01890799
0.01929005
0.01970693
0.02009586
0.02047421
0.02081490
0.02112748
0.02143709
0.02178462
0.02216158
0.02260131
0.02278031
0.02313213
0.02311837
0.02290189
0.02242017
0.02184504
0.02126557
0.02077892
0.02051542
0.02059904
0.02151865
0.02458587
0.03248891
0.04578830
0.05161959
0.04815694
0.04360519
0.03909447
0.03565036
0.03342403
0.03160927
0.03012538
0.02886717
0.02768418
0.02671181
0.02585518
0.02541301
0.02558289
0.02634895
0.02767054
0.02931378
0.03091464
0.03237754
0.03398355
0.03549343
0.03707230
0.03823390
0.03915630
0.03992739
0.04067214
0.04107792
0.04119633
0.04114889
0.04082052
0.04082741
0.04056672
0.04023883
0.03967876
0.03926115
0.03867419
0.03806889
0.03749132
0.03697089
0.03650568
0.03609710
0.03559370
0.03491260
0.03412575
0.03354774
0.03303698
0.03232654
0.03175437
0.03126367
0.03076908
0.03031796
0.02989239
0.02942008
0.02893491
0.02849459
0.02805530
0.02761451
0.02717743
0.02676884
0.02631796
0.02582959
0.02542727
0.02505839
0.02470623
0.02437480
0.02403923
0.02367686
0.02335619
0.02301785
0.02272786
0.02240278
0.02208092
0.02178474
0.02148537
0.02122007
0.02095038
0.02066638
0.02041458
0.02017270
0.01995517
0.01975014
0.01954189
0.01934951
0.01914478
0.01892674
0.01869394
0.01847946
0.01830732
0.01816342
0.01802892
0.01796739
0.01802054
0.01817522
0.01837720
0.01866174
0.01902517
0.01938980
0.01976886
0.02013055
0.02049072
0.02081684
0.02111794
0.02141198
0.02175163
0.02212923
0.02247126
0.02279726
0.02297956
0.02302662
0.02281071
0.02236189
0.02182375
0.02127498
0.02079411
0.02047229
0.02041582
0.02104531
0.02352154
0.03044951
0.04408660
0.05337800
0.05137373
0.04682003
0.04200795
0.03822571
0.03565154
0.03360834
0.03182628
0.03047586
0.02913078
0.02808998
0.02715738
0.02661358
0.02675256
0.02753179
0.02883407
0.03048939