# wallShearStress  FACE_DATA 162
#  x  y  z  wallShearStress_x  wallShearStress_y  wallShearStress_z  
0.0005 0.001 4.66216e-05 -31.42 4.86616e-16 2.3599e-16
0.0005 0.001 0.000138425 -31.4043 -4.9287e-16 9.48073e-17
0.0005 0.001 0.000227392 -31.3738 1.05531e-15 2.34714e-16
0.0005 0.001 0.000313612 -31.3296 -9.6718e-16 8.39634e-16
0.0005 0.001 0.000397168 -31.2731 -4.24683e-17 7.93156e-16
0.0005 0.001 0.000478143 -31.2051 -8.15759e-17 6.1722e-16
0.0005 0.001 0.000556618 -31.1266 6.39505e-17 7.30749e-16
0.0005 0.001 0.000632668 -31.0386 4.83052e-17 6.95328e-16
0.0005 0.001 0.000706369 -30.9418 -1.82002e-16 1.34716e-15
0.0005 0.001 0.000777794 -30.837 2.49246e-15 1.06401e-15
0.0005 0.001 0.000847012 -30.7247 1.87692e-15 7.69193e-16
0.0005 0.001 0.000914093 -30.6057 2.9414e-16 5.66397e-16
0.0005 0.001 0.000979101 -30.4806 7.19181e-16 2.86925e-16
0.0005 0.001 0.0010421 -30.3498 7.93915e-16 1.97018e-16
0.0005 0.001 0.00110316 -30.2139 1.39288e-15 -2.46075e-16
0.0005 0.001 0.00116232 -30.0733 -1.10459e-16 -2.88876e-16
0.0005 0.001 0.00121967 -29.9285 2.9264e-16 -2.84891e-16
0.0005 0.001 0.00127524 -29.7798 4.05434e-16 -1.91116e-16
0.0005 0.001 0.00132909 -29.6277 -5.11967e-16 -3.36546e-16
0.0005 0.001 0.00138128 -29.4723 -8.10261e-16 -2.12388e-16
0.0005 0.001 0.00143186 -29.3139 2.17619e-16 -3.56182e-16
0.0005 0.001 0.00148087 -29.1523 -8.84675e-16 -4.62139e-16
0.0005 0.001 0.00152837 -28.9882 -6.55703e-16 -2.54371e-16
0.0005 0.001 0.00157441 -28.8219 -2.04788e-16 -5.95627e-16
0.0005 0.001 0.00161902 -28.6536 -1.10232e-15 -6.28025e-16
0.0005 0.001 0.00166226 -28.4834 -1.59904e-15 -4.57333e-16
0.0005 0.001 0.00170415 -28.3116 -1.04945e-15 -4.82536e-16
0.0005 0.001 0.00174476 -28.1383 -1.96445e-15 -3.92138e-16
0.0005 0.001 0.00178411 -27.9636 -1.53351e-15 -3.35739e-16
0.0005 0.001 0.00182224 -27.7876 -9.45524e-16 -3.33412e-16
0.0005 0.001 0.0018592 -27.6105 -7.93647e-16 -3.32059e-16
0.0005 0.001 0.00189502 -27.4323 -4.26894e-16 -2.47722e-16
0.0005 0.001 0.00192973 -27.2532 -3.41472e-16 -3.88893e-16
0.0005 0.001 0.00196336 -27.0731 -6.10316e-16 -3.84091e-16
0.0005 0.001 0.00199596 -26.8922 -8.54058e-16 -3.14296e-16
0.0005 0.001 0.00202755 -26.7106 -7.94259e-16 -2.19745e-16
0.0005 0.001 0.00205817 -26.5282 -7.82411e-16 -1.40758e-16
0.0005 0.001 0.00208784 -26.345 -5.58876e-16 -1.25179e-16
0.0005 0.001 0.00211659 -26.1611 -1.04575e-15 -7.8845e-17
0.0005 0.001 0.00214446 -25.9766 -5.97512e-16 -4.58739e-17
0.0005 0.001 0.00217146 -25.7913 -9.75372e-16 -1.33533e-18
0.0005 0.001 0.00219763 -25.6054 -9.56636e-16 4.52378e-17
0.0005 0.001 0.002223 -25.4187 -9.37751e-16 1.27116e-16
0.0005 0.001 0.00224757 -25.2313 -6.11489e-16 7.05886e-17
0.0005 0.001 0.00227139 -25.0432 -9.40714e-16 1.22586e-16
0.0005 0.001 0.00229448 -24.8543 -3.16526e-16 8.07042e-17
0.0005 0.001 0.00231685 -24.6646 -4.85418e-16 5.88029e-17
0.0005 0.001 0.00233853 -24.474 -3.59466e-16 1.15356e-16
0.0005 0.001 0.00235954 -24.2827 -3.88456e-16 4.80588e-17
0.0005 0.001 0.0023799 -24.0905 -1.72179e-16 1.27187e-16
0.0005 0.001 0.00239963 -23.8975 -3.27431e-16 6.49703e-17
0.0005 0.001 0.00241875 -23.7036 -4.04151e-17 6.48578e-17
0.0005 0.001 0.00243729 -23.5088 -1.52865e-16 6.43119e-17
0.0005 0.001 0.00245525 -23.313 -7.68275e-17 6.134e-17
0.0005 0.001 0.00247265 -23.1163 -1.92967e-16 1.07989e-16
0.0005 0.001 0.00248952 -22.9181 -8.29229e-17 1.0642e-16
0.0005 0.001 0.00250586 -22.7189 -1.31112e-16 1.57469e-16
0.0005 0.001 0.00252171 -22.5186 -6.29216e-17 1.50547e-16
0.0005 0.001 0.00253706 -22.3175 -1.05791e-16 2.09586e-16
0.0005 0.001 0.00255194 -22.1156 -2.63048e-17 2.60807e-16
0.0005 0.001 0.00256635 -21.9128 -7.80514e-17 2.94525e-16
0.0005 0.001 0.00258033 -21.7092 -2.26479e-17 2.85544e-16
0.0005 0.001 0.00259387 -21.5047 -3.77646e-17 2.68049e-16
0.0005 0.001 0.00260699 -21.2994 1.23959e-17 2.8372e-16
0.0005 0.001 0.00261971 -21.0933 1.1223e-17 2.65633e-16
0.0005 0.001 0.00263203 -20.8863 7.82285e-17 2.6504e-16
0.0005 0.001 0.00264398 -20.6785 7.08553e-17 2.48589e-16
0.0005 0.001 0.00265555 -20.4698 1.07529e-16 2.13499e-16
0.0005 0.001 0.00266677 -20.2601 9.6741e-17 2.28869e-16
0.0005 0.001 0.00267764 -20.0493 1.35079e-16 2.76535e-16
0.0005 0.001 0.00268818 -19.8375 1.26655e-16 3.02106e-16
0.0005 0.001 0.00269839 -19.6243 1.90278e-16 2.88356e-16
0.0005 0.001 0.00270828 -19.4098 1.84717e-16 2.76654e-16
0.0005 0.001 0.00271787 -19.1938 2.488e-16 2.60958e-16
0.0005 0.001 0.00272716 -18.9765 2.13506e-16 2.16443e-16
0.0005 0.001 0.00273617 -18.7578 2.51074e-16 2.08957e-16
0.0005 0.001 0.0027449 -18.5377 2.02875e-16 1.84906e-16
0.0005 0.001 0.00275336 -18.3161 2.20439e-16 1.65355e-16
0.0005 0.001 0.00276155 -18.0928 1.68008e-16 1.33759e-16
0.0005 0.001 0.0027695 -17.8677 1.79643e-16 1.25187e-16
0.0005 0.001 0.00277719 -17.6408 1.4368e-16 1.28433e-16
0.0005 0.001 0.00278465 -17.4119 1.40914e-16 1.35794e-16
0.0005 0.001 0.00279188 -17.1812 1.09689e-16 1.45778e-16
0.0005 0.001 0.00279889 -16.9486 1.15209e-16 1.24885e-16
0.0005 0.001 0.00280568 -16.7143 1.0923e-16 1.33141e-16
0.0005 0.001 0.00281226 -16.4784 1.06853e-16 1.44283e-16
0.0005 0.001 0.00281864 -16.2409 8.03203e-17 1.4871e-16
0.0005 0.001 0.00282482 -16.0019 8.14146e-17 1.56412e-16
0.0005 0.001 0.00283081 -15.7615 7.84982e-17 1.93343e-16
0.0005 0.001 0.00283661 -15.5195 9.46179e-17 2.19867e-16
0.0005 0.001 0.00284224 -15.2761 1.09997e-16 2.27259e-16
0.0005 0.001 0.00284769 -15.0311 1.35385e-16 2.28906e-16
0.0005 0.001 0.00285297 -14.7847 1.61335e-16 2.17935e-16
0.0005 0.001 0.00285809 -14.5366 2.01289e-16 2.08743e-16
0.0005 0.001 0.00286305 -14.287 2.24684e-16 1.98273e-16
0.0005 0.001 0.00286786 -14.0359 2.62036e-16 1.65605e-16
0.0005 0.001 0.00287252 -13.7832 2.70833e-16 1.22637e-16
0.0005 0.001 0.00287704 -13.5289 2.95964e-16 8.70948e-17
0.0005 0.001 0.00288141 -13.2731 2.85537e-16 4.71623e-17
0.0005 0.001 0.00288566 -13.0157 2.90719e-16 4.32308e-18
0.0005 0.001 0.00288977 -12.757 2.61277e-16 -3.37953e-17
0.0005 0.001 0.00289375 -12.4968 2.54157e-16 -6.46368e-17
0.0005 0.001 0.00289761 -12.2354 2.17048e-16 -9.14042e-17
0.0005 0.001 0.00290135 -11.9727 2.02426e-16 -1.10008e-16
0.0005 0.001 0.00290498 -11.7089 1.64226e-16 -1.27541e-16
0.0005 0.001 0.00290849 -11.4441 1.4782e-16 -1.35038e-16
0.0005 0.001 0.00291189 -11.1785 1.10282e-16 -1.32335e-16
0.0005 0.001 0.00291519 -10.9122 9.14606e-17 -1.2157e-16
0.0005 0.001 0.00291839 -10.6454 6.06852e-17 -1.04683e-16
0.0005 0.001 0.00292149 -10.3782 4.09121e-17 -8.04164e-17
0.0005 0.001 0.00292449 -10.1109 2.15901e-17 -5.25457e-17
0.0005 0.001 0.0029274 -9.84371 1.10104e-17 -2.03277e-17
0.0005 0.001 0.00293023 -9.57679 3.2505e-18 1.51379e-17
0.0005 0.001 0.00293296 -9.31044 3.90871e-18 4.33552e-17
0.0005 0.001 0.00293561 -9.04485 7.78215e-18 6.30803e-17
0.0005 0.001 0.00293818 -8.78039 1.69053e-17 7.81263e-17
0.0005 0.001 0.00294066 -8.51721 3.0027e-17 8.44512e-17
0.0005 0.001 0.00294307 -8.25573 4.33572e-17 8.63556e-17
0.0005 0.001 0.00294541 -7.99609 5.69365e-17 7.70091e-17
0.0005 0.001 0.00294768 -7.7386 7.03006e-17 6.00105e-17
0.0005 0.001 0.00294987 -7.48352 8.31357e-17 4.28162e-17
0.0005 0.001 0.002952 -7.23116 9.13844e-17 2.48356e-17
0.0005 0.001 0.00295406 -6.98172 9.86716e-17 5.71998e-18
0.0005 0.001 0.00295606 -6.73546 1.03283e-16 -1.07966e-17
0.0005 0.001 0.00295799 -6.49254 1.05939e-16 -2.39018e-17
0.0005 0.001 0.00295987 -6.25314 1.05805e-16 -3.18079e-17
0.0005 0.001 0.00296169 -6.01755 1.04231e-16 -3.57376e-17
0.0005 0.001 0.00296345 -5.78574 1.0145e-16 -3.58354e-17
0.0005 0.001 0.00296515 -5.55793 9.76809e-17 -3.38169e-17
0.0005 0.001 0.00296681 -5.33423 9.38613e-17 -3.05558e-17
0.0005 0.001 0.00296841 -5.11469 9.06211e-17 -2.68572e-17
0.0005 0.001 0.00296997 -4.89934 8.69209e-17 -2.39973e-17
0.0005 0.001 0.00297147 -4.68823 8.39538e-17 -2.21739e-17
0.0005 0.001 0.00297293 -4.48135 8.14326e-17 -2.06262e-17
0.0005 0.001 0.00297435 -4.27872 7.9415e-17 -1.91701e-17
0.0005 0.001 0.00297572 -4.0803 7.73981e-17 -1.72757e-17
0.0005 0.001 0.00297705 -3.88606 7.54339e-17 -1.54445e-17
0.0005 0.001 0.00297833 -3.69594 7.42792e-17 -1.32286e-17
0.0005 0.001 0.00297958 -3.50988 7.29827e-17 -9.52416e-18
0.0005 0.001 0.00298079 -3.3278 7.15473e-17 -5.30761e-18
0.0005 0.001 0.00298196 -3.14963 7.05964e-17 -1.36294e-18
0.0005 0.001 0.0029831 -2.97527 7.02053e-17 2.26676e-18
0.0005 0.001 0.0029842 -2.80464 6.9777e-17 5.30942e-18
0.0005 0.001 0.00298526 -2.63763 7.01188e-17 8.06789e-18
0.0005 0.001 0.0029863 -2.47414 7.00466e-17 1.05318e-17
0.0005 0.001 0.0029873 -2.31405 7.06702e-17 1.32448e-17
0.0005 0.001 0.00298827 -2.15725 7.10249e-17 1.62007e-17
0.0005 0.001 0.00298921 -2.00362 7.18607e-17 1.91611e-17
0.0005 0.001 0.00299012 -1.85303 7.22336e-17 2.24775e-17
0.0005 0.001 0.00299101 -1.70536 7.2354e-17 2.55595e-17
0.0005 0.001 0.00299186 -1.56046 7.21928e-17 2.85822e-17
0.0005 0.001 0.00299269 -1.41819 7.18913e-17 3.19584e-17
0.0005 0.001 0.0029935 -1.27837 7.12918e-17 3.55512e-17
0.0005 0.001 0.00299427 -1.14084 7.0421e-17 3.90157e-17
0.0005 0.001 0.00299503 -1.00537 6.90021e-17 4.2084e-17
0.0005 0.001 0.00299576 -0.871744 6.70372e-17 4.46197e-17
0.0005 0.001 0.00299647 -0.739643 6.37229e-17 4.59639e-17
0.0005 0.001 0.00299716 -0.608695 5.84022e-17 4.53846e-17
0.0005 0.001 0.00299782 -0.478357 5.02213e-17 4.26471e-17
0.0005 0.001 0.00299847 -0.347792 3.82794e-17 3.71825e-17
0.0005 0.001 0.0029991 -0.21546 2.19152e-17 2.7793e-17
0.0005 0.001 0.0029997 -0.0778233 1.5506e-18 1.48575e-17
