# k  FACE_DATA 6627
#  x  y  z  k
0.0005 4.59758e-05 4.68122e-05 7.06165
0.0005 0.000133748 4.68122e-05 7.41906
0.0005 0.000213541 4.68122e-05 8.03293
0.0005 0.000286079 4.68122e-05 8.81849
0.0005 0.000352024 4.68122e-05 9.70676
0.0005 0.000411973 4.68122e-05 10.6439
0.0005 0.000466473 4.68122e-05 11.5894
0.0005 0.000516018 4.68122e-05 12.5144
0.0005 0.000561059 4.68122e-05 13.3989
0.0005 0.000602005 4.68122e-05 14.2302
0.0005 0.000639229 4.68122e-05 15.0007
0.0005 0.000673069 4.68122e-05 15.7051
0.0005 0.000703833 4.68122e-05 16.333
0.0005 0.000731799 4.68122e-05 16.8771
0.0005 0.000757224 4.68122e-05 17.3343
0.0005 0.000780337 4.68122e-05 17.7031
0.0005 0.000801349 4.68122e-05 17.9826
0.0005 0.000820451 4.68122e-05 18.1707
0.0005 0.000837816 4.68122e-05 18.2641
0.0005 0.000853602 4.68122e-05 18.2573
0.0005 0.000867954 4.68122e-05 18.1431
0.0005 0.000881001 4.68122e-05 17.9118
0.0005 0.000892861 4.68122e-05 17.5521
0.0005 0.000903644 4.68122e-05 17.0508
0.0005 0.000913446 4.68122e-05 16.3938
0.0005 0.000922357 4.68122e-05 15.5679
0.0005 0.000930458 4.68122e-05 14.5631
0.0005 0.000937823 4.68122e-05 13.3761
0.0005 0.000944518 4.68122e-05 12.0151
0.0005 0.000950604 4.68122e-05 10.503
0.0005 0.000956137 4.68122e-05 8.87304
0.0005 0.000961167 4.68122e-05 7.18722
0.0005 0.00096574 4.68122e-05 5.5451
0.0005 0.000969897 4.68122e-05 4.05872
0.0005 0.000973676 4.68122e-05 2.81744
0.0005 0.000977112 4.68122e-05 1.85978
0.0005 0.000980235 4.68122e-05 1.17131
0.0005 0.000983075 4.68122e-05 0.704879
0.0005 0.000985656 4.68122e-05 0.404387
0.0005 0.000988002 4.68122e-05 0.219568
0.0005 0.000990136 4.68122e-05 0.111303
0.0005 0.000992075 4.68122e-05 0.0514811
0.0005 0.000993838 4.68122e-05 0.0209046
0.0005 0.000995441 4.68122e-05 0.00695588
0.0005 0.000996898 4.68122e-05 0.00165433
0.0005 0.000998222 4.68122e-05 0.000206128
0.0005 0.000999427 4.68122e-05 6.18254e-06
0.0005 4.59758e-05 0.000138993 7.06352
0.0005 0.000133748 0.000138993 7.42005
0.0005 0.000213541 0.000138993 8.03249
0.0005 0.000286079 0.000138993 8.81637
0.0005 0.000352024 0.000138993 9.70293
0.0005 0.000411973 0.000138993 10.6384
0.0005 0.000466473 0.000138993 11.5825
0.0005 0.000516018 0.000138993 12.5062
0.0005 0.000561059 0.000138993 13.3897
0.0005 0.000602005 0.000138993 14.2201
0.0005 0.000639229 0.000138993 14.9898
0.0005 0.000673069 0.000138993 15.6936
0.0005 0.000703833 0.000138993 16.321
0.0005 0.000731799 0.000138993 16.8649
0.0005 0.000757224 0.000138993 17.3218
0.0005 0.000780337 0.000138993 17.6905
0.0005 0.000801349 0.000138993 17.9699
0.0005 0.000820451 0.000138993 18.158
0.0005 0.000837816 0.000138993 18.2514
0.0005 0.000853602 0.000138993 18.2446
0.0005 0.000867954 0.000138993 18.1304
0.0005 0.000881001 0.000138993 17.8992
0.0005 0.000892861 0.000138993 17.5396
0.0005 0.000903644 0.000138993 17.0383
0.0005 0.000913446 0.000138993 16.3815
0.0005 0.000922357 0.000138993 15.5559
0.0005 0.000930458 0.000138993 14.5513
0.0005 0.000937823 0.000138993 13.3647
0.0005 0.000944518 0.000138993 12.0043
0.0005 0.000950604 0.000138993 10.4929
0.0005 0.000956137 0.000138993 8.86383
0.0005 0.000961167 0.000138993 7.17914
0.0005 0.00096574 0.000138993 5.53836
0.0005 0.000969897 0.000138993 4.05345
0.0005 0.000973676 0.000138993 2.81358
0.0005 0.000977112 0.000138993 1.85713
0.0005 0.000980235 0.000138993 1.1696
0.0005 0.000983075 0.000138993 0.703838
0.0005 0.000985656 0.000138993 0.403786
0.0005 0.000988002 0.000138993 0.21924
0.0005 0.000990136 0.000138993 0.111136
0.0005 0.000992075 0.000138993 0.0514042
0.0005 0.000993838 0.000138993 0.0208734
0.0005 0.000995441 0.000138993 0.00694547
0.0005 0.000996898 0.000138993 0.00165186
0.0005 0.000998222 0.000138993 0.000205819
0.0005 0.000999427 0.000138993 6.17329e-06
0.0005 4.59758e-05 0.000228333 7.06741
0.0005 0.000133748 0.000228333 7.42224
0.0005 0.000213541 0.000228333 8.03192
0.0005 0.000286079 0.000228333 8.81255
0.0005 0.000352024 0.000228333 9.6958
0.0005 0.000411973 0.000228333 10.6282
0.0005 0.000466473 0.000228333 11.5695
0.0005 0.000516018 0.000228333 12.4908
0.0005 0.000561059 0.000228333 13.3721
0.0005 0.000602005 0.000228333 14.2007
0.0005 0.000639229 0.000228333 14.9689
0.0005 0.000673069 0.000228333 15.6715
0.0005 0.000703833 0.000228333 16.2982
0.0005 0.000731799 0.000228333 16.8415
0.0005 0.000757224 0.000228333 17.298
0.0005 0.000780337 0.000228333 17.6665
0.0005 0.000801349 0.000228333 17.9457
0.0005 0.000820451 0.000228333 18.1337
0.0005 0.000837816 0.000228333 18.227
0.0005 0.000853602 0.000228333 18.2203
0.0005 0.000867954 0.000228333 18.106
0.0005 0.000881001 0.000228333 17.8749
0.0005 0.000892861 0.000228333 17.5154
0.0005 0.000903644 0.000228333 17.0143
0.0005 0.000913446 0.000228333 16.3578
0.0005 0.000922357 0.000228333 15.5325
0.0005 0.000930458 0.000228333 14.5285
0.0005 0.000937823 0.000228333 13.3427
0.0005 0.000944518 0.000228333 11.9833
0.0005 0.000950604 0.000228333 10.4734
0.0005 0.000956137 0.000228333 8.84601
0.0005 0.000961167 0.000228333 7.16352
0.0005 0.00096574 0.000228333 5.52534
0.0005 0.000969897 0.000228333 4.04324
0.0005 0.000973676 0.000228333 2.80611
0.0005 0.000977112 0.000228333 1.85202
0.0005 0.000980235 0.000228333 1.1663
0.0005 0.000983075 0.000228333 0.701825
0.0005 0.000985656 0.000228333 0.402622
0.0005 0.000988002 0.000228333 0.218606
0.0005 0.000990136 0.000228333 0.110814
0.0005 0.000992075 0.000228333 0.0512552
0.0005 0.000993838 0.000228333 0.0208129
0.0005 0.000995441 0.000228333 0.00692533
0.0005 0.000996898 0.000228333 0.00164707
0.0005 0.000998222 0.000228333 0.000205223
0.0005 0.000999427 0.000228333 6.1554e-06
0.0005 4.59758e-05 0.000314917 7.07363
0.0005 0.000133748 0.000314917 7.42599
0.0005 0.000213541 0.000314917 8.03165
0.0005 0.000286079 0.000314917 8.80754
0.0005 0.000352024 0.000314917 9.68595
0.0005 0.000411973 0.000314917 10.6138
0.0005 0.000466473 0.000314917 11.551
0.0005 0.000516018 0.000314917 12.4687
0.0005 0.000561059 0.000314917 13.3471
0.0005 0.000602005 0.000314917 14.1731
0.0005 0.000639229 0.000314917 14.939
0.0005 0.000673069 0.000314917 15.6399
0.0005 0.000703833 0.000314917 16.2653
0.0005 0.000731799 0.000314917 16.8078
0.0005 0.000757224 0.000314917 17.2638
0.0005 0.000780337 0.000314917 17.6318
0.0005 0.000801349 0.000314917 17.9108
0.0005 0.000820451 0.000314917 18.0986
0.0005 0.000837816 0.000314917 18.1919
0.0005 0.000853602 0.000314917 18.1851
0.0005 0.000867954 0.000314917 18.0709
0.0005 0.000881001 0.000314917 17.8399
0.0005 0.000892861 0.000314917 17.4805
0.0005 0.000903644 0.000314917 16.9797
0.0005 0.000913446 0.000314917 16.3236
0.0005 0.000922357 0.000314917 15.4989
0.0005 0.000930458 0.000314917 14.4957
0.0005 0.000937823 0.000314917 13.311
0.0005 0.000944518 0.000314917 11.9531
0.0005 0.000950604 0.000314917 10.4451
0.0005 0.000956137 0.000314917 8.8203
0.0005 0.000961167 0.000314917 7.14096
0.0005 0.00096574 0.000314917 5.50654
0.0005 0.000969897 0.000314917 4.02852
0.0005 0.000973676 0.000314917 2.79533
0.0005 0.000977112 0.000314917 1.84463
0.0005 0.000980235 0.000314917 1.16154
0.0005 0.000983075 0.000314917 0.698921
0.0005 0.000985656 0.000314917 0.400944
0.0005 0.000988002 0.000314917 0.217692
0.0005 0.000990136 0.000314917 0.11035
0.0005 0.000992075 0.000314917 0.0510403
0.0005 0.000993838 0.000314917 0.0207256
0.0005 0.000995441 0.000314917 0.00689629
0.0005 0.000996898 0.000314917 0.00164016
0.0005 0.000998222 0.000314917 0.000204362
0.0005 0.000999427 0.000314917 6.12959e-06
0.0005 4.59758e-05 0.000398833 7.08267
0.0005 0.000133748 0.000398833 7.43181
0.0005 0.000213541 0.000398833 8.03223
0.0005 0.000286079 0.000398833 8.80194
0.0005 0.000352024 0.000398833 9.67403
0.0005 0.000411973 0.000398833 10.5959
0.0005 0.000466473 0.000398833 11.5277
0.0005 0.000516018 0.000398833 12.4408
0.0005 0.000561059 0.000398833 13.3152
0.0005 0.000602005 0.000398833 14.1379
0.0005 0.000639229 0.000398833 14.9009
0.0005 0.000673069 0.000398833 15.5995
0.0005 0.000703833 0.000398833 16.2232
0.0005 0.000731799 0.000398833 16.7646
0.0005 0.000757224 0.000398833 17.2198
0.0005 0.000780337 0.000398833 17.5874
0.0005 0.000801349 0.000398833 17.866
0.0005 0.000820451 0.000398833 18.0537
0.0005 0.000837816 0.000398833 18.1468
0.0005 0.000853602 0.000398833 18.1399
0.0005 0.000867954 0.000398833 18.0258
0.0005 0.000881001 0.000398833 17.7949
0.0005 0.000892861 0.000398833 17.4358
0.0005 0.000903644 0.000398833 16.9353
0.0005 0.000913446 0.000398833 16.2797
0.0005 0.000922357 0.000398833 15.4557
0.0005 0.000930458 0.000398833 14.4535
0.0005 0.000937823 0.000398833 13.2702
0.0005 0.000944518 0.000398833 11.9143
0.0005 0.000950604 0.000398833 10.4089
0.0005 0.000956137 0.000398833 8.78733
0.0005 0.000961167 0.000398833 7.11205
0.0005 0.00096574 0.000398833 5.48245
0.0005 0.000969897 0.000398833 4.00966
0.0005 0.000973676 0.000398833 2.78153
0.0005 0.000977112 0.000398833 1.83518
0.0005 0.000980235 0.000398833 1.15545
0.0005 0.000983075 0.000398833 0.695205
0.0005 0.000985656 0.000398833 0.398797
0.0005 0.000988002 0.000398833 0.216522
0.0005 0.000990136 0.000398833 0.109756
0.0005 0.000992075 0.000398833 0.0507653
0.0005 0.000993838 0.000398833 0.0206139
0.0005 0.000995441 0.000398833 0.00685913
0.0005 0.000996898 0.000398833 0.00163133
0.0005 0.000998222 0.000398833 0.000203261
0.0005 0.000999427 0.000398833 6.09656e-06
0.0005 4.59758e-05 0.000480161 7.09507
0.0005 0.000133748 0.000480161 7.44028
0.0005 0.000213541 0.000480161 8.03429
0.0005 0.000286079 0.000480161 8.79642
0.0005 0.000352024 0.000480161 9.66075
0.0005 0.000411973 0.000480161 10.5753
0.0005 0.000466473 0.000480161 11.5005
0.0005 0.000516018 0.000480161 12.4078
0.0005 0.000561059 0.000480161 13.2774
0.0005 0.000602005 0.000480161 14.0959
0.0005 0.000639229 0.000480161 14.8555
0.0005 0.000673069 0.000480161 15.5512
0.0005 0.000703833 0.000480161 16.1728
0.0005 0.000731799 0.000480161 16.7127
0.0005 0.000757224 0.000480161 17.167
0.0005 0.000780337 0.000480161 17.534
0.0005 0.000801349 0.000480161 17.8122
0.0005 0.000820451 0.000480161 17.9996
0.0005 0.000837816 0.000480161 18.0926
0.0005 0.000853602 0.000480161 18.0857
0.0005 0.000867954 0.000480161 17.9716
0.0005 0.000881001 0.000480161 17.7408
0.0005 0.000892861 0.000480161 17.382
0.0005 0.000903644 0.000480161 16.8819
0.0005 0.000913446 0.000480161 16.2269
0.0005 0.000922357 0.000480161 15.4037
0.0005 0.000930458 0.000480161 14.4028
0.0005 0.000937823 0.000480161 13.2212
0.0005 0.000944518 0.000480161 11.8677
0.0005 0.000950604 0.000480161 10.3654
0.0005 0.000956137 0.000480161 8.74771
0.0005 0.000961167 0.000480161 7.07732
0.0005 0.00096574 0.000480161 5.45353
0.0005 0.000969897 0.000480161 3.98703
0.0005 0.000973676 0.000480161 2.76498
0.0005 0.000977112 0.000480161 1.82385
0.0005 0.000980235 0.000480161 1.14814
0.0005 0.000983075 0.000480161 0.69075
0.0005 0.000985656 0.000480161 0.396223
0.0005 0.000988002 0.000480161 0.215119
0.0005 0.000990136 0.000480161 0.109044
0.0005 0.000992075 0.000480161 0.0504357
0.0005 0.000993838 0.000480161 0.02048
0.0005 0.000995441 0.000480161 0.00681458
0.0005 0.000996898 0.000480161 0.00162073
0.0005 0.000998222 0.000480161 0.000201941
0.0005 0.000999427 0.000480161 6.05697e-06
0.0005 4.59758e-05 0.000558981 7.11146
0.0005 0.000133748 0.000558981 7.45204
0.0005 0.000213541 0.000558981 8.0385
0.0005 0.000286079 0.000558981 8.79169
0.0005 0.000352024 0.000558981 9.64683
0.0005 0.000411973 0.000558981 10.5526
0.0005 0.000466473 0.000558981 11.4701
0.0005 0.000516018 0.000558981 12.3706
0.0005 0.000561059 0.000558981 13.2343
0.0005 0.000602005 0.000558981 14.0479
0.0005 0.000639229 0.000558981 14.8034
0.0005 0.000673069 0.000558981 15.4956
0.0005 0.000703833 0.000558981 16.1147
0.0005 0.000731799 0.000558981 16.653
0.0005 0.000757224 0.000558981 17.1062
0.0005 0.000780337 0.000558981 17.4724
0.0005 0.000801349 0.000558981 17.7501
0.0005 0.000820451 0.000558981 17.9372
0.0005 0.000837816 0.000558981 18.03
0.0005 0.000853602 0.000558981 18.0231
0.0005 0.000867954 0.000558981 17.909
0.0005 0.000881001 0.000558981 17.6784
0.0005 0.000892861 0.000558981 17.3198
0.0005 0.000903644 0.000558981 16.8202
0.0005 0.000913446 0.000558981 16.1659
0.0005 0.000922357 0.000558981 15.3438
0.0005 0.000930458 0.000558981 14.3442
0.0005 0.000937823 0.000558981 13.1647
0.0005 0.000944518 0.000558981 11.8139
0.0005 0.000950604 0.000558981 10.3152
0.0005 0.000956137 0.000558981 8.70201
0.0005 0.000961167 0.000558981 7.03727
0.0005 0.00096574 0.000558981 5.42019
0.0005 0.000969897 0.000558981 3.96096
0.0005 0.000973676 0.000558981 2.74592
0.0005 0.000977112 0.000558981 1.8108
0.0005 0.000980235 0.000558981 1.13974
0.0005 0.000983075 0.000558981 0.685625
0.0005 0.000985656 0.000558981 0.393262
0.0005 0.000988002 0.000558981 0.213506
0.0005 0.000990136 0.000558981 0.108225
0.0005 0.000992075 0.000558981 0.0500566
0.0005 0.000993838 0.000558981 0.020326
0.0005 0.000995441 0.000558981 0.00676335
0.0005 0.000996898 0.000558981 0.00160855
0.0005 0.000998222 0.000558981 0.000200423
0.0005 0.000999427 0.000558981 6.01143e-06
0.0005 4.59758e-05 0.000635372 7.13247
0.0005 0.000133748 0.000635372 7.46775
0.0005 0.000213541 0.000635372 8.04555
0.0005 0.000286079 0.000635372 8.78847
0.0005 0.000352024 0.000635372 9.63303
0.0005 0.000411973 0.000635372 10.5288
0.0005 0.000466473 0.000635372 11.4372
0.0005 0.000516018 0.000635372 12.3298
0.0005 0.000561059 0.000635372 13.1868
0.0005 0.000602005 0.000635372 13.9948
0.0005 0.000639229 0.000635372 14.7455
0.0005 0.000673069 0.000635372 15.4336
0.0005 0.000703833 0.000635372 16.0498
0.0005 0.000731799 0.000635372 16.586
0.0005 0.000757224 0.000635372 17.0379
0.0005 0.000780337 0.000635372 17.4033
0.0005 0.000801349 0.000635372 17.6804
0.0005 0.000820451 0.000635372 17.8672
0.0005 0.000837816 0.000635372 17.9597
0.0005 0.000853602 0.000635372 17.9527
0.0005 0.000867954 0.000635372 17.8387
0.0005 0.000881001 0.000635372 17.6083
0.0005 0.000892861 0.000635372 17.2501
0.0005 0.000903644 0.000635372 16.751
0.0005 0.000913446 0.000635372 16.0974
0.0005 0.000922357 0.000635372 15.2764
0.0005 0.000930458 0.000635372 14.2785
0.0005 0.000937823 0.000635372 13.1012
0.0005 0.000944518 0.000635372 11.7535
0.0005 0.000950604 0.000635372 10.2589
0.0005 0.000956137 0.000635372 8.65074
0.0005 0.000961167 0.000635372 6.99236
0.0005 0.00096574 0.000635372 5.38284
0.0005 0.000969897 0.000635372 3.93176
0.0005 0.000973676 0.000635372 2.72459
0.0005 0.000977112 0.000635372 1.79621
0.0005 0.000980235 0.000635372 1.13034
0.0005 0.000983075 0.000635372 0.679894
0.0005 0.000985656 0.000635372 0.389951
0.0005 0.000988002 0.000635372 0.211702
0.0005 0.000990136 0.000635372 0.107309
0.0005 0.000992075 0.000635372 0.0496327
0.0005 0.000993838 0.000635372 0.0201539
0.0005 0.000995441 0.000635372 0.00670606
0.0005 0.000996898 0.000635372 0.00159492
0.0005 0.000998222 0.000635372 0.000198725
0.0005 0.000999427 0.000635372 5.96052e-06
0.0005 4.59758e-05 0.000709407 7.15873
0.0005 0.000133748 0.000709407 7.48807
0.0005 0.000213541 0.000709407 8.05615
0.0005 0.000286079 0.000709407 8.78749
0.0005 0.000352024 0.000709407 9.62011
0.0005 0.000411973 0.000709407 10.5045
0.0005 0.000466473 0.000709407 11.4026
0.0005 0.000516018 0.000709407 12.2863
0.0005 0.000561059 0.000709407 13.1356
0.0005 0.000602005 0.000709407 13.9371
0.0005 0.000639229 0.000709407 14.6823
0.0005 0.000673069 0.000709407 15.3659
0.0005 0.000703833 0.000709407 15.9786
0.0005 0.000731799 0.000709407 16.5125
0.0005 0.000757224 0.000709407 16.9629
0.0005 0.000780337 0.000709407 17.3273
0.0005 0.000801349 0.000709407 17.6038
0.0005 0.000820451 0.000709407 17.7901
0.0005 0.000837816 0.000709407 17.8825
0.0005 0.000853602 0.000709407 17.8754
0.0005 0.000867954 0.000709407 17.7614
0.0005 0.000881001 0.000709407 17.5312
0.0005 0.000892861 0.000709407 17.1733
0.0005 0.000903644 0.000709407 16.6748
0.0005 0.000913446 0.000709407 16.0221
0.0005 0.000922357 0.000709407 15.2023
0.0005 0.000930458 0.000709407 14.2062
0.0005 0.000937823 0.000709407 13.0314
0.0005 0.000944518 0.000709407 11.687
0.0005 0.000950604 0.000709407 10.197
0.0005 0.000956137 0.000709407 8.59439
0.0005 0.000961167 0.000709407 6.94304
0.0005 0.00096574 0.000709407 5.34183
0.0005 0.000969897 0.000709407 3.89974
0.0005 0.000973676 0.000709407 2.7012
0.0005 0.000977112 0.000709407 1.78022
0.0005 0.000980235 0.000709407 1.12004
0.0005 0.000983075 0.000709407 0.673618
0.0005 0.000985656 0.000709407 0.386326
0.0005 0.000988002 0.000709407 0.209727
0.0005 0.000990136 0.000709407 0.106306
0.0005 0.000992075 0.000709407 0.0491687
0.0005 0.000993838 0.000709407 0.0199654
0.0005 0.000995441 0.000709407 0.00664334
0.0005 0.000996898 0.000709407 0.00158001
0.0005 0.000998222 0.000709407 0.000196867
0.0005 0.000999427 0.000709407 5.90478e-06
0.0005 4.59758e-05 0.00078116 7.19083
0.0005 0.000133748 0.00078116 7.51361
0.0005 0.000213541 0.00078116 8.07095
0.0005 0.000286079 0.00078116 8.78947
0.0005 0.000352024 0.00078116 9.60881
0.0005 0.000411973 0.00078116 10.4805
0.0005 0.000466473 0.00078116 11.3672
0.0005 0.000516018 0.00078116 12.2408
0.0005 0.000561059 0.00078116 13.0815
0.0005 0.000602005 0.00078116 13.8757
0.0005 0.000639229 0.00078116 14.6148
0.0005 0.000673069 0.00078116 15.293
0.0005 0.000703833 0.00078116 15.9019
0.0005 0.000731799 0.00078116 16.4332
0.0005 0.000757224 0.00078116 16.8819
0.0005 0.000780337 0.00078116 17.2451
0.0005 0.000801349 0.00078116 17.5209
0.0005 0.000820451 0.00078116 17.7067
0.0005 0.000837816 0.00078116 17.7988
0.0005 0.000853602 0.00078116 17.7915
0.0005 0.000867954 0.00078116 17.6776
0.0005 0.000881001 0.00078116 17.4476
0.0005 0.000892861 0.00078116 17.0901
0.0005 0.000903644 0.00078116 16.5922
0.0005 0.000913446 0.00078116 15.9404
0.0005 0.000922357 0.00078116 15.122
0.0005 0.000930458 0.00078116 14.1278
0.0005 0.000937823 0.00078116 12.9557
0.0005 0.000944518 0.00078116 11.6151
0.0005 0.000950604 0.00078116 10.1299
0.0005 0.000956137 0.00078116 8.53342
0.0005 0.000961167 0.00078116 6.8897
0.0005 0.00096574 0.00078116 5.29752
0.0005 0.000969897 0.00078116 3.86515
0.0005 0.000973676 0.00078116 2.67597
0.0005 0.000977112 0.00078116 1.76297
0.0005 0.000980235 0.00078116 1.10894
0.0005 0.000983075 0.00078116 0.666853
0.0005 0.000985656 0.00078116 0.382419
0.0005 0.000988002 0.00078116 0.207599
0.0005 0.000990136 0.00078116 0.105226
0.0005 0.000992075 0.00078116 0.0486686
0.0005 0.000993838 0.00078116 0.0197623
0.0005 0.000995441 0.00078116 0.00657575
0.0005 0.000996898 0.00078116 0.00156393
0.0005 0.000998222 0.00078116 0.000194864
0.0005 0.000999427 0.00078116 5.84471e-06
0.0005 4.59758e-05 0.000850701 7.22927
0.0005 0.000133748 0.000850701 7.54493
0.0005 0.000213541 0.000850701 8.09057
0.0005 0.000286079 0.000850701 8.79508
0.0005 0.000352024 0.000850701 9.59985
0.0005 0.000411973 0.000850701 10.4576
0.0005 0.000466473 0.000850701 11.3316
0.0005 0.000516018 0.000850701 12.1941
0.0005 0.000561059 0.000850701 13.0252
0.0005 0.000602005 0.000850701 13.8113
0.0005 0.000639229 0.000850701 14.5435
0.0005 0.000673069 0.000850701 15.2158
0.0005 0.000703833 0.000850701 15.8203
0.0005 0.000731799 0.000850701 16.3487
0.0005 0.000757224 0.000850701 16.7954
0.0005 0.000780337 0.000850701 17.1573
0.0005 0.000801349 0.000850701 17.4323
0.0005 0.000820451 0.000850701 17.6175
0.0005 0.000837816 0.000850701 17.7092
0.0005 0.000853602 0.000850701 17.7019
0.0005 0.000867954 0.000850701 17.588
0.0005 0.000881001 0.000850701 17.3582
0.0005 0.000892861 0.000850701 17.0011
0.0005 0.000903644 0.000850701 16.5038
0.0005 0.000913446 0.000850701 15.8531
0.0005 0.000922357 0.000850701 15.0361
0.0005 0.000930458 0.000850701 14.044
0.0005 0.000937823 0.000850701 12.8748
0.0005 0.000944518 0.000850701 11.5381
0.0005 0.000950604 0.000850701 10.0582
0.0005 0.000956137 0.000850701 8.46825
0.0005 0.000961167 0.000850701 6.83271
0.0005 0.00096574 0.000850701 5.25022
0.0005 0.000969897 0.000850701 3.82827
0.0005 0.000973676 0.000850701 2.64907
0.0005 0.000977112 0.000850701 1.7446
0.0005 0.000980235 0.000850701 1.09712
0.0005 0.000983075 0.000850701 0.659653
0.0005 0.000985656 0.000850701 0.378261
0.0005 0.000988002 0.000850701 0.205334
0.0005 0.000990136 0.000850701 0.104076
0.0005 0.000992075 0.000850701 0.0481364
0.0005 0.000993838 0.000850701 0.0195461
0.0005 0.000995441 0.000850701 0.00650382
0.0005 0.000996898 0.000850701 0.00154682
0.0005 0.000998222 0.000850701 0.000192732
0.0005 0.000999427 0.000850701 5.78078e-06
0.0005 4.59758e-05 0.000918097 7.27448
0.0005 0.000133748 0.000918097 7.58251
0.0005 0.000213541 0.000918097 8.11557
0.0005 0.000286079 0.000918097 8.80495
0.0005 0.000352024 0.000918097 9.59391
0.0005 0.000411973 0.000918097 10.4365
0.0005 0.000466473 0.000918097 11.2965
0.0005 0.000516018 0.000918097 12.1468
0.0005 0.000561059 0.000918097 12.9675
0.0005 0.000602005 0.000918097 13.7446
0.0005 0.000639229 0.000918097 14.4691
0.0005 0.000673069 0.000918097 15.1348
0.0005 0.000703833 0.000918097 15.7345
0.0005 0.000731799 0.000918097 16.2596
0.0005 0.000757224 0.000918097 16.704
0.0005 0.000780337 0.000918097 17.0645
0.0005 0.000801349 0.000918097 17.3385
0.0005 0.000820451 0.000918097 17.5231
0.0005 0.000837816 0.000918097 17.6144
0.0005 0.000853602 0.000918097 17.6069
0.0005 0.000867954 0.000918097 17.493
0.0005 0.000881001 0.000918097 17.2634
0.0005 0.000892861 0.000918097 16.9067
0.0005 0.000903644 0.000918097 16.4102
0.0005 0.000913446 0.000918097 15.7604
0.0005 0.000922357 0.000918097 14.945
0.0005 0.000930458 0.000918097 13.9551
0.0005 0.000937823 0.000918097 12.789
0.0005 0.000944518 0.000918097 11.4566
0.0005 0.000950604 0.000918097 9.98229
0.0005 0.000956137 0.000918097 8.39927
0.0005 0.000961167 0.000918097 6.77244
0.0005 0.00096574 0.000918097 5.20024
0.0005 0.000969897 0.000918097 3.78932
0.0005 0.000973676 0.000918097 2.6207
0.0005 0.000977112 0.000918097 1.72524
0.0005 0.000980235 0.000918097 1.08466
0.0005 0.000983075 0.000918097 0.652066
0.0005 0.000985656 0.000918097 0.373881
0.0005 0.000988002 0.000918097 0.202948
0.0005 0.000990136 0.000918097 0.102864
0.0005 0.000992075 0.000918097 0.0475757
0.0005 0.000993838 0.000918097 0.0193184
0.0005 0.000995441 0.000918097 0.00642805
0.0005 0.000996898 0.000918097 0.0015288
0.0005 0.000998222 0.000918097 0.000190487
0.0005 0.000999427 0.000918097 5.71344e-06
0.0005 4.59758e-05 0.000983416 7.32681
0.0005 0.000133748 0.000983416 7.62674
0.0005 0.000213541 0.000983416 8.14642
0.0005 0.000286079 0.000983416 8.81964
0.0005 0.000352024 0.000983416 9.59162
0.0005 0.000411973 0.000983416 10.4178
0.0005 0.000466473 0.000983416 11.2628
0.0005 0.000516018 0.000983416 12.0998
0.0005 0.000561059 0.000983416 12.9089
0.0005 0.000602005 0.000983416 13.6763
0.0005 0.000639229 0.000983416 14.3923
0.0005 0.000673069 0.000983416 15.0509
0.0005 0.000703833 0.000983416 15.6452
0.0005 0.000731799 0.000983416 16.1664
0.0005 0.000757224 0.000983416 16.6084
0.0005 0.000780337 0.000983416 16.9672
0.0005 0.000801349 0.000983416 17.24
0.0005 0.000820451 0.000983416 17.4239
0.0005 0.000837816 0.000983416 17.5148
0.0005 0.000853602 0.000983416 17.507
0.0005 0.000867954 0.000983416 17.3931
0.0005 0.000881001 0.000983416 17.1637
0.0005 0.000892861 0.000983416 16.8074
0.0005 0.000903644 0.000983416 16.3116
0.0005 0.000913446 0.000983416 15.663
0.0005 0.000922357 0.000983416 14.8492
0.0005 0.000930458 0.000983416 13.8616
0.0005 0.000937823 0.000983416 12.6988
0.0005 0.000944518 0.000983416 11.3709
0.0005 0.000950604 0.000983416 9.90253
0.0005 0.000956137 0.000983416 8.32685
0.0005 0.000961167 0.000983416 6.70922
0.0005 0.00096574 0.000983416 5.14784
0.0005 0.000969897 0.000983416 3.74854
0.0005 0.000973676 0.000983416 2.59101
0.0005 0.000977112 0.000983416 1.70499
0.0005 0.000980235 0.000983416 1.07164
0.0005 0.000983075 0.000983416 0.644138
0.0005 0.000985656 0.000983416 0.369304
0.0005 0.000988002 0.000983416 0.200455
0.0005 0.000990136 0.000983416 0.101599
0.0005 0.000992075 0.000983416 0.0469901
0.0005 0.000993838 0.000983416 0.0190806
0.0005 0.000995441 0.000983416 0.00634891
0.0005 0.000996898 0.000983416 0.00150998
0.0005 0.000998222 0.000983416 0.000188142
0.0005 0.000999427 0.000983416 5.64309e-06
0.0005 4.59758e-05 0.00104672 7.38646
0.0005 0.000133748 0.00104672 7.67792
0.0005 0.000213541 0.00104672 8.18352
0.0005 0.000286079 0.00104672 8.83964
0.0005 0.000352024 0.00104672 9.59356
0.0005 0.000411973 0.00104672 10.4021
0.0005 0.000466473 0.00104672 11.231
0.0005 0.000516018 0.00104672 12.0536
0.0005 0.000561059 0.00104672 12.8503
0.0005 0.000602005 0.00104672 13.607
0.0005 0.000639229 0.00104672 14.3139
0.0005 0.000673069 0.00104672 14.9645
0.0005 0.000703833 0.00104672 15.5529
0.0005 0.000731799 0.00104672 16.0699
0.0005 0.000757224 0.00104672 16.509
0.0005 0.000780337 0.00104672 16.8658
0.0005 0.000801349 0.00104672 17.1374
0.0005 0.000820451 0.00104672 17.3204
0.0005 0.000837816 0.00104672 17.4108
0.0005 0.000853602 0.00104672 17.4027
0.0005 0.000867954 0.00104672 17.2888
0.0005 0.000881001 0.00104672 17.0596
0.0005 0.000892861 0.00104672 16.7038
0.0005 0.000903644 0.00104672 16.2087
0.0005 0.000913446 0.00104672 15.5613
0.0005 0.000922357 0.00104672 14.7492
0.0005 0.000930458 0.00104672 13.7641
0.0005 0.000937823 0.00104672 12.6047
0.0005 0.000944518 0.00104672 11.2815
0.0005 0.000950604 0.00104672 9.8193
0.0005 0.000956137 0.00104672 8.25133
0.0005 0.000961167 0.00104672 6.64333
0.0005 0.00096574 0.00104672 5.0933
0.0005 0.000969897 0.00104672 3.70613
0.0005 0.000973676 0.00104672 2.56016
0.0005 0.000977112 0.00104672 1.68396
0.0005 0.000980235 0.00104672 1.05813
0.0005 0.000983075 0.00104672 0.635913
0.0005 0.000985656 0.00104672 0.364556
0.0005 0.000988002 0.00104672 0.197869
0.0005 0.000990136 0.00104672 0.100286
0.0005 0.000992075 0.00104672 0.0463826
0.0005 0.000993838 0.00104672 0.0188339
0.0005 0.000995441 0.00104672 0.00626681
0.0005 0.000996898 0.00104672 0.00149045
0.0005 0.000998222 0.00104672 0.000185709
0.0005 0.000999427 0.00104672 5.57013e-06
0.0005 4.59758e-05 0.00110807 7.45354
0.0005 0.000133748 0.00110807 7.73621
0.0005 0.000213541 0.00110807 8.22716
0.0005 0.000286079 0.00110807 8.86538
0.0005 0.000352024 0.00110807 9.60027
0.0005 0.000411973 0.00110807 10.3902
0.0005 0.000466473 0.00110807 11.2018
0.0005 0.000516018 0.00110807 12.009
0.0005 0.000561059 0.00110807 12.7923
0.0005 0.000602005 0.00110807 13.5375
0.0005 0.000639229 0.00110807 14.2345
0.0005 0.000673069 0.00110807 14.8765
0.0005 0.000703833 0.00110807 15.4582
0.0005 0.000731799 0.00110807 15.9705
0.0005 0.000757224 0.00110807 16.4063
0.0005 0.000780337 0.00110807 16.761
0.0005 0.000801349 0.00110807 17.031
0.0005 0.000820451 0.00110807 17.2131
0.0005 0.000837816 0.00110807 17.3029
0.0005 0.000853602 0.00110807 17.2945
0.0005 0.000867954 0.00110807 17.1805
0.0005 0.000881001 0.00110807 16.9515
0.0005 0.000892861 0.00110807 16.5961
0.0005 0.000903644 0.00110807 16.1018
0.0005 0.000913446 0.00110807 15.4556
0.0005 0.000922357 0.00110807 14.6453
0.0005 0.000930458 0.00110807 13.6627
0.0005 0.000937823 0.00110807 12.5069
0.0005 0.000944518 0.00110807 11.1886
0.0005 0.000950604 0.00110807 9.73296
0.0005 0.000956137 0.00110807 8.17304
0.0005 0.000961167 0.00110807 6.57509
0.0005 0.00096574 0.00110807 5.03686
0.0005 0.000969897 0.00110807 3.66228
0.0005 0.000973676 0.00110807 2.5283
0.0005 0.000977112 0.00110807 1.66226
0.0005 0.000980235 0.00110807 1.04419
0.0005 0.000983075 0.00110807 0.62743
0.0005 0.000985656 0.00110807 0.35966
0.0005 0.000988002 0.00110807 0.195203
0.0005 0.000990136 0.00110807 0.0989331
0.0005 0.000992075 0.00110807 0.0457563
0.0005 0.000993838 0.00110807 0.0185795
0.0005 0.000995441 0.00110807 0.00618216
0.0005 0.000996898 0.00110807 0.00147032
0.0005 0.000998222 0.00110807 0.000183201
0.0005 0.000999427 0.00110807 5.49489e-06
0.0005 4.59758e-05 0.00116754 7.52801
0.0005 0.000133748 0.00116754 7.80168
0.0005 0.000213541 0.00116754 8.27754
0.0005 0.000286079 0.00116754 8.89719
0.0005 0.000352024 0.00116754 9.61219
0.0005 0.000411973 0.00116754 10.3825
0.0005 0.000466473 0.00116754 11.1758
0.0005 0.000516018 0.00116754 11.9665
0.0005 0.000561059 0.00116754 12.7354
0.0005 0.000602005 0.00116754 13.4681
0.0005 0.000639229 0.00116754 14.1546
0.0005 0.000673069 0.00116754 14.7874
0.0005 0.000703833 0.00116754 15.3618
0.0005 0.000731799 0.00116754 15.8687
0.0005 0.000757224 0.00116754 16.3008
0.0005 0.000780337 0.00116754 16.653
0.0005 0.000801349 0.00116754 16.9214
0.0005 0.000820451 0.00116754 17.1024
0.0005 0.000837816 0.00116754 17.1915
0.0005 0.000853602 0.00116754 17.1828
0.0005 0.000867954 0.00116754 17.0687
0.0005 0.000881001 0.00116754 16.8398
0.0005 0.000892861 0.00116754 16.4848
0.0005 0.000903644 0.00116754 15.9914
0.0005 0.000913446 0.00116754 15.3463
0.0005 0.000922357 0.00116754 14.5379
0.0005 0.000930458 0.00116754 13.558
0.0005 0.000937823 0.00116754 12.406
0.0005 0.000944518 0.00116754 11.0928
0.0005 0.000950604 0.00116754 9.64385
0.0005 0.000956137 0.00116754 8.09227
0.0005 0.000961167 0.00116754 6.50474
0.0005 0.00096574 0.00116754 4.97874
0.0005 0.000969897 0.00116754 3.61717
0.0005 0.000973676 0.00116754 2.49556
0.0005 0.000977112 0.00116754 1.63997
0.0005 0.000980235 0.00116754 1.02989
0.0005 0.000983075 0.00116754 0.618727
0.0005 0.000985656 0.00116754 0.354638
0.0005 0.000988002 0.00116754 0.192469
0.0005 0.000990136 0.00116754 0.097545
0.0005 0.000992075 0.00116754 0.0451139
0.0005 0.000993838 0.00116754 0.0183186
0.0005 0.000995441 0.00116754 0.00609534
0.0005 0.000996898 0.00116754 0.00144967
0.0005 0.000998222 0.00116754 0.000180628
0.0005 0.000999427 0.00116754 5.41773e-06
0.0005 4.59758e-05 0.00122516 7.60974
0.0005 0.000133748 0.00122516 7.87427
0.0005 0.000213541 0.00122516 8.33474
0.0005 0.000286079 0.00122516 8.93532
0.0005 0.000352024 0.00122516 9.62973
0.0005 0.000411973 0.00122516 10.3796
0.0005 0.000466473 0.00122516 11.1535
0.0005 0.000516018 0.00122516 11.9268
0.0005 0.000561059 0.00122516 12.6803
0.0005 0.000602005 0.00122516 13.3997
0.0005 0.000639229 0.00122516 14.0748
0.0005 0.000673069 0.00122516 14.698
0.0005 0.000703833 0.00122516 15.2641
0.0005 0.000731799 0.00122516 15.7651