# omega  FACE_DATA 6627
#  x  y  z  omega
0.0005 4.59758e-05 4.68122e-05 21216.7
0.0005 0.000133748 4.68122e-05 22702.4
0.0005 0.000213541 4.68122e-05 25358.1
0.0005 0.000286079 4.68122e-05 28971.4
0.0005 0.000352024 4.68122e-05 33400.5
0.0005 0.000411973 4.68122e-05 38564.2
0.0005 0.000466473 4.68122e-05 44430.5
0.0005 0.000516018 4.68122e-05 51005.8
0.0005 0.000561059 4.68122e-05 58335.6
0.0005 0.000602005 4.68122e-05 66502.2
0.0005 0.000639229 4.68122e-05 75648.9
0.0005 0.000673069 4.68122e-05 85918.6
0.0005 0.000703833 4.68122e-05 97412
0.0005 0.000731799 4.68122e-05 110267
0.0005 0.000757224 4.68122e-05 124686
0.0005 0.000780337 4.68122e-05 140935
0.0005 0.000801349 4.68122e-05 159347
0.0005 0.000820451 4.68122e-05 180315
0.0005 0.000837816 4.68122e-05 204307
0.0005 0.000853602 4.68122e-05 231873
0.0005 0.000867954 4.68122e-05 263657
0.0005 0.000881001 4.68122e-05 300409
0.0005 0.000892861 4.68122e-05 343001
0.0005 0.000903644 4.68122e-05 392450
0.0005 0.000913446 4.68122e-05 449932
0.0005 0.000922357 4.68122e-05 516822
0.0005 0.000930458 4.68122e-05 594758
0.0005 0.000937823 4.68122e-05 685782
0.0005 0.000944518 4.68122e-05 792627
0.0005 0.000950604 4.68122e-05 919256
0.0005 0.000956137 4.68122e-05 1.07179e+06
0.0005 0.000961167 4.68122e-05 1.25945e+06
0.0005 0.00096574 4.68122e-05 1.49632e+06
0.0005 0.000969897 4.68122e-05 1.80524e+06
0.0005 0.000973676 4.68122e-05 2.22339e+06
0.0005 0.000977112 4.68122e-05 2.80968e+06
0.0005 0.000980235 4.68122e-05 3.65673e+06
0.0005 0.000983075 4.68122e-05 4.91366e+06
0.0005 0.000985656 4.68122e-05 6.83252e+06
0.0005 0.000988002 4.68122e-05 9.86731e+06
0.0005 0.000990136 4.68122e-05 1.49e+07
0.0005 0.000992075 4.68122e-05 2.38094e+07
0.0005 0.000993838 4.68122e-05 4.11057e+07
0.0005 0.000995441 4.68122e-05 7.95376e+07
0.0005 0.000996898 4.68122e-05 1.84802e+08
0.0005 0.000998222 4.68122e-05 5.94344e+08
0.0005 0.000999427 4.68122e-05 3.64963e+09
0.0005 4.59758e-05 0.000138993 21220.2
0.0005 0.000133748 0.000138993 22703.9
0.0005 0.000213541 0.000138993 25356.3
0.0005 0.000286079 0.000138993 28965.6
0.0005 0.000352024 0.000138993 33390.8
0.0005 0.000411973 0.000138993 38550.9
0.0005 0.000466473 0.000138993 44413.8
0.0005 0.000516018 0.000138993 50986.1
0.0005 0.000561059 0.000138993 58313.1
0.0005 0.000602005 0.000138993 66476.7
0.0005 0.000639229 0.000138993 75620.5
0.0005 0.000673069 0.000138993 85887.8
0.0005 0.000703833 0.000138993 97379.6
0.0005 0.000731799 0.000138993 110234
0.0005 0.000757224 0.000138993 124652
0.0005 0.000780337 0.000138993 140900
0.0005 0.000801349 0.000138993 159310
0.0005 0.000820451 0.000138993 180277
0.0005 0.000837816 0.000138993 204266
0.0005 0.000853602 0.000138993 231829
0.0005 0.000867954 0.000138993 263611
0.0005 0.000881001 0.000138993 300357
0.0005 0.000892861 0.000138993 342944
0.0005 0.000903644 0.000138993 392386
0.0005 0.000913446 0.000138993 449859
0.0005 0.000922357 0.000138993 516737
0.0005 0.000930458 0.000138993 594659
0.0005 0.000937823 0.000138993 685665
0.0005 0.000944518 0.000138993 792488
0.0005 0.000950604 0.000138993 919093
0.0005 0.000956137 0.000138993 1.0716e+06
0.0005 0.000961167 0.000138993 1.25924e+06
0.0005 0.00096574 0.000138993 1.49608e+06
0.0005 0.000969897 0.000138993 1.80499e+06
0.0005 0.000973676 0.000138993 2.22314e+06
0.0005 0.000977112 0.000138993 2.80944e+06
0.0005 0.000980235 0.000138993 3.65652e+06
0.0005 0.000983075 0.000138993 4.91349e+06
0.0005 0.000985656 0.000138993 6.83238e+06
0.0005 0.000988002 0.000138993 9.86721e+06
0.0005 0.000990136 0.000138993 1.48999e+07
0.0005 0.000992075 0.000138993 2.38094e+07
0.0005 0.000993838 0.000138993 4.11057e+07
0.0005 0.000995441 0.000138993 7.95376e+07
0.0005 0.000996898 0.000138993 1.84802e+08
0.0005 0.000998222 0.000138993 5.94344e+08
0.0005 0.000999427 0.000138993 3.64963e+09
0.0005 4.59758e-05 0.000228333 21227.7
0.0005 0.000133748 0.000228333 22707.3
0.0005 0.000213541 0.000228333 25353.1
0.0005 0.000286079 0.000228333 28954.8
0.0005 0.000352024 0.000228333 33372.6
0.0005 0.000411973 0.000228333 38525.6
0.0005 0.000466473 0.000228333 44382
0.0005 0.000516018 0.000228333 50948.5
0.0005 0.000561059 0.000228333 58270.1
0.0005 0.000602005 0.000228333 66428
0.0005 0.000639229 0.000228333 75565.9
0.0005 0.000673069 0.000228333 85828.7
0.0005 0.000703833 0.000228333 97317.3
0.0005 0.000731799 0.000228333 110169
0.0005 0.000757224 0.000228333 124585
0.0005 0.000780337 0.000228333 140831
0.0005 0.000801349 0.000228333 159239
0.0005 0.000820451 0.000228333 180202
0.0005 0.000837816 0.000228333 204187
0.0005 0.000853602 0.000228333 231745
0.0005 0.000867954 0.000228333 263519
0.0005 0.000881001 0.000228333 300256
0.0005 0.000892861 0.000228333 342832
0.0005 0.000903644 0.000228333 392259
0.0005 0.000913446 0.000228333 449714
0.0005 0.000922357 0.000228333 516570
0.0005 0.000930458 0.000228333 594463
0.0005 0.000937823 0.000228333 685433
0.0005 0.000944518 0.000228333 792215
0.0005 0.000950604 0.000228333 918773
0.0005 0.000956137 0.000228333 1.07123e+06
0.0005 0.000961167 0.000228333 1.25882e+06
0.0005 0.00096574 0.000228333 1.49562e+06
0.0005 0.000969897 0.000228333 1.8045e+06
0.0005 0.000973676 0.000228333 2.22264e+06
0.0005 0.000977112 0.000228333 2.80898e+06
0.0005 0.000980235 0.000228333 3.65611e+06
0.0005 0.000983075 0.000228333 4.91314e+06
0.0005 0.000985656 0.000228333 6.83211e+06
0.0005 0.000988002 0.000228333 9.86701e+06
0.0005 0.000990136 0.000228333 1.48998e+07
0.0005 0.000992075 0.000228333 2.38093e+07
0.0005 0.000993838 0.000228333 4.11056e+07
0.0005 0.000995441 0.000228333 7.95376e+07
0.0005 0.000996898 0.000228333 1.84802e+08
0.0005 0.000998222 0.000228333 5.94344e+08
0.0005 0.000999427 0.000228333 3.64963e+09
0.0005 4.59758e-05 0.000314917 21239.5
0.0005 0.000133748 0.000314917 22713.2
0.0005 0.000213541 0.000314917 25349.5
0.0005 0.000286079 0.000314917 28940.1
0.0005 0.000352024 0.000314917 33346.8
0.0005 0.000411973 0.000314917 38489.5
0.0005 0.000466473 0.000314917 44336.3
0.0005 0.000516018 0.000314917 50894.2
0.0005 0.000561059 0.000314917 58208.1
0.0005 0.000602005 0.000314917 66357.8
0.0005 0.000639229 0.000314917 75487.3
0.0005 0.000673069 0.000314917 85743.2
0.0005 0.000703833 0.000314917 97226.9
0.0005 0.000731799 0.000314917 110075
0.0005 0.000757224 0.000314917 124488
0.0005 0.000780337 0.000314917 140731
0.0005 0.000801349 0.000314917 159135
0.0005 0.000820451 0.000314917 180093
0.0005 0.000837816 0.000314917 204071
0.0005 0.000853602 0.000314917 231621
0.0005 0.000867954 0.000314917 263385
0.0005 0.000881001 0.000314917 300109
0.0005 0.000892861 0.000314917 342668
0.0005 0.000903644 0.000314917 392075
0.0005 0.000913446 0.000314917 449504
0.0005 0.000922357 0.000314917 516326
0.0005 0.000930458 0.000314917 594178
0.0005 0.000937823 0.000314917 685097
0.0005 0.000944518 0.000314917 791818
0.0005 0.000950604 0.000314917 918307
0.0005 0.000956137 0.000314917 1.07069e+06
0.0005 0.000961167 0.000314917 1.25821e+06
0.0005 0.00096574 0.000314917 1.49495e+06
0.0005 0.000969897 0.000314917 1.80378e+06
0.0005 0.000973676 0.000314917 2.22193e+06
0.0005 0.000977112 0.000314917 2.80831e+06
0.0005 0.000980235 0.000314917 3.65551e+06
0.0005 0.000983075 0.000314917 4.91265e+06
0.0005 0.000985656 0.000314917 6.83172e+06
0.0005 0.000988002 0.000314917 9.86671e+06
0.0005 0.000990136 0.000314917 1.48996e+07
0.0005 0.000992075 0.000314917 2.38092e+07
0.0005 0.000993838 0.000314917 4.11055e+07
0.0005 0.000995441 0.000314917 7.95375e+07
0.0005 0.000996898 0.000314917 1.84802e+08
0.0005 0.000998222 0.000314917 5.94344e+08
0.0005 0.000999427 0.000314917 3.64963e+09
0.0005 4.59758e-05 0.000398833 21256.4
0.0005 0.000133748 0.000398833 22722.5
0.0005 0.000213541 0.000398833 25346.3
0.0005 0.000286079 0.000398833 28922.3
0.0005 0.000352024 0.000398833 33314.5
0.0005 0.000411973 0.000398833 38443.5
0.0005 0.000466473 0.000398833 44277.8
0.0005 0.000516018 0.000398833 50824.4
0.0005 0.000561059 0.000398833 58128.1
0.0005 0.000602005 0.000398833 66268
0.0005 0.000639229 0.000398833 75387
0.0005 0.000673069 0.000398833 85633.2
0.0005 0.000703833 0.000398833 97109.7
0.0005 0.000731799 0.000398833 109953
0.0005 0.000757224 0.000398833 124362
0.0005 0.000780337 0.000398833 140601
0.0005 0.000801349 0.000398833 159000
0.0005 0.000820451 0.000398833 179952
0.0005 0.000837816 0.000398833 203922
0.0005 0.000853602 0.000398833 231461
0.0005 0.000867954 0.000398833 263212
0.0005 0.000881001 0.000398833 299920
0.0005 0.000892861 0.000398833 342458
0.0005 0.000903644 0.000398833 391837
0.0005 0.000913446 0.000398833 449232
0.0005 0.000922357 0.000398833 516012
0.0005 0.000930458 0.000398833 593810
0.0005 0.000937823 0.000398833 684664
0.0005 0.000944518 0.000398833 791307
0.0005 0.000950604 0.000398833 917709
0.0005 0.000956137 0.000398833 1.07e+06
0.0005 0.000961167 0.000398833 1.25742e+06
0.0005 0.00096574 0.000398833 1.49408e+06
0.0005 0.000969897 0.000398833 1.80287e+06
0.0005 0.000973676 0.000398833 2.22102e+06
0.0005 0.000977112 0.000398833 2.80744e+06
0.0005 0.000980235 0.000398833 3.65475e+06
0.0005 0.000983075 0.000398833 4.91201e+06
0.0005 0.000985656 0.000398833 6.83121e+06
0.0005 0.000988002 0.000398833 9.86634e+06
0.0005 0.000990136 0.000398833 1.48993e+07
0.0005 0.000992075 0.000398833 2.3809e+07
0.0005 0.000993838 0.000398833 4.11054e+07
0.0005 0.000995441 0.000398833 7.95375e+07
0.0005 0.000996898 0.000398833 1.84802e+08
0.0005 0.000998222 0.000398833 5.94344e+08
0.0005 0.000999427 0.000398833 3.64963e+09
0.0005 4.59758e-05 0.000480161 21279.5
0.0005 0.000133748 0.000480161 22736.2
0.0005 0.000213541 0.000480161 25344.7
0.0005 0.000286079 0.000480161 28902.8
0.0005 0.000352024 0.000480161 33276.9
0.0005 0.000411973 0.000480161 38389
0.0005 0.000466473 0.000480161 44207.5
0.0005 0.000516018 0.000480161 50740.1
0.0005 0.000561059 0.000480161 58031.3
0.0005 0.000602005 0.000480161 66159.5
0.0005 0.000639229 0.000480161 75266.1
0.0005 0.000673069 0.000480161 85499.8
0.0005 0.000703833 0.000480161 96967
0.0005 0.000731799 0.000480161 109804
0.0005 0.000757224 0.000480161 124208
0.0005 0.000780337 0.000480161 140443
0.0005 0.000801349 0.000480161 158835
0.0005 0.000820451 0.000480161 179780
0.0005 0.000837816 0.000480161 203741
0.0005 0.000853602 0.000480161 231267
0.0005 0.000867954 0.000480161 263002
0.0005 0.000881001 0.000480161 299690
0.0005 0.000892861 0.000480161 342203
0.0005 0.000903644 0.000480161 391551
0.0005 0.000913446 0.000480161 448905
0.0005 0.000922357 0.000480161 515634
0.0005 0.000930458 0.000480161 593368
0.0005 0.000937823 0.000480161 684142
0.0005 0.000944518 0.000480161 790691
0.0005 0.000950604 0.000480161 916987
0.0005 0.000956137 0.000480161 1.06917e+06
0.0005 0.000961167 0.000480161 1.25648e+06
0.0005 0.00096574 0.000480161 1.49305e+06
0.0005 0.000969897 0.000480161 1.80177e+06
0.0005 0.000973676 0.000480161 2.21991e+06
0.0005 0.000977112 0.000480161 2.8064e+06
0.0005 0.000980235 0.000480161 3.65383e+06
0.0005 0.000983075 0.000480161 4.91124e+06
0.0005 0.000985656 0.000480161 6.83061e+06
0.0005 0.000988002 0.000480161 9.86589e+06
0.0005 0.000990136 0.000480161 1.4899e+07
0.0005 0.000992075 0.000480161 2.38088e+07
0.0005 0.000993838 0.000480161 4.11053e+07
0.0005 0.000995441 0.000480161 7.95374e+07
0.0005 0.000996898 0.000480161 1.84802e+08
0.0005 0.000998222 0.000480161 5.94344e+08
0.0005 0.000999427 0.000480161 3.64963e+09
0.0005 4.59758e-05 0.000558981 21309.7
0.0005 0.000133748 0.000558981 22755.3
0.0005 0.000213541 0.000558981 25345.8
0.0005 0.000286079 0.000558981 28882.6
0.0005 0.000352024 0.000558981 33235.2
0.0005 0.000411973 0.000558981 38326.9
0.0005 0.000466473 0.000558981 44126.8
0.0005 0.000516018 0.000558981 50642.7
0.0005 0.000561059 0.000558981 57918.9
0.0005 0.000602005 0.000558981 66033.4
0.0005 0.000639229 0.000558981 75125.1
0.0005 0.000673069 0.000558981 85343.8
0.0005 0.000703833 0.000558981 96799.7
0.0005 0.000731799 0.000558981 109629
0.0005 0.000757224 0.000558981 124028
0.0005 0.000780337 0.000558981 140257
0.0005 0.000801349 0.000558981 158644
0.0005 0.000820451 0.000558981 179580
0.0005 0.000837816 0.000558981 203529
0.0005 0.000853602 0.000558981 231042
0.0005 0.000867954 0.000558981 262759
0.0005 0.000881001 0.000558981 299424
0.0005 0.000892861 0.000558981 341908
0.0005 0.000903644 0.000558981 391218
0.0005 0.000913446 0.000558981 448526
0.0005 0.000922357 0.000558981 515195
0.0005 0.000930458 0.000558981 592854
0.0005 0.000937823 0.000558981 683537
0.0005 0.000944518 0.000558981 789978
0.0005 0.000950604 0.000558981 916151
0.0005 0.000956137 0.000558981 1.0682e+06
0.0005 0.000961167 0.000558981 1.25539e+06
0.0005 0.00096574 0.000558981 1.49184e+06
0.0005 0.000969897 0.000558981 1.8005e+06
0.0005 0.000973676 0.000558981 2.21864e+06
0.0005 0.000977112 0.000558981 2.80521e+06
0.0005 0.000980235 0.000558981 3.65277e+06
0.0005 0.000983075 0.000558981 4.91035e+06
0.0005 0.000985656 0.000558981 6.82991e+06
0.0005 0.000988002 0.000558981 9.86537e+06
0.0005 0.000990136 0.000558981 1.48986e+07
0.0005 0.000992075 0.000558981 2.38086e+07
0.0005 0.000993838 0.000558981 4.11051e+07
0.0005 0.000995441 0.000558981 7.95373e+07
0.0005 0.000996898 0.000558981 1.84802e+08
0.0005 0.000998222 0.000558981 5.94344e+08
0.0005 0.000999427 0.000558981 3.64963e+09
0.0005 4.59758e-05 0.000635372 21348.2
0.0005 0.000133748 0.000635372 22781.1
0.0005 0.000213541 0.000635372 25350.9
0.0005 0.000286079 0.000635372 28863.1
0.0005 0.000352024 0.000635372 33190.6
0.0005 0.000411973 0.000635372 38258.6
0.0005 0.000466473 0.000635372 44036.7
0.0005 0.000516018 0.000635372 50533.2
0.0005 0.000561059 0.000635372 57792
0.0005 0.000602005 0.000635372 65890.5
0.0005 0.000639229 0.000635372 74964.8
0.0005 0.000673069 0.000635372 85165.9
0.0005 0.000703833 0.000635372 96608.7
0.0005 0.000731799 0.000635372 109429
0.0005 0.000757224 0.000635372 123822
0.0005 0.000780337 0.000635372 140045
0.0005 0.000801349 0.000635372 158425
0.0005 0.000820451 0.000635372 179352
0.0005 0.000837816 0.000635372 203290
0.0005 0.000853602 0.000635372 230787
0.0005 0.000867954 0.000635372 262483
0.0005 0.000881001 0.000635372 299123
0.0005 0.000892861 0.000635372 341574
0.0005 0.000903644 0.000635372 390843
0.0005 0.000913446 0.000635372 448097
0.0005 0.000922357 0.000635372 514700
0.0005 0.000930458 0.000635372 592275
0.0005 0.000937823 0.000635372 682856
0.0005 0.000944518 0.000635372 789174
0.0005 0.000950604 0.000635372 915210
0.0005 0.000956137 0.000635372 1.06712e+06
0.0005 0.000961167 0.000635372 1.25416e+06
0.0005 0.00096574 0.000635372 1.49049e+06
0.0005 0.000969897 0.000635372 1.79907e+06
0.0005 0.000973676 0.000635372 2.21721e+06
0.0005 0.000977112 0.000635372 2.80386e+06
0.0005 0.000980235 0.000635372 3.65158e+06
0.0005 0.000983075 0.000635372 4.90936e+06
0.0005 0.000985656 0.000635372 6.82912e+06
0.0005 0.000988002 0.000635372 9.86478e+06
0.0005 0.000990136 0.000635372 1.48982e+07
0.0005 0.000992075 0.000635372 2.38083e+07
0.0005 0.000993838 0.000635372 4.1105e+07
0.0005 0.000995441 0.000635372 7.95372e+07
0.0005 0.000996898 0.000635372 1.84802e+08
0.0005 0.000998222 0.000635372 5.94344e+08
0.0005 0.000999427 0.000635372 3.64963e+09
0.0005 4.59758e-05 0.000709407 21396.1
0.0005 0.000133748 0.000709407 22814.8
0.0005 0.000213541 0.000709407 25361.1
0.0005 0.000286079 0.000709407 28845.5
0.0005 0.000352024 0.000709407 33144.4
0.0005 0.000411973 0.000709407 38185.3
0.0005 0.000466473 0.000709407 43938.5
0.0005 0.000516018 0.000709407 50412.7
0.0005 0.000561059 0.000709407 57651.5
0.0005 0.000602005 0.000709407 65731.6
0.0005 0.000639229 0.000709407 74786
0.0005 0.000673069 0.000709407 84966.9
0.0005 0.000703833 0.000709407 96394.7
0.0005 0.000731799 0.000709407 109205
0.0005 0.000757224 0.000709407 123591
0.0005 0.000780337 0.000709407 139808
0.0005 0.000801349 0.000709407 158180
0.0005 0.000820451 0.000709407 179098
0.0005 0.000837816 0.000709407 203022
0.0005 0.000853602 0.000709407 230502
0.0005 0.000867954 0.000709407 262177
0.0005 0.000881001 0.000709407 298789
0.0005 0.000892861 0.000709407 341204
0.0005 0.000903644 0.000709407 390427
0.0005 0.000913446 0.000709407 447624
0.0005 0.000922357 0.000709407 514152
0.0005 0.000930458 0.000709407 591635
0.0005 0.000937823 0.000709407 682102
0.0005 0.000944518 0.000709407 788286
0.0005 0.000950604 0.000709407 914170
0.0005 0.000956137 0.000709407 1.06592e+06
0.0005 0.000961167 0.000709407 1.25281e+06
0.0005 0.00096574 0.000709407 1.489e+06
0.0005 0.000969897 0.000709407 1.79749e+06
0.0005 0.000973676 0.000709407 2.21564e+06
0.0005 0.000977112 0.000709407 2.80238e+06
0.0005 0.000980235 0.000709407 3.65027e+06
0.0005 0.000983075 0.000709407 4.90827e+06
0.0005 0.000985656 0.000709407 6.82826e+06
0.0005 0.000988002 0.000709407 9.86414e+06
0.0005 0.000990136 0.000709407 1.48978e+07
0.0005 0.000992075 0.000709407 2.3808e+07
0.0005 0.000993838 0.000709407 4.11048e+07
0.0005 0.000995441 0.000709407 7.95371e+07
0.0005 0.000996898 0.000709407 1.84802e+08
0.0005 0.000998222 0.000709407 5.94344e+08
0.0005 0.000999427 0.000709407 3.64963e+09
0.0005 4.59758e-05 0.00078116 21454.6
0.0005 0.000133748 0.00078116 22857.4
0.0005 0.000213541 0.00078116 25377.8
0.0005 0.000286079 0.00078116 28831.2
0.0005 0.000352024 0.00078116 33098.1
0.0005 0.000411973 0.00078116 38108.3
0.0005 0.000466473 0.00078116 43833.4
0.0005 0.000516018 0.00078116 50282.4
0.0005 0.000561059 0.00078116 57498.5
0.0005 0.000602005 0.00078116 65557.8
0.0005 0.000639229 0.00078116 74589.6
0.0005 0.000673069 0.00078116 84747.6
0.0005 0.000703833 0.00078116 96158.2
0.0005 0.000731799 0.00078116 108958
0.0005 0.000757224 0.00078116 123335
0.0005 0.000780337 0.00078116 139546
0.0005 0.000801349 0.00078116 157911
0.0005 0.000820451 0.00078116 178818
0.0005 0.000837816 0.00078116 202729
0.0005 0.000853602 0.00078116 230191
0.0005 0.000867954 0.00078116 261842
0.0005 0.000881001 0.00078116 298423
0.0005 0.000892861 0.00078116 340799
0.0005 0.000903644 0.00078116 389974
0.0005 0.000913446 0.00078116 447107
0.0005 0.000922357 0.00078116 513555
0.0005 0.000930458 0.00078116 590938
0.0005 0.000937823 0.00078116 681281
0.0005 0.000944518 0.00078116 787319
0.0005 0.000950604 0.00078116 913038
0.0005 0.000956137 0.00078116 1.06462e+06
0.0005 0.000961167 0.00078116 1.25134e+06
0.0005 0.00096574 0.00078116 1.48738e+06
0.0005 0.000969897 0.00078116 1.79578e+06
0.0005 0.000973676 0.00078116 2.21393e+06
0.0005 0.000977112 0.00078116 2.80078e+06
0.0005 0.000980235 0.00078116 3.64885e+06
0.0005 0.000983075 0.00078116 4.90709e+06
0.0005 0.000985656 0.00078116 6.82733e+06
0.0005 0.000988002 0.00078116 9.86345e+06
0.0005 0.000990136 0.00078116 1.48973e+07
0.0005 0.000992075 0.00078116 2.38077e+07
0.0005 0.000993838 0.00078116 4.11046e+07
0.0005 0.000995441 0.00078116 7.9537e+07
0.0005 0.000996898 0.00078116 1.84802e+08
0.0005 0.000998222 0.00078116 5.94344e+08
0.0005 0.000999427 0.00078116 3.64963e+09
0.0005 4.59758e-05 0.000850701 21524.6
0.0005 0.000133748 0.000850701 22910.1
0.0005 0.000213541 0.000850701 25402.1
0.0005 0.000286079 0.000850701 28821.4
0.0005 0.000352024 0.000850701 33052.8
0.0005 0.000411973 0.000850701 38028.9
0.0005 0.000466473 0.000850701 43722.7
0.0005 0.000516018 0.000850701 50143.4
0.0005 0.000561059 0.000850701 57334.2
0.0005 0.000602005 0.000850701 65370.2
0.0005 0.000639229 0.000850701 74376.6
0.0005 0.000673069 0.000850701 84508.7
0.0005 0.000703833 0.000850701 95900.1
0.0005 0.000731799 0.000850701 108687
0.0005 0.000757224 0.000850701 123056
0.0005 0.000780337 0.000850701 139260
0.0005 0.000801349 0.000850701 157617
0.0005 0.000820451 0.000850701 178514
0.0005 0.000837816 0.000850701 202410
0.0005 0.000853602 0.000850701 229853
0.0005 0.000867954 0.000850701 261479
0.0005 0.000881001 0.000850701 298028
0.0005 0.000892861 0.000850701 340363
0.0005 0.000903644 0.000850701 389484
0.0005 0.000913446 0.000850701 446549
0.0005 0.000922357 0.000850701 512912
0.0005 0.000930458 0.000850701 590187
0.0005 0.000937823 0.000850701 680398
0.0005 0.000944518 0.000850701 786278
0.0005 0.000950604 0.000850701 911821
0.0005 0.000956137 0.000850701 1.06321e+06
0.0005 0.000961167 0.000850701 1.24976e+06
0.0005 0.00096574 0.000850701 1.48564e+06
0.0005 0.000969897 0.000850701 1.79395e+06
0.0005 0.000973676 0.000850701 2.2121e+06
0.0005 0.000977112 0.000850701 2.79906e+06
0.0005 0.000980235 0.000850701 3.64734e+06
0.0005 0.000983075 0.000850701 4.90582e+06
0.0005 0.000985656 0.000850701 6.82634e+06
0.0005 0.000988002 0.000850701 9.86271e+06
0.0005 0.000990136 0.000850701 1.48968e+07
0.0005 0.000992075 0.000850701 2.38073e+07
0.0005 0.000993838 0.000850701 4.11044e+07
0.0005 0.000995441 0.000850701 7.95369e+07
0.0005 0.000996898 0.000850701 1.84802e+08
0.0005 0.000998222 0.000850701 5.94344e+08
0.0005 0.000999427 0.000850701 3.64963e+09
0.0005 4.59758e-05 0.000918097 21607
0.0005 0.000133748 0.000918097 22974
0.0005 0.000213541 0.000918097 25435.3
0.0005 0.000286079 0.000918097 28817.6
0.0005 0.000352024 0.000918097 33010.2
0.0005 0.000411973 0.000918097 37948.7
0.0005 0.000466473 0.000918097 43607.8
0.0005 0.000516018 0.000918097 49997.3
0.0005 0.000561059 0.000918097 57159.8
0.0005 0.000602005 0.000918097 65169.8
0.0005 0.000639229 0.000918097 74148
0.0005 0.000673069 0.000918097 84251.3
0.0005 0.000703833 0.000918097 95621.1
0.0005 0.000731799 0.000918097 108394
0.0005 0.000757224 0.000918097 122754
0.0005 0.000780337 0.000918097 138950
0.0005 0.000801349 0.000918097 157299
0.0005 0.000820451 0.000918097 178185
0.0005 0.000837816 0.000918097 202066
0.0005 0.000853602 0.000918097 229489
0.0005 0.000867954 0.000918097 261089
0.0005 0.000881001 0.000918097 297604
0.0005 0.000892861 0.000918097 339895
0.0005 0.000903644 0.000918097 388960
0.0005 0.000913446 0.000918097 445954
0.0005 0.000922357 0.000918097 512225
0.0005 0.000930458 0.000918097 589385
0.0005 0.000937823 0.000918097 679455
0.0005 0.000944518 0.000918097 785168
0.0005 0.000950604 0.000918097 910523
0.0005 0.000956137 0.000918097 1.06172e+06
0.0005 0.000961167 0.000918097 1.24807e+06
0.0005 0.00096574 0.000918097 1.48379e+06
0.0005 0.000969897 0.000918097 1.792e+06
0.0005 0.000973676 0.000918097 2.21016e+06
0.0005 0.000977112 0.000918097 2.79724e+06
0.0005 0.000980235 0.000918097 3.64573e+06
0.0005 0.000983075 0.000918097 4.90449e+06
0.0005 0.000985656 0.000918097 6.82528e+06
0.0005 0.000988002 0.000918097 9.86192e+06
0.0005 0.000990136 0.000918097 1.48962e+07
0.0005 0.000992075 0.000918097 2.3807e+07
0.0005 0.000993838 0.000918097 4.11042e+07
0.0005 0.000995441 0.000918097 7.95368e+07
0.0005 0.000996898 0.000918097 1.84802e+08
0.0005 0.000998222 0.000918097 5.94344e+08
0.0005 0.000999427 0.000918097 3.64963e+09
0.0005 4.59758e-05 0.000983416 21702.6
0.0005 0.000133748 0.000983416 23049.9
0.0005 0.000213541 0.000983416 25478.4
0.0005 0.000286079 0.000983416 28820.9
0.0005 0.000352024 0.000983416 32971.5
0.0005 0.000411973 0.000983416 37869.2
0.0005 0.000466473 0.000983416 43490.3
0.0005 0.000516018 0.000983416 49845.3
0.0005 0.000561059 0.000983416 56976.8
0.0005 0.000602005 0.000983416 64958.2
0.0005 0.000639229 0.000983416 73905.3
0.0005 0.000673069 0.000983416 83976.6
0.0005 0.000703833 0.000983416 95322.2
0.0005 0.000731799 0.000983416 108079
0.0005 0.000757224 0.000983416 122429
0.0005 0.000780337 0.000983416 138617
0.0005 0.000801349 0.000983416 156957
0.0005 0.000820451 0.000983416 177832
0.0005 0.000837816 0.000983416 201697
0.0005 0.000853602 0.000983416 229100
0.0005 0.000867954 0.000983416 260673
0.0005 0.000881001 0.000983416 297152
0.0005 0.000892861 0.000983416 339398
0.0005 0.000903644 0.000983416 388404
0.0005 0.000913446 0.000983416 445322
0.0005 0.000922357 0.000983416 511497
0.0005 0.000930458 0.000983416 588536
0.0005 0.000937823 0.000983416 678457
0.0005 0.000944518 0.000983416 783994
0.0005 0.000950604 0.000983416 909152
0.0005 0.000956137 0.000983416 1.06015e+06
0.0005 0.000961167 0.000983416 1.2463e+06
0.0005 0.00096574 0.000983416 1.48184e+06
0.0005 0.000969897 0.000983416 1.78995e+06
0.0005 0.000973676 0.000983416 2.20812e+06
0.0005 0.000977112 0.000983416 2.79533e+06
0.0005 0.000980235 0.000983416 3.64404e+06
0.0005 0.000983075 0.000983416 4.90308e+06
0.0005 0.000985656 0.000983416 6.82418e+06
0.0005 0.000988002 0.000983416 9.8611e+06
0.0005 0.000990136 0.000983416 1.48956e+07
0.0005 0.000992075 0.000983416 2.38066e+07
0.0005 0.000993838 0.000983416 4.1104e+07
0.0005 0.000995441 0.000983416 7.95367e+07
0.0005 0.000996898 0.000983416 1.84802e+08
0.0005 0.000998222 0.000983416 5.94344e+08
0.0005 0.000999427 0.000983416 3.64963e+09
0.0005 4.59758e-05 0.00104672 21812.2
0.0005 0.000133748 0.00104672 23138.7
0.0005 0.000213541 0.00104672 25532.6
0.0005 0.000286079 0.00104672 28832.7
0.0005 0.000352024 0.00104672 32938.3
0.0005 0.000411973 0.00104672 37791.7
0.0005 0.000466473 0.00104672 43371.5
0.0005 0.000516018 0.00104672 49689
0.0005 0.000561059 0.00104672 56786.5
0.0005 0.000602005 0.00104672 64736.6
0.0005 0.000639229 0.00104672 73649.8
0.0005 0.000673069 0.00104672 83686.1
0.0005 0.000703833 0.00104672 95004.8
0.0005 0.000731799 0.00104672 107744
0.0005 0.000757224 0.00104672 122082
0.0005 0.000780337 0.00104672 138261
0.0005 0.000801349 0.00104672 156591
0.0005 0.000820451 0.00104672 177454
0.0005 0.000837816 0.00104672 201304
0.0005 0.000853602 0.00104672 228686
0.0005 0.000867954 0.00104672 260231
0.0005 0.000881001 0.00104672 296674
0.0005 0.000892861 0.00104672 338871
0.0005 0.000903644 0.00104672 387816
0.0005 0.000913446 0.00104672 444655
0.0005 0.000922357 0.00104672 510729
0.0005 0.000930458 0.00104672 587641
0.0005 0.000937823 0.00104672 677407
0.0005 0.000944518 0.00104672 782760
0.0005 0.000950604 0.00104672 907710
0.0005 0.000956137 0.00104672 1.05849e+06
0.0005 0.000961167 0.00104672 1.24443e+06
0.0005 0.00096574 0.00104672 1.47979e+06
0.0005 0.000969897 0.00104672 1.7878e+06
0.0005 0.000973676 0.00104672 2.20598e+06
0.0005 0.000977112 0.00104672 2.79333e+06
0.0005 0.000980235 0.00104672 3.64228e+06
0.0005 0.000983075 0.00104672 4.90162e+06
0.0005 0.000985656 0.00104672 6.82303e+06
0.0005 0.000988002 0.00104672 9.86024e+06
0.0005 0.000990136 0.00104672 1.4895e+07
0.0005 0.000992075 0.00104672 2.38062e+07
0.0005 0.000993838 0.00104672 4.11037e+07
0.0005 0.000995441 0.00104672 7.95366e+07
0.0005 0.000996898 0.00104672 1.84802e+08
0.0005 0.000998222 0.00104672 5.94344e+08
0.0005 0.000999427 0.00104672 3.64963e+09
0.0005 4.59758e-05 0.00110807 21936.2
0.0005 0.000133748 0.00110807 23241.2
0.0005 0.000213541 0.00110807 25598.8
0.0005 0.000286079 0.00110807 28854.3
0.0005 0.000352024 0.00110807 32912
0.0005 0.000411973 0.00110807 37718
0.0005 0.000466473 0.00110807 43253.2
0.0005 0.000516018 0.00110807 49529.9
0.0005 0.000561059 0.00110807 56590.3
0.0005 0.000602005 0.00110807 64506.6
0.0005 0.000639229 0.00110807 73383.5
0.0005 0.000673069 0.00110807 83382
0.0005 0.000703833 0.00110807 94670.3
0.0005 0.000731799 0.00110807 107388
0.0005 0.000757224 0.00110807 121712
0.0005 0.000780337 0.00110807 137881
0.0005 0.000801349 0.00110807 156202
0.0005 0.000820451 0.00110807 177053
0.0005 0.000837816 0.00110807 200887
0.0005 0.000853602 0.00110807 228247
0.0005 0.000867954 0.00110807 259763
0.0005 0.000881001 0.00110807 296169
0.0005 0.000892861 0.00110807 338317
0.0005 0.000903644 0.00110807 387198
0.0005 0.000913446 0.00110807 443955
0.0005 0.000922357 0.00110807 509924
0.0005 0.000930458 0.00110807 586704
0.0005 0.000937823 0.00110807 676307
0.0005 0.000944518 0.00110807 781468
0.0005 0.000950604 0.00110807 906203
0.0005 0.000956137 0.00110807 1.05676e+06
0.0005 0.000961167 0.00110807 1.24249e+06
0.0005 0.00096574 0.00110807 1.47766e+06
0.0005 0.000969897 0.00110807 1.78557e+06
0.0005 0.000973676 0.00110807 2.20376e+06
0.0005 0.000977112 0.00110807 2.79125e+06
0.0005 0.000980235 0.00110807 3.64045e+06
0.0005 0.000983075 0.00110807 4.9001e+06
0.0005 0.000985656 0.00110807 6.82183e+06
0.0005 0.000988002 0.00110807 9.85935e+06
0.0005 0.000990136 0.00110807 1.48944e+07
0.0005 0.000992075 0.00110807 2.38058e+07
0.0005 0.000993838 0.00110807 4.11035e+07
0.0005 0.000995441 0.00110807 7.95364e+07
0.0005 0.000996898 0.00110807 1.84802e+08
0.0005 0.000998222 0.00110807 5.94344e+08
0.0005 0.000999427 0.00110807 3.64963e+09
0.0005 4.59758e-05 0.00116754 22075.1
0.0005 0.000133748 0.00116754 23357.8
0.0005 0.000213541 0.00116754 25678
0.0005 0.000286079 0.00116754 28886.9
0.0005 0.000352024 0.00116754 32894.1
0.0005 0.000411973 0.00116754 37649.7
0.0005 0.000466473 0.00116754 43137
0.0005 0.000516018 0.00116754 49369.4
0.0005 0.000561059 0.00116754 56389.6
0.0005 0.000602005 0.00116754 64269
0.0005 0.000639229 0.00116754 73108.5
0.0005 0.000673069 0.00116754 83067.5
0.0005 0.000703833 0.00116754 94320.6
0.0005 0.000731799 0.00116754 107013
0.0005 0.000757224 0.00116754 121320
0.0005 0.000780337 0.00116754 137477
0.0005 0.000801349 0.00116754 155788
0.0005 0.000820451 0.00116754 176627
0.0005 0.000837816 0.00116754 200446
0.0005 0.000853602 0.00116754 227784
0.0005 0.000867954 0.00116754 259271
0.0005 0.000881001 0.00116754 295638
0.0005 0.000892861 0.00116754 337736
0.0005 0.000903644 0.00116754 386551
0.0005 0.000913446 0.00116754 443223
0.0005 0.000922357 0.00116754 509083
0.0005 0.000930458 0.00116754 585727
0.0005 0.000937823 0.00116754 675161
0.0005 0.000944518 0.00116754 780123
0.0005 0.000950604 0.00116754 904635
0.0005 0.000956137 0.00116754 1.05496e+06
0.0005 0.000961167 0.00116754 1.24046e+06
0.0005 0.00096574 0.00116754 1.47545e+06
0.0005 0.000969897 0.00116754 1.78325e+06
0.0005 0.000973676 0.00116754 2.20146e+06
0.0005 0.000977112 0.00116754 2.7891e+06
0.0005 0.000980235 0.00116754 3.63857e+06
0.0005 0.000983075 0.00116754 4.89853e+06
0.0005 0.000985656 0.00116754 6.8206e+06
0.0005 0.000988002 0.00116754 9.85844e+06
0.0005 0.000990136 0.00116754 1.48938e+07
0.0005 0.000992075 0.00116754 2.38054e+07
0.0005 0.000993838 0.00116754 4.11032e+07
0.0005 0.000995441 0.00116754 7.95363e+07
0.0005 0.000996898 0.00116754 1.84802e+08
0.0005 0.000998222 0.00116754 5.94344e+08
0.0005 0.000999427 0.00116754 3.64963e+09
0.0005 4.59758e-05 0.00122516 22229.1
0.0005 0.000133748 0.00122516 23489.2