# V  FACE_DATA 6627
#  x  y  z  V
0.0005 4.59758e-05 4.68122e-05 8.60893e-12
0.0005 0.000133748 4.68122e-05 7.8263e-12
0.0005 0.000213541 4.68122e-05 7.11481e-12
0.0005 0.000286079 4.68122e-05 6.46801e-12
0.0005 0.000352024 4.68122e-05 5.88001e-12
0.0005 0.000411973 4.68122e-05 5.34547e-12
0.0005 0.000466473 4.68122e-05 4.85951e-12
0.0005 0.000516018 4.68122e-05 4.41774e-12
0.0005 0.000561059 4.68122e-05 4.01613e-12
0.0005 0.000602005 4.68122e-05 3.65102e-12
0.0005 0.000639229 4.68122e-05 3.31911e-12
0.0005 0.000673069 4.68122e-05 3.01738e-12
0.0005 0.000703833 4.68122e-05 2.74307e-12
0.0005 0.000731799 4.68122e-05 2.4937e-12
0.0005 0.000757224 4.68122e-05 2.267e-12
0.0005 0.000780337 4.68122e-05 2.06091e-12
0.0005 0.000801349 4.68122e-05 1.87355e-12
0.0005 0.000820451 4.68122e-05 1.70323e-12
0.0005 0.000837816 4.68122e-05 1.54839e-12
0.0005 0.000853602 4.68122e-05 1.40763e-12
0.0005 0.000867954 4.68122e-05 1.27966e-12
0.0005 0.000881001 4.68122e-05 1.16333e-12
0.0005 0.000892861 4.68122e-05 1.05757e-12
0.0005 0.000903644 4.68122e-05 9.61429e-13
0.0005 0.000913446 4.68122e-05 8.74026e-13
0.0005 0.000922357 4.68122e-05 7.94569e-13
0.0005 0.000930458 4.68122e-05 7.22336e-13
0.0005 0.000937823 4.68122e-05 6.56669e-13
0.0005 0.000944518 4.68122e-05 5.96972e-13
0.0005 0.000950604 4.68122e-05 5.42702e-13
0.0005 0.000956137 4.68122e-05 4.93365e-13
0.0005 0.000961167 4.68122e-05 4.48514e-13
0.0005 0.00096574 4.68122e-05 4.0774e-13
0.0005 0.000969897 4.68122e-05 3.70672e-13
0.0005 0.000973676 4.68122e-05 3.36975e-13
0.0005 0.000977112 4.68122e-05 3.06341e-13
0.0005 0.000980235 4.68122e-05 2.78492e-13
0.0005 0.000983075 4.68122e-05 2.53174e-13
0.0005 0.000985656 4.68122e-05 2.30158e-13
0.0005 0.000988002 4.68122e-05 2.09235e-13
0.0005 0.000990136 4.68122e-05 1.90214e-13
0.0005 0.000992075 4.68122e-05 1.72921e-13
0.0005 0.000993838 4.68122e-05 1.57201e-13
0.0005 0.000995441 4.68122e-05 1.4291e-13
0.0005 0.000996898 4.68122e-05 1.29918e-13
0.0005 0.000998222 4.68122e-05 1.18108e-13
0.0005 0.000999427 4.68122e-05 1.07371e-13
0.0005 4.59758e-05 0.000138993 8.3435e-12
0.0005 0.000133748 0.000138993 7.585e-12
0.0005 0.000213541 0.000138993 6.89546e-12
0.0005 0.000286079 0.000138993 6.2686e-12
0.0005 0.000352024 0.000138993 5.69873e-12
0.0005 0.000411973 0.000138993 5.18066e-12
0.0005 0.000466473 0.000138993 4.70969e-12
0.0005 0.000516018 0.000138993 4.28154e-12
0.0005 0.000561059 0.000138993 3.89231e-12
0.0005 0.000602005 0.000138993 3.53846e-12
0.0005 0.000639229 0.000138993 3.21678e-12
0.0005 0.000673069 0.000138993 2.92435e-12
0.0005 0.000703833 0.000138993 2.6585e-12
0.0005 0.000731799 0.000138993 2.41682e-12
0.0005 0.000757224 0.000138993 2.19711e-12
0.0005 0.000780337 0.000138993 1.99737e-12
0.0005 0.000801349 0.000138993 1.81579e-12
0.0005 0.000820451 0.000138993 1.65072e-12
0.0005 0.000837816 0.000138993 1.50065e-12
0.0005 0.000853602 0.000138993 1.36423e-12
0.0005 0.000867954 0.000138993 1.24021e-12
0.0005 0.000881001 0.000138993 1.12746e-12
0.0005 0.000892861 0.000138993 1.02497e-12
0.0005 0.000903644 0.000138993 9.31787e-13
0.0005 0.000913446 0.000138993 8.47079e-13
0.0005 0.000922357 0.000138993 7.70072e-13
0.0005 0.000930458 0.000138993 7.00065e-13
0.0005 0.000937823 0.000138993 6.36423e-13
0.0005 0.000944518 0.000138993 5.78567e-13
0.0005 0.000950604 0.000138993 5.2597e-13
0.0005 0.000956137 0.000138993 4.78154e-13
0.0005 0.000961167 0.000138993 4.34686e-13
0.0005 0.00096574 0.000138993 3.95169e-13
0.0005 0.000969897 0.000138993 3.59244e-13
0.0005 0.000973676 0.000138993 3.26586e-13
0.0005 0.000977112 0.000138993 2.96896e-13
0.0005 0.000980235 0.000138993 2.69906e-13
0.0005 0.000983075 0.000138993 2.45369e-13
0.0005 0.000985656 0.000138993 2.23062e-13
0.0005 0.000988002 0.000138993 2.02784e-13
0.0005 0.000990136 0.000138993 1.84349e-13
0.0005 0.000992075 0.000138993 1.6759e-13
0.0005 0.000993838 0.000138993 1.52355e-13
0.0005 0.000995441 0.000138993 1.38504e-13
0.0005 0.000996898 0.000138993 1.25913e-13
0.0005 0.000998222 0.000138993 1.14466e-13
0.0005 0.000999427 0.000138993 1.0406e-13
0.0005 4.59758e-05 0.000228333 8.08627e-12
0.0005 0.000133748 0.000228333 7.35115e-12
0.0005 0.000213541 0.000228333 6.68286e-12
0.0005 0.000286079 0.000228333 6.07533e-12
0.0005 0.000352024 0.000228333 5.52303e-12
0.0005 0.000411973 0.000228333 5.02093e-12
0.0005 0.000466473 0.000228333 4.56449e-12
0.0005 0.000516018 0.000228333 4.14953e-12
0.0005 0.000561059 0.000228333 3.7723e-12
0.0005 0.000602005 0.000228333 3.42937e-12
0.0005 0.000639229 0.000228333 3.11761e-12
0.0005 0.000673069 0.000228333 2.83419e-12
0.0005 0.000703833 0.000228333 2.57653e-12
0.0005 0.000731799 0.000228333 2.3423e-12
0.0005 0.000757224 0.000228333 2.12937e-12
0.0005 0.000780337 0.000228333 1.93579e-12
0.0005 0.000801349 0.000228333 1.75981e-12
0.0005 0.000820451 0.000228333 1.59982e-12
0.0005 0.000837816 0.000228333 1.45439e-12
0.0005 0.000853602 0.000228333 1.32217e-12
0.0005 0.000867954 0.000228333 1.20197e-12
0.0005 0.000881001 0.000228333 1.0927e-12
0.0005 0.000892861 0.000228333 9.93365e-13
0.0005 0.000903644 0.000228333 9.03059e-13
0.0005 0.000913446 0.000228333 8.20963e-13
0.0005 0.000922357 0.000228333 7.4633e-13
0.0005 0.000930458 0.000228333 6.78482e-13
0.0005 0.000937823 0.000228333 6.16802e-13
0.0005 0.000944518 0.000228333 5.60729e-13
0.0005 0.000950604 0.000228333 5.09753e-13
0.0005 0.000956137 0.000228333 4.63412e-13
0.0005 0.000961167 0.000228333 4.21284e-13
0.0005 0.00096574 0.000228333 3.82985e-13
0.0005 0.000969897 0.000228333 3.48168e-13
0.0005 0.000973676 0.000228333 3.16517e-13
0.0005 0.000977112 0.000228333 2.87743e-13
0.0005 0.000980235 0.000228333 2.61584e-13
0.0005 0.000983075 0.000228333 2.37804e-13
0.0005 0.000985656 0.000228333 2.16185e-13
0.0005 0.000988002 0.000228333 1.96532e-13
0.0005 0.000990136 0.000228333 1.78665e-13
0.0005 0.000992075 0.000228333 1.62423e-13
0.0005 0.000993838 0.000228333 1.47657e-13
0.0005 0.000995441 0.000228333 1.34234e-13
0.0005 0.000996898 0.000228333 1.22031e-13
0.0005 0.000998222 0.000228333 1.10937e-13
0.0005 0.000999427 0.000228333 1.00852e-13
0.0005 4.59758e-05 0.000314917 7.83696e-12
0.0005 0.000133748 0.000314917 7.12451e-12
0.0005 0.000213541 0.000314917 6.47683e-12
0.0005 0.000286079 0.000314917 5.88802e-12
0.0005 0.000352024 0.000314917 5.35275e-12
0.0005 0.000411973 0.000314917 4.86613e-12
0.0005 0.000466473 0.000314917 4.42376e-12
0.0005 0.000516018 0.000314917 4.0216e-12
0.0005 0.000561059 0.000314917 3.656e-12
0.0005 0.000602005 0.000314917 3.32364e-12
0.0005 0.000639229 0.000314917 3.02149e-12
0.0005 0.000673069 0.000314917 2.74681e-12
0.0005 0.000703833 0.000314917 2.4971e-12
0.0005 0.000731799 0.000314917 2.27009e-12
0.0005 0.000757224 0.000314917 2.06372e-12
0.0005 0.000780337 0.000314917 1.87611e-12
0.0005 0.000801349 0.000314917 1.70555e-12
0.0005 0.000820451 0.000314917 1.5505e-12
0.0005 0.000837816 0.000314917 1.40955e-12
0.0005 0.000853602 0.000314917 1.28141e-12
0.0005 0.000867954 0.000314917 1.16491e-12
0.0005 0.000881001 0.000314917 1.05901e-12
0.0005 0.000892861 0.000314917 9.62739e-13
0.0005 0.000903644 0.000314917 8.75217e-13
0.0005 0.000913446 0.000314917 7.95652e-13
0.0005 0.000922357 0.000314917 7.2332e-13
0.0005 0.000930458 0.000314917 6.57564e-13
0.0005 0.000937823 0.000314917 5.97785e-13
0.0005 0.000944518 0.000314917 5.43441e-13
0.0005 0.000950604 0.000314917 4.94037e-13
0.0005 0.000956137 0.000314917 4.49125e-13
0.0005 0.000961167 0.000314917 4.08295e-13
0.0005 0.00096574 0.000314917 3.71177e-13
0.0005 0.000969897 0.000314917 3.37434e-13
0.0005 0.000973676 0.000314917 3.06758e-13
0.0005 0.000977112 0.000314917 2.78871e-13
0.0005 0.000980235 0.000314917 2.53519e-13
0.0005 0.000983075 0.000314917 2.30472e-13
0.0005 0.000985656 0.000314917 2.0952e-13
0.0005 0.000988002 0.000314917 1.90473e-13
0.0005 0.000990136 0.000314917 1.73157e-13
0.0005 0.000992075 0.000314917 1.57415e-13
0.0005 0.000993838 0.000314917 1.43105e-13
0.0005 0.000995441 0.000314917 1.30095e-13
0.0005 0.000996898 0.000314917 1.18269e-13
0.0005 0.000998222 0.000314917 1.07517e-13
0.0005 0.000999427 0.000314917 9.77426e-14
0.0005 4.59758e-05 0.000398833 7.59534e-12
0.0005 0.000133748 0.000398833 6.90485e-12
0.0005 0.000213541 0.000398833 6.27714e-12
0.0005 0.000286079 0.000398833 5.70649e-12
0.0005 0.000352024 0.000398833 5.18772e-12
0.0005 0.000411973 0.000398833 4.71611e-12
0.0005 0.000466473 0.000398833 4.28737e-12
0.0005 0.000516018 0.000398833 3.89761e-12
0.0005 0.000561059 0.000398833 3.54328e-12
0.0005 0.000602005 0.000398833 3.22116e-12
0.0005 0.000639229 0.000398833 2.92833e-12
0.0005 0.000673069 0.000398833 2.66212e-12
0.0005 0.000703833 0.000398833 2.42011e-12
0.0005 0.000731799 0.000398833 2.2001e-12
0.0005 0.000757224 0.000398833 2.00009e-12
0.0005 0.000780337 0.000398833 1.81826e-12
0.0005 0.000801349 0.000398833 1.65297e-12
0.0005 0.000820451 0.000398833 1.5027e-12
0.0005 0.000837816 0.000398833 1.36609e-12
0.0005 0.000853602 0.000398833 1.2419e-12
0.0005 0.000867954 0.000398833 1.129e-12
0.0005 0.000881001 0.000398833 1.02636e-12
0.0005 0.000892861 0.000398833 9.33057e-13
0.0005 0.000903644 0.000398833 8.48233e-13
0.0005 0.000913446 0.000398833 7.71121e-13
0.0005 0.000922357 0.000398833 7.01019e-13
0.0005 0.000930458 0.000398833 6.3729e-13
0.0005 0.000937823 0.000398833 5.79355e-13
0.0005 0.000944518 0.000398833 5.26686e-13
0.0005 0.000950604 0.000398833 4.78806e-13
0.0005 0.000956137 0.000398833 4.35278e-13
0.0005 0.000961167 0.000398833 3.95707e-13
0.0005 0.00096574 0.000398833 3.59734e-13
0.0005 0.000969897 0.000398833 3.27031e-13
0.0005 0.000973676 0.000398833 2.97301e-13
0.0005 0.000977112 0.000398833 2.70273e-13
0.0005 0.000980235 0.000398833 2.45703e-13
0.0005 0.000983075 0.000398833 2.23366e-13
0.0005 0.000985656 0.000398833 2.0306e-13
0.0005 0.000988002 0.000398833 1.846e-13
0.0005 0.000990136 0.000398833 1.67818e-13
0.0005 0.000992075 0.000398833 1.52562e-13
0.0005 0.000993838 0.000398833 1.38693e-13
0.0005 0.000995441 0.000398833 1.26084e-13
0.0005 0.000996898 0.000398833 1.14622e-13
0.0005 0.000998222 0.000398833 1.04202e-13
0.0005 0.000999427 0.000398833 9.47291e-14
0.0005 4.59758e-05 0.000480161 7.36117e-12
0.0005 0.000133748 0.000480161 6.69197e-12
0.0005 0.000213541 0.000480161 6.08361e-12
0.0005 0.000286079 0.000480161 5.53055e-12
0.0005 0.000352024 0.000480161 5.02778e-12
0.0005 0.000411973 0.000480161 4.57071e-12
0.0005 0.000466473 0.000480161 4.15519e-12
0.0005 0.000516018 0.000480161 3.77744e-12
0.0005 0.000561059 0.000480161 3.43404e-12
0.0005 0.000602005 0.000480161 3.12185e-12
0.0005 0.000639229 0.000480161 2.83805e-12
0.0005 0.000673069 0.000480161 2.58004e-12
0.0005 0.000703833 0.000480161 2.34549e-12
0.0005 0.000731799 0.000480161 2.13227e-12
0.0005 0.000757224 0.000480161 1.93843e-12
0.0005 0.000780337 0.000480161 1.7622e-12
0.0005 0.000801349 0.000480161 1.602e-12
0.0005 0.000820451 0.000480161 1.45637e-12
0.0005 0.000837816 0.000480161 1.32397e-12
0.0005 0.000853602 0.000480161 1.20361e-12
0.0005 0.000867954 0.000480161 1.09419e-12
0.0005 0.000881001 0.000480161 9.94719e-13
0.0005 0.000892861 0.000480161 9.0429e-13
0.0005 0.000903644 0.000480161 8.22082e-13
0.0005 0.000913446 0.000480161 7.47347e-13
0.0005 0.000922357 0.000480161 6.79406e-13
0.0005 0.000930458 0.000480161 6.17642e-13
0.0005 0.000937823 0.000480161 5.61493e-13
0.0005 0.000944518 0.000480161 5.10448e-13
0.0005 0.000950604 0.000480161 4.64044e-13
0.0005 0.000956137 0.000480161 4.21858e-13
0.0005 0.000961167 0.000480161 3.83507e-13
0.0005 0.00096574 0.000480161 3.48643e-13
0.0005 0.000969897 0.000480161 3.16948e-13
0.0005 0.000973676 0.000480161 2.88135e-13
0.0005 0.000977112 0.000480161 2.61941e-13
0.0005 0.000980235 0.000480161 2.38128e-13
0.0005 0.000983075 0.000480161 2.1648e-13
0.0005 0.000985656 0.000480161 1.968e-13
0.0005 0.000988002 0.000480161 1.78909e-13
0.0005 0.000990136 0.000480161 1.62644e-13
0.0005 0.000992075 0.000480161 1.47859e-13
0.0005 0.000993838 0.000480161 1.34417e-13
0.0005 0.000995441 0.000480161 1.22197e-13
0.0005 0.000996898 0.000480161 1.11088e-13
0.0005 0.000998222 0.000480161 1.00989e-13
0.0005 0.000999427 0.000480161 9.18086e-14
0.0005 4.59758e-05 0.000558981 7.13422e-12
0.0005 0.000133748 0.000558981 6.48565e-12
0.0005 0.000213541 0.000558981 5.89605e-12
0.0005 0.000286079 0.000558981 5.36004e-12
0.0005 0.000352024 0.000558981 4.87276e-12
0.0005 0.000411973 0.000558981 4.42979e-12
0.0005 0.000466473 0.000558981 4.02708e-12
0.0005 0.000516018 0.000558981 3.66098e-12
0.0005 0.000561059 0.000558981 3.32816e-12
0.0005 0.000602005 0.000558981 3.0256e-12
0.0005 0.000639229 0.000558981 2.75055e-12
0.0005 0.000673069 0.000558981 2.5005e-12
0.0005 0.000703833 0.000558981 2.27318e-12
0.0005 0.000731799 0.000558981 2.06653e-12
0.0005 0.000757224 0.000558981 1.87866e-12
0.0005 0.000780337 0.000558981 1.70787e-12
0.0005 0.000801349 0.000558981 1.55261e-12
0.0005 0.000820451 0.000558981 1.41147e-12
0.0005 0.000837816 0.000558981 1.28315e-12
0.0005 0.000853602 0.000558981 1.1665e-12
0.0005 0.000867954 0.000558981 1.06046e-12
0.0005 0.000881001 0.000558981 9.64051e-13
0.0005 0.000892861 0.000558981 8.7641e-13
0.0005 0.000903644 0.000558981 7.96736e-13
0.0005 0.000913446 0.000558981 7.24305e-13
0.0005 0.000922357 0.000558981 6.5846e-13
0.0005 0.000930458 0.000558981 5.986e-13
0.0005 0.000937823 0.000558981 5.44181e-13
0.0005 0.000944518 0.000558981 4.9471e-13
0.0005 0.000950604 0.000558981 4.49737e-13
0.0005 0.000956137 0.000558981 4.08852e-13
0.0005 0.000961167 0.000558981 3.71683e-13
0.0005 0.00096574 0.000558981 3.37894e-13
0.0005 0.000969897 0.000558981 3.07176e-13
0.0005 0.000973676 0.000558981 2.79251e-13
0.0005 0.000977112 0.000558981 2.53865e-13
0.0005 0.000980235 0.000558981 2.30786e-13
0.0005 0.000983075 0.000558981 2.09805e-13
0.0005 0.000985656 0.000558981 1.90732e-13
0.0005 0.000988002 0.000558981 1.73393e-13
0.0005 0.000990136 0.000558981 1.5763e-13
0.0005 0.000992075 0.000558981 1.433e-13
0.0005 0.000993838 0.000558981 1.30273e-13
0.0005 0.000995441 0.000558981 1.1843e-13
0.0005 0.000996898 0.000558981 1.07663e-13
0.0005 0.000998222 0.000558981 9.78758e-14
0.0005 0.000999427 0.000558981 8.8978e-14
0.0005 4.59758e-05 0.000635372 6.91426e-12
0.0005 0.000133748 0.000635372 6.28569e-12
0.0005 0.000213541 0.000635372 5.71427e-12
0.0005 0.000286079 0.000635372 5.19479e-12
0.0005 0.000352024 0.000635372 4.72253e-12
0.0005 0.000411973 0.000635372 4.29321e-12
0.0005 0.000466473 0.000635372 3.90292e-12
0.0005 0.000516018 0.000635372 3.54811e-12
0.0005 0.000561059 0.000635372 3.22555e-12
0.0005 0.000602005 0.000635372 2.93232e-12
0.0005 0.000639229 0.000635372 2.66575e-12
0.0005 0.000673069 0.000635372 2.42341e-12
0.0005 0.000703833 0.000635372 2.2031e-12
0.0005 0.000731799 0.000635372 2.00282e-12
0.0005 0.000757224 0.000635372 1.82074e-12
0.0005 0.000780337 0.000635372 1.65522e-12
0.0005 0.000801349 0.000635372 1.50474e-12
0.0005 0.000820451 0.000635372 1.36795e-12
0.0005 0.000837816 0.000635372 1.24359e-12
0.0005 0.000853602 0.000635372 1.13054e-12
0.0005 0.000867954 0.000635372 1.02776e-12
0.0005 0.000881001 0.000635372 9.34328e-13
0.0005 0.000892861 0.000635372 8.49389e-13
0.0005 0.000903644 0.000635372 7.72172e-13
0.0005 0.000913446 0.000635372 7.01974e-13
0.0005 0.000922357 0.000635372 6.38159e-13
0.0005 0.000930458 0.000635372 5.80144e-13
0.0005 0.000937823 0.000635372 5.27404e-13
0.0005 0.000944518 0.000635372 4.79458e-13
0.0005 0.000950604 0.000635372 4.35871e-13
0.0005 0.000956137 0.000635372 3.96246e-13
0.0005 0.000961167 0.000635372 3.60224e-13
0.0005 0.00096574 0.000635372 3.27476e-13
0.0005 0.000969897 0.000635372 2.97706e-13
0.0005 0.000973676 0.000635372 2.70642e-13
0.0005 0.000977112 0.000635372 2.46038e-13
0.0005 0.000980235 0.000635372 2.23671e-13
0.0005 0.000983075 0.000635372 2.03337e-13
0.0005 0.000985656 0.000635372 1.84852e-13
0.0005 0.000988002 0.000635372 1.68047e-13
0.0005 0.000990136 0.000635372 1.5277e-13
0.0005 0.000992075 0.000635372 1.38882e-13
0.0005 0.000993838 0.000635372 1.26256e-13
0.0005 0.000995441 0.000635372 1.14778e-13
0.0005 0.000996898 0.000635372 1.04344e-13
0.0005 0.000998222 0.000635372 9.48582e-14
0.0005 0.000999427 0.000635372 8.62347e-14
0.0005 4.59758e-05 0.000709407 6.70109e-12
0.0005 0.000133748 0.000709407 6.0919e-12
0.0005 0.000213541 0.000709407 5.53809e-12
0.0005 0.000286079 0.000709407 5.03463e-12
0.0005 0.000352024 0.000709407 4.57693e-12
0.0005 0.000411973 0.000709407 4.16085e-12
0.0005 0.000466473 0.000709407 3.78259e-12
0.0005 0.000516018 0.000709407 3.43872e-12
0.0005 0.000561059 0.000709407 3.12611e-12
0.0005 0.000602005 0.000709407 2.84192e-12
0.0005 0.000639229 0.000709407 2.58356e-12
0.0005 0.000673069 0.000709407 2.34869e-12
0.0005 0.000703833 0.000709407 2.13517e-12
0.0005 0.000731799 0.000709407 1.94107e-12
0.0005 0.000757224 0.000709407 1.76461e-12
0.0005 0.000780337 0.000709407 1.60419e-12
0.0005 0.000801349 0.000709407 1.45835e-12
0.0005 0.000820451 0.000709407 1.32577e-12
0.0005 0.000837816 0.000709407 1.20525e-12
0.0005 0.000853602 0.000709407 1.09568e-12
0.0005 0.000867954 0.000709407 9.96074e-13
0.0005 0.000881001 0.000709407 9.05522e-13
0.0005 0.000892861 0.000709407 8.23202e-13
0.0005 0.000903644 0.000709407 7.48365e-13
0.0005 0.000913446 0.000709407 6.80332e-13
0.0005 0.000922357 0.000709407 6.18484e-13
0.0005 0.000930458 0.000709407 5.62258e-13
0.0005 0.000937823 0.000709407 5.11143e-13
0.0005 0.000944518 0.000709407 4.64676e-13
0.0005 0.000950604 0.000709407 4.22433e-13
0.0005 0.000956137 0.000709407 3.8403e-13
0.0005 0.000961167 0.000709407 3.49118e-13
0.0005 0.00096574 0.000709407 3.1738e-13
0.0005 0.000969897 0.000709407 2.88527e-13
0.0005 0.000973676 0.000709407 2.62297e-13
0.0005 0.000977112 0.000709407 2.38452e-13
0.0005 0.000980235 0.000709407 2.16775e-13
0.0005 0.000983075 0.000709407 1.97068e-13
0.0005 0.000985656 0.000709407 1.79153e-13
0.0005 0.000988002 0.000709407 1.62866e-13
0.0005 0.000990136 0.000709407 1.4806e-13
0.0005 0.000992075 0.000709407 1.346e-13
0.0005 0.000993838 0.000709407 1.22364e-13
0.0005 0.000995441 0.000709407 1.1124e-13
0.0005 0.000996898 0.000709407 1.01127e-13
0.0005 0.000998222 0.000709407 9.19336e-14
0.0005 0.000999427 0.000709407 8.3576e-14
0.0005 4.59758e-05 0.00078116 6.49449e-12
0.0005 0.000133748 0.00078116 5.90408e-12
0.0005 0.000213541 0.00078116 5.36734e-12
0.0005 0.000286079 0.00078116 4.8794e-12
0.0005 0.000352024 0.00078116 4.43582e-12
0.0005 0.000411973 0.00078116 4.03257e-12
0.0005 0.000466473 0.00078116 3.66597e-12
0.0005 0.000516018 0.00078116 3.3327e-12
0.0005 0.000561059 0.00078116 3.02973e-12
0.0005 0.000602005 0.00078116 2.7543e-12
0.0005 0.000639229 0.00078116 2.50391e-12
0.0005 0.000673069 0.00078116 2.27628e-12
0.0005 0.000703833 0.00078116 2.06934e-12
0.0005 0.000731799 0.00078116 1.88122e-12
0.0005 0.000757224 0.00078116 1.7102e-12
0.0005 0.000780337 0.00078116 1.55473e-12
0.0005 0.000801349 0.00078116 1.41339e-12
0.0005 0.000820451 0.00078116 1.2849e-12
0.0005 0.000837816 0.00078116 1.16809e-12
0.0005 0.000853602 0.00078116 1.0619e-12
0.0005 0.000867954 0.00078116 9.65364e-13
0.0005 0.000881001 0.00078116 8.77604e-13
0.0005 0.000892861 0.00078116 7.97822e-13
0.0005 0.000903644 0.00078116 7.25292e-13
0.0005 0.000913446 0.00078116 6.59357e-13
0.0005 0.000922357 0.00078116 5.99415e-13
0.0005 0.000930458 0.00078116 5.44923e-13
0.0005 0.000937823 0.00078116 4.95384e-13
0.0005 0.000944518 0.00078116 4.50349e-13
0.0005 0.000950604 0.00078116 4.09409e-13
0.0005 0.000956137 0.00078116 3.7219e-13
0.0005 0.000961167 0.00078116 3.38354e-13
0.0005 0.00096574 0.00078116 3.07595e-13
0.0005 0.000969897 0.00078116 2.79632e-13
0.0005 0.000973676 0.00078116 2.54211e-13
0.0005 0.000977112 0.00078116 2.311e-13
0.0005 0.000980235 0.00078116 2.10091e-13
0.0005 0.000983075 0.00078116 1.90992e-13
0.0005 0.000985656 0.00078116 1.73629e-13
0.0005 0.000988002 0.00078116 1.57845e-13
0.0005 0.000990136 0.00078116 1.43495e-13
0.0005 0.000992075 0.00078116 1.3045e-13
0.0005 0.000993838 0.00078116 1.18591e-13
0.0005 0.000995441 0.00078116 1.0781e-13
0.0005 0.000996898 0.00078116 9.80092e-14
0.0005 0.000998222 0.00078116 8.90992e-14
0.0005 0.000999427 0.00078116 8.09993e-14
0.0005 4.59758e-05 0.000850701 6.29426e-12
0.0005 0.000133748 0.000850701 5.72205e-12
0.0005 0.000213541 0.000850701 5.20186e-12
0.0005 0.000286079 0.000850701 4.72897e-12
0.0005 0.000352024 0.000850701 4.29906e-12
0.0005 0.000411973 0.000850701 3.90824e-12
0.0005 0.000466473 0.000850701 3.55294e-12
0.0005 0.000516018 0.000850701 3.22995e-12
0.0005 0.000561059 0.000850701 2.93632e-12
0.0005 0.000602005 0.000850701 2.66938e-12
0.0005 0.000639229 0.000850701 2.42671e-12
0.0005 0.000673069 0.000850701 2.2061e-12
0.0005 0.000703833 0.000850701 2.00554e-12
0.0005 0.000731799 0.000850701 1.82322e-12
0.0005 0.000757224 0.000850701 1.65747e-12
0.0005 0.000780337 0.000850701 1.50679e-12
0.0005 0.000801349 0.000850701 1.36981e-12
0.0005 0.000820451 0.000850701 1.24528e-12
0.0005 0.000837816 0.000850701 1.13208e-12
0.0005 0.000853602 0.000850701 1.02916e-12
0.0005 0.000867954 0.000850701 9.35601e-13
0.0005 0.000881001 0.000850701 8.50546e-13
0.0005 0.000892861 0.000850701 7.73224e-13
0.0005 0.000903644 0.000850701 7.02931e-13
0.0005 0.000913446 0.000850701 6.39028e-13
0.0005 0.000922357 0.000850701 5.80935e-13
0.0005 0.000930458 0.000850701 5.28122e-13
0.0005 0.000937823 0.000850701 4.80111e-13
0.0005 0.000944518 0.000850701 4.36465e-13
0.0005 0.000950604 0.000850701 3.96786e-13
0.0005 0.000956137 0.000850701 3.60715e-13
0.0005 0.000961167 0.000850701 3.27922e-13
0.0005 0.00096574 0.000850701 2.98111e-13
0.0005 0.000969897 0.000850701 2.7101e-13
0.0005 0.000973676 0.000850701 2.46373e-13
0.0005 0.000977112 0.000850701 2.23975e-13
0.0005 0.000980235 0.000850701 2.03614e-13
0.0005 0.000983075 0.000850701 1.85104e-13
0.0005 0.000985656 0.000850701 1.68276e-13
0.0005 0.000988002 0.000850701 1.52978e-13
0.0005 0.000990136 0.000850701 1.39071e-13
0.0005 0.000992075 0.000850701 1.26428e-13
0.0005 0.000993838 0.000850701 1.14935e-13
0.0005 0.000995441 0.000850701 1.04486e-13
0.0005 0.000996898 0.000850701 9.49875e-14
0.0005 0.000998222 0.000850701 8.63522e-14
0.0005 0.000999427 0.000850701 7.8502e-14
0.0005 4.59758e-05 0.000918097 6.1002e-12
0.0005 0.000133748 0.000918097 5.54563e-12
0.0005 0.000213541 0.000918097 5.04149e-12
0.0005 0.000286079 0.000918097 4.58317e-12
0.0005 0.000352024 0.000918097 4.16652e-12
0.0005 0.000411973 0.000918097 3.78774e-12
0.0005 0.000466473 0.000918097 3.4434e-12
0.0005 0.000516018 0.000918097 3.13037e-12
0.0005 0.000561059 0.000918097 2.84579e-12
0.0005 0.000602005 0.000918097 2.58708e-12
0.0005 0.000639229 0.000918097 2.35189e-12
0.0005 0.000673069 0.000918097 2.13808e-12
0.0005 0.000703833 0.000918097 1.94371e-12
0.0005 0.000731799 0.000918097 1.76701e-12
0.0005 0.000757224 0.000918097 1.60637e-12
0.0005 0.000780337 0.000918097 1.46034e-12
0.0005 0.000801349 0.000918097 1.32758e-12
0.0005 0.000820451 0.000918097 1.20689e-12
0.0005 0.000837816 0.000918097 1.09717e-12
0.0005 0.000853602 0.000918097 9.97431e-13
0.0005 0.000867954 0.000918097 9.06756e-13
0.0005 0.000881001 0.000918097 8.24323e-13
0.0005 0.000892861 0.000918097 7.49385e-13
0.0005 0.000903644 0.000918097 6.81259e-13
0.0005 0.000913446 0.000918097 6.19326e-13
0.0005 0.000922357 0.000918097 5.63024e-13
0.0005 0.000930458 0.000918097 5.1184e-13
0.0005 0.000937823 0.000918097 4.65309e-13
0.0005 0.000944518 0.000918097 4.23008e-13
0.0005 0.000950604 0.000918097 3.84553e-13
0.0005 0.000956137 0.000918097 3.49594e-13
0.0005 0.000961167 0.000918097 3.17812e-13
0.0005 0.00096574 0.000918097 2.8892e-13
0.0005 0.000969897 0.000918097 2.62655e-13
0.0005 0.000973676 0.000918097 2.38777e-13
0.0005 0.000977112 0.000918097 2.1707e-13
0.0005 0.000980235 0.000918097 1.97336e-13
0.0005 0.000983075 0.000918097 1.79397e-13
0.0005 0.000985656 0.000918097 1.63088e-13
0.0005 0.000988002 0.000918097 1.48262e-13
0.0005 0.000990136 0.000918097 1.34783e-13
0.0005 0.000992075 0.000918097 1.2253e-13
0.0005 0.000993838 0.000918097 1.11391e-13
0.0005 0.000995441 0.000918097 1.01265e-13
0.0005 0.000996898 0.000918097 9.20589e-14
0.0005 0.000998222 0.000918097 8.36899e-14
0.0005 0.000999427 0.000918097 7.60817e-14
0.0005 4.59758e-05 0.000983416 5.91212e-12
0.0005 0.000133748 0.000983416 5.37466e-12
0.0005 0.000213541 0.000983416 4.88605e-12
0.0005 0.000286079 0.000983416 4.44187e-12
0.0005 0.000352024 0.000983416 4.03806e-12
0.0005 0.000411973 0.000983416 3.67096e-12
0.0005 0.000466473 0.000983416 3.33724e-12
0.0005 0.000516018 0.000983416 3.03385e-12
0.0005 0.000561059 0.000983416 2.75805e-12
0.0005 0.000602005 0.000983416 2.50732e-12
0.0005 0.000639229 0.000983416 2.27938e-12
0.0005 0.000673069 0.000983416 2.07216e-12
0.0005 0.000703833 0.000983416 1.88378e-12
0.0005 0.000731799 0.000983416 1.71253e-12
0.0005 0.000757224 0.000983416 1.55685e-12
0.0005 0.000780337 0.000983416 1.41532e-12
0.0005 0.000801349 0.000983416 1.28665e-12
0.0005 0.000820451 0.000983416 1.16968e-12
0.0005 0.000837816 0.000983416 1.06335e-12
0.0005 0.000853602 0.000983416 9.66679e-13
0.0005 0.000867954 0.000983416 8.78799e-13
0.0005 0.000881001 0.000983416 7.98909e-13
0.0005 0.000892861 0.000983416 7.26281e-13
0.0005 0.000903644 0.000983416 6.60255e-13
0.0005 0.000913446 0.000983416 6.00232e-13
0.0005 0.000922357 0.000983416 5.45665e-13
0.0005 0.000930458 0.000983416 4.96059e-13
0.0005 0.000937823 0.000983416 4.50963e-13
0.0005 0.000944518 0.000983416 4.09966e-13
0.0005 0.000950604 0.000983416 3.72697e-13
0.0005 0.000956137 0.000983416 3.38815e-13
0.0005 0.000961167 0.000983416 3.08014e-13
0.0005 0.00096574 0.000983416 2.80013e-13
0.0005 0.000969897 0.000983416 2.54557e-13
0.0005 0.000973676 0.000983416 2.31415e-13
0.0005 0.000977112 0.000983416 2.10378e-13
0.0005 0.000980235 0.000983416 1.91252e-13
0.0005 0.000983075 0.000983416 1.73866e-13
0.0005 0.000985656 0.000983416 1.5806e-13
0.0005 0.000988002 0.000983416 1.43691e-13
0.0005 0.000990136 0.000983416 1.30628e-13
0.0005 0.000992075 0.000983416 1.18753e-13
0.0005 0.000993838 0.000983416 1.07957e-13
0.0005 0.000995441 0.000983416 9.81427e-14
0.0005 0.000996898 0.000983416 8.92206e-14
0.0005 0.000998222 0.000983416 8.11097e-14
0.0005 0.000999427 0.000983416 7.37361e-14
0.0005 4.59758e-05 0.00104672 5.72985e-12
0.0005 0.000133748 0.00104672 5.20895e-12
0.0005 0.000213541 0.00104672 4.73541e-12
0.0005 0.000286079 0.00104672 4.30492e-12
0.0005 0.000352024 0.00104672 3.91356e-12
0.0005 0.000411973 0.00104672 3.55778e-12
0.0005 0.000466473 0.00104672 3.23435e-12
0.0005 0.000516018 0.00104672 2.94032e-12
0.0005 0.000561059 0.00104672 2.67302e-12
0.0005 0.000602005 0.00104672 2.43001e-12
0.0005 0.000639229 0.00104672 2.2091e-12
0.0005 0.000673069 0.00104672 2.00828e-12
0.0005 0.000703833 0.00104672 1.82571e-12
0.0005 0.000731799 0.00104672 1.65973e-12
0.0005 0.000757224 0.00104672 1.50885e-12
0.0005 0.000780337 0.00104672 1.37168e-12
0.0005 0.000801349 0.00104672 1.24698e-12
0.0005 0.000820451 0.00104672 1.13362e-12
0.0005 0.000837816 0.00104672 1.03056e-12
0.0005 0.000853602 0.00104672 9.36876e-13
0.0005 0.000867954 0.00104672 8.51705e-13
0.0005 0.000881001 0.00104672 7.74278e-13
0.0005 0.000892861 0.00104672 7.03889e-13
0.0005 0.000903644 0.00104672 6.39899e-13
0.0005 0.000913446 0.00104672 5.81726e-13
0.0005 0.000922357 0.00104672 5.28842e-13
0.0005 0.000930458 0.00104672 4.80765e-13
0.0005 0.000937823 0.00104672 4.37059e-13
0.0005 0.000944518 0.00104672 3.97327e-13
0.0005 0.000950604 0.00104672 3.61206e-13
0.0005 0.000956137 0.00104672 3.28369e-13
0.0005 0.000961167 0.00104672 2.98518e-13
0.0005 0.00096574 0.00104672 2.7138e-13
0.0005 0.000969897 0.00104672 2.46709e-13
0.0005 0.000973676 0.00104672 2.24281e-13
0.0005 0.000977112 0.00104672 2.03891e-13
0.0005 0.000980235 0.00104672 1.85356e-13
0.0005 0.000983075 0.00104672 1.68505e-13
0.0005 0.000985656 0.00104672 1.53187e-13
0.0005 0.000988002 0.00104672 1.39261e-13
0.0005 0.000990136 0.00104672 1.26601e-13
0.0005 0.000992075 0.00104672 1.15091e-13
0.0005 0.000993838 0.00104672 1.04629e-13
0.0005 0.000995441 0.00104672 9.51169e-14
0.0005 0.000996898 0.00104672 8.64699e-14
0.0005 0.000998222 0.00104672 7.8609e-14
0.0005 0.000999427 0.00104672 7.14627e-14
0.0005 4.59758e-05 0.00110807 5.55319e-12
0.0005 0.000133748 0.00110807 5.04836e-12
0.0005 0.000213541 0.00110807 4.58941e-12
0.0005 0.000286079 0.00110807 4.17219e-12
0.0005 0.000352024 0.00110807 3.7929e-12
0.0005 0.000411973 0.00110807 3.44809e-12
0.0005 0.000466473 0.00110807 3.13463e-12
0.0005 0.000516018 0.00110807 2.84966e-12
0.0005 0.000561059 0.00110807 2.5906e-12
0.0005 0.000602005 0.00110807 2.35509e-12
0.0005 0.000639229 0.00110807 2.141e-12
0.0005 0.000673069 0.00110807 1.94636e-12
0.0005 0.000703833 0.00110807 1.76942e-12
0.0005 0.000731799 0.00110807 1.60856e-12
0.0005 0.000757224 0.00110807 1.46233e-12
0.0005 0.000780337 0.00110807 1.32939e-12
0.0005 0.000801349 0.00110807 1.20854e-12
0.0005 0.000820451 0.00110807 1.09867e-12
0.0005 0.000837816 0.00110807 9.9879e-13
0.0005 0.000853602 0.00110807 9.07991e-13
0.0005 0.000867954 0.00110807 8.25446e-13
0.0005 0.000881001 0.00110807 7.50406e-13
0.0005 0.000892861 0.00110807 6.82187e-13
0.0005 0.000903644 0.00110807 6.2017e-13
0.0005 0.000913446 0.00110807 5.63791e-13
0.0005 0.000922357 0.00110807 5.12537e-13
0.0005 0.000930458 0.00110807 4.65943e-13
0.0005 0.000937823 0.00110807 4.23585e-13
0.0005 0.000944518 0.00110807 3.85077e-13
0.0005 0.000950604 0.00110807 3.5007e-13
0.0005 0.000956137 0.00110807 3.18245e-13
0.0005 0.000961167 0.00110807 2.89314e-13
0.0005 0.00096574 0.00110807 2.63013e-13
0.0005 0.000969897 0.00110807 2.39102e-13
0.0005 0.000973676 0.00110807 2.17366e-13
0.0005 0.000977112 0.00110807 1.97605e-13
0.0005 0.000980235 0.00110807 1.79641e-13
0.0005 0.000983075 0.00110807 1.6331e-13
0.0005 0.000985656 0.00110807 1.48464e-13
0.0005 0.000988002 0.00110807 1.34967e-13
0.0005 0.000990136 0.00110807 1.22697e-13
0.0005 0.000992075 0.00110807 1.11543e-13
0.0005 0.000993838 0.00110807 1.01403e-13
0.0005 0.000995441 0.00110807 9.21843e-14