9.99999999996687e-07 	1.00593833258374 	1.38777878078145e-17 	-0.00596564704255533 	0.000234718906869637 	1305.87336215693 	0.000568896145361081 	0
9.99999999996688e-07 	1.01006700077429 	1.38777878078145e-17 	-0.00593649263729616 	0.00102211375778437 	297.450498773739 	0.00456933311437 	0
9.99999999996688e-07 	1.0143469141712 	1.38777878078145e-17 	-0.00586893841758516 	0.00277248236893158 	133.150633304559 	0.0159304421569304 	0
9.99999999996688e-07 	1.01878361332929 	1.38777878078145e-17 	-0.00573252064158911 	0.00531785947531578 	83.3003728062072 	0.0311114201966184 	0
9.99999999996688e-07 	1.02338284177015 	1.38777878078145e-17 	-0.00550207519964744 	0.00802215372216021 	59.5265493688032 	0.0398345349429504 	0
9.99999999996688e-07 	1.02815055341735 	1.04083408558608e-17 	-0.00517010199473312 	0.0104534548267815 	44.0768865398392 	0.0379897419858823 	0
9.99999999996688e-07 	1.03309292030413 	3.46944695195361e-18 	-0.00474287595490045 	0.0125923872832049 	32.9874115119742 	0.0300694891652769 	0
9.99999999996688e-07 	1.03821634056339 	3.46944695195361e-18 	-0.00423046758419138 	0.0145523728094598 	25.0368201838783 	0.0214187607391425 	0
9.99999999996688e-07 	1.04352744671036 	3.46944695195361e-18 	-0.00364243300278151 	0.0164004777405563 	19.4212059648594 	0.0145810534663814 	0
9.99999999996688e-07 	1.04903311422874 	0 	-0.00298711997992141 	0.0181495470882479 	15.4589997243955 	0.00992616370230106 	0
9.99999999996688e-07 	1.05474047047132 	-3.46944695195361e-18 	-0.00227103800012973 	0.0197928809610458 	12.6240215579633 	0.00696170594484166 	0
9.99999999996688e-07 	1.06065690388671 	-3.46944695195361e-18 	-0.00149851209357088 	0.0213250544650385 	10.548880248999 	0.00510641245928397 	0
9.99999999996688e-07 	1.06679007358401 	0 	-0.000672030028666667 	0.0227467826070315 	8.99045556433058 	0.00393285882464941 	0
9.99999999996688e-07 	1.07314791924792 	0 	0.000207138140179723 	0.0240634030902506 	7.79061129409885 	0.00317201189412378 	0
9.99999999996688e-07 	1.07973867141705 	-3.46944695195361e-18 	0.00113844561199547 	0.0252825041472103 	6.84602287051968 	0.00266347619048557 	0
9.99999999996687e-07 	1.08657086213875 	-1.04083408558608e-17 	0.00212177017805095 	0.0264122681028278 	6.08806826370264 	0.00231245958940135 	0
9.99999999996687e-07 	1.09365333601424 	-1.38777878078145e-17 	0.00315724193127965 	0.0274605723051752 	5.47013424741914 	0.00206223017075882 	0
9.99999999996687e-07 	1.10099526164836 	-1.38777878078145e-17 	0.00424513602876799 	0.0284345795178931 	4.95973320982309 	0.00187807763748511 	0
9.99999999996687e-07 	1.10860614351883 	-2.08166817117217e-17 	0.00538580273340737 	0.0293405929643731 	4.53360375622582 	0.00173821967315549 	0
9.99999999996687e-07 	1.11649583428022 	-2.77555756156289e-17 	0.00657962475663366 	0.0301840395634973 	4.17464019843419 	0.00162863679240789 	0
9.99999999996687e-07 	1.12467454751866 	-2.42861286636753e-17 	0.00782699610223931 	0.0309695089279677 	3.8699448108693 	0.00154009657245643 	0
9.99999999996687e-07 	1.13315287097387 	-2.42861286636753e-17 	0.00912831491830265 	0.0317008129266098 	3.60957370879652 	0.00146640503425024 	0
9.99999999996687e-07 	1.1419417802455 	-2.77555756156289e-17 	0.0104839805306554 	0.0323810501494409 	3.38571450216795 	0.00140335522629843 	0
9.99999999996687e-07 	1.15105265300151 	-2.42861286636753e-17 	0.0118943849322801 	0.0330126691115007 	3.19213504670001 	0.00134807844886142 	0
9.99999999996687e-07 	1.1604972837072 	-2.08166817117217e-17 	0.0133598924340373 	0.0335975282455399 	3.02380426062657 	0.0012986322706393 	0
9.99999999996687e-07 	1.17028789889366 	-1.73472347597681e-17 	0.0148808066322303 	0.0341369523383663 	2.87662374813182 	0.00125373082771808 	0
9.99999999996687e-07 	1.1804371729856 	-1.38777878078145e-17 	0.0164573289313574 	0.0346317854916523 	2.74723212556074 	0.00121256293528864 	0
9.99999999996687e-07 	1.19095824470904 	-1.73472347597681e-17 	0.018089515738088 	0.0350824406746155 	2.63285810290272 	0.00117466595953204 	0
9.99999999996688e-07 	1.20186473410002 	-2.42861286636753e-17 	0.0197772415929784 	0.035488945851703 	2.53120702652908 	0.00113983572936094 	0
9.99999999996687e-07 	1.21317076013637 	-2.42861286636753e-17 	0.0215201735611538 	0.0358509866805403 	2.44037093162713 	0.00110805949823921 	0
9.99999999996687e-07 	1.22489095901541 	-1.73472347597681e-17 	0.0233177593164183 	0.0361679459341 	2.35875553588054 	0.0010794628168634 	0
9.99999999996687e-07 	1.23704050310127 	-1.04083408558608e-17 	0.025169228543888 	0.0364389400836163 	2.28501983114802 	0.00105426372301205 	0
9.99999999996687e-07 	1.24963512056618 	-1.04083408558608e-17 	0.027073605139604 	0.0366628538207722 	2.21802544829343 	0.00103272965824113 	0
9.99999999996687e-07 	1.26269111575138 	-6.93889390390723e-18 	0.0290297263306791 	0.036838373621896 	2.15679402469775 	0.00101513426200637 	0
9.99999999996687e-07 	1.27622539027388 	0 	0.0310362641630085 	0.0369640216989663 	2.10047152495606 	0.00100171299746783 	0
9.99999999996687e-07 	1.29025546490642 	3.46944695195361e-18 	0.0330917448324788 	0.0370381918007183 	2.04829892967303 	0.000992618552019954 	0
9.99999999996687e-07 	1.30479950225895 	1.04083408558608e-17 	0.0351945620929419 	0.0370591883003338 	1.99958896850019 	0.00098787839314092 	0
9.99999999996687e-07 	1.31987633029101 	1.38777878078145e-17 	0.0373429823534738 	0.0370252698369472 	1.95370867491238 	0.000987357227894307 	0
9.99999999996687e-07 	1.33550546668544 	1.38777878078145e-17 	0.0395351409621833 	0.0369346984964891 	1.91006752004855 	0.000990726968321391 	0
9.99999999996687e-07 	1.35170714411495 	1.38777878078145e-17 	0.0417690312038362 	0.0367857951599008 	1.86811077608289 	0.00099744666272316 	0
9.99999999996687e-07 	1.3685023364343 	1.38777878078145e-17 	0.0440424892327803 	0.0365770012345481 	1.82731759773202 	0.00100675467720865 	0
9.99999999996687e-07 	1.38591278583198 	1.73472347597681e-17 	0.0463531791075642 	0.0363069465174586 	1.78720312287954 	0.00101767508476036 	0
9.99999999996687e-07 	1.40396103097652 	1.73472347597681e-17 	0.0486985820373654 	0.0359745224032441 	1.74732370788452 	0.00102903972318048 	0
9.99999999996687e-07 	1.42267043619387 	1.73472347597681e-17 	0.0510759929465042 	0.0355789590375045 	1.70728425776993 	0.00103952676928159 	0
9.99999999996687e-07 	1.44206522171366 	2.42861286636753e-17 	0.0534825257956642 	0.0351199043433486 	1.66674651350719 	0.00104771586972645 	0
9.99999999996687e-07 	1.46217049502345 	2.77555756156289e-17 	0.0559151272066747 	0.0345975021512393 	1.6254371415267 	0.00105215856280936 	0
9.99999999996687e-07 	1.48301228337162 	2.77555756156289e-17 	0.0583705963351368 	0.0340124659874423 	1.58315454804652 	0.00105146080903566 	0
9.99999999996687e-07 	1.50461756746087 	2.77555756156289e-17 	0.0608456079710296 	0.0333661444817482 	1.53977351121019 	0.00104437229089683 	0
9.99999999996687e-07 	1.52701431637603 	2.77555756156289e-17 	0.0633367356124982 	0.0326605739275594 	1.49524696934772 	0.0010298753237023 	0
9.99999999996687e-07 	1.55023152379143 	2.77555756156289e-17 	0.0658404716901673 	0.0318985134014239 	1.44960459421044 	0.00100726525228286 	0
9.99999999996687e-07 	1.57429924550461 	2.77555756156289e-17 	0.0683532430237892 	0.031083458210017 	1.40294808127218 	0.000976214336943819 	0
9.99999999996687e-07 	1.59924863834497 	3.12250225675825e-17 	0.0708714207081016 	0.0302196284893467 	1.35544337809062 	0.000936812266359332 	0
9.99999999996687e-07 	1.62511200050781 	3.12250225675825e-17 	0.0733913247126493 	0.0293119317050245 	1.30731032723042 	0.000889578276400365 	0
9.99999999996687e-07 	1.65192281336592 	2.77555756156289e-17 	0.0759092243136752 	0.0283659006570155 	1.25881040889454 	0.000835442094109421 	0
9.99999999996687e-07 	1.67971578481282 	2.42861286636753e-17 	0.0784213358231099 	0.0273876122711339 	1.21023342478941 	0.000775693457771289 	0
9.99999999996687e-07 	1.70852689419381 	2.08166817117217e-17 	0.080923818743567 	0.0263835964627571 	1.16188408548678 	0.00071190287725271 	0
9.99999999996687e-07 	1.73839343888296 	1.73472347597681e-17 	0.0834127704298393 	0.0253607468552528 	1.11406959001869 	0.000645819617937568 	0
9.99999999996687e-07 	1.76935408256639 	1.38777878078145e-17 	0.0858842182563564 	0.0243262413676013 	1.06708943406548 	0.000579256470091103 	0
9.99999999996687e-07 	1.80144890529425 	1.38777878078145e-17 	0.0883341098502957 	0.0232874650275482 	1.02122876930141 	0.000513973313372403 	0
9.99999999996687e-07 	1.83471945536633 	1.38777878078145e-17 	0.0907583103550555 	0.0222519089540074 	0.976756497485109 	0.000451570507833995 	0
9.99999999996687e-07 	1.86920880311829 	1.38777878078145e-17 	0.0931526284389071 	0.0212270051499553 	0.933928461399267 	0.000393400711256175 	0
9.99999999996687e-07 	1.9049615966783 	1.73472347597681e-17 	0.095512859498332 	0.0202198333686304 	0.89299414391905 	0.000340515747299685 	0
9.99999999996687e-07 	1.94202411976624 	2.08166817117217e-17 	0.0978346867385008 	0.0192366338524208 	0.854203842459061 	0.000293663464359929 	0
9.99999999996688e-07 	1.98044435161018 	2.08166817117217e-17 	0.100113762329449 	0.0182821617467141 	0.817815479097449 	0.000253186016497392 	0
9.99999999996688e-07 	2.02025965173184 	2.08166817117217e-17 	0.102328012624292 	0.0173664863425624 	0.784357852871925 	0.000219128183370874 	0
9.99999999996688e-07 	2.06006301192217 	2.08166817117217e-17 	0.10442153439834 	0.016510117577914 	0.75474645953778 	0.000191470292020282 	0
9.99999999996688e-07 	2.09845978584128 	1.73472347597681e-17 	0.10634901483033 	0.0157261167624776 	0.729523914347918 	0.000169628337947771 	0
9.99999999996688e-07 	2.13549967996945 	1.38777878078145e-17 	0.108110564078474 	0.0150095467185452 	0.708481904985035 	0.000152294240001205 	0
9.99999999996688e-07 	2.17123064424048 	1.04083408558608e-17 	0.109723966286404 	0.0143502408710401 	0.691194121810016 	0.000138162646612443 	0
9.99999999996688e-07 	2.20569893411515 	6.93889390390723e-18 	0.111204742047264 	0.0137401008604243 	0.677309390307759 	0.000126289846305714 	0
9.99999999996688e-07 	2.23894917046122 	6.93889390390723e-18 	0.11256636690304 	0.0131727661879095 	0.666546762169508 	0.00011604412951043 	0
9.99999999996688e-07 	2.27102439731725 	0 	0.113820614742242 	0.012643272956831 	0.658690175302508 	0.000107038159372609 	0
9.99999999996688e-07 	2.30196613761521 	-6.93889390390723e-18 	0.114977804130094 	0.0121477545591256 	0.65358323817783 	9.90674255072306e-05 	0
9.99999999996688e-07 	2.33181444693391 	-1.04083408558608e-17 	0.116046999247677 	0.011683197573279 	0.651124334096673 	9.20632185548234e-05 	0
9.99999999996688e-07 	2.3606079653529 	-6.93889390390723e-18 	0.117036183733732 	0.0112472507186255 	0.651262323514194 	8.60584914547374e-05 	0
9.99999999996688e-07 	2.3883839674739 	0 	0.117952408679185 	0.010838079237574 	0.653993103455619 	8.11645916629762e-05 	0
9.99999999996688e-07 	2.41517841067461 	0 	0.118801917748211 	0.010454255925029 	0.659357192328699 	7.75567166539676e-05 	0
9.99999999996688e-07 	2.44102598165722 	0 	0.119590253436926 	0.0100946806080245 	0.667438399619511 	7.5466032882402e-05 	0
9.99999999996688e-07 	2.46596014135207 	0 	0.120322347904784 	0.0097585210385565 	0.678363544072188 	7.51767323403506e-05 	0
9.99999999996688e-07 	2.49001316823443 	0 	0.121002601113623 	0.00944516938452652 	0.692303108546604 	7.70266520712258e-05 	0
9.99999999996688e-07 	2.51321620011054 	0 	0.12163494846862 	0.00915420957391139 	0.709472659101967 	8.1410335671562e-05 	0
9.99999999996688e-07 	2.535599274427 	0 	0.122222919731131 	0.00888539159550332 	0.730134799696821 	8.87835491280956e-05 	0
9.99999999996688e-07 	2.55719136715571 	0 	0.122769690636337 	0.00863860948574866 	0.754601372707054 	9.96682808947317e-05 	0
9.99999999996688e-07 	2.57802043030465 	0 	0.123278128378465 	0.00841388017227157 	0.783235543530878 	0.00011465717342026 	0
9.99999999996688e-07 	2.59811342810315 	3.46944695195361e-18 	0.123750831901533 	0.00821132066085335 	0.816453325131115 	0.000134416177864055 	0
9.99999999996688e-07 	2.61749637190832 	3.46944695195361e-18 	0.124190167736329 	0.00803112132261269 	0.854724013762966 	0.000159684039972774 	0
9.99999999996688e-07 	2.63619435387806 	0 	0.124598301943681 	0.00787351335616315 	0.898568938753613 	0.000191267080158399 	0
9.99999999996688e-07 	2.65423157945406 	0 	0.124977228556153 	0.00773872896920856 	0.948557906818141 	0.000230027716305666 	0
9.99999999996688e-07 	2.67163139869691 	3.46944695195361e-18 	0.125328794758105 	0.00762695354369703 	1.00530278505541 	0.000276865402030409 	0
9.99999999996688e-07 	2.68841633651388 	6.93889390390723e-18 	0.125654722916544 	0.00753827008529771 	1.06944786112045 	0.000332689218336033 	0
9.99999999996688e-07 	2.7046081218185 	6.93889390390723e-18 	0.125956629485014 	0.0074725976113491 	1.14165698141365 	0.000398382320512853 	0
9.99999999996688e-07 	2.72022771565972 	6.93889390390723e-18 	0.126236040762513 	0.00742962669734473 	1.22259801037162 	0.000474759770406543 	0
9.99999999996688e-07 	2.73529533835694 	6.93889390390723e-18 	0.126494405506796 	0.00740875695258007 	1.31292584280064 	0.000562522814070606 	0
9.99999999996688e-07 	2.74983049567625 	3.46944695195361e-18 	0.126733104474704 	0.00740904239824032 	1.41326594585669 	0.00066221410649994 	0
9.99999999996688e-07 	2.76385200408156 	0 	0.126953457078761 	0.00742915121082128 	1.52420106688924 	0.000774179383999013 	0
9.99999999996688e-07 	2.77737801509343 	0 	0.127156725487313 	0.00746734578959068 	1.64626416328054 	0.00089854134366266 	0
9.99999999996688e-07 	2.79042603878708 	0 	0.127344116629586 	0.00752148753582825 	1.77994068408852 	0.0010351909123999 	0
9.99999999996688e-07 	2.80301296646003 	-3.46944695195361e-18 	0.127516782673136 	0.00758906829904267 	1.92568306819269 	0.00118379987138688 	0
9.99999999996688e-07 	2.81515509249872 	-3.46944695195361e-18 	0.127675820598969 	0.00766726760135467 	2.08393987443042 	0.00134385739637313 	0
9.99999999996688e-07 	2.82686813547237 	-3.46944695195361e-18 	0.127822271490122 	0.00775303204678234 	2.25520159404765 	0.00151473198567136 	0
9.99999999996688e-07 	2.83816725848142 	-3.46944695195361e-18 	0.127957120054945 	0.00784317120900462 	2.44006518973194 	0.00169575974664916 	0
9.99999999996688e-07 	2.84906708878691 	-3.46944695195361e-18 	0.128081294716889 	0.00793446296351401 	2.63931990416721 	0.0018863599386312 	0
9.99999999996688e-07 	2.85958173674616 	-1.04083408558608e-17 	0.128195668327802 	0.00802376060004673 	2.85405782116085 	0.00208617857112382 	0
9.99999999996688e-07 	2.86972481407933 	-1.04083408558608e-17 	0.12830105923654 	0.0081080938827034 	3.08581383657953 	0.00229526051219862 	0
9.99999999996688e-07 	2.87950945149043 	-1.04083408558608e-17 	0.128398232179587 	0.00818475634575332 	3.33674098232999 	0.00251425045999885 	0
9.99999999996688e-07 	2.88894831566566 	-1.38777878078145e-17 	0.128487898374587 	0.00825137154430857 	3.60982870640431 	0.00274462383328745 	0
9.99999999996689e-07 	2.89805362567106 	-1.38777878078145e-17 	0.128570714308032 	0.00830593186992178 	3.90917459185966 	0.00298894997252414 	0
9.99999999996689e-07 	2.90683716877067 	-1.38777878078145e-17 	0.128647279047411 	0.0083468049525152 	4.24032549706784 	0.00325119285201528 	0
9.99999999996688e-07 	2.91531031568569 	-1.38777878078145e-17 	0.128718130361708 	0.0083727043457341 	4.61071386830617 	0.00353706115200269 	0
9.99999999996688e-07 	2.92348403531448 	-1.73472347597681e-17 	0.128783740210196 	0.00838262242707919 	5.0302305283298 	0.00385442964477278 	0
9.99999999996688e-07 	2.93136890893229 	-2.08166817117217e-17 	0.128844510287905 	0.0083757231568857 	5.51199804447987 	0.00421386357810208 	0
9.99999999996688e-07 	2.93897514388925 	-2.42861286636753e-17 	0.128900768518492 	0.0083511893401857 	6.0734411288429 	0.00462928280322308 	0
9.99999999996688e-07 	2.94631258682425 	-2.77555756156289e-17 	0.128952767132755 	0.00830801221732847 	6.73779698171868 	0.00511879478683656 	0
9.99999999996688e-07 	2.95339073641193 	-2.08166817117217e-17 	0.129000679973772 	0.00824469957565321 	7.53627740487297 	0.00570568630127231 	0
9.99999999996688e-07 	2.96021875565915 	-1.38777878078145e-17 	0.129044594412174 	0.00815886141429353 	8.51120137876456 	0.00641944940710045 	0
9.99999999996688e-07 	2.96680548376697 	-1.38777878078145e-17 	0.129084526890217 	0.00804661055176149 	9.72059225852265 	0.0072973803832729 	0
9.99999999996688e-07 	2.97315944757337 	-1.38777878078145e-17 	0.129120592013862 	0.00790162986692258 	11.2451568187037 	0.00839753349341505 	0
9.99999999996688e-07 	2.97928887259171 	-2.08166817117217e-17 	0.129153079092862 	0.00771270195999427 	13.2006362604427 	0.00977631375958283 	0
9.99999999996688e-07 	2.98520169365902 	-2.42861286636753e-17 	0.129181993637237 	0.00746034869668461 	15.75434258633 	0.0114643262945615 	0
9.99999999996688e-07 	2.99090556520806 	-2.08166817117217e-17 	0.12920677913362 	0.00711433745221937 	19.1376538406691 	0.0134545966721094 	0
9.99999999996688e-07 	2.99640787117633 	-2.08166817117217e-17 	0.129226885983397 	0.00663179718137484 	23.6653752526116 	0.0156072427093063 	0
9.99999999996688e-07 	3.00171573456492 	-2.08166817117217e-17 	0.12924228104023 	0.00595875379196739 	29.8001497400478 	0.0175426758394756 	0
9.99999999996688e-07 	3.00683602665962 	-2.08166817117217e-17 	0.129253317734701 	0.00504117050289213 	38.343196547294 	0.0185260318943581 	0
9.99999999996688e-07 	3.01177537592612 	-2.42861286636753e-17 	0.1292605637512 	0.00385443120360397 	51.0384902278438 	0.0171166929141161 	0
9.99999999996688e-07 	3.01654017659085 	-2.77555756156289e-17 	0.129264849534731 	0.0024969427921272 	72.7623226981308 	0.0123283168019732 	0
9.99999999996688e-07 	3.02113659691864 	-2.77555756156289e-17 	0.129267126102894 	0.00126307672886917 	120.844932280071 	0.00610865048403285 	0
9.99999999996688e-07 	3.02557058719784 	-2.42861286636753e-17 	0.129268139550837 	0.000455012155540696 	276.573705287806 	0.0018196000735662 	0
9.99999999996688e-07 	3.02984788744324 	-2.08166817117217e-17 	0.129268372465752 	0.00010348405465335 	1217.39966651493 	0.000265762420385723 	0
