2 	0.204239703047747 	2.08166817117217e-17 	0.185037932413137 	9.5317920087736e-07 	2562.47282619591 	5.63181663555696e-08 	2.86291922420354e-38
2 	0.209215445626134 	1.38777878078145e-17 	0.185028899098825 	1.1668126198842e-05 	736.330535703703 	1.56783484801583e-06 	0
2 	0.214371643686243 	1.21430643318376e-17 	0.185017924222177 	6.46355714077103e-05 	189.952313473035 	1.71352119628951e-05 	0
2 	0.219714773355171 	1.21430643318376e-17 	0.185001460186895 	0.00021767508969252 	81.4909410497443 	9.51126369268062e-05 	0
2 	0.225251538117274 	1.56125112837913e-17 	0.184977544901859 	0.000532597314904918 	44.6310604131295 	0.000307816381028738 	0
2 	0.230988876422674 	1.38777878078145e-17 	0.184945003906295 	0.00103274566475851 	28.0774023817924 	0.000622893722516426 	0
2 	0.236933969522678 	1.04083408558608e-17 	0.184904108616161 	0.00167442272453987 	19.2410417347969 	0.00083914993277337 	0
2 	0.243094249536736 	8.67361737988404e-18 	0.18485677141154 	0.00238208715817601 	14.001718947748 	0.000823152522196786 	0
2 	0.249477407755551 	1.73472347597681e-18 	0.184805567263287 	0.00309936516963715 	10.7015989796009 	0.000646329143473855 	0
2 	0.256091403184792 	-1.73472347597681e-18 	0.184752623978887 	0.00379972653468471 	8.53482028916937 	0.000436708610859497 	0
2 	0.262944471333784 	-1.73472347597681e-18 	0.184699273840117 	0.00447504817336313 	7.05778242418494 	0.000265236420045805 	0
2 	0.270045133253419 	0 	0.18464625276978 	0.00512527699348536 	6.01310736299074 	0.000148442552478806 	0
2 	0.277402204827315 	0 	0.184593976666659 	0.00575323931336179 	5.24797874973876 	7.98703825940103e-05 	0
2 	0.285024806320119 	-1.73472347597681e-18 	0.184542712704721 	0.00636249388929535 	4.66970019696602 	4.84961016802332e-05 	0
2 	0.292922372186588 	-5.20417042793042e-18 	0.184492661824049 	0.00695652345953077 	4.22054108241704 	4.48812105718517e-05 	0
2 	0.301104661144868 	-6.93889390390723e-18 	0.184443997494025 	0.00753847369279467 	3.86346608273534 	6.21664368610265e-05 	0
2 	0.309581766517083 	-1.04083408558608e-17 	0.184396884790505 	0.00811110922493076 	3.57399064971129 	9.5633811872651e-05 	0
2 	0.318364126840036 	-6.93889390390723e-18 	0.184351489608636 	0.00867685042431601 	3.33545805719876 	0.000142094280464581 	0
2 	0.3274625367485 	-6.93889390390723e-18 	0.184307982662514 	0.00923783550109258 	3.13623769989762 	0.000199402905737196 	0
2 	0.336888158133131 	-1.04083408558608e-17 	0.184266540863409 	0.0097959867053489 	2.96801989517851 	0.000266125052280126 	0
2 	0.346652531574654 	-1.04083408558608e-17 	0.18422734754773 	0.0103530737128923 	2.8247508293237 	0.000341318182605973 	0
2 	0.356767588055453 	-1.73472347597681e-17 	0.184190592458553 	0.0109107732660794 	2.70195098771793 	0.000424393343525639 	0
2 	0.367245660949204 	-2.42861286636753e-17 	0.184156472196339 	0.0114707266069498 	2.59626966543427 	0.000515030685232359 	0
2 	0.378099498288554 	-3.12250225675825e-17 	0.184125191902325 	0.0120345973297445 	2.50518901805343 	0.000613132859802962 	0
2 	0.389342275310276 	-4.5102810375397e-17 	0.184096969155065 	0.012604132929197 	2.42682581617765 	0.000718807143207756 	0
2 	0.400987607276593 	-5.55111512312578e-17 	0.184072041439174 	0.0131812339772197 	2.35979941035674 	0.000832372150911049 	0
2 	0.413049562570635 	-5.55111512312578e-17 	0.184050679109105 	0.013768035786849 	2.30314675843019 	0.00095438892002011 	0
2 	0.425542676063153 	-5.89805981832114e-17 	0.18403320656225 	0.0143670088486467 	2.25627324005931 	0.00108571969149556 	0
2 	0.438481962746717 	-5.89805981832114e-17 	0.184020035420723 	0.0149810865453288 	2.21893343096346 	0.00122762170989175 	0
2 	0.451882931632717 	-5.89805981832114e-17 	0.18401171499572 	0.015613832120576 	2.19124033686706 	0.00138188871734421 	0
2 	0.465761599905378 	-5.89805981832114e-17 	0.184009007184269 	0.0162696623551864 	2.17370579490051 	0.0015510610421077 	0
2 	0.480134507325936 	-5.89805981832114e-17 	0.184012994748029 	0.0169541541901831 	2.16731986470485 	0.00173873895007039 	0
2 	0.495018730878875 	-6.59194920871187e-17 	0.184025233222938 	0.0176744749271206 	2.17368447274697 	0.00195005831549691 	0
2 	0.505103866616217 	-7.11236625150491e-17 	0.18403826520708 	0.0181713447720617 	2.18508956255081 	0.00210406804114089 	0
2 	0.512958328548976 	-7.80625564189563e-17 	0.184052343617957 	0.0185663132632466 	2.19993258615893 	0.00223391216941172 	0
2 	0.52643874760892 	-8.67361737988404e-17 	0.18408369302184 	0.0192615751822978 	2.23520563542893 	0.00247580915562006 	0
2 	0.543004266748957 	-1.00613961606655e-16 	0.184137816910659 	0.0201574200288132 	2.29913910147178 	0.00281688211420803 	0
2 	0.560154665728559 	-1.04083408558608e-16 	0.184216726523186 	0.0211504924453164 	2.39477556744433 	0.00323928415381595 	0
2 	0.577909799842719 	-1.00613961606655e-16 	0.184328031529642 	0.0222710125859963 	2.53223419985819 	0.00377558322865722 	0
2 	0.596290142031336 	-1.04083408558608e-16 	0.184477691776835 	0.0235500487956471 	2.71843190352284 	0.00446734910688603 	0
2 	0.615316798126349 	-1.00613961606655e-16 	0.184667479147652 	0.0250146948172981 	2.95022900525252 	0.00536807037617575 	0
2 	0.635011522192281 	-9.71445146547012e-17 	0.184896420629639 	0.0267001345733113 	3.22152315934696 	0.00654408278001172 	0
2 	0.655396731937682 	-9.36750677027476e-17 	0.185164430630308 	0.0286610819963583 	3.53245239600595 	0.00808102488545055 	0
2 	0.676495524173076 	-8.67361737988404e-17 	0.185473166378233 	0.0309691206703734 	3.88844451743976 	0.0100962593937371 	0
2 	0.698331690289076 	-9.0205620750794e-17 	0.18582494228034 	0.0337030160263491 	4.29646028675711 	0.0128004329881827 	0
2 	0.720929731726265 	-9.71445146547012e-17 	0.18622797812857 	0.0369429881771623 	4.76327464684655 	0.016687458538052 	0
2 	0.744314875406381 	-9.71445146547012e-17 	0.186700771070005 	0.0407991547144566 	5.29932989015664 	0.0222087590782248 	0
2 	0.768513089092199 	-1.04083408558608e-16 	0.187240087486333 	0.0453747269416167 	5.91003986645986 	0.0300338131326696 	0
2 	0.793551096641308 	-1.14491749414469e-16 	0.18781945858947 	0.0505464727597129 	6.57063038226005 	0.0401933487233675 	0
2 	0.819456393116764 	-1.17961196366423e-16 	0.188438993285114 	0.0558480761131098 	7.22973066796834 	0.0516223372997801 	0
2 	0.846257259715333 	-1.21430643318376e-16 	0.18912600103425 	0.0605893594297658 	7.82656413158855 	0.0628505969937753 	0
2 	0.873982778471785 	-1.17961196366423e-16 	0.18992573738473 	0.0641348496134203 	8.31661603969305 	0.073413165139882 	0
2 	0.902662846695427 	-1.07552855510562e-16 	0.190881057047136 	0.0660262214067062 	8.68666189666824 	0.0814508134949806 	0
2 	0.932328191092801 	-1.11022302462516e-16 	0.191927381793207 	0.0659007640589735 	8.89681901245506 	0.086253695687623 	0
2 	0.963010381528271 	-1.11022302462516e-16 	0.192937431960758 	0.0634239608799245 	8.85338243538497 	0.0842988670736781 	0
2 	0.994741844372037 	-1.11022302462516e-16 	0.193831271892718 	0.0586584327485117 	8.44748598746738 	0.0730586670293338 	0
2 	1.02755587538303 	-1.21430643318376e-16 	0.194513260844762 	0.0523625693539557 	7.63056404475881 	0.0546977286304182 	0
2 	1.06148665207217 	-1.21430643318376e-16 	0.194923711858295 	0.0458033607324771 	6.49147781821658 	0.0352095740077447 	0
2 	1.09656924548955 	-1.21647483752874e-16 	0.195076234694136 	0.0401803387533718 	5.24888009766915 	0.0201461942634958 	0
2 	1.13283963137755 	-1.21213802883879e-16 	0.195047947047119 	0.0360678697310393 	4.15074642417094 	0.0110304375058807 	0
2 	1.17033470063016 	-1.18394877235417e-16 	0.194912556166213 	0.033340460868075 	3.31312259325737 	0.00626400403266469 	0
2 	1.20909226899779 	-1.17961196366423e-16 	0.194704209274989 	0.0316072933405745 	2.72067843752167 	0.00393686263348707 	0
2 	1.24915108597551 	-1.13624387676481e-16 	0.194448753252205 	0.0304536482090079 	2.28062683994005 	0.00283353634950674 	0
2 	1.29055084281242 	-1.05818132034585e-16 	0.194191742310487 	0.029589042674705 	1.97412293129894 	0.00228731976776319 	0
2 	1.3333321795791 	-1.11022302462516e-16 	0.193971147511675 	0.0288189343695655 	1.7892033916589 	0.0019678188651271 	0
2 	1.37753669123035 	-1.196959198424e-16 	0.193787003417648 	0.0280314001059143 	1.6731771577842 	0.00173720462246895 	0
2 	1.41220272459525 	-1.17961196366423e-16 	0.193655035519764 	0.0273454882808915 	1.60563773904007 	0.00156206034304442 	0
2 	1.43617694926587 	-1.17961196366423e-16 	0.193562975643275 	0.0267990997505863 	1.5644900518006 	0.00143782446249122 	0
2 	1.45930396367274 	-1.17961196366423e-16 	0.193473165207866 	0.0262583369881842 	1.53188538473288 	0.00132154174624759 	0
2 	1.48161370685419 	-1.14491749414469e-16 	0.193389642702368 	0.0257002356683687 	1.50430828481192 	0.00120773152560557 	0
2 	1.50313505985141 	-1.11022302462516e-16 	0.193310842144711 	0.025128502974672 	1.48108909579436 	0.00109743378252685 	0
2 	1.52389588309639 	-1.11022302462516e-16 	0.193235311360924 	0.0245470632862972 	1.46182559288429 	0.00099118867925281 	0
2 	1.54392305247858 	-1.09287578986539e-16 	0.193162544398935 	0.0239597072626851 	1.44627198550371 	0.000889458297098007 	0
2 	1.56324249413704 	-1.11022302462516e-16 	0.193092229492764 	0.023369909462746 	1.43428148360503 	0.000792612499477288 	0
2 	1.58187921802306 	-1.12757025938492e-16 	0.19302406980654 	0.0227807450114064 	1.42577571053684 	0.000700930217635597 	0
2 	1.5998573502768 	-1.09287578986539e-16 	0.19295780522429 	0.0221948646834039 	1.42072801445669 	0.000614615842480892 	0
2 	1.61720016445966 	-1.05818132034585e-16 	0.192893223173721 	0.0216145039029385 	1.4191543585629 	0.00053381608254192 	0
2 	1.63393011168312 	-9.8879238130678e-17 	0.192830154260046 	0.0210415107485965 	1.42110867722377 	0.000458634177425431 	0
2 	1.65006884967274 	-9.71445146547012e-17 	0.192768466941886 	0.0204773838163783 	1.42668114389719 	0.000389142642509795 	0
2 	1.66563727080512 	-1.02348685082632e-16 	0.192708063301212 	0.0199233143045201 	1.43599856845758 	0.000325395597190145 	0
2 	1.68065552915415 	-1.04083408558608e-16 	0.192648875082558 	0.0193802288812015 	1.44922654252656 	0.00026744124468602 	0
2 	1.69514306658136 	-1.05818132034585e-16 	0.192590859756589 	0.0188488313112626 	1.46657318050838 	0.000215334882338694 	0
2 	1.70911863790442 	-1.07552855510562e-16 	0.192533996687333 	0.0183296417501948 	1.48829445600545 	0.000169152789250822 	0
2 	1.72260033517611 	-1.07552855510562e-16 	0.192478283484421 	0.0178230332380482 	1.51470125420981 	0.000129007398822256 	0
2 	1.73560561110537 	-1.07552855510562e-16 	0.192423732586326 	0.017329265349672 	1.54616837467917 	9.50643039995227e-05 	0
2 	1.74815130165068 	-1.09287578986539e-16 	0.192370368102064 	0.016848515249578 	1.58314584004962 	6.75618543909233e-05 	0
2 	1.76025364781503 	-1.11022302462516e-16 	0.192318222926732 	0.0163809066058976 	1.62617300568089 	4.68343860308147e-05 	0
2 	1.77192831667065 	-1.11022302462516e-16 	0.192267336135548 	0.0159265369708213 	1.67589613344187 	3.33404886759333e-05 	0
2 	1.78319042164084 	-1.11022302462516e-16 	0.192217750651813 	0.0154855043579676 	1.73309030129945 	2.76981871994323e-05 	0
2 	1.79405454206499 	-1.11022302462516e-16 	0.192169511176535 	0.0150579338571602 	1.79868678230877 	3.07295299969128e-05 	0
2 	1.80453474207227 	-1.11022302462516e-16 	0.192122662360957 	0.0146440052353194 	1.87380735717099 	4.35178866646598e-05 	0
2 	1.81464458878829 	-1.12757025938492e-16 	0.192077247197702 	0.0142439825837134 	1.95980744009768 	6.74823173150932e-05 	0
2 	1.82439716989841 	-1.17961196366423e-16 	0.19203330560124 	0.0138582471835365 	2.05833041364894 	0.000104474748339099 	0
2 	1.83380511059041 	-1.196959198424e-16 	0.191990873143924 	0.0134873348577156 	2.17137619363308 	0.000156907425216446 	0
2 	1.84288058989839 	-1.16226472890446e-16 	0.191949979909625 	0.0131319791199376 	2.30138777245089 	0.000227920220507975 	0
2 	1.8516353564691 	-1.14491749414469e-16 	0.191910649423259 	0.0127931613504921 	2.45136027414538 	0.000321599755601679 	0
2 	1.86008074377114 	-1.14491749414469e-16 	0.191872897611329 	0.0124721688957683 	2.6249777806223 	0.00044326462177286 	0
2 	1.8682276847667 	-1.17961196366423e-16 	0.191836731746701 	0.0121706611937413 	2.82678360932809 	0.000599832499368757 	0
2 	1.87608672606481 	-1.21430643318376e-16 	0.191802149331716 	0.0118907424449716 	3.06238937226705 	0.000800284159629604 	0
2 	1.88366804157438 	-1.196959198424e-16 	0.191769136883337 	0.0116350365126644 	3.33872622340233 	0.00105623350357387 	0
2 	1.89098144567491 	-1.17961196366423e-16 	0.191737668610101 	0.0114067550692079 	3.66433696008298 	0.00138259769644701 	0
2 	1.89803640592159 	-1.196959198424e-16 	0.191707704991573 	0.011209742974932 	4.04969839986861 	0.00179833133897776 	0
2 	1.90484205530156 	-1.17961196366423e-16 	0.19167919120726 	0.0110484753944698 	4.50754795886922 	0.00232713757529967 	0
2 	1.91140720405699 	-1.14491749414469e-16 	0.19165205541526 	0.0109279704099206 	5.05316598226429 	0.00299799490345098 	0
2 	1.91774035109036 	-1.16226472890446e-16 	0.191626208497155 	0.0108535725493525 	5.70453911919581 	0.00384524980907765 	0
2 	1.92384969496671 	-1.21430643318376e-16 	0.191601550476742 	0.0108305640326975 	6.48231036997223 	0.00490794940290327 	0
2 	1.92974314452706 	-1.26634813746307e-16 	0.19157797796748 	0.0108635823477169 	7.40942915435699 	0.00622808293428365 	0
2 	1.93542832912681 	-1.31838984174237e-16 	0.191555325726251 	0.0109558746528677 	8.51046627136186 	0.00785055792293052 	0
2 	1.9409126085123 	-1.37043154602168e-16 	0.191533199740072 	0.0111084756488005 	9.81086733900023 	0.00986586654755363 	0
2 	1.94620308234835 	-1.38777878078145e-16 	0.191511384241213 	0.0113191690066308 	11.3407778457902 	0.0124126246424688 	0
2 	1.95130659940914 	-1.33573707650214e-16 	0.191489750487898 	0.0115815892085669 	13.1434072540653 	0.0154401668321377 	0
2 	1.95622976644424 	-1.28369537222284e-16 	0.191468619682579 	0.011883935430682 	15.2490764437236 	0.0190637942206791 	0
2 	1.96097895673142 	-1.28369537222284e-16 	0.191448521507698 	0.0122002649763472 	17.6421950810654 	0.0231167412100478 	0
2 	1.96556031832711 	-1.28369537222284e-16 	0.191429328752361 	0.0124966858047088 	20.2831181120286 	0.0274233236853334 	0
2 	1.96997978202541 	-1.23165366794353e-16 	0.191410801187727 	0.0127383764472137 	23.1368306363492 	0.0318529635653975 	0
2 	1.97424306903575 	-1.196959198424e-16 	0.191392883049839 	0.0128929353367652 	26.1903439057333 	0.0363018335474715 	0
2 	1.9783556983893 	-1.196959198424e-16 	0.191375682497354 	0.0129308766033219 	29.46311564889 	0.0406787704044382 	0
2 	1.98232299408358 	-1.14491749414469e-16 	0.191359375976649 	0.0128245486646968 	33.0151065531051 	0.0448994776263111 	0
2 	1.98615009197469 	-1.11022302462516e-16 	0.191344116473386 	0.0125460565073391 	36.9544174060083 	0.0488590765782573 	0
2 	1.98984194642589 	-1.11022302462516e-16 	0.191330036367496 	0.012064869369992 	41.4466787418583 	0.0523121759774446 	0
2 	1.99340333672126 	-1.11022302462516e-16 	0.191317392353887 	0.0113491636959934 	46.7317869692528 	0.054978045589306 	0
2 	1.99683887325273 	-1.09287578986539e-16 	0.191306507418461 	0.0103676839862044 	53.1725239081453 	0.0564003915937287 	0
2 	2.00015300348844 	-1.09287578986539e-16 	0.191297547656228 	0.00909478338747289 	61.3754948343423 	0.0558565175244744 	0
2 	2.00335001773022 	-1.11022302462516e-16 	0.191290523563882 	0.00752153456380325 	72.4593469606156 	0.0522267875674798 	0
2 	2.00643405466757 	-1.11022302462516e-16 	0.191285446359747 	0.00567935683048207 	88.7011273105456 	0.043055806509274 	0
2 	2.00940910673542 	-1.11022302462516e-16 	0.191282122078369 	0.00373641983455877 	115.326004094116 	0.0285488360206788 	0
2 	2.01227902528252 	-1.11022302462516e-16 	0.191280084010951 	0.0020272052489016 	166.267007146642 	0.0136833133384588 	0
2 	2.01504752555717 	-1.11022302462516e-16 	0.191278840041341 	0.000857013950810138 	285.106991324984 	0.00427598925021209 	0
2 	2.01771819151684 	-1.12757025938492e-16 	0.191277973529286 	0.000261210315772374 	649.925993022127 	0.000792926490219349 	0
2 	2.02029448046774 	-1.16226472890446e-16 	0.19127724636756 	4.92627563494579e-05 	2552.32659561397 	7.62167715181282e-05 	0
2 	2.02277972754047 	-1.17961196366423e-16 	0.191276702453736 	4.39013648288556e-06 	8519.9470113484 	2.84135499414283e-06 	3.25907914419581e-38
