0.999999999999999 	0.721847518079339 	6.93889390390723e-18 	-0.00773413699006589 	0.00430911495687351 	-1.25780417037797e-22
1 	0.727010756247634 	1.38777878078145e-17 	-0.022463523627512 	0.0125991408215153 	6.15124968821971e-19
1 	0.732362547176676 	2.42861286636753e-17 	-0.0362462971081415 	0.0202265204819057 	1.21890753821278e-18
0.999999999999999 	0.737909754876601 	2.77555756156289e-17 	-0.0489961037607996 	0.0271283972043842 	5.45177253144362e-19
0.999999999999999 	0.743659491684055 	3.12250225675825e-17 	-0.0605042726763688 	0.0332440825236189 	7.85558256843311e-19
0.999999999999999 	0.749619127137594 	3.12250225675825e-17 	-0.0704759306695314 	0.0384448269146399 	-5.78517701823083e-18
0.999999999999999 	0.755796297162971 	2.77555756156289e-17 	-0.0785293302837873 	0.0425543270039045 	3.06528097460751e-18
0.999999999999999 	0.762198913578607 	3.12250225675825e-17 	-0.0843481750661916 	0.0454393725661902 	-2.04331650639526e-18
0.999999999999999 	0.768835173931957 	2.77555756156289e-17 	-0.0879169649705144 	0.0471310546115432 	1.70567585084513e-19
0.999999999999999 	0.775713571677737 	2.42861286636753e-17 	-0.0895657863372947 	0.0478396811192942 	2.07287735318369e-18
0.999999999999999 	0.782842906709361 	2.77555756156289e-17 	-0.0897601793281172 	0.047839940134694 	-8.85533410744156e-19
0.999999999999999 	0.79023229625525 	2.77555756156289e-17 	-0.0888860437397076 	0.0473613844002417 	-1.32546083195298e-18
0.999999999999999 	0.797891186152054 	2.77555756156289e-17 	-0.0871740969251358 	0.0465557049127171 	8.20788714946314e-19
0.999999999999999 	0.805829362507172 	2.77555756156289e-17 	-0.0847112812776057 	0.045510271372497 	9.99242911631555e-19
0.999999999999999 	0.814056963763349 	2.77555756156289e-17 	-0.0814658101310571 	0.0442689930754205 	-5.99440730289026e-19
1 	0.82258449317852 	2.77555756156289e-17 	-0.0773001862963977 	0.0428459084504465 	2.26187038798499e-19
1 	0.831422831734416 	2.08166817117217e-17 	-0.0719721452857892 	0.0412344469986277 	-1.28306075599339e-18
1 	0.840583251487919 	1.38777878078145e-17 	-0.0651276203651572 	0.0394257701785654 	-1.19669886776638e-19
0.999999999999999 	0.850077429379545 	1.38777878078145e-17 	-0.0562985189148066 	0.0374218181056953 	6.10952562082874e-19
0.999999999999999 	0.859917461513852 	2.08166817117217e-17 	-0.0449077384095506 	0.0352426544493338 	-1.02217855946418e-19
1 	0.870115877927021 	2.08166817117217e-17 	-0.0302526963569806 	0.0328612242383694 	-5.09784604910738e-19
1 	0.880685657857366 	6.93889390390723e-18 	-0.011293656367703 	0.0301276277839164 	2.75064586513118e-17
1 	0.891640245534879 	0 	0.013412858344499 	0.0268185141120137 	8.35816438205026e-17
1 	0.902993566506546 	0 	0.0451967045848351 	0.0227338035659245 	1.74930993813912e-16
1 	0.91476004451458 	-3.46944695195361e-18 	0.0847048143403131 	0.0178523695210416 	-2.28674576707372e-16
1 	0.926954618945262 	-3.46944695195361e-18 	0.132142992189803 	0.0123132541706934 	-5.68027019974836e-17
1 	0.939592762866604 	0 	0.187201165372335 	0.00636007550343798 	7.77467948920167e-19
1 	0.952690501673641 	0 	0.248787015066216 	0.000300035462408341 	1.7222857361665e-19
1 	0.966264432360689 	-1.04083408558608e-17 	0.315096875128591 	-0.0055013201188715 	-1.13455707976942e-18
1 	0.980331743440524 	-2.42861286636753e-17 	0.383886013491491 	-0.0106789837306665 	8.12855570020946e-19
1 	0.994910235531055 	-2.77555756156289e-17 	0.452718253368241 	-0.0149451373548858 	-5.37475852991974e-21
1 	1.01001834263073 	-3.12250225675825e-17 	0.519198950946691 	-0.018147062061326 	-5.80514457174815e-19
1 	1.02567515410451 	-3.46944695195361e-17 	0.58134365344213 	-0.0202497511575389 	-4.39356386527657e-19
1 	1.04190043740303 	-3.46944695195361e-17 	0.637622287828769 	-0.0213257102565104 	7.24733319930618e-19
1 	1.0587146615383 	-3.81639164714898e-17 	0.686912737794144 	-0.0215406579960769 	-3.74357666174179e-19
1 	1.07613902133991 	-4.85722573273506e-17 	0.728594736263952 	-0.0210767409350471 	4.89531232181443e-21
1 	1.09419546251674 	-5.55111512312578e-17 	0.762591851898749 	-0.0201520876144772 	1.45556054961756e-19
1 	1.11290670754982 	-5.89805981832114e-17 	0.789395573351574 	-0.0189930415555188 	2.5044532408466e-19
1 	1.1322962824429 	-5.89805981832114e-17 	0.810021811814326 	-0.0178069562408802 	-5.46527324545538e-19
1 	1.15238854435835 	-5.55111512312578e-17 	0.825852637438905 	-0.0167419243790003 	1.92588584625066e-19
1 	1.17320871016676 	-5.89805981832114e-17 	0.838348397570819 	-0.0158684750860308 	7.82001785631531e-20
1 	1.19478288593983 	-6.59194920871187e-17 	0.848803303796323 	-0.0151922962407355 	-1.75544115916119e-19
1 	1.21713809741713 	-6.93889390390723e-17 	0.858226039028927 	-0.0146742326533761 	2.29485950734982e-19
1 	1.24030232147844 	-7.28583859910259e-17 	0.867306535318945 	-0.014255423264812 	-1.61650923978168e-19
1 	1.26430451865469 	-6.93889390390723e-17 	0.876446050483151 	-0.0138778820961425 	1.02350170025729e-16
1 	1.28917466671171 	-5.89805981832114e-17 	0.885823270555444 	-0.0134960045691883 	5.11095271252526e-16
1 	1.31494379534233 	-5.55111512312578e-17 	0.895467944532271 	-0.0130814819069624 	-5.25931716766594e-16
1 	1.34164402200408 	-5.55111512312578e-17 	0.905328504504302 	-0.0126232406131357 	-9.64089068502476e-17
1 	1.36930858894086 	-5.20417042793042e-17 	0.915327695779543 	-0.0121235926503436 	-1.05752041772805e-19
1 	1.39797190142901 	-4.85722573273506e-17 	0.925401100581575 	-0.0115922966077242 	7.79219050650216e-20
1 	1.42766956728968 	-4.5102810375397e-17 	0.93551543514567 	-0.0110404464257049 	1.8140415447303e-20
1 	1.45843843771138 	-4.85722573273506e-17 	0.945668324326355 	-0.0104759996068849 	3.62619176080698e-20
1 	1.49031664942857 	-5.89805981832114e-17 	0.955876007252598 	-0.009901976306533 	8.87098742489135e-21
1 	1.52334366830421 	-6.24500451351651e-17 	0.96615716753141 	-0.00931718424840774 	-2.51737653410974e-20
1 	1.55756033436658 	-5.55111512312578e-17 	0.976519532486151 	-0.00871842519598283 	-9.64059427284113e-21
1 	1.59300890835284 	-5.20417042793042e-17 	0.986952626867253 	-0.00810289516329116 	1.21331255117453e-19
1 	1.62973311981477 	-5.89805981832114e-17 	0.997426808775815 	-0.00746982825278958 	-1.08096724201852e-19
1 	1.66777821684437 	-6.24500451351651e-17 	1.00789653361938 	-0.00682104793337136 	-7.27951922188147e-21
1 	1.70719101748042 	-5.89805981832114e-17 	1.0183051062631 	-0.00616065075661877 	-6.46986271187966e-21
1 	1.74801996285975 	-5.55111512312578e-17 	1.02858881425621 	-0.00549432693780326 	-6.80564597027416e-20
1 	1.7903151721808 	-4.85722573273506e-17 	1.03867960853275 	-0.00482876829181753 	6.7216396896647e-20
1 	1.83412849954993 	-3.81639164714898e-17 	1.04850660062624 	-0.00417133862668921 	2.51987194830232e-21
1 	1.87951359278536 	-3.46944695195361e-17 	1.05799712565342 	-0.00352993850189343 	-1.81413558199321e-21
1 	1.9265259542571 	-3.46944695195361e-17 	1.06707811169508 	-0.00291341763285899 	2.23074590009673e-20
1 	1.97522300384574 	-3.81639164714898e-17 	1.07562578847207 	-0.00233796945789983 	-1.96111656498719e-20
1 	2.02025965173185 	-3.81639164714898e-17 	1.08281950389035 	-0.00186088150037278 	-1.74230090602559e-22
1 	2.06006301192217 	-3.46944695195361e-17 	1.0886598821476 	-0.00147318638565421 	0
1 	2.09845978584128 	-2.77555756156289e-17 	1.0937463493601 	-0.00114401212453478 	0
1 	2.13549967996946 	-2.42861286636753e-17 	1.09818454941033 	-0.000867983308460486 	0
1 	2.17123064424048 	-2.77555756156289e-17 	1.10203720884147 	-0.00063967240504894 	0
1 	2.20569893411516 	-2.77555756156289e-17 	1.10536062606148 	-0.000454097131825056 	0
1 	2.23894917046123 	-2.08166817117217e-17 	1.10820440569933 	-0.000306584349430229 	0
1 	2.27102439731726 	-1.38777878078145e-17 	1.11061154982579 	-0.000192696991711599 	0
1 	2.30196613761522 	-1.04083408558608e-17 	1.11261876608809 	-0.000108300100218624 	0
1 	2.33181444693392 	-6.93889390390723e-18 	1.11425690715801 	-4.96082980479402e-05 	0
1 	2.3606079653529 	-6.93889390390723e-18 	1.11555147009101 	-1.31997962966408e-05 	0
1 	2.38838396747391 	-6.93889390390723e-18 	1.11652310197152 	3.98655690523881e-06 	0
1 	2.41517841067461 	-6.93889390390723e-18 	1.11718808977207 	4.66438985177174e-06 	0
1 	2.44102598165722 	-6.93889390390723e-18 	1.11755882153228 	-8.78063192096726e-06 	0
1 	2.46596014135208 	-1.04083408558608e-17 	1.1176442159222 	-3.42675164822278e-05 	0
1 	2.49001316823444 	-1.38777878078145e-17 	1.11745012453095 	-6.99949612844746e-05 	0
1 	2.51321620011054 	-1.38777878078145e-17 	1.11697971579684 	-0.000114416073590529 	0
1 	2.535599274427 	-1.04083408558608e-17 	1.11623385189099 	-0.000166213664790174 	0
1 	2.55719136715571 	-1.04083408558608e-17 	1.11521147086668 	-0.0002242765332211 	0
1 	2.57802043030466 	-1.73472347597681e-17 	1.11390998506419 	-0.000287676953637568 	0
1 	2.59811342810315 	-2.42861286636753e-17 	1.11232570123055 	-0.000355649367038317 	0
1 	2.61749637190832 	-3.12250225675825e-17 	1.11045426368752 	-0.000427569945625662 	0
1 	2.63619435387806 	-3.46944695195361e-17 	1.10829111599756 	-0.000502936729165982 	0
1 	2.65423157945406 	-3.46944695195361e-17 	1.10583196548492 	-0.000581350056975126 	0
1 	2.67163139869691 	-3.46944695195361e-17 	1.10307322670275 	-0.000662492992587999 	0
1 	2.68841633651388 	-3.46944695195361e-17 	1.10001241226633 	-0.000746111610398673 	0
1 	2.70460812181851 	-3.46944695195361e-17 	1.09664843481214 	-0.00083199516833725 	0
1 	2.72022771565972 	-3.46944695195361e-17 	1.09298178369226 	-0.000919956367643551 	0
1 	2.73529533835695 	-3.46944695195361e-17 	1.08901454508189 	-0.00100981205819773 	0
1 	2.74983049567626 	-3.46944695195361e-17 	1.08475024400956 	-0.00110136481936436 	0
1 	2.76385200408157 	-3.46944695195361e-17 	1.0801934997107 	-0.00119438590764862 	0
1 	2.77737801509344 	-3.46944695195361e-17 	1.07534949932085 	-0.00128860023241306 	0
1 	2.79042603878708 	-3.46944695195361e-17 	1.07022330729647 	-0.00138367356054197 	0
1 	2.80301296646004 	-3.12250225675825e-17 	1.06481903493012 	-0.00147920193421472 	0
1 	2.81515509249873 	-3.12250225675825e-17 	1.05913889497699 	-0.00157470327711974 	0
1 	2.82686813547238 	-3.46944695195361e-17 	1.05318216174339 	-0.00166961101924435 	0
1 	2.83816725848143 	-3.81639164714898e-17 	1.04694404698717 	-0.00176326928891445 	0
1 	2.84906708878692 	-4.16333634234434e-17 	1.04041448788557 	-0.00185492918333862 	0
1 	2.85958173674617 	-4.16333634234434e-17 	1.03357682616916 	-0.00194374545040613 	0
1 	2.86972481407934 	-4.16333634234434e-17 	1.02640633814873 	-0.0020287730185844 	0
1 	2.87950945149044 	-4.16333634234434e-17 	1.01886855503248 	-0.00210896293850384 	0
1 	2.88894831566567 	-4.16333634234434e-17 	1.01091729307229 	-0.00218315760723373 	0
1 	2.89805362567107 	-4.16333634234434e-17 	1.00249229350635 	-0.00225008548772626 	0
1 	2.90683716877068 	-4.16333634234434e-17 	0.993516354843449 	-0.00230835621582959 	0
1 	2.9153103156857 	-4.5102810375397e-17 	0.983891827257466 	-0.00235645760041744 	0
1 	2.92348403531449 	-5.20417042793042e-17 	0.973496336273506 	-0.00239275562692245 	0
1 	2.9313689089323 	-5.55111512312578e-17 	0.962177618410094 	-0.00241550076099332 	0
1 	2.93897514388926 	-5.89805981832114e-17 	0.949747394903188 	-0.00242287033458488 	0
1 	2.94631258682426 	-6.24500451351651e-17 	0.935974279537088 	-0.00241312618137197 	0
1 	2.95339073641194 	-6.24500451351651e-17 	0.920573206098607 	-0.00238468554696312 	0
1 	2.96021875565916 	-6.24500451351651e-17 	0.90316979032584 	-0.00233439261237726 	0
1 	2.96680548376698 	-6.59194920871187e-17 	0.883159717196093 	-0.00225830083669157 	0
1 	2.97315944757338 	-6.59194920871187e-17 	0.859763208673772 	-0.00215156909943217 	0
1 	2.97928887259172 	-6.24500451351651e-17 	0.832235808182233 	-0.00201194130043669 	0
1 	2.98520169365903 	-6.59194920871187e-17 	0.799809368931377 	-0.00184117513556959 	0
1 	2.99090556520807 	-6.93889390390723e-17 	0.761630804705697 	-0.0016435581803987 	0
1 	2.99640787117634 	-6.93889390390723e-17 	0.716723670148107 	-0.00142519977634224 	0
1 	3.00171573456493 	-7.28583859910259e-17 	0.663996206971825 	-0.00119382293131504 	0
1 	3.00683602665963 	-7.63278329429795e-17 	0.602264343643221 	-0.000958568400653948 	0
1 	3.01177537592613 	-7.63278329429795e-17 	0.530309754273057 	-0.000730185569471393 	0
1 	3.01654017659086 	-7.63278329429795e-17 	0.446739434429819 	-0.000516327247914409 	0
1 	3.02113659691865 	-7.63278329429795e-17 	0.352117724839762 	-0.000325946599218903 	0
1 	3.02557058719785 	-7.97972798949331e-17 	0.25132714756062 	-0.000171635422361119 	0
1 	3.02984788744325 	-9.36750677027476e-17 	0.149720472920969 	-6.42996561027513e-05 	0
