5 	0.00391112967796266 	1.04083408558608e-17 	0.134827030240663 	2.10055086118081e-05 	812.816319240833 	1.3886259683925e-06 	3.77560687385973e-38
5 	0.0118766651674915 	1.73472347597681e-17 	0.134826119374875 	0.000220342482347708 	265.825017892098 	1.64571181797773e-05 	0
5 	0.0201340015485761 	2.42861286636753e-17 	0.134819525346593 	0.00102272310525296 	64.2545753172537 	5.66592497544023e-05 	0
5 	0.0286938283423949 	2.77555756156289e-17 	0.134807079492453 	0.0026777434926067 	26.1105006308642 	5.62315829097343e-05 	0
5 	0.0375672266585909 	2.77555756156289e-17 	0.134781818834155 	0.00472404535529102 	13.9131669028152 	2.11903615950094e-05 	0
5 	0.0467656835403032 	2.42861286636753e-17 	0.134740357733009 	0.00665126946321577 	8.95022113020325 	4.02973934041661e-05 	0
5 	0.0563011068347005 	2.42861286636753e-17 	0.134684717155004 	0.00832606326106857 	6.52981601297689 	0.000102395067770688 	0
5 	0.0661858406082647 	2.77555756156289e-17 	0.134618659733964 	0.00979107760811687 	5.15515750431332 	0.000177008633494353 	0
5 	0.0764326811267816 	2.42861286636753e-17 	0.134544961677742 	0.0111051110939763 	4.28216302943061 	0.000254096622059456 	0
5 	0.0870548934207257 	1.73472347597681e-17 	0.134465313126479 	0.0123114154987001 	3.68277202886753 	0.000332433329944916 	0
5 	0.0980662284574838 	1.73472347597681e-17 	0.13438090724724 	0.013439607749937 	3.24787342123542 	0.000412588358273021 	0
5 	0.109480940942647 	2.08166817117217e-17 	0.134292735121153 	0.0145102996935866 	2.91941006169886 	0.000495366629980977 	0
5 	0.121313807773416 	2.42861286636753e-17 	0.134201668564241 	0.0155383300272143 	2.66382801089297 	0.000581540431050722 	0
5 	0.13358014716801 	3.12250225675825e-17 	0.134108496706761 	0.016534765164492 	2.46043973502846 	0.000671831110760693 	0
5 	0.141372757573007 	3.12250225675825e-17 	0.13405011134119 	0.0171416129789843 	2.3520694763918 	0.000729780342457023 	0
5 	0.147844961844195 	2.08166817117217e-17 	0.134002591482222 	0.017623573396342 	2.27792264240212 	0.000778584557383277 	0
5 	0.159477342834115 	1.38777878078145e-17 	0.133918777353619 	0.0184654466596347 	2.16036244782127 	0.00086738908781874 	0
5 	0.173141724277517 	1.73472347597681e-17 	0.133823583150514 	0.0194117459299285 	2.04850814132091 	0.000974041666241313 	0
5 	0.18730667202848 	2.42861286636753e-17 	0.133729048292021 	0.0203517286699547 	1.95549359312832 	0.00108759390664834 	0
5 	0.201990523296728 	2.42861286636753e-17 	0.133635828492081 	0.0212893197023329 	1.87791711676718 	0.0012088192362986 	0
5 	0.217212287037676 	2.77555756156289e-17 	0.133544570042373 	0.0222279073090279 	1.81322839084857 	0.00133854548872094 	0
5 	0.232991668560441 	3.46944695195361e-17 	0.133455909449196 	0.0231704553591854 	1.75948380721848 	0.00147766448216495 	0
5 	0.249349095037321 	3.46944695195361e-17 	0.133370471657034 	0.024119580465466 	1.71518208714618 	0.00162714037655619 	0
5 	0.266305741947753 	3.81639164714898e-17 	0.133288867093511 	0.0250776033379148 	1.67915095149115 	0.00178801688284582 	0
5 	0.283883560490998 	4.68375338513738e-17 	0.133211687711997 	0.0260465801327237 	1.65046715299439 	0.00196142319290094 	0
5 	0.30210530600303 	5.55111512312578e-17 	0.133139502125568 	0.0270283173990237 	1.62839881972142 	0.00214857830528946 	0
5 	0.320994567414413 	5.3776427755281e-17 	0.133072849386328 	0.0280243726954703 	1.61236300983213 	0.00235079246487566 	0
5 	0.34057579778732 	5.03069808033274e-17 	0.133012230773986 	0.0290360554280174 	1.60189379686929 	0.00256946267791867 	0
5 	0.3608743459712 	5.03069808033274e-17 	0.13295810600691 	0.030064488490374 	1.59661772738418 	0.00280607451381968 	0
5 	0.38191648941809 	5.20417042793042e-17 	0.132910885379817 	0.0311104068391228 	1.59623441107619 	0.00306218628527686 	0
5 	0.403729468200046 	5.55111512312578e-17 	0.132870915218537 	0.0321741590285858 	1.60050070639955 	0.00333941749005817 	0
5 	0.426341520272733 	6.15826833971767e-17 	0.132838467095107 	0.0332556541568049 	1.60921737546654 	0.00363942061205885 	0
5 	0.449781918030828 	5.98479599211998e-17 	0.132813724406024 	0.0343542825839703 	1.62221731558801 	0.00396384216167754 	0
5 	0.474081006202548 	5.42101086242752e-17 	0.132796764822344 	0.0354688179916287 	1.63935467741826 	0.00431426856832939 	0
5 	0.499270241132363 	5.5944832100252e-17 	0.132787540232956 	0.0365973017068199 	1.66049431003296 	0.00469215135302753 	0
5 	0.525382231502763 	5.20417042793042e-17 	0.132784910312471 	0.0377366604559877 	1.68561856155309 	0.00509964159805531 	0
5 	0.552450780547767 	5.20417042793042e-17 	0.132789315718971 	0.0388829018497524 	1.71447265745682 	0.00553680319069156 	0
5 	0.580510929812849 	5.89805981832114e-17 	0.132800202214911 	0.0400308363740852 	1.74686629845694 	0.00600374585863843 	0
5 	0.60959900451791 	5.89805981832114e-17 	0.132815498143232 	0.0411738491390654 	1.7825867280348 	0.0065001776039078 	0
5 	0.639752660582032 	5.55111512312578e-17 	0.132833514591267 	0.042303714640072 	1.82136714377913 	0.00703918355336003 	0
5 	0.671010933370886 	5.55111512312578e-17 	0.132867825081176 	0.0434118518748367 	1.86292992097984 	0.00772487088294662 	0
5 	0.7034142882299 	5.55111512312578e-17 	0.132944582804254 	0.0444978074826089 	1.90725066876481 	0.00849862641098853 	0
5 	0.737004672868606 	6.24500451351651e-17 	0.133043046472921 	0.0455535554102601 	1.95344855824668 	0.0093752462962781 	0
5 	0.771825571663976 	6.24500451351651e-17 	0.133112893463816 	0.0465375959178152 	1.99861212450668 	0.010237068528203 	0
5 	0.807922061953053 	6.59194920871187e-17 	0.133132532972707 	0.0473897808674453 	2.03861116357037 	0.0109719524938643 	0
5 	0.836221347824492 	7.15573433840433e-17 	0.133114991832312 	0.0479195090402074 	2.06334881575334 	0.0114171455314458 	0
5 	0.855267279223294 	6.80878964320897e-17 	0.133088323031383 	0.0482002109272313 	2.076151448464 	0.0116499820488745 	0
5 	0.884130443427309 	6.59194920871187e-17 	0.133027381006958 	0.0484965867461334 	2.08864502514347 	0.0119070404623143 	0
5 	0.924340990046897 	5.89805981832114e-17 	0.132906714640268 	0.0486816214519734 	2.09362510859828 	0.0121105714398502 	0
5 	0.966024566743242 	5.55111512312578e-17 	0.132735157961242 	0.0485900139792318 	2.0830654951979 	0.0121464826831618 	0
5 	1.00923513492173 	5.55111512312578e-17 	0.132503720614604 	0.0482157443224412 	2.05655366131858 	0.0120140865966556 	0
5 	1.05402863275205 	5.29090660172926e-17 	0.132200981741616 	0.0475638047119868 	2.01444693854323 	0.0117084620911428 	0
5 	1.10046304758287 	5.03069808033274e-17 	0.131814867897442 	0.0466518595344235 	1.95784792388517 	0.0112309830022082 	0
5 	1.14859849100923 	4.45878143434664e-17 	0.131334032231824 	0.0455116778884477 	1.88856907614227 	0.010597718977025 	0
5 	1.19849727668994 	4.02510056535244e-17 	0.130743048480308 	0.0441842371776147 	1.80880288738887 	0.0098392722954075 	0
5 	1.25022400101563 	3.81639164714898e-17 	0.130032887380569 	0.0427300914644347 	1.72171374774645 	0.00900673460360538 	0
5 	1.30384562673185 	3.81639164714898e-17 	0.129206442814406 	0.0412133299354843 	1.63070171636727 	0.00815433485365941 	0
5 	1.35943156962565 	4.16333634234434e-17 	0.128263693470561 	0.0396841514631913 	1.53849852764967 	0.00732443421436782 	0
5 	1.41705378838762 	4.16333634234434e-17 	0.127207923177511 	0.0381807655182643 	1.4473154437163 	0.00654705441277548 	0
5 	1.468577297808 	3.64291929955129e-17 	0.126209358852346 	0.0369195754175411 	1.37047896012232 	0.00592937860668899 	0
5 	1.49898105221177 	3.29597460435593e-17 	0.125602616936062 	0.0362061278607813 	1.32695184926353 	0.00559251081960619 	0
5 	1.53870816513277 	3.81639164714898e-17 	0.124789611812071 	0.0353283373866365 	1.27342621836762 	0.00519845999946076 	0
5 	1.60289781058851 	3.98986399474666e-17 	0.123444531786498 	0.0339887987422532 	1.1921170969052 	0.00462883881441589 	0
5 	1.66943891073266 	4.0766001685455e-17 	0.122017931964142 	0.0327036485017878 	1.11522537489912 	0.00412538071973649 	0
5 	1.73841760623657 	4.81385764583564e-17 	0.120520251321329 	0.0314605326669086 	1.04286570588204 	0.00367954618600835 	0
5 	1.80992319335659 	4.7271214720368e-17 	0.118959177439739 	0.0302447024420615 	0.975171902293183 	0.00328373247610007 	0
5 	1.88404823953248 	3.81639164714898e-17 	0.117348726622739 	0.0290393375014617 	0.912369840104293 	0.00293145984987477 	0
5 	1.96088870322037 	3.46944695195361e-17 	0.11566769673637 	0.0278290075722693 	0.854045391470252 	0.00261247339802021 	0
5 	2.04004996790234 	3.46944695195361e-17 	0.114059441007174 	0.0266152427525231 	0.800519201210392 	0.00232639921247126 	0
5 	2.11873460271874 	3.46944695195361e-17 	0.112448209366701 	0.0254208052227649 	0.751898263660687 	0.00206721774034443 	0
5 	2.19463865000284 	2.77555756156289e-17 	0.110945950850112 	0.024269037297622 	0.708308618554889 	0.00183740228500812 	0
5 	2.26786037121375 	2.08166817117217e-17 	0.10954970854213 	0.0231664627612478 	0.66964716764207 	0.00163302731165152 	0
5 	2.33849455540975 	2.42861286636753e-17 	0.10825437936853 	0.0221174692860113 	0.635729242271485 	0.00144952949395632 	0
5 	2.40663264195736 	2.77555756156289e-17 	0.107059468478894 	0.02112630683891 	0.60623857780493 	0.00128586115656242 	0
5 	2.47236283890404 	2.77555756156289e-17 	0.105965217067864 	0.0201933038109136 	0.580711610813337 	0.00114323951331305 	0
5 	2.5357702371677 	2.77555756156289e-17 	0.104975462268222 	0.0193114368931807 	0.558563640107703 	0.00101668234290418 	0
5 	2.59693692069107 	2.77555756156289e-17 	0.104073155136151 	0.0184721181526549 	0.539280811894214 	0.00090232344204743 	0
5 	2.65594207270333 	2.77555756156289e-17 	0.103236076687384 	0.0176721326929533 	0.522564493818268 	0.000797567974804538 	0
5 	2.71286207822658 	2.77555756156289e-17 	0.102459414518955 	0.0169116734803155 	0.508239522734067 	0.000700084114117261 	0
5 	2.76777062295999 	2.77555756156289e-17 	0.101739756717922 	0.016190710994426 	0.496157120781289 	0.000610177113589335 	0
5 	2.82073878866949 	2.77555756156289e-17 	0.101072850085844 	0.0155083998645316 	0.486181864931731 	0.000528302610780236 	0
5 	2.87183514520654 	2.77555756156289e-17 	0.100454797457242 	0.0148633692197217 	0.478198003335101 	0.000454320667674878 	0
5 	2.92112583927514 	3.12250225675825e-17 	0.0998819846277037 	0.0142539529632807 	0.472112650204567 	0.000387805121329096 	0
5 	2.96867468006189 	3.46944695195361e-17 	0.0993510485453747 	0.013678354303111 	0.467856996992565 	0.000328214618942498 	0
