2 	0.00391112967796275 	3.46944695195361e-18 	-0.0109539311892506 	0.00016033729324653 	7.6148851890201e-22
2 	0.0118766651674914 	1.73472347597681e-17 	-0.0349114798761114 	0.000881863472300489 	5.82189521587955e-21
2 	0.020134001548576 	2.08166817117217e-17 	-0.061642658316509 	0.0022289170286554 	6.7868931440382e-21
2 	0.0286938283423949 	2.08166817117217e-17 	-0.0893784728986526 	0.00412013220515493 	4.99038131792525e-21
2 	0.0375672266585909 	2.08166817117217e-17 	-0.114693519837413 	0.00631320060967212 	1.20820917035457e-21
2 	0.0467656835403032 	6.93889390390723e-18 	-0.134250463103523 	0.00849934695785334 	1.27760297520782e-21
2 	0.0563011068347006 	-3.46944695195361e-18 	-0.14717317578126 	0.0104711264160346 	5.89226296922835e-22
2 	0.0661858406082648 	-1.38777878078145e-17 	-0.154782010313297 	0.0121837116012155 	7.46897875970055e-18
2 	0.0764326811267815 	-1.73472347597681e-17 	-0.158850221224343 	0.0136801006192197 	5.46106273551129e-17
2 	0.0870548934207257 	-1.38777878078145e-17 	-0.160691052025483 	0.0150162267726916 	-4.1782079725688e-17
2 	0.0980662284574838 	-1.73472347597681e-17 	-0.161103917586519 	0.0162350844624624 	-5.3460511857739e-18
2 	0.109480940942647 	-2.42861286636753e-17 	-0.160550688322859 	0.0173657812453678 	-2.43834368209148e-22
2 	0.121313807773416 	-2.42861286636753e-17 	-0.159300296365051 	0.0184275141765301 	-1.41644004452961e-21
2 	0.13358014716801 	-2.08166817117217e-17 	-0.157513468394092 	0.019432905941608 	-1.19029324963207e-21
2 	0.146295838495839 	-2.08166817117217e-17 	-0.155288643451125 	0.0203902204870634 	9.57575714497142e-18
2 	0.159477342834115 	-2.08166817117217e-17 	-0.152686889414221 	0.0213047648363195 	9.60783942248903e-18
2 	0.173141724277517 	-2.08166817117217e-17 	-0.149745808308355 	0.022179761940841 	-7.63634299267922e-18
2 	0.18730667202848 	-1.73472347597681e-17 	-0.146487569850144 	0.0230168916965171 	-7.62771308147089e-18
2 	0.201990523296728 	-1.38777878078145e-17 	-0.142923707203048 	0.0238166246138418 	1.62960050822138e-21
2 	0.217212287037676 	-1.38777878078145e-17 	-0.139058056955312 	0.0245784225317836 	1.77773012473842e-22
2 	0.232991668560441 	-1.38777878078145e-17 	-0.134888591311213 	0.0253008499259301 	1.70887174081607e-21
2 	0.249349095037321 	-2.08166817117217e-17 	-0.130408559381453 	0.0259816211223901 	1.23227213194256e-22
2 	0.266305741947753 	-2.77555756156289e-17 	-0.125607174614744 	0.0266175977311274 	-2.96654449989805e-21
2 	0.283883560490999 	-2.42861286636753e-17 	-0.120469982820922 	0.0272047436445482 	3.02240768692725e-21
2 	0.30210530600303 	-2.08166817117217e-17 	-0.114978982521812 	0.0277380402272396 	3.06036417815179e-21
2 	0.320994567414414 	-2.77555756156289e-17 	-0.109112526613733 	0.028211360874499 	-5.66177813912695e-23
2 	0.340575797787321 	-3.12250225675825e-17 	-0.102844999906934 	0.0286173014104088 	-8.84703662301607e-23
2 	0.360874345971201 	-3.46944695195361e-17 	-0.0961462330154496 	0.0289469606659817 	1.92906253353741e-18
2 	0.381916489418091 	-4.85722573273506e-17 	-0.0889805723004207 	0.0291896641927891 	1.03058014547381e-16
2 	0.403729468200046 	-4.23923049441832e-17 	-0.0813050697728603 	0.0293326838066307 	-1.0912951497942e-16
2 	0.426341520272733 	-3.15502832193282e-17 	-0.0730586558169563 	0.0293612662203408 	-5.5753705129e-19
2 	0.449781918030829 	-3.25260651745651e-17 	-0.0641842224595398 	0.0292552338404779 	1.26593035162028e-22
2 	0.474081006202548 	-3.20923843055709e-17 	-0.054599689255772 	0.0289926070306836 	3.45450404412649e-18
2 	0.499270241132364 	-2.94902990916057e-17 	-0.0441982589586165 	0.0285474664369577 	9.74690869031247e-17
2 	0.525382231502763 	-3.03576608295941e-17 	-0.0328373069710789 	0.027889869208428 	-9.20466386357417e-17
2 	0.552450780547767 	-3.90312782094782e-17 	-0.0203217609027396 	0.0269872648951929 	-7.44706313323703e-18
2 	0.58051092981285 	-4.9439619065339e-17 	-0.00638124035969907 	0.0258082201923061 	5.87920660566935e-21
2 	0.609599004517911 	-5.03069808033274e-17 	0.00934550458530321 	0.0243225877134681 	-4.1493529192102e-21
2 	0.639752660582033 	-4.16333634234434e-17 	0.027288165042545 	0.0225018712267476 	6.89484394850624e-22
2 	0.671010933370887 	-3.29597460435593e-17 	0.0479124554971294 	0.0203341393616852 	-8.4527228902038e-21
2 	0.703414288229901 	-2.42861286636753e-17 	0.0718693644052995 	0.0177972741449118 	5.40754981015904e-21
2 	0.737004672868607 	-2.08166817117217e-17 	0.100684047333701 	0.014771246828734 	-8.99132676590176e-21
2 	0.771825571663977 	-2.08166817117217e-17 	0.1363580527245 	0.0111270729594271 	-7.51534078589207e-21
2 	0.807922061953054 	-1.04083408558608e-17 	0.179818327286978 	0.00689601966322947 	-9.83581833906381e-21
2 	0.845340872387743 	3.46944695195361e-18 	0.230500591339666 	0.00233187204000042 	-1.30333183568483e-17
2 	0.884130443427309 	1.38777878078145e-17 	0.286913758437752 	-0.00222261057742144 	-3.39903165531348e-17
2 	0.924340990046897 	2.42861286636753e-17 	0.347580433774225 	-0.00645907947055398 	2.34159580011285e-17
2 	0.953974676970842 	2.99239799605999e-17 	0.392938008662953 	-0.00915200264102548 	2.4955278823737e-17
2 	0.975194291935934 	2.99239799605999e-17 	0.425590194259668 	-0.0107557808478954 	8.7813822918604e-18
2 	1.00924605669773 	3.46944695195361e-17 	0.477719048677625 	-0.0127402069130233 	5.29403593920707e-21
2 	1.05404932893872 	3.81639164714898e-17 	0.544729190318441 	-0.014254841994755 	4.09004218664903e-21
2 	1.10049289270005 	4.5102810375397e-17 	0.609584184508949 	-0.0146090225135397 	-2.97098349614715e-21
2 	1.1486367561192 	6.24500451351651e-17 	0.669049150839078 	-0.0141690318291735 	-2.81055607691317e-21
2 	1.19854311870798 	6.93889390390723e-17 	0.721030028151153 	-0.0134334289599688 	-9.09458238786431e-22
2 	1.25027645100039 	6.93889390390723e-17 	0.765258033792918 	-0.012779906296224 	2.96298989560322e-21
2 	1.30390357705621 	6.93889390390723e-17 	0.802911759514551 	-0.0123781795243539 	1.14822115635622e-20
2 	1.35949375991811 	6.24500451351651e-17 	0.835719674089359 	-0.0122278284859817 	-5.73620523444818e-22
2 	1.41711879012317 	5.55111512312578e-17 	0.865250251708671 	-0.0122404744673997 	2.61566972549287e-20
2 	1.47685307737193 	5.94142790522056e-17 	0.892614734044697 	-0.0123049553472857 	6.68586834300618e-24
2 	1.53877374546149 	6.50521303491303e-17 	0.918403671984054 	-0.012324236617815 	-1.18946963863099e-20
2 	1.60296073059122 	7.32920668600201e-17 	0.942926206136679 	-0.0122364495881021 	-1.16625285412126e-20
2 	1.66949688315289 	7.97972798949331e-17 	0.966257549523773 	-0.0120188147064023 	-1.10487745734399e-21
2 	1.73846807311896 	7.45931094670027e-17 	0.988359940254403 	-0.011669698173983 	2.19003770167031e-20
2 	1.80996329914586 	7.28583859910259e-17 	1.00912624951324 	-0.011201538387159 	1.48322479833335e-20
2 	1.88407480151058 	7.28583859910259e-17 	1.02841344253373 	-0.0106374874463852 	2.18840098480038e-21
2 	1.96089817900171 	6.93889390390723e-17 	1.04523102810043 	-0.0100393609409713 	3.92084303622694e-21
2 	2.02025965173184 	7.28583859910259e-17 	1.05742978335117 	-0.00954247159473321 	2.53076796849723e-21
2 	2.06006301192217 	7.97972798949331e-17 	1.06574425825631 	-0.00916392489644115 	0
2 	2.09845978584128 	8.32667268468867e-17 	1.0724305997701 	-0.00883077270428423 	0
2 	2.13549967996945 	8.32667268468867e-17 	1.07840615137117 	-0.00851233563359234 	0
2 	2.17123064424048 	8.32667268468867e-17 	1.08373862929288 	-0.00820752064057664 	0
2 	2.20569893411515 	8.32667268468867e-17 	1.08848652273491 	-0.00791655195459365 	0
2 	2.23894917046122 	8.32667268468867e-17 	1.0927003115312 	-0.00763915244048102 	0
2 	2.27102439731725 	7.97972798949331e-17 	1.09642342179747 	-0.0073747701724918 	0
2 	2.30196613761521 	7.97972798949331e-17 	1.09969298256277 	-0.00712270872959682 	0
2 	2.33181444693391 	7.97972798949331e-17 	1.10254044002254 	-0.00688219541142831 	0
2 	2.3606079653529 	7.28583859910259e-17 	1.10499207104622 	-0.00665243107636545 	0
2 	2.3883839674739 	7.28583859910259e-17 	1.10706942128497 	-0.00643262672697486 	0
2 	2.41517841067461 	7.97972798949331e-17 	1.10878968185939 	-0.0062220273832088 	0
2 	2.44102598165722 	8.32667268468867e-17 	1.11016601291945 	-0.00601992594977804 	0
2 	2.46596014135207 	8.32667268468867e-17 	1.11120782056117 	-0.00582566980427642 	0
2 	2.49001316823443 	8.32667268468867e-17 	1.11192099396244 	-0.00563866237337957 	0
2 	2.51321620011054 	8.32667268468867e-17 	1.11230811105248 	-0.00545836149600198 	0
2 	2.535599274427 	8.32667268468867e-17 	1.11236862291176 	-0.00528427593270582 	0
2 	2.55719136715571 	8.32667268468867e-17 	1.11209902903461 	-0.00511596099975429 	0
2 	2.57802043030465 	7.97972798949331e-17 	1.11149305729127 	-0.00495301400013267 	0
2 	2.59811342810315 	7.63278329429795e-17 	1.11054186357302 	-0.00479506988894151 	0
2 	2.61749637190832 	7.63278329429795e-17 	1.10923426626586 	-0.00464179743374804 	0
2 	2.63619435387806 	7.63278329429795e-17 	1.10755702933437 	-0.00449289599662824 	0
2 	2.65423157945406 	7.63278329429795e-17 	1.10549520433267 	-0.00434809296017902 	0
2 	2.67163139869691 	7.97972798949331e-17 	1.10303253563501 	-0.00420714173471487 	0
2 	2.68841633651388 	8.32667268468867e-17 	1.10015192448177 	-0.00406982021277879 	0
2 	2.7046081218185 	7.97972798949331e-17 	1.09683593654585 	-0.00393592947946957 	0
2 	2.72022771565972 	7.63278329429795e-17 	1.0930673258766 	-0.00380529254663553 	0
2 	2.73529533835694 	7.63278329429795e-17 	1.08882953723233 	-0.00367775286193549 	0
2 	2.74983049567625 	7.97972798949331e-17 	1.08410714130777 	-0.00355317235612283 	0
2 	2.76385200408156 	8.32667268468867e-17 	1.07888615530452 	-0.00343142883635815 	0
2 	2.77737801509343 	8.32667268468867e-17 	1.0731542058141 	-0.00331241260694608 	0
2 	2.79042603878708 	8.32667268468867e-17 	1.06690050170468 	-0.00319602229258141 	0
2 	2.80301296646003 	8.32667268468867e-17 	1.06011559964816 	-0.00308215993979935 	0
2 	2.81515509249872 	8.32667268468867e-17 	1.05279096100872 	-0.0029707255662204 	0
2 	2.82686813547237 	8.32667268468867e-17 	1.04491831272725 	-0.00286161140439868 	0
2 	2.83816725848142 	8.32667268468867e-17 	1.03648883396569 	-0.00275469614546761 	0
2 	2.84906708878691 	8.67361737988404e-17 	1.02749219330294 	-0.00264983953358506 	0
2 	2.85958173674616 	8.67361737988404e-17 	1.01791545824834 	-0.00254687768212662 	0
2 	2.86972481407933 	8.32667268468867e-17 	1.007741890814 	-0.00244561938273315 	0
2 	2.87950945149043 	8.32667268468867e-17 	0.996949631320098 	-0.00234584361900288 	0
2 	2.88894831566566 	8.67361737988404e-17 	0.985510258730077 	-0.00224729986030797 	0
2 	2.89805362567106 	9.0205620750794e-17 	0.973387197708571 	-0.00214971972822387 	0
2 	2.90683716877067 	9.0205620750794e-17 	0.960532872550991 	-0.00205279277403609 	0
2 	2.91531031568569 	9.0205620750794e-17 	0.946876599382738 	-0.001956078784247 	0
2 	2.92348403531448 	9.0205620750794e-17 	0.932311168279946 	-0.00185891799595413 	0
2 	2.93136890893229 	9.0205620750794e-17 	0.91670482890213 	-0.00176049290449672 	0
2 	2.93897514388925 	9.0205620750794e-17 	0.899919017890379 	-0.00165999074768475 	0
2 	2.94631258682425 	9.0205620750794e-17 	0.881798581603716 	-0.00155664938637933 	0
2 	2.95339073641193 	9.0205620750794e-17 	0.862152193976536 	-0.00144981888773501 	0
2 	2.96021875565915 	9.0205620750794e-17 	0.840739774391748 	-0.00133910176408292 	0
2 	2.96680548376697 	9.0205620750794e-17 	0.817261938065094 	-0.00122445433202333 	0
2 	2.97315944757337 	9.0205620750794e-17 	0.791347258654291 	-0.00110624883132092 	0
2 	2.97928887259171 	9.0205620750794e-17 	0.762533932323166 	-0.000985297705347867 	0
2 	2.98520169365902 	9.0205620750794e-17 	0.730243010803258 	-0.000862846794159313 	0
2 	2.99090556520806 	9.0205620750794e-17 	0.693738897594789 	-0.000740526313905961 	0
2 	2.99640787117633 	8.67361737988404e-17 	0.652081507506336 	-0.000620271605227198 	0
2 	3.00171573456492 	8.67361737988404e-17 	0.604086402890899 	-0.000504320268091544 	0
2 	3.00683602665962 	9.0205620750794e-17 	0.548249657462124 	-0.000395018000969193 	0
2 	3.01177537592612 	9.0205620750794e-17 	0.482712545537236 	-0.000294380534776926 	0
2 	3.01654017659085 	9.0205620750794e-17 	0.406089385285498 	-0.000204274721979202 	0
2 	3.02113659691864 	9.0205620750794e-17 	0.319564336454342 	-0.000127423368370727 	0
2 	3.02557058719784 	9.0205620750794e-17 	0.227593543041133 	-6.74408741211987e-05 	0
2 	3.02984788744324 	9.0205620750794e-17 	0.13517205547268 	-2.69422122304644e-05 	0
