# Wall shear stress
# Time        	patch         	min           	max           
1.109000e+03	wallTop	(-7.962115e+00 -3.235409e-16 -1.527145e-16)	(-3.139240e-02 3.109377e-16 1.880758e-16)
1.109000e+03	wallSide	(-6.258897e+00 -2.241034e-16 -2.510206e-17)	(-3.083152e-02 6.717324e-17 1.850271e-17)
