8 	0.445235312119664 	-2.08166817117217e-17 	0.193975010657834 	0.0199073327577319 	1.83302990111532e-17
8 	0.455704834779478 	-2.77555756156289e-17 	0.198461332587347 	0.019920373428017 	5.1099671929306e-17
8 	0.469710606414533 	-2.42861286636753e-17 	0.20451116659479 	0.0199471195622816 	2.8851863265432e-17
8 	0.491846043955708 	-2.08166817117217e-17 	0.214175058155516 	0.0200058602702199 	3.67393936625928e-20
8 	0.514778287483577 	-2.77555756156289e-17 	0.224342312734094 	0.0200953830318165 	-3.66758217750967e-20
8 	0.538535484544895 	-3.12250225675825e-17 	0.235058235266038 	0.0202231645799785 	5.31691779870277e-17
8 	0.563146737069756 	-3.12250225675825e-17 	0.24640360271643 	0.0203922502769526 	9.58261846261478e-17
8 	0.588642130718527 	-2.42861286636753e-17 	0.258507569349328 	0.0206010416003218 	-1.11140645988863e-16
8 	0.615052764897376 	-1.04083408558608e-17 	0.271530990943534 	0.0208477222132114 	-4.6273209576777e-17
8 	0.642410783437945 	-1.04083408558608e-17 	0.285647434130267 	0.0211285437200396 	-6.74997133547497e-20
8 	0.670749405934574 	-1.04083408558608e-17 	0.301020480544143 	0.0214476938635377 	6.04576996921622e-21
8 	0.700102959730073 	-8.67361737988404e-18 	0.317795816528198 	0.0218174930325634 	1.88270468026804e-19
8 	0.730506912538453 	1.73472347597681e-18 	0.336088351026145 	0.0222562363225562 	-2.1826689471243e-19
8 	0.761997905690176 	1.21430643318376e-17 	0.355963832173525 	0.0227834650771422 	4.64053077363027e-21
8 	0.794613787982349 	1.21430643318376e-17 	0.377430840717579 	0.0234149278883773 	3.02453441916135e-20
8 	0.828393650112923 	1.38777878078145e-17 	0.400446390539899 	0.0241595958695925 	2.82803181684932e-19
8 	0.863377859674246 	1.47451495458029e-17 	0.424930789609324 	0.0250187684978795 	-6.83220758003974e-19
7.99999999999999 	0.899608096677278 	1.47451495458029e-17 	0.45078379589765 	0.0259869314372485 	3.04528644167323e-19
7.99999999999999 	0.937127389573462 	1.69135538907739e-17 	0.477894766290425 	0.0270534531957406 	3.79527145942622e-20
7.99999999999999 	0.975980151736475 	1.90819582357449e-17 	0.506143234532103 	0.028203986510073 	-4.23049685699002e-17
7.99999999999999 	1.01621221836095 	1.25767452008319e-17 	0.535390892818492 	0.0294208270796271 	-3.52880328595002e-15
7.99999999999999 	1.05787088372979 	6.93889390390723e-18 	0.565519962958824 	0.030691662646194 	3.26350449529812e-15
7.99999999999999 	1.1010049387955 	6.93889390390723e-18 	0.596280613654997 	0.0319812912360184 	1.05830432548284e-16
7.99999999999999 	1.14566470901487 	1.04083408558608e-17 	0.62738172648503 	0.0332494088028822 	3.87683306294303e-19
7.99999999999999 	1.1919020923689 	1.38777878078145e-17 	0.658522603821966 	0.0344554556050148 	-3.7277623138414e-19
7.99999999999999 	1.23977059749267 	1.38777878078145e-17 	0.689375963109656 	0.0355547568762346 	-2.6703418834535e-20
7.99999999999999 	1.28932538183168 	1.38777878078145e-17 	0.719606771446562 	0.0365011625420206 	-9.92685703321264e-20
7.99999999999999 	1.34062328973247 	6.93889390390723e-18 	0.748896581895136 	0.0372497172488114 	7.37957654457141e-21
7.99999999999999 	1.39372289036593 	3.46944695195361e-18 	0.776978583131671 	0.037762017354341 	1.39525556896968e-19
7.99999999999999 	1.44868451537184 	1.38777878078145e-17 	0.803671609724961 	0.0380119006925896 	5.51386952242422e-21
7.99999999999999 	1.50557029610222 	1.73472347597681e-17 	0.828883874981654 	0.0379877425841626 	4.740439902552e-20
7.99999999999999 	1.56444420032979 	1.04083408558608e-17 	0.852587710151232 	0.0376904694903301 	4.71488327308093e-20
7.99999999999999 	1.60125821015668 	1.73472347597681e-18 	0.866440835623373 	0.0373967272470029 	3.7290535663676e-20
7.99999999999999 	1.63225974854651 	-5.20417042793042e-18 	0.877198488539891 	0.0370597269149587 	2.33360815363204e-20
7.99999999999999 	1.68846715954752 	-1.38777878078145e-17 	0.895602955735495 	0.0363390002084848 	7.91607487166176e-21
7.99999999999999 	1.75372829627876 	-1.73472347597681e-17 	0.914910516989996 	0.0353116891735256 	1.04544602413615e-22
7.99999999999999 	1.82123614698517 	-1.21430643318376e-17 	0.932722123879048 	0.0340695505272507 	-3.69196879245281e-21
7.99999999999999 	1.89106286097981 	-1.56125112837913e-17 	0.949003094626546 	0.0326270818121892 	-2.81546741142412e-20
7.99999999999999 	1.96328253671743 	-2.60208521396521e-17 	0.96345999944923 	0.0310286514645984 	4.30176131490664e-20
7.99999999999999 	2.02025965173184 	-2.77555756156289e-17 	0.973738284514479 	0.0296878501535489 	2.49914281911352e-21
7.99999999999999 	2.06006301192217 	-2.77555756156289e-17 	0.980578679344245 	0.0287451922625391 	0
7.99999999999999 	2.09845978584128 	-3.12250225675825e-17 	0.986625387767919 	0.0278537072709953 	0
7.99999999999999 	2.13549967996945 	-3.12250225675825e-17 	0.992118697933643 	0.0269972908111542 	0
7.99999999999999 	2.17123064424048 	-3.12250225675825e-17 	0.997087533803439 	0.0261746417268941 	0
7.99999999999999 	2.20569893411515 	-3.12250225675825e-17 	1.00156030237825 	0.0253823215831023 	0
7.99999999999999 	2.23894917046122 	-3.12250225675825e-17 	1.00556399468068 	0.0246181782450749 	0
7.99999999999999 	2.27102439731725 	-3.12250225675825e-17 	1.0091234953644 	0.0238806192524341 	0
7.99999999999999 	2.30196613761521 	-3.12250225675825e-17 	1.01226113403651 	0.0231682719822996 	0
7.99999999999999 	2.33181444693391 	-3.46944695195361e-17 	1.01499642462354 	0.0224799205847138 	0
7.99999999999999 	2.3606079653529 	-3.81639164714898e-17 	1.01734592699576 	0.0218144634975086 	0
7.99999999999999 	2.3883839674739 	-4.16333634234434e-17 	1.01932318376373 	0.0211708741237957 	0
7.99999999999999 	2.41517841067461 	-4.85722573273506e-17 	1.0209387015232 	0.020548174064983 	0
7.99999999999999 	2.44102598165722 	-5.20417042793042e-17 	1.02219995671959 	0.0199454168158048 	0
7.99999999999999 	2.46596014135207 	-5.55111512312578e-17 	1.02311141425395 	0.0193616782206976 	0
7.99999999999999 	2.49001316823443 	-5.3776427755281e-17 	1.02367455318444 	0.0187960513499894 	0
7.99999999999999 	2.51321620011054 	-4.85722573273506e-17 	1.0238878989801 	0.0182476442872478 	0
7.99999999999999 	2.535599274427 	-4.68375338513738e-17 	1.02374706617227 	0.0177155797677775 	0
7.99999999999999 	2.55719136715571 	-4.85722573273506e-17 	1.02324481917113 	0.017198995925851 	0
7.99999999999999 	2.57802043030465 	-5.20417042793042e-17 	1.02237116252347 	0.0166970476338675 	0
7.99999999999999 	2.59811342810315 	-4.85722573273506e-17 	1.0211134748222 	0.016208908061536 	0
7.99999999999999 	2.61749637190832 	-4.5102810375397e-17 	1.01945670244815 	0.0157337701673705 	0
7.99999999999999 	2.63619435387806 	-4.5102810375397e-17 	1.01738362973179 	0.0152708478789861 	0
7.99999999999999 	2.65423157945406 	-4.85722573273506e-17 	1.01487524022531 	0.0148193767421109 	0
7.99999999999999 	2.67163139869691 	-5.55111512312578e-17 	1.01191117886171 	0.0143786138395913 	0
7.99999999999999 	2.68841633651388 	-5.89805981832114e-17 	1.00847031640973 	0.0139478368189661 	0
7.99999999999999 	2.7046081218185 	-5.89805981832114e-17 	1.00453140597462 	0.0135263419357071 	0
7.99999999999999 	2.72022771565972 	-5.89805981832114e-17 	1.00007380737049 	0.013113441128269 	0
7.99999999999999 	2.73529533835694 	-6.24500451351651e-17 	0.995078240966409 	0.0127084582891684 	1.78167809383018e-16
7.99999999999999 	2.74983049567625 	-6.24500451351651e-17 	0.989527520732944 	0.0123107250578979 	1.71667012130509e-16
7.99999999999999 	2.76385200408156 	-6.24500451351651e-17 	0.983407209386237 	0.011919576575786 	-1.91114884191693e-16
7.99999999999999 	2.77737801509343 	-6.59194920871187e-17 	0.976706138658652 	0.011534347745524 	-1.84614086939206e-16
7.99999999999999 	2.79042603878708 	-6.59194920871187e-17 	0.96941674522372 	0.011154371127566 	0
7.99999999999999 	2.80301296646003 	-6.24500451351651e-17 	0.961535186314972 	0.0107789784264242 	0
7.99999999999999 	2.81515509249872 	-5.89805981832114e-17 	0.95306121590211 	0.010407500825057 	0
7.99999999999999 	2.82686813547237 	-6.24500451351651e-17 	0.943997819164304 	0.010039240642752 	0
7.99999999999999 	2.83816725848142 	-6.59194920871187e-17 	0.934350616228509 	0.00967344457876475 	0
7.99999999999999 	2.84906708878691 	-6.59194920871187e-17 	0.924124928659845 	0.0093096792098044 	0
7.99999999999999 	2.85958173674616 	-6.59194920871187e-17 	0.913300229812645 	0.00894737516730057 	0
7.99999999999999 	2.86972481407933 	-7.28583859910259e-17 	0.901791537495003 	0.00858453527704984 	0
7.99999999999999 	2.87950945149043 	-8.32667268468867e-17 	0.889529240841701 	0.00821904027843456 	0
7.99999999999999 	2.88894831566566 	-8.50014503228635e-17 	0.876540504734435 	0.00785063262526652 	0
7.99999999999999 	2.89805362567106 	-8.32667268468867e-17 	0.862899223453434 	0.0074788791529857 	0
7.99999999999999 	2.90683716877067 	-8.32667268468867e-17 	0.848685490013535 	0.0071034389870796 	0
7.99999999999999 	2.91531031568569 	-8.32667268468867e-17 	0.833964651195523 	0.00672405472026765 	0
7.99999999999999 	2.92348403531448 	-8.32667268468867e-17 	0.818779261814953 	0.00634033148451976 	0
7.99999999999999 	2.93136890893229 	-8.32667268468867e-17 	0.803145547735877 	0.00595167244808 	0
7.99999999999999 	2.93897514388925 	-7.97972798949331e-17 	0.7870443635867 	0.00555785774359358 	0
7.99999999999999 	2.94631258682425 	-7.63278329429795e-17 	0.770395298872025 	0.00516021567800501 	0
7.99999999999999 	2.95339073641193 	-7.97972798949331e-17 	0.753032004976646 	0.00475979542825739 	0
7.99999999999999 	2.96021875565915 	-8.32667268468867e-17 	0.734749827707345 	0.00435869465766586 	0
7.99999999999999 	2.96680548376697 	-8.67361737988404e-17 	0.715327506392736 	0.00395873087726504 	0
7.99999999999999 	2.97315944757337 	-8.67361737988404e-17 	0.694471879680466 	0.00356084685993009 	0
7.99999999999999 	2.97928887259171 	-7.97972798949331e-17 	0.671785091848884 	0.00316622765199955 	0
7.99999999999999 	2.98520169365902 	-7.63278329429795e-17 	0.646721937673356 	0.0027763946163525 	0
7.99999999999999 	2.99090556520806 	-7.63278329429795e-17 	0.618527235218318 	0.00239325564857636 	0
7.99999999999999 	2.99640787117633 	-7.63278329429795e-17 	0.58614203797327 	0.00201937801632877 	0
7.99999999999999 	3.00171573456492 	-7.28583859910259e-17 	0.54809995599015 	0.00165768573928045 	0
7.99999999999999 	3.00683602665962 	-7.28583859910259e-17 	0.502429751664963 	0.00131226177904525 	0
7.99999999999999 	3.01177537592612 	-7.63278329429795e-17 	0.44677957102088 	0.000987345127131619 	0
7.99999999999999 	3.01654017659085 	-7.63278329429795e-17 	0.379411726823638 	0.000689489918273788 	0
7.99999999999999 	3.02113659691864 	-7.97972798949331e-17 	0.301322547401246 	0.000430232570162639 	0
7.99999999999999 	3.02557058719784 	-7.97972798949331e-17 	0.216888489024117 	0.000224539067353651 	0
7.99999999999999 	3.02984788744324 	-7.63278329429795e-17 	0.130459875729171 	8.40068388391156e-05 	0
