8 	0.451351328258348 	2.42861286636753e-17 	1.22499094107158 	9.59955739128011e-05 	1071.80957381816 	4.34348019399776e-07
8 	0.457856884620643 	2.08166817117217e-17 	1.22481966570852 	0.000983352846604246 	296.155278679734 	9.88394551072071e-06
8 	0.464597494115106 	2.42861286636753e-17 	1.22459491269953 	0.00401700728492856 	75.2129296684119 	7.85084639947824e-05
8 	0.471581531993148 	2.42861286636753e-17 	1.22427997791424 	0.0080102312153977 	32.2675581303756 	0.000288248126671195
8 	0.478817663648092 	2.08166817117217e-17 	1.22383831785986 	0.0113766373320489 	18.6700368136163 	0.000648707596155543
8 	0.486314854098318 	2.25514051876985e-17 	1.22328478084572 	0.014037697011139 	12.8445339783575 	0.00112689397831475
8 	0.49408237774287 	1.56125112837913e-17 	1.22264529766421 	0.0162299640016717 	9.74351078508052 	0.00169468871353093
8 	0.502129828395036 	1.04083408558608e-17 	1.22193388544422 	0.0181164605294544 	7.84478392505112 	0.00233420449404334
8 	0.510467129599323 	2.08166817117217e-17 	1.22115733730295 	0.019793143141291 	6.57150781037455 	0.00303340756795063
8 	0.519104545237329 	2.08166817117217e-17 	1.2203203567825 	0.0213186515309698 	5.66286275415428 	0.00378321902640019
8 	0.528052690427915 	1.73472347597681e-17 	1.21942669558145 	0.0227308980764973 	4.98486956961018 	0.00457607513831327
8 	0.537322542727032 	2.08166817117217e-17 	1.21847939220019 	0.0240556370876276 	4.46194797516174 	0.00540519445392141
8 	0.546925453632554 	1.90819582357449e-17 	1.21748102736678 	0.0253110721565636 	4.04833080058121 	0.0062641758083093
8 	0.556873160399407 	1.47451495458029e-17 	1.21643391390242 	0.026510472470933 	3.7147335693324 	0.00714676032266314
8 	0.567177798170198 	1.82145964977565e-17 	1.2153402292321 	0.0276637362667288 	3.44157923534627 	0.00804668019624302
8 	0.577851912426569 	2.25514051876985e-17 	1.21420225331598 	0.0287783673955832 	3.21530966155597 	0.00895755603808907
8 	0.58890847176635 	2.51534904016637e-17 	1.21302242954156 	0.0298601090663893 	3.02626218188478 	0.00987282240560472
8 	0.600360881011604 	2.94902990916057e-17 	1.21180098094354 	0.0309133623174549 	2.86738888894674 	0.0107856702909173
8 	0.612222994652597 	3.12250225675825e-17 	1.21053359690438 	0.0319414532384592 	2.73345122173589 	0.0116890069989965
8 	0.624509130632625 	2.86229373536173e-17 	1.20924702035494 	0.0329470731623941 	2.62047407835658 	0.0125735028933295
8 	0.637234084478675 	2.73218947466347e-17 	1.20805195262088 	0.0339374548142274 	2.52484109640916 	0.0133017598134946
8 	0.65041314378278 	2.77555756156289e-17 	1.20702017012286 	0.0349335482749989 	2.44245502648955 	0.0135236770134202
8 	0.664062103038993 	2.86229373536173e-17 	1.20603940376562 	0.0359533080349269 	2.37068468463672 	0.0136747397253521
8 	0.678197278840822 	2.57226965422186e-17 	1.20499375191049 	0.0369963632918081 	2.30892827610988 	0.0138198425338255
8 	0.692835525444093 	2.52890156732244e-17 	1.20386679393174 	0.0380593625111735 	2.25690094307202 	0.0139506115964034
8 	0.707994250700163 	2.77555756156289e-17 	1.20265567841353 	0.0391380654256197 	2.2142107673646 	0.014071978450356
8 	0.723691432364531 	2.42861286636753e-17 	1.20136994963603 	0.0402265363949372 	2.18024120776935 	0.0141881520507206
8 	0.739945634786034 	2.08166817117217e-17 	1.20000460288644 	0.0413182097077565 	2.15446427833231 	0.0142997901805216
8 	0.756776025981913 	2.08166817117217e-17 	1.19855597224894 	0.0424055671067302 	2.13627753969572 	0.0144074940756413
8 	0.77420239510431 	2.08166817117217e-17 	1.19702052518638 	0.0434800966641014 	2.12499918913286 	0.0145121505318751
8 	0.792245170304006 	2.42861286636753e-17 	1.19539481564128 	0.044532265703982 	2.11986531047108 	0.0146146826414282
8 	0.810925436997537 	2.42861286636753e-17 	1.19367566409488 	0.0455515282902058 	2.12002924630585 	0.0147160106509998
8 	0.830264956544259 	2.42861286636753e-17 	1.19186025033203 	0.0465263684056321 	2.12456405827409 	0.0148170197313473
8 	0.850286185340416 	2.08166817117217e-17 	1.18994622786085 	0.0474443877602415 	2.13246878967409 	0.0149184756944741
8 	0.871012294337907 	1.04083408558608e-17 	1.18793189171516 	0.0482924445587935 	2.14267902010221 	0.0150209223967093
8 	0.892467188996067 	3.46944695195361e-18 	1.18581638511941 	0.0490568426934614 	2.15408178493555 	0.015124584264363
8 	0.914675529675727 	-3.46944695195361e-18 	1.18359993068912 	0.0497235638370575 	2.1655343131956 	0.0152292935221124
8 	0.93766275248567 	-3.46944695195361e-18 	1.18128406751763 	0.0502785291796135 	2.17588538292393 	0.0153344631946094
8.00000000000001 	0.961455090592773 	0 	1.17887186918971 	0.0507078753619847 	2.18399764817864 	0.0154391222468229
8.00000000000001 	0.986079596008391 	3.46944695195361e-18 	1.17636811616675 	0.0509982325612716 	2.18876929877176 	0.0155420191674009
8.00000000000001 	1.01156416186494 	0 	1.17377939934908 	0.0511370020762359 	2.18915400639095 	0.0156417880960426
8.00000000000001 	1.03793754519838 	-6.93889390390723e-18 	1.17111413865476 	0.0511126443417522 	2.18417922481815 	0.0157371606044088
8.00000000000001 	1.06522939025402 	-6.93889390390723e-18 	1.16838250942744 	0.0509150022479161 	2.17296426579247 	0.0158271997105319
8.00000000000001 	1.09347025233532 	-1.73472347597681e-17 	1.16559627834329 	0.0505356939784632 	2.15474072720282 	0.0159115323903529
8.00000000000001 	1.12269162221744 	-2.42861286636753e-17 	1.16276855734669 	0.0499686093689143 	2.1288783256317 	0.0159905622551889
8 	1.15292595115017 	-1.38777878078145e-17 	1.15991348787333 	0.0492105302189388 	2.09491858273097 	0.0160656527627147
8 	1.18420667647759 	-3.46944695195361e-18 	1.15704586859907 	0.0482618663763462 	2.05261692986588 	0.0161392792964877
8.00000000000001 	1.20932909530118 	-6.07153216591882e-18 	1.15480978023592 	0.0473970294596607 	2.01403399662005 	0.0161979511529523
8.00000000000001 	1.2257861591868 	-1.64798730217797e-17 	1.15337901623772 	0.0467853871175141 	1.98670912618441 	0.0162370222186806
8 	1.25005321751835 	-1.38777878078145e-17 	1.15132887134751 	0.0458218077318374 	1.94357017327753 	0.0162980194327727
8 	1.28469102414858 	-1.04083408558608e-17 	1.1485078108226 	0.0443554615560124 	1.87778645601485 	0.0163940281685967
8 	1.32051868198682 	-1.38777878078145e-17 	1.14573113237038 	0.0427492722492312 	1.80561985183171 	0.0165105145230725
8.00000000000001 	1.3575749113027 	-1.73472347597681e-17 	1.14301085338216 	0.0410299903521249 	1.72839606926147 	0.0166555697814745
8.00000000000001 	1.39589958614844 	-1.73472347597681e-17 	1.14035753288442 	0.0392289119058092 	1.64769949112626 	0.0168373097470496
8.00000000000001 	1.43553376564931 	-1.21430643318376e-17 	1.13778030007797 	0.0373800169112775 	1.56524527762458 	0.0170628014301403
8.00000000000001 	1.4765197263157 	-1.38777878078145e-17 	1.1352870342093 	0.0355174011301287 	1.48270830795363 	0.0173368431355868
8.00000000000001 	1.51890099544909 	-1.38777878078145e-17 	1.13288458234254 	0.0336723538713234 	1.40154189669128 	0.0176610184573159
8.00000000000001 	1.56272238572048 	-8.67361737988404e-18 	1.13057886478484 	0.0318706505886841 	1.32283591857609 	0.0180335394492983
8.00000000000001 	1.60803003100718 	-1.38777878078145e-17 	1.12837478417192 	0.0301306790296524 	1.24726224187233 	0.018450119336836
8.00000000000001 	1.65487142358089 	-1.38777878078145e-17 	1.12627599396335 	0.0284628003884362 	1.17512520312309 	0.0189053700646211
8.00000000000001 	1.70329545274807 	-6.93889390390723e-18 	1.12428463798953 	0.0268699283176082 	1.10648942744118 	0.0193935095913793
8 	1.75335244505158 	-8.45677694538693e-18 	1.12240103989394 	0.0253488918060126 	1.04132322682102 	0.019908064235344
8 	1.80509420615116 	-4.98732999343332e-18 	1.12061879930936 	0.0238927733753558 	0.979648790691234 	0.0204481530407079
8.00000000000001 	1.85857406450892 	-3.46944695195361e-18 	1.11892373685672 	0.0224931262885898 	0.921700169410164 	0.0210585907539905
8.00000000000001 	1.91384691701537 	-6.93889390390723e-18 	1.11732923537375 	0.0211414263488965 	0.867712226357966 	0.0218664661644322
8.00000000000001 	1.97096927670054 	-1.04083408558608e-17 	1.11584101980978 	0.0198590830389049 	0.819778517448584 	0.0229292957927594
8.00000000000001 	2.02024009608346 	-1.38777878078145e-17 	1.11465215452811 	0.0188393607267241 	0.785266595516153 	0.0238978213014851
8.00000000000001 	2.06000503604194 	-1.38777878078145e-17 	1.11372951200192 	0.0180448837472988 	0.760980065574564 	0.0237111833178711
8.00000000000001 	2.09836474743797 	-1.38777878078145e-17 	1.1129616292721 	0.0173134567935514 	0.740926012490147 	0.0233657388844233
8.00000000000001 	2.13536888877258 	-1.38777878078145e-17 	1.11228498282191 	0.016623496229729 	0.724064606297928 	0.0229570063149501
8.00000000000001 	2.17106536369585 	-1.38777878078145e-17 	1.11168174847343 	0.0159698155154696 	0.710005539861339 	0.022491026525552
8.00000000000001 	2.20550038302045 	-1.38777878078145e-17 	1.1111455792905 	0.0153488429304879 	0.698483634391846 	0.0219731658401797
8.00000000000001 	2.23871852454379 	-1.38777878078145e-17 	1.11066920960466 	0.0147580624484316 	0.689320808399083 	0.0214084129449507
8.00000000000001 	2.27076279075614 	-1.38777878078145e-17 	1.11024596087385 	0.0141956329290994 	0.682399859249675 	0.0208016045971193
8.00000000000001 	2.30167466450941 	-6.93889390390723e-18 	1.10987007216996 	0.0136601291560685 	0.677647370879168 	0.0201575506352498
8.00000000000001 	2.33149416271873 	-6.93889390390723e-18 	1.10953648004053 	0.0131503796483226 	0.675023489143958 	0.0194810819066116
8.00000000000001 	2.36025988816627 	-1.38777878078145e-17 	1.10924069734016 	0.0126653717019348 	0.67451629558757 	0.0187770512983362
8.00000000000001 	2.38800907947441 	-1.38777878078145e-17 	1.10897873623298 	0.0122041998881953 	0.676139116880621 	0.0180503109302646
8.00000000000001 	2.41477765931296 	-6.93889390390723e-18 	1.10874704146219 	0.0117660414356751 	0.679929710564168 	0.0173056798901875
8.00000000000001 	2.44060028090273 	6.93889390390723e-18 	1.10854243367814 	0.0113501474999721 	0.685950697011195 	0.0165479102543697
8.00000000000001 	2.46551037287587 	1.38777878078145e-17 	1.10836206195352 	0.0109558432959678 	0.694290885184131 	0.0157816549309495
8.00000000000001 	2.48954018255081 	1.38777878078145e-17 	1.10820336369092 	0.0105825327636522 	0.705067310024394 	0.0150114385109856
8.00000000000001 	2.512720817678 	2.08166817117217e-17 	1.10806403060651 	0.0102297051860846 	0.718427898391728 	0.0142416311395026
8.00000000000001 	2.53508228671037 	3.12250225675825e-17 	1.10794197980499 	0.00989694225812372 	0.734554733673951 	0.0134764249126983
8.00000000000001 	2.55665353765073 	3.46944695195361e-17 	1.10783532914188 	0.00958392472951508 	0.753667911977808 	0.0127198121365342
8.00000000000001 	2.57746249552637 	4.16333634234434e-17 	1.10774237620705 	0.00929043806430757 	0.776029983265822 	0.011975564759565
8.00000000000001 	2.59753609853934 	4.85722573273506e-17 	1.10766158037865 	0.00901637667007672 	0.801950951916678 	0.0112472143295258
8.00000000000001 	2.6169003329393 	4.16333634234434e-17 	1.10759154749136 	0.00876174622067685 	0.831793772647651 	0.0105380318886428
8.00000000000001 	2.6355802666639 	3.46944695195361e-17 	1.1075310167405 	0.00852666346951605 	0.865980217374936 	0.00985100732019195
8.00000000000001 	2.6536000817905 	3.46944695195361e-17 	1.10747884950477 	0.00831135276045876 	0.90499690383308 	0.00918882780887698
8.00000000000001 	2.67098310584103 	3.46944695195361e-17 	1.10743401981571 	0.0081161382233096 	0.949401166517168 	0.0085538553063478
8.00000000000001 	2.68775184198057 	3.46944695195361e-17 	1.10739560623003 	0.00794143043087539 	0.999826317649661 	0.00794810322347074
8.00000000000001 	2.7039279981488 	2.77555756156289e-17 	1.10736278487424 	0.00778770614968795 	1.05698570068545 	0.00737321301245465
8.00000000000001 	2.71953251516198 	2.08166817117217e-17 	1.10733482342909 	0.00765547980933083 	1.1216748028943 	0.00683043184014558
8.00000000000001 	2.73458559382185 	2.08166817117217e-17 	1.10731107581069 	0.00754526553358052 	1.19477060299799 	0.00632059313882147
8.00000000000001 	2.74910672106653 	2.08166817117217e-17 	1.10729097729077 	0.00745752910955877 	1.27722733646488 	0.00584410235998722
8.00000000000001 	2.76311469519732 	2.08166817117217e-17 	1.10727403979115 	0.00739263018340053 	1.37006802783405 	0.00540093061724842
8.00000000000001 	2.776627650214 	2.08166817117217e-17 	1.10725984709715 	0.00735075626427149 	1.47437152794612 	0.00499061893326017
8.00000000000001 	2.78966307929018 	2.08166817117217e-17 	1.1072480497714 	0.00733185169088479 	1.59125544278187 	0.00461229536986864
8.00000000000001 	2.80223785741905 	2.08166817117217e-17 	1.10723835961737 	0.00733554633542993 	1.72185623820107 	0.00426470636168144
8.00000000000001 	2.81436826325886 	2.77555756156289e-17 	1.10723054363635 	0.00736109014538345 	1.86730886691398 	0.00394626215964515
8.00000000000001 	2.82607000020648 	2.77555756156289e-17 	1.1072244175286 	0.00740730027013343 	2.02872933045807 	0.00365509463788188
8.00000000000001 	2.83735821672614 	2.08166817117217e-17 	1.10721983888749 	0.007472527186742 	2.20720445524521 	0.0033891241512836
8.00000000000001 	2.84824752595991 	2.08166817117217e-17 	1.10721670030355 	0.00755464484642061 	2.40379364927665 	0.00314613099983841
8.00000000000001 	2.85875202464507 	2.08166817117217e-17 	1.10721492262614 	0.00765106762755579 	2.61954746058621 	0.00292382660300686
8.00000000000001 	2.86888531136304 	2.77555756156289e-17 	1.10721444863184 	0.00775879427955952 	2.85554754884823 	0.00271991976084346
8.00000000000001 	2.87866050414343 	3.46944695195361e-17 	1.10721523734992 	0.00787447663816756 	3.11297266076473 	0.00253217421345987
8.00000000000001 	2.88809025744591 	3.46944695195361e-17 	1.10721725931557 	0.00799450908069598 	3.39319607527515 	0.00235845482432067
8.00000000000001 	2.89718677854204 	3.46944695195361e-17 	1.10722049304927 	0.0081151334698732 	3.69792252775966 	0.00219676088314507
8.00000000000001 	2.90596184331819 	4.16333634234434e-17 	1.10722492301183 	0.0082325532769723 	4.02937725617204 	0.00204524626287607
8.00000000000001 	2.91442681151997 	4.85722573273506e-17 	1.10723053897492 	0.00834304909134048 	4.39056608819942 	0.00190222773375745
8.00000000000001 	2.92259264145801 	4.85722573273506e-17 	1.10723733601298 	0.00844308563373553 	4.78563207446073 	0.00176618482259419
8.00000000000001 	2.93046990419395 	4.85722573273506e-17 	1.10724531399766 	0.00852939839535606 	5.22034059019942 	0.00163575667078181
8.00000000000001 	2.93806879722526 	4.85722573273506e-17 	1.10725447496787 	0.00859904730180398 	5.70273523906405 	0.00150974186832223
8.00000000000001 	2.94539915768639 	5.55111512312578e-17 	1.10726481816681 	0.00864942555215299 	6.24403154986707 	0.00138710517008539
8.00000000000001 	2.95247047508335 	6.24500451351651e-17 	1.10727633336121 	0.00867821220069324 	6.85986668518232 	0.00126699151699576
8.00000000000001 	2.9592919035784 	6.24500451351651e-17 	1.10728899287528 	0.00868325467062831 	7.57210912673838 	0.00114874611174946
8.00000000000001 	2.96587227384056 	6.93889390390723e-17 	1.10730274294223 	0.00866236072622049 	8.41157741093666 	0.0010319389698611
8.00000000000001 	2.97222010447726 	7.63278329429795e-17 	1.1073174947477 	0.00861296403252235 	9.4222801995181 	0.000916391683017507
8.00000000000001 	2.97834361306218 	6.93889390390723e-17 	1.10733311563276 	0.00853159390350032 	10.668277648734 	0.000802203872323521
8.00000000000001 	2.98425072677325 	6.24500451351651e-17 	1.10734941862311 	0.00841300963153662 	12.2451998736028 	0.000689777122323039
8.00000000000001 	2.98994909265478 	6.24500451351651e-17 	1.10736614375062 	0.00824871578947026 	14.3003470219115 	0.000579834186342799
8.00000000000001 	2.99544608751689 	6.24500451351651e-17 	1.1073829514455 	0.00802428171322114 	17.0693253975202 	0.000473430527424016
8.00000000000001 	3.00074882748522 	5.55111512312578e-17 	1.1073995455014 	0.00771385689015504 	20.9468755790823 	0.000371734268835107
8.00000000000001 	3.00586417721304 	4.85722573273506e-17 	1.10741568028509 	0.00726603931212428 	26.6336242520343 	0.000274604021501194
8.00000000000001 	3.01079875876789 	4.85722573273506e-17 	1.10743052346257 	0.00658328625041711 	35.4254645887167 	0.000186326573006028
8.00000000000001 	3.01555896020418 	4.85722573273506e-17 	1.10744288492268 	0.00550189127169303 	49.8814936318285 	0.000112248227694336
8.00000000000001 	3.02015094383281 	4.85722573273506e-17 	1.1074518595387 	0.00382019986857769 	76.3274689494507 	5.39185484303293e-05
8.00000000000001 	3.02458065419862 	4.85722573273506e-17 	1.10745730446928 	0.00169047805521168 	140.243940143172 	1.49250681029447e-05
8.00000000000001 	3.02885382577583 	4.85722573273506e-17 	1.10746043040959 	0.000344443345962671 	435.789218083743 	1.69288035276835e-06
