7 	0.175477169696616 	1.04083408558608e-17 	-0.00704706431749265 	-0.00530168586742901 	-8.86516357109271e-19
7 	0.183479805616048 	1.38777878078145e-17 	-0.0159406430740584 	-0.0132903124249152 	-1.86860960532823e-18
7 	0.191768329657843 	1.21430643318376e-17 	-0.0188521328886104 	-0.016557139140166 	-1.58688799369722e-17
7 	0.200352690849211 	8.67361737988404e-18 	-0.0161593143479719 	-0.0155387888129718 	2.50431437993727e-20
7 	0.209243165650844 	1.04083408558608e-17 	-0.0105951561273241 	-0.0124717617355243 	2.66921947918817e-19
7 	0.218450367413594 	1.30104260698261e-17 	-0.00459299858234032 	-0.00921000546920201 	4.92523765814139e-18
7 	0.227985256016299 	9.54097911787244e-18 	0.00118993951675078 	-0.00626242324763804 	-3.34810723570291e-18
7 	0.237859147681583 	1.25767452008319e-17 	0.00676022665538437 	-0.00362402456665051 	2.43015598996186e-18
7 	0.248083724965845 	1.77809156287623e-17 	0.0122116427327254 	-0.00121535968267127 	-2.81430065268346e-20
7 	0.258671046919076 	1.66967134562768e-17 	0.0176218921821779 	0.001026933298579 	-1.74803052521382e-18
7 	0.269633559409454 	1.7130394325271e-17 	0.0230480478791782 	0.003145310297247 	1.53260152099405e-18
7 	0.280984105606939 	1.60461921527855e-17 	0.0285324873070833 	0.00516794068580086 	5.49912658093259e-21
7 	0.292735936619475 	1.73472347597681e-17 	0.0341516079625183 	0.00717513221281866 	1.16655962474254e-18
7 	0.304902722274549 	1.38777878078145e-17 	0.0398911844784536 	0.00911934445238647 	-9.99149695590149e-19
7 	0.31749856203814 	1.04083408558608e-17 	0.0457721683866627 	0.0110083444474008 	5.75365716785059e-21
7 	0.330537996062243 	1.04083408558608e-17 	0.0518137485973455 	0.012848572575512 	-5.11056898648557e-18
7 	0.344036016351372 	0 	0.0580332344671297 	0.0146446056453555 	-1.7123366731411e-16
7 	0.358008078037565 	-1.04083408558608e-17 	0.0644466041153527 	0.0163997136081905 	1.59734654431169e-16
7 	0.372470110752509 	-1.04083408558608e-17 	0.0710688558623101 	0.0181162750227338 	9.16333497378889e-18
7 	0.387438530084601 	-1.04083408558608e-17 	0.0779142173806591 	0.0197961100402103 	-4.19936142739723e-20
7 	0.402930249107806 	-1.04083408558608e-17 	0.084996240685704 	0.0214407701019537 	-4.39835965568147e-19
7 	0.418962689968293 	-6.93889390390723e-18 	0.092327791788654 	0.0230518146884471 	3.20230605324875e-19
7 	0.435553795513961 	-3.46944695195361e-18 	0.0999209273312057 	0.0246311014570676 	3.54150116955232e-19
7 	0.452722040951046 	6.93889390390723e-18 	0.107786621901824 	0.0261811140508053 	-2.19217002659473e-19
7 	0.470486445511199 	1.04083408558608e-17 	0.115934378281241 	0.0277053131788978 	-1.73616456908382e-19
7 	0.488866584111516 	1.38777878078145e-17 	0.12437253192782 	0.0292080656946897 	4.91891414616739e-19
7 	0.507882598989293 	2.42861286636753e-17 	0.133110896272845 	0.0306946154814275 	1.24341893905483e-19
7 	0.527555211292512 	3.46944695195361e-17 	0.142169885363475 	0.0321728746911846 	-3.08781696850642e-19
7 	0.54244403095239 	4.16333634234434e-17 	0.14905790571406 	0.0332618070590611 	-3.03040118464562e-19
7 	0.552823946998482 	4.5102810375397e-17 	0.153877918947101 	0.034008642418224 	-2.89273697635654e-21
7 	0.569082665743196 	4.5102810375397e-17 	0.161505759050177 	0.0351674643158761 	3.56432087153062e-17
7 	0.590977979586464 	4.16333634234434e-17 	0.172021340286802 	0.0367147307714385 	5.60536916087633e-17
7 	0.61361731762149 	3.81639164714898e-17 	0.183323389741741 	0.0383095050939691 	-7.31094499761823e-17
7 	0.637024103108103 	3.98986399474666e-17 	0.195588271148804 	0.0399526998577893 	-2.6984505891389e-17
7 	0.661222382337652 	4.85722573273506e-17 	0.208970947804899 	0.0416399474528728 	2.50238449191388e-19
7 	0.686236834884958 	5.3776427755281e-17 	0.223609315693902 	0.0433635602073939 	6.60454031902135e-21
7 	0.712092783750835 	5.72458747072346e-17 	0.239629120778437 	0.0451172544078622 	-4.61901455412252e-19
7 	0.738816205392112 	6.07153216591882e-17 	0.257142330152474 	0.0468970650194792 	5.61927229171973e-19
7 	0.766433739638512 	5.68121938382404e-17 	0.27623915758335 	0.0486979656025889 	3.65502828076417e-20
7 	0.794972699498517 	5.56195714485064e-17 	0.296977791096802 	0.0505116987383717 	-1.96028099542223e-20
7 	0.82446108085951 	6.1257422745431e-17 	0.319463184708711 	0.052349917635545 	2.45092904919252e-18
7 	0.854927572091144 	6.24500451351651e-17 	0.343702711698307 	0.0541933193785073 	2.02780968089443e-16
7 	0.886401563564908 	6.24500451351651e-17 	0.369529240775551 	0.055979777105541 	-1.6829966291145e-16
7 	0.918913157107335 	5.20417042793042e-17 	0.396873084720606 	0.0576810221436374 	-2.16176416176116e-17
7 	0.952493175409364 	4.5102810375397e-17 	0.425650558311519 	0.0592681816679727 	2.4540592978526e-19
7 	0.987173171419818 	4.5102810375397e-17 	0.455765489699673 	0.0607135301885249 	-3.99062273313374e-19
7 	1.02298543775705 	4.5102810375397e-17 	0.487106167203655 	0.0619916237676786 	5.61841308010521e-20
7 	1.05996301617935 	4.5102810375397e-17 	0.519538814906797 	0.0630797124506151 	-1.09534631051129e-20
7 	1.08337286333309 	3.46944695195361e-17 	0.540039580480673 	0.0636622793549737 	-1.38793747256944e-20
7 	1.10279491468902 	2.77555756156289e-17 	0.556917813338931 	0.0640597573882991 	1.62080547376471e-20
7 	1.13764544566304 	2.42861286636753e-17 	0.586971167233785 	0.0646388633302489 	8.61861991621345e-21
7 	1.17839328092009 	1.90819582357449e-17 	0.621570247603336 	0.0650679997598564 	-5.65878222196631e-20
7 	1.2204386814122 	2.42861286636753e-17 	0.656425135663272 	0.0652363155153441 	4.36886450277372e-19
7 	1.26381809942668 	3.38271077815477e-17 	0.691243684171426 	0.0651302182627247 	-3.64212838252862e-20
7 	1.30856880549572 	4.0766001685455e-17 	0.725717948819715 	0.0647385891213584 	-6.13769729261965e-19
7 	1.35472890449142 	4.33680868994202e-17 	0.759539088650649 	0.0640539294362683 	3.40348806097809e-19
7 	1.40233735289359 	3.81639164714898e-17 	0.792394298463471 	0.0630465439551717 	-3.39648155240427e-19
7 	1.45143397738117 	3.81639164714898e-17 	0.823993579534739 	0.0617329714592202 	2.64135491856158e-19
7 	1.50205949490893 	3.46944695195361e-17 	0.85413876662107 	0.0601383615546904 	1.25320810180929e-20
7 	1.55425553444232 	3.12250225675825e-17 	0.882694303390911 	0.0582821991654889 	-6.34013518428859e-20
7 	1.60806466053431 	3.81639164714898e-17 	0.909587316440919 	0.056190274797575 	-1.38290220984479e-21
7 	1.6509492227427 	4.20670442924376e-17 	0.929350496009285 	0.0544279650883342 	5.68580044427394e-20
7 	1.67910579322798 	4.20670442924376e-17 	0.941564689418474 	0.0532351384334735 	9.04099357014574e-20
7 	1.72071188620233 	4.16333634234434e-17 	0.958461018826498 	0.0514361036896934 	6.64650194876432e-20
7 	1.77963482025102 	4.16333634234434e-17 	0.980467927578036 	0.0488332436797179 	-1.25524082615646e-16
7 	1.84034366966232 	4.33680868994202e-17 	1.00080183534978 	0.0461136533917961 	-1.01693909331675e-15
7 	1.90288607063176 	4.5102810375397e-17 	1.01940612310187 	0.0433182949494682 	1.0081431054941e-15
7 	1.96731084301856 	3.98986399474666e-17 	1.0361388898677 	0.0404852492692611 	4.31834865720425e-18
7 	2.02025965173185 	3.46944695195361e-17 	1.04792798536606 	0.0381970150085732 	2.23467339261339e-22
7 	2.06006301192217 	3.46944695195361e-17 	1.05620462274779 	0.0365715076679904 	0
7 	2.09845978584128 	4.16333634234434e-17 	1.06373552543156 	0.0349897893441485 	0
7 	2.13549967996945 	4.85722573273506e-17 	1.07062353652164 	0.0335018223040095 	0
7 	2.17123064424048 	4.85722573273506e-17 	1.07691720994746 	0.0321034996813092 	0
7 	2.20569893411515 	4.85722573273506e-17 	1.08265783715791 	0.0307868265452485 	0
7 	2.23894917046122 	4.85722573273506e-17 	1.08788149832272 	0.0295457115070505 	0
7 	2.27102439731726 	4.85722573273506e-17 	1.09262022697461 	0.0283744285761298 	0
7 	2.30196613761521 	4.85722573273506e-17 	1.09690262768074 	0.0272674434717161 	0
7 	2.33181444693391 	5.55111512312578e-17 	1.1007541937793 	0.0262196124798514 	0
7 	2.3606079653529 	6.24500451351651e-17 	1.10419747262826 	0.0252262402833996 	0
7 	2.3883839674739 	6.24500451351651e-17 	1.10725215570369 	0.0242830667840875 	0
7 	2.41517841067461 	6.24500451351651e-17 	1.10993513223312 	0.0233862357971274 	0
7 	2.44102598165722 	6.93889390390723e-17 	1.11226052413463 	0.0225322572079603 	0
7 	2.46596014135207 	7.63278329429795e-17 	1.11423970903118 	0.021717967287822 	0
7 	2.49001316823443 	7.63278329429795e-17 	1.11588133280916 	0.0209404905149589 	0
7 	2.51321620011054 	6.93889390390723e-17 	1.11719131110961 	0.0201972046290071 	0
7 	2.535599274427 	6.24500451351651e-17 	1.11817281885684 	0.0194857095168743 	0
7 	2.55719136715571 	6.24500451351651e-17 	1.11882626768052 	0.0188037999515765 	0
7 	2.57802043030465 	6.24500451351651e-17 	1.11914927250959 	0.0181494419342557 	0
7 	2.59811342810315 	6.24500451351651e-17 	1.11913661055989 	0.0175207522747366 	0
7 	2.61749637190832 	5.55111512312578e-17 	1.11878017836124 	0.0169159810145142 	0
7 	2.63619435387806 	5.55111512312578e-17 	1.11806895535144 	0.0163334963063547 	0
7 	2.65423157945406 	6.24500451351651e-17 	1.11698898583777 	0.0157717713918106 	0
7 	2.67163139869691 	6.24500451351651e-17 	1.11552339460225 	0.0152293733478776 	0
7 	2.68841633651388 	5.55111512312578e-17 	1.11365245472503 	0.0147049532997152 	0
7 	2.7046081218185 	4.85722573273506e-17 	1.11135372868476 	0.0141972378155323 	0
7 	2.72022771565972 	4.85722573273506e-17 	1.10860230454967 	0.0137050212139137 	0
7 	2.73529533835694 	4.16333634234434e-17 	1.10537114695682 	0.0132271585281042 	0
7 	2.74983049567626 	3.81639164714898e-17 	1.10163157641598 	0.0127625588944497 	0
7 	2.76385200408157 	3.81639164714898e-17 	1.0973538794084 	0.0123101791740981 	0
7 	2.77737801509344 	3.46944695195361e-17 	1.0925080357105 	0.0118690176892095 	0
7 	2.79042603878708 	3.12250225675825e-17 	1.08706452954505 	0.0114381080655991 	0
7 	2.80301296646003 	2.42861286636753e-17 	1.08099519019893 	0.0110165133229762 	0
7 	2.81515509249873 	2.08166817117217e-17 	1.07427398947048 	0.0106033205165089 	0
7 	2.82686813547238 	2.08166817117217e-17 	1.06687771178965 	0.0101976363494924 	0
7 	2.83816725848143 	2.08166817117217e-17 	1.05878641106514 	0.00979858433272496 	0
7 	2.84906708878692 	2.08166817117217e-17 	1.04998357687881 	0.00940530487171321 	0
7 	2.85958173674617 	2.42861286636753e-17 	1.04045594930592 	0.0090169602663791 	0
7 	2.86972481407933 	3.46944695195361e-17 	1.03019294182218 	0.0086327361693414 	0
7 	2.87950945149043 	4.5102810375397e-17 	1.01918565012533 	0.00825180961651649 	0
7 	2.88894831566567 	4.85722573273506e-17 	1.00742543575431 	0.00787333293338532 	0
7 	2.89805362567107 	4.85722573273506e-17 	0.994901313964417 	0.00749730160761998 	0
7 	2.90683716877067 	4.85722573273506e-17 	0.981553417052234 	0.00712220247638008 	0
7 	2.9153103156857 	4.85722573273506e-17 	0.967275976270005 	0.00674584509244655 	0
7 	2.92348403531449 	4.5102810375397e-17 	0.952018050476707 	0.0063664167011775 	0
7 	2.9313689089323 	4.16333634234434e-17 	0.935798374735706 	0.00598350013790483 	0
7 	2.93897514388925 	3.46944695195361e-17 	0.918644697359608 	0.00559683492236946 	0
7 	2.94631258682425 	2.42861286636753e-17 	0.90055507923578 	0.00520643364565404 	0
7 	2.95339073641193 	2.08166817117217e-17 	0.8814754832322 	0.00481255921589409 	0
7 	2.96021875565916 	2.42861286636753e-17 	0.861284739318629 	0.00441570374986966 	0
7 	2.96680548376697 	2.42861286636753e-17 	0.839779423135543 	0.00401662786021902 	0
7 	2.97315944757337 	2.08166817117217e-17 	0.816653298661771 	0.00361643288324515 	0
7 	2.97928887259171 	2.08166817117217e-17 	0.791467361151074 	0.00321664333366079 	0
7 	2.98520169365903 	2.08166817117217e-17 	0.763606945882598 	0.00281929889608831 	0
7 	2.99090556520807 	1.73472347597681e-17 	0.732222368869123 	0.00242705508567492 	-2.23828589072672e-16
7 	2.99640787117633 	1.73472347597681e-17 	0.69615017856395 	0.00204327757695289 	-1.17612264145018e-14
7 	3.00171573456492 	2.08166817117217e-17 	0.653816945174559 	0.00167228182546332 	1.36835367161759e-14
7 	3.00683602665963 	2.77555756156289e-17 	0.60312113225987 	0.00132018104984507 	2.58988818002931e-16
7 	3.01177537592613 	3.12250225675825e-17 	0.541140608670765 	0.000991790813435517 	0
7 	3.01654017659085 	3.46944695195361e-17 	0.464493421811336 	0.000692020372039814 	0
7 	3.02113659691864 	4.5102810375397e-17 	0.372255817839688 	0.000429496007643335 	0
7 	3.02557058719784 	4.16333634234434e-17 	0.269220525741084 	0.000220630990171309 	0
7 	3.02984788744324 	3.46944695195361e-17 	0.162253380311703 	7.92173319771793e-05 	0
