7 	0.175477169696616 	1.04083408558608e-17 	0.288584121008238 	1.68745397913277e-05 	1426.94486306556 	1.30415640081731e-07 	2.46324090095435e-38
7 	0.183479805616048 	1.38777878078145e-17 	0.288752847401 	0.000206205732089436 	364.364593652263 	9.54737722428118e-07 	0
7 	0.191768329657843 	1.21430643318376e-17 	0.288929899599602 	0.00111183653077714 	96.6430137437576 	3.21769656008441e-06 	0
7 	0.200352690849211 	8.67361737988404e-18 	0.289089338167033 	0.00326359821790047 	40.6200164997109 	4.5180321220928e-05 	0
7 	0.209243165650844 	1.04083408558608e-17 	0.289218820481453 	0.00611895468042023 	21.7709363834502 	0.000219278296322819 	0
7 	0.218450367413594 	1.30104260698261e-17 	0.289305400350274 	0.00882591336405538 	13.9156202824604 	0.000435083708072318 	0
7 	0.227985256016299 	9.54097911787244e-18 	0.289348120936904 	0.0111651125871849 	10.0379006902732 	0.00062835267862919 	0
7 	0.237859147681583 	1.25767452008319e-17 	0.28935419386151 	0.0131978908511305 	7.82606877187428 	0.000813252592714413 	0
7 	0.248083724965845 	1.77809156287623e-17 	0.289329478314082 	0.0150104423232096 	6.42076298849195 	0.00100388307047076 	0
7 	0.258671046919076 	1.66967134562768e-17 	0.289276687195294 	0.0166669443861523 	5.45654684135265 	0.00120630151031336 	0
7 	0.269633559409454 	1.7130394325271e-17 	0.289197058365184 	0.0182108638562193 	4.75731162452825 	0.00142309762806848 	0
7 	0.280984105606939 	1.60461921527855e-17 	0.289091333248641 	0.0196720230287553 	4.22907812544032 	0.0016554891721688 	0
7 	0.292735936619475 	1.73472347597681e-17 	0.288956818177058 	0.0210715315093408 	3.8195014076837 	0.00190607393303178 	0
7 	0.304902722274549 	1.38777878078145e-17 	0.288795468762117 	0.0224251463431243 	3.49219786964083 	0.00217380629421593 	0
7 	0.31749856203814 	1.04083408558608e-17 	0.288607526719329 	0.0237440881159101 	3.2258655404916 	0.00245877716970959 	0
7 	0.330537996062243 	1.04083408558608e-17 	0.288393198483937 	0.0250369519287233 	3.00606740337694 	0.00276092350698448 	0
7 	0.344036016351372 	0 	0.288152784583744 	0.0263104184303834 	2.82267247631019 	0.0030799571031262 	0
7 	0.358008078037565 	-1.04083408558608e-17 	0.287886727176213 	0.0275697345680077 	2.66837394806027 	0.00341532111911372 	0
7 	0.372470110752509 	-1.04083408558608e-17 	0.287595650507207 	0.0288190409695882 	2.53777892564559 	0.00376612751952862 	0
7 	0.387438530084601 	-1.04083408558608e-17 	0.287280395859674 	0.0300616005645362 	2.42682918365151 	0.00413107289885297 	0
7 	0.402930249107806 	-1.04083408558608e-17 	0.286942052058279 	0.03129996321143 	2.33242123563573 	0.00450832687816156 	0
7 	0.418962689968293 	-6.93889390390723e-18 	0.28658198809738 	0.0325360899411385 	2.25215071458293 	0.00489538198914555 	0
7 	0.435553795513961 	-3.46944695195361e-18 	0.286201902926322 	0.0337714546016309 	2.18413684819954 	0.00528882898889102 	0
7 	0.452722040951046 	6.93889390390723e-18 	0.285803894333107 	0.0350071389905898 	2.12690022947212 	0.00568408178551489 	0
7 	0.470486445511199 	1.04083408558608e-17 	0.28539022605003 	0.0362439406201938 	2.07927703541092 	0.00607576497559225 	0
7 	0.488866584111516 	1.38777878078145e-17 	0.284961331014995 	0.0374825275088457 	2.04035729320901 	0.00646008918746723 	0
7 	0.507882598989293 	2.42861286636753e-17 	0.284513170946463 	0.0387236473575167 	2.00944099108393 	0.00684030838474201 	0
7 	0.527555211292512 	3.46944695195361e-17 	0.284040345096851 	0.0399687650052452 	1.98599574660483 	0.00722941753719083 	0
7 	0.54244403095239 	4.16333634234434e-17 	0.283674447429011 	0.0408895683471267 	1.97302026076125 	0.00752953658718793 	0
7 	0.552823946998482 	4.5102810375397e-17 	0.283415831244738 	0.0415191208689625 	1.96649732582206 	0.00774378983397981 	0
7 	0.569082665743196 	4.5102810375397e-17 	0.282998334491826 	0.0424905264840295 	1.95976828620423 	0.00810061204500736 	0
7 	0.590977979586464 	4.16333634234434e-17 	0.282402155319966 	0.0437820101932532 	1.95650834870344 	0.00862745689933669 	0
7 	0.61361731762149 	3.81639164714898e-17 	0.281725065082203 	0.0451032850770423 	1.95980726468507 	0.00923391462315005 	0
7 	0.637024103108103 	3.98986399474666e-17 	0.280951080905165 	0.046457008954754 	1.96971892920808 	0.00992822976467906 	0
7 	0.661222382337652 	4.85722573273506e-17 	0.280075454138371 	0.0478391603843119 	1.98624078435681 	0.0107062572683642 	0
7 	0.686236834884958 	5.3776427755281e-17 	0.279104201247819 	0.0492397327105305 	2.00919444722617 	0.0115564320093873 	0
7 	0.712092783750835 	5.72458747072346e-17 	0.27803768209423 	0.0506434735515044 	2.03813745440095 	0.0124653400824329 	0
7 	0.738816205392112 	6.07153216591882e-17 	0.276867845956062 	0.0520298720589379 	2.0722938932313 	0.0134142241683257 	0
7 	0.766433739638512 	5.68121938382404e-17 	0.275581879952215 	0.0533732188267694 	2.11049516395545 	0.0143760249349126 	0
7 	0.794972699498517 	5.56195714485064e-17 	0.274163931812904 	0.0546430740966597 	2.15115922236365 	0.0153161581904481 	0
7 	0.82446108085951 	6.1257422745431e-17 	0.272571976055036 	0.0558019795596848 	2.19235114557082 	0.0161961753219974 	0
7 	0.854927572091144 	6.24500451351651e-17 	0.270775460067627 	0.056809531824491 	2.23162073113552 	0.01697687477007 	0
7 	0.886401563564908 	6.24500451351651e-17 	0.2687920069718 	0.0576349946811798 	2.26656571594421 	0.0176295798018905 	0
7 	0.918913157107335 	5.20417042793042e-17 	0.266611953131732 	0.0582468458196675 	2.29498058108921 	0.018132473277146 	0
7 	0.952493175409364 	4.5102810375397e-17 	0.264230524760248 	0.05861720045648 	2.31484854630756 	0.0184691662075926 	0
7 	0.987173171419818 	4.5102810375397e-17 	0.261647991262925 	0.0587224606713255 	2.32440644588791 	0.0186269619545688 	0
7 	1.02298543775705 	4.5102810375397e-17 	0.258869472984768 	0.0585438528583938 	2.32218347884849 	0.0185955439499619 	0
7 	1.05996301617935 	4.5102810375397e-17 	0.255904599524319 	0.0580681559031164 	2.30703900758949 	0.0183668865322196 	0
7 	1.08337286333309 	3.46944695195361e-17 	0.253991152439975 	0.0576425624169053 	2.29179541819509 	0.0181379843332081 	0
7 	1.10279491468902 	2.77555756156289e-17 	0.252384497318834 	0.057185532301296 	2.27431511928288 	0.0178785713043447 	0
7 	1.13764544566304 	2.42861286636753e-17 	0.249475823798133 	0.0562319311980392 	2.23659663841628 	0.0173226287042796 	0
7 	1.17839328092009 	1.90819582357449e-17 	0.246048148735435 	0.0548769848754707 	2.18098364329806 	0.0165140253763978 	0
7 	1.2204386814122 	2.42861286636753e-17 	0.242509150096269 	0.0532487525388033 	2.11240639807329 	0.015533536023318 	0
7 	1.26381809942668 	3.38271077815477e-17 	0.23888613088032 	0.0513777235112682 	2.03230257952446 	0.0144111103643251 	0
7 	1.30856880549572 	4.0766001685455e-17 	0.235208379900464 	0.0493047425741607 	1.94273123817893 	0.0131857957217802 	0
7 	1.35472890449142 	4.33680868994202e-17 	0.231506002960093 	0.0470791366684111 	1.84626380299346 	0.0119024223638097 	0
7 	1.40233735289359 	3.81639164714898e-17 	0.227771053343043 	0.0447522523481944 	1.74569920389383 	0.0106075309696616 	0
7 	1.45143397738117 	3.81639164714898e-17 	0.224061487959859 	0.042388550658324 	1.64438194520446 	0.00935025223895952 	0
7 	1.50205949490893 	3.46944695195361e-17 	0.220420696204634 	0.0400407379664789 	1.54488566701965 	0.00816674779693098 	0
7 	1.55425553444232 	3.12250225675825e-17 	0.216870883623462 	0.0377482036828788 	1.44887799003436 	0.00708109453206957 	0
7 	1.60806466053431 	3.81639164714898e-17 	0.213431202365613 	0.0355367322865514 	1.35714637549429 	0.00610508992437928 	0
7 	1.6509492227427 	4.20670442924376e-17 	0.210842503126109 	0.0338808992318175 	1.28887345816153 	0.00542079908354848 	0
7 	1.67910579322798 	4.20670442924376e-17 	0.209215795378835 	0.0328433413793498 	1.24625888698641 	0.00501284628881082 	0
7 	1.72071188620233 	4.16333634234434e-17 	0.206924812870988 	0.0313845493528611 	1.18667821747119 	0.00446865853542871 	0
7 	1.77963482025102 	4.16333634234434e-17 	0.203872022923977 	0.0294361893378578 	1.10797199186379 	0.0037902496892057 	0
7 	1.84034366966232 	4.33680868994202e-17 	0.200962355976961 	0.0275585174602633 	1.03404597007807 	0.00318891191050781 	0
7 	1.90288607063176 	4.5102810375397e-17 	0.198210161633002 	0.0257337655064726 	0.965753563900783 	0.0026489041796009 	0
7 	1.96731084301856 	3.98986399474666e-17 	0.195608937358611 	0.0239947588576104 	0.905993412100599 	0.00217836027017391 	0
7 	2.02025965173185 	3.46944695195361e-17 	0.193706410882193 	0.0227488411177513 	0.867441488892657 	0.00181667051508487 	0
7 	2.06006301192217 	3.46944695195361e-17 	0.192283382188302 	0.0218192737936072 	0.841982506972175 	0.00160072992882887 	0
7 	2.09845978584128 	4.16333634234434e-17 	0.191066387251224 	0.0209415618718446 	0.820506990841669 	0.00142675091420646 	0
7 	2.13549967996945 	4.85722573273506e-17 	0.189973934289728 	0.0201069030336678 	0.802433065386144 	0.00126438995933228 	0
7 	2.17123064424048 	4.85722573273506e-17 	0.188981886872562 	0.019312417566824 	0.787457729581492 	0.00111545856800145 	0
7 	2.20569893411515 	4.85722573273506e-17 	0.18808270519235 	0.0185559409828451 	0.77536408165492 	0.000979067974488178 	0
7 	2.23894917046122 	4.85722573273506e-17 	0.187268071286966 	0.017835699332285 	0.765997230599691 	0.000854361353157171 	0
7 	2.27102439731726 	4.85722573273506e-17 	0.186529713211959 	0.0171501380885902 	0.759249724789925 	0.000740693715156263 	0
7 	2.30196613761521 	4.85722573273506e-17 	0.185860288154429 	0.0164978310164498 	0.755052702647493 	0.00063746336279141 	0
7 	2.33181444693391 	5.55111512312578e-17 	0.185253266303635 	0.0158774391082947 	0.753370865837863 	0.000544075984672512 	0
7 	2.3606079653529 	6.24500451351651e-17 	0.184702782324854 	0.0152876979420702 	0.754199945525399 	0.000459957393769866 	0
7 	2.3883839674739 	6.24500451351651e-17 	0.18420355392447 	0.0147274195671045 	0.75756582083697 	0.000384569678516776 	0
7 	2.41517841067461 	6.24500451351651e-17 	0.183750816865544 	0.0141955010870777 	0.763524814123801 	0.000317426845036796 	0
7 	2.44102598165722 	6.93889390390723e-17 	0.183340266419845 	0.0136909357216518 	0.772164912516158 	0.000258109370444119 	0
7 	2.46596014135207 	7.63278329429795e-17 	0.182968006282303 	0.0132128241776532 	0.783607798016187 	0.000206277072533327 	0
7 	2.49001316823443 	7.63278329429795e-17 	0.182630504474896 	0.0127603853036682 	0.798011645723587 	0.000161680467817169 	0
7 	2.51321620011054 	6.93889390390723e-17 	0.182324555171649 	0.0123329655987266 	0.815574692588256 	0.000124171219367387 	0
7 	2.535599274427 	6.24500451351651e-17 	0.182047245555484 	0.0119300474094989 	0.83653959875898 	9.37123451216445e-05 	0
7 	2.55719136715571 	6.24500451351651e-17 	0.181795926982724 	0.0115512557088923 	0.861198625400585 	7.03887687500603e-05 	0
7 	2.57802043030465 	6.24500451351651e-17 	0.181568189835718 	0.0111963632752815 	0.889899637655965 	5.44186315921114e-05 	0
7 	2.59811342810315 	6.24500451351651e-17 	0.18136184153327 	0.0108652939262268 	0.923052907003753 	4.61655646272537e-05 	0
7 	2.61749637190832 	5.55111512312578e-17 	0.181174887248692 	0.0105581232263941 	0.96113862928941 	4.61518416418236e-05 	0
7 	2.63619435387806 	5.55111512312578e-17 	0.181005512953855 	0.0102750758033484 	1.00471498786301 	5.50719881611639e-05 	0
7 	2.65423157945406 	6.24500451351651e-17 	0.180852070463491 	0.0100165180870374 	1.05442647076642 	7.38059959381427e-05 	0
7 	2.67163139869691 	6.24500451351651e-17 	0.180713064196901 	0.00978294497129715 	1.1110119950211 	0.000103430792768503 	0
7 	2.68841633651388 	5.55111512312578e-17 	0.180587139404153 	0.00957495863112631 	1.17531220476396 	0.000145228070512731 	0
7 	2.7046081218185 	4.85722573273506e-17 	0.18047307162175 	0.00939323759684921 	1.24827511001577 	0.000200686048010621 	0
7 	2.72022771565972 	4.85722573273506e-17 	0.180369757130573 	0.0092384942918187 	1.33095905342915 	0.000271492357199466 	0
7 	2.73529533835694 	4.16333634234434e-17 	0.180276204190935 	0.00911141970724878 	1.42453188956489 	0.000359515156137302 	0
7 	2.74983049567626 	3.81639164714898e-17 	0.180191524831656 	0.00901261482998261 	1.53026531319389 	0.000466769985191955 	0
7 	2.76385200408157 	3.81639164714898e-17 	0.180114926980349 	0.0089425099159245 	1.6495235712393 	0.000595370964040988 	0
7 	2.77737801509344 	3.46944695195361e-17 	0.180045706748657 	0.00890127466043627 	1.7837464209592 	0.000747466753822514 	0
7 	2.79042603878708 	3.12250225675825e-17 	0.179983240735922 	0.00888872453924599 	1.93442719780882 	0.000925164185551503 	0
7 	2.80301296646003 	2.42861286636753e-17 	0.179926978286832 	0.00890423068010418 	2.10308819539527 	0.00113044527503406 	0
7 	2.81515509249873 	2.08166817117217e-17 	0.179876433716709 	0.00894664204692056 	2.29125710031378 	0.00136508602061447 	0
7 	2.82686813547238 	2.08166817117217e-17 	0.179831178593328 	0.00901422894350021 	2.50044973611073 	0.00163058737170153 	0
7 	2.83816725848143 	2.08166817117217e-17 	0.179790834358621 	0.00910465551900284 	2.73216558211759 	0.00192812964339452 	0
7 	2.84906708878692 	2.08166817117217e-17 	0.179755065987661 	0.00921498606076075 	2.98790322099863 	0.0022585613507766 	0
7 	2.85958173674617 	2.42861286636753e-17 	0.179723576286748 	0.00934172575582477 	3.26920294933981 	0.00262243238832937 	0
7 	2.86972481407933 	3.46944695195361e-17 	0.179696093768284 	0.00948089193734991 	3.57772336815928 	0.00302007990844337 	0
7 	2.87950945149043 	4.5102810375397e-17 	0.179672352504198 	0.00962810733657016 	3.91535816448911 	0.00345177126975278 	0
7 	2.88894831566567 	4.85722573273506e-17 	0.179652153247935 	0.00977870321351797 	4.28439901358605 	0.0039181551572397 	0
7 	2.89805362567107 	4.85722573273506e-17 	0.179635701766019 	0.00992781540688546 	4.68777049957215 	0.0044354256363539 	0
7 	2.90683716877067 	4.85722573273506e-17 	0.179622819394277 	0.0100702885897484 	5.13041077589953 	0.00500171482359256 	0
7 	2.9153103156857 	4.85722573273506e-17 	0.17961273134583 	0.0102005859670819 	5.61887934548591 	0.0056162334135242 	0
7 	2.92348403531449 	4.5102810375397e-17 	0.179604777234378 	0.0103118437666255 	6.15848446082648 	0.00627285063317494 	0
7 	2.9313689089323 	4.16333634234434e-17 	0.179598653442902 	0.0103964745334463 	6.75408577724707 	0.00695111326949056 	0
7 	2.93897514388925 	3.46944695195361e-17 	0.179594509393931 	0.0104477947679621 	7.4135471833082 	0.00764738775314453 	0
7 	2.94631258682425 	2.42861286636753e-17 	0.1795926041455 	0.0104604448583896 	8.15033107496706 	0.00837131756219126 	0
7 	2.95339073641193 	2.08166817117217e-17 	0.179593149528027 	0.0104300030698058 	8.98566369240315 	0.00914243631558389 	0
7 	2.96021875565916 	2.42861286636753e-17 	0.179596276238751 	0.0103521769692606 	9.95101994809405 	0.00998837489976197 	0
7 	2.96680548376697 	2.42861286636753e-17 	0.179602020405144 	0.0102217581645675 	11.0917143966676 	0.0109443752728439 	0
7 	2.97315944757337 	2.08166817117217e-17 	0.179610299440247 	0.0100313333708851 	12.4725781533437 	0.0120529776491736 	0
7 	2.97928887259171 	2.08166817117217e-17 	0.17962087887751 	0.00976961026609306 	14.1870523877262 	0.0133618098140363 	0
7 	2.98520169365903 	2.08166817117217e-17 	0.17963334308222 	0.00941915354411558 	16.3716991404365 	0.0149156023039576 	0
7 	2.99090556520807 	1.73472347597681e-17 	0.179647084971919 	0.008953364603223 	19.2297627420361 	0.0167347595889852 	0
7 	2.99640787117633 	1.73472347597681e-17 	0.179661336478764 	0.00833287341011139 	23.0711411548652 	0.0187643603705402 	0
7 	3.00171573456492 	2.08166817117217e-17 	0.17967528309839 	0.00750279512734945 	28.3867268975647 	0.0207751621675432 	0
7 	3.00683602665963 	2.77555756156289e-17 	0.179688220130216 	0.0063948531074033 	36.0112945132164 	0.0222100607428792 	0
7 	3.01177537592613 	3.12250225675825e-17 	0.17969926372088 	0.0049388513413003 	47.5558134564094 	0.0212635592690404 	0
7 	3.01654017659085 	3.46944695195361e-17 	0.179707577633065 	0.00317650472917484 	66.7581366426938 	0.0155751707913382 	0
7 	3.02113659691864 	4.5102810375397e-17 	0.179713077961756 	0.00149064681012621 	105.097893344986 	0.00674638219169481 	0
7 	3.02557058719784 	4.16333634234434e-17 	0.17971667124669 	0.000440278248747266 	208.689196562105 	0.00130411508988474 	0
7 	3.02984788744324 	3.46944695195361e-17 	0.179719687956162 	6.50828038006855e-05 	636.80021692964 	8.55690748047796e-05 	0
