# wallShearStress  FACE_DATA 677
#  x  y  z  wallShearStress_x  wallShearStress_y  wallShearStress_z  
0.0005 0.001 4.71292e-05 -7.1754 6.17491e-16 -5.79669e-17
0.0005 0.001 0.000141083 -7.17543 3.41367e-16 -7.32754e-17
0.0005 0.001 0.00023443 -7.17543 5.54422e-16 -2.51327e-16
0.0005 0.001 0.000327172 -7.17545 2.23534e-16 -2.80963e-16
0.0005 0.001 0.000419316 -7.17548 5.09977e-16 -2.12038e-16
0.0005 0.001 0.000510864 -7.17548 -1.24211e-16 -2.60223e-16
0.0005 0.001 0.00060182 -7.17551 5.89009e-16 -3.07723e-16
0.0005 0.001 0.000692188 -7.17551 -3.07183e-16 -4.1026e-16
0.0005 0.001 0.000781971 -7.17551 6.08006e-16 -5.25642e-16
0.0005 0.001 0.000871175 -7.17553 -3.67612e-16 -5.07213e-16
0.0005 0.001 0.000959801 -7.17553 4.82712e-16 -4.77955e-16
0.0005 0.001 0.00104786 -7.17553 -3.32261e-16 -5.0519e-16
0.0005 0.001 0.00113534 -7.17553 3.44985e-16 -3.05357e-16
0.0005 0.001 0.00122226 -7.17553 -1.54005e-16 -3.23071e-16
0.0005 0.001 0.00130862 -7.17553 3.4418e-16 -3.4158e-16
0.0005 0.001 0.00139441 -7.17553 4.80943e-16 -4.39162e-16
0.0005 0.001 0.00147966 -7.17553 4.24421e-16 -4.27394e-16
0.0005 0.001 0.00156435 -7.17553 3.8044e-16 -4.97893e-16
0.0005 0.001 0.0016485 -7.17553 -6.98403e-16 -4.30139e-16
0.0005 0.001 0.0017321 -7.17553 -4.07953e-16 -3.72652e-16
0.0005 0.001 0.00181516 -7.17553 -5.21756e-16 -3.70607e-16
0.0005 0.001 0.00189768 -7.17553 3.65014e-16 -3.18999e-16
0.0005 0.001 0.00197967 -7.17553 2.48255e-16 -4.20324e-16
0.0005 0.001 0.00206114 -7.17551 5.18643e-16 -5.96604e-16
0.0005 0.001 0.00214207 -7.17551 -8.36112e-16 -5.79601e-16
0.0005 0.001 0.00222248 -7.17551 -4.77139e-16 -5.36662e-16
0.0005 0.001 0.00230237 -7.17551 -1.2735e-15 -5.53665e-16
0.0005 0.001 0.00238175 -7.17548 -3.21957e-16 -3.24991e-16
0.0005 0.001 0.00246061 -7.17548 -5.71159e-16 -3.60469e-16
0.0005 0.001 0.00253896 -7.17548 1.21239e-18 -3.50407e-16
0.0005 0.001 0.0026168 -7.17548 -2.94169e-16 -3.04639e-16
0.0005 0.001 0.00269415 -7.17545 -4.17045e-17 -2.88218e-16
0.0005 0.001 0.00277099 -7.17545 4.91095e-16 -3.35336e-16
0.0005 0.001 0.00284733 -7.17545 6.13313e-17 -2.40735e-16
0.0005 0.001 0.00292318 -7.17543 8.75366e-16 -3.71191e-16
0.0005 0.001 0.00299855 -7.17543 2.428e-16 -4.64771e-16
0.0005 0.001 0.00307342 -7.17543 1.04161e-15 -5.80628e-16
0.0005 0.001 0.00314781 -7.1754 3.5561e-17 -6.18412e-16
0.0005 0.001 0.00322172 -7.1754 8.05968e-16 -6.43378e-16
0.0005 0.001 0.00329515 -7.17538 -2.75325e-16 -6.28044e-16
0.0005 0.001 0.00336811 -7.17538 3.38167e-16 -6.37054e-16
0.0005 0.001 0.00344059 -7.17538 -5.22695e-16 -6.77914e-16
0.0005 0.001 0.00351261 -7.17535 9.92975e-17 -5.20039e-16
0.0005 0.001 0.00358416 -7.17535 -6.63048e-16 -6.10689e-16
0.0005 0.001 0.00365525 -7.17532 -9.33291e-17 -5.32475e-16
0.0005 0.001 0.00372588 -7.17532 -1.02406e-16 -5.90524e-16
0.0005 0.001 0.00379605 -7.1753 -3.199e-16 -5.64586e-16
0.0005 0.001 0.00386577 -7.1753 -1.35303e-16 -5.14553e-16
0.0005 0.001 0.00393503 -7.17527 -7.47578e-16 -5.4521e-16
0.0005 0.001 0.00400385 -7.17527 -3.68849e-16 -4.21382e-16
0.0005 0.001 0.00407223 -7.17525 -3.76484e-16 -4.3975e-16
0.0005 0.001 0.00414016 -7.17525 -1.7561e-16 -4.76375e-16
0.0005 0.001 0.00420766 -7.17522 -4.88468e-16 -3.42573e-16
0.0005 0.001 0.00427471 -7.17519 -1.19118e-16 -3.10004e-16
0.0005 0.001 0.00434134 -7.17519 -1.20946e-16 -3.00863e-16
0.0005 0.001 0.00440753 -7.17517 3.20948e-17 -3.7542e-16
0.0005 0.001 0.0044733 -7.17517 -1.48127e-16 -3.8409e-16
0.0005 0.001 0.00453864 -7.17514 -2.47887e-18 -3.98039e-16
0.0005 0.001 0.00460356 -7.17511 -1.05655e-16 -3.44902e-16
0.0005 0.001 0.00466805 -7.17509 6.52045e-17 -4.25419e-16
0.0005 0.001 0.00473213 -7.17509 7.15569e-16 -5.34135e-16
0.0005 0.001 0.0047958 -7.17506 -8.36158e-16 -6.09165e-16
0.0005 0.001 0.00485906 -7.17504 4.97743e-16 -6.11311e-16
0.0005 0.001 0.0049219 -7.17501 -7.92712e-16 -4.74388e-16
0.0005 0.001 0.00498434 -7.17501 3.29232e-16 -4.9998e-16
0.0005 0.001 0.00504638 -7.17498 -7.09573e-16 -4.56641e-16
0.0005 0.001 0.00510802 -7.17496 3.03375e-16 -3.79184e-16
0.0005 0.001 0.00516925 -7.17493 -5.58351e-16 -3.12471e-16
0.0005 0.001 0.00523009 -7.17491 3.03243e-16 -2.33716e-16
0.0005 0.001 0.00529054 -7.17488 -3.94904e-16 -1.9769e-16
0.0005 0.001 0.0053506 -7.17485 3.05918e-16 -1.78742e-16
0.0005 0.001 0.00541027 -7.17483 -2.76893e-16 -1.86433e-16
0.0005 0.001 0.00546955 -7.1748 3.01898e-16 -1.32169e-16
0.0005 0.001 0.00552845 -7.17477 -1.3149e-16 -1.59787e-16
0.0005 0.001 0.00558697 -7.17475 1.33858e-16 -2.27304e-16
0.0005 0.001 0.00564511 -7.17472 2.6068e-16 -1.98268e-16
0.0005 0.001 0.00570288 -7.1747 -1.9596e-16 -2.06831e-16
0.0005 0.001 0.00576027 -7.17467 1.72152e-16 -2.36027e-16
0.0005 0.001 0.00581729 -7.17462 -3.33003e-17 -2.63331e-16
0.0005 0.001 0.00587394 -7.17459 2.60046e-16 -3.02601e-16
0.0005 0.001 0.00593023 -7.17457 2.48704e-17 -3.18273e-16
0.0005 0.001 0.00598615 -7.17451 1.1327e-17 -2.42683e-16
0.0005 0.001 0.00604171 -7.17449 1.15452e-16 -2.777e-16
0.0005 0.001 0.00609691 -7.17443 -9.94694e-19 -3.17366e-16
0.0005 0.001 0.00615175 -7.17441 -7.27418e-17 -2.2316e-16
0.0005 0.001 0.00620624 -7.17436 -1.81907e-16 -1.59715e-16
0.0005 0.001 0.00626038 -7.1743 -8.55823e-17 -1.74231e-16
0.0005 0.001 0.00631417 -7.17428 -9.94432e-17 -1.57331e-16
0.0005 0.001 0.00636761 -7.17423 8.70707e-17 -1.73165e-16
0.0005 0.001 0.0064207 -7.17417 7.89334e-17 -1.96731e-16
0.0005 0.001 0.00647345 -7.17412 -9.86793e-17 -2.5254e-16
0.0005 0.001 0.00652586 -7.17407 -9.99467e-17 -2.32644e-16
0.0005 0.001 0.00657794 -7.17402 -2.39114e-16 -1.9172e-16
0.0005 0.001 0.00662967 -7.17396 -1.50868e-16 -1.89314e-16
0.0005 0.001 0.00668107 -7.17389 -2.49217e-16 -1.68188e-16
0.0005 0.001 0.00673214 -7.17383 -1.52692e-16 -1.36445e-16
0.0005 0.001 0.00678288 -7.17375 -2.27378e-16 -1.31616e-16
0.0005 0.001 0.00683329 -7.1737 -1.89157e-16 -1.23743e-16
0.0005 0.001 0.00688337 -7.17362 -1.75875e-16 -1.1109e-16
0.0005 0.001 0.00693313 -7.17355 -1.68238e-16 -9.24356e-17
0.0005 0.001 0.00698257 -7.17349 -1.43747e-16 -7.50822e-17
0.0005 0.001 0.00703169 -7.17341 -1.15601e-16 -8.83034e-18
0.0005 0.001 0.00708049 -7.17334 -4.87347e-17 -1.20635e-16
0.0005 0.001 0.00712897 -7.17323 -3.26747e-17 -1.24044e-16
0.0005 0.001 0.00717715 -7.17315 -9.20018e-17 -1.71259e-16
0.0005 0.001 0.00722501 -7.17307 -1.04116e-16 -1.26774e-16
0.0005 0.001 0.00727256 -7.17297 8.68099e-17 -1.7056e-16
0.0005 0.001 0.0073198 -7.17286 -8.2605e-18 -2.45436e-16
0.0005 0.001 0.00736674 -7.17276 -6.05175e-17 -1.78766e-16
0.0005 0.001 0.00741338 -7.17266 -1.63016e-16 -2.5152e-16
0.0005 0.001 0.00745971 -7.17255 -1.03892e-16 -1.82257e-16
0.0005 0.001 0.00750575 -7.17245 -2.01029e-16 -2.55553e-16
0.0005 0.001 0.00755148 -7.17232 -2.11428e-16 -1.95606e-16
0.0005 0.001 0.00759692 -7.17221 -2.60574e-16 -1.78381e-16
0.0005 0.001 0.00764207 -7.17208 -7.27238e-17 -2.30556e-16
0.0005 0.001 0.00768693 -7.17195 -1.51977e-16 -2.10191e-16
0.0005 0.001 0.00773149 -7.17179 -2.02056e-16 -2.29048e-16
0.0005 0.001 0.00777577 -7.17166 -3.27138e-16 -1.32252e-16
0.0005 0.001 0.00781976 -7.1715 -1.64804e-16 -9.45587e-17
0.0005 0.001 0.00786347 -7.17135 -1.38483e-17 -1.52744e-16
0.0005 0.001 0.00790689 -7.17119 -1.4207e-16 -1.39878e-16
0.0005 0.001 0.00795003 -7.17103 -1.22624e-17 -1.19693e-16
0.0005 0.001 0.0079929 -7.17085 -9.78177e-17 -1.03924e-16
0.0005 0.001 0.00803549 -7.17067 6.28188e-17 -5.22172e-17
0.0005 0.001 0.0080778 -7.17048 -4.7403e-18 -6.57154e-17
0.0005 0.001 0.00811984 -7.1703 9.88922e-17 -9.66979e-17
0.0005 0.001 0.0081616 -7.17009 6.75486e-17 -7.58048e-17
0.0005 0.001 0.0082031 -7.16991 1.38301e-16 -8.98284e-17
0.0005 0.001 0.00824433 -7.16967 1.05219e-16 -1.23609e-16
0.0005 0.001 0.00828529 -7.16946 1.30748e-16 -2.18184e-16
0.0005 0.001 0.00832599 -7.16923 8.31424e-17 -1.83908e-16
0.0005 0.001 0.00836642 -7.16899 9.5736e-17 -1.8345e-16
0.0005 0.001 0.0084066 -7.16876 3.4322e-17 -2.22064e-16
0.0005 0.001 0.00844651 -7.1685 3.09196e-17 -1.77753e-16
0.0005 0.001 0.00848616 -7.16823 8.24356e-18 -2.65487e-16
0.0005 0.001 0.00852556 -7.16795 -2.12215e-17 -2.83676e-16
0.0005 0.001 0.00856471 -7.16769 5.06907e-17 -2.49886e-16
0.0005 0.001 0.0086036 -7.16737 -9.83043e-19 -2.1478e-16
0.0005 0.001 0.00864224 -7.16708 -5.15438e-18 -2.13361e-16
0.0005 0.001 0.00868063 -7.16677 -6.47554e-18 -1.68578e-16
0.0005 0.001 0.00871877 -7.16643 9.31818e-17 -1.57826e-16
0.0005 0.001 0.00875666 -7.16612 5.92601e-17 -2.12981e-16
0.0005 0.001 0.00879431 -7.16575 -8.31221e-18 -1.73811e-16
0.0005 0.001 0.00883172 -7.16541 -8.54345e-17 -1.77593e-16
0.0005 0.001 0.00886888 -7.16502 -8.9205e-17 -1.25964e-16
0.0005 0.001 0.00890581 -7.16465 -9.01812e-17 -1.25018e-16
0.0005 0.001 0.00894249 -7.16426 -1.91691e-17 -1.24592e-16
0.0005 0.001 0.00897894 -7.16384 3.11354e-17 -1.47209e-16
0.0005 0.001 0.00901516 -7.16342 7.48916e-17 -1.51898e-16
0.0005 0.001 0.00905114 -7.16298 6.50587e-17 -1.74275e-16
0.0005 0.001 0.00908688 -7.16253 1.61855e-17 -1.71861e-16
0.0005 0.001 0.0091224 -7.16206 -1.36362e-17 -1.64086e-16
0.0005 0.001 0.00915768 -7.16159 -8.65072e-17 -1.67286e-16
0.0005 0.001 0.00919274 -7.16109 -7.77788e-17 -1.07211e-16
0.0005 0.001 0.00922757 -7.1606 -1.92193e-16 -1.08583e-16
0.0005 0.001 0.00926218 -7.16005 -1.3647e-16 -7.89849e-17
0.0005 0.001 0.00929656 -7.15952 -1.89376e-16 -2.83333e-17
0.0005 0.001 0.00933072 -7.15895 -8.681e-17 -4.88201e-17
0.0005 0.001 0.00936466 -7.15837 -1.33372e-16 -2.65697e-17
0.0005 0.001 0.00939838 -7.1578 -2.41028e-17 -6.54222e-17
0.0005 0.001 0.00943188 -7.15717 -4.44041e-17 -7.68987e-17
0.0005 0.001 0.00946516 -7.15654 1.23159e-16 -2.83687e-17
0.0005 0.001 0.00949823 -7.15589 6.0013e-17 -5.92194e-17
0.0005 0.001 0.00953109 -7.15523 5.472e-17 -2.54503e-18
0.0005 0.001 0.00956373 -7.15453 5.63718e-17 -2.77194e-17
0.0005 0.001 0.00959617 -7.15382 -4.25445e-18 -9.79178e-18
0.0005 0.001 0.00962839 -7.15309 6.83653e-18 -4.36686e-17
0.0005 0.001 0.0096604 -7.15236 -4.34093e-17 -4.81519e-17
0.0005 0.001 0.00969221 -7.15157 -2.96328e-17 -2.60407e-17
0.0005 0.001 0.00972381 -7.15079 -3.98413e-17 -6.21511e-17
0.0005 0.001 0.00975521 -7.14998 -6.06815e-17 -3.80126e-17
0.0005 0.001 0.00978641 -7.14914 -6.5177e-17 -5.53673e-17
0.0005 0.001 0.0098174 -7.14828 -6.38465e-17 -6.43263e-17
0.0005 0.001 0.00984819 -7.14739 -5.47998e-17 -6.15482e-17
0.0005 0.001 0.00987879 -7.14647 -4.58742e-17 -3.64672e-17
0.0005 0.001 0.00990918 -7.14555 -5.17938e-17 -1.43718e-17
0.0005 0.001 0.00993938 -7.14459 -5.14372e-17 -1.86863e-17
0.0005 0.001 0.00996939 -7.14359 -5.78349e-17 2.6825e-17
0.0005 0.001 0.0099992 -7.1426 -4.48843e-17 2.33412e-17
0.0005 0.001 0.0100288 -7.14155 -1.18505e-16 5.55864e-17
0.0005 0.001 0.0100582 -7.14048 -4.9124e-17 4.43218e-17
0.0005 0.001 0.0100875 -7.13938 -8.71929e-17 3.47188e-17
0.0005 0.001 0.0101165 -7.13828 -3.44251e-17 6.84727e-17
0.0005 0.001 0.0101454 -7.13713 -8.2298e-17 7.2529e-17
0.0005 0.001 0.0101741 -7.13595 7.82509e-19 6.58589e-17
0.0005 0.001 0.0102025 -7.13475 -4.50714e-17 2.57732e-17
0.0005 0.001 0.0102308 -7.1335 2.6765e-17 3.28544e-17
0.0005 0.001 0.010259 -7.13224 -2.31092e-17 4.46101e-18
0.0005 0.001 0.0102869 -7.13093 4.59121e-17 3.16982e-17
0.0005 0.001 0.0103147 -7.1296 6.21872e-18 4.35242e-17
0.0005 0.001 0.0103422 -7.12824 6.30433e-17 3.20268e-17
0.0005 0.001 0.0103696 -7.12685 7.45562e-18 5.58643e-18
0.0005 0.001 0.0103969 -7.12541 3.63515e-17 2.67962e-17
0.0005 0.001 0.0104239 -7.12397 4.95081e-17 5.52626e-18
0.0005 0.001 0.0104508 -7.12248 6.53391e-17 -2.19346e-17
0.0005 0.001 0.0104775 -7.12094 4.53214e-17 2.3724e-17
0.0005 0.001 0.010504 -7.11937 5.43721e-17 1.40198e-18
0.0005 0.001 0.0105304 -7.11777 4.58535e-17 -2.83353e-17
0.0005 0.001 0.0105565 -7.11615 5.28574e-17 -3.11629e-17
0.0005 0.001 0.0105826 -7.11448 3.5e-17 1.01545e-17
0.0005 0.001 0.0106084 -7.11275 3.8288e-17 -2.77278e-17
0.0005 0.001 0.0106341 -7.11102 1.65408e-17 -7.65304e-17
0.0005 0.001 0.0106596 -7.10925 5.93088e-18 -4.12617e-17
0.0005 0.001 0.0106849 -7.10741 2.66802e-17 -3.70122e-17
0.0005 0.001 0.0107101 -7.10556 5.55824e-17 -5.74634e-17
0.0005 0.001 0.0107351 -7.10365 4.51315e-17 -8.44606e-17
0.0005 0.001 0.01076 -7.10171 -4.94847e-18 -1.03615e-16
0.0005 0.001 0.0107847 -7.09972 -1.49818e-17 -7.55631e-17
0.0005 0.001 0.0108092 -7.09771 2.7296e-17 -7.43152e-17
0.0005 0.001 0.0108336 -7.09564 2.36853e-17 -8.41199e-17
0.0005 0.001 0.0108579 -7.09355 4.94228e-17 -7.57386e-17
0.0005 0.001 0.0108819 -7.09141 2.65454e-17 -6.63914e-17
0.0005 0.001 0.0109058 -7.08923 6.31695e-17 -6.99832e-17
0.0005 0.001 0.0109296 -7.08698 4.81967e-17 -5.81806e-17
0.0005 0.001 0.0109532 -7.08473 9.82128e-17 -6.55268e-17
0.0005 0.001 0.0109766 -7.08241 9.27025e-17 -6.94738e-17
0.0005 0.001 0.0109999 -7.08005 1.57766e-16 -8.59384e-17
0.0005 0.001 0.0110231 -7.07765 1.3229e-16 -7.61186e-17
0.0005 0.001 0.0110461 -7.07519 1.73086e-16 -4.81301e-17
0.0005 0.001 0.0110689 -7.0727 1.3291e-16 -6.55655e-17
0.0005 0.001 0.0110916 -7.07016 1.41947e-16 -6.04932e-17
0.0005 0.001 0.0111142 -7.06757 6.98794e-17 -7.1476e-17
0.0005 0.001 0.0111366 -7.06496 5.01715e-17 -6.73098e-17
0.0005 0.001 0.0111589 -7.06226 7.02729e-18 -7.28905e-17
0.0005 0.001 0.011181 -7.05954 -6.13105e-18 -6.41754e-17
0.0005 0.001 0.011203 -7.05677 -1.75257e-17 -2.92147e-17
0.0005 0.001 0.0112248 -7.05397 7.01806e-18 -5.78462e-18
0.0005 0.001 0.0112465 -7.05109 2.32479e-17 -2.29627e-17
0.0005 0.001 0.011268 -7.04819 6.14257e-17 -4.93227e-17
0.0005 0.001 0.0112895 -7.04523 5.33458e-17 -4.96739e-17
0.0005 0.001 0.0113107 -7.04223 4.99471e-17 -6.56476e-17
0.0005 0.001 0.0113319 -7.03917 4.38227e-17 -3.62625e-17
0.0005 0.001 0.0113529 -7.03605 5.14903e-17 -6.55792e-17
0.0005 0.001 0.0113737 -7.03289 3.18673e-17 -7.07514e-17
0.0005 0.001 0.0113945 -7.0297 2.20989e-17 -4.97081e-17
0.0005 0.001 0.0114151 -7.02643 9.37653e-18 -4.65453e-17
0.0005 0.001 0.0114355 -7.02313 2.1365e-17 -4.80705e-17
0.0005 0.001 0.0114559 -7.01978 -1.79326e-17 -3.4898e-17
0.0005 0.001 0.0114761 -7.01638 1.22872e-17 -8.18996e-18
0.0005 0.001 0.0114961 -7.01293 5.15851e-18 -1.37479e-17
0.0005 0.001 0.0115161 -7.00942 3.83633e-17 6.0858e-18
0.0005 0.001 0.0115359 -7.00586 2.56578e-17 5.49997e-18
0.0005 0.001 0.0115556 -7.00225 5.6848e-17 -8.44301e-18
0.0005 0.001 0.0115751 -6.99859 2.46094e-17 -7.73718e-18
0.0005 0.001 0.0115946 -6.99488 4.58769e-17 -1.24892e-17
0.0005 0.001 0.0116139 -6.99111 7.55512e-20 -3.29792e-18
0.0005 0.001 0.011633 -6.98732 1.51761e-17 8.21194e-18
0.0005 0.001 0.0116521 -6.98345 -4.26532e-17 1.67214e-17
0.0005 0.001 0.011671 -6.97955 -3.64143e-17 2.95525e-17
0.0005 0.001 0.0116898 -6.97557 -6.38537e-17 7.96339e-17
0.0005 0.001 0.0117085 -6.97157 7.03964e-18 7.7353e-17
0.0005 0.001 0.0117271 -6.96749 2.90207e-17 7.67078e-17
0.0005 0.001 0.0117455 -6.96338 8.04743e-18 7.7742e-17
0.0005 0.001 0.0117639 -6.95922 1.20398e-17 6.35672e-17
0.0005 0.001 0.0117821 -6.95501 1.62159e-17 1.10163e-16
0.0005 0.001 0.0118002 -6.95072 2.66887e-17 6.49594e-17
0.0005 0.001 0.0118182 -6.9464 1.88363e-17 7.15919e-17
0.0005 0.001 0.011836 -6.94204 2.7187e-17 7.542e-17
0.0005 0.001 0.0118538 -6.93761 1.99381e-17 5.10795e-17
0.0005 0.001 0.0118714 -6.93314 7.39617e-18 5.69479e-17
0.0005 0.001 0.0118889 -6.92862 -2.63241e-17 3.84581e-17
0.0005 0.001 0.0119063 -6.92406 -3.48876e-17 3.52978e-17
0.0005 0.001 0.0119236 -6.91943 -6.06098e-17 3.55829e-17
0.0005 0.001 0.0119408 -6.91475 -6.96601e-17 4.9728e-17
0.0005 0.001 0.0119578 -6.91004 -7.22405e-17 6.57913e-17
0.0005 0.001 0.0119748 -6.90526 -7.24667e-18 9.35067e-17
0.0005 0.001 0.0119916 -6.90044 4.4038e-17 4.8092e-17
0.0005 0.001 0.0120084 -6.89558 -1.96832e-17 2.66921e-17
0.0005 0.001 0.012025 -6.89066 1.09171e-17 3.60416e-17
0.0005 0.001 0.0120415 -6.88569 -2.39655e-17 1.89091e-17
0.0005 0.001 0.0120579 -6.88067 2.31927e-17 1.68701e-17
0.0005 0.001 0.0120742 -6.87559 -1.57776e-17 6.48504e-18
0.0005 0.001 0.0120904 -6.87049 2.43486e-17 2.06303e-17
0.0005 0.001 0.0121065 -6.86531 -1.25459e-17 2.20416e-17
0.0005 0.001 0.0121225 -6.8601 2.72364e-17 1.25491e-17
0.0005 0.001 0.0121384 -6.85485 -3.69119e-18 6.89102e-18
0.0005 0.001 0.0121542 -6.84954 2.64499e-17 -1.35437e-18
0.0005 0.001 0.0121699 -6.8442 2.37101e-18 -6.74488e-19
0.0005 0.001 0.0121855 -6.83879 2.78267e-17 -1.81623e-17
0.0005 0.001 0.012201 -6.83334 -2.56827e-17 -2.93911e-17
0.0005 0.001 0.0122164 -6.82788 -2.13601e-17 -1.56183e-17
0.0005 0.001 0.0122316 -6.82233 -1.91917e-17 -3.00161e-17
0.0005 0.001 0.0122468 -6.81676 -5.34235e-17 8.20221e-18
0.0005 0.001 0.0122619 -6.81113 -4.04192e-17 5.57635e-17
0.0005 0.001 0.0122769 -6.80546 -2.6339e-18 6.68621e-17
0.0005 0.001 0.0122918 -6.79976 2.95231e-17 5.03441e-17
0.0005 0.001 0.0123066 -6.794 3.30144e-17 7.69178e-18
0.0005 0.001 0.0123213 -6.78819 1.03311e-17 -1.38261e-17
0.0005 0.001 0.0123359 -6.78236 -1.45284e-17 9.37553e-18
0.0005 0.001 0.0123504 -6.77647 2.94214e-18 4.69525e-17
0.0005 0.001 0.0123648 -6.77056 4.1667e-17 4.92723e-17
0.0005 0.001 0.0123792 -6.7646 5.78308e-17 2.96376e-17
0.0005 0.001 0.0123934 -6.75858 4.98432e-17 -1.26708e-17
0.0005 0.001 0.0124075 -6.75254 5.21154e-18 -4.71221e-17
0.0005 0.001 0.0124216 -6.74647 -7.07927e-17 -3.29127e-17
0.0005 0.001 0.0124355 -6.74035 -8.09547e-17 1.30359e-17
0.0005 0.001 0.0124494 -6.73417 -1.76035e-17 3.86605e-17
0.0005 0.001 0.0124632 -6.72797 9.4652e-18 2.25655e-17
0.0005 0.001 0.0124769 -6.72175 4.26054e-17 4.49667e-18
0.0005 0.001 0.0124905 -6.71547 3.00153e-17 -9.97229e-19
0.0005 0.001 0.012504 -6.70914 3.47144e-17 -1.17004e-17
0.0005 0.001 0.0125174 -6.70281 2.00605e-17 -9.3814e-18
0.0005 0.001 0.0125307 -6.69643 3.00071e-17 -1.48244e-17
0.0005 0.001 0.012544 -6.68999 1.98039e-17 -1.23896e-17
0.0005 0.001 0.0125572 -6.68353 3.24889e-17 -7.14734e-18
0.0005 0.001 0.0125702 -6.67704 2.80869e-17 -1.03477e-17
0.0005 0.001 0.0125832 -6.67053 4.79975e-17 -6.78422e-18
0.0005 0.001 0.0125962 -6.66396 3.6816e-17 -2.42245e-17
0.0005 0.001 0.012609 -6.65737 2.69328e-17 -4.26229e-17
0.0005 0.001 0.0126217 -6.65075 -2.0804e-17 -2.71792e-17
0.0005 0.001 0.0126344 -6.64411 -1.68229e-17 -3.75083e-19
0.0005 0.001 0.012647 -6.63741 4.48538e-18 1.57463e-17
0.0005 0.001 0.0126595 -6.63069 4.03314e-17 1.30416e-17
0.0005 0.001 0.0126719 -6.62394 3.63706e-17 -1.88259e-18
0.0005 0.001 0.0126842 -6.61716 4.77055e-17 6.92755e-18
0.0005 0.001 0.0126965 -6.61034 4.43264e-17 1.0165e-17
0.0005 0.001 0.0127087 -6.60351 7.08763e-17 1.03561e-17
0.0005 0.001 0.0127208 -6.59663 7.72845e-17 -5.13881e-18
0.0005 0.001 0.0127328 -6.58972 9.25791e-17 -2.88811e-17
0.0005 0.001 0.0127447 -6.58279 7.56523e-17 -4.91312e-17
0.0005 0.001 0.0127566 -6.57583 6.02155e-17 -6.23242e-17
0.0005 0.001 0.0127684 -6.56885 3.55737e-17 -5.24374e-17
0.0005 0.001 0.0127801 -6.56181 2.76218e-17 -4.52073e-17
0.0005 0.001 0.0127918 -6.55477 1.57143e-17 -2.74929e-17
0.0005 0.001 0.0128033 -6.54771 2.45409e-17 -1.22685e-17
0.0005 0.001 0.0128148 -6.5406 3.38617e-17 -8.2509e-18
0.0005 0.001 0.0128262 -6.53348 6.22637e-17 -1.07692e-17
0.0005 0.001 0.0128376 -6.52634 7.97344e-17 -2.72184e-17
0.0005 0.001 0.0128488 -6.51915 9.0628e-17 -3.8531e-17
0.0005 0.001 0.01286 -6.51195 8.77967e-17 -4.98221e-17
0.0005 0.001 0.0128712 -6.50473 8.65627e-17 -4.72168e-17
0.0005 0.001 0.0128822 -6.49746 7.47011e-17 -3.92039e-17
0.0005 0.001 0.0128932 -6.49019 6.82078e-17 -3.66525e-17
0.0005 0.001 0.0129041 -6.48289 5.7102e-17 -3.35902e-17
0.0005 0.001 0.0129149 -6.47556 5.1266e-17 -3.92077e-17
0.0005 0.001 0.0129257 -6.46821 4.31204e-17 -4.41672e-17
0.0005 0.001 0.0129364 -6.46084 3.90482e-17 -3.95956e-17
0.0005 0.001 0.012947 -6.45343 4.45912e-17 -4.20726e-17
0.0005 0.001 0.0129576 -6.44603 5.64201e-17 -3.96566e-17
0.0005 0.001 0.0129681 -6.43857 5.09122e-17 -5.10341e-17
0.0005 0.001 0.0129785 -6.43112 4.22474e-17 -8.06219e-17
0.0005 0.001 0.0129889 -6.42364 1.88421e-17 -7.04293e-17
0.0005 0.001 0.0129992 -6.41613 1.52692e-17 -6.74343e-17
0.0005 0.001 0.0130094 -6.4086 1.35801e-17 -6.66293e-17
0.0005 0.001 0.0130195 -6.40104 2.01633e-17 -7.96197e-17
0.0005 0.001 0.0130296 -6.39348 1.24697e-17 -9.94391e-17
0.0005 0.001 0.0130397 -6.38586 1.7156e-17 -9.77233e-17
0.0005 0.001 0.0130496 -6.37825 1.1634e-17 -9.49143e-17
0.0005 0.001 0.0130595 -6.37061 1.82754e-17 -9.66026e-17
0.0005 0.001 0.0130694 -6.36295 1.27749e-17 -1.12468e-16
0.0005 0.001 0.0130791 -6.35528 1.80481e-17 -1.10917e-16
0.0005 0.001 0.0130888 -6.34757 1.17649e-17 -1.02703e-16
0.0005 0.001 0.0130985 -6.33985 1.86282e-17 -9.10589e-17
0.0005 0.001 0.0131081 -6.33211 1.83565e-17 -8.48642e-17
0.0005 0.001 0.0131176 -6.32434 1.62095e-17 -8.70929e-17
0.0005 0.001 0.013127 -6.31657 5.47652e-18 -8.51827e-17
0.0005 0.001 0.0131364 -6.30875 8.41946e-19 -9.15932e-17
0.0005 0.001 0.0131458 -6.30092 2.37739e-19 -9.48373e-17
0.0005 0.001 0.013155 -6.29308 4.93419e-18 -1.05288e-16
0.0005 0.001 0.0131643 -6.28523 7.527e-18 -1.09029e-16
0.0005 0.001 0.0131734 -6.27733 1.22336e-17 -1.14186e-16
0.0005 0.001 0.0131825 -6.26943 1.68538e-17 -1.16887e-16
0.0005 0.001 0.0131916 -6.2615 1.90092e-17 -1.22303e-16
0.0005 0.001 0.0132005 -6.25355 1.70201e-17 -1.3949e-16
0.0005 0.001 0.0132095 -6.2456 1.50651e-17 -1.47682e-16
0.0005 0.001 0.0132183 -6.23759 8.043e-18 -1.58454e-16
0.0005 0.001 0.0132271 -6.22959 6.26785e-18 -1.44138e-16
0.0005 0.001 0.0132359 -6.22156 1.25313e-17 -1.27571e-16
0.0005 0.001 0.0132446 -6.21353 2.24498e-17 -1.28933e-16
0.0005 0.001 0.0132532 -6.20544 2.42223e-17 -1.40144e-16
0.0005 0.001 0.0132618 -6.19736 1.4175e-17 -1.50909e-16
0.0005 0.001 0.0132703 -6.18925 -2.19664e-18 -1.43786e-16
0.0005 0.001 0.0132788 -6.18112 -8.27659e-18 -1.42023e-16
0.0005 0.001 0.0132872 -6.17295 -3.44449e-18 -1.37607e-16
0.0005 0.001 0.0132956 -6.16479 4.85489e-18 -1.37997e-16
0.0005 0.001 0.0133039 -6.1566 7.16348e-18 -1.46555e-16
0.0005 0.001 0.0133121 -6.14839 1.15314e-17 -1.46434e-16
0.0005 0.001 0.0133203 -6.14015 1.57951e-17 -1.32726e-16
0.0005 0.001 0.0133285 -6.13188 2.39529e-17 -1.25435e-16
0.0005 0.001 0.0133366 -6.12359 2.58747e-17 -1.22424e-16
0.0005 0.001 0.0133446 -6.1153 1.97354e-17 -1.2635e-16
0.0005 0.001 0.0133526 -6.10695 6.4356e-18 -1.29258e-16
0.0005 0.001 0.0133605 -6.09861 -4.7646e-18 -1.26068e-16
0.0005 0.001 0.0133684 -6.09024 -4.16878e-18 -1.1129e-16
0.0005 0.001 0.0133763 -6.08184 3.48399e-18 -1.102e-16
0.0005 0.001 0.0133841 -6.07342 1.49151e-17 -1.17464e-16
0.0005 0.001 0.0133918 -6.06499 1.90688e-17 -1.16887e-16
0.0005 0.001 0.0133995 -6.05652 2.08049e-17 -1.26401e-16
0.0005 0.001 0.0134071 -6.04802 2.1906e-17 -1.24009e-16
0.0005 0.001 0.0134147 -6.03952 2.09459e-17 -1.20067e-16
0.0005 0.001 0.0134222 -6.03096 1.86355e-17 -1.16248e-16
0.0005 0.001 0.0134297 -6.02241 1.69076e-17 -1.07295e-16
0.0005 0.001 0.0134372 -6.01383 1.64733e-17 -9.9134e-17
0.0005 0.001 0.0134446 -6.00519 1.88064e-17 -9.51924e-17
0.0005 0.001 0.0134519 -5.99656 1.71647e-17 -8.98463e-17
0.0005 0.001 0.0134592 -5.9879 1.32347e-17 -9.80206e-17
0.0005 0.001 0.0134664 -5.97919 8.61158e-18 -1.01055e-16
0.0005 0.001 0.0134737 -5.97048 6.48594e-18 -9.36152e-17
0.0005 0.001 0.0134808 -5.96174 9.56859e-18 -8.49724e-17
0.0005 0.001 0.0134879 -5.95295 1.31838e-17 -7.93791e-17
0.0005 0.001 0.013495 -5.94417 1.51198e-17 -8.74094e-17
0.0005 0.001 0.013502 -5.93532 2.14166e-17 -9.58811e-17
0.0005 0.001 0.013509 -5.92648 2.42664e-17 -9.9335e-17
0.0005 0.001 0.0135159 -5.91759 2.59646e-17 -1.00663e-16
0.0005 0.001 0.0135228 -5.90867 2.62812e-17 -9.9209e-17
0.0005 0.001 0.0135296 -5.89972 2.63937e-17 -9.74212e-17
0.0005 0.001 0.0135364 -5.89075 2.8018e-17 -9.83427e-17
0.0005 0.001 0.0135432 -5.88175 3.02186e-17 -9.13961e-17
0.0005 0.001 0.0135499 -5.8727 3.21893e-17 -9.29494e-17
0.0005 0.001 0.0135565 -5.86362 2.91178e-17 -1.01807e-16
0.0005 0.001 0.0135632 -5.85452 2.43111e-17 -1.0618e-16
0.0005 0.001 0.0135697 -5.84539 1.96e-17 -1.09662e-16
0.0005 0.001 0.0135763 -5.83623 1.59586e-17 -1.07756e-16
0.0005 0.001 0.0135828 -5.82702 1.50367e-17 -1.09299e-16
0.0005 0.001 0.0135892 -5.81779 1.7118e-17 -1.12473e-16
0.0005 0.001 0.0135956 -5.8085 2.0166e-17 -1.13592e-16
0.0005 0.001 0.013602 -5.79922 2.43719e-17 -1.17923e-16
0.0005 0.001 0.0136083 -5.78985 2.58939e-17 -1.24873e-16
0.0005 0.001 0.0136146 -5.78049 2.64592e-17 -1.27154e-16
0.0005 0.001 0.0136209 -5.77107 2.32335e-17 -1.29326e-16
0.0005 0.001 0.0136271 -5.7616 2.08126e-17 -1.32334e-16
0.0005 0.001 0.0136332 -5.75213 1.88468e-17 -1.34951e-16
0.0005 0.001 0.0136393 -5.74258 1.43143e-17 -1.33019e-16
0.0005 0.001 0.0136454 -5.73301 1.17219e-17 -1.32748e-16
0.0005 0.001 0.0136515 -5.72338 1.14422e-17 -1.29522e-16
0.0005 0.001 0.0136575 -5.71373 1.17244e-17 -1.24415e-16
0.0005 0.001 0.0136635 -5.70402 1.29131e-17 -1.28322e-16
0.0005 0.001 0.0136694 -5.69427 1.37824e-17 -1.32408e-16
0.0005 0.001 0.0136753 -5.68448 1.3919e-17 -1.33975e-16
0.0005 0.001 0.0136811 -5.67465 1.15434e-17 -1.32463e-16
0.0005 0.001 0.0136869 -5.66476 8.86778e-18 -1.3306e-16
0.0005 0.001 0.0136927 -5.65482 8.57105e-18 -1.36416e-16
0.0005 0.001 0.0136985 -5.64482 8.19104e-18 -1.3913e-16
0.0005 0.001 0.0137042 -5.63478 8.09101e-18 -1.40235e-16
0.0005 0.001 0.0137098 -5.62471 7.60501e-18 -1.37682e-16
0.0005 0.001 0.0137155 -5.61456 7.86387e-18 -1.35001e-16
0.0005 0.001 0.0137211 -5.60438 6.76499e-18 -1.31326e-16
0.0005 0.001 0.0137266 -5.59415 9.27949e-18 -1.22679e-16
0.0005 0.001 0.0137321 -5.58387 9.88627e-18 -1.15855e-16
0.0005 0.001 0.0137376 -5.57354 1.0981e-17 -1.11477e-16
0.0005 0.001 0.0137431 -5.56316 1.07823e-17 -1.06424e-16
0.0005 0.001 0.0137485 -5.55274 9.23388e-18 -1.07106e-16
0.0005 0.001 0.0137539 -5.54225 6.95109e-18 -1.04501e-16
0.0005 0.001 0.0137592 -5.53171 5.19283e-18 -9.58338e-17
0.0005 0.001 0.0137645 -5.52112 1.79866e-19 -8.65933e-17
0.0005 0.001 0.0137698 -5.5105 -1.26845e-18 -7.50397e-17
0.0005 0.001 0.013775 -5.4998 -2.4848e-18 -6.46028e-17
0.0005 0.001 0.0137802 -5.48905 -1.56877e-18 -5.49913e-17
0.0005 0.001 0.0137854 -5.47824 -3.949e-18 -4.65097e-17
0.0005 0.001 0.0137906 -5.46739 -2.24198e-19 -4.2893e-17
0.0005 0.001 0.0137957 -5.45648 8.90429e-19 -3.87769e-17
0.0005 0.001 0.0138007 -5.44549 3.82593e-18 -3.08436e-17
0.0005 0.001 0.0138058 -5.43445 4.29883e-18 -2.47291e-17
0.0005 0.001 0.0138108 -5.42339 8.69529e-18 -2.29334e-17
0.0005 0.001 0.0138158 -5.41222 1.01274e-17 -2.01817e-17
0.0005 0.001 0.0138207 -5.40102 9.33621e-18 -2.23899e-17
0.0005 0.001 0.0138256 -5.38975 9.41277e-18 -2.20304e-17
0.0005 0.001 0.0138305 -5.37842 9.44411e-18 -1.70436e-17
0.0005 0.001 0.0138354 -5.36704 9.98515e-18 -1.23769e-17
0.0005 0.001 0.0138402 -5.35558 7.40458e-18 -4.66525e-18
0.0005 0.001 0.013845 -5.34407 9.35998e-18 2.70484e-18
0.0005 0.001 0.0138497 -5.33248 8.41599e-18 6.89472e-18
0.0005 0.001 0.0138544 -5.32084 1.04331e-17 1.16841e-17
0.0005 0.001 0.0138591 -5.30912 9.47343e-18 1.89343e-17
0.0005 0.001 0.0138638 -5.29735 9.405e-18 2.37385e-17
0.0005 0.001 0.0138684 -5.2855 1.14683e-17 2.97723e-17
0.0005 0.001 0.013873 -5.2736 1.21851e-17 3.43618e-17
0.0005 0.001 0.0138776 -5.26159 1.30301e-17 3.82204e-17
0.0005 0.001 0.0138822 -5.24956 1.42406e-17 4.1966e-17
0.0005 0.001 0.0138867 -5.23742 1.6144e-17 4.6619e-17
0.0005 0.001 0.0138912 -5.22523 1.71299e-17 4.86308e-17
0.0005 0.001 0.0138956 -5.21296 1.54343e-17 4.65452e-17
0.0005 0.001 0.0139001 -5.20064 1.33011e-17 4.98578e-17
0.0005 0.001 0.0139045 -5.18822 1.22714e-17 5.40372e-17
0.0005 0.001 0.0139088 -5.17574 9.15992e-18 6.10231e-17
0.0005 0.001 0.0139132 -5.16315 7.00109e-18 6.69025e-17
0.0005 0.001 0.0139175 -5.15052 7.09962e-18 7.577e-17
0.0005 0.001 0.0139218 -5.13781 6.80109e-18 8.34905e-17
0.0005 0.001 0.013926 -5.12501 7.87541e-18 8.92475e-17
0.0005 0.001 0.0139303 -5.11212 8.78983e-18 9.38964e-17
0.0005 0.001 0.0139345 -5.09917 8.48738e-18 9.42037e-17
0.0005 0.001 0.0139386 -5.08612 8.18936e-18 9.67273e-17
0.0005 0.001 0.0139428 -5.07301 6.97909e-18 9.6333e-17
0.0005 0.001 0.0139469 -5.0598 5.35026e-18 9.64224e-17
0.0005 0.001 0.013951 -5.04648 5.02441e-18 9.96996e-17
0.0005 0.001 0.0139551 -5.03312 7.38485e-18 1.04142e-16
0.0005 0.001 0.0139591 -5.01965 9.63304e-18 1.10403e-16
0.0005 0.001 0.0139631 -5.00607 1.27599e-17 1.19674e-16
0.0005 0.001 0.0139671 -4.99241 1.55728e-17 1.26514e-16
0.0005 0.001 0.0139711 -4.97868 1.98024e-17 1.29347e-16
0.0005 0.001 0.013975 -4.96484 2.3264e-17 1.32007e-16
0.0005 0.001 0.013979 -4.9509 2.70093e-17 1.33809e-16
0.0005 0.001 0.0139829 -4.93688 2.88242e-17 1.33424e-16
0.0005 0.001 0.0139867 -4.92275 3.04935e-17 1.34991e-16
0.0005 0.001 0.0139906 -4.90852 3.14602e-17 1.35903e-16
0.0005 0.001 0.0139944 -4.89419 3.48105e-17 1.3916e-16
0.0005 0.001 0.0139982 -4.87975 3.51066e-17 1.4234e-16
0.0005 0.001 0.0140019 -4.86523 3.53826e-17 1.41474e-16
0.0005 0.001 0.0140057 -4.8506 3.5128e-17 1.40458e-16
0.0005 0.001 0.0140094 -4.83585 3.56999e-17 1.40291e-16
0.0005 0.001 0.0140131 -4.82102 3.66112e-17 1.39816e-16
0.0005 0.001 0.0140167 -4.80605 3.80673e-17 1.41205e-16
0.0005 0.001 0.0140204 -4.79101 3.7648e-17 1.45803e-16
0.0005 0.001 0.014024 -4.77584 3.75357e-17 1.48238e-16
0.0005 0.001 0.0140276 -4.76056 3.71278e-17 1.49411e-16
0.0005 0.001 0.0140312 -4.74518 3.62252e-17 1.47638e-16
0.0005 0.001 0.0140347 -4.7297 3.77859e-17 1.46183e-16
0.0005 0.001 0.0140383 -4.71408 3.82357e-17 1.47027e-16
0.0005 0.001 0.0140418 -4.69836 3.7687e-17 1.4707e-16
0.0005 0.001 0.0140453 -4.68253 3.63738e-17 1.46244e-16
0.0005 0.001 0.0140487 -4.66657 3.58644e-17 1.45503e-16
0.0005 0.001 0.0140522 -4.65051 3.43034e-17 1.45732e-16
0.0005 0.001 0.0140556 -4.63432 3.35642e-17 1.46702e-16
0.0005 0.001 0.014059 -4.61802 3.33487e-17 1.48933e-16
0.0005 0.001 0.0140623 -4.60159 3.30428e-17 1.52301e-16
0.0005 0.001 0.0140657 -4.58504 3.38934e-17 1.56696e-16
0.0005 0.001 0.014069 -4.56835 3.53351e-17 1.63604e-16
0.0005 0.001 0.0140723 -4.55153 3.43642e-17 1.69217e-16
0.0005 0.001 0.0140756 -4.5346 3.6697e-17 1.71236e-16
0.0005 0.001 0.0140789 -4.51754 3.65305e-17 1.73864e-16
0.0005 0.001 0.0140821 -4.50033 3.71595e-17 1.74824e-16
0.0005 0.001 0.0140853 -4.48301 3.94369e-17 1.74706e-16
0.0005 0.001 0.0140886 -4.46554 3.93942e-17 1.73479e-16
0.0005 0.001 0.0140917 -4.44796 4.10222e-17 1.718e-16