# wallShearStress  FACE_DATA 140
#  x  y  z  wallShearStress_x  wallShearStress_y  wallShearStress_z  
-7.25802517104541 1 0 -0.00253497775238593 5.31048643521763e-05 0
-7.09407551313598 1 0 -0.00271847291733485 1.46567246208582e-05 0
-6.93012585522673 1 0 -0.00268479745217871 -1.01897914366886e-05 0
-6.76617619731779 1 0 -0.00255742305198906 -1.48641932163728e-05 0
-6.60222653940869 1 0 -0.00242463872005411 -1.13023757620523e-05 0
-6.43827688149951 1 0 -0.00233001030684814 -6.66808159937376e-06 0
-6.27432722358996 1 0 -0.00227178283955143 -3.56812017972237e-06 0
-6.11037756568055 1 0 -0.00223412537148388 -2.06748449687569e-06 0
-5.94642790777197 1 0 -0.00220763674107692 -1.43285281554084e-06 0
-5.78247824986303 1 0 -0.00218683795983713 -1.17291518543468e-06 0
-5.61852859195361 1 0 -0.00216909218809015 -1.03101179717597e-06 0
-5.45457893404443 1 0 -0.00215361641603742 -9.00350434786217e-07 0
-5.29062927613508 1 0 -0.00214037900172239 -7.52784423264175e-07 0
-5.12667961822608 1 0 -0.00212945704820374 -5.95909395008744e-07 0
-4.96272996031706 1 0 -0.00212079691007969 -4.4646752848196e-07 0
-4.79878030240771 1 0 -0.00211421213035805 -3.14828607423549e-07 0
-4.63483064449853 1 0 -0.00210945616311857 -2.03792617466797e-07 -5.06106371139979e-28
-4.47088098658917 1 0 -0.00210629068903404 -1.10775662778962e-07 5.06638116951172e-28
-4.30693132867995 1 0 -0.00210451923965298 -3.1749822299542e-08 0
-4.14298167077106 1 0 -0.00210398632347621 3.30911626485643e-08 -3.260626023231e-25
-3.9790320128619 1 0 -0.00210451318695918 8.52342382923453e-08 3.25992555872472e-25
-3.81508235495263 1 0 -0.00210598673389878 1.3153740860713e-07 0
-3.65113269704345 1 0 -0.00210836659099498 1.78069200411194e-07 -0
-3.48718303913406 1 0 -0.00211167009920567 2.27872414851717e-07 8.75096901020824e-25
-3.32323338122509 1 0 -0.00211593551312233 2.80828413448061e-07 -1.91144630807872e-24
-3.15928372331612 1 0 -0.00212120039442642 3.36264211010799e-07 1.03593164466962e-24
-2.99533406540673 1 0 -0.00212750927579853 3.9466192640392e-07 -0
-2.83138440749754 1 0 -0.00213492167232637 4.56994114953934e-07 3.19644992254557e-24
-2.66743474958815 1 0 -0.00214351840478035 5.24904445929676e-07 -6.81778117521617e-24
-2.50348509167918 1 0 -0.00215340801745207 6.00059371518587e-07 3.61933702981172e-24
-2.33953543377056 1 0 -0.00216472166866317 6.83686022060419e-07 4.59603632071186e-24
-2.17558577586117 1 0 -0.00217761622524851 7.77984614154469e-07 -4.58186494491874e-24
-2.01163611795164 1 0 -0.00219229621831774 8.86641393268797e-07 3.67010820877325e-18
-1.84768646004246 1 0 -0.00220902162665024 1.01466023418139e-06 -3.65554427609594e-18
-1.68373680213331 1 0 -0.00222815341819564 1.16887892777302e-06 7.07899544693249e-24
-1.5197871442243 1 0 -0.00225011954537087 1.35748825494308e-06 8.0855274026466e-25
-1.35583748631511 1 0 -0.00227558709755053 1.59492501649803e-06 -7.80384449541002e-24
-1.19188782840575 1 0 -0.00230523595609686 1.8990762621802e-06 -0
-1.02793817049657 1 0 -0.00234057085491257 2.30929039411041e-06 -0
-0.863988512587391 1 0 -0.00238253137995897 2.86627944877064e-06 1.18863223235775e-23
-0.70003885467821 1 0 -0.00243553325595493 3.70603321495087e-06 -1.17393076309034e-23
-0.536089196769058 1 0 -0.00249981107657058 4.96910197823811e-06 -0
-0.372139538859876 1 0 -0.00259311542185315 7.15750655626779e-06 0
-0.208189880950665 1 0 -0.00270516464169711 1.24847716585004e-05 0
-0.0442405006236541 0.999911707617342 0 -0.0029618811756207 1.63910726483008e-05 -4.66065976071313e-22
0.119667083779056 0.997389968713697 0 -0.00303174608458023 5.68251041032568e-05 2.63993198915828e-23
0.283366495799794 0.989194225022912 0 -0.00254275557939908 0.000116035507325598 -3.01058471280616e-20
0.446597376239259 0.974350310988344 0 -0.00161973869381933 0.0001355621867055 1.17549435082229e-38
0.609089975137626 0.952882746821458 0 -0.000611836282023378 9.13274457864728e-05 -2.97574680984434e-23
0.770575471395277 0.924827052654288 0 0.000139432617241897 1.02878923531073e-05 3.64430634515645e-23
0.930786804995154 0.890229623212533 0 0.00054310218931247 -7.75103708819833e-05 1.04375754295151e-22
1.08945926910783 0.849147630461967 0 0.000679569145012443 -0.000133271744629696 -2.76970310637053e-20
1.24633023736668 0.801649080995297 0 0.000687208719716561 -0.000164417264656646 1.01705855046069e-23
1.40114049840979 0.747812464606709 0 0.000609305472683965 -0.000172548301299562 9.84081522703559e-21
1.55363425980848 0.687726742331171 0 0.000502710860890334 -0.000166552552054095 -4.41687561938531e-21
1.70355963187221 0.621491112849572 0 0.000406317962628927 -0.000155419250356848 1.46812438313495e-20
1.85066816352969 0.5492153624325 0 0.000319442532611048 -0.00013853831671484 -2.35098870164458e-38
1.99471674613875 0.47101890003669 0 0.000242634359235812 -0.000121825511684779 2.80180752962905e-20
2.13546716073354 0.387031116930161 0 0.000207537136438141 -0.00012232196990666 1.80055419959211e-24
2.2729150095344 0.297721866420635 0 0.000220680557206136 -0.000147986212971144 1.83670992315982e-40
2.41107907047869 0.209611590899886 0 0.000241398443324309 -0.000148184651030204 1.09311570671666e-33
2.55475026640859 0.131006239465193 0 0.000294691341103113 -0.000151720681220884 2.61842653320098e-20
2.70433177709798 0.064332862921971 0 0.000352391269293235 -0.00014243093402321 -2.8788871091881e-20
2.86015261803014 0.0170197246524319 0 0.000293419263528528 -7.5862939416478e-05 5.59951424461258e-19
3.02180082899919 2.11664294758052e-07 0 0.000370563892619147 -1.70825320836068e-05 3.81892316119828e-19
3.18575048576634 0 0 0.0006372190444885 -2.22835108671353e-05 1.00703660622581e-23
3.34970014367547 0 0 0.000807801112497144 -1.59615966558667e-05 -2.10824782119107e-23
3.51364980158465 0 0 0.000905223671667009 -1.24085388155293e-05 1.12104603531971e-23
3.67759945949419 0 0 0.00096876944465342 -8.78464305444819e-06 -1.87575151568548e-23
3.84154911740359 0 0 0.000991710526194183 -5.96480263878315e-06 4.14968109761585e-23
4.00549877531235 0 0 0.000987018599341561 -3.21304271231347e-06 -2.28023526419787e-23
4.16944843322132 0 0 0.000955992788402811 -1.1572237553423e-06 1.31678147465906e-17
4.33339809113054 -2.77555756156289e-17 0 0.00090604595499182 7.15579535621191e-07 -1.32028082145529e-17
4.49734774904006 -5.55111512312578e-17 0 0.000838876343248616 2.24381129226148e-06 -4.01159658884678e-23
4.66129740694944 -5.55111512312578e-17 0 0.000758835523692991 3.55443460116381e-06 5.30278588690681e-23
4.82524706485808 -5.55111512312578e-17 0 0.000668375848417839 4.58554672814712e-06 -1.15088382378609e-22
4.98919672276707 -2.77555756156289e-17 0 0.000570622063072496 5.39735619085562e-06 6.27080698452879e-23
5.15314638067644 0 0 0.000467919815002735 5.97426427012989e-06 -7.70228027193368e-23
5.31709603858562 0 0 0.000362678947419587 6.35732309374691e-06 3.2496973893034e-18
5.48104569649494 0 0 0.00025677939728118 6.56449523048934e-06 7.28232799039156e-18
5.64499535440412 2.77555756156289e-17 0 0.000151942453485614 6.68286077910195e-06 1.50584041132789e-20
5.80894501231316 5.55111512312578e-17 0 4.94103041465863e-05 6.78213227591817e-06 -4.49914789652916e-18
5.97289467022235 5.55111512312578e-17 0 -4.9821413039883e-05 6.6270722127005e-06 -0
6.13684432813153 5.55111512312578e-17 0 -0.000144873397091792 6.20814334372841e-06 -0
6.30079398604105 5.55111512312578e-17 0 -0.000235112504905976 5.76079437409659e-06 1.1760197904227e-22
6.46474364395042 2.7755575615629e-17 0 -0.000320136381945936 5.29894705868478e-06 1.96647965012655e-24
6.62869330185907 0 -9.91952822272148e-16 -0.000399831083353804 4.84167028575172e-06 4.43889806071178e-17
6.79264295976806 0 9.9415716187047e-16 -0.000474189037860705 4.39192761574706e-06 -4.31703105639125e-17
6.95659261767742 0 0 -0.000543216724354139 3.95234547668326e-06 -2.18371990791958e-22
7.1205422755866 -2.7755575615629e-17 0 -0.000606983605056791 3.53271685865614e-06 1.07247340932808e-22
7.28449193349601 -5.55111512312578e-17 0 -0.000665690211982705 3.14323486652351e-06 -0
7.44844159140496 -5.55111512312578e-17 0 -0.000719606801462065 2.78416487628129e-06 4.06300286104533e-18
7.61239124931391 -5.55111512312578e-17 0 -0.000768999032834406 2.45346259207569e-06 4.01818598169651e-18
7.77634090722332 -2.77555756156289e-17 0 -0.000814126070291565 2.15183887861701e-06 9.68345452332484e-38
7.9402905651325 0 0 -0.000855284447034556 1.88270782151239e-06 -0
8.10424022304172 0 0 -0.000892801537181584 1.64427539742208e-06 9.88477433769811e-23
8.26818988095085 0 0 -0.000926969734209108 1.43133516397385e-06 -9.79374655780012e-23
8.43213953885975 0 0 -0.000958058478700677 1.24309135314645e-06 -0
8.59608919676898 0 0 -0.000986332210140976 1.07851713067453e-06 0
8.76003885467837 0 0 -0.00101205812998006 9.36917627609768e-07 0
8.92398851258753 0 0 -0.00103548657429136 8.14540380410266e-07 0
9.08793817049684 0 0 -0.00105683428501572 7.08385108358184e-07 0
9.25188782840588 0 0 -0.00107630010620174 6.17179081674343e-07 0
9.41583748631458 0 0 -0.00109406916474816 5.39616121362208e-07 0
9.57978714422387 0 0 -0.00111032052160394 4.75251538828334e-07 0
9.74373680213334 0 0 -0.00112522313578775 4.21876069039843e-07 0
9.90768646004227 0 0 -0.00113891886574387 3.76865263993374e-07 0
10.0716361179504 0 0 -0.00115153215680498 3.39478254450348e-07 0
10.2355857758616 0 0 -0.00116317861471608 3.08915713120646e-07 0
10.3995354337719 0 0 -0.00117396510885003 2.84780737853248e-07 0
10.5634850916792 0 0 -0.00118399530577273 2.66809170001853e-07 0
10.7274347495879 0 0 -0.00119336356026459 2.53582848982872e-07 0
10.8913844075006 0 0 -0.00120214872468298 2.43909405951713e-07 0
11.0553340654103 0 0 -0.00121041918580799 2.37422317917643e-07 0
11.2192837233145 0 0 -0.00121823994012453 2.34019504790859e-07 0
11.3832333812259 0 0 -0.00122567091211552 2.33408479782137e-07 0
11.5471830391392 0 0 -0.00123276958995102 2.35862935839057e-07 0
11.7111326970462 0 0 -0.00123959448444336 2.41219389118588e-07 -0
11.8750823549526 0 0 -0.00124619600842399 2.48499454346836e-07 1.98766211928522e-23
12.0390320128613 0 0 -0.00125261715470165 2.57545814844974e-07 -1.98402622966788e-23
12.2029816707707 0 0 -0.00125889844253686 2.68391418933922e-07 -0
12.3669313286805 0 0 -0.00126508008693002 2.81167063169369e-07 0
12.5308809865859 0 0 -0.00127120129942074 2.9595898097793e-07 0
12.6948306444982 0 0 -0.00127730214814801 3.12983122608037e-07 0
12.8587803024109 0 0 -0.00128342191411396 3.32307678787114e-07 0
13.0227299603168 0 0 -0.00128960311948462 3.53728963647664e-07 0
13.186679618226 0 0 -0.00129587394998961 3.76568705175349e-07 0
13.3506292761366 0 0 -0.0013022800224648 4.01310150429207e-07 0
13.5145789340457 0 0 -0.00130882091752226 4.26187490418359e-07 -0
13.6785285919536 0 0 -0.00131558121656906 4.53286296472329e-07 9.07280030253642e-24
13.8424782498604 0 0 -0.00132244545821721 4.74832057143357e-07 -9.04950033885941e-24
14.0064279077713 0 0 -0.00132967195641693 5.00480046019159e-07 8.89864096568094e-24
14.1703775656829 0 0 -0.00133666145442553 4.96943464550589e-07 -8.87491353329701e-24
14.334327223587 0 0 -0.00134442434712424 5.08670540618674e-07 -0
14.4982768814967 0 0 -0.00135038719033252 3.90260163273673e-07 0
14.6622265394092 0 0 -0.00135849484365616 3.33120472594092e-07 0
14.8261761973179 0 0 -0.00135885244123216 -3.67245511792223e-07 0
14.9901258552249 0 0 -0.00136231164396994 -7.22188261515439e-07 -0
15.1540755131362 0 0 -0.0013481297561579 -7.51617926151467e-06 1.05236745542243e-24
15.3180251710476 0 0 -0.00123047847101926 -9.28262678684287e-06 -1.08454828950975e-24
