8 	1.00195556483898 	0 	0.0221025700607104 	0.000101866776454274 	-6.80340525735616e-23
8 	1.00593833258374 	3.46944695195361e-18 	0.116622214544692 	0.00236520300438294 	9.4124408573399e-23
8 	1.01006700077429 	-3.46944695195361e-18 	0.253662307720859 	0.00784893324026405 	3.97481918202223e-25
8 	1.0143469141712 	-6.93889390390723e-18 	0.40138973855225 	0.0157981222869068 	-3.19805521806742e-25
8 	1.01878361332929 	0 	0.522687455688759 	0.0238103853918952 	-9.24662645962298e-23
8 	1.02338284177015 	3.46944695195361e-18 	0.604120636475495 	0.0306422303405288 	-3.27100392570471e-25
8 	1.02815055341735 	0 	0.653286488534958 	0.0362742272485273 	2.123330014605e-26
8 	1.03309292030413 	0 	0.682460027723327 	0.0409416816936368 	-1.5439266893108e-26
8 	1.03821634056339 	6.93889390390723e-18 	0.700638685811677 	0.0448775966981378 	-3.03349657773474e-26
8 	1.04352744671036 	6.93889390390723e-18 	0.712951775269228 	0.0482707676485823 	-5.48409655645916e-26
8 	1.04903311422875 	0 	0.722082353849779 	0.0512573709997141 	-1.13272756143493e-23
8 	1.05474047047133 	3.46944695195361e-18 	0.729425226997339 	0.0539315749291647 	-3.83611180169906e-26
8 	1.06065690388671 	3.46944695195361e-18 	0.735726634339098 	0.0563586348062585 	3.20702452526048e-26
8 	1.06679007358401 	6.93889390390723e-18 	0.741402399714114 	0.0585845786773357 	9.60076558418732e-24
8 	1.07314791924792 	1.73472347597681e-17 	0.746694345874538 	0.0606425722847534 	4.78794053062049e-26
8 	1.07973867141706 	1.38777878078145e-17 	0.751748967180788 	0.0625569602721869 	-1.57561343197745e-19
8 	1.08657086213876 	1.04083408558608e-17 	0.756658387591015 	0.0643456701016307 	-5.016955407921e-17
8.00000000000001 	1.09365333601424 	1.04083408558608e-17 	0.761482302977751 	0.0660216494048448 	4.64227617846254e-17
8.00000000000001 	1.10099526164837 	3.46944695195361e-18 	0.766260338457005 	0.0675938644914395 	1.33893414881788e-19
8.00000000000001 	1.10860614351884 	0 	0.771019417883757 	0.0690680559547957 	0
8.00000000000001 	1.11649583428022 	0 	0.775778350566904 	0.0704473649542674 	0
8.00000000000001 	1.12467454751866 	3.46944695195361e-18 	0.780550824499427 	0.0717328756772078 	-1.36163125614445e-26
8.00000000000001 	1.13315287097388 	1.04083408558608e-17 	0.785347477269693 	0.0729240894196601 	-2.61279896441696e-26
8.00000000000001 	1.1419417802455 	1.38777878078145e-17 	0.790177399076157 	0.0740193413470651 	-3.96324628572813e-26
8.00000000000001 	1.15105265300152 	1.38777878078145e-17 	0.795049237560782 	0.0750161667887068 	-5.17360684707181e-26
8.00000000000001 	1.16049728370721 	1.38777878078145e-17 	0.799971980976864 	0.0759116247046872 	2.66060844570947e-27
8 	1.17028789889366 	2.08166817117217e-17 	0.804955460381525 	0.0767025896725021 	3.10338981480179e-26
8 	1.1804371729856 	3.46944695195361e-17 	0.810010606630383 	0.0773860249244413 	-9.48726177091329e-24
8 	1.19095824470905 	4.16333634234434e-17 	0.815149502637969 	0.0779592445744754 	-1.78488782877456e-26
8 	1.20186473410003 	4.5102810375397e-17 	0.820385270538443 	0.0784201620203663 	0
8 	1.21317076013637 	4.5102810375397e-17 	0.82573182394527 	0.0787675053072106 	0
8 	1.22489095901542 	4.16333634234434e-17 	0.831203522513717 	0.0790009709413252 	0
8 	1.23704050310128 	4.16333634234434e-17 	0.83681481473791 	0.0791212676775384 	4.58442512193151e-26
8 	1.24963512056619 	3.81639164714898e-17 	0.842579911883955 	0.0791299339085722 	3.26406181767346e-23
8 	1.26269111575139 	3.46944695195361e-17 	0.848512436366073 	0.07902908026955 	3.51433067128609e-23
8 	1.27622539027389 	3.46944695195361e-17 	0.854625255635382 	0.0788213148660176 	-6.93268702881244e-27
8 	1.29025546490643 	3.46944695195361e-17 	0.860930423133751 	0.0785097048938838 	-4.04571017610449e-23
8 	1.30479950225896 	3.81639164714898e-17 	0.867439103041882 	0.0780977819898659 	-5.50728706219559e-26
8 	1.31987633029102 	4.16333634234434e-17 	0.874161424860431 	0.0775895543134803 	-4.62552828032586e-23
8 	1.33550546668545 	3.81639164714898e-17 	0.881106248065155 	0.0769895147970993 	-1.21592591638287e-26
8 	1.35170714411495 	4.16333634234434e-17 	0.888280832800045 	0.0763026327521816 	0
8 	1.3685023364343 	3.80758250449753e-17 	0.895689508828466 	0.0755345312712126 	1.47888828063319e-24
8 	1.38591278583199 	2.63393365278197e-17 	0.9033348701055 	0.0746910678208138 	2.06797566824432e-24
8 	1.40396103097653 	3.05067386283109e-17 	0.911218334302838 	0.0737774387527656 	1.24606740595836e-22
8 	1.42267043619387 	3.01814779765652e-17 	0.919336701841445 	0.0727994677634292 	-1.36907665810705e-22
8 	1.44206522171365 	2.64545330086463e-17 	0.927683283551113 	0.0717627660254048 	1.21546216715151e-22
8 	1.46217049502345 	2.63190077370856e-17 	0.936247751728972 	0.0706726238519778 	-8.80334334318365e-24
8 	1.48301228337162 	2.15756232324615e-17 	0.945016072350408 	0.0695339368670992 	1.52572366158997e-22
8 	1.50461756746086 	1.58293517182884e-17 	0.953970492588783 	0.0683511392493723 	-1.69517357805242e-23
8 	1.52701431637602 	1.38235776991902e-17 	0.963089582408983 	0.0671281342099233 	2.88990426301434e-24
8 	1.55023152379143 	1.22514845490862e-17 	0.972348342524827 	0.0658682247816597 	4.84816846540555e-23
8 	1.57429924550461 	7.69783542464708e-18 	0.981718389087016 	0.0645740580504576 	-1.81962829979851e-22
8 	1.59924863834497 	1.00830802041152e-17 	0.991168211908368 	0.0632475972578516 	-3.48527621870077e-23
8 	1.62511200050781 	1.0842021724855e-17 	1.00066349387574 	0.0618901221972801 	-5.01056860308453e-24
8 	1.65192281336592 	8.45677694538693e-18 	1.01016749720737 	0.0605022304965435 	-4.16538750228636e-22
7.99999999999999 	1.67971578481282 	5.63785129692462e-18 	1.01964156978577 	0.0590838044525066 	3.87453432495716e-22
7.99999999999999 	1.70852689419381 	2.16840434497101e-18 	1.0290458546347 	0.0576339319044784 	-4.19037136075576e-22
7.99999999999999 	1.73839343888296 	2.71050543121376e-18 	1.03834027778611 	0.056150829535406 	-4.05250438107802e-22
7.99999999999999 	1.76935408256639 	-2.27682456221956e-18 	1.04748582555608 	0.0546318603963685 	5.07677910315977e-22
7.99999999999999 	1.80144890529425 	-3.68628738645072e-18 	1.05644597505961 	0.0530737059260244 	-2.48446139663424e-24
7.99999999999999 	1.83471945536633 	2.38524477946811e-18 	1.0651880098551 	0.0514726508004774 	4.20982149739178e-22
7.99999999999999 	1.86920880311829 	7.58941520739853e-18 	1.07368411167765 	0.0498249979963099 	1.25209184198324e-23
7.99999999999999 	1.9049615966783 	1.38777878078145e-17 	1.08191190493839 	0.0481276186658964 	9.72929383180832e-22
7.99999999999999 	1.94202411976624 	1.30104260698261e-17 	1.08985383840097 	0.0463784233842677 	-3.71953746303515e-23
7.99999999999999 	1.98044435161018 	1.30104260698261e-17 	1.09749579480932 	0.0445750746012019 	-3.9621735426532e-23
7.99999999999999 	2.02025965173184 	1.73472347597681e-17 	1.1048235696288 	0.0427214369110107 	-8.57058640532219e-24
7.99999999999999 	2.06006301192217 	2.08166817117217e-17 	1.1115913447934 	0.0408784735334237 	0
7.99999999999999 	2.09845978584128 	2.40692882291782e-17 	1.11764565802482 	0.039112788405257 	0
7.99999999999999 	2.13549967996945 	2.01661604082304e-17 	1.12307627273787 	0.0374254347695708 	0
7.99999999999999 	2.17123064424048 	1.30104260698261e-17 	1.12795925875279 	0.0358152074792185 	-7.01626644193549e-18
7.99999999999999 	2.20569893411515 	2.60208521396521e-18 	1.13235593879544 	0.0342803705508247 	-6.93448108489743e-18
7.99999999999999 	2.23894917046122 	-8.67361737988404e-19 	1.13631556969496 	0.0328185770060082 	7.16752261544766e-18
7.99999999999999 	2.27102439731725 	-8.67361737988404e-19 	1.1398776834214 	0.0314269897400809 	7.08573725841453e-18
7.99999999999999 	2.30196613761521 	-8.67361737988404e-19 	1.14307401385436 	0.0301024372889351 	0
7.99999999999999 	2.33181444693391 	-8.67361737988404e-19 	1.14593002827994 	0.028841550049455 	0
7.99999999999999 	2.3606079653529 	2.60208521396521e-18 	1.14846611119891 	0.027640873755026 	0
7.99999999999999 	2.3883839674739 	9.54097911787244e-18 	1.15069845800605 	0.0264969593392491 	0
7.99999999999999 	2.41517841067461 	9.54097911787244e-18 	1.15263973509102 	0.0254064298598028 	0
7.99999999999999 	2.44102598165722 	9.54097911787244e-18 	1.15429955608308 	0.0243660272132576 	0
7.99999999999999 	2.46596014135207 	1.30104260698261e-17 	1.1556848153442 	0.023372642154625 	0
7.99999999999999 	2.49001316823443 	1.62630325872826e-17 	1.15679991146871 	0.0224233311366725 	0
7.99999999999999 	2.51321620011054 	1.23599047663348e-17 	1.15764688636364 	0.02151532315297 	0
7.99999999999999 	2.535599274427 	1.73472347597681e-18 	1.15822549978967 	0.0206460192977284 	0
7.99999999999999 	2.55719136715571 	-1.73472347597681e-18 	1.15853325508581 	0.0198129872513267 	0
7.99999999999999 	2.57802043030465 	-1.73472347597681e-18 	1.15856538910381 	0.0190139524266156 	0
7.99999999999999 	2.59811342810315 	-8.67361737988404e-18 	1.1583148380238 	0.0182467870989751 	0
7.99999999999999 	2.61749637190832 	-1.9298798670242e-17 	1.15777219058207 	0.0175094985032674 	0
7.99999999999999 	2.63619435387806 	-2.64545330086463e-17 	1.15692564117621 	0.0168002166123122 	0
7.99999999999999 	2.65423157945406 	-2.29850860566927e-17 	1.15576095713342 	0.0161171821075395 	0
7.99999999999999 	2.67163139869691 	-1.95156391047391e-17 	1.15426147684694 	0.0154587349037351 	0
7.99999999999999 	2.68841633651388 	-1.95156391047391e-17 	1.15240815803946 	0.0148233034862874 	-1.3764139424353e-17
7.99999999999999 	2.7046081218185 	-1.95156391047391e-17 	1.15017969739244 	0.0142093952511265 	-1.31417853908606e-17
7.99999999999999 	2.72022771565972 	-2.29850860566927e-17 	1.14755274319518 	0.0136155879948952 	1.50033221366862e-17
7.99999999999999 	2.73529533835694 	-2.99239799605999e-17 	1.14450222027949 	0.013040522676211 	1.43809681032222e-17
7.99999999999999 	2.74983049567625 	-3.33934269125535e-17 	1.14100178001304 	0.0124828975485993 	0
7.99999999999999 	2.76385200408156 	-3.36102673470506e-17 	1.13702437651743 	0.0119414637424571 	0
7.99999999999999 	2.77737801509343 	-3.38271077815477e-17 	1.13254295336002 	0.0114150223385912 	0
7.99999999999999 	2.79042603878708 	-3.38271077815477e-17 	1.12753120391093 	0.0109024229222104 	0
7.99999999999999 	2.80301296646003 	-3.03576608295941e-17 	1.12196434622317 	0.0104025635285932 	0
7.99999999999999 	2.81515509249872 	-2.34187669256869e-17 	1.11581983403638 	0.0099143917874625 	0
7.99999999999999 	2.82686813547237 	-1.99493199737333e-17 	1.10907791423716 	0.00943690694382585 	0
7.99999999999999 	2.83816725848142 	-2.01661604082304e-17 	1.1017219417863 	0.00896916228852136 	0
7.99999999999999 	2.84906708878691 	-2.40692882291782e-17 	1.09373837714448 	0.00851026740153243 	0
7.99999999999999 	2.85958173674616 	-3.12250225675825e-17 	1.08511641641589 	0.00805938956511549 	0
7.99999999999999 	2.86972481407933 	-2.77555756156289e-17 	1.07584723499485 	0.00761575388311487 	0
7.99999999999999 	2.87950945149043 	-2.77555756156289e-17 	1.06592285279058 	0.00717864230123093 	0
7.99999999999999 	2.88894831566566 	-3.46944695195361e-17 	1.05533464259494 	0.00674739320753409 	0
7.99999999999999 	2.89805362567106 	-3.46944695195361e-17 	1.04407149146733 	0.00632140566992142 	0
7.99999999999999 	2.90683716877067 	-3.81639164714898e-17 	1.03211757788783 	0.00590015480678773 	0
7.99999999999999 	2.91531031568569 	-3.81639164714898e-17 	1.01944964103517 	0.00548322633407326 	0
7.99999999999999 	2.92348403531448 	-4.16333634234434e-17 	1.00603350763196 	0.00507038183676975 	0
7.99999999999999 	2.93136890893229 	-4.85722573273506e-17 	0.991819567101829 	0.00466163671466513 	0
7.99999999999999 	2.93897514388925 	-5.55111512312578e-17 	0.976736906929588 	0.00425731831465929 	0
7.99999999999999 	2.94631258682425 	-5.89805981832114e-17 	0.960685779578027 	0.00385811177810705 	0
7.99999999999999 	2.95339073641193 	-5.55111512312578e-17 	0.943527704523162 	0.00346508969321193 	0
7.99999999999999 	2.96021875565915 	-5.20417042793042e-17 	0.925072216792862 	0.0030797150450922 	0
7.99999999999999 	2.96680548376697 	-4.5102810375397e-17 	0.905059049234232 	0.00270376931418003 	0
7.99999999999999 	2.97315944757337 	-4.16333634234434e-17 	0.883133760922226 	0.00233921460299732 	0
7.99999999999999 	2.97928887259171 	-4.5102810375397e-17 	0.858812324277648 	0.00198872508484422 	0
7.99999999999999 	2.98520169365902 	-5.20417042793042e-17 	0.831344622043825 	0.0016556635140704 	0
7.99999999999999 	2.99090556520806 	-5.55111512312578e-17 	0.799638079149433 	0.0013433835740085 	0
7.99999999999999 	2.99640787117633 	-4.85722573273506e-17 	0.762300967432561 	0.00105724085016141 	0
7.99999999999999 	3.00171573456492 	-4.16333634234434e-17 	0.717553727381932 	0.000801912619869512 	0
7.99999999999999 	3.00683602665962 	-4.5102810375397e-17 	0.663145939722971 	0.00058137490221196 	0
7.99999999999999 	3.01177537592612 	-4.85722573273506e-17 	0.59631450752521 	0.000397277059284388 	0
7.99999999999999 	3.01654017659085 	-4.85722573273506e-17 	0.513581555736328 	0.000249378256697895 	0
7.99999999999999 	3.02113659691864 	-4.85722573273506e-17 	0.413200140198856 	0.000136280696899414 	0
7.99999999999999 	3.02557058719784 	-4.85722573273506e-17 	0.29985393337529 	5.99478131104248e-05 	0
7.99999999999999 	3.02984788744324 	-4.85722573273506e-17 	0.181154913586916 	1.72074745173432e-05 	0
