6 	0.00391112967796271 	-3.46944695195361e-18 	1.17061862635472 	9.06546452395687e-05 	445.411037317005 	9.6352437226712e-07
6 	0.0118766651674914 	0 	1.1706129652757 	0.000893815663533095 	124.852965359195 	2.04827833855859e-05
6 	0.020134001548576 	-1.38777878078145e-17 	1.17059631882751 	0.00329257579777016 	32.1547769000812 	0.000146539007871666
6 	0.0286938283423949 	-3.12250225675825e-17 	1.17055925190896 	0.00605236916221512 	14.7905534805942 	0.000466827694796993
6 	0.0375672266585909 	-3.12250225675825e-17 	1.17049846512189 	0.00834841301968534 	9.28751914198055 	0.000949814630641371
6 	0.0467656835403032 	-3.12250225675825e-17 	1.17042088652255 	0.010227095407109 	6.82067904992934 	0.00154227652495654
6 	0.0563011068347007 	-3.46944695195361e-17 	1.17033250586378 	0.0118397584890618 	5.44374145704187 	0.00221162147552095
6 	0.0661858406082649 	-3.12250225675825e-17 	1.17023603529177 	0.013280116541533 	4.56806467411799 	0.00293921585627063
6 	0.0764326811267816 	-3.46944695195361e-17 	1.17013298950502 	0.0146030778001314 	3.96341813264893 	0.0037128739348908
6 	0.0870548934207257 	-3.81639164714898e-17 	1.17002461891439 	0.0158428863339348 	3.52213608289845 	0.00452350795094818
6 	0.0980662284574838 	-3.12250225675825e-17 	1.16991200918077 	0.0170223455728543 	3.18723127398293 	0.00536365792380103
6 	0.109480940942647 	-3.12250225675825e-17 	1.16979611122743 	0.0181575051869067 	2.92571656324387 	0.00622678510326323
6 	0.121313807773417 	-3.81639164714898e-17 	1.16967779065212 	0.019260188841595 	2.71716807844149 	0.00710690357736277
6 	0.133580147168011 	-4.16333634234434e-17 	1.16955786041146 	0.0203394426460772 	2.54826242269823 	0.00799837769600775
6 	0.146295838495839 	-4.16333634234434e-17 	1.16943709706412 	0.021402409486198 	2.40993959941885 	0.00889580857461652
6 	0.159477342834115 	-4.16333634234434e-17 	1.16931624897767 	0.0224548795998021 	2.29582808135671 	0.00979397235586134
6 	0.173141724277517 	-4.16333634234434e-17 	1.16919604026678 	0.0235016487181484 	2.20132173080173 	0.0106877906234078
6 	0.18730667202848 	-4.5102810375397e-17 	1.1690771715162 	0.0245467561876326 	2.12301377885809 	0.0115723218869211
6 	0.201990523296728 	-4.5102810375397e-17 	1.16896031802165 	0.0255936447663377 	2.05833622657938 	0.0124427674002926
6 	0.217212287037676 	-5.20417042793042e-17 	1.16884612653029 	0.026645266865062 	2.00532240946781 	0.0132944870127473
6 	0.232991668560441 	-5.89805981832114e-17 	1.16873521050857 	0.027704152296857 	1.96244606129246 	0.014123022012973
6 	0.249349095037321 	-5.20417042793042e-17 	1.16862814426252 	0.0287724467991914 	1.9285093438908 	0.0149241226755293
6 	0.266305741947753 	-5.20417042793042e-17 	1.16852545609812 	0.0298519269812087 	1.90256302820141 	0.0156937786513501
6 	0.283883560490999 	-4.85722573273506e-17 	1.16842762061609 	0.0309439950168259 	1.88384823575908 	0.0164282505990792
6 	0.30210530600303 	-4.85722573273506e-17 	1.16833505019031 	0.0320496548498778 	1.87175287839155 	0.0171241016129744
6 	0.320994567414414 	-4.85722573273506e-17 	1.16824808563098 	0.0331694706181689 	1.86577822939836 	0.0177782271154172
6 	0.340575797787321 	-4.16333634234434e-17 	1.16816698597633 	0.0343035072832755 	1.86551250724368 	0.0183878819798693
6 	0.360874345971201 	-4.16333634234434e-17 	1.16809191729897 	0.0354512529932996 	1.87060928570842 	0.0189507037555918
6 	0.381916489418091 	-4.85722573273506e-17 	1.1680229403868 	0.0366115224791617 	1.88076915785999 	0.019464730994332
6 	0.403729468200046 	-5.20417042793042e-17 	1.16795999700234 	0.037782340803638 	1.89572349331664 	0.0199284158423879
6 	0.426341520272733 	-4.85722573273506e-17 	1.16790289340895 	0.0389608070922512 	1.91521941316264 	0.0203406302655958
6 	0.441285719951471 	-4.16333634234434e-17 	1.1678687189747 	0.0397217806905242 	1.92979414747135 	0.0205818162350615
6 	0.453216730116548 	-3.81639164714898e-17 	1.1678442104264 	0.0403132109179991 	1.94270814215931 	0.0207489887427549
6 	0.474081006202548 	-4.5102810375397e-17 	1.16780458645852 	0.041323644138606 	1.96674887655519 	0.0210091750940708
6 	0.499270241132363 	-4.5102810375397e-17 	1.16776224294899 	0.042496348408058 	1.99824551675126 	0.0212651602100425
6 	0.525382231502763 	-2.77555756156289e-17 	1.16772330306148 	0.0436528305695086 	2.03315010957285 	0.0214692475460691
6 	0.552450780547767 	-1.04083408558608e-17 	1.16768566625175 	0.044783043589847 	2.07107224655422 	0.0216222529767994
6 	0.58051092981285 	-3.46944695195361e-18 	1.16764694355578 	0.0458749328247937 	2.11154774196737 	0.0217253134594742
6 	0.609599004517911 	6.93889390390723e-18 	1.16761830898453 	0.0469151193085507 	2.15406012550838 	0.0217060328066416
6 	0.639752660582033 	1.38777878078145e-17 	1.16763271819224 	0.047890545427637 	2.19805391204081 	0.0213355052281042
6 	0.671010933370887 	1.04083408558608e-17 	1.16769025668769 	0.0487841696423135 	2.24251904540259 	0.0205308261094057
6 	0.703414288229901 	1.38777878078145e-17 	1.16773582305499 	0.0495609062170594 	2.28505797061413 	0.0196569824063863
6 	0.737004672868607 	2.08166817117217e-17 	1.16772921281572 	0.0501635602749291 	2.32179051270985 	0.0189544166769199
6 	0.771825571663977 	2.08166817117217e-17 	1.16766440142943 	0.050531559162081 	2.34855145846206 	0.0184478861008966
6 	0.807922061953054 	2.25514051876985e-17 	1.16754791183346 	0.0506163349040207 	2.36193597629126 	0.0180756762303803
6 	0.845340872387743 	2.77555756156289e-17 	1.16738456909207 	0.050385316269349 	2.35963854953664 	0.0177695880838249
6 	0.884130443427309 	2.94902990916057e-17 	1.16717323902086 	0.0498201056217825 	2.34036030941293 	0.0174894319410613
6 	0.924340990046898 	3.12250225675825e-17 	1.16690722134581 	0.048915036656996 	2.30365108527636 	0.017227689652295
6 	0.966024566743242 	3.46944695195361e-17 	1.16657642768283 	0.0476785750945832 	2.24982696846223 	0.016999488655965
6 	1.00923513492173 	3.20923843055709e-17 	1.16616968199516 	0.0461364273474229 	2.17994514978215 	0.0168295488206305
6 	1.05402863275205 	3.03576608295941e-17 	1.16567634588995 	0.0443336258867705 	2.095788491645 	0.0167423964667175
6 	1.10046304758287 	2.90566182226115e-17 	1.16508721537419 	0.0423330912096474 	1.99981147755365 	0.0167571492588596
6 	1.14859849100923 	2.47198095326695e-17 	1.16439502633325 	0.0402096710799472 	1.89500103504329 	0.0168857828748962
6 	1.19849727668994 	1.94072188874905e-17 	1.16359502495136 	0.0380412220364927 	1.7847369900146 	0.0171344041993985
6 	1.25022400101563 	1.85398571495021e-17 	1.16268449931304 	0.0359129621844024 	1.67495614138691 	0.0175101400471275
6 	1.30384562673186 	2.08166817117217e-17 	1.16166048974719 	0.0338908539719263 	1.56972968136318 	0.0180061565807873
6 	1.35943156962566 	2.08166817117217e-17 	1.16053293617131 	0.0319937174589488 	1.46905321041014 	0.018585823681963
6 	1.41705378838763 	2.42861286636753e-17 	1.15930827525029 	0.0302271561375406 	1.37339652056049 	0.0192184706449052
6 	1.47678687776592 	2.42861286636753e-17 	1.15799385122704 	0.0285849945351299 	1.28332723064292 	0.0198851425686491
6 	1.53870816513278 	2.08166817117217e-17 	1.15659752036974 	0.0270474653556947 	1.19824589741991 	0.0205705624138109
6 	1.60289781058851 	2.08166817117217e-17 	1.15512767276959 	0.0255806869895502 	1.11566271560869 	0.0212738842084118
6 	1.66943891073267 	2.42861286636753e-17 	1.15359416782383 	0.0241594916379684 	1.03537125135953 	0.0220136095679045
6 	1.73841760623657 	3.12250225675825e-17 	1.15200846687338 	0.0227755769970405 	0.960670394245558 	0.0227966074340759
6 	1.8099231933566 	2.77555756156289e-17 	1.15039000799974 	0.0214221125270102 	0.894420407132711 	0.0235287276194809
6 	1.88404823953249 	1.73472347597681e-17 	1.1487763317918 	0.0200810581070396 	0.836866536654513 	0.0239049767810055
6 	1.96088870322038 	1.38777878078145e-17 	1.14726304347058 	0.0188084244473692 	0.789519751450421 	0.02381619279323
6 	2.02024009608346 	1.38777878078145e-17 	1.14607279136403 	0.017797178784057 	0.756672896056847 	0.0235148218067478
6 	2.06000503604194 	1.04083408558608e-17 	1.14519161032089 	0.0170498826206176 	0.735416023104785 	0.0231799105807691
6 	2.09836474743797 	6.93889390390723e-18 	1.14444249139972 	0.0164055090030663 	0.71923516561543 	0.0228054992496249
6 	2.13536888877258 	6.93889390390723e-18 	1.1437354000194 	0.0157905039523288 	0.705673926833744 	0.0223724804473235
6 	2.17106536369585 	3.46944695195361e-18 	1.14306749604483 	0.0152035187421044 	0.694567655781821 	0.0218855333958122
6 	2.20550038302045 	3.46944695195361e-18 	1.14243746265804 	0.0146433254138684 	0.685791789167522 	0.021349328306536
6 	2.23871852454379 	6.93889390390723e-18 	1.14184360181718 	0.0141087970309709 	0.679255622127555 	0.0207685678575172
6 	2.27076279075614 	6.93889390390723e-18 	1.1412841953534 	0.0135988910368289 	0.674897671349715 	0.0201480125660632
6 	2.30167466450941 	6.93889390390723e-18 	1.14075756175741 	0.0131126378678353 	0.672682479106453 	0.0194924884967217
6 	2.33149416271873 	6.93889390390723e-18 	1.1402620588817 	0.0126491340156036 	0.672598596349901 	0.0188068792236012
6 	2.36025988816627 	0 	1.13979609203665 	0.0122075388147257 	0.674657534368603 	0.0180961052913127
6 	2.38800907947441 	-6.93889390390723e-18 	1.13935812157096 	0.0117870741092407 	0.678893522536853 	0.0173650945865228
6 	2.41477765931296 	-6.93889390390723e-18 	1.13894666773926 	0.0113870259900092 	0.685363957974811 	0.0166187467142374
6 	2.44060028090272 	-6.93889390390723e-18 	1.13856031356783 	0.0110067479217094 	0.69415047581855 	0.0158618939914454
6 	2.46551037287586 	-6.93889390390723e-18 	1.1381977062033 	0.0106456647261009 	0.705360604277 	0.01509926117115
6 	2.48954018255081 	-6.93889390390723e-18 	1.13785755705984 	0.0103032770218902 	0.719129996819732 	0.0143354255504415
6 	2.512720817678 	-6.93889390390723e-18 	1.13753864103565 	0.00997916582494311 	0.735625255391889 	0.0135747787151525
6 	2.53508228671037 	-6.93889390390723e-18 	1.13723979502701 	0.00967299707998515 	0.75504737401945 	0.0128214908318946
6 	2.55665353765073 	-6.93889390390723e-18 	1.1369599159252 	0.00938452592578865 	0.777635841584061 	0.0120794781113939
6 	2.57746249552637 	-1.04083408558608e-17 	1.13669795824433 	0.00911360049182352 	0.803673445287028 	0.0113523738300644
6 	2.59753609853934 	-1.38777878078145e-17 	1.13645293149608 	0.00886016498776525 	0.833491811022317 	0.0106435031064236
6 	2.6169003329393 	-1.38777878078145e-17 	1.13622389740144 	0.00862426178068876 	0.867477701425409 	0.00995586148427086
6 	2.6355802666639 	-1.38777878078145e-17 	1.13600996700878 	0.0084060320615144 	0.906080063989966 	0.00929209727661437
6 	2.6536000817905 	-1.38777878078145e-17 	1.13581029777212 	0.0082057145873685 	0.949817777192772 	0.00865449757554603
6 	2.67098310584103 	-1.38777878078145e-17 	1.13562409063307 	0.00802364185840827 	0.999287979054927 	0.00804497783602857
6 	2.68775184198057 	-1.73472347597681e-17 	1.13545058714401 	0.0078602329600787 	1.05517477815688 	0.00746507499639908
6 	2.7039279981488 	-1.73472347597681e-17 	1.13528906666857 	0.00771598219569987 	1.1182580426493 	0.00691594420145855
6 	2.71953251516198 	-1.38777878078145e-17 	1.13513884369687 	0.00759144257923904 	1.18942184387306 	0.00639835933420132
6 	2.73458559382185 	-1.38777878078145e-17 	1.13499926531666 	0.00748720329179764 	1.26966201076574 	0.00591271771845394
6 	2.74910672106653 	-1.38777878078145e-17 	1.13486970888552 	0.00740386037042755 	1.36009215209272 	0.00545904949444334
6 	2.76311469519732 	-1.38777878078145e-17 	1.13474957995142 	0.00734198023482751 	1.46194745995348 	0.00503703225006194
6 	2.776627650214 	-1.38777878078145e-17 	1.13463831046717 	0.00730205619280762 	1.57658566501943 	0.00464601146547812
6 	2.78966307929018 	-2.08166817117217e-17 	1.13453535733683 	0.00728445879691997 	1.70548472302922 	0.00428502715737318
6 	2.80223785741905 	-2.42861286636753e-17 	1.13444020131661 	0.00728938180678724 	1.8502372221024 	0.0039528467721706
6 	2.81436826325886 	-2.08166817117217e-17 	1.13435234627077 	0.00731678644711554 	2.01254214466498 	0.00364800389137382
6 	2.82607000020648 	-1.73472347597681e-17 	1.13427131875889 	0.00736634749525085 	2.19419549939472 	0.00336884173619759
6 	2.83735821672614 	-1.38777878078145e-17 	1.1341966679162 	0.00743740531289336 	2.39708242045385 	0.00311355989124608
6 	2.8482475259599 	-1.73472347597681e-17 	1.13412796552518 	0.00752892809256388 	2.62317453657737 	0.00288026222448264
6 	2.85875202464506 	-1.73472347597681e-17 	1.13406480592092 	0.00763948821273679 	2.87453764241293 	0.00266700376626705
6 	2.86888531136304 	-1.73472347597681e-17 	1.13400680596379 	0.00776725566934007 	3.1533558741609 	0.00247183438170097
6 	2.87866050414343 	-2.08166817117217e-17 	1.13395360961645 	0.00791001016331374 	3.46197968060002 	0.00229283742125856
6 	2.88809025744591 	-2.08166817117217e-17 	1.1339048952054 	0.00806517174917732 	3.80300598894917 	0.00212816209462239
6 	2.89718677854204 	-2.08166817117217e-17 	1.13386029192665 	0.00822984805160877 	4.17940131060429 	0.00197604855955477
6 	2.90596184331819 	-2.42861286636753e-17 	1.13381932243064 	0.00840088777092718 	4.5953237272776 	0.00182807431330323
6 	2.91442681151997 	-3.12250225675825e-17 	1.1337816498956 	0.00857489618047027 	5.05697000411647 	0.00167607164065812
6 	2.92259264145801 	-3.46944695195361e-17 	1.13374724032466 	0.00874744043019143 	5.57073014485314 	0.00152864040896042
6 	2.93046990419395 	-2.77555756156289e-17 	1.1337160973427 	0.00891202930225921 	6.14065606424547 	0.00139729618908468
6 	2.93806879722526 	-2.42861286636753e-17 	1.13368805371466 	0.00906085235747857 	6.76951552330782 	0.00128282515773701
6 	2.94539915768639 	-2.77555756156289e-17 	1.13366285184745 	0.00918637125613586 	7.46197611553226 	0.00118129785154823
6 	2.95247047508335 	-2.77555756156289e-17 	1.13364025702668 	0.00928208091289505 	8.22732162867111 	0.0010881719381236
6 	2.9592919035784 	-2.77555756156289e-17 	1.13362009178175 	0.00934251488805833 	9.08171257685922 	0.000999685925138224
6 	2.96587227384056 	-2.77555756156289e-17 	1.1336022295211 	0.00936282409213984 	10.0506778856243 	0.000913080349031123
6 	2.97222010447726 	-2.42861286636753e-17 	1.13358658090323 	0.00933812246012361 	11.1727422693186 	0.000826443832540179
6 	2.97834361306218 	-1.73472347597681e-17 	1.13357309176014 	0.00926261138119505 	12.5054132999851 	0.000738527822748645
6 	2.98425072677325 	-1.73472347597681e-17 	1.13356177079522 	0.00912831998942252 	14.1355015103298 	0.000648648326385303
6 	2.98994909265478 	-2.08166817117217e-17 	1.13355266529574 	0.008923095845807 	16.197552411841 	0.000556719610275414
6 	2.99544608751689 	-2.08166817117217e-17 	1.13354572191253 	0.00862722773737011 	18.9076371844161 	0.000463426547892031
6 	3.00074882748522 	-2.08166817117217e-17 	1.1335407638473 	0.00820757905355707 	22.6284029680671 	0.000370337021504434
6 	3.00586417721304 	-2.08166817117217e-17 	1.13353762697377 	0.00760760857892607 	28.0048704903606 	0.000279917874405205
6 	3.01079875876789 	-2.08166817117217e-17 	1.13353613594101 	0.00673241447266406 	36.2835150102199 	0.00019542161568171
6 	3.01555896020418 	-2.08166817117217e-17 	1.13353594081083 	0.00543272604211269 	50.2325471940327 	0.000120021725708074
6 	3.02015094383282 	-2.08166817117217e-17 	1.13353646264618 	0.00362306843668832 	78.0110886408307 	5.86178892526622e-05
6 	3.02458065419862 	-2.08166817117217e-17 	1.13353712329313 	0.0017169427094039 	159.67029814424 	1.92866748121028e-05
6 	3.02885382577582 	-2.08166817117217e-17 	1.13353767805427 	0.000477878040498499 	652.408547396116 	3.31223086528309e-06
6 	3.03297599039165 	-2.08166817117217e-17 	1.13353804588499 	5.68808902210353e-05 	1462.77655965168 	1.7246649077839e-07
