7 	0.00391112967796272 	-1.73472347597681e-18 	-0.00448865572864255 	-8.2230934226126e-05 	-2.30974366206039e-17
7 	0.0118766651674916 	1.73472347597681e-18 	-0.00821314001837166 	-0.000123382284604344 	-8.90399161787114e-17
7 	0.0201340015485761 	-3.46944695195361e-18 	-0.005417350083703 	-0.000309230868554563 	-6.38000117127157e-17
7 	0.0286938283423949 	-1.12757025938492e-17 	0.00188017540712254 	-0.000621084046983761 	-1.40972318504675e-20
7 	0.0375672266585908 	-1.12757025938492e-17 	0.00958375760604813 	-0.000983454824380494 	-1.62322574171515e-21
7 	0.0467656835403031 	-7.80625564189563e-18 	0.0161003552370954 	-0.00137322232697441 	-5.64566683372764e-21
7 	0.0563011068347005 	8.67361737988404e-19 	0.0216196323530478 	-0.00179330682208768 	-6.9438567888601e-22
7 	0.0661858406082648 	4.33680868994202e-18 	0.0265158268322973 	-0.00224193716845288 	-5.41721360114839e-21
7 	0.0764326811267816 	4.33680868994202e-18 	0.0310360578808627 	-0.00271550425520006 	2.67502651645009e-18
7 	0.0870548934207257 	8.67361737988404e-18 	0.0353308524252047 	-0.00321186804289787 	2.76110403867287e-18
7 	0.0980662284574838 	1.21430643318376e-17 	0.0394961896641552 	-0.00373010980796625 	-1.58169520702907e-18
7 	0.109480940942647 	6.50521303491303e-18 	0.0435974723925475 	-0.00426985719814828 	-1.64865462297608e-18
7 	0.121313807773416 	-2.16840434497101e-18 	0.0476823103976971 	-0.00483097781463222 	9.39553387782198e-18
7 	0.13358014716801 	-3.46944695195361e-18 	0.0517875563659087 	-0.00541347084335349 	2.57873405061103e-16
7 	0.146295838495838 	-2.16840434497101e-19 	0.0559433774829556 	-0.00601741359769192 	-2.45122435161974e-16
7 	0.159477342834115 	2.16840434497101e-18 	0.0601757363494502 	-0.00664292463099789 	-3.85789048510117e-18
7 	0.173141724277517 	2.38524477946811e-18 	0.0645079794134991 	-0.00729013626476221 	-3.9892327946154e-21
7 	0.18730667202848 	5.20417042793042e-18 	0.0689619034665088 	-0.00795917295082046 	-3.90303346828308e-21
7 	0.201990523296728 	6.93889390390723e-18 	0.0735582077940236 	-0.00865015911301738 	-9.30581255263644e-26
7 	0.217212287037676 	1.38777878078145e-17 	0.0783183952792107 	-0.00936309480425376 	3.34820273804984e-21
7 	0.232991668560441 	2.08166817117217e-17 	0.0832636027702158 	-0.0100979509251106 	-3.20440132744675e-21
7 	0.249349095037321 	1.73472347597681e-17 	0.0884153576944406 	-0.0108546310392682 	2.87112326088292e-21
7 	0.266305741947753 	1.38777878078145e-17 	0.0937960148883115 	-0.0116329375076099 	-2.78491118072222e-21
7 	0.283883560490999 	1.04083408558608e-17 	0.0994290057861746 	-0.0124325496650638 	-2.50240804052924e-22
7 	0.30210530600303 	1.04083408558608e-17 	0.105339061808595 	-0.0132529995410821 	-4.25644034717588e-22
7 	0.320994567414413 	1.04083408558608e-17 	0.111552418630399 	-0.0140936446585278 	3.83600575800754e-21
7 	0.34057579778732 	1.04083408558608e-17 	0.118097004886833 	-0.0149536374519237 	-5.00345912761976e-21
7 	0.3608743459712 	1.73472347597681e-17 	0.125002616390272 	-0.0158318908459596 	-4.91950130340597e-22
7 	0.381916489418091 	1.73472347597681e-17 	0.132301074755321 	-0.0167270395349547 	1.13205489508516e-23
7 	0.403729468200046 	2.08166817117217e-17 	0.140026367245013 	-0.0176373965093271 	1.60043666454533e-17
7 	0.426341520272733 	3.12250225675825e-17 	0.148214762491176 	-0.0185609043869693 	1.01792293267987e-16
7 	0.449781918030829 	3.46944695195361e-17 	0.156904894374593 	-0.0194950811088142 	-9.28874669093039e-17
7 	0.474081006202548 	3.46944695195361e-17 	0.166137803654475 	-0.0204369595494779 	-3.17187948427916e-17
7 	0.499270241132363 	3.81639164714898e-17 	0.175956923803738 	-0.0213830208270802 	-5.82303038408207e-17
7 	0.525382231502763 	4.5102810375397e-17 	0.186407993851156 	-0.0223291220058597 	1.3064390330941e-16
7 	0.552450780547767 	3.81639164714898e-17 	0.197538876601628 	-0.0232704178296435 	-4.66587592529523e-17
7 	0.58051092981285 	2.42861286636753e-17 	0.209399254262584 	-0.0242012626716994 	-1.53946956208088e-17
7 	0.60959900451791 	2.42861286636753e-17 	0.222040164381696 	-0.0251150718934325 	0
7 	0.639752660582033 	2.77555756156289e-17 	0.235513338325595 	-0.0260042961623488 	-1.02553432005087e-23
7 	0.671010933370887 	2.42861286636753e-17 	0.249870337500505 	-0.0268610561721611 	6.22592732777924e-22
7 	0.691025924828834 	1.56125112837913e-17 	0.259238232559524 	-0.0273788616592551 	3.37705103410405e-22
7 	0.70751902192536 	1.56125112837913e-17 	0.26711234407014 	-0.0277761672714007 	2.29614125420906e-21
7 	0.737004672868606 	2.42861286636753e-17 	0.281443252362572 	-0.0284381574872365 	3.54630808481835e-21
7 	0.771825571663976 	2.77555756156289e-17 	0.299005891302664 	-0.0291167764138085 	-6.50995514601462e-21
7 	0.807922061953053 	3.12250225675825e-17 	0.318201345611648 	-0.0296835487035905 	-1.02212497123864e-20
7 	0.845340872387742 	3.81639164714898e-17 	0.339258822702245 	-0.0301061788687455 	1.16624103552258e-20
7 	0.884130443427309 	4.33680868994202e-17 	0.362120881710621 	-0.0303713551134338 	1.62580460037557e-17
7 	0.924340990046898 	4.85722573273506e-17 	0.386544440183256 	-0.0304847939847741 	1.13840675037469e-16
7 	0.966024566743242 	5.03069808033274e-17 	0.412243866410826 	-0.0304545998818313 	-1.19046695996471e-16
7 	1.00923513492173 	4.9439619065339e-17 	0.438970191735713 	-0.0302840337678422 	-8.55557957747986e-18
7 	1.05402863275206 	5.11743425413158e-17 	0.466522947773024 	-0.0299720769373595 	2.47330383199262e-20
7 	1.10046304758287 	4.68375338513738e-17 	0.494723791532426 	-0.0295169684015821 	-2.684045953121e-20
7 	1.14859849100923 	3.59141969635823e-17 	0.523385026234533 	-0.0289200027340895 	2.34250089734549e-22
7 	1.19849727668994 	3.24447500116287e-17 	0.552290156899001 	-0.0281836379865092 	-1.9125427536587e-22
7 	1.25022400101563 	3.46944695195361e-17 	0.58118204158957 	-0.0273207275309207 	5.1906010207285e-20
7 	1.30384562673186 	3.46944695195361e-17 	0.609814536238272 	-0.0263573479309129 	2.08066477347264e-21
7 	1.35943156962565 	3.12250225675825e-17 	0.637967077949342 	-0.0253162427119114 	-3.04345711735782e-20
7 	1.41705378838762 	3.12250225675825e-17 	0.66545946743218 	-0.0242208831114424 	7.21315795342261e-21
7 	1.47678687776592 	3.81639164714898e-17 	0.692161698272016 	-0.0230933999450535 	4.84966407490659e-20
7 	1.53870816513277 	4.16333634234434e-17 	0.717994584493606 	-0.0219531178530349 	1.05205874466614e-20
6.99999999999999 	1.60289781058851 	4.16333634234434e-17 	0.742922975511277 	-0.0208158138715066 	1.59230237247657e-20
6.99999999999999 	1.6370086141075 	4.46691295064028e-17 	0.755661072100191 	-0.0202262774306197 	1.27232629699511e-20
6.99999999999999 	1.67087760175901 	4.11996825544492e-17 	0.76748055012203 	-0.019668950151461 	5.51940725649523e-21
6.99999999999999 	1.73841760623657 	3.46944695195361e-17 	0.790183417580302 	-0.0185915170175853 	-1.54004196127319e-20
6.99999999999999 	1.80992319335659 	3.29597460435593e-17 	0.812522532709742 	-0.0175184989890042 	-2.69934277959287e-22
6.99999999999999 	1.88404823953248 	2.42861286636753e-17 	0.834018780729059 	-0.0164808687571394 	7.7765328494717e-21
6.99999999999999 	1.96088870322037 	2.08166817117217e-17 	0.854680714610068 	-0.0155150589669997 	3.07760607789438e-21
6.99999999999999 	2.04004996790234 	2.08166817117217e-17 	0.874399865585333 	-0.0145337545366056 	0
6.99999999999999 	2.11873460271874 	1.73472347597681e-17 	0.892568485931356 	-0.0136402031166513 	0
6.99999999999999 	2.19463865000284 	2.08166817117217e-17 	0.908845361811125 	-0.0128540740520243 	0
6.99999999999999 	2.26786037121375 	2.42861286636753e-17 	0.923416287573078 	-0.0121455532210944 	0
6.99999999999999 	2.33849455540975 	2.77555756156289e-17 	0.936448817816344 	-0.0115077162734237 	0
6.99999999999999 	2.40663264195736 	3.46944695195361e-17 	0.948102128034995 	-0.0109296207713185 	0
6.99999999999999 	2.47236283890404 	3.46944695195361e-17 	0.958571277269779 	-0.010387136376676 	0
6.99999999999999 	2.5357702371677 	3.46944695195361e-17 	0.968109099499771 	-0.00986431577283897 	0
6.99999999999999 	2.59693692069107 	3.81639164714898e-17 	0.976873436143355 	-0.00934966479315695 	0
6.99999999999999 	2.65594207270333 	3.46944695195361e-17 	0.984909306352679 	-0.00885088090691888 	0
6.99999999999999 	2.71286207822658 	3.03576608295941e-17 	0.992259585961974 	-0.00837140747871718 	0
6.99999999999999 	2.76777062295999 	3.29597460435593e-17 	0.998968291177832 	-0.00791279318740571 	0
6.99999999999999 	2.82073878866949 	3.64291929955129e-17 	1.00507849713334 	-0.00747558019435296 	0
6.99999999999999 	2.87183514520654 	3.64291929955129e-17 	1.01063093774563 	-0.00705962896504107 	0
6.99999999999999 	2.92112583927514 	3.98986399474666e-17 	1.01566323106341 	-0.00666436734522774 	0
6.99999999999999 	2.9686746800619 	3.98986399474666e-17 	1.02020951463724 	-0.00628897275211749 	0
