0 	4.56962e-05 	4.56962e-05 	108.063 	6.31002e-16 	8.44228e-16
0 	9.13925e-05 	9.13925e-05 	107.911 	1.262e-15 	1.68846e-15
0 	0.000132935 	0.000132935 	107.484 	1.23092e-15 	1.69067e-15
0 	0.000174477 	0.000174477 	107.057 	1.19984e-15 	1.69288e-15
0 	0.000212242 	0.000212242 	106.404 	1.02699e-15 	1.3451e-15
0 	0.000250008 	0.000250008 	105.751 	8.54144e-16 	9.97316e-16
0 	0.00028434 	0.00028434 	104.911 	6.83232e-16 	6.73917e-16
0 	0.000318672 	0.000318672 	104.071 	5.1232e-16 	3.50518e-16
0 	0.000349883 	0.000349883 	103.079 	3.44614e-16 	2.30398e-16
0 	0.000381094 	0.000381094 	102.087 	1.76908e-16 	1.10279e-16
0 	0.000409468 	0.000409468 	100.974 	-5.64084e-18 	2.20855e-17
0 	0.000437842 	0.000437842 	99.8609 	-1.88189e-16 	-6.61081e-17
0 	0.000463636 	0.000463636 	98.6537 	-3.21285e-16 	-1.1615e-16
0 	0.000489431 	0.000489431 	97.4466 	-4.54381e-16 	-1.66192e-16
0 	0.00051288 	0.00051288 	96.1683 	-5.49783e-16 	-1.61838e-16
0 	0.000536329 	0.000536329 	94.89 	-6.45184e-16 	-1.57484e-16
0 	0.000557647 	0.000557647 	93.5504 	-6.58403e-16 	-1.24545e-16
0 	0.000578965 	0.000578965 	92.2107 	-6.71622e-16 	-9.16059e-17
0 	0.000598344 	0.000598344 	90.8158 	-6.50693e-16 	-4.11655e-17
0 	0.000617724 	0.000617724 	89.4209 	-6.29764e-16 	9.27488e-18
0 	0.000635342 	0.000635342 	87.9856 	-6.4455e-16 	8.15813e-17
0 	0.00065296 	0.00065296 	86.5503 	-6.59335e-16 	1.53888e-16
0 	0.000668976 	0.000668976 	85.0872 	-6.42816e-16 	1.63286e-16
0 	0.000684992 	0.000684992 	83.6241 	-6.26297e-16 	1.72683e-16
0 	0.000699553 	0.000699553 	82.1415 	-5.4441e-16 	1.51901e-16
0 	0.000714113 	0.000714113 	80.6589 	-4.62524e-16 	1.31119e-16
0 	0.000727349 	0.000727349 	79.1622 	-4.28809e-16 	1.69721e-16
0 	0.000740586 	0.000740586 	77.6656 	-3.95094e-16 	2.08322e-16
0 	0.000752619 	0.000752619 	76.1586 	-4.22918e-16 	2.66353e-16
0 	0.000764652 	0.000764652 	74.6516 	-4.50742e-16 	3.24384e-16
0 	0.000775592 	0.000775592 	73.137 	-4.47112e-16 	3.15726e-16
0 	0.000786531 	0.000786531 	71.6224 	-4.43483e-16 	3.07069e-16
0 	0.000796476 	0.000796476 	70.1021 	-4.0451e-16 	2.58033e-16
0 	0.000806421 	0.000806421 	68.5819 	-3.65537e-16 	2.08997e-16
0 	0.000815462 	0.000815462 	67.0573 	-3.28358e-16 	1.6937e-16
0 	0.000824502 	0.000824502 	65.5327 	-2.91178e-16 	1.29744e-16
0 	0.000832721 	0.000832721 	64.0044 	-2.5843e-16 	1.0279e-16
0 	0.00084094 	0.00084094 	62.4762 	-2.25682e-16 	7.58351e-17
0 	0.000848412 	0.000848412 	60.9445 	-2.00177e-16 	5.70665e-17
0 	0.000855883 	0.000855883 	59.4129 	-1.74673e-16 	3.82979e-17
0 	0.000862676 	0.000862676 	57.8776 	-1.53321e-16 	3.17525e-17
0 	0.000869468 	0.000869468 	56.3424 	-1.3197e-16 	2.52072e-17
0 	0.000875643 	0.000875643 	54.8027 	-1.16657e-16 	2.51625e-17
0 	0.000881818 	0.000881818 	53.263 	-1.01344e-16 	2.51178e-17
0 	0.000887432 	0.000887432 	51.7177 	-9.25015e-17 	2.30376e-17
0 	0.000893045 	0.000893045 	50.1724 	-8.36586e-17 	2.09574e-17
0 	0.000898149 	0.000898149 	48.6199 	-7.59997e-17 	1.44822e-17
0 	0.000903252 	0.000903252 	47.0673 	-6.83408e-17 	8.00703e-18
0 	0.000907891 	0.000907891 	45.5057 	-6.33144e-17 	-1.95829e-18
0 	0.000912531 	0.000912531 	43.944 	-5.82881e-17 	-1.19236e-17
0 	0.000916748 	0.000916748 	42.371 	-5.46833e-17 	-2.37678e-17
0 	0.000920966 	0.000920966 	40.798 	-5.10786e-17 	-3.56119e-17
0 	0.0009248 	0.0009248 	39.2122 	-4.86641e-17 	-3.87959e-17
0 	0.000928634 	0.000928634 	37.6265 	-4.62497e-17 	-4.19799e-17
0 	0.00093212 	0.00093212 	36.0286 	-5.19735e-17 	-3.78446e-17
0 	0.000935605 	0.000935605 	34.4306 	-5.76974e-17 	-3.37093e-17
0 	0.000938774 	0.000938774 	32.8232 	-6.38964e-17 	-3.25737e-17
0 	0.000941943 	0.000941943 	31.2158 	-7.00954e-17 	-3.14381e-17
0 	0.000944824 	0.000944824 	29.6051 	-6.78484e-17 	-3.09492e-17
0 	0.000947704 	0.000947704 	27.9944 	-6.56015e-17 	-3.04603e-17
0 	0.000950323 	0.000950323 	26.3931 	-6.16539e-17 	-2.62011e-17
0 	0.000952942 	0.000952942 	24.7919 	-5.77063e-17 	-2.19419e-17
0 	0.000955322 	0.000955322 	23.2144 	-5.63532e-17 	-1.54132e-17
0 	0.000957703 	0.000957703 	21.6369 	-5.50001e-17 	-8.88453e-18
0 	0.000959867 	0.000959867 	20.1034 	-5.11097e-17 	-2.62767e-18
0 	0.000962032 	0.000962032 	18.5699 	-4.72192e-17 	3.62919e-18
0 	0.000963999 	0.000963999 	17.1179 	-4.13952e-17 	8.29748e-18
0 	0.000965967 	0.000965967 	15.666 	-3.55712e-17 	1.29658e-17
0 	0.000967755 	0.000967755 	14.3383 	-3.00419e-17 	1.58611e-17
0 	0.000969544 	0.000969544 	13.0106 	-2.45127e-17 	1.87563e-17
0 	0.00097117 	0.00097117 	11.8398 	-1.88612e-17 	1.93006e-17
0 	0.000972796 	0.000972796 	10.6689 	-1.32097e-17 	1.98449e-17
0 	0.000974275 	0.000974275 	9.66698 	-8.21538e-18 	1.85055e-17
0 	0.000975753 	0.000975753 	8.66507 	-3.22102e-18 	1.71661e-17
0 	0.000977097 	0.000977097 	7.82513 	3.59875e-19 	1.50414e-17
0 	0.00097844 	0.00097844 	6.98519 	3.94077e-18 	1.29167e-17
0 	0.000979662 	0.000979662 	6.28958 	5.94633e-18 	1.04925e-17
0 	0.000980884 	0.000980884 	5.59397 	7.9519e-18 	8.06832e-18
0 	0.000981994 	0.000981994 	5.022 	8.80137e-18 	5.95381e-18
0 	0.000983105 	0.000983105 	4.45002 	9.65085e-18 	3.83929e-18
0 	0.000984115 	0.000984115 	3.982 	9.51864e-18 	2.42345e-18
0 	0.000985124 	0.000985124 	3.51398 	9.38644e-18 	1.00761e-18
0 	0.000986042 	0.000986042 	3.13265 	8.59813e-18 	2.68126e-19
0 	0.00098696 	0.00098696 	2.75131 	7.80981e-18 	-4.71356e-19
0 	0.000987795 	0.000987795 	2.44201 	6.8068e-18 	-8.05418e-19
0 	0.000988629 	0.000988629 	2.13271 	5.80379e-18 	-1.13948e-18
0 	0.000989388 	0.000989388 	1.88313 	4.89603e-18 	-1.18224e-18
0 	0.000990146 	0.000990146 	1.63355 	3.98828e-18 	-1.225e-18
0 	0.000990836 	0.000990836 	1.4334 	3.28137e-18 	-1.08366e-18
0 	0.000991525 	0.000991525 	1.23325 	2.57445e-18 	-9.42313e-19
0 	0.000992152 	0.000992152 	1.07396 	2.07939e-18 	-7.35063e-19
0 	0.000992779 	0.000992779 	0.914662 	1.58432e-18 	-5.27814e-19
0 	0.000993349 	0.000993349 	0.789064 	1.26636e-18 	-3.47063e-19
0 	0.000993919 	0.000993919 	0.663467 	9.48395e-19 	-1.66312e-19
0 	0.000994437 	0.000994437 	0.565604 	7.4877e-19 	-5.8019e-20
0 	0.000994955 	0.000994955 	0.467742 	5.49145e-19 	5.0274e-20
0 	0.000995426 	0.000995426 	0.392655 	4.1538e-19 	8.90235e-20
0 	0.000995897 	0.000995897 	0.317569 	2.81615e-19 	1.27773e-19
0 	0.000996325 	0.000996325 	0.26114 	1.96904e-19 	1.13357e-19
0 	0.000996754 	0.000996754 	0.20471 	1.12194e-19 	9.89417e-20
0 	0.000997143 	0.000997143 	0.163526 	6.65707e-20 	5.72959e-20
0 	0.000997532 	0.000997532 	0.122342 	2.09471e-20 	1.56502e-20
0 	0.000997886 	0.000997886 	0.093587 	5.37753e-21 	-2.33573e-20
0 	0.00099824 	0.00099824 	0.0648325 	-1.0192e-20 	-6.23648e-20
0 	0.000998562 	0.000998562 	0.0352459 	-7.59122e-21 	-8.30183e-20
0 	0.000998883 	0.000998883 	0.020155 	-4.45317e-22 	-8.03118e-20
0 	0.000999176 	0.000999176 	0.0106648 	2.97063e-21 	-5.72961e-20
0 	0.000999468 	0.000999468 	0.00301233 	2.44616e-21 	-2.36553e-20
0 	0.000999734 	0.000999734 	0.00217665 	1.93541e-21 	-1.58756e-20
