6 	0.00391112967796265 	6.93889390390723e-18 	-0.011751758028574 	-3.56394119164882e-05 	4.67013327965964e-17
6 	0.0118766651674915 	-6.93889390390723e-18 	-0.0305984404989549 	-0.000207881035809936 	1.94704336465263e-16
6 	0.0201340015485761 	-1.73472347597681e-17 	-0.0408965479889676 	-0.000553236733867759 	-9.70138357992234e-17
6 	0.028693828342395 	-3.12250225675825e-17 	-0.0433084567071991 	-0.00105623595311509 	-4.80289103842882e-16
6 	0.037567226658591 	-2.77555756156289e-17 	-0.0408563871441667 	-0.00165682525023046 	1.38827542330335e-16
6 	0.0467656835403032 	-1.73472347597681e-17 	-0.036723383527988 	-0.00230865012584563 	1.47486589277742e-16
6 	0.0563011068347007 	-2.77555756156289e-17 	-0.032344926075792 	-0.00300423612053663 	0
6 	0.0661858406082649 	-3.46944695195361e-17 	-0.0280329292805466 	-0.00374297752987903 	0
6 	0.0764326811267816 	-3.81639164714898e-17 	-0.02379539246929 	-0.00452111014635554 	-8.88219558343217e-23
6 	0.0870548934207258 	-3.81639164714898e-17 	-0.0195892776923772 	-0.00533561334047673 	-1.95495584932861e-22
6 	0.0980662284574843 	-4.16333634234434e-17 	-0.01536985909168 	-0.00618517560204579 	-1.12776199809045e-23
6 	0.109480940942647 	-4.5102810375397e-17 	-0.0110978780665179 	-0.00706945513337746 	-1.91516698758695e-23
6 	0.121313807773417 	-4.16333634234434e-17 	-0.00673902533328497 	-0.00798854133819554 	-1.95385779541347e-22
6 	0.133580147168011 	-4.5102810375397e-17 	-0.00226239083587914 	-0.00894274122128358 	-6.90716576590902e-24
6 	0.146295838495839 	-5.20417042793042e-17 	0.0023609110039931 	-0.00993249171470368 	2.80432916792582e-23
6 	0.159477342834115 	-5.55111512312578e-17 	0.00715880441270328 	-0.0109583079409744 	5.17096365336021e-23
6 	0.173141724277517 	-5.55111512312578e-17 	0.0121590648890418 	-0.0120207456932815 	-6.13973063782094e-23
6 	0.18730667202848 	-5.55111512312578e-17 	0.0173899577390362 	-0.0131203728262062 	-3.64503433675285e-23
6 	0.201990523296728 	-5.89805981832114e-17 	0.0228807545139646 	-0.0142577453954191 	4.23620131561135e-17
6 	0.217212287037676 	-6.24500451351651e-17 	0.0286621654478697 	-0.0154333848568433 	7.80866486435e-17
6 	0.232991668560441 	-6.24500451351651e-17 	0.0347667153960351 	-0.0166477549917021 	-7.47367697069683e-17
6 	0.249349095037321 	-6.24500451351651e-17 	0.0412290802742258 	-0.0179012374306616 	-4.07294087697488e-17
6 	0.266305741947753 	-6.24500451351651e-17 	0.0480863930939925 	-0.0191941047004022 	1.23241606555185e-22
6 	0.283883560490999 	-6.59194920871187e-17 	0.0553785232045881 	-0.0205264898466567 	-2.61127154466977e-22
6 	0.30210530600303 	-6.59194920871187e-17 	0.0631483279865809 	-0.0218983516641898 	-2.04811998799811e-22
6 	0.320994567414414 	-6.24500451351651e-17 	0.0714418723042759 	-0.023309434554632 	-6.84844054381693e-23
6 	0.340575797787321 	-6.24500451351651e-17 	0.0803086071562365 	-0.0247592224017626 	1.36894662072323e-22
6 	0.3608743459712 	-6.93889390390723e-17 	0.0898014949059141 	-0.0262468862064934 	-1.43890101725774e-22
6 	0.38191648941809 	-7.63278329429795e-17 	0.0999770639536334 	-0.0277712205634997 	1.3791134511793e-22
6 	0.403729468200046 	-7.97972798949331e-17 	0.110895370281789 	-0.0293305491829289 	-2.61186572755476e-24
6 	0.426341520272733 	-9.0205620750794e-17 	0.122619837007369 	-0.0309226074854307 	7.07081943032519e-23
6 	0.449781918030829 	-9.71445146547012e-17 	0.135216939728441 	-0.0325446515924132 	1.41355147099929e-22
6 	0.474081006202548 	-9.71445146547012e-17 	0.148755717290609 	-0.034194201077592 	4.1660226024954e-22
6 	0.499270241132363 	-9.71445146547012e-17 	0.163307639154687 	-0.0358674915158782 	-1.43129007261326e-22
6 	0.525382231502763 	-9.36750677027476e-17 	0.178987125156842 	-0.0375531433540071 	-8.09802561621592e-22
6 	0.552450780547767 	-8.67361737988404e-17 	0.196078959991795 	-0.0392389472414482 	-8.42340131511034e-22
6 	0.58051092981285 	-8.32667268468867e-17 	0.214968399544571 	-0.0409148191738219 	-1.44364579449374e-22
6 	0.609599004517911 	-8.32667268468867e-17 	0.235858515499064 	-0.0425574953509921 	3.2427180151966e-22
6 	0.639752660582033 	-8.67361737988404e-17 	0.258699471673379 	-0.0441479761363574 	-3.22988590745764e-22
6 	0.671010933370887 	-9.0205620750794e-17 	0.283307479283902 	-0.0456757834762445 	2.01778589738547e-21
6 	0.703414288229901 	-9.0205620750794e-17 	0.309480450554306 	-0.0471310499063931 	2.11522358655229e-21
6 	0.737004672868606 	-8.32667268468867e-17 	0.337044687440084 	-0.0485003627894203 	1.98469449298463e-21
6 	0.771825571663976 	-8.32667268468867e-17 	0.365844270066723 	-0.0497667906965146 	-6.24273365453856e-22
6 	0.807922061953054 	-8.67361737988404e-17 	0.39570393185744 	-0.0509113755870925 	3.171828530727e-22
6 	0.845340872387743 	-7.97972798949331e-17 	0.426393544126971 	-0.0519149637963407 	-4.06644246620339e-22
6 	0.884130443427309 	-7.97972798949331e-17 	0.457609707751567 	-0.0527599126726393 	-3.80936963023624e-22
6 	0.924340990046898 	-8.32667268468867e-17 	0.48897794571427 	-0.0534314931116524 	0
6 	0.966024566743242 	-8.67361737988404e-17 	0.520071928313235 	-0.0539190684647039 	7.19094997637298e-22
6 	1.00923513492173 	-9.0205620750794e-17 	0.550443843022912 	-0.0542172899133557 	5.06312623211902e-21
6 	1.05402863275206 	-9.36750677027476e-17 	0.57966216563079 	-0.0543274001082883 	2.08624306260629e-21
6 	1.10046304758287 	-1.00613961606655e-16 	0.607362741641106 	-0.0542579889356477 	-8.99890212591454e-21
6 	1.14859849100923 	-1.04083408558608e-16 	0.633309644929983 	-0.054024238972245 	-8.91097312421619e-21
6 	1.19849727668995 	-1.07552855510562e-16 	0.657427980703177 	-0.053645226886439 	-1.15671848422873e-21
6 	1.25022400101563 	-1.00613961606655e-16 	0.679783254179979 	-0.0531403774727276 	-1.02401979053142e-21
6 	1.30384562673186 	-9.71445146547012e-17 	0.700528659945209 	-0.0525266864432175 	-4.32206697884663e-21
6 	1.35943156962566 	-1.04083408558608e-16 	0.719851678718072 	-0.0518173141623973 	2.26898981494492e-21
6 	1.41705378838763 	-1.07552855510562e-16 	0.737937020824194 	-0.0510218508031283 	2.74110493578483e-21
6 	1.47678687776592 	-1.11022302462516e-16 	0.754950222500778 	-0.0501479399968396 	8.00897534371557e-22
6 	1.53870816513278 	-1.11022302462516e-16 	0.771037714538595 	-0.0492027154173593 	7.40570994329185e-21
6 	1.60289781058851 	-1.04083408558608e-16 	0.786333905250107 	-0.0481917787567724 	-1.06598936799113e-21
6 	1.66943891073267 	-9.0205620750794e-17 	0.800963696133752 	-0.0471165541194662 	-7.95167166078972e-21
6 	1.73841760623657 	-7.97972798949331e-17 	0.815038655763428 	-0.0459773063737653 	-6.01287420877822e-21
6 	1.8099231933566 	-7.97972798949331e-17 	0.828638266444962 	-0.0447733196035412 	7.57990772625947e-21
6 	1.88404823953249 	-7.63278329429795e-17 	0.84180592472963 	-0.0435024887208553 	9.73815460747423e-22
6 	1.96088870322038 	-6.59194920871187e-17 	0.854553230237307 	-0.0421614101669593 	3.85025636625545e-22
6 	2.04004996790234 	-6.24500451351651e-17 	0.866772121309317 	-0.0407731896124692 	-1.66560799149713e-23
6 	2.11873460271874 	-6.24500451351651e-17 	0.878082991606715 	-0.0393629818557727 	0
6 	2.19463865000285 	-6.24500451351651e-17 	0.888262653118475 	-0.0379847986581424 	0
6 	2.26786037121375 	-6.24500451351651e-17 	0.897393721118005 	-0.0366418281742842 	0
6 	2.33849455540975 	-5.89805981832114e-17 	0.905577916346313 	-0.0353353960463499 	0
6 	2.40663264195737 	-5.89805981832114e-17 	0.912905261560206 	-0.034066985260043 	0
6 	2.47236283890404 	-6.24500451351651e-17 	0.9194556469125 	-0.0328375507996691 	0
6 	2.5357702371677 	-6.93889390390723e-17 	0.92530008538436 	-0.0316475669453209 	0
6 	2.59693692069108 	-7.63278329429795e-17 	0.93050156068901 	-0.0304970782501675 	0
6 	2.65594207270333 	-7.97972798949331e-17 	0.935115656308804 	-0.0293857540972968 	0
6 	2.71286207822658 	-8.32667268468867e-17 	0.939191109054949 	-0.0283129573652219 	0
6 	2.76777062296 	-8.32667268468867e-17 	0.942770344814225 	-0.0272778142600071 	0
6 	2.8207387886695 	-8.32667268468867e-17 	0.945890003346855 	-0.0262792767216511 	0
6 	2.87183514520655 	-8.32667268468867e-17 	0.94858143954262 	-0.0253161743167267 	0
6 	2.92112583927514 	-8.67361737988404e-17 	0.95087118644075 	-0.0243872554459595 	0
6 	2.9686746800619 	-9.0205620750794e-17 	0.952781370350323 	-0.0234912190916132 	0
