/*--------------------------------*- C++ -*----------------------------------*\
  =========                 |
  \\      /  F ield         | OpenFOAM: The Open Source CFD Toolbox
   \\    /   O peration     | Website:  https://openfoam.org
    \\  /    A nd           | Version:  7
     \\/     M anipulation  |
\*---------------------------------------------------------------------------*/
FoamFile
{
    version     2.0;
    format      ascii;
    class       volScalarField;
    location    "0";
    object      Cy;
}
// * * * * * * * * * * * * * * * * * * * * * * * * * * * * * * * * * * * * * //

dimensions      [0 1 0 0 0 0 0];

internalField   nonuniform List<scalar> 
15600
(
1.00195549917933
1.00195549917933
1.00154525709452
0.99948594261652
0.994614921084097
0.986147985577794
0.973256335198312
0.95543596717284
0.93299649213321
0.906849382054596
0.877868229759107
0.846777197292212
0.814164208313831
0.780508362524079
0.746230413838853
0.711721541521337
0.677353882879967
0.643375778543159
0.60983497336622
0.5766896080115
0.543893791677924
0.511399610663565
0.479157218350123
0.447115282843784
0.415221271998309
0.383434843417308
0.351801095612788
0.320462800355486
0.28959218065913
0.259370424830906
0.229990312018157
0.201659550573152
0.174602283588187
0.149064701547666
0.125274284189937
0.103372418911652
0.083447540810007
0.0655835999650006
0.0498603771394655
0.0363539440252928
0.0251342398967197
0.0162643400879105
0.00979805591114809
0.00577943075698031
0.00414892422743915
0.00391099835865907
0.0039109983586591
0.00391099835865908
0.00391099835865903
0.00391099835865905
0.0039109983586591
0.00391099835865909
0.00391099835865913
0.00391099835865919
0.0039109983586592
0.0039109983586593
0.00391099835865913
0.00391099835865898
0.00391099835865922
0.00391099835865898
0.00391099835865904
0.00391099835865911
0.00391099835865897
0.00391099835865914
0.00391099835865924
0.00391099835865915
0.00391099835865921
0.00391099835865921
0.00391099835865906
0.00391099835865922
0.00391099835865907
0.00391099835865913
0.00391099835865895
0.00391099835865913
0.00391099835865917
0.00415369056719575
0.0057965991527093
0.00983039172068495
0.0163116185450854
0.0251961517792932
0.036430088728878
0.0499503891931584
0.0656870065266194
0.0835638747514902
0.103501141158943
0.125414881271203
0.149216686841685
0.174764314640429
0.201830074128555
0.230168048704366
0.259554015193723
0.289780368833607
0.320654344971142
0.351994928036797
0.383630010244229
0.415417136568793
0.447311899430724
0.479354918481761
0.511598719289342
0.544094625010226
0.576892471551027
0.610040063157247
0.643583356961647
0.677564207201202
0.711933747103009
0.74644242308209
0.780717804334603
0.814368576202957
0.846973724116599
0.878053612626987
0.907019506251136
0.933146770069901
0.955560517068751
0.973350584149907
0.986212849807378
0.994654940808659
0.999506683572489
1.00155154100598
1.00195549917933
1.00195549917933
1.00593826201089
1.00593826201089
1.00552965703571
1.00347856037943
0.998626976951738
0.990193829465599
0.977353625228712
0.959604374373574
0.937254452447968
0.911211693057726
0.882346201181676
0.851379247672994
0.818896409212303
0.785374873120118
0.751233714047365
0.716862550304736
0.682632034558889
0.648789518172044
0.615382556524476
0.582369457246495
0.549704512585765
0.517339999969869
0.485226271641418
0.453312200505804
0.421545464014948
0.389885880634594
0.3583783683812
0.327165129140932
0.296417698748716
0.266316542555147
0.237053670505398
0.2088359621822
0.181886666282915
0.156450991043936
0.132755508607027
0.110941042230624
0.0910956741715564
0.073303019356166
0.057642540197546
0.0441900047209182
0.0330150731154003
0.0241805689378883
0.0177400887614605
0.0137375001919089
0.0121135004027894
0.0118765240217846
0.0118765240217845
0.0118765240217844
0.0118765240217845
0.0118765240217844
0.0118765240217845
0.0118765240217846
0.0118765240217846
0.0118765240217846
0.0118765240217846
0.0118765240217846
0.0118765240217844
0.0118765240217844
0.0118765240217844
0.0118765240217844
0.0118765240217844
0.0118765240217844
0.0118765240217843
0.0118765240217844
0.0118765240217846
0.0118765240217846
0.0118765240217846
0.0118765240217847
0.0118765240217847
0.0118765240217844
0.0118765240217844
0.0118765240217845
0.0118765240217845
0.0118765240217845
0.0118765240217843
0.0121182477217451
0.0137546000755757
0.017772295533665
0.0242276587281116
0.0330767379375935
0.0442658455686988
0.057732193056411
0.0734060132754346
0.0912115438825066
0.111069250816748
0.132895544639062
0.156602369845989
0.182048050760507
0.209005805269255
0.237230697938753
0.266499400304952
0.29660513596099
0.327355909400093
0.35857142731415
0.390080268642526
0.42174054698191
0.453508032489974
0.485423182848282
0.517538314052397
0.549904544494816
0.58257151126408
0.615586827915568
0.64899626826162
0.682841519596755
0.71707390908604
0.7514448772591
0.785583479128737
0.819099961531808
0.851574990204933
0.882530844218294
0.911381138311297
0.937404130637235
0.95972842721568
0.977447498059171
0.99025843484898
0.998666836974834
1.00349921856746
1.00553591587077
1.00593826201089
1.00593826201089
1.01006692492001
1.01006692492001
1.00966001702739
1.0076174392421
1.00278600601094
0.994387884334391
0.981601010919994
0.963925482533268
0.941668394365953
0.915733808364337
0.886988213899475
0.856149884728994
0.823801964584699
0.790419658355541
0.756420299912236
0.722191889429179
0.688103540540837
0.654401579099635
0.62113336406987
0.588257376167496
0.555728097395498
0.523498003313337
0.491517652309933
0.459736129592805
0.428101329890623
0.396573238423804
0.365196586097898
0.334112984035994
0.303493255720216
0.27351711705984
0.244375780619126
0.21627526685062
0.189437897291524
0.164107861949324
0.140510792124153
0.118786926273273
0.0990239808915428
0.0813052234729335
0.0657097864216681
0.0523131229716462
0.0411846040057152
0.0323867920798633
0.0259730611630306
0.0219870966370834
0.0203698419498074
0.0201338498400255
0.0201338498400255
0.0201338498400255
0.0201338498400255
0.0201338498400255
0.0201338498400255
0.0201338498400256
0.0201338498400256
0.0201338498400256
0.0201338498400255
0.0201338498400255
0.0201338498400256
0.0201338498400255
0.0201338498400254
0.0201338498400255
0.0201338498400255
0.0201338498400254
0.0201338498400256
0.0201338498400255
0.0201338498400255
0.0201338498400255
0.0201338498400256
0.0201338498400256
0.0201338498400256
0.0201338498400255
0.0201338498400255
0.0201338498400255
0.0201338498400255
0.0201338498400254
0.0201338498400255
0.0203745695511639
0.0220041254989087
0.0260051341709805
0.0324336862918276
0.0412460127171884
0.0523886488327542
0.0657990669275856
0.0814077896338969
0.0991393693661278
0.118914602381715
0.140650246554406
0.164258612042153
0.18959861150891
0.216444404542016
0.244552072817825
0.273699215359035
0.303679914460461
0.334302971938143
0.365388843204594
0.396766819082343
0.428295602621645
0.459931148231929
0.49171374569141
0.523695493746178
0.555927298522831
0.588458591007978
0.621336787080621
0.65460747051614
0.688312155549855
0.722402370389242
0.756630586099767
0.790627397944322
0.824004671457857
0.856344814237547
0.887172090002613
0.915902549803188
0.941817450837023
0.964049020112696
0.98169449385047
0.994452221389028
1.00282570048208
1.00763801163011
1.00966624986741
1.01006692492001
1.01006692492001
1.01434683263962
1.01434683263962
1.01394168399955
1.01190793716331
1.00709739230779
0.998735579576767
0.986003990710398
0.968404885534941
0.946244031953621
0.920421582079718
0.89180027723207
0.861095284290666
0.828887224920187
0.795649248960157
0.761796885732446
0.727716457996428
0.693775483971212
0.660219226427808
0.62709484071937
0.594360986989364
0.56197234394841
0.529881592546753
0.498039504872041
0.466395386211656
0.434897356530938
0.403505573913378
0.372264575295671
0.341315359394316
0.310828011242417
0.280981469852919
0.25196612119811
0.223987095127473
0.197265752052478
0.172045226452817
0.148550174324331
0.126920227903413
0.107242724528287
0.0896005715319735
0.0740725592237971
0.0607338145141301
0.0496534083841595
0.0408936328274172
0.0345076310557786
0.0305388995521549
0.0289286370600579
0.0286936652792366
0.0286936652792367
0.0286936652792366
0.0286936652792366
0.0286936652792366
0.0286936652792366
0.0286936652792367
0.0286936652792368
0.0286936652792367
0.0286936652792366
0.0286936652792366
0.0286936652792366
0.0286936652792366
0.0286936652792366
0.0286936652792367
0.0286936652792366
0.0286936652792367
0.0286936652792366
0.0286936652792366
0.0286936652792366
0.0286936652792366
0.0286936652792366
0.0286936652792369
0.0286936652792367
0.0286936652792366
0.0286936652792366
0.0286936652792366
0.0286936652792366
0.0286936652792367
0.0286936652792366
0.0289333442214899
0.0305558547904202
0.0345395653993975
0.0409403242966425
0.0497145516030477
0.060809013849961
0.074161453736647
0.0897026942649573
0.107357614137729
0.127047352028376
0.148689025847374
0.17219532480531
0.197425771456449
0.224155501582762
0.252141651228571
0.281162780880771
0.311013862993057
0.341504525913212
0.372456001202918
0.403698317646972
0.435090789344728
0.466589561710536
0.498234750468806
0.53007822915722
0.562170683860053
0.594561331911212
0.627297384271122
0.660424227715493
0.693983197079588
0.727926028977983
0.762006262767717
0.795856090389543
0.829089055375787
0.8612893709924
0.891983358306685
0.920589593920955
0.946392443930847
0.968527888975749
0.986097069457253
0.998799638472731
1.00713691516216
1.01192842060812
1.01394788989225
1.01434683263962
1.01434683263962
1.01878352569478
1.01878352569478
1.01838020075479
1.01635560837851
1.0115667171208
1.00324254347916
0.990568264461658
0.973048382181915
0.950987288600678
0.925281082762599
0.896788620638478
0.866221848427715
0.834158773345469
0.801070414904101
0.767370431772043
0.733443407843254
0.699655207472559
0.666249991401293
0.633274703912656
0.600688191151943
0.568445335744491
0.536499031556217
0.504800272202585
0.473298591113569
0.441942341742731
0.410691861368747
0.379591485850058
0.348781579060035
0.318431460530502
0.28871926391725
0.259834518319405
0.231981430357511
0.205380364107409
0.180273359855892
0.156884062569573
0.135351476059887
0.115762544623388
0.0981998022371983
0.0827416845872113
0.0694629803055744
0.0584324494884944
0.0497121036552088
0.0433548468090684
0.0394039796145033
0.0378009654627115
0.0375670513895653
0.0375670513895654
0.0375670513895654
0.0375670513895653
0.0375670513895655
0.0375670513895655
0.0375670513895654
0.0375670513895654
0.0375670513895653
0.0375670513895654
0.0375670513895654
0.0375670513895654
0.0375670513895653
0.0375670513895655
0.0375670513895652
0.0375670513895653
0.0375670513895654
0.0375670513895653
0.0375670513895654
0.0375670513895654
0.0375670513895654
0.0375670513895654
0.0375670513895653
0.0375670513895655
0.0375670513895654
0.0375670513895654
0.0375670513895653
0.0375670513895653
0.0375670513895653
0.0375670513895654
0.0378056514354325
0.0394208585321829
0.0433866374087836
0.0497585849547687
0.058493317489264
0.0695378411548513
0.0828301789672146
0.0983014652985316
0.115876917093136
0.135478027981056
0.157022289099525
0.18042278259326
0.205539663245337
0.232149078789656
0.260009258261404
0.288899758833897
0.31861647572928
0.348969894106127
0.379782050108636
0.410883737518415
0.442134903870667
0.473491892585527
0.504994638957814
0.536694783066314
0.568642782891598
0.60088763428749
0.63347633578823
0.666454069952069
0.69986198564095
0.733652035511006
0.767578866350042
0.801276325271815
0.834359695277737
0.866415061448132
0.896970877560324
0.925448338278828
0.951135032474049
0.973170831916655
0.990660924217966
1.00330631402639
1.01160606207138
1.01637599962181
1.01838637871299
1.01878352569478
1.01878352569478
1.02338274757508
1.02338274757508
1.02298131314367
1.02096621058999
1.01619976618607
1.0079146105078
0.995299740837694
0.977861983704634
0.955904304688224
0.930318601281236
0.901959701781557
0.871536213736942
0.839623434147022
0.806690174161933
0.773148153270601
0.73938015279993
0.705750322650068
0.67250168115728
0.639680953802794
0.60724717954899
0.575155452407062
0.543358886959221
0.511808706464697
0.480454680854196
0.449245405623325
0.418141403810065
0.38718680282442
0.356521308438058
0.326313446638171
0.296740516219934
0.267991158018754
0.240268621605155
0.213792238219531
0.188802913874369
0.165523245473688
0.14409158538672
0.124594470475022
0.1071140476814
0.091728385081099
0.0785119206353641
0.0675330921699814
0.0588536204549319
0.0525261615241224
0.048593813050523
0.0469983127675509
0.0467654951501684
0.0467654951501685
0.0467654951501684
0.0467654951501685
0.0467654951501685
0.0467654951501686
0.0467654951501686
0.0467654951501684
0.0467654951501685
0.0467654951501685
0.0467654951501684
0.0467654951501685
0.0467654951501685
0.0467654951501683
0.0467654951501684
0.0467654951501683
0.0467654951501684
0.0467654951501685
0.0467654951501684
0.0467654951501686
0.0467654951501685
0.0467654951501685
0.0467654951501684
0.0467654951501686
0.0467654951501685
0.0467654951501685
0.0467654951501685
0.0467654951501684
0.0467654951501684
0.0467654951501684
0.0470029767753432
0.0486106128517933
0.0525578031142891
0.0588998838858404
0.0675936748708425
0.0785864305986571
0.0918164646705158
0.107215234232388
0.1247083068611
0.144217544143086
0.165660824115623
0.188951636247253
0.213950790706408
0.240435484245849
0.268165078929283
0.296920165129026
0.326497594639895
0.356708740819535
0.387376473869679
0.41833238059368
0.449437065169656
0.480647076281086
0.512002162183871
0.543553720945131
0.57535197408506
0.607445687863148
0.639881640604821
0.67270480316854
0.705956131628784
0.739587802597416
0.77335561086625
0.806895119360388
0.839823414274058
0.871728521070525
0.902141104359472
0.930485072765951
0.956051355982806
0.977983859449013
0.995391966254076
1.00797808214294
1.01623892671554
1.02098650625407
1.02298746214402
1.02338274757508
1.02338274757508
1.0281504521697
1.0281504521697
1.02775097750284
1.0257457124203
1.02100253718708
1.01275782886169
1.00020454495364
0.982851921542492
0.961001445537804
0.935540658957294
0.907320214887818
0.877045259933706
0.845288281605506
0.812515801797825
0.779137529783774
0.745534378287856
0.712068719945237
0.678982388832263
0.646321883612965
0.614046443131758
0.582111380530687
0.550470039194674
0.519073880440019
0.487872919362534
0.456816002367104
0.425863845055519
0.39506035874894
0.364544567006492
0.334484173200056
0.305055610679835
0.276446599476979
0.248859397051917
0.222512263972565
0.197644930427583
0.174478906868622
0.153151870362582
0.133749935415785
0.116354847757144
0.101044294388541
0.0878923497536357
0.0769671176055093
0.0683300173134981
0.0620334478603602
0.0581202964918966
0.0565325853333906
0.0563009043394041
0.0563009043394041
0.0563009043394041
0.0563009043394042
0.0563009043394042
0.0563009043394043
0.056300904339404
0.0563009043394043
0.0563009043394042
0.0563009043394042
0.0563009043394041
0.0563009043394041
0.0563009043394041
0.0563009043394042
0.0563009043394041
0.0563009043394041
0.0563009043394042
0.0563009043394042
0.0563009043394042
0.0563009043394039
0.0563009043394043
0.0563009043394043
0.0563009043394044
0.056300904339404
0.0563009043394042
0.0563009043394042
0.0563009043394042
0.0563009043394041
0.0563009043394041
0.0563009043394042
0.0565372265716003
0.0581370142785159
0.0620649349824473
0.0683760548947433
0.0770274045553658
0.0879664959773116
0.101131943992699
0.116455540342272
0.133863216080273
0.153277214225307
0.17461581388894
0.197792926780006
0.222670042456861
0.249025445115639
0.276619671352789
0.305234382589852
0.33466742223692
0.364731084388903
0.395249103859916
0.426053889526701
0.457006726267641
0.488064375553285
0.519266391749239
0.550663922044819
0.582306942836938
0.614243982379274
0.646521590720611
0.679184519263108
0.71227352422992
0.745741014392692
0.779343974607237
0.812719746469958
0.845487285426186
0.877236628402485
0.907500731824654
0.935706317689005
0.961147778882048
0.982973202269117
1.00029632011838
1.01282099063439
1.02104150653933
1.02576590900375
1.02775709648452
1.0281504521697
1.0281504521697
1.03309281147487
1.03309281147487
1.03269536836567
1.03070030113885
1.02598124751885
1.01777846830218
1.00528902630502
0.988024655410735
0.966285309651658
0.940954016008064
0.912877099413484
0.882756118758097
0.851160649153849
0.818554839383535
0.785346314866015
0.75191405126882
0.718618578850535
0.685700504039116
0.653206090372501
0.621094783901097
0.58932212492653
0.557841694019167
0.526605199273981
0.495562909933662
0.46466393250451
0.43386918220587
0.403222346349417
0.372861741287481
0.342954217640928
0.313675311610169
0.285211788689449
0.257764877884602
0.231551729867884
0.206810855932663
0.183762640282433
0.162544059947844
0.143240791613586
0.125934165095556
0.110701472366694
0.0976164110357235
0.0867467385486557
0.078153561832574
0.0718890134048598
0.0679957623760785
0.0664161256811543
0.0661856229497495
0.0661856229497493
0.0661856229497495
0.0661856229497493
0.0661856229497496
0.0661856229497493
0.0661856229497495
0.0661856229497494
0.0661856229497496
0.0661856229497494
0.0661856229497494
0.0661856229497494
0.0661856229497495
0.0661856229497495
0.0661856229497495
0.0661856229497495
0.0661856229497496
0.0661856229497496
0.0661856229497494
0.0661856229497493
0.0661856229497494
0.0661856229497497
0.0661856229497494
0.0661856229497495
0.0661856229497493
0.0661856229497497
0.0661856229497493
0.0661856229497494
0.0661856229497495
0.0661856229497496
0.0664207433156494
0.0680123951436364
0.0719203404003832
0.078199365290788
0.0868067189135778
0.0976901801953094
0.110788676234319
0.126034345619899
0.143353496199198
0.162668766392137
0.183898851078131
0.206958099668833
0.231708705996135
0.25793008153136
0.285383980428198
0.313853174394295
0.343136534781391
0.373047310151886
0.403410131606493
0.434058260211306
0.464853686483821
0.49575339248133
0.526796731576762
0.558034590890678
0.589516692716438
0.621291318582211
0.653404781896684
0.685901606564982
0.718822341636184
0.752119636546341
0.785551709816351
0.818757746877061
0.851358640903177
0.882946513968685
0.91305669826558
0.941118832213131
0.96643089874455
0.988145319321877
1.00538033472347
1.0178413088609
1.02602001869027
1.03072039501196
1.03270145622898
1.03309281147487
1.03309281147487
1.0382162235837
1.0382162235837
1.03782088645534
1.03583639067147
1.03114234233655
1.02298302826931
1.01055976698743
0.99338688166286
0.971762737254833
0.946565680297949
0.918637549028019
0.888676183207389
0.857248138870783
0.824815104761429
0.791782546108014
0.758527430558688
0.725408378498249
0.692664723727938
0.660342486046333
0.628401326302168
0.596797020279632
0.56548339442443
0.53441241265133
0.50353460766081
0.472799355589455
0.442167778586294
0.41168333174239
0.381483598293188
0.351734544868815
0.322610777653549
0.294298072636272
0.26699659269229
0.240922337938042
0.216312556122491
0.19338646394762
0.172280312768193
0.153079325414719
0.13586440055237
0.120712420658651
0.107696692702113
0.0968846151394284
0.088336971009306
0.0821056166048293
0.0782329949109338
0.0766617284715664
0.0764324471673968
0.0764324471673966
0.0764324471673966
0.0764324471673966
0.0764324471673966
0.0764324471673966
0.0764324471673965
0.0764324471673967
0.0764324471673965
0.0764324471673967
0.0764324471673967
0.0764324471673965
0.0764324471673967
0.0764324471673966
0.0764324471673965
0.0764324471673965
0.0764324471673966
0.0764324471673967
0.0764324471673964
0.0764324471673967
0.0764324471673967
0.0764324471673964
0.0764324471673966
0.0764324471673965
0.0764324471673966
0.0764324471673967
0.0764324471673967
0.0764324471673966
0.0764324471673966
0.0764324471673968
0.0766663216376572
0.0782495395449612
0.0821367776080282
0.088382531768056
0.0969442776886306
0.10777007098505
0.12079916246148
0.135964050258169
0.153191432818453
0.172404358444162
0.193521953014452
0.216459019672362
0.241078482318155
0.26716092098899
0.294469351996272
0.322787698008085
0.351915895974966
0.381668183892755
0.411870121983376
0.442355854721549
0.472988104116505
0.50372408089802
0.534602930083823
0.56567526919803
0.596990557121156
0.628596819616661
0.660540124783237
0.692864760693588
0.725611061631596
0.758731926513853
0.791986852725166
0.825016937081364
0.857445081473578
0.888865569506477
0.918816196163209
0.946729623112014
0.971907554831857
0.993506906162249
1.01065059156064
1.02304553584667
1.03118090806694
1.03585637807157
1.0378269420603
1.0382162235837
1.0382162235837
1.04352732096861
1.04352732096861
1.04313416697071
1.04116062990336
1.03649250289888
1.02837824629564
1.01602359021734
0.998945541959373
0.977440819150231
0.952382916410543
0.924609020926739
0.894813117106708
0.863558631322182
0.831304702165119
0.798454555541832
0.765383077518952
0.732446908637259
0.699884063444822
0.667740309072055
0.635975529036621
0.604545743233255
0.573405032991302
0.542505627417733
0.511798332322846
0.481232803351497
0.450770377162379
0.420454268113628
0.390421299464356
0.360836521469727
0.331873576227483
0.303717213971617
0.276566492390726
0.250636218895669
0.226162331406435
0.203362836359264
0.182373232854478
0.163278273248996
0.14615840926125
0.131090098877213
0.118146244114252
0.107393871293151
0.0988934276987866
0.0926964832837189
0.088845246624189
0.0872826570681372
0.0870546419372134
0.0870546419372134
0.0870546419372135
0.0870546419372133
0.0870546419372132
0.0870546419372135
0.0870546419372133
0.0870546419372132
0.0870546419372134
0.0870546419372134
0.0870546419372134
0.0870546419372134
0.0870546419372134
0.0870546419372133
0.0870546419372133
0.0870546419372133
0.0870546419372133
0.0870546419372134
0.0870546419372134
0.0870546419372134
0.0870546419372134
0.0870546419372134
0.0870546419372132
0.0870546419372133
0.0870546419372135
0.0870546419372133
0.0870546419372133
0.0870546419372135
0.0870546419372132
0.0870546419372134
0.0872872248694564
0.0888616998961267
0.0927274722139636
0.0989387368674737
0.107453204384455
0.118219217202017
0.131176361688859
0.146257508703633
0.163389761594823
0.182496593556897
0.203497577258728
0.226307986190031
0.250791501058872
0.276729913271135
0.303887547530091
0.332049519628738
0.361016871153102
0.390604865779386
0.420640026888247
0.45095741472604
0.48142050959365
0.511986759275617
0.542695092802288
0.573595848224571
0.604738211359746
0.636169942836167
0.667936856454986
0.700082995815592
0.732648472567342
0.765586444246537
0.798657733956825
0.831505419924609
0.863754486345088
0.895001457534901
0.924786681480807
0.952545953838604
0.977584836948051
0.999064903622932
1.01611391321994
1.02844040869314
1.03653085566209
1.04118050692994
1.04314018913558
1.04352732096861
1.04352732096861
1.04903297906726
1.04903297906726
1.04864208817577
1.04667991128629
1.04203865521721
1.03397110672812
1.02168756916499
1.00470783225412
0.98332690589803
0.958413255053052
0.930799245484601
0.901174865030295
0.870100295762916
0.838032032710875
0.80537098042722
0.772489867139926
0.739743281011915
0.707367869003033
0.675409136319677
0.643827197307494
0.612578324915916
0.581616864696329
0.550895320663721
0.520364781743869
0.489975193329831
0.459688114447548
0.42954650989772
0.399686415119473
0.3702719304224
0.341475698499099
0.313481406251136
0.286486965693428
0.260705947837293
0.236372932793843
0.213704672403101
0.192835885959126
0.173850838117527
0.156829517275191
0.141847941381497
0.128978592667309
0.118288111689704
0.109836597679574
0.103675323762347
0.0998462555191229
0.0982926607068785
0.0980659581345083
0.0980659581345085
0.0980659581345084
0.0980659581345082
0.0980659581345084
0.0980659581345082
0.0980659581345085
0.0980659581345085
0.0980659581345083
0.0980659581345083
0.0980659581345083
0.0980659581345084
0.0980659581345083
0.0980659581345082
0.0980659581345082
0.0980659581345086
0.0980659581345083
0.0980659581345083
0.0980659581345085
0.0980659581345083
0.0980659581345083
0.0980659581345082
0.0980659581345083
0.0980659581345082
0.0980659581345082
0.0980659581345084
0.0980659581345083
0.0980659581345083
0.0980659581345085
0.0980659581345085
0.0982972022142213
0.0998626140821426
0.103706134316269
0.109881646041925
0.118347103254471
0.129051145716882
0.141933707655541
0.156928046297009
0.173961684728068
0.192958536596112
0.213838637728212
0.236517749184257
0.260860336198698
0.286649445916657
0.313650759360963
0.341650629158697
0.370451241998164
0.399868924810776
0.42973119942042
0.459874075393731
0.490161819105159
0.52055212408377
0.551083695460763
0.581806581575217
0.612769685177217
0.644020492046288
0.675604552369125
0.707565656314291
0.739943684738904
0.772692063272851
0.805572989310543
0.838231595080206
0.87029502336465
0.90136212127426
0.93097588331615
0.95857535392801
0.983470094617914
1.00482650679963
1.02177737222221
1.03403291130039
1.04207678721133
1.04669967389592
1.04864807567551
1.04903297906726
1.04903297906726
1.05474032518292
1.05474032518292
1.05435178030365
1.05240137976098
1.04778797902141
1.03976884976959
1.0275590361109
1.01068121210974
0.989428617331386
0.964664502805222
0.937216236263611
0.907769662586225
0.876881600712423
0.845005805273372
0.812540774433062
0.779856999529986
0.747306941157732
0.715125828581762
0.683358895489501
0.651966495512668
0.620905163927328
0.590129520187473
0.559592353287942
0.529245045642251
0.499037843006736
0.468932534919997
0.438971827477101
0.409290939433278
0.380052986352081
0.351429574908413
0.323603289717229
0.296770855149558
0.271144560522456
0.24695757840082
0.224425360074406
0.203681816470287
0.18481070668448
0.167891538817535
0.152999874668115
0.140207761301748
0.12958143938512
0.121180647344354
0.11505635060721
0.111250262858701
0.109705992294983
0.109480650365832
0.109480650365832
0.109480650365832
0.109480650365831
0.109480650365831
0.109480650365831
0.109480650365832
0.109480650365832
0.109480650365831
0.109480650365832
0.109480650365831
0.109480650365831
0.109480650365831
0.109480650365831
0.109480650365831
0.109480650365832
0.109480650365832
0.109480650365831
0.109480650365831
0.109480650365832
0.109480650365832
0.109480650365831
0.109480650365832
0.109480650365831
0.109480650365832
0.109480650365832
0.109480650365831
0.109480650365831
0.109480650365832
0.109480650365832
0.109710506545103
0.111266523243373
0.115086976250541
0.121225425346492
0.129640076912629
0.140279878926403
0.153085126215393
0.167989476523269
0.18492088805166
0.203803731030821
0.224558521414226
0.24710152568587
0.271298022340178
0.296932360257044
0.323771626462082
0.351603455726965
0.38023122179154
0.409472353793837
0.439155408578138
0.469117379809086
0.499223348734598
0.529431263636761
0.559779597546082
0.590318098476067
0.621095375739097
0.65215863019622
0.683553138761383
0.715322428886552
0.747506142179843
0.780057982185746
0.812741570941191
0.845204169927104
0.877075159592193
0.907955794929101
0.93739181390728
0.964825628744966
0.989570946601267
1.01079917436541
1.0276483001748
1.03983028340796
1.04782588215872
1.05242102376212
1.05435773186835
1.05474032518292
1.05474032518292
1.06065674771093
1.06065674771093
1.06027063478689
1.0583324420064
1.0537479170542
1.04577898085141
1.03364559193774
1.0168734143545
0.995753852420721
0.971144752225417
0.943868300386858
0.914606047077883
0.883911324917717
0.85223504775984
0.81997321922845
0.787494011825649
0.755147680629266
0.723167985268112
0.691599877964162
0.660403960403337
0.629537039800043
0.598954019546191
0.568607984057308
0.53845061998697
0.508432484458774
0.478515605967753
0.448742422419552
0.419247305963985
0.390192351343106
0.361748091260289
0.334095967662556
0.307431473769308
0.281965570249179
0.257929970561722
0.23553877780934
0.214925064945586
0.196172066994965
0.179358794164929
0.164560335399427
0.151848286656395
0.14128847406832
0.132940262038642
0.126854297028939
0.123072031601175
0.121537426861497
0.121313495421849
0.121313495421849
0.121313495421849
0.121313495421849
0.121313495421849
0.121313495421849
0.121313495421849
0.121313495421849
0.121313495421849
0.121313495421849
0.121313495421849
0.121313495421849
0.121313495421849
0.121313495421849
0.121313495421849
0.121313495421849
0.121313495421849
0.121313495421849
0.121313495421849
0.121313495421849
0.121313495421849
0.121313495421849
0.121313495421849
0.121313495421849
0.121313495421849
0.121313495421849
0.121313495421849
0.121313495421849
0.121313495421849
0.121313495421849
0.12154191285586
0.123088190210976
0.126884730988056
0.132984759776722
0.141346744589577
0.151919952905781
0.164645053364488
0.179456118893642
0.196281558749581
0.215046216465845
0.235671105712202
0.258073016904192
0.282118071581951
0.307591968040201
0.334263250810426
0.361920883779366
0.390369471224484
0.419427584868837
0.44892485449429
0.478699293915349
0.508616829108578
0.538635672448051
0.568794056361627
0.599141417534609
0.629726061091215
0.660594892535413
0.691792905496187
0.723363355082802
0.75534563488774
0.787693736550827
0.820172758948349
0.852432170822027
0.884103672261761
0.914791014347865
0.944042779004815
0.971304869588305
0.99589529075588
1.01699063822637
1.03373429726253
1.04584002996697
1.05378558295067
1.05835196305394
1.06027654910012
1.06065674771092
1.06065674771093
1.06678990570309
1.06678990570309
1.06640631382579
1.06448077602785
1.05992618470596
1.05200928034945
1.03995511597005
1.02329245509272
1.00231079949939
0.977862392326896
0.95076404929258
0.921692868556017
0.891198568717987
0.859729118797227
0.827677936498362
0.795410790538019
0.76327564967589
0.731504750058473
0.7001427521315
0.669150514724526
0.638485126954284
0.608101786553621
0.577953884182193
0.547993421879887
0.518171279544733
0.488449733381232
0.458870943273938
0.429568403749281
0.400703151330765
0.372444605405878
0.344973023393025
0.318482622258326
0.293182985347629
0.269304313567479
0.247059312451199
0.226580186288171
0.207949626841959
0.191246128185369
0.176544289092206
0.163915237886478
0.153424370986635
0.145130665071271
0.139084435954727
0.135326865511011
0.133802280683874
0.133579811406179
0.133579811406179
0.133579811406179
0.133579811406179
0.133579811406179
0.133579811406179
0.133579811406179
0.133579811406179
0.133579811406179
0.133579811406179
0.133579811406179
0.133579811406179
0.133579811406179