/*--------------------------------*- C++ -*----------------------------------*\
  =========                 |
  \\      /  F ield         | OpenFOAM: The Open Source CFD Toolbox
   \\    /   O peration     | Website:  https://openfoam.org
    \\  /    A nd           | Version:  7
     \\/     M anipulation  |
\*---------------------------------------------------------------------------*/
FoamFile
{
    version     2.0;
    format      ascii;
    class       volScalarField;
    location    "0";
    object      k_LES;
}
// * * * * * * * * * * * * * * * * * * * * * * * * * * * * * * * * * * * * * //

dimensions      [0 2 -2 0 0 0 0];

internalField   nonuniform List<scalar>
15600
(
0.00374927
0.00403392
0.00396628
0.00257475
0.00055633
0.00031086
0.00049926
0.00042647
0.00088162
0.00130537
0.00093183
0.00108783
0.00103138
0.00043195
0.00195345
0.00167007
0.00200165
0.00106441
0.00077497
0.00108013
0.00095987
0.00110869
0.00093739
0.00101135
0.00133733
0.00055351
0.00110354
0.00045034
0.00069537
0.00097358
0.00120170
0.00076490
0.00083565
0.00104373
0.00087147
0.00094934
0.00131209
0.00123025
0.00087449
0.00118879
0.00150001
0.00115133
0.00219562
0.00187227
0.00135567
0.00132761
0.00139702
0.00141350
0.00146383
0.00149034
0.00154552
0.00155522
0.00152790
0.00149024
0.00151651
0.00151978
0.00149939
0.00154520
0.00146835
0.00141451
0.00140389
0.00135335
0.00134573
0.00136330
0.00128671
0.00127155
0.00126130
0.00129240
0.00121329
0.00121171
0.00117896
0.00114891
0.00115158
0.00110595
0.00108297
0.00115293
0.00183225
0.00130772
0.00108071
0.00105690
0.00056747
0.00056269
0.00075693
0.00094800
0.00006249
0.00007417
0.00028051
0.00003506
-0.00003174
0.00012080
0.00038870
0.00004387
0.00018165
0.00015187
-0.00003414
0.00035062
-0.00007381
0.00026311
-0.00002287
0.00045168
-0.00001135
0.00018999
-0.00011963
0.00003466
-0.00034457
0.00029485
-0.00047659
-0.00031216
-0.00025033
-0.00011983
-0.00015421
-0.00002942
-0.00014147
0.00003088
0.00026775
0.00046537
0.00162687
0.00305032
0.00348635
0.00359684
0.00797539
0.00826209
0.00829501
0.00660054
0.00282129
0.00185327
0.00170727
0.00149592
0.00234308
0.00282300
0.00291482
0.00342783
0.00265785
0.00350435
0.00518466
0.00385647
0.00463120
0.00411021
0.00395178
0.00437707
0.00413052
0.00444950
0.00401023
0.00413745
0.00403820
0.00348488
0.00412006
0.00332426
0.00364499
0.00354918
0.00374522
0.00378671
0.00391712
0.00384506
0.00377659
0.00410559
0.00449305
0.00469694
0.00479197
0.00482502
0.00539907
0.00596705
0.00659342
0.00647571
0.00608334
0.00627251
0.00656164
0.00678831
0.00696827
0.00711184
0.00728534
0.00735337
0.00731168
0.00732081
0.00740312
0.00737039
0.00737852
0.00735830
0.00722242
0.00705713
0.00694316
0.00683927
0.00675727
0.00664199
0.00649344
0.00640393
0.00638090
0.00629436
0.00619731
0.00615659
0.00604984
0.00591851
0.00580720
0.00571771
0.00562993
0.00573172
0.00671207
0.00681992
0.00643440
0.00602582
0.00558632
0.00598802
0.00607604
0.00570029
0.00452552
0.00386827
0.00508455
0.00352790
0.00329503
0.00442531
0.00489184
0.00354222
0.00397912
0.00399523
0.00172787
0.00423787
0.00231958
0.00334527
0.00220626
0.00342725
0.00180798
0.00259977
0.00139958
0.00330833
0.00094820
0.00238659
0.00067434
0.00049016
0.00252638
0.00214716
0.00121192
0.00305142
0.00213273
0.00281841
0.00211219
0.00257603
0.00528325
0.00700102
0.00738181
0.00767516
0.01252403
0.01298741
0.01317381
0.01170685
0.00736491
0.00530993
0.00391745
0.00332129
0.00441339
0.00473716
0.00604047
0.00684341
0.00664641
0.00670799
0.00787151
0.00760439
0.00761441
0.00764562
0.00726007
0.00740826
0.00729195
0.00728174
0.00705971
0.00692335
0.00675070
0.00639861
0.00680578
0.00639985
0.00645633
0.00648391
0.00658968
0.00666830
0.00672271
0.00684644
0.00696392
0.00730491
0.00758391
0.00785200
0.00805517
0.00839503
0.00900731
0.00956986
0.01008352
0.01029481
0.01041933
0.01085545
0.01132811
0.01175768
0.01208942
0.01235700
0.01267207
0.01281778
0.01280991
0.01294767
0.01309702
0.01308634
0.01312804
0.01312723
0.01294856
0.01272218
0.01257625
0.01243083
0.01230318
0.01206007
0.01187666
0.01172368
0.01166929
0.01158359
0.01150651
0.01142521
0.01125014
0.01106202
0.01086480
0.01075718
0.01060914
0.01067812
0.01136789
0.01175946
0.01165217
0.01165478
0.01145831
0.01162403
0.01193232
0.01192463
0.01144035
0.01102143
0.01155808
0.01126251
0.01089506
0.01123601
0.01147809
0.01084891
0.01054538
0.01149454
0.00974681
0.01105683
0.01027152
0.01025137
0.01008844
0.00967979
0.00911814
0.00833248
0.00724104
0.00909172
0.00660761
0.00882701
0.00555781
0.00455477
0.00790381
0.00691995
0.00798472
0.00960763
0.00912293
0.00890895
0.00786176
0.00818332
0.01076327
0.01193209
0.01210040
0.01221639
0.01664990
0.01699400
0.01717489
0.01632118
0.01361558
0.01028509
0.00702172
0.00549881
0.00609625
0.00698955
0.00844389
0.00916393
0.00981806
0.01015746
0.01021863
0.01031911
0.01030038
0.01010534
0.00995485
0.01008495
0.01010042
0.01004509
0.00978905
0.00961324
0.00932125
0.00921253
0.00926395
0.00903672
0.00896612
0.00895273
0.00899036
0.00910791
0.00920690
0.00930106
0.00947484
0.00971894
0.00999574
0.01025839
0.01060668
0.01105969
0.01161835
0.01216320
0.01260145
0.01302610
0.01347983
0.01406211
0.01463237
0.01520323
0.01564362
0.01601691
0.01644891
0.01668541
0.01677432
0.01697239
0.01718002
0.01723486
0.01728103
0.01729769
0.01714376
0.01692932
0.01678297
0.01658094
0.01641568
0.01615592
0.01597160
0.01579352
0.01574248
0.01568567
0.01560922
0.01553053
0.01532115
0.01512852
0.01490621
0.01476437
0.01459297
0.01464683
0.01509610
0.01552054
0.01569530
0.01592043
0.01600419
0.01626266
0.01674044
0.01691337
0.01664345
0.01657163
0.01714329
0.01724465
0.01731058
0.01770637
0.01779109
0.01748238
0.01735415
0.01793782
0.01661435
0.01739157
0.01696022
0.01694048
0.01670952
0.01651671
0.01631688
0.01549712
0.01596913
0.01567118
0.01449535
0.01605099
0.01418983
0.01304591
0.01458375
0.01465234
0.01511130
0.01703849
0.01752114
0.01641245
0.01632351
0.01607211
0.01655497
0.01679966
0.01653062
0.01647882
0.02050621
0.02067694
0.02072265
0.01996122
0.01856992
0.01517945
0.01084517
0.00777633
0.00738749
0.00860550
0.01025421
0.01101947
0.01207488
0.01236222
0.01244329
0.01246000
0.01235878
0.01248140
0.01226795
0.01230626
0.01224634
0.01209574
0.01182514
0.01156927
0.01132463
0.01131479
0.01116680
0.01100270
0.01090532
0.01089171
0.01088847
0.01102430
0.01104812
0.01110836
0.01132101
0.01153382
0.01179052
0.01206468
0.01245343
0.01295677
0.01349811
0.01401354
0.01446107
0.01501651
0.01566715
0.01632287
0.01693896
0.01758862
0.01813637
0.01860152
0.01910646
0.01940298
0.01957304
0.01985914
0.02008139
0.02018504
0.02024308
0.02026566
0.02014031
0.01996580
0.01981480
0.01959563
0.01938541
0.01913578
0.01899216
0.01881817
0.01878287
0.01874353
0.01867304
0.01860415
0.01838284
0.01819366
0.01796242
0.01778426
0.01759742
0.01765970
0.01797999
0.01837991
0.01868899
0.01901104
0.01924526
0.01965765
0.02020103
0.02047112
0.02048887
0.02072182
0.02123655
0.02155060
0.02184104
0.02224866
0.02233204
0.02247396
0.02238263
0.02296860
0.02253434
0.02275069
0.02299023
0.02264240
0.02284270
0.02247952
0.02233171
0.02214969
0.02156095
0.02223200
0.02218391
0.02184769
0.02199306
0.02194206
0.02198024
0.02297562
0.02279407
0.02405974
0.02409205
0.02358863
0.02322522
0.02240151
0.02172670
0.02134629
0.02075222
0.02049396
0.02406732
0.02407054
0.02403597
0.02331049
0.02193757
0.01938941
0.01516800
0.01067124
0.00923408
0.01019581
0.01176559
0.01282713
0.01359574
0.01402684
0.01408639
0.01427576
0.01408242
0.01418874
0.01395595
0.01398399
0.01397638
0.01376383
0.01344796
0.01320955
0.01297294
0.01294619
0.01276050
0.01260334
0.01246545
0.01239570
0.01236589
0.01244211
0.01245176
0.01246856
0.01267117
0.01288450
0.01314154
0.01343718
0.01383195
0.01436971
0.01492741
0.01541862
0.01590182
0.01653059
0.01730521
0.01802031
0.01866589
0.01935161
0.01999952
0.02054352
0.02108923
0.02142547
0.02168026
0.02201431
0.02223996
0.02237370
0.02245524
0.02247191
0.02236599
0.02223964
0.02208449
0.02184145
0.02161268
0.02141835
0.02128946
0.02113409
0.02111816
0.02109795
0.02099961
0.02093390
0.02071885
0.02052366
0.02031775
0.02010156
0.01991871
0.01998179
0.02023821
0.02061697
0.02095589
0.02130970
0.02167750
0.02214957
0.02268715
0.02308536
0.02325876
0.02364103
0.02417725
0.02456086
0.02506544
0.02548002
0.02567722
0.02610304
0.02606285
0.02642113
0.02668770
0.02657118
0.02700042
0.02668571
0.02717534
0.02673562
0.02715665
0.02663584
0.02659714
0.02672609
0.02678461
0.02758284
0.02784914
0.02802408
0.02776504
0.02831112
0.02886651
0.02900888
0.02890831
0.02876384
0.02744953
0.02645439
0.02575888
0.02516725
0.02455974
0.02417166
0.02682284
0.02677130
0.02663964
0.02616625
0.02501121
0.02314767
0.01961849
0.01437762
0.01147424
0.01188393
0.01320981
0.01433282
0.01502855
0.01552383
0.01553627
0.01570375
0.01547807
0.01552528
0.01537976
0.01538552
0.01534385
0.01514673
0.01473737
0.01453791
0.01431389
0.01428129
0.01403271
0.01384664
0.01370745
0.01358199
0.01351698
0.01353047
0.01353775
0.01353623
0.01370083
0.01393566
0.01418657
0.01453380
0.01492542
0.01548734
0.01607593
0.01656066
0.01708275
0.01775121
0.01860792
0.01937886
0.02005701
0.02075848
0.02148528
0.02210110
0.02265135
0.02300962
0.02333489
0.02369376
0.02391716
0.02406844
0.02416915
0.02419311
0.02410115
0.02401154
0.02384790
0.02358779
0.02336977
0.02321991
0.02310472
0.02296916
0.02297206
0.02296705
0.02284250
0.02274041
0.02253404
0.02233939
0.02215798
0.02192852
0.02176032
0.02182660
0.02204894
0.02240174
0.02273148
0.02309129
0.02352886
0.02405409
0.02460099
0.02506920
0.02532531
0.02577876
0.02635222
0.02685445
0.02737340
0.02783818
0.02812564
0.02862057
0.02871807
0.02913078
0.02941116
0.02943127
0.02970992
0.02974702
0.02987181
0.02992458
0.03024338
0.03007252
0.03055604
0.03022579
0.03052392
0.03104922
0.03119061
0.03193044
0.03179107
0.03220714
0.03249167
0.03229933
0.03224059
0.03165534
0.03050700
0.02936442
0.02854328
0.02792198
0.02740336
0.02700221
0.02874000
0.02861056
0.02844135
0.02809172
0.02768332
0.02623694
0.02361834
0.01846402
0.01413527
0.01369939
0.01473876
0.01564121
0.01643732
0.01680250
0.01684656
0.01695115
0.01670142
0.01673071
0.01656985
0.01656885
0.01648074
0.01626417
0.01584987
0.01564369
0.01544081
0.01539675
0.01510701
0.01487886
0.01469631
0.01454919
0.01442582
0.01440987
0.01441161
0.01440241
0.01454429
0.01479587
0.01505930
0.01544462
0.01583330
0.01641582
0.01705384
0.01754312
0.01809130
0.01878807
0.01969086
0.02052411
0.02124205
0.02195973
0.02273684
0.02340766
0.02395114
0.02431766
0.02469388
0.02505013
0.02526438
0.02541756
0.02553224
0.02559342
0.02552040
0.02544377
0.02526369
0.02500486
0.02480164
0.02469681
0.02457548
0.02446728
0.02448451
0.02449045
0.02433769
0.02419034
0.02398916
0.02379503
0.02363752
0.02341444
0.02327327
0.02333801
0.02353350
0.02385439
0.02417249
0.02452253
0.02501493
0.02555953
0.02609120
0.02660161
0.02692179
0.02738032
0.02800023
0.02857010
0.02910173
0.02960987
0.02993926
0.03052207
0.03066932
0.03110418
0.03143107
0.03155478
0.03192259
0.03197548
0.03214670
0.03225941
0.03234682
0.03258930
0.03291612
0.03291621
0.03354585
0.03317988
0.03377135
0.03434849
0.03468453
0.03536455
0.03485169
0.03479875
0.03444748
0.03361502
0.03254609
0.03143258
0.03032124
0.02967234
0.02925601
0.02895005
0.03011335
0.02996628
0.02979252
0.02948343
0.02923713
0.02844573
0.02691271
0.02261577
0.01737163
0.01580590
0.01643053
0.01717953
0.01784422
0.01808783
0.01805449
0.01808926
0.01783095
0.01780576
0.01763959
0.01758131
0.01746918
0.01723672
0.01681470
0.01658760
0.01642106
0.01632777
0.01602291
0.01575004
0.01552094
0.01535816
0.01518309
0.01514666
0.01516211
0.01514782
0.01527031
0.01554562
0.01582188
0.01622549
0.01663120
0.01724751
0.01791887
0.01841678
0.01899278
0.01970180
0.02064188
0.02152851
0.02229021
0.02302870
0.02383210
0.02453389
0.02507082
0.02544649
0.02584800
0.02618523
0.02638746
0.02652789
0.02667044
0.02677028
0.02671171
0.02663588
0.02643669
0.02620993
0.02601602
0.02594118
0.02579506
0.02571220
0.02574764
0.02574961
0.02558317
0.02538383
0.02519336
0.02499044
0.02484180
0.02465855
0.02454996
0.02460575
0.02477311
0.02506333
0.02536963
0.02571715
0.02624141
0.02676558
0.02728801
0.02781175
0.02815421
0.02861552
0.02928703
0.02989477
0.03043678
0.03097226
0.03135041
0.03194175
0.03218602
0.03263588
0.03301440
0.03316861
0.03362474
0.03370087
0.03396596
0.03407425
0.03426897
0.03441706
0.03464763
0.03489378
0.03538674
0.03522602
0.03596643
0.03564349
0.03663631
0.03673190
0.03664969
0.03641188
0.03605000
0.03499063
0.03379469
0.03254953
0.03146136
0.03079245
0.03047041
0.03026988
0.03102949
0.03091300
0.03078306
0.03056942
0.03036350
0.02998296
0.02936530
0.02647123
0.02108881
0.01829866
0.01829452
0.01873801
0.01926663
0.01938089
0.01925470
0.01922427
0.01893004
0.01885117
0.01863102
0.01850008
0.01836857
0.01811567
0.01770453
0.01748852
0.01730935
0.01717926
0.01685611
0.01652333
0.01626399
0.01605889
0.01585634
0.01578389
0.01582305
0.01582408
0.01593336
0.01622672
0.01651787
0.01692790
0.01737260
0.01803113
0.01870819
0.01922694
0.01983954
0.02054315
0.02150236
0.02244259
0.02323621
0.02400052
0.02481170
0.02552090
0.02606081
0.02645016
0.02685474
0.02716083
0.02736295
0.02748103
0.02766226
0.02778144
0.02772125
0.02765131
0.02744506
0.02726969
0.02708038
0.02700898
0.02683845
0.02676931
0.02681721
0.02681110
0.02662959
0.02638919
0.02621133
0.02599631
0.02584645
0.02571577
0.02564530
0.02568485
0.02582076
0.02609056
0.02638603
0.02673583
0.02726640
0.02774948
0.02825577
0.02878341
0.02913812
0.02960367
0.03030615
0.03095487
0.03149493
0.03203119
0.03246052
0.03304314
0.03337949
0.03380759
0.03422912
0.03442046
0.03486019
0.03499383
0.03532103
0.03544853
0.03574035
0.03588547
0.03614400
0.03627423
0.03672103
0.03723121
0.03738458
0.03751644
0.03772745
0.03784624
0.03786891
0.03762198
0.03705043
0.03606746
0.03477076
0.03343298
0.03230860
0.03156963
0.03124964
0.03113370
0.03154659
0.03145804
0.03136215
0.03125036
0.03126225
0.03109021
0.03107759
0.02961657
0.02498129
0.02118310
0.02042735
0.02050995
0.02081076
0.02074298
0.02050786
0.02038940
0.02004710
0.01986153
0.01960847
0.01942017
0.01923904
0.01897449
0.01856092
0.01832798
0.01815118
0.01798794
0.01763081
0.01724641
0.01694512
0.01670864
0.01649092
0.01638653
0.01643655
0.01645510
0.01657424
0.01688339
0.01718487
0.01758916
0.01808365
0.01877264
0.01944568
0.02000938
0.02066000
0.02135106
0.02230993
0.02330902
0.02411792
0.02490560
0.02570746
0.02641069
0.02695969
0.02736031
0.02774893
0.02800176
0.02822589
0.02833259
0.02855617
0.02867024
0.02858646
0.02852944
0.02833960
0.02821899
0.02802754
0.02794635
0.02775690
0.02769163
0.02774404
0.02772797
0.02752704
0.02726784
0.02709225
0.02686698
0.02670425
0.02662824
0.02659621
0.02662614
0.02672956
0.02697535
0.02726521
0.02761550
0.02811876
0.02855715
0.02903862
0.02957432
0.02993019
0.03041415
0.03115665
0.03181602
0.03233910
0.03286019
0.03331358
0.03389892
0.03430552
0.03476511
0.03517902
0.03545261
0.03585660
0.03605509
0.03635837
0.03650465
0.03678294
0.03699049
0.03730213
0.03756438
0.03790690
0.03842830
0.03861179
0.03911822
0.03867564
0.03873273
0.03886695
0.03836258
0.03786376
0.03689883
0.03562444
0.03424451
0.03297864
0.03211236
0.03174014
0.03161955
0.03183042
0.03175723
0.03167244
0.03163131
0.03174283
0.03177010
0.03218007
0.03200591
0.02876708
0.02447015
0.02284254
0.02249525
0.02246983
0.02222737
0.02185309
0.02160396
0.02121049
0.02092632
0.02061850
0.02034589
0.02011195
0.01984584
0.01941365
0.01915630
0.01897406
0.01877044
0.01837851
0.01795090
0.01760963
0.01733467
0.01711368
0.01697478
0.01703609
0.01706888
0.01721129
0.01753619
0.01784680
0.01823908
0.01877037
0.01948251
0.02015442
0.02077158
0.02146303
0.02215092
0.02309543
0.02415730
0.02497108
0.02577254
0.02655294
0.02724059
0.02780277
0.02820579
0.02854431
0.02873857
0.02899510
0.02911231
0.02938497
0.02947390
0.02935801
0.02931071
0.02916152
0.02907283
0.02887938
0.02879537
0.02858395
0.02851220
0.02856564
0.02853785
0.02831108
0.02805910
0.02787815
0.02764602
0.02746233
0.02744212
0.02743357
0.02746320
0.02754479
0.02776032
0.02804139
0.02837669
0.02882190
0.02921978
0.02967766
0.03023758
0.03058605
0.03109885
0.03187173
0.03251090
0.03301739
0.03352424
0.03400267
0.03459366
0.03504307
0.03553092
0.03594902
0.03625213
0.03664928
0.03692361
0.03717753
0.03739264
0.03765975
0.03782465
0.03819895
0.03848873
0.03877129
0.03894997
0.03929371
0.03992689
0.03944144
0.03956820
0.03957744
0.03902549
0.03849687
0.03753676
0.03623387
0.03482214
0.03354184
0.03255710
0.03206681
0.03190880
0.03198531
0.03190429
0.03182860
0.03182118
0.03197755
0.03219004
0.03284256
0.03361569
0.03206637
0.02800116
0.02553386
0.02469959
0.02432437
0.02386020
0.02335731
0.02292277
0.02245295
0.02205384
0.02167434
0.02133975
0.02102723
0.02073792
0.02029823
0.01999558
0.01979574
0.01956011
0.01912707
0.01866245
0.01828220
0.01796823
0.01774127
0.01757693
0.01764251
0.01769382
0.01785391
0.01819343
0.01850470
0.01889552
0.01944377
0.02018118
0.02085059
0.02152050
0.02225121
0.02295312
0.02388347
0.02499520
0.02581372
0.02661945
0.02737106
0.02803807
0.02861265
0.02899594
0.02926147
0.02941817
0.02969637
0.02984908
0.03016697
0.03022112
0.03009009
0.03004316
0.02993667
0.02983118
0.02965590
0.02957205
0.02934003
0.02926135
0.02931739
0.02927115
0.02901756
0.02877753
0.02859480
0.02837321
0.02815886
0.02818572
0.02818044
0.02820947
0.02828254
0.02848346
0.02874211
0.02903907
0.02940385
0.02975875
0.03020930
0.03080512
0.03114308
0.03168831
0.03246403
0.03307470
0.03357299
0.03406408
0.03456007
0.03516346
0.03565034
0.03612519
0.03656167
0.03689046
0.03725238
0.03754512
0.03784695
0.03805241
0.03832836
0.03860597
0.03890963
0.03908854
0.03944557
0.03964906
0.03977994
0.04010936
0.04001433
0.04031450
0.04003719
0.03954044
0.03901026
0.03804003
0.03675618
0.03534324
0.03404646
0.03297242
0.03234717
0.03209546
0.03206241
0.03194425
0.03185925
0.03186132
0.03206201
0.03239092
0.03318548
0.03455703
0.03464904
0.03158438
0.02852057
0.02716037
0.02639830
0.02568587
0.02497984
0.02436612
0.02378165
0.02328268
0.02279686
0.02238826
0.02200934
0.02169200
0.02123038
0.02086355
0.02062851
0.02036989
0.01990246
0.01940038
0.01898020
0.01861851
0.01838461
0.01822168
0.01828242
0.01835045
0.01851901
0.01886299
0.01916121
0.01956382
0.02011964
0.02088274
0.02155057
0.02227021
0.02303658
0.02376235
0.02468150
0.02580740
0.02665316
0.02745255
0.02817594
0.02881482
0.02938911
0.02973944
0.02993421
0.03008253
0.03036077
0.03056464
0.03090978
0.03093658
0.03080659
0.03075993
0.03067254
0.03052523
0.03038517
0.03029702
0.03003977
0.02997110
0.03002512
0.02994796
0.02968099
0.02944173
0.02926815
0.02906464
0.02881778
0.02886462
0.02885220
0.02886955
0.02894554
0.02915310
0.02938036
0.02961903
0.02990548
0.03020943
0.03066407
0.03129467
0.03164306
0.03220503
0.03295316
0.03353546
0.03401956
0.03449658
0.03501804
0.03562300
0.03611335
0.03658915
0.03702839
0.03739439
0.03775541
0.03803797
0.03835144
0.03861293
0.03889060
0.03915025
0.03942284
0.03962501
0.04006458
0.04035431
0.04046311
0.04037401
0.04082315
0.04073074
0.04044916
0.04006368
0.03939150
0.03844589
0.03721552
0.03584123
0.03449563
0.03335694
0.03260503
0.03223775
0.03211214
0.03193942
0.03182188
0.03180377
0.03200581
0.03238443
0.03327649
0.03499202
0.03644916
0.03493607
0.03171582
0.02985754
0.02867668
0.02768050
0.02678679
0.02596749
0.02522746
0.02460780
0.02399756
0.02352040
0.02307917
0.02271595
0.02221945
0.02178973
0.02149096
0.02120483
0.02072028
0.02017691
0.01971585
0.01930918
0.01905932
0.01891194
0.01897251
0.01904935
0.01921877
0.01955364
0.01983142
0.02025286
0.02080796
0.02159659
0.02226967
0.02303441
0.02382618
0.02458909
0.02548517
0.02659519
0.02748083
0.02826251
0.02897730
0.02958322
0.03015898
0.03045160
0.03058599
0.03073265
0.03100437
0.03127264
0.03162736
0.03164848
0.03151855
0.03146172
0.03136486
0.03119310
0.03108850
0.03099498
0.03071284
0.03065821
0.03069617
0.03058499
0.03031701
0.03008184
0.02992135
0.02972204
0.02945915
0.02949769
0.02948162
0.02947497
0.02955960
0.02977091
0.02996979
0.03014539
0.03036490
0.03061158
0.03106543
0.03171142
0.03210012
0.03265396
0.03336081
0.03389722
0.03437501
0.03484908
0.03539798
0.03599513
0.03646872
0.03694032
0.03738821
0.03777820
0.03812498
0.03842951
0.03875867
0.03901891
0.03931551
0.03959134
0.03989165
0.04011558
0.04041691
0.04048192
0.04101175
0.04087322
0.04134323
0.04101275
0.04079888
0.04033870
0.03966234
0.03874003
0.03753601
0.03619989
0.03489278
0.03371270
0.03285928
0.03237248
0.03215703
0.03191640
0.03175151
0.03169733
0.03187283
0.03228073
0.03318417
0.03506166
0.03746267
0.03771205
0.03501058
0.03274914
0.03117724
0.02986330
0.02873662
0.02773824
0.02679750
0.02605280
0.02530935
0.02474024
0.02424573
0.02382562
0.02327505
0.02278355
0.02240838
0.02207901
0.02158449
0.02100211
0.02049895
0.02004704
0.01977310
0.01964371
0.01971294
0.01977112
0.01995778
0.02027366
0.02054038
0.02098555
0.02153564
0.02232887
0.02301304
0.02381836
0.02462478
0.02542268
0.02627901
0.02737875
0.02829766
0.02905330
0.02978224
0.03036541
0.03093548
0.03114256
0.03121655
0.03136033
0.03164349
0.03197063
0.03233503
0.03236297
0.03223688
0.03214910
0.03202826
0.03186073
0.03177534
0.03167315
0.03138780
0.03131197
0.03133537
0.03121420
0.03094760
0.03072453
0.03056302
0.03035395
0.03010117
0.03009360
0.03008627
0.03005273
0.03014322
0.03034542
0.03051375
0.03063998
0.03079463
0.03099238
0.03143051
0.03206935
0.03250690
0.03303669
0.03369679
0.03419712
0.03466981
0.03515352
0.03572961
0.03629764
0.03675288
0.03720494
0.03766242
0.03806462
0.03841885
0.03875312
0.03906738
0.03936042
0.03967469
0.03989585
0.04016282
0.04045917
0.04063945
0.04087481
0.04121252
0.04137235
0.04139764
0.04123100
0.04104444
0.04048420
0.03984623
0.03894896
0.03780867
0.03652257
0.03523691
0.03404149
0.03311069
0.03251290
0.03220747
0.03189054
0.03166873
0.03156507
0.03169741
0.03208990
0.03297078
0.03487235
0.03780604
0.03978298
0.03820656
0.03576801
0.03386006
0.03223730
0.03086499
0.02967431
0.02851675
0.02761792
0.02674706
0.02606845
0.02551892
0.02502837
0.02440948
0.02384384
0.02338284
0.02300641
0.02250612
0.02188387
0.02133700
0.02084290
0.02053533
0.02041639
0.02048947
0.02052693
0.02072768
0.02103368
0.02130576
0.02177030
0.02231958
0.02307816
0.02378203
0.02462431
0.02545051
0.02625721
0.02706557
0.02817688
0.02911960
0.02985266
0.03058093
0.03116753
0.03172197
0.03183718
0.03185547
0.03200050
0.03231740
0.03266703
0.03302823
0.03307521
0.03296193
0.03281520
0.03267719
0.03252245
0.03244520
0.03233728
0.03205400
0.03193433
0.03195698
0.03185314
0.03159826
0.03138558
0.03120498
0.03097685
0.03073706
0.03066434
0.03066552
0.03061389
0.03069158
0.03087437
0.03101057
0.03110029
0.03120588
0.03136306
0.03178684
0.03240349
0.03287614
0.03337164
0.03398188
0.03445580
0.03493221
0.03543343
0.03602420
0.03653836
0.03697251
0.03739771
0.03785743
0.03828604
0.03866151
0.03899841
0.03932545
0.03961358
0.03990439
0.04014503
0.04040647
0.04064716
0.04093314
0.04129255
0.04135175
0.04172509
0.04145236
0.04140435
0.04109050
0.04059626
0.03995538
0.03909824
0.03800253
0.03677834
0.03551824
0.03432775
0.03334770
0.03265784
0.03226774
0.03187730
0.03159100
0.03143275
0.03150493
0.03185108
0.03267243
0.03451658
0.03768092
0.04102335
0.04103327
0.03884811
0.03668144
0.03478224
0.03316292
0.03177536
0.03037872
0.02932100
0.02831662
0.02752777
0.02690793
0.02631904
0.02562679
0.02498331
0.02443185
0.02400168
0.02349780
0.02282952
0.02223540
0.02170519
0.02137205
0.02124209
0.02130260
0.02133932
0.02152732
0.02183164
0.02215078
0.02260514
0.02314750
0.02384195
0.02459210
0.02547265
0.02630228
0.02709748
0.02786760
0.02899688
0.02996343
0.03067601
0.03136855
0.03199272
0.03251809
0.03256742
0.03257407
0.03269409
0.03303297
0.03339597
0.03371288
0.03380525
0.03369312
0.03346693
0.03333063
0.03317389
0.03310681
0.03299112
0.03269106
0.03254742
0.03257451
0.03249536
0.03228212
0.03206436
0.03185269
0.03160173
0.03136782
0.03123836
0.03124168
0.03115315
0.03119861
0.03136055
0.03147674
0.03152062
0.03160131
0.03173897
0.03216268
0.03274381
0.03322226
0.03368639
0.03424641
0.03469630
0.03517147
0.03571032
0.03628331
0.03672266
0.03713785
0.03754835
0.03799702
0.03846054
0.03884100
0.03918821
0.03952142
0.03979017
0.04005215
0.04032953
0.04059479
0.04080775
0.04105084
0.04127119
0.04157131
0.04163596
0.04152525
0.04138744
0.04109893
0.04061784
0.04000074
0.03916452
0.03812755
0.03695360
0.03574167
0.03456722
0.03356038
0.03280127
0.03233814
0.03188280
0.03153027
0.03131445
0.03131651
0.03160567
0.03233663
0.03404859
0.03723213
0.04145026
0.04327804
0.04185167
0.03959581
0.03747214
0.03564611
0.03403045
0.03242182
0.03115283
0.03002687
0.02912070
0.02841306
0.02771065
0.02693986
0.02620283
0.02557387
0.02507606
0.02456110
0.02384565
0.02320748
0.02264659
0.02230476
0.02214574
0.02217165
0.02222745
0.02237541
0.02267572
0.02307477
0.02349654
0.02401694
0.02464768
0.02545444
0.02635963
0.02718355
0.02796251
0.02872334
0.02984593
0.03082784
0.03152239
0.03216898
0.03283988
0.03332618
0.03335232
0.03338551
0.03346389
0.03378939
0.03417225
0.03442620
0.03457367
0.03445912
0.03416537
0.03401849
0.03383995
0.03374922
0.03362053
0.03331604
0.03317152
0.03319637
0.03313432
0.03299311
0.03276208
0.03251175
0.03224200
0.03200562
0.03184210
0.03181913
0.03167647
0.03168964
0.03182652
0.03192530
0.03192625
0.03199838
0.03213843
0.03255985
0.03309247
0.03356105
0.03399971
0.03451233
0.03492415
0.03539840
0.03597684
0.03650276
0.03687484
0.03727921
0.03767327
0.03811440
0.03858851
0.03896953
0.03931832
0.03963779
0.03990388
0.04017340
0.04042892
0.04067814
0.04093609
0.04115295
0.04128277
0.04154420
0.04144383
0.04152867
0.04129407
0.04106834
0.04060443
0.04000042
0.03919554
0.03820072
0.03708770
0.03590622
0.03476148
0.03374587
0.03293813
0.03241356
0.03190557
0.03149501
0.03121891
0.03114613
0.03135848
0.03198825
0.03351587
0.03657984
0.04122397
0.04474107
0.04461715
0.04254508
0.04027405
0.03828951
0.03644387
0.03465523
0.03313723
0.03187120
0.03086287
0.03002859
0.02920971
0.02837188
0.02753017
0.02681345
0.02623777
0.02569654
0.02493728
0.02425327
0.02368026
0.02332561
0.02313840
0.02312134
0.02319659
0.02331031
0.02357853
0.02404986
0.02445643
0.02494026
0.02553785
0.02636547
0.02730341
0.02811288
0.02887973
0.02966645
0.03074696
0.03171100
0.03242478
0.03301265
0.03373023
0.03418607
0.03420232
0.03427401
0.03432548
0.03460434
0.03497540
0.03520221
0.03537407
0.03528696
0.03493969
0.03475290
0.03450944
0.03435966
0.03423686
0.03396436
0.03382788
0.03382872
0.03377597
0.03370007
0.03348585
0.03317047
0.03288761
0.03264819
0.03246838
0.03239310
0.03220939
0.03218803
0.03228211
0.03235665
0.03233028
0.03241427
0.03257157
0.03296143
0.03347098
0.03390910
0.03432423
0.03477934
0.03515293
0.03562873
0.03621835
0.03668054
0.03702246
0.03740297
0.03779402
0.03823178
0.03868618
0.03904845
0.03939442
0.03970674
0.03998367
0.04024208
0.04047318
0.04072535
0.04095417
0.04118473
0.04142618
0.04149094
0.04145255
0.04145500
0.04125930
0.04100603
0.04054159
0.03994580
0.03916097
0.03821724
0.03715267
0.03602612
0.03491084
0.03389754
0.03306201
0.03248732
0.03193896
0.03148484
0.03115154
0.03100767
0.03113175
0.03164938
0.03296698
0.03580326
0.04052050
0.04537272
0.04689104
0.04542257
0.04314180
0.04106758
0.03902059
0.03705264
0.03527668
0.03384867
0.03274349
0.03176948
0.03084293
0.02992293
0.02897640
0.02816395
0.02750170
0.02693342
0.02610235
0.02537596
0.02480260
0.02441533
0.02421147
0.02415377
0.02424356
0.02434418
0.02456513
0.02507240
0.02549451
0.02591847
0.02652103
0.02732408
0.02831316
0.02909618
0.02987454
0.03068357
0.03170337
0.03262347
0.03337599
0.03393853
0.03465954
0.03510842
0.03513357
0.03523417
0.03525702
0.03549316
0.03582282
0.03605957
0.03620761
0.03614858
0.03577960
0.03552424
0.03519478
0.03494910
0.03484119
0.03464573
0.03449696
0.03446508
0.03442414
0.03439619
0.03420518
0.03383729
0.03354014
0.03329569
0.03310751
0.03298767
0.03277525
0.03269833
0.03273678
0.03280329
0.03273379
0.03285617
0.03303229
0.03339643
0.03386911
0.03427453
0.03467465
0.03505273
0.03539764
0.03587411
0.03643025
0.03683336
0.03718020
0.03753662
0.03792697
0.03834540
0.03875762
0.03910776
0.03943735
0.03974333
0.04001501
0.04025697
0.04048950
0.04074147
0.04094255
0.04114321
0.04133830
0.04141446
0.04146747
0.04135073
0.04121303
0.04089666
0.04044547
0.03985365
0.03909737
0.03819399
0.03718666
0.03610311
0.03501956
0.03402002
0.03316961
0.03255279
0.03197407
0.03148760
0.03110707
0.03089919
0.03093368
0.03133079
0.03243528
0.03495970
0.03952108
0.04521107
0.04846321
0.04805868
0.04599532
0.04390164
0.04174880
0.03959193
0.03760104
0.03595763
0.03474605
0.03364462
0.03261250
0.03158790
0.03053370
0.02964180
0.02889955
0.02825685
0.02735914
0.02659880
0.02601059
0.02558641
0.02536522
0.02526927
0.02536512
0.02547741
0.02567095
0.02615779
0.02661281
0.02696574
0.02757435
0.02836281
0.02936839
0.03013131
0.03091959
0.03176885
0.03271084
0.03358485
0.03436892
0.03492980
0.03564725
0.03608317
0.03613193
0.03625069
0.03625576
0.03644682
0.03672032
0.03696364
0.03709727
0.03701946
0.03665283
0.03629638
0.03592134
0.03557999
0.03547365
0.03535371
0.03517023
0.03511238
0.03509057
0.03508542
0.03491770
0.03451593
0.03419744
0.03394130
0.03375351
0.03362405
0.03338475
0.03323378
0.03323310
0.03327013
0.03316270
0.03330936
0.03350946
0.03385662
0.03427781
0.03466436
0.03505095
0.03534185
0.03565922
0.03613587
0.03661714
0.03698666
0.03735156
0.03770059
0.03808322
0.03845151
0.03881283
0.03915208
0.03946437
0.03975293
0.04001682
0.04024758
0.04047773
0.04070028
0.04089614
0.04110911
0.04121315
0.04130014
0.04132776
0.04122302
0.04104109
0.04075055
0.04030297
0.03971759
0.03898984
0.03813510
0.03717146
0.03614320
0.03509417
0.03411413
0.03325912
0.03260461
0.03200325
0.03149116
0.03107342
0.03081605
0.03077048
0.03104340
0.03194317
0.03411176
0.03836114
0.04438009
0.04922311
0.05026739
0.04871936
0.04670943
0.04455810
0.04226327
0.04012413
0.03824211
0.03687184
0.03564621
0.03449728
0.03337909