/*--------------------------------*- C++ -*----------------------------------*\
  =========                 |
  \\      /  F ield         | OpenFOAM: The Open Source CFD Toolbox
   \\    /   O peration     | Website:  https://openfoam.org
    \\  /    A nd           | Version:  7
     \\/     M anipulation  |
\*---------------------------------------------------------------------------*/
FoamFile
{
    version     2.0;
    format      ascii;
    class       volVectorField;
    location    "20000";
    object      C;
}
// * * * * * * * * * * * * * * * * * * * * * * * * * * * * * * * * * * * * * //

dimensions      [0 1 0 0 0 0 0];

internalField   nonuniform List<vector> 
15600
(
(0.0400330677499857 1.00195548402226 4.5081459984988e-18)
(0.120088910350581 1.00097048511695 2.34983910559452e-18)
(0.199841057814651 0.994974480673114 -2.35713811931165e-18)
(0.27807520774011 0.979070260531427 -2.49389676002149e-18)
(0.352737713971927 0.950972127584057 7.27521337652649e-18)
(0.422713421969036 0.912370571264765 2.55783813983031e-18)
(0.488708739938703 0.867146412944739 0)
(0.551975946147586 0.818141636643536 9.4182099318929e-20)
(0.613603525847379 0.767094069680985 7.06148997599406e-18)
(0.674524119228014 0.715209749353515 -9.18448085274757e-18)
(0.735553691035922 0.663468185710187 0)
(0.797147374415033 0.612402046890405 0)
(0.859329093300831 0.562047320324197 -9.46541944914006e-20)
(0.921993135819304 0.512285932453951 0)
(0.985026835266704 0.462987211321425 0)
(1.04831329269001 0.414010077726055 0)
(1.1117929778766 0.365280250291514 -6.64182539065293e-18)
(1.17562025648664 0.317009646546053 0)
(1.24014242130878 0.269680035766205 0)
(1.30575170806505 0.22388095556973 -2.88820645550185e-18)
(1.37286318829936 0.18032828766564 0)
(1.44189365634544 0.139915877377529 9.54668837255827e-20)
(1.51311760799763 0.103540860326049 0)
(1.5865675861913 0.0719170595165675 4.83936162922145e-18)
(1.66210118593887 0.0456849515621789 0)
(1.7394557265756 0.0254845213240992 0)
(1.81823355087555 0.0119002195667562 -2.05892490560455e-16)
(1.89790001673839 0.00537028199124523 -2.13444049752487e-16)
(1.97791672875777 0.00391049005465935 -2.44682170280384e-18)
(2.05798286725087 0.00391096804452692 4.60451952510314e-18)
(2.13804900275084 0.00391096804452681 -2.25407299924783e-18)
(2.21811513825081 0.00391096804452675 -2.46909330876649e-16)
(2.29818127375078 0.00391096804452689 -2.40045155557879e-16)
(2.37824740925075 0.00391096804452681 0)
(2.45831354475072 0.00391096804452679 0)
(2.53837968025069 0.00391096804452676 0)
(2.61844581575067 0.00391096804452681 0)
(2.69851195125064 0.00391096804452679 0)
(2.77857808675061 0.00391096804452684 2.28683999829446e-16)
(2.85864422225058 0.00391096804452703 2.35102185344631e-16)
(2.93871035775055 0.0039109680445269 9.63735266077505e-20)
(3.01877649325052 0.00391096804452687 9.63735266077509e-20)
(3.0988426287505 0.00391096804452698 -2.3504465258554e-18)
(3.17890876425047 0.00391096804452689 0)
(3.25897489975044 0.00391096804452684 -9.63735266077526e-20)
(3.33904103525041 0.00391096804452681 0)
(3.41910717075038 0.00391096804452684 -2.37796665353036e-16)
(3.49917330625035 0.00391096804452681 -2.49284778509549e-16)
(3.57923944175032 0.00391096804452679 0)
(3.6593055772503 0.00391096804452678 0)
(3.73937171275027 0.00391096804452676 -2.44682005246334e-18)
(3.81943784825024 0.00391096804452692 -2.44682005246318e-18)
(3.89950398375022 0.00391096804452678 -2.31034446355304e-16)
(3.97957011925019 0.00391096804452684 -2.33118603231359e-16)
(4.05963625475016 0.00391096804452703 -2.25407299924767e-18)
(4.13970239025013 0.00391096804452695 0)
(4.2197685257501 0.00391096804452678 0)
(4.29983466125008 0.00391096804452682 -4.70089305171101e-18)
(4.37990079675005 0.00391096804452686 4.70089305171149e-18)
(4.45996693225001 0.00391096804452673 4.60451952510351e-18)
(4.54003306774999 0.00391096804452678 0)
(4.62009920324996 0.00391096804452675 -4.70089305171125e-18)
(4.70016533874993 0.00391096804452673 4.6045195251035e-18)
(4.7802314742499 0.00391096804452678 0)
(4.86029760974987 0.00391096804452706 0)
(4.94036374524984 0.0039109680445269 -2.35044652585553e-18)
(5.02042988074981 0.00391096804452686 -4.70089305171112e-18)
(5.10049601624979 0.00391096804452695 -6.95496605095848e-18)
(5.18056215174976 0.00391096804452689 0)
(5.26062828724973 0.00391096804452679 -2.25407299924785e-18)
(5.3406944227497 0.00391096804452672 0)
(5.42076055824967 0.00391096804452695 4.70089305171121e-18)
(5.50082669374964 0.00391096804452679 2.30841699302088e-16)
(5.58089282924961 0.00391096804452678 4.69109835393216e-16)
(5.66095896474959 0.00391096804452681 2.28581268833002e-16)
(5.74102510024956 0.00391096804452679 0)
(5.82109123574953 0.00391096804452689 0)
(5.9011573712495 0.00391096804452698 -2.3504465258554e-18)
(5.98122350674947 0.00391096804452694 0)
(6.06128964224944 0.00391096804452682 2.28587626302838e-16)
(6.14135577774941 0.00391096804452683 2.30602156960761e-16)
(6.22142191324939 0.00391096804452692 -2.35044652585543e-18)
(6.30148804874936 0.00391096804452673 0)
(6.38155418424933 0.00391096804452673 0)
(6.4616203197493 0.00391096804452687 0)
(6.54168645524927 0.00391096804452689 -4.70089305171143e-18)
(6.62175259074924 0.0039109680445268 0)
(6.70181872624921 0.00391096804452679 -2.35044652585561e-18)
(6.78188486174919 0.00391096804452691 2.25407299924768e-18)
(6.86195099724916 0.00391096804452684 -9.63735266077534e-20)
(6.94201713274913 0.00391096804452684 0)
(7.02208327124223 0.0039104900546594 0)
(7.10209998326161 0.0053702819912452 0)
(7.18176644912445 0.0119002195667559 -4.61212781425162e-18)
(7.26054427342439 0.0254845213240978 9.67211483891016e-20)
(7.33789881406113 0.0456849515621776 -2.44082440501655e-18)
(7.41343241380869 0.0719170595165651 5.03336359399741e-18)
(7.48688239200237 0.103540860326049 -2.61262547849077e-18)
(7.55810634365456 0.139915877377529 0)
(7.62713681170063 0.180328287665635 -2.95191653941326e-18)
(7.69424829193494 0.223880955569727 5.67888520643317e-18)
(7.7598575786912 0.269680035766199 -6.1362394650752e-18)
(7.82437974351335 0.317009646546051 0)
(7.88820702212339 0.365280250291513 -9.77896393924869e-20)
(7.95168670731 0.414010077726059 -9.78494518316592e-20)
(8.0149731647333 0.462987211321427 -5.38694550278559e-18)
(8.07800686418069 0.512285932453946 5.5117367177041e-18)
(8.14067090669917 0.562047320324195 0)
(8.20285262558496 0.6124020468904 -9.81936340774788e-20)
(8.26444630896408 0.663468185710186 4.25886807464724e-18)
(8.32547588077199 0.715209749353517 -9.84548299245892e-20)
(8.38639647415263 0.767094069680987 0)
(8.44802405385241 0.818141636643534 -4.86516439941206e-18)
(8.5112912600613 0.867146412944739 -9.89453552502388e-18)
(8.57728657803096 0.912370571264761 -9.82466089187315e-20)
(8.64726228602807 0.950972127584056 -2.29560017283774e-18)
(8.72192479225989 0.979070260531428 -4.80040658971315e-18)
(8.80015894218534 0.994974480673114 0)
(8.87991108964941 1.00097048511695 0)
(8.95996693225002 1.00195548402226 -2.35044652585721e-18)
(0.0400229593780247 1.00593824571553 2.27135143091558e-18)
(0.120058675475621 1.00495717750839 -2.36712982879727e-18)
(0.199792058379726 0.998985099803836 0)
(0.278013584990794 0.983144348394093 2.00923733304417e-15)
(0.352677722867664 0.955158370802623 1.9690274401881e-15)
(0.422673644310771 0.91671091851924 4.94125611541821e-18)
(0.488704964840588 0.871667293882233 -9.91977368781877e-18)
(0.552019007638965 0.822858117491676 0)
(0.613699937237052 0.772014275256775 -9.26560036311822e-18)
(0.674676681091508 0.720336993102163 -4.33549931421553e-18)
(0.735761953628419 0.668801879878578 6.15800661756427e-18)
(0.79740908680393 0.6179394974796 -2.13664866134372e-18)
(0.859641914523436 0.567785694813085 5.74925773497706e-18)
(0.922355146448641 0.518222868041786 1.96244672142037e-18)
(0.985436565063076 0.469120865667619 -7.18171842343885e-18)
(1.04876973758801 0.420339170659498 0)
(1.11229536861612 0.371803795840093 -5.11710269776987e-18)
(1.17616720107728 0.323725808765121 -6.26316889809839e-18)
(1.24073114066763 0.276585056412849 -1.91473909733685e-19)
(1.30637785720211 0.230968725067159 2.78538692727704e-18)
(1.37352076446774 0.187589841059219 0)
(1.44257499168635 0.147338684564456 1.91838485179247e-19)
(1.51381394258944 0.111108813553723 -3.83963364502262e-19)
(1.58727003271302 0.0796112028343793 5.05312959546267e-18)
(1.66280142471217 0.0534837724039662 9.43072683084874e-18)
(1.7401464860762 0.033363952198437 -7.01125800799358e-18)
(1.81890914683027 0.0198338598276188 2.04773713133397e-16)
(1.89855690018897 0.0133299814254529 2.04627670973641e-16)
(1.97855355619133 0.0118760153488304 -1.92758084558426e-19)
(2.05859947794049 0.0118764914310673 -1.9275806549343e-19)
(2.13864539669654 0.0118764914310673 0)
(2.21869131545259 0.0118764914310673 2.30575364107357e-16)
(2.29873723420864 0.0118764914310672 2.30131042567755e-16)
(2.37878315296469 0.0118764914310673 0)
(2.45882907172074 0.0118764914310673 -2.17496689204448e-18)
(2.53887499047678 0.0118764914310672 0)
(2.61892090923283 0.0118764914310672 0)
(2.69896682798888 0.0118764914310675 -4.54269184958223e-18)
(2.77901274674493 0.0118764914310675 -2.28207639149816e-16)
(2.85905866550098 0.0118764914310673 -2.30637249904385e-16)
(2.93910458425703 0.0118764914310674 0)
(3.01915050301308 0.0118764914310674 0)
(3.09919642176913 0.0118764914310673 2.17496689204441e-18)
(3.17924234052518 0.0118764914310674 -4.54269184958258e-18)
(3.25928825928123 0.0118764914310673 0)
(3.33933417803728 0.0118764914310674 0)
(3.41938009679333 0.0118764914310673 2.32750330999385e-16)
(3.49942601554938 0.0118764914310673 2.30646634613915e-16)
(3.57947193430543 0.0118764914310672 -1.92758065493431e-19)
(3.65951785306147 0.0118764914310672 0)
(3.73956377181753 0.0118764914310673 0)
(3.81960969057358 0.0118764914310674 -1.92758065493422e-19)
(3.89965560932963 0.0118764914310675 2.285931552808e-16)
(3.97970152808568 0.0118764914310674 2.23805777223744e-16)
(4.05974744684173 0.0118764914310673 -4.7354499150757e-18)
(4.13979336559778 0.0118764914310673 0)
(4.21983928435383 0.0118764914310673 0)
(4.29988520310988 0.0118764914310672 0)
(4.37993112186593 0.0118764914310673 -2.56048302303135e-18)
(4.45997704062198 0.0118764914310673 0)
(4.54002295937803 0.0118764914310671 0)
(4.62006887813408 0.0118764914310673 -1.92758065493425e-19)
(4.70011479689013 0.0118764914310673 4.54269184958232e-18)
(4.78016071564617 0.0118764914310673 0)
(4.86020663440222 0.0118764914310673 0)
(4.94025255315828 0.0118764914310674 2.36772495753796e-18)
(5.02029847191432 0.0118764914310674 -2.56048302303149e-18)
(5.10034439067037 0.0118764914310675 0)
(5.18039030942642 0.0118764914310675 0)
(5.26043622818247 0.0118764914310673 1.92758065493421e-19)
(5.34048214693852 0.0118764914310673 2.36772495753789e-18)
(5.42052806569457 0.0118764914310672 0)
(5.50057398445062 0.0118764914310673 -2.25839914192283e-16)
(5.58061990320667 0.0118764914310673 -4.60689085652568e-16)
(5.66066582196272 0.0118764914310672 -2.25951105073713e-16)
(5.74071174071877 0.0118764914310673 2.3677249575379e-18)
(5.82075765947482 0.0118764914310674 0)
(5.90080357823087 0.0118764914310673 -4.73544991507566e-18)
(5.98084949698692 0.0118764914310674 0)
(6.06089541574297 0.0118764914310673 -2.2564715612679e-16)
(6.14094133449901 0.0118764914310674 -2.30452734782097e-16)
(6.22098725325506 0.0118764914310674 6.71765874162639e-18)
(6.30103317201111 0.0118764914310674 4.73544991507557e-18)
(6.38107909076716 0.0118764914310673 1.92758065493429e-19)
(6.46112500952321 0.0118764914310672 0)
(6.54117092827926 0.0118764914310673 2.1749668920445e-18)
(6.62121684703531 0.0118764914310673 -4.73544991507586e-18)
(6.70126276579136 0.0118764914310673 1.92758065493425e-19)
(6.78130868454741 0.0118764914310673 1.92758065493434e-19)
(6.86135460330346 0.0118764914310674 0)
(6.94140052205951 0.0118764914310674 4.73544991507591e-18)
(7.02144644380867 0.0118760153488303 0)
(7.10144309981103 0.0133299814254529 -4.73007557190023e-18)
(7.18109085316973 0.0198338598276184 0)
(7.2598535139238 0.0333639521984367 -4.80383648313772e-18)
(7.33719857528783 0.0534837724039642 2.26154859130282e-18)
(7.41272996728698 0.0796112028343777 -7.39008285805493e-18)
(7.48618605741056 0.111108813553722 2.62017412085725e-18)
(7.55742500831364 0.147338684564452 2.53656607678242e-18)
(7.62647923553226 0.187589841059218 3.0467479020716e-18)
(7.69362214279788 0.230968725067149 0)
(7.75926885933237 0.27658505641285 0)
(7.82383279892272 0.323725808765123 4.55383898534632e-18)
(7.88770463138388 0.371803795840088 3.35046900167958e-18)
(7.951230262412 0.420339170659497 -3.88408882635125e-19)
(8.01456343493692 0.469120865667615 -1.94268101403961e-19)
(8.07764485355136 0.518222868041788 9.24541332504295e-18)
(8.14035808547656 0.567785694813081 -3.89993546879675e-18)
(8.20259091319608 0.617939497479601 0)
(8.26423804637159 0.66880187987858 0)
(8.32532331890849 0.720336993102164 -4.72509480035349e-18)
(8.38630006276294 0.772014275256771 4.53752977196672e-18)
(8.44798099236103 0.822858117491671 4.8844486176232e-18)
(8.51129503515942 0.871667293882236 4.76926821458085e-18)
(8.57732635568923 0.916710918519239 1.94604343456433e-19)
(8.64732227713233 0.955158370802623 5.19949014973797e-18)
(8.7219864150092 0.983144348394092 1.93643758445745e-19)
(8.80020794162027 0.998985099803836 1.93160075777776e-19)
(8.87994132452438 1.00495717750839 0)
(8.95997704062197 1.00593824571553 2.36772495753569e-18)
(0.0400124807073868 1.01006690740058 -2.19504149436054e-18)
(0.120027333010406 1.00908991388759 2.48351099784627e-18)
(0.199741263954268 1.00314263947328 -4.40255275913523e-18)
(0.277949704820499 0.98736768197374 -1.95293238479033e-15)
(0.352615534113364 0.959497968384157 -1.89080090543637e-15)
(0.422632409482519 0.921210265171936 2.67187399717475e-18)
(0.488701051450086 0.87635378731647 -1.90619033766631e-19)
(0.552063646590792 0.827747375959727 0)
(0.61379988043951 0.777114721414057 -2.3772504169941e-18)
(0.674834831718157 0.725652061975002 0)
(0.735977845466916 0.674330962303682 -8.29599912198341e-18)
(0.797680386466763 0.623679800734414 2.25749643227359e-18)
(0.859966195291918 0.573734282551424 -3.76333825860885e-18)
(0.922730418581196 0.524377290863511 0)
(0.985861304460233 0.475479213711727 6.93796542334677e-18)
(1.04924290340192 0.426900116837787 1.76925822432708e-18)
(1.11281616340625 0.378566318051706 -1.7129836449837e-18)
(1.17673418186091 0.330688003808881 0)
(1.24134142655532 0.283743028359124 -2.61620801330209e-18)
(1.307026944032 0.238316140501918 0)
(1.37420242959106 0.195117406575702 -1.91700703979991e-19)
(1.44328128634344 0.155033410996243 1.9183843726809e-19)
(1.51453578595326 0.118954003034931 -2.14898966337174e-18)
(1.58799821189248 0.0875872049849502 2.25221318779543e-18)
(1.66352731525553 0.0615682865929004 2.18204727483461e-18)
(1.74086255008451 0.0415320292937384 2.32368692054631e-18)
(1.81960949180314 0.0280581320934671 0)
(1.89923784716457 0.0215812674818529 2.28872313947837e-18)
(1.97921371244154 0.0201333406964431 0)
(2.0592386768494 0.0201338148011609 0)
(2.13926363826418 0.0201338148011611 0)
(2.21928859967895 0.0201338148011611 4.39007157008188e-18)
(2.29931356109373 0.020133814801161 -2.29141502099468e-18)
(2.3793385225085 0.020133814801161 0)
(2.45936348392327 0.020133814801161 0)
(2.53938844533805 0.020133814801161 4.58283004198967e-18)
(2.61941340675282 0.0201338148011611 0)
(2.69943836816759 0.0201338148011612 0)
(2.77946332958237 0.0201338148011611 -2.09865654908762e-18)
(2.85948829099714 0.0201338148011611 6.87424506298384e-18)
(2.93951325241191 0.0201338148011609 0)
(3.01953821382668 0.020133814801161 -2.29141502099459e-18)
(3.09956317524146 0.020133814801161 1.92758471907167e-19)
(3.17958813665623 0.0201338148011609 -2.29141502099469e-18)
(3.25961309807101 0.0201338148011609 2.0986565490874e-18)
(3.33963805948578 0.0201338148011611 -1.92758471907167e-19)
(3.41966302090056 0.020133814801161 0)
(3.49968798231533 0.020133814801161 0)
(3.5797129437301 0.020133814801161 1.92758471907168e-19)
(3.65973790514487 0.020133814801161 0)
(3.73976286655965 0.020133814801161 0)
(3.81978782797442 0.020133814801161 -1.92758471907174e-19)
(3.8998127893892 0.0201338148011612 2.29141502099465e-18)
(3.97983775080398 0.020133814801161 0)
(4.05986271221875 0.020133814801161 0)
(4.13988767363352 0.0201338148011611 0)
(4.21991263504829 0.0201338148011609 1.92758471907173e-19)
(4.29993759646307 0.020133814801161 0)
(4.37996255787784 0.020133814801161 0)
(4.45998751929261 0.0201338148011609 0)
(4.54001248070739 0.020133814801161 0)
(4.62003744212216 0.020133814801161 0)
(4.70006240353694 0.0201338148011609 -1.9275847190717e-19)
(4.78008736495171 0.020133814801161 0)
(4.86011232636648 0.0201338148011609 1.92758471907175e-19)
(4.94013728778126 0.020133814801161 0)
(5.02016224919603 0.0201338148011612 -1.92758471907164e-19)
(5.1001872106108 0.0201338148011611 -2.29141502099475e-18)
(5.18021217202557 0.0201338148011611 0)
(5.26023713344035 0.020133814801161 2.29141502099459e-18)
(5.34026209485512 0.0201338148011609 -4.5828300419894e-18)
(5.4202870562699 0.020133814801161 0)
(5.50031201768467 0.0201338148011609 6.68148659107693e-18)
(5.58033697909944 0.020133814801161 0)
(5.66036194051422 0.020133814801161 0)
(5.74038690192899 0.0201338148011609 -2.29141502099471e-18)
(5.82041186334376 0.020133814801161 0)
(5.90043682475854 0.020133814801161 0)
(5.98046178617331 0.0201338148011609 -6.68148659107695e-18)
(6.06048674758809 0.020133814801161 0)
(6.14051170900286 0.0201338148011612 0)
(6.22053667041763 0.0201338148011611 -4.58283004198957e-18)
(6.3005616318324 0.0201338148011612 2.29141502099465e-18)
(6.38058659324718 0.020133814801161 2.09865654908756e-18)
(6.46061155466195 0.020133814801161 0)
(6.54063651607673 0.020133814801161 0)
(6.6206614774915 0.0201338148011609 1.92758471907176e-19)
(6.70068643890627 0.020133814801161 0)
(6.78071140032105 0.020133814801161 4.39007157008198e-18)
(6.86073636173582 0.0201338148011609 0)
(6.94076132315059 0.020133814801161 1.92758471907167e-19)
(7.02078628755846 0.0201333406964431 -2.09865803459728e-18)
(7.10076215283543 0.0215812674818529 -2.09602300373188e-18)
(7.18039050819686 0.0280581320934669 2.29510451842062e-18)
(7.25913744991548 0.0415320292937372 1.93105659489015e-19)
(7.33647268474447 0.0615682865928998 0)
(7.41200178810751 0.0875872049849487 4.89118720411278e-18)
(7.48546421404673 0.118954003034927 0)
(7.55671871365656 0.15503341099624 0)
(7.62579757040893 0.195117406575699 0)
(7.692973055968 0.238316140501918 1.9389029831706e-19)
(7.75865857344467 0.283743028359122 1.939887136107e-19)
(7.82326581813908 0.330688003808875 -1.65775417605202e-18)
(7.88718383659375 0.378566318051709 1.71581911989319e-18)
(7.95075709659808 0.426900116837782 0)
(8.01413869553978 0.475479213711734 1.44463416300246e-18)
(8.07726958141879 0.524377290863505 3.41554842087911e-18)
(8.14003380470808 0.573734282551426 -1.94432882784551e-19)
(8.20231961353324 0.623679800734411 -3.75141429783519e-18)
(8.26402215453308 0.674330962303677 4.15190289469246e-18)
(8.32516516828184 0.725652061975004 0)
(8.38620011956049 0.777114721414059 -4.56829580097789e-18)
(8.44793635340921 0.827747375959726 6.97512266563846e-18)
(8.51129894854992 0.87635378731647 9.58475643181799e-18)
(8.57736759051748 0.921210265171933 -2.48477715168196e-18)
(8.64738446588664 0.959497968384157 6.67933246857336e-18)
(8.7220502951795 0.987367681973739 -2.33706050546069e-18)
(8.80025873604573 1.00314263947328 2.29826039113228e-18)
(8.8799726669896 1.00908991388759 -2.29099023346902e-18)
(8.95998751929262 1.01006690740058 0)
(0.0400016181729913 1.01434681380384 -9.63853667860801e-20)
(0.119994842380794 1.01337404425619 4.24178130458423e-18)
(0.199688608782654 1.0074524817971 -2.2235307971564e-18)
(0.277883484533355 0.991745728574128 -2.06785844029434e-18)
(0.352551067202651 0.963996538149154 -4.29469549922167e-18)
(0.422589664104042 0.925874435819462 0)
(0.488696994701174 0.881211960073955 -1.90619452431718e-19)
(0.552109920789481 0.83281574133413 0)
(0.613903484834042 0.782402010824396 -3.83402838949948e-18)
(0.674998775838951 0.731161836496742 -3.81253577500099e-19)
(0.736201646031398 0.680062590587675 -4.00513796370462e-18)
(0.797961624612206 0.629630387715563 -2.18992693763655e-18)
(0.860302355402157 0.579900784250709 -1.91007120012184e-19)
(0.923119438024213 0.530757168105933 1.91101908263843e-19)
(0.986301603303689 0.482070486640244 0)
(1.04973340266804 0.433701409726906 1.5214586444544e-18)
(1.11335603644175 0.385576571347621 -3.1256785165024e-18)
(1.17732193282281 0.337905244590038 -1.60271676371667e-18)
(1.24197406901804 0.291163217964557 -5.79784053267494e-18)
(1.30769980883079 0.245932713478663 -2.97367956394845e-18)
(1.37490906611935 0.202920729029775 0)
(1.44401345465008 0.163010017877109 -1.91838387609507e-19)
(1.51528407254987 0.127086584742856 0)
(1.58875306639115 0.0958553912700719 1.92124171154899e-19)
(1.66427979726638 0.0699489598904577 0)
(1.7416048455761 0.0499993265357189 0)
(1.82033549242016 0.0365836830301941 6.85549443432822e-18)
(1.89994373917961 0.0301348217962638 -2.21521884016493e-18)
(1.97989805210847 0.0286931555529161 0)
(2.05990129144753 0.0286936276076656 -2.21780207661269e-18)
(2.13990452779351 0.0286936276076656 4.24284525979112e-18)
(2.2199077641395 0.0286936276076657 -8.48569051958229e-18)
(2.29991100048548 0.0286936276076656 0)
(2.37991423683146 0.0286936276076656 0)
(2.45991747317744 0.0286936276076656 -4.24284525979106e-18)
(2.53992070952342 0.0286936276076656 -1.92758893433803e-19)
(2.61992394586941 0.0286936276076656 0)
(2.69992718221539 0.0286936276076656 -4.05008636635726e-18)
(2.77993041856137 0.0286936276076656 -2.21780207661271e-18)
(2.85993365490735 0.0286936276076656 0)
(2.93993689125334 0.0286936276076656 0)
(3.01994012759932 0.0286936276076654 -2.21780207661255e-18)
(3.0999433639453 0.0286936276076656 -4.24284525979106e-18)
(3.17994660029128 0.0286936276076657 1.92758893433799e-19)
(3.25994983663727 0.0286936276076654 1.92758893433809e-19)
(3.33995307298325 0.0286936276076655 1.92758893433806e-19)
(3.41995630932923 0.0286936276076657 0)
(3.49995954567521 0.0286936276076655 1.92758893433808e-19)
(3.57996278202119 0.0286936276076657 -2.21780207661256e-18)
(3.65996601836718 0.0286936276076656 -2.21780207661244e-18)
(3.73996925471316 0.0286936276076656 -4.24284525979107e-18)
(3.81997249105915 0.0286936276076655 -2.8716631501602e-16)
(3.89997572740513 0.0286936276076656 -2.85743462229032e-16)
(3.97997896375111 0.0286936276076657 -2.02504318317877e-18)
(4.0599822000971 0.0286936276076656 6.26788844296969e-18)
(4.13998543644308 0.0286936276076655 1.92758893433808e-19)
(4.21998867278906 0.0286936276076657 0)
(4.29999190913505 0.0286936276076656 0)
(4.37999514548103 0.0286936276076655 0)
(4.45999838182701 0.0286936276076656 0)
(4.54000161817299 0.0286936276076655 4.05008636635732e-18)
(4.62000485451898 0.0286936276076656 0)
(4.70000809086496 0.0286936276076656 2.41056097004649e-18)
(4.78001132721094 0.0286936276076656 0)
(4.86001456355692 0.0286936276076657 0)
(4.9400177999029 0.0286936276076655 0)
(5.02002103624889 0.0286936276076656 -4.43560415322487e-18)
(5.10002427259487 0.0286936276076657 2.87359073909451e-16)
(5.18002750894085 0.0286936276076655 2.86296171384046e-16)
(5.26003074528684 0.0286936276076656 -4.43560415322488e-18)
(5.34003398163282 0.0286936276076656 0)
(5.4200372179788 0.0286936276076655 0)
(5.50004045432478 0.0286936276076657 0)
(5.58004369067077 0.0286936276076656 0)
(5.66004692701675 0.0286936276076655 -8.67844941301638e-18)
(5.74005016336273 0.0286936276076656 8.67844941301632e-18)
(5.82005339970871 0.0286936276076656 -4.43560415322491e-18)
(5.90005663605469 0.0286936276076654 4.24284525979135e-18)
(5.98005987240068 0.0286936276076656 2.41056097004638e-18)
(6.06006310874666 0.0286936276076656 0)
(6.14006634509264 0.0286936276076655 -2.21780207661255e-18)
(6.22006958143863 0.0286936276076657 0)
(6.30007281778461 0.0286936276076656 0)
(6.38007605413059 0.0286936276076656 2.21780207661269e-18)
(6.46007929047657 0.0286936276076656 0)
(6.54008252682256 0.0286936276076656 0)
(6.62008576316854 0.0286936276076656 2.41056097004649e-18)
(6.70008899951452 0.0286936276076656 0)
(6.78009223586051 0.0286936276076656 0)
(6.86009547220649 0.0286936276076657 -2.21780207661257e-18)
(6.94009870855247 0.0286936276076655 -2.21780207661258e-18)
(7.02010194789153 0.0286931555529161 0)
(7.10005626082038 0.0301348217962638 -2.21533622199374e-18)
(7.17966450757983 0.0365836830301938 2.22138874083876e-18)
(7.2583951544239 0.0499993265357183 0)
(7.33572020273361 0.0699489598904566 -1.91211077994519e-18)
(7.41124693360884 0.0958553912700699 2.36627206617256e-18)
(7.48471592745013 0.127086584742856 4.90365286757768e-18)
(7.55598654534992 0.163010017877105 0)
(7.62509093388065 0.202920729029775 -2.47364365871479e-18)
(7.6923001911692 0.245932713478658 7.77156343868758e-18)
(7.75802593098196 0.291163217964554 2.90143422345126e-18)
(7.82267806717719 0.337905244590036 -1.41133333326632e-18)
(7.88664396355825 0.38557657134762 -1.46718489539075e-18)
(7.95026659733197 0.433701409726914 4.56437593335867e-18)
(8.0136983966963 0.482070486640233 4.93461514482332e-18)
(8.07688056197579 0.530757168105936 -1.9434068483857e-19)
(8.13969764459784 0.579900784250704 0)
(8.2020383753878 0.629630387715564 0)
(8.26379835396861 0.680062590587676 5.91622597196556e-18)
(8.32500122416104 0.731161836496737 -3.8958323594634e-19)
(8.38609651516596 0.782402010824393 0)
(8.44789007921053 0.832815741334135 4.35674614081714e-18)
(8.51130300529882 0.881211960073955 2.2159651706946e-18)
(8.57741033589596 0.925874435819462 4.80550498706791e-18)
(8.64744893279734 0.963996538149149 0)
(8.72211651546665 0.991745728574128 -6.39721951192239e-18)
(8.80031139121735 1.0074524817971 -2.22433849607449e-18)
(8.88000515761921 1.01337404425619 0)
(8.95999838182701 1.01434681380384 -2.2178020766128e-18)
(0.0399903577128326 1.01878350544337 -2.05041730248789e-18)
(0.119961161526283 1.01781511460077 2.14623028579908e-18)
(0.199634024700544 1.01192020605255 -1.9598677049295e-18)
(0.277814838404065 0.996284155782084 0)
(0.352484238679967 0.968659903715404 0)
(0.422545352839625 0.930709468429237 -4.06720611389785e-18)
(0.488692789342256 0.886248101223661 1.90619885803952e-19)
(0.55215789013829 0.838069774757126 -1.90531779845646e-19)
(0.6140108845394 0.787882988029694 4.06240773105521e-18)
(0.675168725684644 0.736873449241664 1.75026848152567e-18)
(0.73643364503991 0.686004184533698 -1.64752067001066e-18)
(0.798253165314634 0.635798961703399 0)
(0.86065083002833 0.586293182720939 0)
(0.923522708381446 0.537370758816705 0)
(0.986758031581426 0.488903217171998 1.71459267186847e-18)
(1.05024187036168 0.440751853933568 0)
(1.11391568661512 0.392843630849644 0)
(1.17793121483628 0.345386874191432 0)
(1.24262988704376 0.298855231043473 -5.41298202922085e-18)
(1.3083973226564 0.253828304040956 -2.68980172583483e-18)
(1.37564158882941 0.211009910218084 -2.57745841638403e-18)
(1.44477244443442 0.17127883131979 -1.91838336139967e-19)
(1.51605977107204 0.135517086693529 -1.9198175054931e-19)
(1.58953557340285 0.104426465236626 -2.09637275137815e-18)
(1.66505984486588 0.078636641447907 -2.03137419387023e-18)
(1.7423743334841 0.0587768052016373 -4.35347951219669e-18)
(1.82108808851945 0.0454215493195422 -1.95731405796281e-18)
(1.90067549004074 0.0390017173013674 2.1443124160524e-18)
(1.98060746109848 0.0375665409570624 -2.14679221606578e-18)
(2.06058817951721 0.0375670108867395 -2.1467908291486e-18)
(2.14056889494287 0.0375670108867395 0)
(2.22054961036854 0.0375670108867394 0)
(2.3005303257942 0.0375670108867394 0)
(2.38051104121987 0.0375670108867393 0)
(2.46049175664553 0.0375670108867394 0)
(2.5404724720712 0.0375670108867395 0)
(2.62045318749686 0.0375670108867394 4.29358165829704e-18)
(2.70043390292253 0.0375670108867394 0)
(2.78041461834819 0.0375670108867395 -2.14679082914851e-18)
(2.86039533377386 0.0375670108867393 -1.92759330643931e-19)
(2.94037604919953 0.0375670108867394 4.10082232765314e-18)
(3.02035676462519 0.0375670108867395 1.92759330643925e-19)
(3.10033748005085 0.0375670108867395 -1.92759330643924e-19)
(3.18031819547652 0.0375670108867394 0)
(3.26029891090219 0.0375670108867395 0)
(3.34027962632785 0.0375670108867393 0)
(3.42026034175352 0.0375670108867394 1.95403149850447e-18)
(3.50024105717918 0.0375670108867395 0)
(3.58022177260484 0.0375670108867394 0)
(3.66020248803051 0.0375670108867394 1.92759330643933e-19)
(3.74018320345618 0.0375670108867395 0)
(3.82016391888184 0.0375670108867395 2.77559479350055e-16)
(3.90014463430751 0.0375670108867394 2.77655906215037e-16)
(3.98012534973318 0.0375670108867394 0)
(4.06010606515884 0.0375670108867393 0)
(4.14008678058451 0.0375670108867394 0)
(4.22006749601017 0.0375670108867394 0)
(4.30004821143584 0.0375670108867395 0)
(4.3800289268615 0.0375670108867395 0)
(4.46000964228717 0.0375670108867393 0)
(4.53999035771283 0.0375670108867392 -1.92759330643934e-19)
(4.6199710731385 0.0375670108867395 -1.92759330643928e-19)
(4.69995178856417 0.0375670108867394 1.9540314985047e-18)
(4.77993250398983 0.0375670108867394 0)
(4.85991321941549 0.0375670108867394 6.2476131568017e-18)
(4.93989393484116 0.0375670108867395 2.14679082914851e-18)
(5.01987465026683 0.0375670108867393 0)
(5.09985536569249 0.0375670108867393 -2.77173960688753e-16)
(5.17983608111816 0.0375670108867395 -2.76049104997767e-16)
(5.25981679654382 0.0375670108867394 1.92759330643926e-19)
(5.33979751196949 0.0375670108867393 0)
(5.41977822739515 0.0375670108867394 2.14679082914862e-18)
(5.49975894282081 0.0375670108867393 -8.39440398595034e-18)
(5.57973965824648 0.0375670108867393 2.14679082914845e-18)
(5.65972037367215 0.0375670108867394 1.95403149850472e-18)
(5.73970108909781 0.0375670108867394 8.20164465530628e-18)
(5.81968180452348 0.0375670108867394 0)
(5.89966251994914 0.0375670108867394 1.92759330643925e-19)
(5.97964323537481 0.0375670108867394 0)
(6.05962395080047 0.0375670108867393 0)
(6.13960466622614 0.0375670108867393 0)
(6.2195853816518 0.0375670108867393 4.10082232765316e-18)
(6.29956609707747 0.0375670108867395 0)