/*--------------------------------*- C++ -*----------------------------------*\
  =========                 |
  \\      /  F ield         | OpenFOAM: The Open Source CFD Toolbox
   \\    /   O peration     | Website:  https://openfoam.org
    \\  /    A nd           | Version:  7
     \\/     M anipulation  |
\*---------------------------------------------------------------------------*/
FoamFile
{
    version     2.0;
    format      ascii;
    class       volScalarField;
    location    "20000";
    object      k;
}
// * * * * * * * * * * * * * * * * * * * * * * * * * * * * * * * * * * * * * //

dimensions      [0 2 -2 0 0 0 0];

internalField   nonuniform List<scalar> 
15600
(
4.2719379493471e-06
3.8592782623073e-06
2.24730726458116e-06
9.43611574027762e-07
2.6439342585755e-07
1.45282594246641e-07
1.28986430452759e-07
7.30030463944989e-08
3.92809160539328e-08
2.58312884192349e-08
1.91151289379786e-08
1.66389090123705e-08
1.73715182294398e-08
2.03779847664648e-08
2.58709818569297e-08
3.45213617063084e-08
4.71035533755115e-08
6.42730613058826e-08
8.68792802510686e-08
1.15229355882215e-07
1.48621074751876e-07
1.85494855671112e-07
2.2460537966552e-07
2.63690319305537e-07
2.97120819500068e-07
3.21109802870492e-07
3.41262788054259e-07
3.83370020722292e-07
5.13241305990289e-07
7.11567711442265e-07
9.24271190245878e-07
1.14758742059387e-06
1.37585699025501e-06
1.6066585923529e-06
1.83784407004486e-06
2.06867663905583e-06
2.2983895730322e-06
2.52661104719762e-06
2.75287686674251e-06
2.97678248773451e-06
3.19785943195687e-06
3.4156732313396e-06
3.62984783713597e-06
3.84012466159352e-06
4.04635907648889e-06
4.24860825429783e-06
4.44762244360611e-06
4.64213423738296e-06
4.82879784811633e-06
5.00549442027601e-06
5.17156518799203e-06
5.32647321065538e-06
5.46981114282203e-06
5.60127612994614e-06
5.72065437611231e-06
5.82780185141967e-06
5.92264916310517e-06
6.00518837536605e-06
6.07548405223766e-06
6.13366823222099e-06
6.17993696300591e-06
6.21454599969283e-06
6.23778777018891e-06
6.24998565444808e-06
6.25145202628044e-06
6.24251054125554e-06
6.22347043225508e-06
6.19470855867845e-06
6.15669552066874e-06
6.10994598931568e-06
6.05501379576363e-06
5.99242176253323e-06
5.9226487991598e-06
5.84608370336509e-06
5.76300879173196e-06
5.67357094453577e-06
5.57781363894908e-06
5.47576847629663e-06
5.36749850035383e-06
5.25300038123691e-06
5.13221566499218e-06
5.0047307229223e-06
4.86998106601559e-06
4.72658252813714e-06
4.57324395249383e-06
4.40703300292337e-06
4.22598616934391e-06
4.02436559185523e-06
3.80054703051831e-06
3.54559894455826e-06
3.26256060930852e-06
2.93756276204962e-06
2.74549533313545e-06
2.89903559150314e-06
3.15659478542313e-06
3.50653654072939e-06
3.86128310047404e-06
4.23205892184596e-06
4.62217971507695e-06
5.06964756380141e-06
5.50025485202242e-06
5.89102905468203e-06
6.19302270849738e-06
6.37679342842916e-06
6.33054197577745e-06
6.16402613226941e-06
5.97826941775122e-06
5.81930864200406e-06
5.75209215554475e-06
5.8733636465847e-06
6.3846364961743e-06
7.18461578687796e-06
8.45279895110836e-06
1.05672534297164e-05
1.32505210450743e-05
1.42205345880438e-05
1.05159469854918e-05
7.31974571539795e-06
4.91781344920097e-06
4.18754043049911e-06
0.000137514225501932
0.000124696028423809
7.27681708205749e-05
3.08898518769818e-05
8.81988141267593e-06
4.75546199353519e-06
4.21685292141722e-06
2.42251071955075e-06
1.30754652113931e-06
8.54196949080161e-07
6.28688086036575e-07
5.43044319850638e-07
5.63063467684852e-07
6.57344513639702e-07
8.31772975035623e-07
1.10769586275828e-06
1.51052426998367e-06
2.06177285960166e-06
2.78952958624068e-06
3.70543071991195e-06
4.78867622587168e-06
5.98859511899117e-06
7.26186824699802e-06
8.53107920136996e-06
9.62075959938809e-06
1.04061138146968e-05
1.10785212753489e-05
1.24531173448416e-05
1.66507186307509e-05
2.30554423377272e-05
2.99280851686481e-05
3.71404652535557e-05
4.4509762205905e-05
5.19582985613118e-05
5.94168834373707e-05
6.68620422277322e-05
7.42691635127983e-05
8.1626451780037e-05
8.89190818739384e-05
9.61341872043531e-05
0.000103256830343951
0.000110273183254794
0.000117171298835411
0.000123943017256552
0.000130583831696792
0.000137095667487875
0.000143503100676942
0.000149755589185977
0.000155702112119598
0.000161326475348721
0.000166608537759966
0.00017153202293344
0.000176084704925545
0.000180257611676409
0.000184044523047602
0.000187441399259965
0.000190446495857297
0.000193059990196872
0.000195284295671014
0.000197123907448261
0.000198585290305201
0.000199676718101698
0.0002004075799303
0.000200788149062591
0.000200828362364946
0.000200538435233317
0.000199928217531009
0.000199009681718006
0.000197797663460958
0.000196308373051028
0.000194559161678406
0.000192566400725383
0.000190345034985864
0.000187907180976286
0.000185261585623533
0.000182412751663167
0.000179361968313339
0.000176110154357402
0.000172659125352356
0.000169008664469885
0.000165156587832111
0.000161089809852045
0.000156789878617251
0.000152213403402852
0.000147318216231669
0.000142012811151849
0.000136231800416912
0.000129796524195194
0.00012264785975978
0.000114506677290456
0.000105446703952385
9.50927393386849e-05
8.90308037347877e-05
9.40998385030476e-05
0.000102478585092387
0.0001137392519333
0.000125171838145873
0.000137100623315365
0.000149671614766463
0.000163966942751782
0.000177663088342552
0.000190033076055639
0.00019956414600075
0.000205277369774737
0.000203864125915135
0.000198714734296401
0.0001929432271207
0.000188039527017859
0.00018608137571759
0.000190190266896685
0.000206459502363747
0.00023192715315569
0.000272022198905695
0.000337580854545679
0.000419151043350128
0.000450544485041203
0.000335478395389746
0.000234484578964739
0.000158415557822212
0.000135362935528723
0.000983957004872228
0.000897861052111417
0.000528570145358317
0.000228479144546333
6.66498557150409e-05
3.4984949841959e-05
3.09667158526504e-05
1.80940299913147e-05
9.81903533172839e-06
6.38206083133993e-06
4.67734009766629e-06
4.01264345052887e-06
4.13375983725148e-06
4.80094266516022e-06
6.05231424067954e-06
8.04071616669628e-06
1.0954558277864e-05
1.49534506826886e-05
2.02448209928778e-05
2.69241000633852e-05
3.48514135182244e-05
4.36531216911936e-05
5.30044349593368e-05
6.21862012139462e-05
7.0077259801719e-05
7.58871925768302e-05
8.11608878476188e-05
9.11640710434395e-05
0.00012132951011844
0.000167127735839642
0.000216062231926433
0.000267111806988918
0.000318972709480597
0.000371117158840964
0.000423072786793213
0.000474696955005055
0.00052583378906818
0.000576419808117423
0.000626368401693393
0.000675607809885933
0.000724051511378519
0.000771620884072076
0.000818249435563892
0.000863896329623873
0.000908543789949216
0.000952209392028318
0.000994914244391577
0.00103541958941045
0.00107384631345892
0.00111007832001352
0.0011440147406682
0.00117557825692243
0.00120471476591961
0.00123138820890233
0.00125557726999701
0.00127727221785118
0.00129647522954522
0.00131319856186731
0.00132746616100664
0.00133931280412594
0.00134878346604533
0.00135593218303195
0.00136081829195472
0.00136350467101259
0.00136405153095419
0.00136251941699769
0.00135896713140224
0.00135346580670425
0.0013461025904544
0.00133697258107826
0.00132617667079347
0.00131380968782449
0.00129995731296152
0.00128468813026169
0.00126804997707719
0.0012500648254622
0.00123073509910756
0.00121006053958969
0.00118804488505296
0.0011646796230668
0.00113994078441341
0.00111373954408043
0.00108594475168975
0.00105627874883694
0.00102444624748208
0.000989868306801204
0.000952064832265509
0.000909903315364829
0.000862854679512961
0.000809092516655036
0.000748660657276495
0.000679013484269796
0.000637761290687273
0.00067252571678566
0.000729496389450518
0.000804711669361384
0.000881766919889201
0.000962155158265335
0.00104719438867748
0.00114240379379493
0.00123399723501965
0.00131696746620383
0.00138196790583911
0.0014224130906199
0.00141910863483634
0.00139083402384417
0.00135676767045579
0.0013273171222891
0.00131619527904599
0.00134380192700528
0.00144740524214097
0.00161106530368712
0.00186306218155841
0.00225818819491424
0.00273105887103534
0.00295299659432772
0.00228140944054012
0.00162751548556256
0.00112679748126147
0.000974470845548961
0.00335196862060185
0.00308001420196138
0.00189196331916679
0.000860603013698959
0.000263400325172853
0.000132319691084775
0.000116346720401054
6.93299459220734e-05
3.79012453967655e-05
2.4534559668688e-05
1.79182556415707e-05
1.52762026796593e-05
1.5636370111106e-05
1.80548959890628e-05
2.2659820270573e-05
3.00027691220821e-05
4.07810086816928e-05
5.55743703039928e-05
7.51228384035138e-05
9.97593222419526e-05
0.000128939209577681
0.000161228242602251
0.000195373647380197
0.00022858475680939
0.000256653447885797
0.000278441568686653
0.000298134408222824
0.000334316102210094
0.000438205283085069
0.000591518285570234
0.000750874897253102
0.000912916404839471
0.00107354351249319
0.00123165266112803
0.00138612969083874
0.00153695577904661
0.00168396677980368
0.00182727311384828
0.00196686839041026
0.0021027774785377
0.00223495996601757
0.00236338328839896
0.00248802796307117
0.00260893393936739
0.00272618863885358
0.00283928712402982
0.0029458258170825
0.00304672802958821
0.00314190896395456
0.00323122934888344
0.00331458159108159
0.00339190146809996
0.00346316496648616
0.00352837673807205
0.00358756299991171
0.00364076574402736
0.00368804335549931
0.00372946795209518
0.003765128824574
0.00379513118067166
0.00381959530756337
0.00383865430523405
0.00385244725107451
0.00386111525586364
0.00386479052416216
0.00386360157689709
0.00385767195063644
0.00384714840882163
0.00383220807292589
0.00381304338828936
0.00378985619754813
0.0037628341804652
0.00373214347928534
0.0036979127103179
0.00366022403610292
0.0036191014627447
0.00357452330204357
0.00352645767589711
0.00347487545351525
0.00341971839788709
0.00336088339469867
0.00329812402176664
0.00323107043666823
0.0031590312414976
0.00308119596381475
0.0029961430608487
0.00290247580479384
0.00279737217260284
0.0026789266736528
0.00254223817909333
0.00238553948173848
0.00219788860269387
0.00208136816897973
0.00217201143531246
0.00232857682682146
0.00253434764641176
0.00275186549491424
0.00298261420889411
0.00322961883633159
0.00350272171991824
0.00377121812083327
0.00401893629897907
0.00422309832990409
0.00436587419837796
0.00440371385419764
0.00437372833040109
0.00432125262707782
0.00427504397669956
0.00427200190114336
0.00436683628579515
0.00465437612006416
0.00509933182058896
0.0057479127400185
0.00669412115763639
0.00774137229866162
0.00829844990505199
0.00678781914849652
0.00504354898105573
0.00368601929532505
0.00330095185862275
0.00685693434480251
0.00643189020171936
0.00431512516575128
0.00217525624409925
0.000749692512379521
0.000356138944859919
0.000307240776649341
0.000187354024901269
0.00010345958483775
6.67918575562789e-05
4.86522921472546e-05
4.12437588330326e-05
4.1931135654138e-05
4.80898761429505e-05
6.00034884518606e-05
7.90095053891856e-05
0.000106801896319082
0.000144671193942611
0.00019416490270251
0.000255658646510559
0.000327208419491213
0.000404732566496146
0.000484893866012286
0.000561578692538187
0.000626085218043506
0.000676109663395273
0.000722722113601691
0.000806515080355291
0.00102635173755251
0.00133301610113954
0.00163772213343615
0.00193677948801474
0.00222395909893148
0.0024998096314135
0.00276367894515093
0.00301683932122004
0.00325984000666308
0.00349357877006758
0.0037185693723229
0.00393529507671415
0.00414404911652221
0.00434507919914112
0.00453859289058393
0.00472486808810086
0.00490315741396202
0.00507098687932997
0.00522956528769578
0.00537917225285059
0.00551975610156997
0.00565125418234219
0.00577363828298692
0.00588692737607181
0.00599118308771149
0.00608649541530756
0.0061729738870522
0.00625074118424672
0.00631993383939983
0.00638070010038088
0.00643320416442327
0.00647762516540245
0.00651415644697587
0.00654300277631804
0.0065643727242021
0.00657847341836067
0.00658549864163227
0.00658563378118182
0.00657905651300979
0.00656596996791325
0.0065466118156494
0.00652123741961635
0.00649011040351509
0.00645347423410064
0.00641154181931606
0.00636447669916509
0.00631238086601073
0.00625527897267201
0.00619313223877074
0.006125882776706
0.00605346959782471
0.0059757928348241
0.00589268461051951
0.0058037964384604
0.00570859219495146
0.00560613696699142
0.00549526052517589
0.00537406176527691
0.00524045963456911
0.00509065609075413
0.00492150645943002
0.00472609068781663
0.00450004789281635
0.00422164544119433
0.00403949425635019
0.00416198225669844
0.0044047437565909
0.00472969597518609
0.0050887925534495
0.00547723548325491
0.00590119208301208
0.00636842478743716
0.00683656932497918
0.00727800274715285
0.00766070403667902
0.00795774789228196
0.00811498043835642
0.0081749301610476
0.00819798824751018
0.00822727329675748
0.00831689429568539
0.00854756174857679
0.00905271319946708
0.00978820730090581
0.0107843982270238
0.0121299803451843
0.013522116393235
0.0143279389309358
0.0124375180277395
0.00968947414371639
0.00737741633614077
0.00674190378472883
0.0102621144560527
0.0097805919324979
0.00722189903353413
0.00410746289584098
0.00168945018874123
0.000778040129929851
0.000649924152766548
0.000407534292100093
0.0002283981631438
0.000147397767158203
0.000107227185056333
9.04328648735236e-05
9.1227691963413e-05
0.000103732039273988
0.000128323986960574
0.000167347933392042
0.000223653457413378
0.000298830100952707
0.000394408690399576
0.000509115348412548
0.000637258261963194
0.000770300282980743
0.000902599832289743
0.00102577230040201
0.00112953573144521
0.0012139018836967
0.00129937775576721
0.00144733950405443
0.00178815549971933
0.00223427048882495
0.00266384106041119
0.00307555432319273
0.00346310649091689
0.00383014743543859
0.00417713184815612
0.00450690553488886
0.00482087124737709
0.00512073291009533
0.00540754107195819
0.00568222804863278
0.00594542239289068
0.00619764345388942
0.00643929893795239
0.00667035982601967
0.00688811970444989
0.00709373358780695
0.00728777433629235
0.00747039655393247
0.007641614622767
0.00780144194113087
0.00794992451471204
0.0080871539559471
0.00821326330359033
0.00832841218850596
0.00843277714767179
0.00852654524962396
0.0086099145165675
0.00868309252835442
0.00874630072788285
0.00879977384233303
0.00884375929900769
0.00887851432404702
0.00890429858084226
0.00892136834297946
0.00892996505015314
0.00893031888256613
0.0089226507091471
0.00890720533350535
0.00888426224636453
0.00885411944747247
0.00881708134236794
0.0087734288449726
0.00872340709035044
0.00866720659738657
0.008604949643517
0.00853667208132215
0.00846233611895578
0.00838187796716599
0.0082952261076397
0.00820226771753869
0.00810281051558962
0.00799647386841359
0.00788265547529002
0.00776034421847359
0.00762821847106547
0.0074842429234332
0.00732604142905614
0.00714956179452043
0.00695107186707681
0.00672307886235516
0.00645972840463987
0.00613395113850298
0.00591212345699674
0.00603760326758353
0.00633307899765724
0.00673897233851667
0.00720099280768612
0.00771184334833696
0.00827604333391741
0.00889590287578742
0.00952391493262756
0.0101241965622654
0.0106601508402317
0.0111001069937194
0.0113912785271298
0.0115757261605659
0.0117193429210512
0.011873466198671
0.0121000024591698
0.0124907578363284
0.0131875048095725
0.0141496524310592
0.0153830334646424
0.0169515273610435
0.0185158834660552
0.0194725350287277
0.0176919912840897
0.0144704703304195
0.0113033284634286
0.0102299134315795
0.0132136036982599
0.0126317334923306
0.0100647593215074
0.00632505976469322
0.00312507638512494
0.00146514140539002
0.00116820992654313
0.000757138161094391
0.000433851238185688
0.000280970830719578
0.000204551958008571
0.00017172880152104
0.000171585904423945
0.000192878616108041
0.000235570987727618
0.000302486379526117
0.00039667221743687
0.000518165994123604
0.000666165735144783
0.000835320958339734
0.00101513939605961
0.00119417727168863
0.00136725812495106
0.00152721682297939
0.00166636251668765
0.0017897606701868
0.00192715314354024
0.00215294024531754
0.00260305371493712
0.00315743827284061
0.00368203101684944
0.00417716398503369
0.00463846369390118
0.00507226489205944
0.00548021560530392
0.00586630996875469
0.00623260718346615
0.00658134684007731
0.00691395265786572
0.00723165205696165
0.00753530150264739
0.0078256002890721
0.00810317688552737
0.00836564021736784
0.00861346111622481
0.00884750273897462
0.00906813535141293
0.00927550016170545
0.00946966136396178
0.00965068603189095
0.00981867188629055
0.00997376086840071
0.0101161360846308
0.0102460069655236
0.0103635987712297
0.0104691460645054
0.0105628925987616
0.0106450904111609
0.0107160039430433
0.0107759098307146
0.0108250964385996
0.0108638610070057
0.0108925028000268
0.0109113170744422
0.0109205842128727
0.0109205716903798
0.0109115362497638
0.0108937558903227
0.0108675424802083
0.0108332269671635
0.0107911453480163
0.0107416081030026
0.0106848867014535
0.0106211955715492
0.010550677933657
0.0104733855938714
0.0103892894624654
0.0102983287365497
0.0102004316585681
0.0100954857307231
0.00998329409132109
0.00986347402258642
0.00973540397009419
0.009598063990109
0.00945007929549836
0.00928941314460963
0.00911358728727701
0.00891856554024262
0.00870038999805022
0.00845158460456324
0.00816559648811007
0.00781453203149518
0.0075682096316529
0.00768452095390935
0.00801095636212153
0.00847075347302784
0.00900792617728067
0.00961034459175729
0.0102799310723858
0.0110135650828905
0.0117613405709458
0.0124815779662189
0.0131351428914579
0.0136881012189697
0.0140928614011492
0.0143899934676495
0.0146469944692792
0.0149200437510998
0.015274558393463
0.0158067167724207
0.0166538272300631
0.0177832234973879
0.0191829342890544
0.0208859311550223
0.0225499624190457
0.0235869193768067
0.0220558814525803
0.0188179530251563
0.0151203790181958
0.0134619011012486
0.015869964731915
0.0150705947149024
0.0126671153452496
0.00855941588312266
0.00490748562435672
0.00246519836092417
0.00184456987009032
0.00123661752338199
0.000730723325336112
0.000477371068887077
0.00034880859660003
0.000291747225405335
0.000288080427902278
0.000319069553382424
0.00038301864708268
0.000481645421591068
0.000616157504191612
0.000782789618679352
0.000976822519228768
0.00118883499386026
0.00140597770248109
0.00161755805646739
0.00182107072230143
0.00201221299586537
0.0021872625830724
0.00235657062645819
0.00255698910388317
0.00286743152874659
0.00341116680315783
0.00404676529420435
0.00464293357448481
0.00520049725868618
0.00571811854470555
0.00620355456002612
0.00665941159447867
0.00709024387758921
0.00749851620189559
0.0078867366099132
0.00825655009006325
0.00860934876085414
0.00894612857079919
0.00926767982785354
0.00957373796049538
0.00986255699262308
0.0101355000367226
0.0103931872902656
0.0106359202480778
0.0108638522267893
0.0110770854549111
0.0112757271395971
0.0114599134461682
0.0116298240209011
0.0117856804417342
0.0119277314409107
0.0120562414927719
0.0121714839306424
0.0122737401709275
0.012363299060747
0.0124404607849077
0.0125055369402953
0.0125588502094068
0.0126007316433188
0.0126315143852339
0.0126515276700873
0.0126610864090261
0.0126604915641919
0.0126500317140738
0.0126300135335854
0.0126007764509976
0.0125626794899801
0.0125160858949265
0.0124613319497905
0.0123987127512757
0.0123284652548497
0.0122507541382299
0.0121656495244212
0.0120731346094584
0.0119731558154149
0.0118656463665339
0.0117505006017168
0.011627527327119
0.0114963557121616
0.011356368554242
0.0112065662717698
0.0110455701035059
0.0108713947942897
0.0106815588090996
0.0104721383130507
0.0102393059792527
0.0099756920882543
0.00967424889144033
0.00930864665503913
0.0090463200223552
0.0091492809914595
0.00949382901930138
0.00999173640614702
0.0105855784317558
0.0112584443856046
0.0120091526576964
0.0128297061305136
0.0136688479849479
0.0144806876296037
0.0152244777029471
0.0158654061729566
0.0163617907870687
0.0167528220074076
0.0171059473531488
0.0174801720504384
0.0179425575952893
0.0185909240076681
0.0195547489211146
0.0208089625854456
0.0223306596053133
0.0241215740398974
0.0258479130571035
0.0269211837224332
0.0256139350664537
0.0225324723109894
0.0186823539036588
0.0165022224663175
0.0183630348857406
0.0172695761478238
0.0150308280387098
0.0106980139375143
0.00681119554899683
0.00378888836394162
0.00263864000180188
0.00181342539800338
0.00111081066401677
0.000735604110471725
0.000541192835091309
0.000451563881640966
0.000439933921992419
0.000478984719720669
0.000563620505458963
0.00069243714476672
0.000862922525085568
0.00106662584848608
0.00129538358714999
0.00153772232090759
0.00178128793557216
0.00201803366317153
0.00224826783251704
0.00247053075575423
0.00268490366949327
0.00290616516262882
0.00317528577493307
0.00356882979849942
0.00418951932981597
0.00488694119656647
0.00553912703704567
0.00614640504648821
0.00671030641767375
0.00723887793890045
0.00773540894189125
0.00820459738061222
0.00864914703696931
0.00907167282268676
0.00947395281964378
0.00985747140303109
0.0102233184085875
0.0105724524216548
0.0109029365003569
0.011215291032648
0.0115105223311038
0.0117891413102844
0.012051429772004
0.0122975606109721
0.0125276681959728
0.0127418928664358
0.0129404023072874
0.0131234072927794
0.0132911619382852
0.0134439489649844
0.0135820672669946
0.0137058245369853
0.0138155357512154
0.0139115226077226
0.0139941172733705
0.0140636626626804
0.0141205123028953
0.0141650277945937
0.0141975731366452
0.0142185089185545
0.0142281822308635
0.0142269255196398
0.0142150569061061
0.0141929091958666
0.0141608466992742
0.0141192538295955
0.014068518838902
0.0140090018336359
0.0139410201842079
0.0138648327621624
0.013780626292927
0.0136884908364157
0.0135884240851486
0.013480382359303
0.0133643072725667
0.0132401041304599
0.0131075939479172
0.0129664260047088
0.0128160018437924
0.0126553580932679
0.012483141444087
0.0122974437884206
0.0120959408101309
0.0118749338416133
0.0116303889284531
0.0113553993547749
0.0110428295017212
0.0106687214595578
0.0103954766802841
0.0104844014345684
0.0108392180236095
0.0113649674336164
0.0120028887873306
0.0127316874482505
0.0135468234675812
0.0144359385781437
0.0153468207373899
0.0162304299584326
0.0170449605911435
0.0177556386927704
0.0183265469645301
0.0187957991398144
0.0192300065610798
0.0196896781948793
0.0202425439660934
0.0209866464718591
0.0220432938940518
0.0233933323361798
0.0250070708200844
0.0268569054859038
0.028620682982763
0.0297032173617675
0.0285656261467377
0.0256574842782126
0.0218875365204809
0.0193654456890418
0.0207191344454597
0.0193358362843137
0.017188102759956
0.0127251433177901
0.00871882759808209
0.00534100781145943
0.00353141450012365
0.00244535935230561
0.0015503425507784
0.00104311279581522
0.000774494484224157
0.000645763302188613
0.000620672112022004
0.000664101714907946
0.000766000685882957
0.000920243453714759
0.00111961080353367
0.00135141271358683
0.00160538529077069
0.0018698747967938
0.00213444006637365
0.00239389106957925
0.00265079147294382
0.00290611009147649
0.00316312470181098
0.00343974329346041
0.00377803354166696
0.00424803793323576
0.00493145300888209
0.00567839771606364
0.00637698147761489
0.00702664474667953
0.00763105967251189
0.00819791434576441
0.0087309586748549
0.00923480706156489
0.00971230309512861
0.0101660847230752
0.0105980150697332
0.0110096336764367
0.0114020864397159
0.011775907453781
0.0121291958165001
0.0124633011992951
0.0127790570016903
0.0130769264896914
0.0133571928941126
0.0136200515243291
0.0138656659222375
0.0140942057873662
0.0143058665283797
0.0145008864070724
0.0146795488717821
0.0148421678170148
0.0149890740305946
0.0151206072517822
0.0152371138490432
0.0153389462340757
0.015426466530337
0.0155000469759807
0.0155600700438942
0.0156069260883922
0.0156410082880528
0.0156627071512673
0.0156724006699879
0.0156704517353468
0.0156572067129475
0.0156330230842318
0.0155982884987198
0.0155534112285675
0.015498803384393
0.0154348478267405
0.0153618835241315
0.0152801910529339
0.0151899798742809
0.0150913613460821
0.0149843493192907
0.0148689120495884
0.0147450021675603
0.014612539068308
0.0144713607795033
0.01432114241932
0.014161314251443
0.0139909593121227
0.0138087687764734
0.0136131361520649
0.0134016373823564
0.0131707573152854
0.0129165300766042
0.0126325079321522
0.0123117434621521
0.0119329237935441
0.0116522202880459
0.0117276955041842
0.0120876862356181
0.0126341218996949
0.0133070943728096
0.0140813701773748
0.0149489444120332
0.0158935044556251
0.0168620170257655
0.0178030497390497
0.0186741671323757
0.0194413196546304
0.0200740032635379
0.0206095226635525
0.0211132280972373
0.021646206544508
0.0222762367280535
0.0231006405363136
0.0242329906444646
0.0256582695167409
0.0273420830756266
0.0292301001684072
0.0310124055944837
0.0320867846238959
0.0310606152943988
0.0283092825621969
0.0247109988213387
0.0220181357891644
0.0229220513895895
0.0213123351144885
0.0191616511143134
0.0146636702128151
0.0105700716665317
0.00703440346903034
0.00452774241654401
0.00310935895469578
0.00202559344601799
0.00138345784362861
0.00103721669165049
0.000865617303896456
0.000821895039253819
0.000865377696098153
0.000980121154475472
0.00115434798867806
0.00137586251686705
0.00162867550785412
0.00190162241523988
0.00218393655850751
0.00246742377751719
0.00274936031133631
0.00303402841280436
0.00332437779324183
0.00362613153400434
0.00395892774490111
0.00436355846767172
0.00490191833488729
0.00563763233366758
0.00642666208575698
0.00716574273828859
0.00785353393949218
0.00849503343992471
0.00909729682047752
0.00966435217241365
0.0102006227501164
0.0107090268010989
0.0111921839448806
0.0116520139117414
0.0120900937871892
0.0125076550974252
0.0129044139226647
0.0132793999229882
0.0136340903013081
0.0139692287047523
0.0142852614256997
0.0145824835727302
0.014861114283815
0.0151213447590538
0.0153633719875228
0.0155874169600341
0.0157937433384567
0.0159826621615348
0.0161545170347734
0.0163096693490459
0.0164484897447376
0.0165713549000915
0.0166786468372641
0.0167707566089224
0.0168480847342967
0.0169110416474993
0.0169600455091164
0.016995517782534
0.0170178781492333
0.0170275348685857
0.0170248808391789
0.0170102900158904
0.0169841437884774
0.0169468522975487
0.0168988468480621
0.0168405629272464
0.0167724056198354
0.0166947352037835
0.0166078539726818
0.0165119948977041
0.0164072919024099
0.0162937763912411
0.0161714302795985
0.0160402194403371
0.0159000799671623
0.0157508707323738
0.0155922971043334
0.0154238255261464
0.0152445918493
0.0150535871807714
0.0148490764902035
0.0146287154310314
0.0143892366112219
0.0141268216092234
0.01383548077572
0.013508643378767
0.0131276724697981
0.0128420370422261
0.0129051078279813
0.0132668314071727
0.0138286925043715
0.0145299149585591
0.0153417498865343
0.0162527120607143
0.0172428494635088
0.0182583351550158
0.0192459195388591
0.0201629237362937
0.0209765735375886
0.0216613943838651
0.0222540600602245
0.0228183857175511
0.0234153445457867
0.024112297240686
0.0250051176079371
0.0262001694937718
0.0276850277952315
0.0294215225917524
0.0313314072005264
0.0331172799909339
0.0341719933626955
0.0332166720533487
0.0305952939140469
0.0271840212182025
0.0244394798521028
0.024958099911831
0.0232067918398827
0.0209699017489287
0.0165456345348014
0.0123337142754729
0.00880503643463747
0.00565498097123693
0.00380865651571248
0.00252447398590177
0.00174497786050387
0.00131951904079747
0.00110343419394945
0.00103697955425757
0.00107644855982166
0.00119968986753918
0.0013889325093618
0.00162715816077641
0.00189600911942564
0.00218420279703195
0.00248228845374993
0.00278416669272058
0.00308910936183499
0.00340271164830269
0.00372946416582107
0.00407676113401776
0.00446473264537237
0.00493140624898158
0.00553057999639033
0.00631151266945039
0.00713810138031785
0.00791402233807892
0.008637424195694
0.00931391981631591
0.00994986242010923
0.0105494028612135
0.011116729738444
0.0116547871972594
0.012166156584368
0.0126527951079778
0.0131163050499449
0.0135580553911567
0.01397667577753
0.0143726290142608
0.0147471487374902
0.0151009310824501
0.0154344222843487
0.0157479351848412
0.0160417136899205
0.0163159759652781
0.0165709452467516
0.0168068669611733
0.017024029020356
0.0172227692166754
0.017403460255677
0.0175664936176275
0.0177122704519785
0.0178411973684988
0.0179536855704266
0.0180501546739892
0.0181310330652821
0.0181967587647288
0.0182477773529509
0.0182845381984965
0.0183074898655822
0.0183170706837635
0.0183137035460187
0.0182977898013592
0.0182697344645475
0.0182299697948395
0.0181789497817893
0.0181171332745837
0.0180449474034087
0.0179627737081492
0.0178709363377214
0.0177696926237243
0.0176592003001364
0.0175395095672521
0.0174106175485994
0.0172725053532447
0.0171251280838811
0.0169683686746474
0.016801966352076
0.0166254286951707
0.0164381921964315
0.0162390894947313
0.0160264674504795
0.0157981213440231
0.0155510279651276
0.0152815703040224
0.014984216938897
0.0146528999578706
0.0142715836800333
0.0139829383147112
0.0140347709640523
0.0143958459526777
0.0149691007628576
0.0156932250333945
0.016536344183622
0.0174835366170969
0.0185114588494891
0.0195654792036435
0.0205909966581375
0.0215454656412963
0.022397844740352
0.0231273137129721
0.0237699970506479
0.0243879570053641
0.025041501839305
0.025797174021466
0.026748791319681
0.0279959386171816
0.0295275184601762
0.0313019906079297
0.0332200760900521
0.0349978781398516
0.0360255786248301
0.0351120781090421
0.0325965730105795
0.0293574094558884
0.0266325883732311
0.0268273285266787
0.0250125710408093
0.022635479606825
0.0184021917933495
0.014006360733877
0.0105642996520837
0.00695588994590251
0.00456655700137733
0.00304765627341944
0.00212365053573086
0.00161609799155524
0.00135389934145766
0.00126215778907121
0.00129395988286264
0.00142164820867304
0.00162159405282547
0.00187232453723857
0.00215382193407114
0.0024550819160583
0.00276802923395865
0.00308835411918199
0.00341691599605714
0.00376030975531168
0.00412414329017133
0.00451677227363086
0.0049578769710369
0.00548200332390227
0.00613571909470602
0.00695719199408188
0.00781851231020715
0.00862900596402602
0.00938653102192379
0.010096765183964
0.0107653766251569
0.0113965064809882
0.0119940956583016
0.012561074403454
0.0130999760237959