/*--------------------------------*- C++ -*----------------------------------*\
  =========                 |
  \\      /  F ield         | OpenFOAM: The Open Source CFD Toolbox
   \\    /   O peration     | Website:  https://openfoam.org
    \\  /    A nd           | Version:  7
     \\/     M anipulation  |
\*---------------------------------------------------------------------------*/
FoamFile
{
    version     2.0;
    format      ascii;
    class       volScalarField;
    location    "20000";
    object      k_conv;
}
// * * * * * * * * * * * * * * * * * * * * * * * * * * * * * * * * * * * * * //

dimensions      [0 2 -3 0 0 0 0];

internalField   nonuniform List<scalar> 
15600
(
-7.07225766625524e-06
-1.7436961117252e-07
-6.44346155004433e-07
-1.86417138818183e-09
2.67094861566348e-08
-1.92477917557143e-07
-1.52386544771488e-07
-6.32363834174349e-08
-2.18254065875419e-08
-1.15668497341751e-08
-5.0685229650973e-09
-1.9831573204363e-09
-1.98608447433298e-10
-3.11816112097839e-10
-5.4206264636638e-10
-9.06352761077391e-10
-1.41828476500201e-09
-2.10310978983762e-09
-2.8845529657349e-09
-3.57203502992314e-09
-3.96251458347452e-09
-4.08816915750395e-09
-1.14649002388428e-08
-4.1678543113353e-08
-6.43816639417047e-08
-7.08238706468231e-08
-3.36683041287912e-08
-1.33190942897912e-08
-3.1528575923668e-08
-4.44518006647985e-08
-5.65681554830022e-08
-6.66052649260749e-08
-7.50127441201915e-08
-8.17516298021597e-08
-8.73310973270593e-08
-9.18192350829069e-08
-9.54516785290899e-08
-9.82620705279477e-08
-1.00332097285986e-07
-1.0167788387717e-07
-1.02351668236646e-07
-1.0241465710768e-07
-1.01955673464434e-07
-1.01062264536815e-07
-9.9865089480948e-08
-9.87387531884432e-08
-9.67104900694302e-08
-1.21393949717938e-07
-2.98150810750519e-07
-4.7845278349427e-07
-6.59812408699199e-07
-8.39829230379272e-07
-1.01637380474028e-06
-1.18754912415874e-06
-1.35170806423485e-06
-1.50731464415787e-06
-1.65306860582554e-06
-1.78776302722447e-06
-1.91040782541229e-06
-2.0202134425486e-06
-2.11659963196433e-06
-2.19926792856531e-06
-2.2680740464928e-06
-2.32317455593811e-06
-2.36465965545682e-06
-2.39285464928438e-06
-2.40778810120755e-06
-2.40962698620269e-06
-2.39897819918513e-06
-2.376581869537e-06
-2.34354388023562e-06
-2.3009469305039e-06
-2.24994562993725e-06
-2.19152227226348e-06
-2.12652619168045e-06
-2.05549407216948e-06
-1.97862057341898e-06
-1.89604569056607e-06
-1.80825695826674e-06
-1.7154578015669e-06
-1.61848283531862e-06
-1.5166346775853e-06
-1.41081397975433e-06
-1.29757797650626e-06
-1.17884379857743e-06
-1.0458821356497e-06
-9.05366454819122e-07
-7.38322886128367e-07
-5.64781358344567e-07
-3.55970313375861e-07
-1.8199089331261e-07
-7.05361339593495e-09
-1.60751087303086e-08
-1.78163341906253e-07
-4.09937537506461e-07
-1.08246623728095e-06
-1.78836854386161e-06
-2.76797304820809e-06
-3.97082446928524e-06
-5.74176634385559e-06
-7.56862723625375e-06
-9.4494853038676e-06
-1.0882458715178e-05
-1.16315459792304e-05
-1.03827736536578e-05
-9.10001475458545e-06
-8.46098755414198e-06
-8.36053144392053e-06
-9.55300973964262e-06
-1.3348942237198e-05
-2.32840514527601e-05
-3.52352834683373e-05
-5.61058031286285e-05
-9.7230902545876e-05
-0.00014025139721978
-7.72361097390997e-05
-7.25931419011135e-06
-4.82237741880758e-06
-2.1979706351322e-06
-3.25037839842151e-07
-7.14922761041881e-05
-1.54893744125047e-05
-4.62319973733786e-05
-8.16767675513848e-06
2.83614208197296e-06
-3.08783474580172e-06
-3.00297751936069e-06
-1.20601184388198e-06
-4.43224338176541e-07
-2.32554965890477e-07
-1.0717993283773e-07
-4.56747572133292e-08
-1.57264390607072e-08
-2.76540854992325e-08
-4.62483934743499e-08
-7.55608670336335e-08
-1.18187911265273e-07
-1.76019570942303e-07
-2.44766988228919e-07
-3.12167406119845e-07
-3.64508593243387e-07
-3.95709759190605e-07
-3.92195891853361e-07
-8.44832597197618e-07
-1.21486386188144e-06
-1.13730590785519e-06
-3.70519872785149e-07
-1.15620152380209e-06
-2.46400645649865e-06
-3.42262017336904e-06
-4.30830275381386e-06
-5.05326464193894e-06
-5.69311351064905e-06
-6.22159100573315e-06
-6.6726142285393e-06
-7.04806707321594e-06
-7.36437829395813e-06
-7.62326376957505e-06
-7.83118682472156e-06
-7.98986340603888e-06
-8.1039802915655e-06
-8.17879082410208e-06
-8.22190554627229e-06
-8.24070405782063e-06
-8.2460833257042e-06
-8.27020803889997e-06
-8.76885479655916e-06
-1.23951930754632e-05
-1.59322291203728e-05
-1.94700870244164e-05
-2.29676953614756e-05
-2.63858766000989e-05
-2.96904273177964e-05
-3.28514415047746e-05
-3.58430520072003e-05
-3.86419121901125e-05
-4.12283047474857e-05
-4.35847742413697e-05
-4.56974425828386e-05
-4.75559208710006e-05
-4.91533789708551e-05
-5.04871163650717e-05
-5.15570137621739e-05
-5.23664962850258e-05
-5.29184698915593e-05
-5.32181329390206e-05
-5.32679554183292e-05
-5.3073550392644e-05
-5.26470864157372e-05
-5.20034539787394e-05
-5.11621771045545e-05
-5.01424534748219e-05
-4.89635508273547e-05
-4.76414933535887e-05
-4.61889764308188e-05
-4.46132902382336e-05
-4.29170691047991e-05
-4.1102989033884e-05
-3.91782111809741e-05
-3.71461092582689e-05
-3.50152489342645e-05
-3.27722711680669e-05
-3.04172563727251e-05
-2.78917759563306e-05
-2.51953677614228e-05
-2.21895599017134e-05
-1.89169882042247e-05
-1.50952963873318e-05
-1.09394089774291e-05
-6.08325899945723e-06
-1.49427931739141e-06
1.36283364806202e-06
-9.47612819956098e-07
-6.31562895626399e-06
-1.38674179119375e-05
-2.84245445689367e-05
-4.42303227004902e-05
-6.48031904303404e-05
-9.02810445346647e-05
-0.000126291140262979
-0.00016272514535243
-0.000198881563369641
-0.00022727141999318
-0.000242216362875408
-0.000223778244068146
-0.000201855547438436
-0.000189344125118669
-0.000187257648091297
-0.000208102940163066
-0.000277910538556887
-0.000451203622590735
-0.000675346897673082
-0.00104887245081195
-0.00171913427920451
-0.00243926698510921
-0.0016425717849858
-0.000437532747202282
-0.000300617229072905
-0.000157032583350923
-3.14002707937334e-05
2.58633853495487e-05
-0.000115981639634231
-0.000379943941949746
-0.00012849074697917
4.54866452764139e-05
-1.08500124013672e-05
-1.55993808768304e-05
-6.08377884802906e-06
-2.3872778238488e-06
-1.27839835650358e-06
-6.22375015136696e-07
-3.01039084957806e-07
-1.81594834554512e-07
-2.97220789045453e-07
-4.76940674598183e-07
-7.64921578978555e-07
-1.19988754229653e-06
-1.8046793616247e-06
-2.55478965002641e-06
-3.35833771452155e-06
-4.08599698002438e-06
-4.61822001706293e-06
-4.81647171027799e-06
-5.10673597542573e-06
-6.29551073287867e-06
-4.30196992308501e-06
-4.55570142668936e-06
-1.0870080905907e-05
-2.17780291389761e-05
-2.96827105963263e-05
-3.74235481286446e-05
-4.38841223776665e-05
-4.96919396425511e-05
-5.45908390963443e-05
-5.89260879937593e-05
-6.26494686320185e-05
-6.5927377620537e-05
-6.87650123409995e-05
-7.12365771530538e-05
-7.33637069991278e-05
-7.51992769025564e-05
-7.67962345475035e-05
-7.8231658980742e-05
-7.95749465476594e-05
-8.09150578757125e-05
-8.4838531304066e-05
-0.000101146207449957
-0.000114554813457753
-0.00012761081144886
-0.000140215791735256
-0.000152280419360968
-0.000163726652758995
-0.000174490722484628
-0.000184520418379996
-0.000193772741167788
-0.000202211453832491
-0.000209807908649021
-0.000216539692845101
-0.000222392202723122
-0.000227358652755109
-0.000231439664460986
-0.000234642976345065
-0.000236980111517007
-0.000238465791616693
-0.00023911215166311
-0.000238933491349371
-0.000237943036811057
-0.000236165316357576
-0.000233640334903002
-0.000230415089045738
-0.000226544247722849
-0.000222079850816521
-0.000217069788210149
-0.000211549388990683
-0.000205539611079891
-0.000199044860445866
-0.000192060104678523
-0.000184583576609288
-0.000176622782058304
-0.000168171585772749
-0.000159222491500127
-0.00014969764846535
-0.000139523582805747
-0.00012845198263204
-0.000116340569271467
-0.000102640655795059
-8.72156700623843e-05
-6.89831042513369e-05
-4.82045678528101e-05
-2.34606923096536e-05
2.43944368504096e-06
1.17636555601608e-05
-4.50188828519272e-06
-4.35761597756306e-05
-8.83507394949329e-05
-0.000157902140938369
-0.000232844456067552
-0.000326657732841363
-0.000447859757505775
-0.000610134219601433
-0.000769579261999615
-0.000929434032120392
-0.00106302186652583
-0.00114478872096107
-0.0011079367146282
-0.00104556323087342
-0.00100868233813201
-0.00101278649849117
-0.00110927873012696
-0.00141571562321801
-0.00212087235033051
-0.00305212469338268
-0.00446228343763211
-0.00661812516531815
-0.00873966453089155
-0.00663148033429288
-0.00287912858863694
-0.00183576283023164
-0.00101005059591589
-0.000156025752702177
0.000248032510348427
-0.000213049971379252
-0.00117050525178758
-0.000690651861970593
0.000234434061524679
9.51354455061517e-07
-4.27638135861676e-05
-1.64060592682428e-05
-6.92804829637972e-06
-3.86672830666531e-06
-1.97873281042906e-06
-1.07963565377741e-06
-8.86766104553683e-07
-1.40040076094914e-06
-2.19072313967911e-06
-3.4739683634062e-06
-5.44724730562422e-06
-8.22657081211487e-06
-1.17459175135246e-05
-1.56661698050081e-05
-1.93823247811666e-05
-2.22456033600263e-05
-2.34544226418929e-05
-2.147278187812e-05
-1.67072438105072e-05
-1.52422756861204e-05
-1.81141761832177e-05
-4.14379952922739e-05
-7.65667774601902e-05
-9.75995445171185e-05
-0.000120739019922815
-0.0001384644232109
-0.000155131898322287
-0.000168860000418086
-0.000181311900230894
-0.000192041025939119
-0.000201768467672525
-0.000210458984427655
-0.000218424630506952
-0.000225734139683211
-0.000232569671860203
-0.000239078317542149
-0.000245500523211599
-0.00025202952964829
-0.000264983135903262
-0.000294919320234891
-0.00031171743542331
-0.000327542544888076
-0.000342207986297189
-0.000355702194324895
-0.000368023819103288
-0.000379178827175928
-0.000389176567426096
-0.000398028686542712
-0.000405747363303799
-0.000412346926798743
-0.000417843383976081
-0.000422257078676185
-0.000425611523417845
-0.000427934116461993
-0.000429254467417332
-0.000429601851163689
-0.000429002519954092
-0.000427475944619554
-0.000425036269393494
-0.000421696331589025
-0.000417478933455931
-0.000412422189584388
-0.000406575103460088
-0.000399989742017468
-0.000392716221193177
-0.000384797317855637
-0.000376264104916931
-0.000367127681719841
-0.000357375431836178
-0.000346975692468917
-0.000335893813468362
-0.000324102932490908
-0.00031157967359231
-0.000298275971865741
-0.000284116895247633
-0.00026892842637756
-0.000252492807892457
-0.000234363948431528
-0.000214129555246513
-0.000190843416245694
-0.000163858665212483
-0.000131264577771204
-9.24974324148411e-05
-4.44467906000994e-05
1.11034474342006e-05
3.60792285340986e-05
3.74888928599513e-06
-0.00010266275435575
-0.000197968494021339
-0.000326055140302957
-0.000460107203881094
-0.000637818775421375
-0.000854258330555014
-0.00111951009335281
-0.00138941687589883
-0.00166289830928572
-0.00191000354497292
-0.00209239332484138
-0.00213162246633717
-0.00212329335191902
-0.00213301433293507
-0.00219866998409058
-0.00240228730619311
-0.00294892742344239
-0.00407628482452317
-0.00557330945019593
-0.00760991738208745
-0.0101354280784609
-0.0126043186312503
-0.0104905318487341
-0.00656951451421884
-0.00368297657918001
-0.00143675190138069
0.000637445371488778
0.00168600819239391
0.000433525775647206
-0.00113136858327558
-0.00124233571576056
0.000375254504372188
5.97590458358862e-05
-7.23862700747976e-05
-2.7997517519667e-05
-1.32607980582289e-05
-8.02041666566312e-06
-4.32722538863431e-06
-2.67022458985984e-06
-2.75723668824688e-06
-4.31703780349693e-06
-6.66190067003221e-06
-1.04480787314942e-05
-1.62117205325799e-05
-2.42099589025766e-05
-3.41495729783748e-05
-4.49507742320616e-05
-5.47221671028589e-05
-6.170923113326e-05
-6.41796373462676e-05
-6.06589087873061e-05
-5.13681688657923e-05
-4.01712930260691e-05
-3.72220670862506e-05
-8.31473743258101e-05
-0.000137015659524517
-0.000164250131952432
-0.000206170624922861
-0.000235768744824812
-0.000266229064350212
-0.000290731763427203
-0.000313438865274825
-0.000332802646647353
-0.000350421150625398
-0.000366091500379836
-0.00038044363454094
-0.000393565942855722
-0.000405764028195913
-0.000417237165525587
-0.000428419205444861
-0.000444178032165091
-0.00047877449926964
-0.000490530739230607
-0.000501708378842789
-0.000511523820823759
-0.000519964645574438
-0.000527102933542993
-0.000533016479403069
-0.000537781430328592
-0.000541463759224721
-0.000544120135382338
-0.000545798857478777
-0.000546544483644666
-0.000546398287686711
-0.000545402743745221
-0.000543599182949702
-0.000541028802537565
-0.00053773020016642
-0.000533736346296752
-0.000529072122637442
-0.000523750279803777
-0.000517775992127365
-0.000511152229081564
-0.000503897327408558
-0.000496046162663971
-0.000487640239285374
-0.000478718770797688
-0.000469312152251506
-0.000459440853194278
-0.000449111230195132
-0.000438308033482434
-0.000426989608439697
-0.000415096543026458
-0.000402572034686667
-0.000389369971117179
-0.000375444260249597
-0.000360719413724594
-0.000345082023236499
-0.00032831453057039
-0.000310133786328304
-0.000290025725598476
-0.000267457505691956
-0.000241358262889053
-0.000210816812759717
-0.000173600764796223
-0.000128545029306615
-7.14031987149139e-05
-2.2242258405232e-06
5.49469880370221e-05
2.91467331380892e-05
-0.000128689678843691
-0.000248342270629337
-0.000395325387882886
-0.000574302089872915
-0.000761480997479454
-0.000985972990636973
-0.00125912690972801
-0.00153655453757502
-0.00181899624061067
-0.0020867136568034
-0.00230624896410326
-0.0024226619654333
-0.00249250453945464
-0.00256140494694432
-0.00267175430103231
-0.00289747800926403
-0.00344227369629472
-0.0044658881009349
-0.00586811504663887
-0.00772665550753644
-0.00967998405255317
-0.0121019851599346
-0.0108567337908638
-0.00903246250872955
-0.00545355302793712
-0.001802399984245
0.00277556233056378
0.00268758590210807
0.00128320137266368
0.000399854213570691
-0.000678527382892316
0.000592119988294314
0.00024958328046539
-5.54655128653322e-05
-2.25482841819623e-05
-1.53683834221542e-05
-1.15960376771768e-05
-6.81659444851203e-06
-4.95235781869141e-06
-6.38317462526816e-06
-1.00860230361563e-05
-1.53866865190824e-05
-2.36469860707761e-05
-3.56563472655052e-05
-5.14125188227736e-05
-6.95969094542743e-05
-8.75188396925518e-05
-0.000101656948608032
-0.000109847491628145
-0.000110460934369086
-0.000102359074255969
-8.61005339707273e-05
-6.67926577230036e-05
-6.35959791764521e-05
-0.000130254647409259
-0.000189817580532009
-0.000234415228151191
-0.000304081984751953
-0.000349305392381131
-0.000394473655852829
-0.000428237428444788
-0.000458261122500118
-0.000482464611325918
-0.000503567925561787
-0.000521456892239904
-0.000537145265497532
-0.000550836570383425
-0.00056297732479245
-0.000573807897503967
-0.000582601942198211
-0.000617001488610395
-0.000622890223212614
-0.000628686532892373
-0.000633434141281616
-0.000636871809105376
-0.000639050952827053
-0.000640077841147907
-0.000640061618238327
-0.000639106670684584
-0.000637300835668013
-0.000634715781825653
-0.000631410099984839
-0.000627434875264885
-0.000622836091168809
-0.000617658854517056
-0.000611945504301588
-0.00060573639522247
-0.000599067211816587
-0.000591966384668048
-0.000584452194665282
-0.000576529462473031
-0.000568193169380655
-0.000559435708975393
-0.000550264527030815
-0.000540705122132793
-0.000530789174234975
-0.000520542665663552
-0.000509980380658593
-0.000499106341327904
-0.00048791117728454
-0.000476364467096192
-0.000464408956205612
-0.000451969694292595
-0.000438976035859604
-0.000425370063824212
-0.00041109419577355
-0.000396061103199013
-0.000380144968509147
-0.000363118389172509
-0.000344684729982681
-0.000324325643518766
-0.000301483340567506
-0.000275093096431101
-0.000244180310837977
-0.000206481486086173
-0.000160646904982292
-0.000102044004686825
-3.08204955895375e-05
5.33456503118007e-05
4.66302796782378e-05
-0.000128000506357409
-0.000263078595732878
-0.000430139327925155
-0.000589467990156812
-0.000766737077192259
-0.000975002356475427
-0.00121873379189246
-0.00146378575902677
-0.00171300859377185
-0.00195475873984884
-0.00216345178289037
-0.00230163957052639
-0.00239669235937016
-0.00247169781224162
-0.00256112070255048
-0.00272054582784382
-0.00311626794049265
-0.00384100802929195
-0.00488639287355115
-0.00635325283823731
-0.0077591481058756
-0.0100464601570827
-0.00954842516232814
-0.01027599201977
-0.00723418461569328
-0.00510092134022659
0.00207964482920078
0.00171050391003555
0.00102256065437638
0.00213695981855919
0.00040487894985492
0.00136228531353154
0.000886092798676458
8.85781374143406e-05
3.70832676367491e-05
1.85149439755721e-06
-8.2556687555874e-06
-6.57094624717524e-06
-6.7691661777877e-06
-1.16424871928328e-05
-1.88663629436624e-05
-2.83664473004477e-05
-4.21766699605882e-05
-6.07212623243515e-05
-8.30180114487291e-05
-0.000106213517311288
-0.000126647229063377
-0.000140957502621249
-0.000148072599722652
-0.000147172960605444
-0.000138158850330833
-0.000122677294088136
-0.000109376220377915
-0.000124506063139756
-0.000212207724773443
-0.000271454314761124
-0.000340500673584871
-0.000428941504104987
-0.000483160448373638
-0.000534525682214615
-0.000570542814917556
-0.000601241788720439
-0.000624637579002971
-0.000644123637566972
-0.000659758300169142
-0.000672762602841928
-0.000683435228656455
-0.00069229125065883
-0.000699828226979154
-0.000723387325056542
-0.000727601986582098
-0.000729163562787385
-0.00073005714495674
-0.000729850630333301
-0.000728464418795899
-0.000725976715639728
-0.00072250511660678
-0.000718170226175073
-0.000713088867799025
-0.00070735898226071
-0.000701058008331481
-0.000694247371540994
-0.000686978219576676
-0.000679295792507127
-0.000671242946740423
-0.000662859200254613
-0.000654181232589946
-0.000645240262173687
-0.000636060083790823
-0.000626653656082111
-0.00061702028572844
-0.000607147111752132
-0.000597017478104779
-0.000586627239102778
-0.00057599223586006
-0.000565135887334313
-0.0005540740339888
-0.00054281070679097
-0.000531339120889041
-0.000519640634524525
-0.000507676572116473
-0.000495381162690673
-0.00048266967706621
-0.000469461231369949
-0.000455689251238799
-0.000441289029862175
-0.00042616757154595
-0.000410195332946018
-0.000393145746789644
-0.000374722468853619
-0.000354418776221375
-0.000331674177597819
-0.000305459776415159
-0.000274791473204429
-0.000237451561691445
-0.000189253729457948
-0.000127928334583647
-5.84779293335461e-05
3.32665150058924e-05
4.08377114814294e-05
-0.000133203233856091
-0.000270894087040899
-0.000424549367176397
-0.000576781701371805
-0.000740863536895032
-0.000928198733353022
-0.00114027769123473
-0.00135062095088993
-0.00156431007354213
-0.00177450431255307
-0.00196169902704269
-0.00209628396598294
-0.00218880306819869
-0.0022455787944405
-0.00229023820513574
-0.00236288853946564
-0.00259237312705244
-0.00304085398004232
-0.00373651539229511
-0.00482754174799157
-0.0058532384964023
-0.00795439285319386
-0.0081110353540145
-0.0108571163209308
-0.00863060589754675
-0.00847966166195957
-0.00165776532001592
-0.000642450062387322
-0.00055884485496031
0.0035371546140463
0.000861155933468304
0.0024981735282268
0.00219301505309067
0.00041525617741918
0.000185060508830658
5.97179593463615e-05
1.2716815617678e-05
1.72138901628369e-06
-5.42098788978297e-06
-1.68603676930056e-05
-2.89112367746556e-05
-4.30099945752867e-05
-6.16991448711149e-05
-8.47079998952779e-05
-0.000110374837746798
-0.000135267952565681
-0.000156347684642278
-0.00017129829803857
-0.000179710988553666
-0.000181304272005518
-0.000177404829431798
-0.000171903519832645
-0.000177483307447428
-0.000220355419363864
-0.000318616175376701
-0.000373232446814549
-0.000462784227119165
-0.000557449986054666
-0.000614478734453513
-0.000665444246026148
-0.000699554904763183
-0.00072742518756403
-0.000747564127412004
-0.000763512649722229
-0.000775508494432391
-0.000784805632103232
-0.000791756263264896
-0.000796827662789775
-0.000798245977386848
-0.000817231891757569
-0.000815528323046239
-0.000813570823578475
-0.00081076628704081
-0.000806910765291203
-0.000802000576000942
-0.000796126638641317
-0.0007894088309166
-0.000781971700668149
-0.000773938939048679
-0.000765414758578914
-0.000756479612250554
-0.000747195617145218
-0.000737612233525011
-0.00072777242522346
-0.000717715628963032
-0.00070747772929819
-0.000697091431673861
-0.000686583785164262
-0.000675974851310491
-0.000665273863764024
-0.000654476504123774
-0.000643564049220126
-0.000632511976647166
-0.000621305013034135
-0.000609949980981093
-0.000598463561538947
-0.000586854029940537
-0.000575117880383266
-0.000563241188671838
-0.000551199851224006
-0.000538950854816969
-0.000526423637694376
-0.000513526608458864
-0.000500170429521368
-0.000486281283381221
-0.000471788999859071
-0.000456597349189309
-0.000440575694742657
-0.000423501479325613
-0.00040508117039268
-0.000384822157434675
-0.000362163265829417
-0.000336112844604451
-0.000303456795799909
-0.000260514473828033
-0.000215037321647979
-0.000157365943887484
-8.77537891918953e-05
6.34672875576647e-06
1.75658445163291e-05
-0.000140722405441582
-0.000269666438831787
-0.000413930511027355
-0.000557413319549308
-0.000708422642564579
-0.000876520270692299
-0.0010615515163478
-0.00124240949384967
-0.00142640381079847
-0.00160954921178954
-0.00177645625100585
-0.00189983718250934
-0.00198078474591453
-0.0020141639956323
-0.0020136733294629
-0.00200794109250357
-0.00209577395512612
-0.00232986842387877
-0.00274598108914627
-0.00352432456258526
-0.00429854720429127
-0.00621088171806325
-0.0069548925471936
-0.0110295567690396
-0.0102532521574756
-0.010318423290644
-0.00566812247385962
-0.00325826547261058
-0.00292891790306537
0.00436907783426544
0.000559014752175503
0.00431012438528403
0.00292060048685374
0.000951054195595953
0.000414397644295115
0.000169711489704501
6.07136086803656e-05
2.37407380437607e-05
2.73609499663063e-06
-1.90154124936127e-05
-3.72346596820946e-05
-5.60040952011689e-05
-7.8551418366618e-05
-0.000104417635465087
-0.000132135650016079
-0.000158458014938374
-0.000181298718185244
-0.00019900601940459
-0.000211372124254654
-0.000218887212709627
-0.000224599232428751
-0.00023464730643583
-0.000263484561060448
-0.000330455118962738
-0.000426997751479141
-0.000479797287940084
-0.000583194897437642
-0.000676239201091117
-0.000732521647293744
-0.000779953888807033
-0.000810732850723833
-0.00083478822962394
-0.000851277700004829
-0.00086355034515682
-0.000872012735986679
-0.000877855928530579
-0.000881469885617421
-0.000883541523413641
-0.000897772676623885
-0.000893214143510054
-0.000889067245304122
-0.000884376879744787
-0.000878801825409955
-0.000872249593845532
-0.000864752956693259
-0.000856407965390464
-0.000847332175661646
-0.000837650140174507
-0.000827489625470295
-0.00081695922531613
-0.000806141098538588
-0.000795097066524775
-0.000783874126939584
-0.00077251224941233
-0.000761047048480371
-0.00074951050651399
-0.000737931436043154
-0.000726333111807521
-0.000714732570244624
-0.000703136446412663
-0.000691538032228364
-0.000679914156554049
-0.0006682332890395
-0.000656469677702448
-0.000644621766081837
-0.000632700627809519
-0.000620708844531996
-0.000608637463268576
-0.000596467814937163
-0.000584172692750557
-0.000571707152421535
-0.000558998077661573
-0.000545948801481896
-0.000532462650510781
-0.000518459319933381
-0.000503863862081226
-0.000488577812977356
-0.000472470125295437
-0.000455322990866988
-0.00043684533753704
-0.000416557569484022
-0.000393895366972293
-0.000362310089271938
-0.000328276478439896
-0.000290768161517876
-0.00024523052467958
-0.000187629282275279
-0.000117920958035996
-2.23794703758605e-05
-7.39653674616455e-06
-0.000150909580357682
-0.000268658473531041
-0.000402778483216008
-0.00053697145941203
-0.000675780784338637
-0.000827014788323155
-0.000989578843234851
-0.0011461907124955
-0.00130627495215066
-0.00146759720817712
-0.00161730549368123
-0.00172764588624544
-0.0017943732323248
-0.00180467334852237
-0.00176407614756312
-0.00169268252408931
-0.00166647570072306
-0.0017377876601353
-0.00193891074010514
-0.00246416453111468
-0.00307037944292913
-0.00481408410392517
-0.00607729612162837
-0.0119950390292933
-0.0118645860956631
-0.0114441757141932
-0.00869614927774296
-0.00558339133530076
-0.00538467346767499
0.00430009835715435
4.39530994052434e-05
0.00586636511719839
0.00370116891003885
0.0014463061442913
0.000689150291026575
0.00032205860529703
0.000135854739581623
6.15051056331568e-05
2.02956598435975e-05
-1.55651969081029e-05
-4.1767290970622e-05
-6.58306457190322e-05
-9.19772073254479e-05
-0.000120313893803264
-0.000150091516358964
-0.000178508702353582
-0.000204338808105404
-0.000226398074290522
-0.000244603742713582
-0.000260373214900322
-0.0002782656760408
-0.000305712916341691
-0.000356134930828387
-0.000439597985158533
-0.000528805101776912
-0.000583708174862577
-0.000693670098251157
-0.000781532461330743
-0.00083544385195878
-0.000878452133057041
-0.000905795180084328
-0.000926142646946169
-0.000939313219490165
-0.000948325467751666
-0.000953744267778208
-0.000956665193155393
-0.000957474674403387
-0.000955584733491083
-0.000964899145859638
-0.00095883005265586
-0.000952711762083795
-0.000945931755068612
-0.000938286986808603
-0.000929744075336336
-0.000920354285345717
-0.000910213848251603
-0.000899435047290881
-0.000888139725098509
-0.000876457845055375
-0.000864501067393016
-0.000852352317836616
-0.000840072443017239
-0.000827705424250911
-0.000815287721922949
-0.000802850902414182
-0.00079042286077882
-0.000778028606398653
-0.000765687898265081
-0.000753415197577325
-0.000741215273923737
-0.000729079854218893
-0.000716982365344931
-0.000704884963706969
-0.000692752057547261
-0.000680574226214894
-0.000668357763654272
-0.000656100926504449
-0.000643790724399386
-0.000631405374908755
-0.000618916116809108
-0.000606277669050387
-0.000593415864936542
-0.000580230235018832
-0.000566617584197982
-0.000552491566098583
-0.000537772720730769
-0.000522360688656445
-0.000506123963693117
-0.000488849265607802
-0.000470246913752239
-0.000449847823922171
-0.000419584961783557
-0.000391096011738574
-0.00035984478721702
-0.00032216396311017
-0.0002764238165332
-0.00021870936532117
-0.000148777117038188
-5.19118143980485e-05
-3.33158355707374e-05
-0.000163752352907498
-0.000269076328487481
-0.000392551586460932
-0.000517150626185183
-0.000644494225836822
-0.000780822332688464
-0.000924461460726871
-0.00106093716887747
-0.0012016113200948
-0.00134531608757814
-0.0014804942796488
-0.00157757571283613
-0.00162935618646303
-0.00161792656926668
-0.00154233697452739
-0.00141614098071755
-0.00129824434960298
-0.00124363567153356
-0.00127773030389751
-0.00159670312321753
-0.00208777431651677
-0.00368975098631477
-0.00540874976493021
-0.0116774285341942
-0.0131297909232088
-0.0123932835051731
-0.0107768442082715
-0.00753912546304852
-0.00742790943634285
0.00311953977471359
-2.34135137408027e-05
0.00682018653064426
0.00444942005200605
0.00209494936463248
0.000993449378794097
0.000497782718619779
0.000229957721154641
0.000112104269569524
4.73825562412201e-05
-5.72558133005139e-06
-4.18913645010402e-05
-7.21608372391799e-05
-0.00010198823408533
-0.000132817828636905
-0.000164909821243465
-0.000196083414281913
-0.000225874014611995
-0.000253489329747779
-0.000278897105679622
-0.000304336828257488
-0.000335372142269488
-0.000379570788834667
-0.000447536061532554
-0.000541167409360735
-0.000622483419177994
-0.00068100739946232
-0.000791975519579017
-0.000873774270943299
-0.000924751257402894
-0.000963456236833568
-0.00098767787284781
-0.00100474205403242
-0.00101505970432823
-0.00102130368265445
-0.00102418013963732
-0.00102469276754404
-0.00102333109178193
-0.00101904900265845
-0.00102410567759769
-0.00101673453308181
-0.00100908157716768
-0.00100073304901553
-0.000991566301347028
-0.0009815805126303
-0.000970835735526246
-0.000959424863878923
-0.000947452669143065
-0.000935036072922838
-0.00092230572994129
-0.000909375259331997
-0.000896327508877897
-0.000883221776348424
-0.000870098516353622
-0.000856990218988829
-0.000843924216190254
-0.000830924116048248
-0.00081801116203235
-0.000805201715025441
-0.00079250791049904
-0.000779933111252849
-0.000767468052965492
-0.000755083581991679
-0.000742736161339897
-0.000730380950474835
-0.000718001057740761
-0.000705598615073157
-0.000693168584386089
-0.000680694926061611
-0.000668153901321778
-0.000655516256845427
-0.000642737487424285
-0.00062974348097371
-0.00061643097803632
-0.000602690902116459
-0.000588431128285704
-0.000573567728267587
-0.000557998424787083
-0.000541590880641424
-0.000524135667425845
-0.000505342930908506
-0.00047627579985922
-0.000451440577863854
-0.000424351041688011
-0.000392757430031408
-0.000354756206488742
-0.000308654829821919
-0.000250630866165342
-0.000180278909056757
-8.19262246363554e-05
-5.99734263599104e-05
-0.000179041505599617
-0.000271367884680453
-0.000383778168030994
-0.000498499265096612
-0.000614851712466289
-0.000737722805294663
-0.000865040638343826
-0.000984458657982063
-0.00110906417007856
-0.00123827198363824
-0.00136082799662812
-0.00144476794244453
-0.00148140675233526
-0.0014495335217422
-0.00134313449179612
-0.00117056136853188
-0.000977998761465683
-0.000823251246321835
-0.000724105101441537
-0.000871516312844516
-0.00128034329992697
-0.00276622599625763
-0.0048868298691057
-0.0115146214963841
-0.0140938736661155
-0.0132566727540676
-0.0121779597442034
-0.00919093039222029
-0.00886007775252141
0.000947239108997772
0.000847101778052142
0.00675378189925304
0.00510350016235508
0.00329584019896308
0.00135231288030154
0.000685496602555333
0.000334775513778176
0.000170752058287648
7.5272835222618e-05
1.01546179606747e-05
-3.73822044956433e-05
-7.45529292191862e-05
-0.000108209640283132
-0.000141740878676756
-0.00017652453587621
-0.000211112623701525
-0.000245693184741586
-0.000279788708682222
-0.000313311424084809
-0.000349072951135587
-0.000393078653057141
-0.000452137753144709
-0.000533463776577805
-0.000633214567206009
-0.000708059403693542
-0.000769915132170332
-0.000878569070329565
-0.000954630177563643
-0.00100258152677193
-0.00103744569760676
-0.00105892532147485