/*--------------------------------*- C++ -*----------------------------------*\
  =========                 |
  \\      /  F ield         | OpenFOAM: The Open Source CFD Toolbox
   \\    /   O peration     | Website:  https://openfoam.org
    \\  /    A nd           | Version:  7
     \\/     M anipulation  |
\*---------------------------------------------------------------------------*/
FoamFile
{
    version     2.0;
    format      ascii;
    class       volScalarField;
    location    "20000";
    object      k_diff;
}
// * * * * * * * * * * * * * * * * * * * * * * * * * * * * * * * * * * * * * //

dimensions      [0 2 -3 0 0 0 0];

internalField   nonuniform List<scalar> 
15600
(
0.00142915638604656
0.0012959356938025
0.000758740354480307
0.000330363047528559
0.000100102581081131
5.81144057957917e-05
5.20927854868633e-05
2.85315534374204e-05
1.43874545342398e-05
8.63916373979323e-06
5.73342616632347e-06
4.48552343595988e-06
4.24715083962125e-06
4.55371149548519e-06
5.32308414949651e-06
6.58386648375077e-06
8.35273094391925e-06
1.05424992703952e-05
1.31046948406157e-05
1.59027672230598e-05
1.86905716724229e-05
2.12167424040865e-05
2.3495892474819e-05
2.54946551454571e-05
2.69297500726803e-05
2.77563162470132e-05
2.87302526902628e-05
3.21116006189157e-05
4.31124817815364e-05
5.97657542706816e-05
7.76248768574201e-05
9.63741518420182e-05
0.000115538034636691
0.000134913418539609
0.00015431984819817
0.000173695793840372
0.000192977070920961
0.000212132825502294
0.000231124394156776
0.000249918172883786
0.000268475144782309
0.000286759123520101
0.000304738782885367
0.000322392640321263
0.000339708715417178
0.000356691700455445
0.000373405800937306
0.000389717157472364
0.000405219585035232
0.000419883761404374
0.000433656877760872
0.000446496207068868
0.000458369578228537
0.000469253313325342
0.00047913092143212
0.000487991624095358
0.000495830647012649
0.000502648262774428
0.00050845060180585
0.000513249254294654
0.000517060977227282
0.000519907267507819
0.000521812560214664
0.000522803606248285
0.000522906317366051
0.000522147339134352
0.000520552423712414
0.000518152888775224
0.000514987514862429
0.000511098680465662
0.0005065317177612
0.000501329404203745
0.000495530780221115
0.000489167507637258
0.000482262450427276
0.000474827416731596
0.000466865876263036
0.000458380363736598
0.000449375718346749
0.000439851491889252
0.000429801979235415
0.00041919315392008
0.000407976714025501
0.000396039789993358
0.000383271974002863
0.000369435521170421
0.000354358739906025
0.000337578255844739
0.000318937539351719
0.000297714510248646
0.000274094626915379
0.000246948218543165
0.000230047907075079
0.000244170623847644
0.000273138715164248
0.00031749810464704
0.00037215485685419
0.000440176501815185
0.000524832170122089
0.000631976594327843
0.000751713631993984
0.000879346479155641
0.00100511892488698
0.00111926134840125
0.00119698864548984
0.00125908480105346
0.00132724035447257
0.00141405826162992
0.00154124588805669
0.00174913306126579
0.00211373352888553
0.00259832702857388
0.00325136055339953
0.00417638527465632
0.00516518742914803
0.00528644770912184
0.00366109984229764
0.00246387079585836
0.00164883784220633
0.00140753064230767
0.00765921151469165
0.00699637026304402
0.0041231038559311
0.00182743500402483
0.000565511569410709
0.000317521512244028
0.000284241665538225
0.000158594054500708
8.04376196274874e-05
4.80552330157362e-05
3.17757214052739e-05
2.47007256226497e-05
2.32459435752589e-05
2.47952082591458e-05
2.88770533435371e-05
3.56312681501863e-05
4.51634503678132e-05
5.70134460833843e-05
7.09251978229225e-05
8.61882743250351e-05
0.000101487437420083
0.000115425726878666
0.000128043506103071
0.000138692608649311
0.000146369606596901
0.000151138978553957
0.000157451680290887
0.000175917602571444
0.000235080931748375
0.000324393703397788
0.000420075695683131
0.000520223316832235
0.00062231747023006
0.000725340959488687
0.000828369926422788
0.00093112703701752
0.001033302425917
0.00113476861985516
0.00123534850758316
0.0013348926817236
0.00143321860859902
0.00153015655405853
0.0016255581437674
0.00171932533992339
0.00181140503393512
0.00190181046988134
0.00199044455201861
0.00207396293194616
0.00215348531034345
0.00222870079650115
0.00229937039843935
0.00236530260554677
0.00242635306487383
0.0024824148722819
0.00253341240334228
0.00257929569248816
0.00262004123756126
0.00265564896601766
0.00268614557397613
0.00271158301262794
0.00273203729765937
0.002747605990906
0.00275840063498152
0.00276454255861386
0.0027661506958818
0.00276334692268877
0.00275625305856117
0.00274501909053545
0.00272982982874751
0.00271088851292936
0.00268841118570924
0.0026626024704779
0.0026336485023891
0.00260170072562148
0.00256686800240738
0.00252920643166835
0.0024887328933294
0.00244545972108362
0.0023994073787451
0.00235057245823799
0.00229891789867365
0.00224427758852508
0.00218639344826689
0.00212472103844435
0.00205866547556015
0.00198709052876907
0.00190902033161246
0.00182224605637573
0.00172568160091337
0.00161579246813976
0.00149252933842095
0.00134990081469685
0.0012596965263493
0.00133416115890909
0.00148683901161695
0.00171688501158284
0.00200240868264007
0.00235673919092051
0.0027975162542531
0.00334831536955732
0.00396393775540767
0.00461945153953238
0.00526878101082316
0.00586310117563809
0.00629438001860054
0.00665016993787329
0.00703248821766675
0.00750805710053485
0.00818325917542076
0.00925204653450106
0.0110501399847246
0.0134157443091933
0.0164932875991485
0.0205933861445871
0.0247087040320106
0.0256351941474914
0.0185734908477032
0.0127563617129507
0.00877336483346431
0.00760003964720156
0.0165569423980061
0.0152430601161743
0.0094243816727173
0.00444959646716698
0.00146215894036443
0.000759974609629668
0.000673545110800013
0.000384788676197716
0.000196918014649627
0.000117260803562514
7.74107839870378e-05
5.99037738060307e-05
5.60773948736246e-05
5.94624825390713e-05
6.89311871007872e-05
8.47353325360437e-05
0.000107092741816774
0.000134881276497284
0.000167435430962584
0.000203087648145108
0.000238787865762199
0.000271333343173839
0.000300833052263331
0.000325695950119319
0.000342771211365949
0.000356328887196355
0.000372162171619582
0.000415936457977618
0.000546281862026995
0.000738589237826804
0.000940780953914419
0.00114965680503419
0.00136006535244103
0.00157098100267937
0.00178085347483483
0.00198968814345617
0.0021971254014289
0.0024032320766188
0.00260785326870082
0.00281088675952149
0.00301210237863086
0.00321126488624787
0.00340813014127016
0.00360253916731794
0.00379439306871126
0.00398122946952922
0.00415335073533248
0.00432064195852708
0.00448100226294813
0.00463393831067857
0.0047789877904328
0.00491575607845244
0.00504391457843193
0.00516318762746205
0.00527334505364364
0.00537419671955768
0.00546559497345754
0.0055474331709432
0.00561965212694679
0.00568223930589879
0.00573522844998809
0.00577869585692024
0.005812750192019
0.00583752454411819
0.00585315991667547
0.00585981008115825
0.00585764183987676
0.0058468779912608
0.00582780657867556
0.00580075760671089
0.0057660890954347
0.0057241486099153
0.00567525824301103
0.00561968903931071
0.00555764441093428
0.00548924028609815
0.00541452473997805
0.00533353552041524
0.00524631891086486
0.00515288652087972
0.0050531774097908
0.0049469290691026
0.0048336671500811
0.00471248239459893
0.0045822173637664
0.00444096084306957
0.00428665183376925
0.00411551382665696
0.00392466673208078
0.0037075571221323
0.0034606640460521
0.00315830587808297
0.00295308012593628
0.00308837362131151
0.00339833913116324
0.00386148522904899
0.00444854122018008
0.00517629483015427
0.00607479246209919
0.00717514685440871
0.00841396437336252
0.00973013978055952
0.0110455332485709
0.0122728867147468
0.0132544597727616
0.0141005876163398
0.0149814527229158
0.0160277206208296
0.0174208844443906
0.0194661130966101
0.0226345239348542
0.0266389030701771
0.0313742138302932
0.0368686453822818
0.0414562446131514
0.0431515523558366
0.033478292001928
0.0234832152177515
0.0173271898103762
0.0160417851051374
0.0168593857013485
0.0170127167845905
0.0125082969946128
0.00708383531416302
0.0029014690376671
0.00132294552231633
0.00112194721738639
0.000659916150529669
0.000341626469719973
0.000203041361780902
0.00013407304633901
0.000103447533741777
9.62986265144914e-05
0.000101359498844608
0.000116706388321133
0.000142423497781165
0.000178513204485734
0.000222746473301229
0.000273588527054122
0.000328001822307961
0.000381031441467348
0.00042805826299055
0.000469812612219931
0.00050581864928646
0.000533075711528533
0.00055097187149528
0.000574025633141103
0.000637801749092284
0.000808824246976055
0.00105261298750882
0.00130392033423538
0.00156509195372476
0.00182743243946714
0.00209219749587904
0.0023565800099716
0.00262106581064556
0.00288469778367889
0.00314746142295289
0.00340879022410288
0.00366830842229326
0.00392541334358908
0.00417951645968161
0.00442995262717884
0.00467622354455391
0.00491182346790242
0.00512477995955889
0.00533999978108556
0.00554673106804608
0.00574466121107028
0.00593318494803027
0.0061117759483612
0.00628000374181491
0.00643753068608163
0.00658409577566003
0.00671950293175883
0.00684361143859502
0.00695633376306778
0.00705763109099059
0.00714751606420348
0.00722604962308762
0.00729333902171124
0.00734953313375334
0.00739481369597524
0.00742938741415941
0.00745347159379848
0.00746729253381664
0.00747108320461023
0.00746511520143478
0.00744971044371071
0.00742522669502385
0.00739204266941504
0.00735052667585522
0.00730102245201263
0.00724383204222401
0.0071792009725273
0.00710729604987379
0.0070282127222033
0.0069420231673307
0.00684879701283586
0.00674858236619103
0.00664135646298704
0.0065269583252058
0.0064050003768204
0.00627481017582811
0.00613533208591012
0.00598512456744136
0.00582212852985779
0.00564341620099332
0.00544546780558969
0.00522264544153129
0.00496784249884399
0.00463042601150472
0.00436809717222958
0.00445285259945392
0.00479305324683807
0.00531739698767903
0.00601472835096109
0.00687344984405557
0.00794107532807684
0.00923725660105303
0.0107032058981267
0.0122654730644703
0.0138500443022332
0.0153729530314909
0.0167133218593691
0.0179284766065665
0.0191696196858672
0.020570339101733
0.0222928582491131
0.0245727433377083
0.0277595628727105
0.0315792965188392
0.0356034360288604
0.0397972644189915
0.0429196781235221
0.0456464313327764
0.0382585029748467
0.0252288887789124
0.0170917293214065
0.0158472784565363
0.00801623573748949
0.00961404119060538
0.0102649019654014
0.00766552336223164
0.00471827068226496
0.00202085358573222
0.00157119864295643
0.000952531597008501
0.000499263831515183
0.000296260268987766
0.000195945851377668
0.000150835789084613
0.000139283798697862
0.000145030334931506
0.000165050960821037
0.000198482259017723
0.000244167258218727
0.000297925722087217
0.000356544583645699
0.000415164897721061
0.000467466946554195
0.000509218016097856
0.000542844885510509
0.000568959141951856
0.000588168813034974
0.000606792355716675
0.000640339555026718
0.000726856409080022
0.000925773759517901
0.00120082428580913
0.00148786477326327
0.001792135300053
0.00209410194708563
0.00239623896595419
0.00269262488561947
0.00298401053735864
0.00326862273163677
0.00354653318622564
0.00381705865114497
0.00407998088712809
0.00433486443474925
0.0045813660168519
0.00481895776348659
0.00504284066837875
0.00523758443504507
0.00544155474191294
0.00563381742787076
0.00581547633137379
0.00598642946238594
0.00614650901666927
0.00629560768083661
0.00643368407267668
0.00656076207850866
0.00667691715029547
0.00678226363128815
0.00687694500173137
0.00696112897437005
0.00703500381360509
0.00709877886085204
0.00715268277710942
0.00719696289032846
0.00723188297205482
0.00725772032448577
0.00727476142483263
0.00728329485446135
0.00728360399751657
0.00727596288449332
0.0072606495725271
0.00723796068962414
0.00720821104435084
0.00717172167093896
0.00712880218199052
0.00707974033396755
0.00702479746200016
0.00696420023240616
0.0068981220846056
0.00682667675885312
0.00674994602949361
0.00666800009581464
0.00658090634287951
0.0064886869498687
0.00639132165154739
0.00628862882997888
0.0061803565711951
0.00606590788281556
0.00594473777521579
0.00581559068108844
0.00567740010435442
0.00552768486292073
0.00536437920698727
0.0051809828358601
0.0049440010797732
0.00471905982284889
0.00468799333911103
0.00493869034423426
0.00536055422981491
0.00593254771629201
0.00668695247979294
0.00763188309909721
0.0087692136165887
0.0100738930981835
0.0114851273789169
0.0129533295945471
0.0144233335844477
0.0158301120428675
0.0171785535162912
0.0185630305067048
0.02008021363576
0.0218412494460085
0.0240010457486503
0.0268490235207243
0.0303143542297522
0.0340132539403014
0.0381663613900008
0.0417822310779127
0.0460473931124062
0.0434186210737752
0.0300647098735854
0.0153599858764569
0.00942902706264678
0.00497034959024477
0.00460659226229339
0.00712682129792005
0.00593412541702879
0.00608758665494312
0.00297489478091677
0.00201822572693719
0.00124676538560821
0.000658995240957663
0.000389237634469009
0.000257729991489481
0.000197632905008562
0.000179972765441964
0.0001842129832872
0.000205533760660941
0.000241041684600709
0.000287449039284325
0.000338468724034869
0.000389633240555908
0.000435459370238235
0.000470610523379074
0.000494129054017423
0.000510981296102666
0.000524060482016456
0.000538839644552041
0.000567775713763686
0.000632641100135428
0.000777153840894319
0.00104943929880468
0.00137733547638532
0.00169505928989066
0.0020127430518936
0.00231038584351378
0.00259701889500625
0.00286893859852344
0.00312972362675375
0.00337902078066031
0.00361815559837062
0.00384732031476605
0.00406702976416821
0.00427746035414342
0.00447880436237361
0.00467217243568651
0.00482996266212694
0.00500389898877047
0.00516643621835611
0.00531907909649365
0.00546234548331853
0.00559626637442491
0.00572083962689932
0.00583608835353564
0.00594206846283207
0.00603887657787542
0.00612664408010009
0.00620552692730688
0.00627569846804417
0.00633734367226096
0.00639065746908633
0.00643584442763331
0.00647311869466058
0.00650270464373922
0.00652483621570242
0.00653975774886299
0.00654772141051463
0.00654898480763507
0.00654379971923076
0.00653240649944184
0.00651503477398647
0.00649191928033175
0.00646330883336508
0.00642945643252464
0.00639060872872704
0.00634699715331526
0.00629883972605765
0.00624633707756501
0.00618965628319694
0.00612891595175047
0.00606419973147166
0.00599557633472009
0.00592312130147942
0.00584688501542118
0.00576692396949472
0.00568319042845815
0.0055956646601567
0.00550406618450634
0.00540832607895059
0.00530778674074031
0.00520237220467883
0.00509053527077907
0.00497232331943388
0.0048417840693271
0.00469561128572892
0.00452076546769805
0.00441605336219565
0.00457031616533506
0.00486434385950518
0.00532816705494777
0.00593843244901333
0.00670772087080003
0.00763678876363471
0.00871648294929343
0.00990128614365513
0.0111598571173823
0.0124607042815718
0.0137800250130194
0.0151093328997655
0.0165108023119212
0.0180569420924574
0.0198273565775474
0.021935047411194
0.0246027338834113
0.0278615822793787
0.0313499056052839
0.0351186057884308
0.0380391302837679
0.041229080184497
0.0418962991758337
0.0363125302324383
0.0198249458245792
0.00956261198548908
0.00830295906278707
0.00502379979510302
0.00647720587099621
0.00398902418432343
0.00584964032547294
0.00439365784225534
0.00252152704756189
0.00155236814175292
0.000820051038682261
0.000477613594598436
0.000315040168743102
0.00023942781670507
0.000213004768292644
0.000212616921525793
0.000230863422734107
0.000262539097322113
0.000302753345752742
0.000344877955884709
0.000385025467837381
0.0004184841474598
0.000441907438431916
0.00045752710995935
0.000471521169389036
0.000488031624435723
0.000515915310772342
0.000571570641862728
0.000679236958943532
0.000882512657513576
0.00120393411479505
0.00152009562775671
0.00180168293336496
0.00207063113437554
0.00231725640897361
0.00255350747401627
0.00277739429554649
0.00299248406979504
0.00319849524534778
0.00339646206587561
0.0035864669959862
0.00376885692270432
0.00394373368515282
0.00411099678703401
0.00425373033079847
0.00440573126420855
0.00455034065755236
0.00468609449383174
0.00481374598218216
0.0049335512166192
0.00504552023077476
0.00514964932695201
0.00524595031128741
0.00533445892557985
0.00541524702884182
0.00548842069900614
0.00555411019096038
0.0056124633446519
0.00566363796745319
0.00570780060678151
0.00574512509534004
0.00577579279321378
0.00579999358490748
0.00581792548863477
0.00582979727753515
0.0058358267861016
0.00583624149684314
0.00583126536988532
0.00582111240814878
0.00580597869679105
0.00578605766613945
0.00576155526660611
0.00573268186740874
0.0056996451192175
0.00566264214944869
0.0056218647845958
0.00557749908745976
0.00552971140180461
0.00547862898120931
0.00542434321234756
0.00536692871549872
0.00530647023335304
0.00524304105074861
0.00517674232797973
0.00510761498466658
0.00503576560305854
0.00496112437363259
0.00488385975113782
0.00480371292603504
0.00472108071470372
0.00463785238962101
0.00455270546492099
0.00445556876210809
0.00436240448860679
0.00422504354714925
0.00408308021059364
0.0041692177068385
0.00438828721046596
0.00475051679112957
0.00524020365043347
0.00586203824645796
0.00661520896270449
0.00749840393358552
0.00847704223738193
0.00953111787307873
0.0106441591495006
0.0118168989735173
0.013037952514375
0.0143515271165013
0.0158150274412525
0.0174864448996019
0.0194433760131902
0.0218064394912825
0.0245957553798256
0.0274346045131082
0.0301597857171922
0.0317852321067583
0.0333423020864868
0.0343695160176872
0.0350261954702872
0.0249181282458599
0.0142863982937078
0.0125726480579501
0.00762958845106148
0.00784614295664868
0.0030668154221119
0.00403408257048285
0.00596372375723466
0.0031199121119189
0.00188631237622444
0.00099669059695636
0.000566034759647403
0.00036821168472875
0.000274986883848078
0.000236628329721336
0.000229285223565585
0.000242557321707581
0.000269733147405446
0.000305371593049816
0.000343102864780366
0.00037894899376335
0.000408005573364757
0.000428401417094039
0.000444597494843783
0.000463537958505585
0.000490680321009868
0.000536859675689986
0.000618813977675504
0.000756175555227323
0.000984508674257514
0.00128786831472413
0.00153715553421822
0.00175924247532266
0.00197227034130605
0.00217268205549042
0.00236801410441609
0.00255625270609714
0.00273907603677454
0.00291576480874698
0.003086589811342
0.00325134698081039
0.00341006954838037
0.0035627522301739
0.00371142853615793
0.00383470064510054
0.00396965390938534
0.00409635427380381
0.00421571442551377
0.00432814899852709
0.00443378677760148
0.00453261734607663
0.00462462732064355
0.00470981461966302
0.00478819655512492
0.00485982454255729
0.00492478508295214
0.00498318962348951
0.00503516833363958
0.00508086081412511
0.00512041491406437
0.00515398453237096
0.00518172967078588
0.00520381765755513
0.00522042261312747
0.00523172911508012
0.00523793125074124
0.00523923566335434
0.00523584795765439
0.00522796619733217
0.0052157662884943
0.00519941500094016
0.00517908984129634
0.00515497287129218
0.00512724528887197
0.00509608068365305
0.00506165236935952
0.00502413619382764
0.00498369902351447
0.00494047738458305
0.00489457220953809
0.00484606606610723
0.0047950515481297
0.0047416192458685
0.00468589702708247
0.00462798718805567
0.00456807037207417
0.00450622573833566
0.00444274981677568
0.0043798932586928
0.00431981790864759
0.00425298292389965
0.00418603612989902
0.00411406333900339
0.00405598513942843
0.00394114214956972
0.0037891588237989
0.00383168518823299
0.00398976975783102
0.00427205520007856
0.00466499715274354
0.00516764897392061
0.00577777243607884
0.00649827447952542
0.00730267972227978
0.00817913311913929
0.00912149304375693
0.010144320797276
0.0112321725654721
0.0124145115591933
0.0137344242556346
0.0152296745331501
0.0169435881191639
0.0189069796049923
0.0211091893937044
0.0231829802668388
0.0248470179339521
0.0254454879938177
0.0258989163769932
0.0266840702171795
0.0288626052250057
0.0259043373173685
0.0179585029439747
0.0149868738386837
0.00995064917213287
0.00983874996690661
0.003235222271903
0.0027770123694437
0.00583431971211224
0.00380167930936239
0.00222591870378449
0.0012005456635067
0.000667275425434792
0.000425094258794018
0.000309931170834284
0.000256821611398654
0.000242205850440855
0.000252106271677826
0.000278259035815167
0.000313665942365644
0.000350543880964157
0.000383916634007864
0.000409487538592057
0.000427774860931469
0.000445098705093746
0.000468816911883491
0.000505162570774338
0.000565025584349457
0.000662088491424213
0.000807846913656785
0.00102853762961378
0.00127746804684939
0.00145968129954855
0.00163477757228034
0.00180741015312432
0.00197677669109976
0.0021447465389337
0.00230951670239236
0.00247099454111091
0.00262828892705668
0.00278107641910797
0.00292900066127236
0.00307187115187642
0.00320934341177083
0.00332792763657717
0.00345760990338975
0.00357906567755782
0.00369357665967145
0.00380170278291424
0.0039036890252041
0.00399960186306719
0.00408942403518162
0.00417314082317889
0.00425074592686167
0.00432224830453396
0.00438768863265646
0.00444714282018089
0.00450071201827759
0.00454851699052865
0.00459068736950889
0.00462736036057704
0.00465867818829783
0.00468478762909415
0.00470584150185712
0.00472199775024055
0.00473342375065738
0.00474029603598834
0.00474280559976633
0.00474114478898483
0.00473550152998484
0.00472603927344166
0.00471290620142675
0.00469625890571588
0.00467625835932405
0.00465306527869294
0.00462683450674156
0.00459772371705903
0.0045658993382948
0.00453152776100398
0.00449475380253839
0.00445568792267182
0.00441442051944075
0.0043710498765726
0.00432567863964459
0.00427844955861456
0.00422950746142183
0.00417907692416489
0.00412734542575207
0.00408027404356379
0.00403065769369739
0.00397821802440267
0.00392587178531901
0.0038751737254249
0.00382177443455429
0.00378934717939803
0.00369416930949463
0.00353875864681593
0.00354956306208022
0.00366002972874184
0.00387771366261086
0.00419118476387226
0.00459545447752027
0.00508699358501156
0.00567135281174537
0.00632862816474098
0.00705376473894918
0.00784850836989626
0.0087352569985054
0.00969281694030842
0.0107371726533344
0.0118971754321663
0.0131909675252251
0.0146287946887329
0.0161704637053521
0.0177802798718033
0.0191252160281207
0.0198838357231531
0.0198007958375135
0.0196667159981071
0.0194261930591717
0.0222399075499898
0.0233615734255107
0.0186927522222422
0.0152156040782295
0.011142585371065
0.0112664240418236
0.00424787810948876
0.00229004988425271
0.0045965299335368
0.00428266563413601
0.0025379602703305
0.00141834217372426
0.000787932902143979
0.000494980425746724
0.000353766028749661
0.000283617908217474
0.000261744672249297
0.000269475602884931
0.000295647906257478
0.000330185214865994
0.000363732553515109
0.000391796091231306
0.000412278746683005
0.000427910233202089
0.00044566015202516
0.0004724567635686
0.000514340876075991
0.000580623281611131
0.000680489846527674
0.000818088119625235
0.00101408859314832
0.00120602097093959
0.00134013964991637
0.00148308617453938
0.00162841226724156
0.00177678204067988
0.0019257680602319
0.00207409255570409
0.00222037171245261
0.00236372743481509
0.00250342676351888
0.0026390451655143
0.00277027604952251
0.00289795611438781
0.00300816155645619
0.00312653123011187
0.00323795768016536
0.00334328697389343
0.00344288401012236
0.00353690205015671
0.00362537678080713
0.0037082926636344
0.00378563983314453
0.00385741485701629
0.00392362553333234
0.00398430844780677
0.00403953481105814
0.00408940087119604
0.00413402323312582
0.00417352676137266
0.0042080430462661
0.00423770783647032
0.00426265973827056
0.00428304206261512
0.00429900132212721
0.00431069190777613
0.00431827635646429
0.00432193280876186
0.00432184294681154
0.00431818782886147
0.00431112334528109
0.00430078404462033
0.00428730998035568
0.0042708451309027
0.00425153291551656
0.00422951178750361
0.00420492479340312
0.0041779284589569
0.0041486870158036
0.00411735225001952
0.00408404375183758
0.00404885916556469
0.00401190049049262
0.00397327803607234
0.00393314106628808
0.00389166300999657
0.00384909334457412
0.0038132014043713
0.00377189765615423
0.00372904173296828
0.0036871165877392
0.0036462410929143
0.00360825811343758
0.00356915701539807
0.00355643880074321
0.00347847808051161
0.00332286038586628
0.00330995173154745
0.00338201343573279
0.00354585246299578
0.00379199959623758
0.0041125249290934
0.00450279173370394
0.00497028906205691
0.00550084766744432
0.00609555068197266
0.00676246145277651
0.00752806898376274
0.00836437186445793
0.00927480942740505
0.010274295874493
0.0113620555125767
0.0125161985714467
0.0136396649024475
0.0146809779434298
0.015360849736193
0.0153788351736009
0.0149001079451252
0.0145540905959902
0.0147144277868408
0.0167394666311414
0.0194405899497305
0.0172643217945615
0.0139308096005455
0.011326280408002
0.0114661259206045
0.00590426529487493
0.00222437200153195
0.00280642627927625
0.00468299651527412
0.00284294176692245
0.00162954586488747
0.000920561193512608
0.000578498675347221
0.000410789085601046
0.000321795836941407
0.000291174735240914
0.000294900642969214
0.000318133159838562
0.000347847988826382
0.000374641726143062
0.000395731246452209
0.000411080545848432
0.00042431302956555
0.000441972802687487
0.000470030263137964
0.000513667709825465
0.00057989268052483
0.000673766069288872
0.000794697525974059
0.000961679303241539
0.00110701091295919
0.00120927734231444
0.00132956914920811
0.00145558298747305
0.00158853765672028
0.00172329301211113
0.0018590792529504
0.0019936371629365
0.00212614436987551
0.0022555858275719
0.00238149318656879
0.00250337552845062
0.00262246593702262
0.00272617491876832
0.00283565660158645
0.00293904246955799
0.00303692158759605
0.00312954347059032
0.00321700937465127
0.00329934053455542
0.00337652807948858
0.00344857104144406
0.00351547377269181
0.00357724803099135
0.00363393094186593
0.00368559295748279
0.003732328878034
0.00377425458577012
0.00381149359456758
0.00384417516004626
0.00387243203794126
0.00389639802691142
0.00391621030296754
0.00393200714224615
0.00394393275235427
0.0039521378973815
0.00395678943294289
0.00395805961278359
0.00395612454345449
0.00395113603998275
0.00394321843871668
0.0039324980900771
0.00391910458856528
0.00390316595932394
0.00388480554781363
0.00386415201899285
0.00384135100603063
0.00381656267432269
0.00378994446883831
0.00376162475480115
0.0037317078478144
0.00370029784116403
0.00366750908561856
0.00363349106420363
0.00359843524625044
0.00357108468223701
0.00353675712762305
0.00350144813033736
0.00346678938505943
0.00343359397062571
0.00340210192991252
0.00337439503335855
0.00334666412274501
0.00334966810976518
0.003286836009214
0.00313263407576832
0.00310159799759631
0.00314183806560791
0.00325955660493323
0.00344706755068561
0.00369427260374271
0.00399565218948438
0.00436033306791883
0.00477941532820719
0.00525967349668546
0.00581419006763094
0.00647080344609162
0.00719411305163052
0.00797585712622461
0.00881742169745532
0.00969977010339833
0.010569469846444
0.0112828811492057
0.0117823702524894
0.0118588872321748
0.011283703574811
0.0106521328369529
0.0103594707780374
0.0108780552692448
0.0123963194232355
0.0154573550807312
0.0148894694941716
0.0118849448219225
0.0108666663583764
0.0104343799005421
0.00810839550200739
0.00218134513440988
0.00140414320667683
0.00526880339159011
0.00320326787607093
0.0018335131656638
0.00105556792894833
0.000668608002951952
0.000470202975052101
0.000368497491006401
0.00032676098437641
0.000323086161764679
0.000339554987866392
0.000361367875985641
0.000380157476634765
0.000394624492523276
0.000405738862192286
0.000416956291458966
0.000433940185335024
0.000461539600285132
0.000503791059006079
0.000565428219776995
0.00064855163834272
0.000750237676782912
0.000889961713272412
0.00100012662021595
0.00108072034250695
0.00118384334385473
0.00129523011466758
0.00141589720632667
0.00153922647489665
0.00166476683256973
0.00178970099589399
0.00191323560318979
0.00203416086177807
0.00215197132149118
0.0022658565678974
0.00236690819662188
0.00247556798733455
0.0025776298455589
0.00267419808625839
0.00276569338933216
0.0028522937343702
0.0029340703902865
0.00301103923866831
0.00308320102990535
0.00315056647563089
0.00321315137619043
0.00327097543567175
0.00332407985407849
0.00337253717968915
0.00341644309278809
0.00345591515098185
0.00349107791091733
0.00352206055199968
0.00354899533854072
0.0035720136518416
0.00359124898969582
0.00360683372988626
0.00361890393567546
0.00362760009685468
0.00363307866102593
0.00363550285255065
0.00363504492275241
0.00363185533792293
0.00362605081820826
0.00361774599401147
0.00360705789274808
0.00359410039614935
0.00357898250891361
0.00356181842047363
0.00354274164104399
0.00352190624781058
0.00349947412579751
0.00347558221141052
0.00345034103726551
0.00342385547392397
0.00339624086768446
0.00336764227599865
0.00334712537243747
0.00331910452573326
0.00329000023053572
0.0032613930668602
0.0032337898304129
0.00320803218823546
0.00318441191193006
0.00316521644978365
0.00314676558516729
0.00316269639277425
0.00311318996574115
0.00296117906995347
0.00291606392208528
0.00292936892310033
0.003006715395523
0.00314202211510135
0.00332358962825995
0.00354527671930262
0.00381776606990631
0.00413716126354797
0.00451549605431798
0.00496959081631271
0.00552637884339606
0.00614277964394318
0.00679968839099419
0.00748547109510247
0.00816342603071195
0.00874902390160028
0.00905964433617951
0.00903823189729713
0.00856076175201049
0.00752516204948745
0.00696671278588461
0.00692038526327403
0.00772655980316674
0.00896820703625737
0.0118974881394354
0.0123297232020344
0.00960846046800392
0.0100362090124011
0.00863761356494994
0.010761709660515
0.00216662278782841
0.000848337307852813
0.00416146296789104
0.00368976759910168
0.00204856296416279
0.00119190741687638
0.000760303218045116
0.00053702692416673
0.000418494163909519
0.000363715772032022
0.000349753214963577
0.000356946373383259
0.000369763889109972
0.000380952784655455
0.000389858662432101
0.000397572339487951
0.000406893026033305
0.000422527456426179
0.00044821878377234
0.000486837007402605