/*--------------------------------*- C++ -*----------------------------------*\
  =========                 |
  \\      /  F ield         | OpenFOAM: The Open Source CFD Toolbox
   \\    /   O peration     | Website:  https://openfoam.org
    \\  /    A nd           | Version:  7
     \\/     M anipulation  |
\*---------------------------------------------------------------------------*/
FoamFile
{
    version     2.0;
    format      ascii;
    class       volScalarField;
    location    "20000";
    object      nut;
}
// * * * * * * * * * * * * * * * * * * * * * * * * * * * * * * * * * * * * * //

dimensions      [0 2 -1 0 0 0 0];

internalField   nonuniform List<scalar> 
15600
(
1.14330482921198e-09
1.03388924901551e-09
5.98473158591292e-10
2.42568762841e-10
6.28627417874695e-11
3.25784949164545e-11
2.8659821203067e-11
1.67737511829817e-11
9.63736738418675e-12
6.94189682203262e-12
5.7305488927618e-12
5.55245065372372e-12
6.39437010995788e-12
8.20667432391617e-12
1.13150788103455e-11
1.62882000995406e-11
2.3902388232833e-11
3.52583123330711e-11
5.18251764234519e-11
7.51249046222415e-11
1.06333888758417e-10
1.45923555541261e-10
1.9313448112597e-10
2.45049357749685e-10
2.94321507974683e-10
3.33476578100981e-10
3.64383345992217e-10
4.11733958234907e-10
5.49437215572429e-10
7.61751514605647e-10
9.89456052817608e-10
1.22852181418946e-09
1.47289025254281e-09
1.71996929666507e-09
1.96745928947229e-09
2.21457148447055e-09
2.46048508140192e-09
2.70480203229145e-09
2.94702540467086e-09
3.18672212386818e-09
3.42339067191721e-09
3.65656593958865e-09
3.88584535703849e-09
4.11095209943441e-09
4.33173133854834e-09
4.54824427898431e-09
4.76129408112663e-09
4.9695239531901e-09
5.16935214369307e-09
5.35851036335924e-09
5.53629338640132e-09
5.70212640410448e-09
5.85557334270542e-09
5.99630998863407e-09
6.12410746787032e-09
6.23881159270468e-09
6.34034807640223e-09
6.42870842348253e-09
6.50396175140368e-09
6.56624941077238e-09
6.61578127567808e-09
6.65283113852499e-09
6.67771205090024e-09
6.69077019935205e-09
6.69233998806928e-09
6.68276789865119e-09
6.66238497284355e-09
6.63159464831451e-09
6.59090071460566e-09
6.54085414034027e-09
6.48204781598611e-09
6.41504143648313e-09
6.34034768678939e-09
6.25838278485567e-09
6.16944895783601e-09
6.07370344483806e-09
5.97119278929251e-09
5.86195082122886e-09
5.74604503062791e-09
5.62347185276369e-09
5.49416871117774e-09
5.35769280572366e-09
5.2134398364123e-09
5.05992801783956e-09
4.89577513348967e-09
4.71784204217125e-09
4.52402675590099e-09
4.30818674825594e-09
4.06858322865624e-09
3.79565475325881e-09
3.49265494438476e-09
3.14473189455329e-09
2.94862300056102e-09
3.09544528720952e-09
3.27816347581011e-09
3.47349985158363e-09
3.58831885202415e-09
3.63907803625421e-09
3.63613802622904e-09
3.62717966475306e-09
3.58594490086689e-09
3.51411313712592e-09
3.39731023394736e-09
3.23586186781838e-09
2.98693705413809e-09
2.69593329937859e-09
2.40758400275572e-09
2.1420587855148e-09
1.9194893021871e-09
1.76078318126719e-09
1.71580631532509e-09
1.76270792049176e-09
1.94218122952984e-09
2.34796476529073e-09
2.97132657043534e-09
3.38110446955236e-09
2.70327359327101e-09
1.94929790306112e-09
1.31746769945318e-09
1.12071740120628e-09
2.17298763358318e-07
1.96952740286178e-07
1.13458450837677e-07
4.67605768278656e-08
1.2433104304637e-08
6.34159127032351e-09
5.56776115537385e-09
3.30365834191714e-09
1.90180972151693e-09
1.35960056522228e-09
1.11549799565608e-09
1.07231729803547e-09
1.22641823874879e-09
1.56634865717338e-09
2.15224171286594e-09
3.09154619012699e-09
4.53270316973263e-09
6.68514496743804e-09
9.83145739819403e-09
1.426974458399e-08
2.02363793079112e-08
2.78265332417997e-08
3.6893444719317e-08
4.6861598074617e-08
5.63454184129159e-08
6.38861617793975e-08
6.98526244085356e-08
7.85975544118248e-08
1.04519183569996e-07
1.4482076908721e-07
1.88018072466025e-07
2.33373573306967e-07
2.79730481706507e-07
3.26596173625255e-07
3.73530985631722e-07
4.20389982490683e-07
4.67021202295783e-07
5.13355806107542e-07
5.59305755693419e-07
6.04795647148263e-07
6.49736215103953e-07
6.94044445013882e-07
7.37648587452842e-07
7.805001735932e-07
8.2257304247349e-07
8.63880535174006e-07
9.04577651713084e-07
9.44344151499451e-07
9.82226278814524e-07
1.01811806120706e-06
1.05188770259048e-06
1.08342712529202e-06
1.11265345864922e-06
1.13950409835923e-06
1.16393366905092e-06
1.18591041098124e-06
1.20541712366256e-06
1.22244879061776e-06
1.23701477946098e-06
1.2491379514986e-06
1.25885404950863e-06
1.26621081911652e-06
1.27126356161852e-06
1.27407382591783e-06
1.27470136927764e-06
1.27320830745124e-06
1.26965458025832e-06
1.26411416063676e-06
1.25668004767563e-06
1.24745455121895e-06
1.23654798893233e-06
1.22406483962367e-06
1.21010093195881e-06
1.1947342711208e-06
1.17802156557772e-06
1.15999244957082e-06
1.14065597868827e-06
1.12001896638334e-06
1.09809437768955e-06
1.07488215106617e-06
1.05037033448155e-06
1.02447641761712e-06
9.97085083198047e-07
9.67918804015986e-07
9.36712244775039e-07
9.0287760974136e-07
8.66005960385416e-07
8.24947239686479e-07
7.79344092802729e-07
7.27401268602065e-07
6.69646568855801e-07
6.03343124875443e-07
5.65718543198351e-07
5.94337035483332e-07
6.29665393337593e-07
6.66993710580238e-07
6.88942348383766e-07
6.98591148340485e-07
6.98147947511942e-07
6.96297011134555e-07
6.8812036823281e-07
6.73936020656269e-07
6.5110622774312e-07
6.19550287405412e-07
5.71663292794766e-07
5.16035240373995e-07
4.60994871136673e-07
4.10383952204403e-07
3.68027740661179e-07
3.37972211849731e-07
3.29210026097524e-07
3.37802792721156e-07
3.71163714219261e-07
4.45454314602902e-07
5.56917606187394e-07
6.28215393040111e-07
4.94521263991851e-07
3.56510844055269e-07
2.44733471587087e-07
2.12489373824537e-07
4.50964741792455e-06
4.13160886380228e-06
2.35725548892915e-06
1.00781580893262e-06
2.817117919986e-07
1.42049545955177e-07
1.2469128693368e-07
7.51410197252666e-08
4.34314475244749e-08
3.08645868955398e-08
2.51919438040559e-08
2.4033418049443e-08
2.7293261553322e-08
3.46483949205686e-08
4.738399804115e-08
6.78321473891676e-08
9.92833172146929e-08
1.46348279533947e-07
2.1531362907956e-07
3.12993110148507e-07
4.44936904990462e-07
6.13182759780854e-07
8.14555119066159e-07
1.0338641104856e-06
1.24160519973276e-06
1.40583525366029e-06
1.53198587313422e-06
1.69093577384947e-06
2.21814609528329e-06
3.06261074982127e-06
3.96652276413987e-06
4.91422705730753e-06
5.88118422371742e-06
6.85704395271663e-06
7.83265075562986e-06
8.80541024903548e-06
9.77249357616503e-06
1.07329606230471e-05
1.16853959657129e-05
1.26286602131067e-05
1.35612460409842e-05
1.44817303589986e-05
1.53888647568925e-05
1.62818324937705e-05
1.71601730467115e-05
1.80239398115284e-05
1.88730705907735e-05
1.96839944698475e-05
2.04584943928577e-05
2.11938493269735e-05
2.18875879621754e-05
2.25376763642636e-05
2.31425337021189e-05
2.37009357680013e-05
2.42119577862552e-05
2.46749117650504e-05
2.50893651213343e-05
2.5455102437422e-05
2.57721696400429e-05
2.60408603773991e-05
2.62617083664098e-05
2.64354714472048e-05
2.65630521657395e-05
2.66454699979085e-05
2.66837175493596e-05
2.66788336166453e-05
2.66318337150346e-05
2.65440205670311e-05
2.64170731815131e-05
2.62528679831128e-05
2.60534469270448e-05
2.58207560933495e-05
2.55565862457003e-05
2.52623970955679e-05
2.49392424458723e-05
2.45876540075746e-05
2.42077662637925e-05
2.37996726997523e-05
2.33635788443307e-05
2.28994434595198e-05
2.2406957871848e-05
2.18844476892336e-05
2.13294787724237e-05
2.07364829808343e-05
2.00998209253393e-05
1.94076907179919e-05
1.86510620436164e-05
1.78066959104457e-05
1.68654369520837e-05
1.57901222445915e-05
1.45857579343467e-05
1.31869998096515e-05
1.23770620712686e-05
1.29968052368976e-05
1.37351063513212e-05
1.44953844083868e-05
1.49369708208493e-05
1.51188688215861e-05
1.5093110157237e-05
1.50241483930085e-05
1.48252689259291e-05
1.45001154793543e-05
1.39963490849016e-05
1.33097296672163e-05
1.2298613579313e-05
1.11246886656313e-05
9.95537342407835e-06
8.87419146337133e-06
7.96180529159224e-06
7.30191478723836e-06
7.06922105118303e-06
7.1901780782405e-06
7.79076761967669e-06
9.14040856668466e-06
1.11079881143483e-05
1.23955413347284e-05
9.51015456358487e-06
6.67089019039511e-06
4.68123289423536e-06
4.2918462402952e-06
2.89404918724668e-05
2.75126406669886e-05
1.59861263652409e-05
7.38611133999514e-06
2.33235467848313e-06
1.1742404526384e-06
1.03166979914643e-06
6.32573628424666e-07
3.67593162223673e-07
2.59853999142469e-07
2.10971274751586e-07
1.99614315289528e-07
2.2480792976652e-07
2.8305586776096e-07
3.84331455336687e-07
5.46932806864757e-07
7.97297523305822e-07
1.1719696243492e-06
1.72118467351172e-06
2.50037694778372e-06
3.55374431824709e-06
4.89102272809217e-06
6.48065566154186e-06
8.18767426861582e-06
9.7451466771174e-06
1.09274955460237e-05
1.16578032567121e-05
1.24769719922894e-05
1.60328840448777e-05
2.19278766861509e-05
2.81428270841013e-05
3.45993816465367e-05
4.10997032246197e-05
4.75819666483472e-05
5.39825789555352e-05
6.02935082018087e-05
6.65003224141059e-05
7.26045844210047e-05
7.86024667642098e-05
8.44926477842077e-05
9.02703272005744e-05
9.59310972608857e-05
0.000101470860499629
0.000106887603816036
0.000112179810544607
0.00011732131010589
0.000122211811244689
0.000126885069256073
0.000131332484956457
0.000135543494593062
0.000139508868519973
0.000143221519536095
0.000146676468457842
0.000149870272971076
0.000152800712533411
0.000155466460157619
0.000157867182530336
0.000160003344556019
0.000161876458150207
0.000163489011904723
0.000164844455880466
0.000165947133628651
0.000166801902915909
0.000167414008169794
0.000167788369031253
0.000167929950337057
0.0001678434298139
0.000167534837766892
0.000167012005777629
0.000166283699775628
0.000165359486891744
0.000164248421970259
0.000162958763796134
0.000161497087901291
0.000159867877618244
0.000158072857365863
0.000156111573740777
0.000153983235759631
0.000151687484424831
0.000149222601770709
0.000146585222655032
0.000143764731602097
0.000140745712624362
0.000137495936406361
0.00013398049248824
0.000130131332033958
0.000125889512370327
0.000121118383079764
0.000115744581117367
0.000109535378826788
0.000102455653569779
9.38574978454963e-05
8.86664457936353e-05
9.24593245119089e-05
9.68511567572285e-05
0.000101249820047526
0.000103785158131669
0.000104772017069317
0.000104518799352493
0.000103935989688337
0.000102616863723515
0.000100501975994218
9.72797561618005e-05
9.29021617191848e-05
8.6537191493133e-05
7.90394495436762e-05
7.1410153840227e-05
6.42005694985198e-05
5.79615486521122e-05
5.32584696690688e-05
5.12648297581018e-05
5.15395535619758e-05
5.46876757358293e-05
6.21693833202523e-05
7.27554514881118e-05
8.05861552497791e-05
6.094052522801e-05
4.02250643373707e-05
2.75497109203891e-05
2.6200544732021e-05
8.79841132756956e-05
8.86671925383886e-05
5.43528405825422e-05
2.76554585846358e-05
1.09564583646828e-05
5.72100899008471e-06
5.03199744109807e-06
3.1431384615041e-06
1.83817986741798e-06
1.29313642280894e-06
1.0436558379381e-06
9.78029016497404e-07
1.08977974901909e-06
1.35648855687597e-06
1.82193814983465e-06
2.56735009583558e-06
3.71261896019789e-06
5.41859811599418e-06
7.90492475320657e-06
1.14065065852138e-05
1.60773989335569e-05
2.18648433880606e-05
2.85323196037829e-05
3.54058860294928e-05
4.12349643902961e-05
4.49463727097202e-05
4.64146994875271e-05
4.84957249886961e-05
6.13750950775065e-05
8.2725362839878e-05
0.000104342107932113
0.000126365028898967
0.000147867891433383
0.000168818208026313
0.000189012540617359
0.000208522191297806
0.000227339295401851
0.000245526943390295
0.000263108962056754
0.000280119275800525
0.000296572465065023
0.000312482549400302
0.000327858872490166
0.00034271337910002
0.000356983470052462
0.000370497051251214
0.000383343786698866
0.000395532348304039
0.000407052360234787
0.000417892283213212
0.000428043226151246
0.000437500738302792
0.000446264553406098
0.000454337092046592
0.000461722701731664
0.000468426881381668
0.000474456561970108
0.000479819656775612
0.000484525734903477
0.000488585859275612
0.000492012621555022
0.000494820016026685
0.000497022603764761
0.000498635244148431
0.000499671449954731
0.000500144245268343
0.000500065395252192
0.000499449421084207
0.000498314644694496
0.000496681249657904
0.000494571045138535
0.000492004409808253
0.000488999689585678
0.000485571167131849
0.000481728088518561
0.000477472947669913
0.000472802712370505
0.000467713200889951
0.000462200868825474
0.000456258799662074
0.00044987565774465
0.000443022894119046
0.000435658950992528
0.000427702201736528
0.000419059808019964
0.000409560248780912
0.000399041481282914
0.000387154335495424
0.000373673017064126
0.000357974925487525
0.000339841359467201
0.000316855589366361
0.000302406588062646
0.000312182834265212
0.000323781894661591
0.000335255483939085
0.000342101075181633
0.000344851016960389
0.000344510348331135
0.000343285421935842
0.000340090257851803
0.000334603544947867
0.000325950997462655
0.000313935962777433
0.000296188012749899
0.00027478981066828
0.000252474440401009
0.000230817508398143
0.00021153165523859
0.000196417433720426
0.000189571909807162
0.000189787364748995
0.000198424515921342
0.000220192323177965
0.000249770361124589
0.000276277616273257
0.000214699165788296
0.000137232905186819
8.66844763457979e-05
7.91552769192208e-05
0.000180424889167925
0.000188299074453708
0.000122033647161672
6.5756716423654e-05
3.35947921492944e-05
1.98260488574269e-05
1.77508948040523e-05
1.13273780201657e-05
6.67999263515609e-06
4.6793555537477e-06
3.74976475448744e-06
3.47251409319141e-06
3.81390517066321e-06
4.67153421349438e-06
6.17570016784799e-06
8.57224594080653e-06
1.22286017571473e-05
1.76068434561871e-05
2.53115766548699e-05
3.58999649949566e-05
4.95070114952362e-05
6.55038225582758e-05
8.28369394009653e-05
9.93752934666954e-05
0.00011184745445528
0.00011813418192118
0.000119523905098035
0.000124891439796877
0.000157756588514442
0.000208937380394946
0.000257851672087373
0.000306541685904821
0.000352309791646124
0.000395878728871093
0.000436852794879649
0.00047570566450903
0.000512518686974874
0.00054757147578208
0.000580990993477719
0.000612928346132777
0.000643471201980859
0.000672700668257965
0.000700674359327886
0.000727395220609782
0.000752609280350357
0.000776474825032291
0.000799053662197128
0.000820355842172436
0.000840384768134356
0.000859140348336991
0.000876625647299746
0.000892849598577121
0.000907826564621825
0.000921573834401854
0.000934110447095188
0.00094545601792215
0.000955631285212053
0.000964657476085905
0.000972557548070625
0.00097935597015835
0.000985078898171322
0.00098975400410464
0.000993409199379527
0.000996072186223307
0.000997767844210147
0.000998519545176709
0.000998348008434454
0.000997278064610765
0.000995340352465981
0.000992568306131995
0.000988997771452602
0.000984662009803634
0.000979590712584319
0.000973806751817064
0.00096732454491952
0.000960147050179511
0.000952267622957172
0.000943677340441138
0.000934367889124031
0.000924325400829015
0.000913527989638584
0.000901925824387287
0.000889445236067118
0.000875947761829957
0.000861269431637622
0.000845121051303858
0.000827211371390673
0.000806949901609035
0.000783908642376062
0.000757014047798981
0.000725755025144149
0.000685239361232863
0.000658942966716092
0.000675155098802062
0.000696035943867219
0.000716752870857543
0.000729782190794751
0.00073606460002528
0.000737279164560974
0.000736924481443579
0.000732993953830817
0.000724644114416602
0.000710262205782268
0.00068941393448552
0.000657670178589853
0.00061850297035693
0.000576931991622524
0.000535887696829639
0.000498729323347625
0.000469037635865917
0.000455879973817063
0.000457249985787556
0.00047467759742928
0.000518760613152655
0.000574828454196773
0.00063360071468624
0.000516612502646929
0.00034280184869093
0.000202601773127737
0.000170041426298345
0.000311650484802211
0.000325044228630448
0.000221514668409324
0.000118729713289827
7.30923167895665e-05
5.21803580315788e-05
4.95903717025589e-05
3.26688993235104e-05
1.95282776368997e-05
1.36461587265809e-05
1.08432356583732e-05
9.89380532870156e-06
1.06575074714898e-05
1.27744501081931e-05
1.65292445595305e-05
2.24758815871446e-05
3.1440164793445e-05
4.43418390855204e-05
6.22777006884051e-05
8.59196966050797e-05
0.000114639309184925
0.000146194741736058
0.000178043571384041
0.000205989408546246
0.000224825070791682
0.000232856088100171
0.000235451812511826
0.000250361905689472
0.000316819664691286
0.000409915775488373
0.000494135958680623
0.000576267160214523
0.000651004688802536
0.000721083505092255
0.000785847169954072
0.000846567285879192
0.000903460353876506
0.000957158384647455
0.00100793580695943
0.00105611756998664
0.00110189564754024
0.001145447655823
0.00118691066547237
0.00122600412997006
0.00126289360415934
0.00129773777433289
0.00133059764695269
0.00136149996979449
0.0013904679006488
0.00141751789097433
0.00144266967507861
0.00146594973065486
0.00148739075368063
0.00150702820975668
0.00152489876190734
0.00154103877255652
0.00155548508798877
0.00156827431492576
0.00157944463378657
0.00158903555864989
0.00159708828694893
0.00160364546734874
0.001608749539748
0.00161244204106729
0.00161476014040932
0.00161573825687516
0.00161540672366831
0.00161380123038553
0.00161096518720252
0.00160694579873501
0.00160179341324794
0.00159555460761692
0.00158827071460808
0.00157997343147649
0.0015706824770024
0.00156040120566357
0.00154911899369202
0.00153682159586008
0.00152349510172976
0.00150911796790833
0.00149365645925432
0.00147703863192924
0.00145915607652949
0.00143981248354147
0.0014187668404869
0.00139561195566887
0.001369915034459
0.00134084624823323
0.00130774819667182
0.00126909961429586
0.0012240096126386
0.0011650454513937
0.00112565045769604
0.00114740017006912
0.00117885905339456
0.00121037371214588
0.00123180957215276
0.00124397648457286
0.0012492420868801
0.00125218445117348
0.00124974127101302
0.0012402921096525
0.00122144425879392
0.0011924763696813
0.00114682403987622
0.00108928432597958
0.00102744394986327
0.000965809265094676
0.000909613472495368
0.000864437971446521
0.00084539743774531
0.000850126180288218
0.00087880865095896
0.000949814294479456
0.00103379455401532
0.00113215652375225
0.000961518117044203
0.000684498512653304
0.000401149403198855
0.000313168021333553
0.000495656672158146
0.000502140225077015
0.000363305531986055
0.000184662946181897
0.000124253066758084
0.00010721246689002
0.000113159826671682
7.88722834354072e-05
4.83002864336245e-05
3.38258664869297e-05
2.6643115704319e-05
2.38860135629935e-05
2.51028472354847e-05
2.92928942578582e-05
3.69308562113334e-05
4.89958051423977e-05
6.69190230395525e-05
9.19981730375727e-05
0.000125559229759792
0.000167631809899195
0.000215726583545451
0.000265284091410499
0.000312333501987886
0.00035099152071784
0.00037547765204549
0.000386535630152399
0.000395311902038056
0.000428986443813991
0.000540659607706532
0.000680701396139223
0.000803134653361746
0.000920790380133762
0.00102567618189024
0.00112332982585808
0.00121268959710495
0.00129602222080769
0.00137364383717009
0.00144658276822621
0.00151525727099249
0.00158017842806052
0.00164164629908898
0.00169993884999699
0.00175509595065207
0.00180696275392469
0.00185589149692099
0.00190203322195101
0.00194546357469321
0.00198623191923872
0.0020243823272783
0.00205994948453782
0.00209297134709183
0.0021234932942938
0.00215156758394039
0.00217724902604303
0.00220059298562449
0.00222165360769491
0.00224048474796461
0.00225713923844107
0.00227167120949272
0.0022841358612447
0.00229458998578932
0.00230309165276256
0.00230969823100751
0.0023144653994491
0.00231744299173883
0.0023186767483218
0.00231820697213239
0.00231608038099753
0.00231235317478692
0.00230708639972418
0.0023003449034608
0.00229218858623291
0.00228267033695941
0.00227183063187614
0.00225969448345625
0.00224626563464294
0.00223152932247935
0.00221546560029469
0.00219805432631261
0.00217926575507506
0.00215905334510266
0.00213732275198214
0.00211392931283243
0.00208861940892539
0.0020610718536477
0.00203076435689178
0.00199711597049252
0.00195906624976886
0.00191573835003859
0.00186515980373722
0.00180593566687303
0.00172831128344578
0.00167502657001946
0.00170090526205705
0.00174381609548313
0.00178762823826346
0.00181965503007365
0.00184012671785873
0.00185203016358229
0.00186075618605989
0.00186212861149156
0.00185353158314042
0.0018318151607166
0.00179592965827499
0.00173734914108976
0.00166204026743078
0.00158025557931576
0.0014982664718029
0.0014232740663879
0.00136296288778272
0.00133863340090886
0.00134823105586415
0.00138903313202694
0.00148797838222806
0.00159783246186377
0.00173732107183454
0.00151932666126981
0.00115411491831186
0.000700978625118007
0.000525326265379549
0.000746055196288062
0.000721760584332877
0.00056538509424361
0.000266035337353145
0.000180583658450165
0.000179061248760873
0.00021278708710712
0.000162499740301567
0.000103461707933711
7.32091578413354e-05
5.72832203762439e-05
5.03999669988575e-05
5.14871642820203e-05
5.83192168479077e-05
7.1506469940338e-05
9.24435526241172e-05
0.000123093034321637
0.000164672410009548
0.000218097070801079
0.000281783215250031
0.000350687082284609
0.000418114859628432
0.000479378697250137
0.000527888159434035
0.000558867478617819
0.000576746234910919
0.000598635590783505
0.000660048324094359
0.000823138982858998
0.00100942413150848
0.00117034507503878
0.00132328364163192
0.00145826526390796
0.00158358796871317
0.00169772265658743
0.00180392213684666
0.00190256199164855
0.00199505126851202
0.00208193823652606
0.00216391240663275
0.00224137933476342
0.00231473821165105
0.00238372865817094
0.00244868690196675
0.00250993000339424
0.00256761980726578
0.00262185506926406
0.0026727103094114
0.00272025104628962
0.00276453145193568
0.00280560873390851
0.00284354805705468
0.00287842203597643
0.00291030561425364
0.00293927360443675
0.00296539867490494
0.0029887523240366
0.00300940419658922
0.00302742483946234
0.00304288551538639
0.0030558588870029
0.00306641860940376
0.00307463710221884
0.00308058424811929
0.00308432271349478
0.00308590968971683
0.00308539567739742
0.00308283840237478
0.00307830663038305
0.00307187503380618
0.00306362266001756
0.00305362243963124
0.00304193845995468
0.00302861970829862
0.00301369636677659
0.00299717256316868
0.00297902931910228
0.00295924069463307
0.00293777978616988
0.00291460819299172
0.00288966584923536
0.00286283597374312
0.00283393697522301
0.0028026592101199
0.00276860034890788
0.0027311272041974
0.00268952912350919
0.00264254107470128
0.00258896920683269
0.00252646365186016
0.00245307458666414
0.00235699140768474
0.00228929797366413
0.0023177967418915
0.00237265184480791
0.00243004736046593
0.00247463598543454
0.0025056704893933
0.00252661274052335
0.0025433839539774
0.00255067939470314
0.00254472156035231
0.00252165351951124
0.00248005524953499
0.00240972580235844
0.00231761821614041
0.00221660787888757
0.00211486933557878
0.00202157987241294
0.00194659679140541
0.00191698031360616
0.00193164297559098
0.00198394830503263
0.00210930169035888
0.00224202230391829
0.00242111087473038
0.00216311822561185
0.00172574973189381
0.00110572026484487
0.000816092993113346
0.00107102321474324
0.000984148327588983
0.00084654000959408
0.000369339309935349
0.000241149285080621
0.000254633285700017
0.000335694775284957
0.000289543323661089
0.000194444982229408
0.000140347800527206
0.000109665700172933
9.48532154850407e-05
9.41410918486892e-05
0.000103528447449202
0.00012356836738761
0.000155821858123206
0.000202364925634545
0.000263554449417582
0.000339153755307648
0.000425289914597338
0.000514408822652952
0.000598462388171063
0.000672886264717664
0.000731394482694177
0.000771316233017459
0.0008010678763966
0.000842970445473823
0.000938955738862143
0.00115460376847086
0.00138422041174988
0.00158309823911449
0.00177032019712337
0.00193511728229535
0.00208793890201035
0.00222689145587146
0.002356074335442
0.00247591851762169
0.00258816928235999
0.00269349812734782
0.00279275868524878
0.00288645752737228
0.00297497469026099
0.00305808730833733
0.00313636847398629
0.00321013009213764
0.0032795571398486
0.00334477657266611
0.00340588968470486
0.00346298439117695
0.00351613579681114
0.00356542148153386
0.00361092732302473
0.00365274709118306
0.00369097662738785
0.00372571089380283
0.00375704176356854
0.00378505893943115
0.00380984936551518
0.00383150035140349
0.00385009945150129
0.00386573530437519
0.00387849713080152
0.00388847232706217
0.00389574486346941
0.00390039023884925
0.00390247709864057
0.00390206623007887
0.00389922617759893
0.00389403783529047
0.00388658902460785
0.00387697243659752
0.0038652734648935
0.0038515667925453
0.00383590944622135
0.00381833654694385
0.00379885259049669
0.00377743435886741
0.00375404970962144
0.00372866456742735
0.00370123152794107
0.00367167656160403
0.00363986069690189
0.00360556558482948
0.00356842756523461
0.00352796411659685
0.00348348650235296
0.0034340886594913
0.00337830174305081
0.00331464938767612
0.00324042636992684
0.00315310099404011
0.00303913299299463
0.00295684763700878
0.00298646956611044
0.00305336088389549
0.00312533315079707
0.00318416160459713
0.00322776775279444
0.00325988167896034
0.00328666523670029
0.00330169280393428
0.00329991630265022
0.00327683413609619
0.00323061786733704
0.00314972275586359
0.00304190655794446
0.00292251706753423
0.00280170055307839
0.00269054810121801
0.00260111190543171
0.00256547756202923
0.0025840624904
0.00264602870823183
0.00279455385522818
0.00294731310112211
0.00316336097063008
0.00287262091443797
0.00237437183592658
0.00160781606325323
0.0011862094864296
0.0014719187095745
0.00129098099077948
0.00121520426957849
0.00050472102813088
0.000309212394809504
0.000317680545426054
0.000458566364542632
0.000453472887499256
0.00032505599685843
0.000241164278684988
0.000189528240177345
0.000161890925595182
0.000156525740204553
0.00016757460144645
0.000195188790198122
0.000240538518041074
0.000305070446098627
0.000387430132660189
0.000485695713829781
0.000593531487958858
0.000701423907224589
0.000800849706069073
0.000888034158128825
0.000957766920862699
0.00100998955588042
0.00105677508513624
0.001124512458612
0.00125940122471678
0.00152561915043478
0.00179559701411076
0.00203165926606483
0.00225201416282057
0.00244633001747413
0.00262637912946717
0.00279012746794969
0.0029423165034322
0.00308346279960396
0.0032155908559068
0.00333949692796619
0.00345618317425446
0.00356626956095595
0.00366998326555529
0.00376738358671993
0.00385911736972737
0.003945511340354
0.00402678164314778
0.00410308694102731
0.00417455681801228
0.00424130302925854
0.00430342327531265
0.00436101678972757
0.00441419118740233
0.00446306223943453
0.00450774744961601
0.00454836260089915
0.00458501939967631
0.0046178262456753
0.00464688776643504
0.00467230826369857
0.00469419166816986
0.00471264253860245
0.00472776546847647
0.00473966257199448
0.00474843161837214
0.0047541607637136
0.00475692996640095
0.00475681022590352
0.00475388055005572
0.00474823332223824
0.00473996879023521
0.0047291925041292
0.00471600150127234
0.00470048023691969
0.0046826931131545
0.00466267986116508
0.00464044530759936
0.00461596200591019
0.00458919149164755
0.0045600922490934
0.00452860766476781
0.00449464961351223
0.00445805750656498
0.00441857723696646
0.00437579367094265
0.0043292125082552
0.00427798302210708
0.00422104374691778
0.00415675166112289
0.00408335862984393
0.00399783240229916
0.00389705675116468
0.00376612812611906
0.00366943546435652
0.00369877713820764
0.0037774249903609
0.0038646364628114
0.0039390536688848
0.0039969505087659
0.00404206979852982
0.00408052135768527
0.00410477695516484
0.00410846447120397
0.0040865039068445
0.00403662970747981
0.00394629308210636
0.00382388863109068
0.00368700848097862
0.00354776217534936
0.00341902633408301
0.00331498260086407
0.0032718507424021
0.00329199153638264
0.00336077447244167
0.00352819870497851
0.00369892166146912
0.00394945983661294
0.00363404190703994
0.00308132955948768
0.00219470932172566
0.00163148848650083
0.00194378029083367
0.00164777542605841
0.00165919679026147
0.000686387323249779
0.000387643461547687
0.000358731469673948
0.000564642856915261
0.000635679187610183
0.000491440978657277
0.000376586718587891
0.000299751085341199
0.000254450071723387
0.00024080343289221
0.000251928300638678
0.000287179660291959
0.000346548052684288
0.000429960412427825
0.000533681224786253
0.000653873357889131
0.000781945207807454
0.000907128805498926
0.00102114210787043
0.00112143530846904
0.00120435273872614
0.00127249483006041
0.00134095130894266
0.0014389672737699
0.00161496475860372
0.00192834679145428
0.00223633202120735
0.00250863214088992
0.00276099721689761
0.00298449402014689
0.00319141221067794
0.00337984308076289
0.00355494910243986
0.00371738105441403
0.00386938313042982
0.00401188277347118
0.00414601444093988
0.00427253233690723
0.00439138941910349
0.00450311142583381
0.00460831194264902
0.00470734578901722
0.00480046582253326
0.0048878651930641
0.00496970343257925
0.00504611795198566
0.00511723085533019
0.00518316443560261
0.00524404913540532
0.005300023596099
0.00535122772147788
0.0053977987254696
0.00543986869812973
0.00547756513654536
0.00551101061312261
0.00554032652330547
0.00556563310623704
0.00558705062435719
0.00560469868099178
0.00561869367053574
0.00562914670068361
0.0056361582296079
0.00563981922897973
0.00564021065921734
0.00563742147873831
0.00563155473415908
0.00562272215388678
0.00561104116891736
0.00559661941379363
0.00557955009407833
0.00555990414627914
0.00553772549563694
0.00551301923862619
0.00548575373299238
0.00545588416721665
0.00542336147146468
0.00538811978790881
0.00535005708074924
0.00530899206844023
0.00526463640994787
0.00521660012391071
0.00516424721857587
0.00510662603788255
0.0050425401002824
0.00497018791313314
0.00488756664145079
0.00479135069694229
0.00467786029718248
0.00453121736619593
0.00442067171000419
0.00444848565372929
0.00453829348781118
0.0046410639315551
0.00473207198264315
0.0048056635466387
0.0048653044595439
0.00491676176531562
0.00495142736019421
0.00496160112038464
0.00494168925801801
0.00488897256820325
0.00479022524752804
0.00465432856454184
0.00450083692191977
0.00434373560813775