/*--------------------------------*- C++ -*----------------------------------*\
  =========                 |
  \\      /  F ield         | OpenFOAM: The Open Source CFD Toolbox
   \\    /   O peration     | Website:  https://openfoam.org
    \\  /    A nd           | Version:  7
     \\/     M anipulation  |
\*---------------------------------------------------------------------------*/
FoamFile
{
    version     2.0;
    format      ascii;
    class       volScalarField;
    location    "20000";
    object      omega;
}
// * * * * * * * * * * * * * * * * * * * * * * * * * * * * * * * * * * * * * //

dimensions      [0 0 -1 0 0 0 0];

internalField   nonuniform List<scalar> 
15600
(
3736.48203016121
3732.77724474084
3755.06776255589
3890.07868521919
4205.8844132416
4459.46304822274
4500.60136589253
4352.21946469351
4075.89692164127
3721.07063551419
3335.65410498856
2996.67841283952
2716.68951448202
2483.0989950556
2286.41640863125
2119.40923462023
1970.66305327636
1822.91939270152
1676.39140369147
1533.83696740295
1397.68305746377
1271.17828909166
1162.94810929708
1076.07023224641
1009.51106680802
962.915610742699
936.548807204673
931.111007617126
934.121845851979
934.12050753931
934.120507539362
934.120507539391
934.120507539324
934.120507539363
934.120507539349
934.120507539363
934.120507539363
934.120507539375
934.120507539351
934.120507539314
934.120507539374
934.120507539337
934.120507539284
934.120507539324
934.12050753935
934.120507539363
934.120507539351
934.120507539364
934.120507539375
934.120507539352
934.120507539363
934.120507539311
934.120507539376
934.120507539352
934.120507539311
934.120507539349
934.120507539378
934.120507539359
934.12050753934
934.120507539401
934.120507539376
934.120507539391
934.120507539401
934.120507539378
934.120507539243
934.120507539322
934.120507539339
934.120507539298
934.120507539326
934.120507539375
934.120507539405
934.120507539295
934.120507539374
934.120507539379
934.120507539363
934.120507539375
934.120507539326
934.120507539284
934.120507539302
934.120507539358
934.120507539353
934.120507539311
934.120507539402
934.120507539404
934.120507539336
934.120507539325
934.120507539366
934.120507539372
934.120507539315
934.12050753935
934.120507539352
934.121845851952
931.111007617142
936.548807204589
962.915610742403
1009.51106680793
1076.07023224703
1162.94810929697
1271.17828909001
1397.68305746348
1533.8369674037
1676.39140369285
1822.91939270488
1970.66305328058
2119.40923462285
2286.41640862933
2483.09899505417
2716.68951447824
2996.67841284175
3335.65410498627
3721.07063550737
4075.89692163724
4352.21946468642
4500.60136588463
4459.46304822796
4205.88441324515
3890.07868521634
3755.0677625535
3732.77724474165
3736.48203016376
632.834827850241
633.126648771792
641.364043694575
660.596039922541
709.386907450499
749.884656835129
757.369578856167
733.281250307786
687.527519891092
628.270516304549
563.594097420868
506.421299782741
459.112111916484
419.666790423239
386.468197351323
358.298338318786
333.250207088405
308.411092002361
283.735103887354
259.670430546408
236.637006700087
215.211685442561
196.833564939404
182.048405344309
170.746084959106
162.88525597499
158.598497467408
158.441537246711
159.30777549176
159.199833580799
159.17664071392
159.145976672788
159.116596569567
159.090346909361
159.068151566821
159.047658156826
159.027391364045
159.005607434266
158.981167221671
158.953173121609
158.921155914682
158.88490145986
158.844334319155
158.799474298582
158.750439114957
158.697484091664
158.640997160583
158.581581670402
158.519595207246
158.455567674986
158.390042349254
158.323544730531
158.256556483737
158.189524667759
158.122862102334
158.056964104796
157.992193837964
157.928897863533
157.867390845652
157.807956448501
157.750845209351
157.696265967005
157.644398833511
157.595380250391
157.549342304977
157.506382938046
157.466621740798
157.430149835328
157.396995223093
157.367154466032
157.340566981467
157.317157140618
157.296825379474
157.279476715778
157.265020469026
157.253395684306
157.244578264168
157.238546527546
157.235233018532
157.234599441666
157.23653116463
157.24111075854
157.248244166249
157.258442310764
157.27158159126
157.289104990133
157.310465110751
157.339182375498
157.373182003222
157.418858384063
157.466205094663
157.609717287019
157.376498976757
158.327401600546
162.750861293473
170.525224044999
181.686956012388
196.253021013865
214.383806899186
235.484197303407
258.186062416399
281.974950486528
306.500133922054
331.332861831779
356.615736019148
385.079775079668
418.536602467965
458.203899074982
505.617797678203
562.739362078818
627.136131943278
686.575594261404
732.890065716393
757.834964168242
752.626669893949
717.181543197934
678.390232771214
657.720747838985
647.298290646121
637.033904765983
218.189342466394
217.315114210769
224.231165370384
226.707244043249
236.588803195616
246.286952955121
248.347070706878
240.800964073562
226.081235864752
206.776162368212
185.668090324703
166.960997485827
151.457158360333
138.561762418328
127.729075022827
118.538428697605
110.336344364638
102.177153911946
94.0248003780437
86.021382549317
78.3288891690644
71.1910454018552
65.0716369201674
60.1492987165769
56.4408556091761
53.9801462363725
52.9775693568083
53.9133847975203
54.6986108698783
54.5703484680173
54.4714463458487
54.3547955505471
54.2361363540111
54.1220329634805
54.0139985801259
53.909692061997
53.8075348906528
53.7055737332776
53.6026681108002
53.4979798715901
53.3912229886782
53.2823678485774
53.1715268468656
53.0589127455036
52.944908392012
52.830258089259
52.7160771007745
52.6021073109186
52.4890196139661
52.3773809508361
52.267739261412
52.1605793748312
52.0563038354485
51.9552569972714
51.8577341444807
51.7640034547281
51.674293999683
51.5888146628219
51.5077379804348
51.4312040660659
51.3593193263274
51.2921506143718
51.2297413514052
51.1721005904425
51.1192463505495
51.0711763706038
51.0279219201889
50.989480033229
50.9557808015012
50.9267247273046
50.9021579565669
50.8819216243974
50.8658433667064
50.8537699491343
50.8455691799515
50.8411589441229
50.8405065422485
50.8435790212479
50.8502953665102
50.8606082556392
50.8744110170184
50.8918278357262
50.9128593003286
50.9381822275841
50.9679290819245
51.0039201049069
51.0461457926129
51.0989416532386
51.1611221200144
51.2404213293642
51.3281970430582
51.4911271760867
51.5276797526721
51.7454639449681
53.1118122270926
55.5150278660973
59.0325127139174
63.639361490564
69.3822795810817
76.0378401431755
83.2360776175474
90.8246191610661
98.7377420680292
106.870171384736
115.387691928411
125.02228742284
136.284960157725
149.570485127312
165.313673324303
184.034183657397
204.747486556351
224.064729156383
239.137177811976
247.055498497625
245.864403429421
238.230547144751
239.891941322996
243.972759123796
240.705281433241
227.051667508465
115.822793730428
111.949057861864
118.350329275548
116.516387864189
112.93322049293
112.685345482235
112.775153927464
109.59980436543
103.10650276379
94.4167099588742
84.9322054041199
76.5285929393499
69.5543530308094
63.7856269572555
58.9590572302292
54.856407853956
51.149047237226
47.4196337083852
43.6460070552692
39.8977131549613
36.2826354489345
32.9641164160244
30.1472038608072
27.9181546932782
26.3365402686494
25.4808219791929
25.573806801995
26.7946503700334
27.3316567286638
26.9756298813839
26.6808624097787
26.3853387371404
26.1204687203217
25.8848624360257
25.6773521691225
25.4912315584998
25.3226859460531
25.1674619229643
25.0229855547719
24.887105963446
24.7585229313686
24.6362582716188
24.5196300772503
24.4081993255048
24.3019543857184
24.2009496950484
24.1042644494029
24.0117142816817
23.923319238163
23.8390588835301
23.758931071877
23.6829037918783
23.6109104814011
23.5428725665496
23.478705959092
23.4183356354559
23.3616847807531
23.3086874680263
23.2592735694791
23.2133715682578
23.1709054888269
23.1317903557408
23.0959430541788
23.0632746809792
23.0337212673084
23.0072215774634
22.9837531020053
22.9632741470437
22.9457041431401
22.9309511000443
22.9188918566809
22.9094084151782
22.9023796716717
22.8977052055458
22.8953063656937
22.8951479909559
22.8972344355394
22.9015688526115
22.9081223588833
22.916892999505
22.9278458894048
22.9411204334523
22.9567947500587
22.9754516683407
22.9973476480929
23.0239944064113
23.0557395143105
23.0961816156395
23.1451584842345
23.2092882347488
23.2836295374736
23.417293803335
23.4741355689836
23.4915347562668
24.0428395982752
25.0306385257984
26.515019531242
28.4676604719828
30.8998845790372
33.7007588076232
36.7504714526672
39.9886296684383
43.4118926334481
46.9943230338889
50.8881069308459
55.3360170858
60.5131398644818
66.588879352513
73.7040676187606
81.9932738009425
90.7908236899703
98.9401628102398
105.104352355072
107.675527729671
106.402642555611
102.97612386806
111.384323044473
125.383242118772
133.795207723834
125.987909502831
77.9337779232543
72.5396848325231
79.3909779047918
78.6555839398639
68.4247123866311
62.2510724029898
61.0574190956455
59.6073088080291
56.2837112252109
51.6510527258943
46.6171800881931
42.1702813897466
38.476706593126
35.4517374283663
32.9338778362516
30.7747297563136
28.7672657668562
26.6990079067835
24.5625238398061
22.4134045424536
20.3520744147401
18.5106547215039
16.994547682972
15.8611676055896
15.1833577960078
15.0425857001149
15.5709747468236
16.6306428152849
16.7226093296702
16.1137534533358
15.695697220356
15.3268630165333
15.0401759122494
14.8077014952313
14.6216697374899
14.4677134958335
14.3390961113911
14.2289018134931
14.1331915996111
14.048640763717
13.9731418276259
13.9050299208066
13.8431296859903
13.7866461487689
13.7349704546305
13.6869831006877
13.6419722169746
13.5998288785111
13.5603097802607
13.5232317258629
13.4884467975364
13.4558112951057
13.4251825335084
13.3964308040326
13.3694398475553
13.3441128865397
13.3203634346573
13.298121513527
13.2773219273995
13.2579055296572
13.2398157315308
13.2229953607317
13.2073927311946
13.1929571677096
13.1796576374914
13.1674688722019
13.1563922948355
13.1464162149989
13.1375063634001
13.1296227190133
13.1227059637046
13.1166999836764
13.1115457859461
13.107196493479
13.1036180294633
13.1008028898768
13.0987663072406
13.09751951634
13.0970536970377
13.0973755229489
13.0984740095989
13.1004436012303
13.1033511005478
13.1075709786617
13.1133084586201
13.1215414124618
13.132618738586
13.1489063250185
13.1706230706657
13.2022953322224
13.2416133806417
13.3235631084705
13.3578249145597
13.3318741451449
13.6040459000792
14.1077363436819
14.875114177141
15.8829036710773
17.1292157451828
18.5513988666474
20.1022204169055
21.7511226555798
23.502624923112
25.3483156943178
27.3980717957303
29.7497572459707
32.4705670581513
35.6440607727472
39.3174926291984
43.5173272895068
47.7534525483009
51.5745993620349
54.3501299572222
55.0881164707115
54.1381945093555
51.8606578564242
57.9299783586653
70.6060556724775
85.1065455677566
85.1731438146448
56.8774879307339
51.9417950453197
59.1795722041026
62.4645377572935
50.2890501966302
39.2433275800384
36.6135994799641
35.9778133452046
34.1913794847265
31.4995869549071
28.5957098850031
26.0424759832757
23.9197588511487
22.205133160396
20.7788564005513
19.5220639430577
18.2893728862058
16.9723835902964
15.5821462952483
14.1814998561718
12.8720809985574
11.7596233761082
10.8961031010668
10.3222065024219
10.098895294008
10.2756193335018
10.8712793035121
11.588780675508
11.3349021841685
10.6934933548109
10.3309047362258
10.033070426016
9.82971967578859
9.67505237364186
9.56187506893917
9.47414729555593
9.40623506985109
9.35171596143051
9.30744388925812
9.27062369440791
9.23960913027394
9.21307759354383
9.19014496852606
9.1702002391875
9.15231832012929
9.13581916517633
9.12050677078862
9.10628799101332
9.0929951523649
9.08052096055302
9.06877928931242
9.05768896445167
9.04717225036452
9.03716216499517
9.02760179365864
9.0184472762286
9.00966162347538
9.00121830142866
8.99309325729249
8.9852659405448
8.97771672444211
8.97042526448659
8.96337439436216
8.95654799558814
8.94994271660687
8.94355941824426
8.93741524374755
8.93151634392139
8.92585357797817
8.92041322775726
8.91516805889031
8.91009174480312
8.90515495735631
8.90033528850985
8.89561801022315
8.89100485152365
8.88651038315978
8.88214393623963
8.87790152486562
8.8737880730987
8.86979994865325
8.86599945604829
8.86244049172151
8.85936873936561
8.8569478851248
8.85582356738892
8.85631131586103
8.85998223714311
8.86719636870924
8.88104901342652
8.90070089884233
8.95154523445201
8.97213227187232
8.94254265174943
9.09878154060588
9.40208628736147
9.8673178086794
10.4771284314883
11.2251148977545
12.0716614792889
12.9931698383774
13.9712672204841
15.0087541663446
16.1007871156577
17.3206553953146
18.7157163592694
20.3132138470819
22.1566314526636
24.261662374193
26.6306088919037
28.9275808699252
30.9451128941823
32.4073298338757
32.6769745644803
32.2111463530942
30.7331329927091
34.2461539228
42.2123462451512
55.7908664318652
60.1613010092652
42.398790769236
38.8615836852528
45.4360850853874
53.2727620528597
42.755196748272
28.0784084406499
23.5571923830296
23.1761147994818
22.2165644227581
20.5897378411908
18.8644759233482
17.3572044138428
16.100003202715
15.09878033688
14.2517697574867
13.4582654012169
12.616734678171
11.6857127446662
10.6966976587305
9.72211252303641
8.85507251637466
8.16840098014341
7.67934564737459
7.41405509029615
7.41181804511326
7.68612358297834
8.18491530382016
8.59931242090746
8.21619995549699
7.70265128020224
7.45145329370629
7.2486587357827
7.1250849244008
7.03422676602553
6.97364044159401
6.92952594153495
6.89859511457665
6.87592246553989
6.85951685625947
6.84739300100193
6.83848921580592
6.83191436054703
6.82711607642554
6.82350084544345
6.82041708648802
6.81763520640578
6.81508446387273
6.81270684354516
6.8104135014862
6.80815818504949
6.80590439786953
6.80361724541899
6.80126325889675
6.7988156420628
6.79625364654828
6.7935643482464
6.79073858073392
6.78777322936955
6.78466577036809
6.78141516220713
6.77802005503394
6.77447804280994
6.77078844835785
6.76695149130438
6.76297608516919
6.75887424458229
6.75466809063763
6.75037029666917
6.74598220156454
6.74150116058145
6.73691454763518
6.73220963527287
6.72737122404861
6.72238871866575
6.71725704471643
6.71198250543366
6.70657935560172
6.7010567552483
6.69541480441031
6.68965975185867
6.68379534629072
6.67787139033948
6.67194149185825
6.66619028507164
6.66076977965968
6.65615761378137
6.65266608368605
6.65144534803612
6.65295507207919
6.65951238922443
6.67118656895798
6.70749113019318
6.72341007806574
6.69733293960245
6.79551668119588
6.99846120915003
7.312758709561
7.72550342465448
8.2289343117308
8.79548142653361
9.41102037977213
10.0634180199017
10.7537800410375
11.478719048016
12.2885995681345
13.2105026432918
14.2557601037296
15.448230090894
16.7923616517683
18.2855419295965
19.6994058492525
20.9183341364206
21.8283402969713
21.9894891837449
21.8128082910287
20.8336205126778
22.9386020519116
27.4915908176524
37.6926374503426
42.9861933026374
32.0180593208104
30.0127214715589
34.8662880964218
46.3515613722065
39.4958913481902
22.9935793143629
16.3005717165164
15.6787336377135
15.1287575973341
14.1126043015493
13.0918846155627
12.2141446765876
11.4760060960358
10.8923874361384
10.371236585767
9.83033996872284
9.20750895940953
8.50875178096912
7.77977470152954
7.09194152694027
6.51740587262795
6.09745593060984
5.83053278214149
5.73293905149058
5.82528033601161
6.09664528346085
6.46828261608227
6.68420079490882
6.30926881634073
5.9449933805875
5.78101512000572
5.64786228319491
5.57497448577531
5.52246937384341
5.49143953273504
5.47077338934091
5.45885039410481
5.45197743478161
5.44894272947802
5.44833963555691
5.44948602860665
5.45177247279805
5.45482311490632
5.45808538178322
5.46125678873895
5.46425118674045
5.46703643616411
5.46957891551416
5.47183469527905
5.47378817987228
5.47542777501073
5.47674158056092
5.477717980929
5.47834965051672
5.47863306460124
5.47856960620923
5.47816278690481
5.47741975780186
5.47634742779776
5.47495319892249
5.47324371115767
5.47122457250203
5.46890248070369
5.46628507520516
5.46338635045611
5.46022276427934
5.45681721526258
5.45318445646766
5.44933040004096
5.44525748644787
5.44096056034747
5.43643399353541
5.4316703338736
5.42666565098145
5.4214205627887
5.4159442840584
5.41025138582739
5.40435194020721
5.3982498178011
5.39195395254217
5.3854747746245
5.37885806039352
5.37216097307706
5.36553774415785
5.35913878206495
5.35335119379833
5.34849200893693
5.34547431169631
5.34483531065003
5.34843827765642
5.35691778444758
5.38597806089666
5.40070240333567
5.37906560439146
5.44428339885868
5.5893816131777
5.81735452973598
6.11829841735329
6.48431807096903
6.89488833982072
7.34044249177783
7.81248496724787
8.31114297415867
8.83409107915479
9.41767569920093
10.0796727586537
10.8247979485417
11.6669313365893
12.6065372924453
13.6400808667006
14.6079941736386
15.4342703314367
16.0764052997983
16.2109707560256
16.1768606371618
15.4958022203722
16.8587412565026
19.5235950540765
26.6518168089843
31.413282666144
24.6135071199885
23.9270147507238
26.585115511081
40.2127553578092
37.7176739437722
21.1597338349934
12.4003765344725
11.1595587453742
10.7364423630864
10.0479794080678
9.44766777315734
8.95960669282191
8.54453586883688
8.21315418157667
7.88209103217128
7.49037791291107
7.01032783732333
6.47725899210582
5.939481820604
5.45711113255325
5.07942272628824
4.82650548455729
4.68996191406459
4.68002684205488
4.80418663138805
5.03889750243049
5.30420480141717
5.40692199074386
5.08968645278415
4.84131599792791
4.73290071038419
4.64481298877711
4.60156775571201
4.57118775964355
4.55634429562253
4.5481992892189
4.54605267788142
4.54708756905917
4.55054460955196
4.55539298763495
4.56117277875528
4.56745059481855
4.57389999611902
4.58012456539054
4.58599336058687
4.59146688186614
4.59652782233565
4.60115732246357
4.60533531015836
4.6090605543714
4.61233319916998
4.61515227788078
4.61751674082657
4.61942859167117
4.62089247033445
4.62191632206912
4.62250941307716
4.62268332831117
4.62244911614581
4.62181787371471
4.62079985530493
4.6194044580717
4.61764190850341
4.61552347650772
4.61306534773784
4.6102857666406
4.60720711130856
4.60384468577187
4.60020667191042
4.59629824592869
4.59211867783397
4.58766665184962
4.58293958531155
4.57793783886827
4.57266579501724
4.56713470710006
4.56135963416546
4.55535177782304
4.54911812501452
4.54267031922032
4.53602410513507
4.52922421110817
4.52233128536101
4.51548231321584
4.50882751965669
4.50269902094671
4.49741953132251
4.49375563365864
4.49228553887728
4.49458251513504
4.50162810448337
4.52641508355672
4.54090153395176
4.52343436552264
4.56839803417807
4.67685017934685
4.85036541050013
5.08114993657178
5.36165406368339
5.67587860872065
6.01675803288323
6.37807696186043
6.75943798751831
7.15937223418697
7.60524161985299
8.10996349999164
8.67542100893851
9.31011569539391
10.0132298715124
10.7811985330085
11.498967275561
12.1105880495451
12.6046988001903
12.7326051122323
12.765565682707
12.2684250737073
13.2057627773248
14.8674421348781
19.7948226295298
23.7294595744093
19.3451777330772
19.6472785069743
20.3039461397669
34.4538016276079
36.1553118234093
20.9752931427498
10.519718387413
8.44557326131931
7.97316820934615
7.43234159635453
7.06232197490052
6.80802752849698
6.59299886833261
6.41467858613258
6.19900304646867
5.90574047055153
5.53263269325434
5.12764142883288
4.73350291909471
4.39670618233256
4.14930687884732
4.00006937260523
3.93943465922293
3.97338257293314
4.10094403100599
4.29394736053232
4.48181020100103
4.52421531432745
4.27112152545045
4.10223521331058
4.02816535326441
3.96913776281674
3.9434610720133
3.92631907852817
3.9206934185475
3.91957372594206
3.92270707860695
3.92790564062541
3.93466583924029
3.94220730011119
3.95020066347415
3.95832189508406
3.96626864884858
3.97380005017536
3.98085330964908
3.9874062051851
3.99344847224448
3.99897025012109
4.0039643140075
4.00843613609819
4.01239141079761
4.01583446850587
4.01876957405984
4.02120341453336
4.02314469851288
4.02460451688466
4.02559486995284
4.02612931968283
4.02622083139997
4.02588223271393
4.02512557605368
4.02396226219893
4.02240442324811
4.020465328245
4.01816221204875
4.01551407971251
4.0125425325318
4.0092629594158
4.00568488507155
4.00181524984798
3.99765632535549
3.99320978630054
3.9884764698523
3.98345979412679
3.97816685028427
3.97261040974189
3.96680601057048
3.96076589275847
3.9544995000003
3.94802080280469
3.94134955427046
3.93453036032661
3.92762630945532
3.92076315305642
3.91408991704644
3.90790552593492
3.90253098018197
3.89863260212849
3.89680131015605
3.89840918756545
3.90464608822342
3.92642369420823
3.94075776587309
3.92694291522891
3.95881348299602
4.04248804530575
4.17915169682265
4.36257229634439
4.58573220878399
4.83575396671115
5.10708234444853
5.39500038978314
5.69884417605064
6.01783326068696
6.37326038495538
6.77519912954828
7.22433012685562
7.72609568168307
8.27944191667457
8.88106370513095
9.44580104816698
9.92943073631672
10.3332526176171
10.4596660800514
10.522263678968
10.1432574157052
10.8126398225002
11.9228513975148
15.3692946513663
18.5617599935382
15.5729057864994
16.5086358875202
15.7682552588133
29.0530201745678
34.183854994052
21.5368626359724
9.87369062940306
6.8567692587815
6.23152153965704
5.73657861426359
5.47262345009874
5.34691676333351
5.25086185939604
5.16413399541751
5.02140083700822
4.79901513520152
4.50998297102251
4.20379152409039
3.91525467714202
3.67956309448387
3.51773549789648
3.4330540306138
3.41656724015814
3.47096743563395
3.59026636750061
3.74623493739043
3.88040028747899
3.89226105127033
3.69530779163393
3.57912272923871
3.52703962617122
3.48733772156028
3.47256231957451
3.46381705459377
3.46376725917667
3.46686793831233
3.47305205124394
3.48059950609743
3.48915245711507
3.49810562045722
3.50720967207887
3.51620511291682
3.52483351305088
3.5329555945253
3.54053695445696
3.54756296508114
3.55402743893093
3.55992622251364
3.56525922687899
3.57003506386591
3.57426208418883
3.57794727684892
3.58109775398512
3.58372273853751
3.58583314044085
3.58744169019194
3.5885618077577
3.58920801955575
3.58939429130191
3.58913438676553
3.5884414124298
3.58732801409072
3.58580753890717
3.58389453970221
3.58160687340431
3.5789639451135
3.57598668184401
3.5726904808911
3.56908583623692
3.56518103724129
3.56098063518083
3.5564886091131
3.55170841325009
3.54664582353848
3.54131001684902
3.53571496156645
3.52987662601617
3.52380812808333
3.5175208228575
3.51103057367138
3.50436009183498
3.49755405383891
3.49067690774045
3.48384613071027
3.47721142172307
3.47104614802555
3.46566307011466
3.46165414349889
3.4596083493561
3.46074556996518
3.46637071033923
3.48572115185203
3.49973099866961
3.4890201128027
3.51213629417569
3.57826477016459
3.68868164283548
3.83836373577497
4.02088852266374
4.22564862478505
4.44806998149857
4.6844556339121
4.93402776454534
5.19655630010335
5.48904856613011
5.81974586793261
6.18886173852645
6.60003218605849
7.05238710808381
7.54306149342061
8.0077520512248
8.40981135256892
8.75438766659551
8.88028419610151
8.95322556730776
8.65232076698402
9.14042074996458
9.92925077418005
12.3861601849069
14.9798665784764
12.8399799244423
14.0837103605768
12.6385862557172
24.105390607251
31.8171606099839
22.3021622664965
10.0151465691624
5.99147587327975
5.13688132560531
4.63366808858028
4.40204925128294
4.33654503013463
4.30633210582904
4.27283698215997
4.17748898483801
4.00790741313772
3.78443715687324
3.55269968544429
3.3404064727199
3.17450433734376
3.06920767573826
3.02515128700085
3.0342469356953
3.09665436536954
3.20375457543055
3.32952629644161
3.42704545049308
3.42458246653755
3.27301743515258
3.19187907369145
3.15471615350964
3.12837120690742
3.12077013840272
3.117698925516
3.1212700143559
3.1271136148797
3.13521455741549
3.14421089209033
3.15382971597404
3.16359367213673
3.17330667670757
3.18274569700615
3.19171072068231
3.20011946261889
3.20795024612007
3.21519261982867
3.22184318978101
3.22790160570909
3.23337189509368
3.23826415403773
3.24258803091962
3.24635192782957
3.24956463011823
3.25223689992221
3.25438100067343
3.25601065666679
3.25714015694044
3.25778461171458
3.25795864161814
3.25767665945565
3.25695254762836
3.25579989069489
3.2542329713364
3.25226732203637
3.24992130056607
3.24721463622722
3.24416779920384
3.24079626358475
3.23711135830089
3.23312254887481
3.22883627640168
3.22425844411262
3.2193946474669
3.21425259636556
3.20884316814271
3.20318133055109
3.19728344015264
3.19116334126307
3.1848338791587
3.17831242770635
3.17162385719277
3.1648128562777
3.15794432902448
3.15113135106632
3.14452209729989
3.13836715897936
3.13296890651168
3.12886116921975
3.12662136909223
3.12734714836456
3.13239366440596
3.14961356444806
3.1630800095531
3.15495475461106
3.17208351362504
3.22535974156293
3.3163538278699
3.44101163619502
3.59351336848011
3.7649696554498
3.95148262921828
4.15007094656195
4.35993938840614
4.58129891871809
4.82802217388563
5.1070732805018
5.41853824709599
5.76496916441948
6.14585716814319
6.55893393739711
6.95491422045327
7.30229136922502
7.60572644825353
7.73059717542578
7.8033191106217
7.55473005146493
7.91409074979321
8.5027634286368
10.2917571284454
12.4069106488577
10.8309840245383
12.1207758103778
10.5522714323332
19.659672706248
29.2632027644534
22.8529804909052
10.6783641243273
5.62428711447192
4.46241006575243
3.91499922816892
3.67433775614272
3.62650976617065
3.62827735176939
3.62428507166156
3.56011481182303
3.43001320685709
3.25673522599076
3.08024844545019
2.92275338390069
2.80530948948083
2.73783837193971
2.7196207354706
2.74329333426554
2.80716205025434
2.90155255390706
3.0035646583175
3.07616889372144
3.06811883888735
2.95221105738579
2.8948574825495
2.86846746937234
2.85172173493982
2.84915992650006
2.85017335562808
2.85628929329808
2.86407732542532
2.87351152315037
2.88350940724686
2.89384960624609
2.9041513160688
2.91425579957614
2.92396566849287
2.93313722764743
2.94171873621305
2.94969500021528
2.95705847534725
2.96380794583521
2.96994574437669
2.97547839651189
2.98041673897146
2.98477109785237
2.98855071266567
2.99176549304015
2.99442729641259
2.99654937876138
2.99814621598069
2.99923277237825
2.9998246482628
2.99993703398867
2.99958493340399
2.99878293908144
2.99754547861008
2.99588768249806
2.99382595510962
2.99137917076486
2.9885674345435
2.98541100553314
2.98192555503438
2.97812322163855
2.97401458983733
2.96960777439075
2.96491038269827
2.95992985535868
2.95467556793663
2.94915985388883
2.94339856278755
2.93740841570108
2.93120386153502
2.92479891891454
2.9182121614539
2.9114700204388
2.9046170526423
2.89771951347692
2.89088650220272
2.88426152970735
2.87807625941501
2.87262139245678
2.8683831147183
2.86592086269251
2.86622987253234
2.87066976321376
2.88592969341537
2.89865345337583
2.8926436884915
2.90561460238859
2.94923546720049
3.02542936039947
3.13093844019866
3.26052721274895
3.40664706934517
3.56589009859588
3.73579253526325
3.91560714508842
4.1059011761141
4.31818825220397
4.55848380275431
4.82690199062612
5.12535325946373
5.45377613603892
5.81063847099107
6.15771337336153
6.46696255540911
6.74039673334845
6.86305754158644
6.92936227813082
6.7157008417884
6.98077526781671
7.4361316330126
8.76790779781136
10.4941500229728
9.3293315592159
10.4813487663769
9.19358260251445
15.7039363778393
26.6575785191355
23.0980699696631
11.6815756853043
5.6366376141926
4.0785235216995
3.45150448826964
3.17657597357357
3.11980673184375
3.13198823912304
3.14283808228381
3.09926869987773
2.99859953214902
2.8633331341495
2.72770537947516
2.60980994699377
2.52641200868251
2.48460084169871
2.48290725105502
2.51453041025073
2.576513810498
2.65911158481496
2.74273043687591
2.79841141465965
2.78942335443094
2.70131126033938
2.66059603580845
2.6424346673287
2.63285829011756
2.63408245244809
2.63822289486761
2.64628373962576
2.65558086218911
2.66605362570414
2.67683999096796
2.68775198343263
2.69848342630453
2.7089025394521
2.71883700149848
2.72818718065411
2.73691867167438
2.74502028551543
2.75248689891929
2.75931916040976
2.76552142339816
2.77110184874739
2.77607172041596
2.78044179199027
2.7842219001029
2.78742284593761
2.79005741617215
2.79213974168125
2.79368500527094
2.79470882654503
2.79522733705293
2.79525633521396
2.79481146567614
2.793908067069
2.79256141796286
2.79078750394117
2.78860359333311
2.78602915658134
2.78308478460876
2.77979076736559
2.77616311271265
2.77221479839825
2.76795752957704
2.76340097675368
2.75855432285354
2.75342666416776
2.74802886778991
2.74237456766149
2.73648043145796
2.73036353968859
2.72403885541068
2.71752133537845
2.71083050849569
2.7039939133318
2.69705692170182
2.69008644267468
2.68318650636604
2.67649537803712
2.67022857438443
2.66466423682023
2.66024812212516
2.65751740122917
2.65737884603931
2.6611640285925
2.67457563344352
2.68639316697416
2.68208199882318
2.69213532463405
2.72836042760929
2.79301532155508
2.88350717519849
2.99515386078829
3.12147864981937
3.25944480428011
3.40697643682795
3.563421644432
3.72963871155759
3.9153233745622
4.12574938405414
4.36112721934376
4.62301357393419
4.91185199141022
5.22696080317239
5.53833784870775
5.8201059353802
6.07058585244361
6.18954509722398
6.24542048235678
6.05459712068049
6.24939132358374
6.61021662177653
7.62461356889619
9.02904717687557
8.185531452433
9.0923889284054
8.313759602644
12.3035363573433
24.0210277217867
23.098541466209
12.9040928389826
5.97071031619438
3.91746225790599
3.16719934553859
2.83813289814948
2.75419807647385
2.76214078048681
2.77840692523081
2.7483665381403
2.66962821745105
2.56309099880866
2.4578205067487
2.36883605621885
2.30967177866079
2.28546378997434
2.2943013629636
2.32984135005538
2.38834933723262
2.46058208766663
2.53007828765967
2.5742942773684
2.56677852844792
2.5003845831961
2.47174700525572
2.46017359249674
2.456161317064
2.46042155314314
2.46709997087718
2.47677396606753
2.48734790088782
2.49872251755962
2.51021061662436
2.52164805133244
2.53278756669686
2.54351771585008
2.55369209677665
2.5632428648886
2.57214626415883
2.58039417114841
2.58798370048709
2.5949172048459
2.60120067398263
2.60684346327735
2.6118572400063
2.61625312749117
2.62004149394972
2.62323396682925
2.6258442421538
2.62788733510382