/*--------------------------------*- C++ -*----------------------------------*\
  =========                 |
  \\      /  F ield         | OpenFOAM: The Open Source CFD Toolbox
   \\    /   O peration     | Website:  https://openfoam.org
    \\  /    A nd           | Version:  7
     \\/     M anipulation  |
\*---------------------------------------------------------------------------*/
FoamFile
{
    version     2.0;
    format      ascii;
    class       volScalarField;
    location    "20000";
    object      p;
}
// * * * * * * * * * * * * * * * * * * * * * * * * * * * * * * * * * * * * * //

dimensions      [0 2 -2 0 0 0 0];

internalField   nonuniform List<scalar> 
15600
(
-1.98332885257228e-08
0.0117251962522827
0.0142627784881923
0.0365344512106502
0.0510941903019262
0.0595464295710874
0.0643053102477585
0.0681777905275799
0.0706007382773531
0.0725344550153451
0.073774939331624
0.0747082730059403
0.0754301961015352
0.0760056494196883
0.0765022111070397
0.0769717571658876
0.0774950511442612
0.0780762848579696
0.0787362311187797
0.0794652748291921
0.0802298151495761
0.0809375578592612
0.0815602083365887
0.0820809370336869
0.0824505373789482
0.0826427946991819
0.0827146403794686
0.0821620382576232
0.0817359920806281
0.0817767278606183
0.0820990768259015
0.0828062142498692
0.0838517752981783
0.0852231694663035
0.0868874495229843
0.0888203934651341
0.0909973572303186
0.0933979021384245
0.0960034855236218
0.0987978184289764
0.101765917020205
0.104893886638072
0.108168645428483
0.111577753211018
0.115109253385416
0.118751535724427
0.122493236924317
0.126323129846699
0.130230095034059
0.134203194408514
0.138231662310493
0.142305002038404
0.14641307105245
0.150546132250165
0.154694896530109
0.158850532055971
0.16300469835085
0.16714954322745
0.171277729686609
0.175382443692995
0.179457403934312
0.183496873659159
0.187495645928233
0.19144905340946
0.195352915160352
0.199203553806862
0.202997719332286
0.206732619002277
0.210405945893737
0.214015848507644
0.217560942632545
0.221040243930101
0.224453141968995
0.227799329152353
0.231078761919668
0.234291600026151
0.237438165525039
0.240518943862655
0.243534631075889
0.246486054817695
0.249374298018815
0.252200391373204
0.25496575240984
0.257671306752632
0.260318974632411
0.262909211232331
0.26544531980525
0.26792669654329
0.270359904192796
0.272742687948316
0.275085743571
0.277393153982253
0.279613653098606
0.281929507799803
0.284257971855328
0.286748258265343
0.289317708114897
0.291999089620072
0.294715262656676
0.297424716368421
0.299904536200619
0.301954585226151
0.303266660878654
0.303611723351381
0.302693438749511
0.300659297516332
0.29744668868607
0.292755776800187
0.286221707113035
0.27691728392411
0.263357715023452
0.241557183865678
0.209239615381456
0.163557923271819
0.0986883445374234
0.0178362698301634
-0.0653816049907479
-0.0783963473638028
-0.0574726850993868
-0.0183712480764733
3.7741449997778e-06
0.0117369905436088
0.0142705257877737
0.0363404417262905
0.0508626626921787
0.0593540705899508
0.0641581952496636
0.0680648482664611
0.0705236365804767
0.0724820957090261
0.0737465631949954
0.0746939750482046
0.0754261194221819
0.0760087859890633
0.0765096725294798
0.0769799806371195
0.077501146995672
0.0780791351698946
0.078735257191518
0.0794614351805782
0.0802262921963472
0.0809375413338986
0.081564282129256
0.0820889740990153
0.0824615174488061
0.0826545747173341
0.0827270948140281
0.0821723873556363
0.0817490209643368
0.0817912938051255
0.0821142302157764
0.0828223095753759
0.083868695326883
0.0852408428041705
0.0869057189780671
0.0888391005144765
0.0910163324927985
0.0934169822452999
0.096022512380967
0.0988166425232217
0.101784397487166
0.104911891825499
0.108186052717227
0.111594448704315
0.115125131024174
0.118766497516266
0.122507196248162
0.126336011912429
0.130241834006003
0.134213734305451
0.138240957111594
0.142313015687639
0.146419777028914
0.15055151309215
0.154698943394931
0.158853244202181
0.163006082639341
0.167149613563195
0.17127650639981
0.175379952895828
0.179453676810721
0.183491945788892
0.187489556577477
0.191441844992717
0.195344632718502
0.199194244698996
0.202987432910345
0.20672140579547
0.210393856850798
0.214002934303319
0.217547253099518
0.221025827738426
0.224438046424464
0.22778360019921
0.231062444280172
0.234274737556972
0.237420801358886
0.240501120018898
0.24351638821796
0.246467431992502
0.24935533313906
0.25218112154343
0.254946215636334
0.257651542257804
0.26029902568362
0.26288912411144
0.2654251489497
0.267906502205174
0.270339756077396
0.27272265385568
0.275066098484032
0.277373351818406
0.279597931792553
0.281928320291323
0.284272916415411
0.286780167130191
0.289366188349957
0.292062469732876
0.294789474668656
0.297500479903949
0.299967951009388
0.30198988893764
0.303258918754041
0.303548521037829
0.302573967185615
0.300486792100663
0.297212761059489
0.29244504620985
0.285803985240559
0.276337967549412
0.262506508620251
0.240342857163909
0.207637880735193
0.161558743174416
0.0965522222588693
0.0162574883581212
-0.0654330263734114
-0.0779154028439534
-0.0572547557945279
-0.0183241128389201
2.68134265407773e-05
0.0117859947523723
0.0143285755396053
0.0361820406613734
0.0506523781385091
0.0591727470328651
0.0640141686802094
0.0679525406594787
0.0704456392767273
0.0724286824496515
0.0737171595348238
0.0746790616777522
0.075421710291217
0.0760118153875935
0.0765172391389726
0.0769884282094818
0.0775073696215897
0.0780817064513353
0.0787333203119597
0.0794556532072831
0.0802196968277439
0.080933483762254
0.0815637422397494
0.082092253874344
0.0824678892282998
0.0826627664245058
0.0827373710149962
0.0821790426653134
0.081759512526719
0.0818039262848701
0.0821274183912273
0.0828366524815494
0.0838840789707741
0.0852571967040008
0.0869228168139297
0.0888567252759586
0.0910342538372235
0.0934349878859571
0.0960404024911218
0.098834235147711
0.101801526055434
0.104928403545197
0.108201806715441
0.111609314033154
0.115138986701187
0.118779238825823
0.12251874061498
0.126346289032801
0.130250780505741
0.134221298085379
0.138247098316748
0.142317705639544
0.146422997692488
0.150553256515983
0.15469921140603
0.158852047646595
0.163003440927825
0.167145553859099
0.171271062830484
0.175373165748358
0.179445591559244
0.183482612412055
0.187479028571789
0.191430179155255
0.1953318883535
0.199180483785288
0.202972719416956
0.206705804218271
0.210377431410551
0.213985747920403
0.217529367021044
0.221007301189865
0.224418936673485
0.22776396271585
0.231042333260912
0.234254206623903
0.237399903678214
0.240479907414342
0.243494911323166
0.2464457393203
0.249333473565948
0.252159142834676
0.254924171591306
0.257629486801222
0.26027702894762
0.262867253273172
0.265403506049175
0.267885176086338
0.270318893233201
0.272702357562664
0.275046907866332
0.277354112700208
0.279580460363899
0.281924399526179
0.284284363439522
0.286808338207847
0.289410395880397
0.292120862289534
0.29485727758866
0.297567862034768
0.300020450860777
0.302011848107094
0.303235935802338
0.303469722711959
0.302439621624541
0.300299677857926
0.296963225780232
0.292116528735194
0.285365031215195
0.275732671313583
0.261633110205124
0.239132462276516
0.206098818442797
0.159750857281135
0.0948822267543092
0.0155967937228398
-0.0642849652598216
-0.0766942261952703
-0.0568344722706736
-0.018252496192385
9.46112802578826e-05
0.0119029796351835
0.0144880686625326
0.0360791202401275
0.0504589199340475
0.0590110529033998
0.0638813570700329
0.0678460702475121
0.0703702801272065
0.0723763731170948
0.0736881358397045
0.0746643240803681
0.0754173804179659
0.0760148057912404
0.0765246617956886
0.0769966407069786
0.0775130259097483
0.0780830110066388
0.0787290008087464
0.0794459102754758
0.0802070667939057
0.080921334319988
0.0815534801066927
0.0820847220700719
0.0824630572838132
0.0826608672936033
0.0827376449427484
0.0821748348800785
0.0817621942224052
0.0818098226415765
0.0821349347626325
0.0828463183678262
0.0838956103917801
0.0852702932017817
0.0869370005844485
0.0888715704080408
0.0910493560028199
0.0934499986446699
0.0960550145278752
0.0988481840439737
0.101814581844023
0.104940362572595
0.108212485167682
0.111618545806292
0.115146637340093
0.118785220784348
0.122522973195554
0.12634868926126
0.130251290936288
0.134219882214961
0.138243737046576
0.142312394894588
0.146415747376037
0.150544089619767
0.154688163665037
0.158839166276178
0.162988783970029
0.167129188839874
0.171253065458215
0.175353618647423
0.179424582696642
0.183460234161039
0.187455376222815
0.191405350985803
0.195305984575406
0.199153607283852
0.202944974697004
0.206677294731989
0.210348258268974
0.213956008288081
0.217499153782766
0.220976702657292
0.224388037070302
0.227732842833497
0.231011071823582
0.234222881911573
0.237368593969555
0.240448689437885
0.243463860678247
0.246414928995558
0.24930297890603
0.25212903934127
0.254894548754865
0.257600438300504
0.260248683050252
0.262839739874829
0.265377026268015
0.267859919619238
0.270295165488856
0.272680416702432
0.275027535660827
0.277336277299217
0.279563192663784
0.281917873009383
0.284290285474983
0.286828067606873
0.289442592278658
0.29216314864764
0.294903831089152
0.29760794609706
0.3000395316274
0.301995369075132
0.303171233864423
0.303348730407033
0.302265008338835
0.300073792532627
0.296674839533539
0.291747755078181
0.284883135799865
0.275081855978813
0.260724203322856
0.23792701944059
0.20464452219812
0.158183129948067
0.0937532385965934
0.0159448057573796
-0.0617599862145105
-0.074422209905529
-0.0559862000238191
-0.0181065917155414
0.000243816106197134
0.0121193488806213
0.0148079505620252
0.0360727983806019
0.0502617275731192
0.0588571788716021
0.0637529986618996
0.0677408329127679
0.0702943283999361
0.0723227675996286
0.073658196652556
0.0746491380348603
0.0754130197696902
0.0760180153945589
0.0765324133340656
0.0770051009346489
0.077518308536901
0.0780827188781853
0.0787211776090295
0.0794300171698512
0.0801849218906693
0.0808963616194355
0.0815275698318813
0.0820594311684192
0.0824396856521191
0.0826413454818993
0.0827199641699735
0.0821562425094654
0.0817569419943147
0.0818091071643551
0.082138133466386
0.0828536381928292
0.0839061351735814
0.0852831650562787
0.0869512377618249
0.0888863627091643
0.0910640003652185
0.09346391981452
0.0960677311203629
0.0988592989971582
0.101823764306296
0.104947329820353
0.108216991787251
0.111620394373776
0.115145698845479
0.11878138474381
0.122516126655136
0.126338759093658
0.130238243559046
0.134203715527501
0.138224476036512
0.142290087125751
0.146390460627999
0.150515910052116
0.15465719496107
0.15880552754992
0.162952608590175
0.167090622299421
0.171212263269803
0.175310744302154
0.179379805196036
0.183413726506125
0.187407313214889
0.191355909401387
0.195255341947788
0.199101943313009
0.202892470059356
0.206624127016706
0.210294599591465
0.213902022731115
0.217444996743372
0.220922520526886
0.22433396820685
0.227679018989806
0.230957620817884
0.234169930879292
0.237316270814803
0.240397120766274
0.243413172194733
0.246365243602376
0.249254424225892
0.252081746213511
0.254848672625327
0.257556148999746
0.26020621012167
0.262799331802432
0.265339049762579
0.267824756271193
0.270263382614483
0.272652573802101
0.275004570822703
0.277318387614249
0.279547102324457
0.281908803495817
0.28428856878627
0.286834472798025
0.289454467572281
0.292177053187107
0.294911978375114
0.297597914035933
0.299996417105815
0.301905655798785
0.303024235277246
0.303139848327013
0.302000847014467
0.29975695580105
0.296291674640606
0.291277352870798
0.284288599531842
0.274302870777728
0.259675000889211
0.236590018845667
0.203095394726538
0.156607031603663
0.0928069817652162
0.0168089611413389
-0.0583547276931949
-0.0712250170230552
-0.0545571516879703
-0.0177916539191228
0.000505854068599455
0.0124544098359015
0.0153177480512845
0.0362143005082164
0.050072008631311
0.0587074835009226
0.0636253330623085
0.0676350443982473
0.0702166734780199
0.0722669608517293
0.0736268044882447
0.0746332701489562
0.0754086340426312
0.0760216515151661
0.0765408495619045
0.0770141979001347
0.0775234031009767
0.0780805775237086
0.0787089004968394
0.0794060498265805
0.0801501942226698
0.0808544806526099
0.0814811458009375
0.0820110604254215
0.082392562388468
0.0825988795099693
0.0826785991676396
0.0821224261744525
0.0817452122948857
0.0818040176683674
0.0821407869151959
0.0828629825345871
0.0839200028750838
0.0852997675868178
0.0869689287079747
0.088903885651573
0.0910803514112321
0.0934783205835988
0.0960795641154482
0.0988680779014354
0.101829103107367
0.104948913868948
0.108214567519734
0.111613784766307
0.115134772396392
0.118766024463155
0.122496258124462
0.126314358894048
0.130209330885929
0.134170348842802
0.138186747474021
0.142248116073282
0.14634439007831
0.150465903898561
0.154603436753025
0.158748217802204
0.162891963312198
0.167026870327118
0.171145643659781
0.175241503764428
0.179308195021618
0.183340000685558
0.187331725755932
0.191278714689785
0.195176793506327
0.199022296009754
0.20281197897832
0.206543042520955
0.210213164026047
0.213820467024221
0.217363539523194
0.220841367729608
0.224253314517033
0.227599049955899
0.230878516766054
0.234091871761102
0.237239438858678
0.240321698338652
0.243339342266321
0.246293187653478
0.249184332064448
0.252013815500237
0.25478313726372
0.257493269653931
0.260146333621666
0.262742845314071
0.265286507407786
0.267776761549115
0.270220800696828
0.272616329974186
0.274975748521248
0.277298659963441
0.279531273644076
0.281895718777141
0.284276007875671
0.286822608460377
0.289438944488637
0.292153108202312
0.294869701255681
0.29752305781484
0.299873456030515
0.301721997623841
0.302771080021719
0.302816006679222
0.301616743246535
0.299315731626661
0.295777178954214
0.290664861435734
0.283535585596227
0.273342075178403
0.25841839676218
0.235031597434666
0.201328387624785
0.154846409115395
0.0917783087325053
0.017777555675117
-0.0545970620642326
-0.06746703242001
-0.052604841633271
-0.0172526307020586
0.000883447307745751
0.0129036305631617
0.0160075730879346
0.0365177363850344
0.0499264661041143
0.0585707885483398
0.0634978112332603
0.0675273125325875
0.0701367393336993
0.0722085092950209
0.0735937077834319
0.0746166838399569
0.0754043582083999
0.0760260102859152
0.0765503871729974
0.0770243663302804
0.0775285675542498
0.0780765137175425
0.0786916813192703
0.0793731384670147
0.0801018276467137
0.0807947681157364
0.0814137015488627
0.0819396258655007
0.0823219450240723
0.082532960811075
0.0826120961501831
0.0820747596583922
0.0817286378530553
0.0817968221754499
0.0821452681141937
0.0828759358358126
0.0839380174432633
0.0853202180490709
0.086989701561382
0.0889234516989675
0.0910975571865918
0.0934923073821212
0.0960896784757732
0.0988738259967503
0.101830110555885
0.104944890338053
0.108205298167235
0.11159911819563
0.115114594028298
0.11874026280161
0.122464892220828
0.126277417827636
0.130166887336884
0.134122517644057
0.138133679007304
0.142189988797766
0.146281406276842
0.150398286592638
0.154531428447695
0.158672077545077
0.162811965260331
0.166943300831493
0.171058798530479
0.175151685508231
0.179215709523251
0.183245155241878
0.18723482613772
0.191180065735005
0.195076697774999
0.198921056707489
0.202709898793256
0.206440418432308
0.210110283692597
0.213717604861779
0.217260955890896
0.220739308417426
0.224152012514737
0.227498727889223
0.230779391549793
0.233994160376109
0.237143361798385
0.240227477802862
0.243247202911585
0.246203354476956
0.249097041706833
0.251929316170597
0.254701721374748
0.257415264351248
0.260072168921917
0.262673004455584
0.265221669687314
0.267717674533927
0.270168522890551
0.272572017720733
0.274940605675489
0.277275073153646
0.279513210767213
0.281877746763853
0.284252473383974
0.286793420774823
0.289398195156713
0.292094814908557
0.294782145264277
0.297390502420341
0.299679571585273
0.301454644853431
0.302422611393409
0.302387388653457
0.30112019933749
0.298754249218138
0.295132382479964
0.289908377729494
0.282619475195064
0.272192688652307
0.256945110159507
0.233235164772704
0.19931660490748
0.152860899021341
0.0905994125267347
0.0187033926377286
-0.0507643689902357
-0.0634550474708526
-0.0502935621269159
-0.0165024380909659
0.00136439405869929
0.0134461430460928
0.0168492384118218
0.0369593484372399
0.0498571143382229
0.058465992797651
0.0633775649868535
0.0674157361029489
0.0700534103126074
0.0721467358610416
0.073558591244848
0.0745994049065155
0.0754004689324757
0.0760315712795102
0.0765616265536762
0.077036211570368
0.077534308910195
0.0780709616739712
0.0786700530382378
0.0793322449419574
0.0800415848081405
0.0807199587331422
0.0813288961506475
0.0818493331164984
0.0822316155545704
0.0824460192690757
0.082522523359129
0.0820151704123214
0.0817070752560374
0.0817872184735321
0.0821503380677507
0.0828903774993421
0.0839576972373275
0.0853419844784393
0.0870111990663148
0.0889430121626852
0.0911139577058933
0.09350465685955
0.0960973138784804
0.0988762600480273
0.101826985737868
0.104935939348497
0.108190323033198
0.111577979247672
0.115087202243781
0.11870658081096
0.12242493256922
0.126231242201402
0.130114601989344
0.134064272407613
0.13806965993699
0.142120410144733
0.146206506058784
0.15031832333887
0.154446680051801
0.158582838144592
0.162718543932477
0.166846018478001
0.170957985132651
0.175047677272738
0.17910884543348
0.183135775096391
0.187123267394864
0.191066664283207
0.194961786305584
0.198804968217119
0.202592965168396
0.206322965315955
0.209992626960179
0.213600046320401
0.217143782705818
0.220622792400648
0.224036412076583
0.227384290489568
0.23066635867957
0.233882773704857
0.237033866960294
0.24012012311223
0.243142240449683
0.246101038010579
0.248997638652138
0.251833107400325
0.254609035357222
0.257326467158344
0.259987735138647
0.262593465234402
0.265147758875797
0.267650193764608
0.270108601906638
0.272520844549767
0.27489945966866
0.277246135933289
0.279490725974839
0.28185509285753
0.284219879688577
0.286750742289174
0.289338079813279
0.292010165390756
0.294659915356197
0.297213908007108
0.299431503577424
0.301123095934319
0.3020005227185
0.301876814813616
0.300533456703279
0.298093344515927
0.29437694266169
0.289026880187432
0.281559470261108
0.270875900806047
0.255280798681612
0.231230564468841
0.19709491088655
0.1506938804334
0.0893152893987951
0.0196043490020228
-0.0469278425455709
-0.0593475203643879
-0.0477590483588773
-0.0155769147308138
0.00193638980475394
0.0140627566643246
0.0178127451149097
0.0375059558089317
0.0498846059932649
0.0584043039098791
0.0632846367910802
0.0673000837984648
0.0699653630039691
0.0720808877308653
0.0735211787978116
0.0745816109316691
0.0753974548175005
0.0760390207488041
0.0765753352550243
0.0770504989964333
0.0775414257027493
0.0780649198299745
0.0786454722216943
0.0792856012664525
0.0799726619007071
0.0806340347607957
0.0812311276527354
0.0817444539433328
0.0821250161474915
0.0823408166168566
0.0824135202889682
0.0819451935545923
0.0816791510602414
0.0817735367543053
0.0821536488526658
0.0829037386433029
0.0839766410660954
0.0853629921128634
0.0870317429982767
0.0889613040363651
0.091128698294191
0.0935149075069212
0.0961023816162083
0.098875643730706
0.101820324221396
0.1049229588182
0.108170821807014
0.111551818890766
0.115054308753688
0.118666931551772
0.122378555663964
0.126178216090809
0.130055050974833
0.133998365959617
0.137997604607322
0.142042441138973
0.146122882802526
0.150229326074434
0.154352608784396
0.158484009295555
0.162615289166993
0.166738681351756
0.170846918357504
0.174933239787339
0.17899139884631
0.18301568175068
0.187000886986748
0.190942354778197
0.194835901902323
0.198677863384966
0.20246499277904
0.206194471694262
0.209863948685294
0.213471505576327
0.217015687042072
0.220495433759117
0.223910068844736
0.227259229798554
0.230542841510805
0.233761061112557
0.236914223886008
0.24000281771065
0.243027545501193
0.245989228905792
0.248889005515307
0.251727954589206
0.254507715473548
0.257229370474853
0.259895359643581
0.262506363519104
0.265066682579339
0.267575940717735
0.270042311015685
0.272463607373981
0.274852591632972
0.277211122134136
0.279462611641633
0.281827895587855
0.284179639646619
0.28669712032931
0.289262372401528
0.291904243880866
0.29450971715889
0.297001915456073
0.299139974669347
0.300740078755555
0.301519324278191
0.301300080640969
0.299872799977499
0.297349330383138
0.293527385495504
0.288037597658563
0.280374388196697
0.269413690153496
0.253453104577923
0.229052770692744
0.194706622369726
0.148399455120994
0.0879829888245396
0.0205257643256636
-0.0430863256112715
-0.0552042829802925
-0.0450819094472264
-0.0145089416286087
0.00258750922133756
0.0147435559505188
0.0188591682442258
0.0381301882694587
0.0500262858463157
0.0583733720041897
0.0632450798560593
0.0671855399122291
0.0698721042895026
0.07201056018349
0.0734814059774437
0.0745636910024057
0.0753960062280733
0.0760491695505376
0.0765923239766304
0.0770680153224173
0.0775508143162995
0.0780595823690706
0.078619619880672
0.0792355315109052
0.0798979958619882
0.0805402171009899
0.0811235236886324
0.0816277098083133
0.0820043597593148
0.0822197711221399
0.0822886380610938
0.0818658066376172
0.0816436946851023
0.081754484413572
0.0821535945905977
0.0829144567448985
0.0839935049627036
0.0853821581455347
0.0870505222765051
0.0889777771644854
0.0911414726617666
0.0935229796509474
0.0961050117448969
0.0988723020687448
0.101810630898865
0.104906615313678
0.108147612425064
0.111521608999055
0.115017026236532
0.118622558491244
0.122327127297997
0.126119819730977
0.129989821009667
0.133926483560855
0.137919288813188
0.141957940114321
0.14603246954669
0.150133294890571
0.154251274321024
0.158377702937339
0.162504358019971
0.166623484624333
0.170727824664661
0.174810624170432
0.178865639131725
0.182887156676386
0.186869972601585
0.190809425519221
0.194701328067451
0.198542015733257
0.202328240021397
0.206057175802143
0.209726462223392
0.213334166707924
0.216878819715972
0.220359346433222
0.223775056602683
0.22712557639158
0.230410824481439
0.233630957910315
0.236786315468764
0.239877388556315
0.242904885343717
0.245869630829452
0.248772777931077
0.251615420378567
0.254399244858268
0.257125370036515
0.259796339682215
0.262412882770637
0.264979491340123
0.267495804266064
0.269970346176867
0.272400737465714
0.274800142219892
0.277169696665277
0.279428233574524
0.281795928809772
0.284132315942773
0.286633728601298
0.289172905270751
0.291779596941834
0.294334981909619
0.296759044207313
0.298810739304125
0.300312577118885
0.300987116955274
0.300666131911502
0.299147622763796
0.296531804048561
0.292593653226562
0.286951197338492
0.279076311122934
0.267820722308518
0.251481124417452
0.226727331833158
0.192184541535377
0.146018233406872
0.0866431184171564
0.0214970943382429
-0.0392333651198596
-0.0510469676992856
-0.0423070074700425
-0.0133248463416632
0.00330616673126653
0.0154852232654806
0.0199331768277528
0.0388125238507202
0.0502842095992745
0.0583349653950528
0.0632758262704681
0.0670850362351129
0.0697751025637959
0.0719361510991025
0.0734395131523615
0.0745461474595924
0.0753968416201279
0.0760627549378775
0.076613257164469
0.0770893838761674
0.0775632289313588
0.0780559855257289
0.0785939124016109
0.0791838607247687
0.0798197066962058
0.0804406494743149
0.0810080264817977
0.0815007909347028
0.0818712784441031
0.0820850387742729
0.0821507369891255
0.0817777161751484
0.0816002058099778
0.0817294324752205
0.0821493056238179
0.0829216744737407
0.0840075445497925
0.0853988731832991
0.087067079329834
0.0889921232345481
0.091152117821503
0.0935288492352146
0.0961053130734972
0.098866471309292
0.101798256915767
0.104887374757527
0.108121274394924
0.111488038196331
0.114976146931343
0.118574353156397
0.122271634027768
0.126057130284467
0.129920075139295
0.133849869187541
0.137836032150411
0.141868296715373
0.145936720334331
0.150031742547761
0.154144242455556
0.158265532188776
0.162387405249931
0.16650211901278
0.170602425090491
0.174681576214144
0.178733331379175
0.182751978953198
0.186732312171678
0.190669668359951
0.194559855782923
0.198399210779172
0.202184482350194
0.205912838483642
0.209581909522325
0.213189748737964
0.216734873153759
0.220216192906967
0.223633004851604
0.226984923971251
0.230271862828811
0.233493978199741
0.236651611767801
0.239745258602647
0.242775632609697
0.245743562775683
0.248650217592161
0.25149670515407
0.254284757465068
0.257015527462113
0.259691655744162
0.262313910963302
0.264886967860522
0.267410439639828
0.269893212948315
0.27233254159757
0.274742218855278
0.277121673823739
0.279387128147695
0.281758848752306
0.284078102749665
0.286561207973993
0.289070792215069
0.291637852635739
0.294137969792719
0.296488335717857
0.298447741094909
0.299845423566371
0.300409512222442
0.299981119385128
0.298364322011122
0.295647240274883
0.291582404489153
0.285774815567875
0.277673395635008
0.266107151755986
0.249378635275097
0.224273624249636
0.189554060915158
0.143579762331367
0.0853260154845904
0.0225371606574505
-0.0353665508790375
-0.0468869107250262
-0.0394599819861652
-0.0120429161774437
0.00408311964097094
0.0162856828361857
0.0209741703893048
0.0395415960719843
0.0506370795015552
0.0582751411848902
0.0633772656079664
0.0670170214193157
0.0696782198822928
0.0718590247959015
0.0733960528636295
0.0745294114952328
0.0754004719067143
0.0760802515691757
0.0766385304956987
0.0771149853450128
0.0775791996165673
0.0780549097479203
0.0785694114813889
0.0791319011641113
0.0797392594458187
0.0803367855496935
0.0808859810524273
0.0813650112771525
0.0817272653929491
0.0819385861074393
0.0820020955692573
0.0816816042412035
0.0815486398313369
0.0816981199210729
0.0821402613661022
0.0829248374594817
0.0840182506940219
0.0854126998362838
0.0870810748572402
0.0890041048339588
0.0911605020734384
0.0935324890185414
0.0961033617368157
0.0988583299839949
0.10178347333285
0.10486560117648
0.108092271380732
0.1114516615428
0.114932314888234
0.118523045901301
0.122212889504496
0.125991041431372
0.129846783453642
0.133769565437825
0.137748945388954
0.141774685209922
0.14583686812626
0.149925955822904
0.154032848867033
0.15814887665669
0.16226584941251
0.166376037014215
0.170472201075227
0.174547601345799
0.178596000115506
0.182611687436035
0.186589454244297
0.190524637086876
0.194413039738512
0.198250999983712
0.202035263836072
0.205762992264996
0.20943180764152
0.213039749547354
0.216585322661027
0.220067422800216
0.223485334690647
0.226838662490142
0.230127312887348
0.233351442237809
0.236511394278614
0.239607667762138
0.242640982674305
0.245612172544216
0.248522421391197
0.251372851353395
0.2541652369671
0.256900761786541
0.259582155827969
0.262210215147109
0.264789785715136
0.267320409171655
0.269811346666781
0.272259288636563
0.274678935908137
0.277066960654799
0.279338937031822
0.281716308535909
0.284017063695409
0.286479996192491
0.288956873566292
0.291480290220417
0.293920499037811
0.296192266438064
0.298054217429046
0.299342589873471
0.299791101232509
0.299250025725223
0.297528041279294
0.294700828552473
0.290498970095029
0.284514173305247
0.276172228699192
0.264281481588142
0.247157689617053
0.221707494991524
0.186832814811834
0.141100765608742
0.084054220743533
0.0236606251570308
-0.0314844082379011
-0.0427318055893624
-0.0365563938986058
-0.0106740129649582
0.00491275189505291
0.0171414943377552
0.0219410481252097
0.0403177596177156
0.0510484403825965
0.0582598784913177
0.0635092431809723
0.066998415306715
0.069587462537017
0.0717812150106858
0.0733518112996749
0.0745137239767177
0.0754070749294815
0.0761018155963377
0.076668278222857
0.0771449974129525
0.0775990741477512
0.0780569259314456
0.0785469032727034
0.0790806121558346
0.0796577312014525
0.080229731590669
0.0807584916451811
0.0812215782397183
0.0815737717318702
0.0817822059294807
0.0818446096416519
0.0815781713339272
0.0814891705074475
0.0816604592654063
0.0821261094564443
0.0829235475505829
0.0840252383025935
0.0854232969104792
0.0870922396554033
0.0890135306576742
0.091166518709006
0.0935338774341342
0.0960992220332381
0.0988480268157268
0.101766511273157
0.10484160619088
0.108060999073118
0.111412953982681
0.114886082826418
0.118469265162056
0.122151595544335
0.125922325772429
0.129770786374941
0.133686477319506
0.137658994430595
0.141678128333643
0.145733988295986
0.149817058456141
0.153918261351416
0.158028943811426
0.162140933261836
0.166246512234874
0.170338452639528
0.174410021588562
0.178454985001425
0.182467635152586
0.186442761057588
0.190375699160059
0.194262248730754
0.198098749810183
0.201881944885814
0.205608987744191
0.209277493830312
0.212885489670779
0.216431468971535
0.219914314210971
0.223333298995561
0.226688017209883
0.229978370072077
0.233204513381283
0.236366791863097
0.239465707843157
0.242501987619546
0.245476469763512
0.248390353565997
0.251244774741178
0.254041546689514
0.256781879710492
0.259468583077622
0.262102466536035
0.264688533971837
0.267226205760947
0.269725132546388
0.272181225811582
0.274610418958286
0.277005544343536
0.279283411070439
0.281667977014235
0.283949185594398
0.286390388652417
0.288831796461073
0.29130794377201
0.293684081636069
0.295872923803135
0.297632919391707
0.298807452030892
0.299135768988217
0.298477037156627
0.296643102982079
0.293696968794295
0.289347929358428
0.283174269482659
0.274578776738768
0.26235186163305
0.244828383118414
0.219036307424699
0.184023534838671
0.138596953534331
0.082836307925238
0.0248797241846345
-0.0275852970019154
-0.0385870417904637
-0.0336063499629518
-0.00922435236110148
0.00579311767026884
0.0180479184383323
0.0228310473968685
0.0411515079864729
0.0514886000934748
0.0583595818139494
0.0635752269156978
0.0670405129613601
0.0695106557906929
0.071705051084492
0.0733077042598188
0.0744991433176018
0.0754165290367832
0.0761273460279527
0.0767024513967135
0.0771794702980276
0.0776230824822087
0.0780624625206968
0.0785269925583939
0.0790307413977549
0.0795759906880315
0.0801204303837073
0.0806265711581414
0.0810716658842044
0.0814122064305621
0.0816175305104262
0.0816799009850616
0.0814681054483601
0.0814220826987986
0.0816164671737176
0.0821066102532163
0.0829175181104077
0.0840282125638516
0.085430396483236
0.0871003593132536
0.0890202473385206
0.0911700835101797