/*--------------------------------*- C++ -*----------------------------------*\
  =========                 |
  \\      /  F ield         | OpenFOAM: The Open Source CFD Toolbox
   \\    /   O peration     | Website:  https://openfoam.org
    \\  /    A nd           | Version:  7
     \\/     M anipulation  |
\*---------------------------------------------------------------------------*/
FoamFile
{
    version     2.0;
    format      ascii;
    class       surfaceScalarField;
    location    "20000";
    object      phi;
}
// * * * * * * * * * * * * * * * * * * * * * * * * * * * * * * * * * * * * * //

dimensions      [0 3 -1 0 0 0 0];

internalField   nonuniform List<scalar> 
30950
(
2.64704673165574e-05
-3.33898994926546e-06
2.4956182976304e-05
1.51428424641742e-06
5.04423077852527e-06
1.99119521995355e-05
-9.51368368260468e-06
1.45579143984728e-05
-1.32263945690794e-05
3.71271085708185e-06
-1.07955445640466e-05
-2.43084998020768e-06
-8.55096842565654e-06
-2.24457614244188e-06
-6.89010936678554e-06
-1.66085909390764e-06
-5.79652847387151e-06
-1.09358092472692e-06
-4.88045017489365e-06
-9.16078333480553e-07
-4.31169533176772e-06
-5.68754884630794e-07
-4.053834358177e-06
-2.5786101969111e-07
-4.04940844370861e-06
-4.42596308742964e-09
-4.36185282929958e-06
3.12444335062903e-07
-5.01774350733061e-06
6.55890624046375e-07
-5.99106154218449e-06
9.73317974725656e-07
-7.12493077577573e-06
1.13386916472924e-06
-8.34301540123781e-06
1.21808454590085e-06
-9.51472745819983e-06
1.17171196559904e-06
-1.04574966355381e-05
9.42769073949586e-07
-1.10047572763172e-05
5.47260525695637e-07
-1.12230609074764e-05
2.1830350476116e-07
-1.11018586850637e-05
-1.21202359747421e-07
-1.05562905472377e-05
-5.45568285396822e-07
-9.74960201169555e-06
-8.0668869259127e-07
-8.90122410554087e-06
-8.48378071840705e-07
-8.54259841747839e-06
-3.58625860720917e-07
-1.28624752775116e-05
4.31987668373329e-06
-1.99129024441728e-05
7.05042699275535e-06
-2.61773589283727e-05
6.26445631395957e-06
-3.17294681300185e-05
5.55210903353279e-06
-3.65486720474388e-05
4.8192037498398e-06
-4.07105805192451e-05
4.16190830326598e-06
-4.42942069338535e-05
3.58362624395494e-06
-4.73895834718526e-05
3.0953763642658e-06
-5.00678888923334e-05
2.67830524271651e-06
-5.23887601458234e-05
2.32087107071531e-06
-5.43973838283384e-05
2.00862349387076e-06
-5.61288245968698e-05
1.73144057339168e-06
-5.76094988904563e-05
1.4806740915832e-06
-5.88600442731332e-05
1.25054517359864e-06
-5.98970158898827e-05
1.03697140048113e-06
-6.07338807425541e-05
8.36864629138811e-07
-6.13817022392714e-05
6.47821265960875e-07
-6.18497529608216e-05
4.68050483731239e-07
-6.21462077655945e-05
2.96454560208735e-07
-6.22785764720032e-05
1.32368455588872e-07
-6.22538703634805e-05
-2.47063649253364e-08
-6.20790411604239e-05
-1.74829464145667e-07
-6.17612717440296e-05
-3.17769681047585e-07
-6.13081495232483e-05
-4.53122487571316e-07
-6.07275908538153e-05
-5.80558936714551e-07
-6.00276577671524e-05
-6.99933352692827e-07
-5.92164490457338e-05
-8.11208984605962e-07
-5.83020034777785e-05
-9.14445827042224e-07
-5.7292323674705e-05
-1.00968005729649e-06
-5.61953143932714e-05
-1.09700953058617e-06
-5.50188309619838e-05
-1.17648367577954e-06
-5.37706422615296e-05
-1.24818894123135e-06
-5.24584080455931e-05
-1.31223445426157e-06
-5.10896506828784e-05
-1.36875759991448e-06
-4.96716734849418e-05
-1.41797743515081e-06
-4.82115598819262e-05
-1.46011384094015e-06
-4.67160620629026e-05
-1.49549805767014e-06
-4.51917270817215e-05
-1.52433521973497e-06
-4.36448134921586e-05
-1.54691382636523e-06
-4.20815636864686e-05
-1.56325003863526e-06
-4.05081965472816e-05
-1.57336736606169e-06
-3.89306892077146e-05
-1.57750755835085e-06
-3.7354747327309e-05
-1.57594208965393e-06
-3.57855974611246e-05
-1.56915006522575e-06
-3.42280175577962e-05
-1.55758009249111e-06
-3.26862854333357e-05
-1.541732305095e-06
-3.11642789370463e-05
-1.5220066704606e-06
-2.96655425836966e-05
-1.49873652365596e-06
-2.8193485871739e-05
-1.47205688094671e-06
-2.67516335014041e-05
-1.44185253998012e-06
-2.53436999051967e-05
-1.40793376760883e-06
-2.39733596845791e-05
-1.37034039381898e-06
-2.26444733733305e-05
-1.3288864853605e-06
-2.13605835635797e-05
-1.28388998310202e-06
-2.01260963608328e-05
-1.23448737316157e-06
-1.89449826586222e-05
-1.18111386752668e-06
-1.78244264988807e-05
-1.12055631837894e-06
-1.67704564082608e-05
-1.05397024202882e-06
-1.57976274677405e-05
-9.72829085332074e-07
-1.49157484621797e-05
-8.81879145464008e-07
-1.41552444680673e-05
-7.60504131595114e-07
-1.35309647064741e-05
-6.24279899570956e-07
-1.30957194874302e-05
-4.35245360062397e-07
-1.28318193694612e-05
-2.63900263947974e-07
-1.27955639029428e-05
-3.62556180230833e-08
-1.31309024841612e-05
3.35338426196754e-07
-1.29231016721029e-05
-2.07800968826149e-07
-1.24579342426371e-05
-4.65167585173295e-07
-1.13114795258996e-05
-1.14645486841043e-06
-9.62068269817057e-06
-1.69079697307404e-06
-7.30384689986489e-06
-2.31683593548841e-06
-4.37807439597514e-06
-2.92577263152799e-06
-6.79450863504629e-07
-3.69862364960554e-06
3.61817414241809e-06
-4.29762511131473e-06
8.42459270582843e-06
-4.80641865545117e-06
1.34846466687844e-05
-5.06005404026811e-06
1.85411216981777e-05
-5.0564750913647e-06
2.29083285346798e-05
-4.36720688359451e-06
2.66728663033546e-05
-3.76453780305123e-06
3.01236699751841e-05
-3.45080369696976e-06
3.34678089988239e-05
-3.34413904331887e-06
3.71606259038569e-05
-3.69281692257536e-06
4.19864609646107e-05
-4.8258350785948e-06
4.93989076595757e-05
-7.41244671376903e-06
5.89777451815192e-05
-9.57883753948167e-06
7.16151432896698e-05
-1.26373981190182e-05
8.90470425771482e-05
-1.74318992925496e-05
0.00010943778448279
-2.03907419084291e-05
0.000120121995451742
-1.06842109762576e-05
9.41983337555023e-05
2.59236616960655e-05
5.73249913220066e-05
3.6873342420923e-05
2.78759541368211e-05
2.9449037165087e-05
4.74645496811734e-06
9.27275306224193e-05
-5.71188064873308e-06
8.4650501054296e-05
9.59131368592285e-06
3.18249247348173e-05
7.27375284770499e-05
-1.71198997405277e-05
6.35027388027833e-05
-3.48585444173656e-05
2.14513554516359e-05
-3.06717474933371e-05
-6.61764694487538e-06
-2.46189579852361e-05
-8.29736567986393e-06
-2.02087712051103e-05
-6.07104591872076e-06
-1.71487126407225e-05
-4.15363954776651e-06
-1.47243781985298e-05
-3.34041284966112e-06
-1.31933671473781e-05
-2.09976603029345e-06
-1.25686275208165e-05
-8.82600761537093e-07
-1.27097831472176e-05
1.36729530216322e-07
-1.37763304955142e-05
1.37899153592551e-06
-1.58360444888409e-05
2.7156044574064e-06
-1.87728476297706e-05
3.91012094235426e-06
-2.21890001411034e-05
4.55002148637577e-06
-2.58373544391669e-05
4.86643863349803e-06
-2.93726118941943e-05
4.70696918479323e-06
-3.2336140651554e-05
3.90629756616336e-06
-3.43703610722806e-05
2.58148064919547e-06
-3.55879301784557e-05
1.43587228060872e-06
-3.59533566701844e-05
2.44223769721935e-07
-3.5311680416571e-05
-1.18724493005834e-06
-3.40519662801831e-05
-2.0664032446429e-06
-3.30192646152759e-05
-1.88108017201216e-06
-3.49338318608962e-05
1.5559409366286e-06
-4.82233487197266e-05
1.76093930929412e-05
-6.77065879526989e-05
2.65336657844994e-05
-8.50155063252566e-05
2.35733742518313e-05
-9.9872246961399e-05
2.04088492366113e-05
-0.000112554677540799
1.75016338938846e-05
-0.000123322678856782
1.49299091783286e-05
-0.00013247822690637
1.27391738446106e-05
-0.000140284075717364
1.09012247163845e-05
-0.0001469510715851
9.34530064005078e-06
-0.000152643871805449
8.01367080793138e-06
-0.000157487654610227
6.85240580206665e-06
-0.00016157777912765
5.82156458060293e-06
-0.000164986990390285
4.88988483065292e-06
-0.000167772360947192
4.03591519415364e-06
-0.0001699799831203
3.24459302516262e-06
-0.000171647592572679
2.50447352181918e-06
-0.000172806496971773
1.80672509496525e-06
-0.000173483321928902
1.14487486136517e-06
-0.000173701983149434
5.1511519292782e-07
-0.000173485018959553
-8.45963292085747e-08
-0.000172853483456228
-6.56242468795552e-07
-0.00017182825699858
-1.20005652635579e-06
-0.000170430835056708
-1.71519222981181e-06
-0.000168683181686388
-2.20077646528392e-06
-0.000166607705610816
-2.65603561827831e-06
-0.000164226869403773
-3.08077016261544e-06
-0.00016156296363034
-3.47511535641141e-06
-0.000158637948757796
-3.83946129255237e-06
-0.000155473491225034
-4.17413817726493e-06
-0.000152090886849757
-4.47961448750478e-06
-0.000148511135425569
-4.75623567664285e-06
-0.000144754880370694
-5.00444456867071e-06
-0.000140842350213902
-5.22476518031851e-06
-0.000136793287123545
-5.41782125675117e-06
-0.00013262679336582
-5.58447175655128e-06
-0.000128361308507453
-5.72559925944692e-06
-0.000124014460126483
-5.84234699382499e-06
-0.000119603295690517
-5.93550020375125e-06
-0.000115144260572175
-6.0059494829931e-06
-0.00011065366513433
-6.05384600244085e-06
-0.00010614761633699
-6.0794166748933e-06
-0.000101641566789788
-6.08355760122352e-06
-9.71501776500592e-05
-6.06733170891379e-06
-9.26869505714159e-05
-6.03237760810179e-06
-8.82642656391427e-05
-5.98026547565937e-06
-8.38933517798864e-05
-5.91264660469064e-06
-7.95845223057411e-05
-5.83083657765824e-06
-7.53474245903463e-05
-5.73583466793369e-06
-7.11915394400538e-05
-5.62794245853797e-06
-6.71267058208718e-05
-5.50668658632116e-06
-6.31632205398276e-05
-5.37141947581414e-06
-5.93114560472255e-05
-5.22210531257738e-06
-5.55822001644136e-05
-5.05814279139704e-06
-5.19861013973744e-05
-4.87998916802023e-06
-4.85357115447261e-05
-4.68487763593868e-06
-4.52442784056009e-05
-4.4725474072633e-06
-4.2131705156639e-05
-4.23312995774304e-06
-3.92195232948123e-05
-3.96615248500504e-06
-3.65457184415297e-05
-3.64663431276206e-06
-3.41481643749715e-05
-3.27943358259917e-06
-3.21025237335408e-05
-2.80614514400088e-06
-3.04731209877407e-05
-2.25368302060176e-06
-2.93880990789705e-05
-1.52026765120402e-06
-2.888544395645e-05
-7.66555777614833e-07
-2.91848665489319e-05
2.6316657491557e-07
-3.00067087255488e-05
1.15718019883995e-06
-2.9222741380455e-05
-9.91768716206034e-07
-2.73520622927739e-05
-2.33584706564925e-06
-2.37557983782629e-05
-4.74271915873778e-06
-1.86704181357501e-05
-6.77617756837135e-06
-1.20318884676301e-05
-8.95536592885924e-06
-3.82199301242536e-06
-1.1135668381248e-05
6.18407887558509e-06
-1.37046957988976e-05
1.75818099462647e-05
-1.56953564083345e-05
3.00821138978477e-05
-1.73067227988228e-05
4.31405984010809e-05
-1.81185387037241e-05
5.60883472892335e-05
-1.80042241128422e-05
6.75396031337004e-05
-1.58184628401664e-05
7.75458172725392e-05
-1.37707520382798e-05
8.66765840686585e-05
-1.25815705779861e-05
9.54833443477737e-05
-1.21508993983845e-05
0.000104985409476966
-1.31948821195927e-05
0.000117101715359095
-1.69421410197461e-05
0.000134903314551918
-2.52140459547152e-05
0.000158286087158499
-3.29616101810739e-05
0.000189328320452692
-4.36796314344362e-05
0.000231349578620855
-5.94531574707945e-05
0.000281831501027703
-7.08726643159986e-05
0.000314823996070922
-4.36767060116996e-05
0.000275543778601893
6.52038791814669e-05
0.000193448089536643
0.000118969031488182
0.000115420201763072
0.000107476924926635
2.98120163501003e-05
0.000176772301086522
9.1722537453411e-07
0.000158773746004196
2.75898686559549e-05
7.65365945058238e-05
0.000154974679927361
-1.20971741279729e-05
0.000152136507368908
-5.19073281626237e-05
6.12615093830438e-05
-4.96057568538031e-05
-8.91921832061428e-06
-4.056666399294e-05
-1.7336458587974e-05
-3.37671198939725e-05
-1.28705900765465e-05
-2.88959892672583e-05
-9.02477025224343e-06
-2.51190666291126e-05
-7.11733558532234e-06
-2.27243881799009e-05
-4.49444460207556e-06
-2.18301757632248e-05
-1.77681332784459e-06
-2.22440176996594e-05
5.50571292384245e-07
-2.42003010182822e-05
3.33527465988785e-06
-2.77910589686611e-05
6.30636219582764e-06
-3.2788476625665e-05
8.90753837022607e-06
-3.85829718920872e-05
1.03445165035683e-05
-4.47517471032589e-05
1.10352135704903e-05
-5.07651563068241e-05
1.07203780838234e-05
-5.59699101264981e-05
9.11105104598518e-06
-5.99224101455806e-05
6.53398028937883e-06
-6.27725282802087e-05
4.28598999596103e-06
-6.4484930103615e-05
1.95662513518445e-06
-6.49026662768037e-05
-7.69509249336688e-07
-6.46151080203042e-05
-2.35396202243455e-06
-6.5384931467652e-05
-1.11125726751341e-06
-7.20703225685816e-05
8.24133148555801e-06
-9.44890580087103e-05
4.0028127992871e-05
-0.000124621274032506
5.66658812897469e-05
-0.000151011169858563
4.99632695742191e-05
-0.000173039411818128
4.24370906995741e-05
-0.000191451682868466
3.59139044492812e-05
-0.000206791879360863
3.02701051732421e-05
-0.000219615073572969
2.55623675535063e-05
-0.000230356437321568
2.16425879534912e-05
-0.000239356475381825
1.83453381784222e-05
-0.000246872137185218
1.55293320774577e-05
-0.00025309774700694
1.30780150769603e-05
-0.000258180627979945
1.09044449935033e-05
-0.000262234289407263
8.94354568478798e-06
-0.000265348564689294
7.1501898905466e-06
-0.000267596604752692
5.49263249134521e-06
-0.000269038795827401
3.94666398875165e-06
-0.000269725670067124
2.49359871751993e-06
-0.000269700473826862
1.1196779958765e-06
-0.000269002006654467
-1.83352611329411e-07
-0.000267668929377329
-1.41767424315823e-06
-0.000265739686113479
-2.58548637258159e-06
-0.00026325023697634
-3.68950630488239e-06
-0.000260235654324865
-4.72977552253427e-06
-0.00025673109114589
-5.70534028377388e-06
-0.000252771573932552
-6.61555346796008e-06
-0.000248391573818584
-7.4607709086262e-06
-0.000243624795996797
-8.2418938052551e-06
-0.000238504072165345
-8.9601857458827e-06
-0.000233061435860866
-9.61677509875673e-06
-0.000227328095582197
-1.02129553789892e-05
-0.000221334530889012
-1.07498009793129e-05
-0.00021511044848068
-1.12285275839614e-05
-0.000208684726596514
-1.1650487669429e-05
-0.000202085342320221
-1.20172061359517e-05
-0.000195339229204808
-1.23305854721508e-05
-0.000188472269390988
-1.25925596693403e-05
-0.000181509213499743
-1.28054034749675e-05
-0.000174473970830972
-1.29707434537986e-05
-0.000167389703259363
-1.30902176246231e-05
-0.000160279293518154
-1.31642563001293e-05
-0.00015316518575934
-1.31935249750716e-05
-0.00014606885857664
-1.31798853095959e-05
-0.000139010632962057
-1.31255578340274e-05
-0.000132009313156279
-1.30336979109204e-05
-0.000125082250846558
-1.29073282715497e-05
-0.00011824539898052
-1.27494989491978e-05
-0.00011151365281131
-1.25625832208832e-05
-0.000104901269150749
-1.23482188008587e-05
-9.84225490349372e-05
-1.21066630470165e-05
-9.20924502913021e-05
-1.18367858036591e-05
-8.59266348805943e-05
-1.1537235360716e-05
-7.99411234085472e-05
-1.12076172576491e-05
-7.41526509718292e-05
-1.08466156976616e-05
-6.8578539638212e-05
-1.04541009652135e-05
-6.32389023252301e-05
-1.00245154043696e-05
-5.8156679288833e-05
-9.55477088975551e-06
-5.33635089872987e-05
-9.02630069608109e-06
-4.88975513494249e-05
-8.43211055213531e-06
-4.48168941799458e-05
-7.72729190705995e-06
-4.11899603148996e-05
-6.90636787206067e-06
-3.81286740744798e-05
-5.8674318128864e-06
-3.57529203324235e-05
-4.6294371992567e-06
-3.42575455062989e-05
-3.0156429250407e-06
-3.37870054639394e-05
-1.237096280027e-06
-3.46396829165222e-05
1.11584355594487e-06
-3.57090783798579e-05
2.22657518439496e-06
-3.40929299804835e-05
-2.60791758977766e-06
-3.05461028913917e-05
-5.8826746142536e-06
-2.45707768025743e-05
-1.07180456838138e-05
-1.64450100649077e-05
-1.4901944712838e-05
-6.16004083951924e-06
-1.92403355271733e-05
6.38493927967801e-06
-2.36806488352208e-05
2.13947908203578e-05
-2.87145476319158e-05
3.83530511197319e-05
-3.26536169565327e-05
5.68155474429809e-05
-3.57692193308526e-05
7.60841004662245e-05
-3.73870919016501e-05
9.52076251185373e-05
-3.71277489127149e-05
0.000112493622754806
-3.31044606039356e-05
0.000127849733297439
-2.91268626941436e-05
0.000141926001431735
-2.66578388146492e-05
0.000155512640007485
-2.57375380669499e-05
0.000169978071100961
-2.76603132959608e-05
0.000188001525525065
-3.49655955152051e-05
0.000213544636297159
-5.07571567845196e-05
0.000247089245506936
-6.650621943439e-05
0.000291185262704864
-8.77756486643534e-05
0.000349291455879947
-0.000117559350670728
0.000418909955527431
-0.000140491163982792
0.000471287635348725
-9.60543858447373e-05
0.000441719056462396
9.47724580606108e-05
0.000343584570742631
0.000217103517200738
0.000233124159445483
0.000217937336217718
7.95347685660461e-05
0.00027600697598273
2.12663665241418e-05
0.000246323288999356
5.72735555455938e-05
0.00013896185440627
0.000262336114480471
8.05260301496374e-06
0.000283045758703244
-6.23135752970593e-05
0.000131627687594177
-6.6741501035257e-05
-4.4912926533601e-06
-5.60110480365198e-05
-2.80669116423783e-05
-4.72823389144634e-05
-2.15992992702941e-05
-4.08911299952667e-05
-1.54159792624997e-05
-3.5963016435306e-05
-1.20454492561785e-05
-3.28664354240981e-05
-7.5910257492365e-06
-3.18387348100789e-05
-2.80451410569648e-06
-3.26786477947342e-05
1.39048408689912e-06
-3.56749751518585e-05
6.33160180466724e-06
-4.09179509985262e-05
1.15493378112498e-05
-4.80568495099737e-05
1.60464366319332e-05
-5.62869326432379e-05
1.85745993660719e-05
-6.50252432837876e-05
1.97735239149732e-05
-7.35993214933202e-05
1.92944559672573e-05
-8.12574040956414e-05
1.67691332879118e-05
-8.75556384140236e-05
1.28322142101074e-05
-9.26984830649266e-05
9.4288342113845e-06
-9.6682740406538e-05
5.94088200589978e-06
-9.94047563005558e-05
1.95250614299554e-06
-0.000101691299142123
-6.74197073259688e-08
-0.000106266325183333
3.46376823130368e-06
-0.000119108097974957
2.10831037361493e-05
-0.000149367625157141
7.02876546595625e-05
-0.000186751682119129
9.40499377684921e-05
-0.00021845271417474
8.16643011692525e-05
-0.000243950398148407
6.79347742261727e-05
-0.000264581424676883
5.65449305382521e-05
-0.000281263968227961
4.69526482880795e-05
-0.000294806629461741
3.9105028351014e-05
-0.000305800504618571
3.26364626713728e-05
-0.000314691211402769
2.7236044518828e-05
-0.00032180619217565
2.26443124001074e-05
-0.000327390726005653
1.86625484493248e-05
-0.000331630137386145
1.51438559085792e-05
-0.000334667905157502
1.19813129830973e-05
-0.000336618097210767
9.10038146366231e-06
-0.000337573783234255
6.44831802836068e-06
-0.000337611828145453
3.9847084080678e-06
-0.000336796494178226
1.67826425404892e-06
-0.00033518441209508
-4.92404586749385e-07
-0.000332831547912156
-2.53621729562435e-06
-0.000329789372610253
-4.45985004688254e-06
-0.000326102776966837
-6.27208251705624e-06
-0.000321815263465784
-7.97702030518592e-06
-0.000316969036118811
-9.57600336589265e-06
-0.000311605537858529
-1.10688390366417e-05
-0.000305765267814134
-1.24558240003717e-05
-0.000299487472454157
-1.37385667515795e-05
-0.0002928100669535
-1.49192997837021e-05
-0.000285769651506
-1.60006016662032e-05
-0.000278401651496123
-1.69847755770149e-05
-0.000270740363346503
-1.78742439932642e-05
-0.000262819076072595
-1.86710887149097e-05
-0.000254670061271927
-1.93775428439555e-05
-0.000246324544916178
-1.99960044824139e-05
-0.000237812658056198
-2.05290934509367e-05
-0.000229163342235477
-2.09799017449662e-05
-0.000220404366438226
-2.13515359145897e-05
-0.000211562330586572
-2.16474397689797e-05
-0.000202662960675589
-2.1870113799741e-05
-0.000193731279292736
-2.20218994333333e-05
-0.000184792002270909
-2.2103533737317e-05
-0.000175869308828516
-2.21162188215617e-05
-0.000166986334886499
-2.20628596444175e-05
-0.000158164980665711
-2.19469124371509e-05
-0.000149425633509987
-2.17730454400706e-05
-0.000140787259064882
-2.15457030833266e-05
-0.000132267529402817
-2.12692289735828e-05
-0.000123883211293728
-2.09469016903099e-05
-0.000115650674379046
-2.05807560758036e-05
-0.000107586633752479
-2.01707040350004e-05
-9.97087540596205e-05
-1.97146658594186e-05
-9.20356344091376e-05
-1.92103553750016e-05
-8.45865925363769e-05
-1.86566594937642e-05
-7.73819782870183e-05
-1.80512303082215e-05
-7.04435743088059e-05
-1.73925053006824e-05
-6.37965233483592e-05
-1.6671566716786e-05
-5.74707918272029e-05
-1.58805027569536e-05
-5.15057243233966e-05
-1.49913685404776e-05
-4.59516253183042e-05
-1.39862098940227e-05
-4.08788161910098e-05
-1.28001013701393e-05
-3.63780586493571e-05
-1.14071257520102e-05
-3.25820833241416e-05
-9.66340748276061e-06
-2.96533306411065e-05
-7.55819023694756e-06
-2.78341140611028e-05
-4.83485987251132e-06
-2.73740542512066e-05
-1.69715647175114e-06
-2.86264324313582e-05
2.36822134035206e-06
-2.9687280271367e-05
3.28742262061695e-06
-2.72588248136781e-05
-5.03637344699863e-06
-2.22558384043348e-05
-1.08856614069072e-05
-1.44919750983154e-05
-1.84819093502333e-05
-4.22821283674081e-06
-2.51657073079287e-05
8.49742049902969e-06
-3.1965969166045e-05
2.38559886946453e-05
-3.9039217299211e-05
4.20050575420242e-05
-4.68636167107192e-05
6.24326609964241e-05
-5.30812206073266e-05
8.46186823239285e-05
-5.79552408240175e-05
0.000107834473871607
-6.0602883589525e-05
0.000131044513055659
-6.0337788217385e-05
0.000152570010358446
-5.4629958013289e-05
0.000172145169761223
-4.87020221934393e-05
0.000190333891123386
-4.48465602652584e-05
0.000207979962665246
-4.33836096895831e-05
0.000226533076873282
-4.62134275764165e-05
0.00024891781731845
-5.73503360231254e-05
0.000279402736548304
-8.12420760666226e-05
0.00031902929538357
-0.000106132778312691
0.000370256610583926
-0.000139002963902603
0.000435931606132702
-0.000183234346256234
0.000513812451883327
-0.000218372009769333
0.000579613891868871
-0.000161855825864445
0.000571935140784507
0.000102451209109053
0.000484655961220635
0.000304382696738093
0.000365125130806126
0.000337468166619768
0.000148303782236149
0.000377949855121663
5.42551011416648e-05
0.000338808038171323
9.641537242527e-05
0.000214975647538921
0.000386168505075416
4.44905608074277e-05
0.000453530845382594
-6.350775525615e-05
0.0002396260035669
-8.10361353476652e-05
1.3037087363528e-05
-7.04840868665132e-05
-3.86189601849792e-05
-6.04865220595499e-05
-3.15968641595324e-05
-5.29775267933703e-05
-2.29249746327256e-05
-4.71704306985714e-05
-1.78525454757374e-05
-4.35766158215078e-05
-1.11848407768641e-05
-4.2579294457737e-05
-3.80183564898678e-06
-4.40107444364401e-05
2.82193385846427e-06
-4.81903806412813e-05
1.05112377791645e-05
-5.51742452859685e-05
1.85332022061044e-05
-6.44739818812837e-05
2.53461729587293e-05
-7.51046551074437e-05
2.9205272303131e-05
-8.63398896118047e-05
3.10087581063093e-05
-9.74085047981911e-05
3.03630708133143e-05
-0.000107541172597084
2.69018007166293e-05
-0.000116355603563218
2.16466447752599e-05
-0.000124118084829759
1.71913150475114e-05
-0.000130895834646941
1.27186313668389e-05
-0.000136728091684063
7.78476270291606e-06
-0.00014272527931499
5.92976743121863e-06
-0.000152175722898876
1.29142113165915e-05
-0.000170908651909604
3.98160322596201e-05
-0.00020569312409505
0.00010507212638983
-0.000244935397741733
0.000133292210996792
-0.000276617207996593
0.000113346111034302
-0.000301072766033095
9.2390331892361e-05
-0.000320222081794859
7.56942459429747e-05
-0.000335266179421672
6.19967455668371e-05
-0.000347141858386164
5.09807069730996e-05
-0.000356485988091122
4.19805920370002e-05
-0.000363759884182823
3.45099402722764e-05
-0.000369292820547879
2.81772484265789e-05
-0.000373327819329065
2.26975468907307e-05
-0.000376046922775171
1.78629590133247e-05
-0.000377590673249697
1.3525063114685e-05
-0.000378070737979086
9.58044584882372e-06
-0.000377578184025924
5.95576373014496e-06
-0.000376188434805661
2.59495884247173e-06
-0.000373966573804585
-5.43597092022225e-07
-0.000370973036402592
-3.48594233263137e-06
-0.000367260963893509
-6.24829014669471e-06
-0.000362875891682319
-8.84492259760071e-06
-0.000357861690372951
-1.12862841630261e-05
-0.000352261130535443
-1.35775804758638e-05
-0.000346115844211595
-1.57212900190087e-05
-0.000339466704513141
-1.77179790600899e-05
-0.000332353631656931
-1.95688971770311e-05
-0.000324815316138538
-2.12768825857906e-05
-0.000316889173807866
-2.2845442425662e-05
-0.000308611395973644
-2.42783798074732e-05
-0.000300017082563283
-2.5579089290622e-05
-0.000291140296610195
-2.67510302463033e-05
-0.000282014164916183
-2.77972207060475e-05
-0.000272670864206907
-2.87208438478506e-05
-0.000263141586354295
-2.95252826272434e-05
-0.000253456482663672
-3.02141974312071e-05
-0.000243644581105186
-3.07918035900623e-05
-0.000233733790226945
-3.12623270756878e-05
-0.000223750931831566
-3.16302984425768e-05
-0.000213722000857108
-3.18990450468769e-05
-0.000203672369599734
-3.20715309570353e-05
-0.000193627138540923
-3.21487650555257e-05
-0.000183610887100577
-3.21324705141667e-05
-0.000173647186729596
-3.20265602607639e-05
-0.000163758401037402
-3.18356983684997e-05
-0.000153965461479756
-3.15659852317188e-05
-0.000144287953901455
-3.12232108917992e-05
-0.000134744278152446
-3.08129049503494e-05
-0.000125352033833985
-3.03391462354122e-05
-0.000116128552364475
-2.98042377718747e-05
-0.000107091649506776
-2.9207607119811e-05
-9.82602342096048e-05
-2.85460813844177e-05
-8.96542747337692e-05
-2.78163150790646e-05
-8.12946824053393e-05
-2.70162520501243e-05
-7.32035443022773e-05
-2.61423686380393e-05
-6.54048465919681e-05
-2.51912032357244e-05
-5.79260179856296e-05
-2.4150395545231e-05
-5.0800297249463e-05
-2.30062237124485e-05
-4.40699532092687e-05
-2.17217127977202e-05
-3.77904330692845e-05
-2.02657302499524e-05
-3.20354289138052e-05
-1.85551057423395e-05
-2.69042657824598e-05
-1.65382891032233e-05
-2.25332186623959e-05
-1.40344548284637e-05
-1.91006551280755e-05
-1.09907540053641e-05
-1.68606123840459e-05
-7.07490286147552e-06
-1.61057095086829e-05
-2.45205960470177e-06
-1.72755342617352e-05
3.53804582306869e-06
-1.81279712015801e-05
4.13985928321485e-06
-1.52394807543755e-05
-7.9248641668283e-06
-9.38150920887321e-06
-1.67436332112937e-05
-6.29222627603297e-07
-2.72341961726535e-05
1.08248592547957e-05
-3.66197894113434e-05
2.49042074265418e-05
-4.60453175362784e-05
4.18027618408257e-05
-5.5937771888022e-05
6.16237740519563e-05
-6.6684629072837e-05
8.3898424815828e-05
-7.53558715004692e-05
0.000108071783938462
-8.21286000569846e-05
0.000133429198265972
-8.59602980118914e-05
0.000158946171799203
-8.58547618337826e-05
0.000183107504451643
-7.87912907406537e-05
0.000205551701666016
-7.11462194767926e-05
0.000226744444225631
-6.60393028888414e-05
0.000247498611924936
-6.41377774478278e-05
0.00026918294288216
-6.78977585868937e-05
0.000294619095629399
-8.27864888170815e-05
0.00032793083885327
-0.000114553819330627
0.000370610037725283
-0.000148811977220181
0.00042486667278569
-0.00019325959899741
0.000492887294679674
-0.000251254968185192
0.000572612446362454
-0.000298097161486021
0.000644296705564143
-0.000233540085098782
0.000657546518203079
8.9201396433757e-05
0.000595131468890302
0.000366797746019867
0.000487450965520044
0.00044514866996719
0.000224816157966647
0.000470938134851458
9.4940852580344e-05
0.000427036292631867
0.000140317214598349
0.000297352303848349
0.000515852493823731
9.58785228437219e-05
0.000655004626340891
-5.32077317391415e-05
0.000388712258069153
-9.10458869946668e-05
5.08752425392696e-05
-8.33477034854594e-05
-4.63171437596351e-05
-7.3026406387992e-05
-4.19181613453981e-05
-6.49501300392807e-05
-3.10012510957357e-05
-5.8621136631296e-05
-2.41815390205787e-05
-5.47737310845285e-05
-1.50322464877127e-05
-5.3984648322472e-05
-4.59091860589971e-06
-5.61598554272154e-05
4.99714073921222e-06
-6.16200650624784e-05
1.597144716674e-05
-7.03455955982843e-05
2.72587324753262e-05
-8.16875210011959e-05
3.66880980781433e-05
-9.4488033428944e-05
4.20057844299857e-05
-0.000107887928003088
4.44086523606203e-05
-0.000121052761525818
4.352790399609e-05
-0.000133251240584385
3.91002794151111e-05
-0.000144206153964586
3.26015577767608e-05
-0.000154261526864565
2.72466875532318e-05
-0.00016361133856855
2.20684426647923e-05
-0.000172534000055841
1.67074237758274e-05
-0.000182399650328975
1.57954172850089e-05
-0.000196480704970533
2.69952655397522e-05
-0.000219429046913213
6.27643737983422e-05
-0.000254863290922421
0.000140506370025737
-0.000291329120010552
0.00016975803974823
-0.000319518283808607
0.000141535274527102
-0.000340862299074595
0.0001137343468757
-0.000357383213981878
9.22151605836961e-05
-0.000370238423720288
7.4851955050368e-05
-0.000380267790094178
6.1010073100375e-05
-0.00038802020378951
4.97330054914799e-05
-0.000393889047811951
4.03787840577578e-05
-0.000398154238820172
3.24424392004211e-05
-0.000401023373999047
2.55666818369561e-05
-0.000402653312842191
1.94928976250729e-05
-0.000403166492846176
1.40382428883382e-05
-0.000402661499409745
9.07545218314663e-06
-0.000401219886056461
4.51415014886157e-06
-0.000398910649045107
2.8572160461051e-07
-0.000395795164739013
-3.65908162274714e-06
-0.000391927465195196
-7.35364209880747e-06
-0.000387354060705038
-1.08216948567316e-05
-0.000382118203073361
-1.40807804465333e-05
-0.000376261943111842
-1.71425443389988e-05
-0.000369826438797887
-2.00130850012491e-05
-0.000362852088047196
-2.26956409779074e-05
-0.000355378792010957
-2.51912753011767e-05
-0.000347445715754616
-2.75019736348058e-05
-0.000339090976152218
-2.96316223862457e-05
-0.000330351573663434
-3.15848451092759e-05
-0.000321263433650407
-3.336652001235e-05
-0.000311861515530011
-3.49810076001872e-05
-0.00030217985634043
-3.64326896226936e-05
-0.000292251648435437
-3.77254287957515e-05
-0.000282109215809198
-3.88632766568455e-05
-0.000271783967550731
-3.9850531066502e-05
-0.000261306331753718
-4.06918334068756e-05
-0.000250705670868401
-4.13924646515668e-05
-0.000240010266795579
-4.19577313217748e-05
-0.000229247356234784
-4.23932091731966e-05
-0.000218443359431137
-4.27030420164392e-05
-0.000207624099242433
-4.28907913073764e-05
-0.000196815145321566
-4.29577191335552e-05
-0.000186041575077131
-4.29060409113117e-05
-0.000175327492793285
-4.27406426931377e-05
-0.000164695821138048
-4.24673701685856e-05
-0.000154168101483387
-4.20937050282113e-05
-0.000143764569000245
-4.16267435145161e-05
-0.000133504321375137
-4.10731527135284e-05
-0.000123405691133066
-4.04377766147098e-05
-0.000113486778809645
-3.9723150232172e-05
-0.000103766207901102
-3.89281781651591e-05
-9.42637555190916e-05
-3.80485339032236e-05
-8.50003270586936e-05
-3.70797436760774e-05
-7.59978927539395e-05
-3.6018686490986e-05
-6.72796642263733e-05
-3.48605973008158e-05
-5.8870957714812e-05