/*--------------------------------*- C++ -*----------------------------------*\
  =========                 |
  \\      /  F ield         | OpenFOAM: The Open Source CFD Toolbox
   \\    /   O peration     | Website:  https://openfoam.org
    \\  /    A nd           | Version:  7
     \\/     M anipulation  |
\*---------------------------------------------------------------------------*/
FoamFile
{
    version     2.0;
    format      ascii;
    class       volScalarField;
    location    "20000";
    object      Pk;
}
// * * * * * * * * * * * * * * * * * * * * * * * * * * * * * * * * * * * * * //

dimensions      [0 2 -3 0 0 0 0];

internalField   nonuniform List<scalar> 
15600
(
3.5315699595144e-07
4.14285988316552e-07
1.06493908107931e-07
1.8242912866055e-10
4.8656214550546e-09
2.52887121776114e-09
1.31368173669698e-09
4.85555159259e-10
1.67004114622911e-10
7.38552946766189e-11
3.65803473322032e-11
2.47647234912343e-11
2.24813115398274e-11
2.65003797321219e-11
3.91500965337448e-11
6.75048180668782e-11
1.2166497362913e-10
2.12489120323517e-10
3.51651913373083e-10
5.3483057336985e-10
7.3001084100492e-10
9.02380244325546e-10
1.03872670822373e-09
1.10354407811648e-09
1.07620405164267e-09
1.00761130427587e-09
9.12108403661027e-10
1.48442143835903e-09
4.68205948581931e-09
1.18931493010673e-08
2.28155478415731e-08
3.78877937093921e-08
5.64132869160658e-08
7.79763757654901e-08
1.01925874959181e-07
1.27781391096119e-07
1.5503250112667e-07
1.83239876644193e-07
2.11960009017296e-07
2.4077042342008e-07
2.6925042301455e-07
2.96999034801438e-07
3.23638910925299e-07
3.48825369990746e-07
3.72249148375242e-07
3.93649903204468e-07
4.12868933801954e-07
4.29600044650894e-07
4.43383270018706e-07
4.5393521315951e-07
4.61169147318555e-07
4.65071512116006e-07
4.65696974704179e-07
4.63159219369964e-07
4.57622294944295e-07
4.49291921423253e-07
4.38408752570851e-07
4.25239951971744e-07
4.10073132124758e-07
3.93208252606554e-07
3.74950469086519e-07
3.55602889778072e-07
3.35459382735176e-07
3.14799301300906e-07
2.93882218236416e-07
2.72947257896395e-07
2.52211166586296e-07
2.31872183729798e-07
2.12106627442027e-07
1.93064712025794e-07
1.7486943196496e-07
1.57614766166635e-07
1.41368008364216e-07
1.26171594269188e-07
1.12046808833121e-07
9.8997175684066e-08
8.70134842937915e-08
7.60777745515145e-08
6.61634597385352e-08
5.72353724302907e-08
4.92497515705065e-08
4.21563289922269e-08
3.58993014827914e-08
3.0422975145664e-08
2.5669397718195e-08
2.15887830216408e-08
1.8125302440924e-08
1.52404572599541e-08
1.28827205865153e-08
1.1021649578427e-08
9.61215496121004e-09
8.46770200355296e-09
8.50154188035692e-09
9.16248645866228e-09
9.44336123784235e-09
9.29957250720482e-09
7.83738895075041e-09
5.36867213850163e-09
2.31124655461497e-09
8.57049769546481e-11
2.22156311756423e-09
1.43783628019307e-08
4.29248512032888e-08
9.31152782651863e-08
1.59402930244209e-07
2.32929406611938e-07
3.15789398029624e-07
4.14137081847951e-07
5.46438365121541e-07
7.5385775595583e-07
1.17392551920676e-06
1.97549276074404e-06
3.49289687320792e-06
6.69339540959595e-06
1.26799847260709e-05
1.92094154356248e-05
1.33483575893225e-05
5.05953518251995e-06
1.10338262168042e-06
3.4458618375029e-07
0.000101437652639189
9.34944556170553e-05
3.10440867412195e-05
9.11561706826459e-07
4.28330173327371e-07
3.3497253739496e-07
1.89809570696243e-07
7.42872313624664e-08
2.68363343705588e-08
1.22206253674636e-08
6.33931454593066e-09
4.42860044925059e-09
4.16319574665942e-09
5.04723884570967e-09
7.54042408299488e-09
1.28737404773781e-08
2.27889356047058e-08
3.91599178078347e-08
6.39070246816781e-08
9.67291714380152e-08
1.34074447148849e-07
1.71971468370465e-07
2.08445046571525e-07
2.38801178539275e-07
2.59162372542885e-07
2.73941284626129e-07
3.11114121408556e-07
5.04390655141801e-07
1.18806659405646e-06
2.52170858954045e-06
4.36268660858043e-06
6.69142366613889e-06
9.39118476443562e-06
1.23831860430785e-05
1.55775029052843e-05
1.89075069627424e-05
2.23080156258233e-05
2.57238357711226e-05
2.91016540502634e-05
3.23925244514262e-05
3.55499468527767e-05
3.85316029603763e-05
4.12996786475582e-05
4.38216959060526e-05
4.60705405234123e-05
4.80257001250779e-05
4.96793457576075e-05
5.10049167440721e-05
5.19476856372128e-05
5.25061620311357e-05
5.26839127336333e-05
5.2491734466385e-05
5.19468276772536e-05
5.10716234321309e-05
4.98927566640659e-05
4.84400672902615e-05
4.67458354925655e-05
4.48438982324626e-05
4.27689902309572e-05
4.05559628079646e-05
3.8239094936168e-05
3.58514552194671e-05
3.34242791436087e-05
3.09865747496994e-05
2.85647173290938e-05
2.61824723768618e-05
2.38608826894915e-05
2.16185260853997e-05
1.9471300755158e-05
1.74321444423218e-05
1.55110353905545e-05
1.371496626674e-05
1.2048227536145e-05
1.05126645680036e-05
9.10806107799162e-06
7.83249837163202e-06
6.68277820120046e-06
5.6547176771251e-06
4.74321746020016e-06
3.9423064906152e-06
3.24526408333076e-06
2.64480150891883e-06
2.13327978800092e-06
1.70303402467516e-06
1.34635804204599e-06
1.05603144471034e-06
8.24593243189277e-07
6.45759684298796e-07
5.12549185586594e-07
4.20213205691589e-07
3.62692875337224e-07
3.40600659920766e-07
3.77920831309225e-07
3.95677298633637e-07
3.56591952146021e-07
2.77474315481535e-07
1.49120335271599e-07
3.46577339364005e-08
4.80550986908478e-08
4.39645031698652e-07
1.64909307321547e-06
4.27795093431525e-06
8.92694706355492e-06
1.60449224906597e-05
2.49457206364218e-05
3.48667869648141e-05
4.60099101299373e-05
5.91252587102784e-05
7.63828751575592e-05
0.000102522386815462
0.000151695636977899
0.000240105876232186
0.00040045301742556
0.000712231331739166
0.00124381186830664
0.00180323112471333
0.0014716504484942
0.000823304626957085
0.000298393390869869
0.000129330266557603
0.00279092518616349
0.00220164826419309
0.000862645324528345
8.37217245804598e-05
2.50257508878011e-06
4.64568368777719e-06
2.99989993696153e-06
1.26293857639372e-06
4.85678350346535e-07
2.30023677235657e-07
1.25793928723211e-07
9.11330899229724e-08
8.88869731520782e-08
1.10733529365879e-07
1.66957035546458e-07
2.8179301324912e-07
4.89102539825841e-07
8.25136448069977e-07
1.3261513754312e-06
1.99836124119432e-06
2.81466178771964e-06
3.742458728577e-06
4.76815591369191e-06
5.83838777099103e-06
6.90312143455307e-06
8.0452990909645e-06
1.02557165275541e-05
1.55401876549444e-05
2.92301168873075e-05
5.25477403225006e-05
8.10255005820002e-05
0.000113151759676155
0.0001472289686187
0.000182133515667396
0.000216887197063016
0.000250831386907989
0.000283391016284321
0.000314128997110484
0.0003426617352592
0.000368678307415289
0.000391917961263282
0.000412179784963987
0.000429319670933636
0.00044325189172556
0.000453940978678902
0.000461424129308794
0.000465820914882347
0.000466675957563999
0.000464249563517455
0.000458715472642586
0.000450287587557724
0.000439213159623351
0.000425764532570788
0.000410230155503308
0.00039290753403448
0.00037409696704832
0.000354096939982571
0.000333199313388877
0.000311685825989484
0.000289824382132653
0.000267865980730952
0.000246042194254276
0.00022456294746466
0.000203615530549475
0.000183363723644236
0.000163948707752949
0.000145489332614603
0.00012808331561653
0.000111806881523345
9.67144446455874e-05
8.28395757784208e-05
7.01961046601961e-05
5.87802486033635e-05
4.85727122928239e-05
3.95410563227123e-05
3.164187986929e-05
2.48228052341568e-05
1.90237050245509e-05
1.41773268590502e-05
1.02101788234366e-05
7.04355870125576e-06
4.59500309698842e-06
2.77899645152197e-06
1.50838467161714e-06
6.93414703845172e-07
2.43278968407442e-07
6.41309965664339e-08
6.17604210915491e-08
1.43939402941298e-07
2.23927786250305e-07
2.41564598463506e-07
1.43060084844947e-07
3.03554031470259e-08
6.41984794655074e-08
3.48912507896211e-07
1.23580820504355e-06
3.37685740703637e-06
7.832043133716e-06
1.64538406229127e-05
3.26514755445806e-05
6.06344483349348e-05
0.000105602376532854
0.00017216006178287
0.000263542355342983
0.000374893832396278
0.000503521774676188
0.000651497477250527
0.000826964840720343
0.00105249373370552
0.00137566547602695
0.00191633644444231
0.00279743427851055
0.0042609717023499
0.00672403246843918
0.0102364053938367
0.0135314269806482
0.012898836148369
0.0104172720311384
0.00607310916847943
0.00371516008271742
0.0183297410986782
0.0138066552241023
0.00647350090586545
0.00125020468251343
1.01632751052132e-05
1.99499502353819e-05
1.6180722652704e-05
7.5471716679936e-06
3.15332800334295e-06
1.57443021795646e-06
9.13549716804199e-07
6.88797885680493e-07
6.96592102017354e-07
8.8795763792173e-07
1.34303570317878e-06
2.22850566977251e-06
3.77142361305989e-06
6.20541978522562e-06
9.7586274569272e-06
1.45471993237379e-05
2.0629120821274e-05
2.80233202850893e-05
3.68301869965583e-05
4.70583787061878e-05
5.85597877362846e-05
7.23286524034386e-05
9.40590443546781e-05
0.000126969727688853
0.000192527844200162
0.000285879512622485
0.000378399723241901
0.000464328388778152
0.000541167032491467
0.000608246871621515
0.00066540070596332
0.000712993770512332
0.000751364320427616
0.000780983981648333
0.000802307889901197
0.000815841580191211
0.000822104678056085
0.000821648136445594
0.000815044143826534
0.0008028911150413
0.000785847505664522
0.000764510790612063
0.00073890962654662
0.000709871091533474
0.000677971050165255
0.000643764907853667
0.000607782681169203
0.000570524334967397
0.000532455820738701
0.000494006745716275
0.000455570073512206
0.000417502369215555
0.000380124484261463
0.000343722156358477
0.000308546999490667
0.000274817449462511
0.000242719948057522
0.000212410281923019
0.000184015064293125
0.000157633267226318
0.000133337900194701
0.000111177586533077
9.11781016705687e-05
7.33438017257214e-05
5.7658659757485e-05
4.40876626940857e-05
3.25785657862542e-05
2.30635242161322e-05
1.54605323336675e-05
9.674699477512e-06
5.59921854058952e-06
3.11604175339996e-06
2.09634878508387e-06
2.40115406435647e-06
3.88185814618684e-06
6.38057366206602e-06
9.73018378910288e-06
1.37527359351051e-05
1.82587410488173e-05
2.3041188523171e-05
2.78785323433601e-05
3.25183567058099e-05
3.66981959988155e-05
4.00946786615272e-05
4.24112189966094e-05
4.32262839083519e-05
4.22225610967836e-05
3.78275335298813e-05
3.2900416937286e-05
3.66340653077545e-05
4.76822123498388e-05
6.5818489430711e-05
9.20835412074508e-05
0.000130455793314373
0.000186202815900525
0.000267227536369169
0.000380841224921171
0.000535686658603429
0.000739894426094842
0.00100007092299473
0.00132375527723781
0.00173045362005186
0.00223169687554933
0.00285132588447081
0.00364260707034279
0.00470293763850429
0.00619587018268376
0.00825497902813781
0.0111584048962179
0.0149386802680322
0.0186092257781963
0.0207718356352752
0.0232170805320538
0.0280020220718895
0.0258569736726821
0.0222193696188787
0.0417645849665274
0.0328105400157511
0.0194361092801997
0.00649078520478985
0.00027375837250336
3.42082950525777e-05
4.47547209605895e-05
2.4561150517707e-05
1.15534354400728e-05
6.20760160170086e-06
3.8498670464387e-06
3.02747015258167e-06
3.16244522036704e-06
4.09089643831284e-06
6.14041774464182e-06
9.90431639926239e-06
1.61368868377473e-05
2.5496276892164e-05
3.8532043110369e-05
5.56005821103337e-05
7.71541882242385e-05
0.000103340575715441
0.000134625141252115
0.000172038378186127
0.000216009836959724
0.000268375720464121
0.000335252267554716
0.000397153986842776
0.000481905693297429
0.00056811592374405
0.000619431757792147
0.000643723797419954
0.000650055227416484
0.000644508399276604
0.000630800319177698
0.000611395844956071
0.000587840449407043
0.000561256362323856
0.000532470539637721
0.000502152408924119
0.000470856311486072
0.000439057918711431
0.000407172771896962
0.00037558895461271
0.000344666120834202
0.000314500635198269
0.000285216852876621
0.000257023913450121
0.000230070208007801
0.000204477918716518
0.000180343079590678
0.000157739137642057
0.00013671964668783
0.000117321133835289
9.95658896252264e-05
8.34642594030245e-05
6.90162530851221e-05
5.62128294072426e-05
4.5037115248589e-05
3.54653625026876e-05
2.74678194498722e-05
2.10093853645802e-05
1.6050050442305e-05
1.2545043302611e-05
1.04448508733618e-05
9.69540230508915e-06
1.02382703204945e-05
1.20120536329391e-05
1.49530888307115e-05
1.89951348418381e-05
2.40692420942087e-05
3.01027685052338e-05
3.70187252008014e-05
4.47348224928151e-05
5.31627705575931e-05
6.22074030135983e-05
7.17665911951998e-05
8.17323407707359e-05
9.19912268988455e-05
0.00010242260244503
0.000112896990257064
0.00012327163092049
0.000133389384859297
0.00014307323602254
0.000152128871219306
0.000160341709261357
0.000167478845287372
0.00017328961788087
0.000177507771118281
0.000179789720438549
0.000179703502476639
0.000173208321650822
0.000166384098574467
0.000177149168043586
0.00020597770963542
0.000249397789330179
0.000305823587063732
0.000381062917260092
0.000479595301139088
0.000604546516197465
0.000758272572690212
0.000943302225271724
0.00116415568814831
0.00142481309417007
0.00175735962090995
0.00221713898222692
0.0028329641339097
0.00364084086412186
0.00469122142932749
0.00603371453434236
0.00759193650617355
0.00925158926157018
0.0110121008859376
0.0122932541888309
0.0120014512398361
0.00997094408254948
0.012394380468092
0.0260539372081526
0.039345592353068
0.0450271585327418
0.0502487325830892
0.0423985431366464
0.0317380319506592
0.0164787159784534
0.00215100946094909
2.26480766784641e-05
6.79544665699265e-05
5.02837429122804e-05
2.84687592564681e-05
1.70335372661928e-05
1.14147951533695e-05
9.3733542419451e-06
1.00370558790895e-05
1.30055299778845e-05
1.9057863627313e-05
2.93392610021679e-05
4.50379415256749e-05
6.65860691934468e-05
9.38858930205155e-05
0.00012682351037681
0.00016598811165855
0.000211283148922796
0.000263691628474687
0.000326521442863552
0.000401695481881346
0.000488055041346713
0.000575093769687137
0.00060215250345311
0.000584914198039759
0.000538543379446225
0.000477648655802812
0.00041510432999576
0.00035886343898676
0.000309862611960607
0.000267509445970806
0.000230729596119417
0.00019857365325128
0.000170275111496005
0.000145269117908138
0.000123135531612164
0.000103566489845349
8.63311090213155e-05
7.1253862923476e-05
5.82041063981543e-05
4.7014653436381e-05
3.75134015966626e-05
2.96244353977799e-05
2.32652409640657e-05
1.83476200902659e-05
1.47867978060087e-05
1.25001359003398e-05
1.14082721841084e-05
1.1435441743023e-05
1.25093303137723e-05
1.45610025687903e-05
1.75247127481858e-05
2.13378832144501e-05
2.59408756340057e-05
3.12770766830148e-05
3.72928306719992e-05
4.39372505236102e-05
5.11620184582853e-05
5.892082079773e-05
6.71690602272354e-05
7.58630297392857e-05
8.4960149540224e-05
9.44182736233909e-05
0.000104196803411902
0.000114257899330197
0.000124565079177765
0.000135081958480335
0.00014577015766941
0.000156588133202749
0.000167490024419373
0.000178425208540611
0.000189337570513294
0.000200165598447423
0.000210844577398073
0.000221307694330151
0.000231484460547026
0.000241297933867955
0.000250663775328178
0.000259485859767893
0.000267667441379684
0.00027509663787375
0.000281703109243519
0.00028738641466933
0.000292195591392322
0.000296104684054721
0.000299352161693723
0.000302045490135366
0.000299485168259619
0.0002998567400148
0.000315183458823657
0.000352702551871717
0.000407952871252492
0.000477268685492073
0.000566648188978123
0.000678235269062433
0.000809427121184309
0.000956857438368386
0.0011160124420941
0.00128498683551155
0.00146068551027895
0.00167573252001678
0.00199229563675538
0.00244267681013063
0.00305877876609816
0.00387305354865741
0.00488596873089615
0.00588969346341882
0.00665965846510461
0.00716391549486532
0.00697546314778442
0.00559201506191283
0.0030831762080886
0.00235714872731479
0.0114282113280307
0.0318301574174189
0.0479070744902511
0.0438292185946667
0.0401787846840925
0.0368170452616698
0.0267416599390024
0.00753783796970158
0.000194930542621774
4.38283519045567e-05
6.39921373420622e-05
4.92820870387543e-05
3.47911891250732e-05
2.56777945391204e-05
2.20688950654243e-05
2.39807708756513e-05
3.06175814150246e-05
4.29274396762912e-05
6.16690048274173e-05
8.69491144389231e-05
0.000117066527811581
0.000150080611869229
0.000185766197910541
0.000226157006611285
0.000272306961068788
0.000326274143765017
0.000392867772191606
0.000472977192230004
0.000557122068879059
0.000615879631309217
0.000571522121831999
0.00044946043973516
0.000328261823700482
0.000238658949097472
0.000171303674684736
0.000122668209856195
8.71012550876024e-05
6.08987214860944e-05
4.14456203186549e-05
2.70421683228038e-05
1.65344370392906e-05
9.14419427501934e-06
4.32465259966614e-06
1.68217434565203e-06
9.19871839215987e-07
1.802083775437e-06
4.13264577940565e-06
7.76167218394059e-06
1.25626561023043e-05
1.84132902391585e-05
2.51982351782449e-05
3.28110906610571e-05
4.11514778540962e-05
5.01244502361412e-05
5.96410383214819e-05
6.96196201245594e-05
7.99856300721299e-05
9.06707993328047e-05
0.000101612242115483
0.00011275228874784
0.00012403807009899
0.000135421423238301
0.000146858883935168
0.000158311288377163
0.000169743606518445
0.00018112423498926
0.00019242501002599
0.000203620162856007
0.000214686803420088
0.000225603154543815
0.000236349110549106
0.000246909066492753
0.000257270081185538
0.0002674198785173
0.000277344225437744
0.000287025438340181
0.00029644140022508
0.000305565439203753
0.00031436547561508
0.000322803539670216
0.000330839485190786
0.000338433419864816
0.00034554526399025
0.000352130381571729
0.000358143160394851
0.000363526898698463
0.000368242737697543
0.000372233908145858
0.000375542514378819
0.000378164586667267
0.000380389543649423
0.000382391415528373
0.000384875303528443
0.000388633072499097
0.000388293576140459
0.000395370240140944
0.000415638290023412
0.000459361253208297
0.000522565156605464
0.0006012528437747
0.000700960511273722
0.000823122206951868
0.000962778216993581
0.00111273478916248
0.0012633082578447
0.00140709747950185
0.00153511027274839
0.00167315513344977
0.00188215896103361
0.00219525798315823
0.0026386789103217
0.00323529871503509
0.00397734567252475
0.00467905211406014
0.0051473167312534
0.00542369989324814
0.00532136263827637
0.00452939656661285
0.00277274713980134
0.000307166738614143
0.00290339168103902
0.0178956378346232
0.0361366665598629
0.0325161950145862
0.0325194261928884
0.0354399855113344
0.0335011449446238
0.0159083874074408
0.00133082752539387
1.4231766215568e-06
4.37220516746467e-05
5.79717327425522e-05
5.3007527627931e-05
4.45003030404163e-05
4.03019928230642e-05
4.40524527153452e-05
5.45921657350635e-05
7.19466093666164e-05
9.46941409221962e-05
0.000120515211722764
0.000145972912284282
0.000169734355289304
0.00019445006282841
0.000224999719736604
0.000263360496488845
0.000310760870843851
0.00037014532375931
0.000437964372372867
0.000496748457981127
0.000512008539111914
0.000421859061792274
0.000275876375390327
0.000165279589684798
9.89857630235633e-05
5.67032369048256e-05
3.09265597209542e-05
1.57356179637288e-05
7.60018640735749e-06
4.38045648087462e-06
4.71762810403894e-06
7.74966569401413e-06
1.28996421916391e-05
1.97733334224583e-05
2.80824576685065e-05
3.76009766244281e-05
4.81418439030612e-05
5.95789544701324e-05
7.18062249805686e-05
8.47082083171026e-05
9.81671501240756e-05
0.000112075593969361
0.000126334485497452
0.000140848859853848
0.000155527484150306
0.000170283439498463
0.000185038004114705
0.000199721094439235
0.00021427015167697
0.000228628714015232
0.000242746278067348
0.000256577853648872
0.000270083762500724
0.000283229895020848
0.000295987223170798
0.000308331828776746
0.000320244218800392
0.00033170973533536
0.000342717262777423
0.000353259826081863
0.000363331144724175
0.000372925525772063
0.000382043295530042
0.000390688719408443
0.000398867304650853
0.000406582677940932
0.000413834664084401
0.000420618455323701
0.000426924676850673
0.000432737937203399
0.000438034942594589
0.000442790173097692
0.000446980386698934
0.000450585683312951
0.00045358335838768
0.00045595572808763
0.000457673560162375
0.000458740674012959
0.000459138182236934
0.00045899312254157
0.00045837110690241
0.000457737068031854
0.000457446397315499
0.000458491792429214
0.00046235715221065
0.000462616817244745
0.000473507316921967
0.00049943143127339
0.000550487214992269
0.000622586465753851
0.000712737368952862
0.000826007494632311
0.000964235949357804
0.00112202157399441
0.0012895017055058
0.00145263074359648
0.00159927105742639
0.00171613102103777
0.00182394602628705
0.00198470988148633
0.00223648307089881
0.00260649994952611
0.00311980182514804
0.00378299209645936
0.00447216182779688
0.00505023404750365
0.00560240205138832
0.00604750763707855
0.00597605933245794
0.00469107305823942
0.00115005800764276
0.000476482186156985
0.00858992143399979
0.0230283838232148
0.0224329442830303
0.024309278821846
0.0304939922938493
0.0360414858513806
0.0246543321643038
0.00430174918923045
9.41868470023581e-05
9.81171864512028e-06
4.25199477994228e-05
5.86584304269081e-05
5.88174354143804e-05
5.69300726979375e-05
6.24757878732471e-05
7.46172707228447e-05
9.1715359017002e-05
0.000109984965871821
0.000126359688871704
0.00013911351716985
0.000150076980493575
0.000164450658377188
0.000187531386213984
0.000220133686521365
0.000261281987690029
0.000310831686990444
0.000361217127414545
0.000392375074685875
0.000377510889093722
0.000281139189120883
0.000161835231895216
8.64541891920038e-05
4.84356720599004e-05
2.94693869681076e-05
2.22831056089278e-05
2.26449597408563e-05
2.77618859546031e-05
3.61807716945969e-05
4.69138220570236e-05
5.93830956029119e-05
7.31915565826548e-05
8.80781314563059e-05
0.000103844148793932
0.000120323709758729
0.000137380833117012
0.000154935961851259
0.000172892774673843
0.000191146284678671
0.00020958752318723
0.000228116432287134
0.000246638416180177
0.000265061313554912
0.000283294485109843
0.000301249467782735
0.000318847127523552
0.000336019034560139
0.000352705794447367
0.000368854934487859
0.000384420738803337
0.000399363722391157
0.000413650273252092
0.000427253233396431
0.000440151331442305
0.000452329453886561
0.000463778040735845
0.000474493946442664
0.000484478806640694
0.000493739692636087
0.000502283279461879
0.000510114897560497
0.000517247578845903
0.000523699871104762
0.000529492384986759
0.000534644129565458
0.000539170067031253
0.000543080428623163
0.000546380914077045
0.000549070241992387
0.000551136022973894
0.000552562743575935
0.000553339179850697
0.000553461269243385
0.000552924250083261
0.000551734420252087
0.000549886156264343
0.000547420010586119
0.00054434944403461
0.000540868171747723
0.000537113033560094
0.00053368874662492
0.000531130553093105
0.000530597468841807
0.00053426897028016
0.000534469201639887
0.00054686967486168
0.000578627213547399
0.000638386365053809
0.000720894591563928
0.000824970895073844
0.000955279955423366
0.00111453540724302
0.00129772512989801
0.00149288655099356
0.0016818011981074
0.0018479304498012
0.00197491709498404
0.0020811012938834
0.00223180247859821
0.00247271088360415
0.00283693544359946
0.00335874275395734
0.00406823851754005
0.00490450977877858
0.00577844125634142
0.00677921404225856
0.00782203953794721
0.00826745033308222
0.00705304250556629
0.00252954942491596
0.000227013253426877
0.0041876440797937
0.0139689406659533
0.0152743875168058
0.0176634321049597
0.0244424402287912
0.035254733204214
0.0319471879373736
0.00918726745962631
0.000507094660343736
9.91202898781819e-06
1.62195126611899e-05
4.56713520580552e-05
5.88004018318269e-05
6.22033527401905e-05
6.91050540495002e-05
7.98879520931773e-05
9.20533979651238e-05
0.000101499584972978
0.000106996453421853
0.00010983628958101
0.000113613813020387
0.000123298517772239
0.000142771871133252
0.000171551797313541
0.000207005764663729
0.000246631257906826
0.000281125530876767
0.000292682090098406
0.000266232504251983
0.000186819729996415
0.000105925999221284
6.26613206135695e-05
4.72595912317012e-05
4.62187824047972e-05
5.31166564164946e-05
6.53232696663696e-05
8.05919460149947e-05
9.80007743053922e-05
0.000116813988798447
0.000136657006635293
0.000157258068324303
0.000178452658265739
0.00020010695977713
0.000222094384453278
0.000244327335247364
0.00026673080053264
0.00028922113286459
0.000311700867760683
0.000334067695007538
0.00035622551101113
0.000378080647377582
0.000399540600389364
0.000420512015368088
0.00044090135053418
0.000460626073775344
0.000479617116126266
0.00049781635129438
0.000515173571319228
0.000531646239851714
0.000547198833110914
0.000561802274288159
0.000575434894165831
0.0005880817852849
0.000599735351137056
0.000610394837015277
0.000620067727802291
0.000628767710050415
0.000636515408171504
0.00064332938294079
0.000649224027174609
0.000654223318880016
0.000658358700156109
0.000661664754397477
0.000664174958836245
0.000665918644961166
0.000666920500239376
0.0006672009263273
0.000666772224799576
0.00066563133333364
0.000663770390577232
0.000661187972772992
0.000657894077932921
0.000653900729738053
0.000649237433099818
0.000643922101203875
0.00063803070321141
0.00063160273350654
0.000624903283352162
0.000618141376913551
0.00061203482647211
0.000607319125341598
0.000605234570924118
0.000608636336144577
0.000608484070498693
0.000620878411367251
0.000658246777454528
0.000727732869825868
0.000822031157663601
0.00094211024792684
0.00109229618878274
0.00127632022532482
0.00148988425736609
0.0017191881690461
0.00194181303577391
0.00213703904823151
0.00228656075504681
0.00240867249481523
0.00257329848641231
0.00283486844659081
0.00323502759761722
0.00382093705470369
0.0046498013685314
0.00571770113582211
0.00697077371293566
0.00847038698743078
0.0100497298280064
0.0107790066909569
0.00932896840056162
0.00383439834667018
0.00050820843827585
0.00234728501810412
0.00874141801985694
0.0106567335908713
0.0129111938299153
0.0188465347921869
0.0324144701110643
0.0371151347530003
0.0152779019846869
0.0014354508281265
6.93223607166643e-05
4.26492292655339e-06
2.36650867330817e-05
4.4472384467881e-05
5.31480516003695e-05
6.08877603290633e-05
6.91372792178312e-05
7.58808215607726e-05
7.84546054337049e-05
7.77946489422667e-05
7.66435310542207e-05
7.82655491303132e-05
8.62793113062481e-05
0.000103374575245232
0.000128613270797902
0.000158569450949986
0.000189452741367294
0.000212226520659582
0.000213494445083313
0.000188046855045783
0.000132996378901603
8.69324742893093e-05
6.89102412067165e-05
7.13038540597528e-05
8.45790312396967e-05
0.000102964103773035
0.000125052623405882
0.000148934745781455
0.000174082282667454
0.00019992271471759
0.000226230037598561
0.000252822947637695
0.00027961178912763
0.000306512447001062
0.00033343056372593
0.000360299737965004
0.000387053404009971
0.000413616973658917
0.00043989831491919
0.000465799635559836
0.000491226407712625
0.000516083671127336
0.000540276575391246
0.00056370676843953
0.000586272952975087
0.00060788704762328
0.000628477903971981
0.00064798759054015
0.000666367210585837
0.000683576527165393
0.000699583133161457
0.000714361625738034
0.000727895007044828
0.000740173963079879
0.00075119771883129
0.000760973766763237
0.000769519920446593
0.000776861845331052
0.000783033982062978
0.00078806649424728
0.000791981539724476
0.000794812935628309
0.00079660432071666
0.000797403792832602
0.000797259041784321
0.00079621367104023
0.00079430696671872
0.000791574511483493
0.000788042647656989
0.000783717089292385
0.000778596301092797
0.000772687556553106
0.000766014346819763
0.000758605668333375
0.000750515014213153
0.000741785624802583
0.000732523173616885
0.00072280830487742
0.000712966028869253
0.000703291590493411
0.000694600768954962
0.000687838021723356
0.000684271659056457
0.000687394332105868
0.000686752592072486
0.000698121730298764
0.000740681095368167
0.000820577345744956
0.000927829292655402
0.00106560534513537
0.00123793070913155
0.0014495360337931
0.00169690784295379
0.00196450064568415
0.00222562026164922
0.00245565357022348
0.00263551781754191
0.0027854695640335
0.00298064872295795
0.00328439532561496
0.00374822721453774
0.00443410235979672
0.00542789498223522
0.00677627019938144
0.00844785336980122
0.0104506651582383
0.012476816830542
0.0132672262645505
0.0113637363165207
0.00493261846222832
0.000850761296589367
0.00158948293455733
0.00588158700029937
0.00776566429227841
0.00968865439949403
0.0143655505714149
0.028634212107478
0.0398905739107273
0.0213727782859415
0.00312422899914614
0.000202798414988342
1.90971341556403e-05
6.91626619932681e-06
2.49171291623143e-05
3.57282251099399e-05
4.3559212686295e-05
4.98108522985006e-05
5.34131157111137e-05
5.3239520424644e-05
5.11002253518753e-05
4.95535459014155e-05
5.09141080664766e-05
5.77710980069901e-05
7.23216697059437e-05
9.38004232684901e-05
0.000118607463229006
0.000142527774666388
0.000157918776852656
0.000155874575797376
0.000137561526811687
0.000106572314279023
8.91504208501894e-05
9.12666555944591e-05
0.000108510948830065
0.000134084594957948
0.000162651377406196
0.000193709029560604
0.000225546169148232
0.000257936291072795
0.000290413908743639
0.00032286883122929
0.000355190432769491
0.000387352876542036
0.000419313054777058
0.000450999050165174
0.00048235705765992
0.000513332825056873
0.000543857817994724
0.000573844131847029
0.000603197008529901
0.000631822098042351
0.000659621864869907
0.000686497989315479
0.000712345596244802
0.000737053515640612
0.000760526510952489
0.000782690501488118
0.000803487248947258
0.000822868746286598
0.000840796669696742
0.000857241353290897
0.000872180646859171
0.000885601818920329
0.000897500765666178
0.000907883188730534
0.00091676459113711
0.000924173134607605
0.00093014675145532
0.000934734449501631
0.000937978205191543
0.000939906980902886
0.000940563651057969
0.000940003720040898
0.000938288682667719
0.000935480496347823
0.000931637247173663
0.000926813309121484
0.000921060387001833
0.000914419885822633
0.000906906290680463
0.000898523578419652
0.000889287197741617
0.000879234217749542
0.000868411516334569
0.000856898252793555
0.000844759259495326
0.000832143881326224
0.000819169619311467
0.000806227002684367
0.000793703964929798
0.000782505018732925
0.000773789817013251
0.000768817538294734
0.000771663784181021
0.000770464713432626
0.000780126681281349
0.000827369690086142
0.000918072948924987
0.00103922335321066
0.00119605942145864
0.00139231121722655
0.00163359828476353