/*--------------------------------*- C++ -*----------------------------------*\
  =========                 |
  \\      /  F ield         | OpenFOAM: The Open Source CFD Toolbox
   \\    /   O peration     | Website:  https://openfoam.org
    \\  /    A nd           | Version:  7
     \\/     M anipulation  |
\*---------------------------------------------------------------------------*/
FoamFile
{
    version     2.0;
    format      ascii;
    class       volSymmTensorField;
    location    "20000";
    object      tauij_B;
}
// * * * * * * * * * * * * * * * * * * * * * * * * * * * * * * * * * * * * * //

dimensions      [0 2 -2 0 0 0 0];

internalField   nonuniform List<symmTensor> 
15600
(
(2.84780717257554e-06 -2.00959710736635e-08 -1.79566729153869e-28 2.84809614588664e-06 -2.19588002774398e-30 2.84795863289807e-06)
(2.57193590070546e-06 -2.06740063465798e-08 7.07423817757793e-28 2.57384462113508e-06 -3.37149934910652e-27 2.57285217487153e-06)
(1.49654356629046e-06 -7.81143535894329e-09 1.99350927160289e-27 1.49983911628916e-06 -3.77973877491326e-27 1.49820484305411e-06)
(6.29281636570559e-07 1.04935410022483e-10 -5.45944516819671e-24 6.28918193528209e-07 -1.93572704486877e-23 6.29074382685175e-07)
(1.76698510412156e-07 3.47124202578632e-10 -2.99803441546433e-24 1.75837440636935e-07 -6.31813922373661e-24 1.76262283905033e-07)
(9.71146389876192e-08 1.27404780121699e-10 1.00730101566792e-27 9.66002346217838e-08 4.45461436050966e-27 9.68550628310942e-08)
(8.61768063974002e-08 6.0257603439099e-11 5.33705308048607e-27 8.58079257133445e-08 6.66802276220787e-27 8.59909536351725e-08)
(4.87572993076881e-08 2.04218654983645e-11 4.81199248404067e-27 4.85814884235339e-08 5.88475524800407e-27 4.86686975963326e-08)
(2.62269759834172e-08 7.25786639770077e-12 1.78885354681306e-27 2.61480637880598e-08 2.34373482238572e-27 2.61872773692885e-08)
(1.72433008250048e-08 3.85539794186571e-12 -1.76195279463859e-27 1.71986767931408e-08 -1.71526768473682e-27 1.72208589461566e-08)
(1.27576979716075e-08 2.6912774540108e-12 -1.11697356638142e-27 1.27292457993303e-08 -1.4617365446964e-27 1.27434192919857e-08)
(1.11041080784484e-08 2.41103557501345e-12 1.86439468925669e-27 1.10811566915545e-08 2.13576019242532e-27 1.1092606008247e-08)
(1.15927131863688e-08 2.65413378941688e-12 2.24601364750715e-31 1.15693286337071e-08 -1.25308555160511e-32 1.15810121529599e-08)
(1.35996585706594e-08 3.42393956685036e-12 2.16425598445208e-28 1.35709701392277e-08 -8.24854155793898e-30 1.35853231776432e-08)
(1.72677289606684e-08 5.03949148427423e-12 -1.00784829387135e-27 1.72268589436119e-08 -1.55177180178325e-27 1.72473212379531e-08)
(2.30463462501223e-08 8.11100264674419e-12 4.63427933636337e-27 2.29820425139721e-08 6.58542995950695e-27 2.30142411375389e-08)
(3.14544992928472e-08 1.36182167188959e-11 1.37651334089877e-27 3.13501417109122e-08 -1.09191647540247e-28 3.14023689170077e-08)
(4.29319071091278e-08 2.37211906724175e-11 5.61274346052439e-27 4.27654221436718e-08 4.8963881182814e-27 4.2848707537255e-08)
(5.80477700468535e-08 4.21120705376238e-11 -6.87759223663846e-27 5.77912471980612e-08 -6.99783967249986e-27 5.79195201673791e-08)
(7.70059983363074e-08 7.3687980084618e-11 2.05334094038522e-28 7.66331757446593e-08 -6.91851569563125e-29 7.68195705881431e-08)
(9.93305822790798e-08 1.23241412566675e-10 2.02713673936148e-26 9.88308366080352e-08 3.23666436052093e-26 9.9080716501251e-08)
(1.23969390111436e-07 1.94387219449211e-10 3.20232627769992e-26 1.23356553761556e-07 6.68625308862626e-26 1.23663237114075e-07)
(1.50081233247427e-07 2.85626480771559e-10 6.60931942625982e-27 1.493912151009e-07 -7.36299573477383e-28 1.49736919777014e-07)
(1.76142687829905e-07 3.84302435219548e-10 -1.03825965376261e-26 1.75442019927071e-07 -3.73075996481298e-26 1.75793546203692e-07)
(1.98390467309329e-07 4.68690225248077e-10 2.30524721626641e-26 1.97767318899848e-07 1.50453431819596e-25 1.98080546333379e-07)
(2.14307954331669e-07 5.28901225017552e-10 8.5188103713885e-25 2.13833502527135e-07 -1.08147397719206e-25 2.14073201913661e-07)
(2.27653744202618e-07 5.57778346266667e-10 6.91900204209221e-25 2.2736226368263e-07 -4.5196867857659e-24 2.27508525369506e-07)
(2.55664318079184e-07 7.76931882265779e-10 -8.18849396134863e-25 2.55490409186412e-07 -4.11381262925088e-24 2.55580013814861e-07)
(3.42221017947836e-07 1.60262046497221e-09 -1.43151201358566e-24 3.42092954193914e-07 1.16266459603673e-25 3.42160870660193e-07)
(4.7445600860541e-07 3.00882520716765e-09 8.05997816547611e-31 4.74293645542662e-07 7.18059419032021e-28 4.74378474294843e-07)
(6.1626759835959e-07 4.75040156703324e-09 2.8745214154337e-24 6.1608155365393e-07 -2.115730951347e-25 6.16180793497252e-07)
(7.65153063305504e-07 6.82169684264002e-09 7.54329374951441e-24 7.64948961514304e-07 -1.25205216813539e-23 7.65058280395913e-07)
(9.17335692101046e-07 9.11477520954823e-09 9.57709932214694e-25 9.17121931733572e-07 -1.2477381114183e-23 9.17237993503341e-07)
(1.07120424042841e-06 1.15803704783414e-08 -5.1118610481025e-24 1.070985605231e-06 3.48690090199857e-25 1.07110572823527e-06)
(1.22532662327498e-06 1.41606100903729e-08 -7.13269415063533e-29 1.22510685269251e-06 1.82791522257126e-27 1.22522938002991e-06)
(1.379212532495e-06 1.68216834166668e-08 1.02393302742895e-28 1.37899418825163e-06 -8.46320016296346e-28 1.37911775937056e-06)
(1.5323509381757e-06 1.95305793904946e-08 4.06469405013164e-29 1.53213616183789e-06 1.88377123937167e-27 1.5322597153548e-06)
(1.68449416838468e-06 2.22624465443785e-08 -8.629259080474e-24 1.68428486880085e-06 4.79705440403642e-25 1.68440736479842e-06)
(1.83533276408137e-06 2.4992823053346e-08 -2.34896812921072e-23 1.83513084549281e-06 2.67106927441098e-23 1.83525124449501e-06)
(1.98459704664226e-06 2.76994405721409e-08 -5.1307315138453e-24 1.98440447163595e-06 2.54797159777251e-23 1.98452165848967e-06)
(2.13197469177126e-06 3.03601877493262e-08 1.13423324779341e-23 2.1317934752662e-06 -5.72469948234062e-25 2.13190628797124e-06)
(2.27717607858732e-06 3.29543520039105e-08 -1.46705185429073e-28 2.27700823431375e-06 -1.94906797762309e-27 2.27711548755973e-06)
(2.4199505297918e-06 3.54627231709976e-08 1.75808296351455e-28 2.41979806119888e-06 -7.58551689355738e-30 2.41989855809064e-06)
(2.56012567832893e-06 3.78681871179162e-08 -4.95946722368514e-29 2.55999056355567e-06 1.94540695195243e-27 2.56008310772901e-06)
(2.69760513791142e-06 4.0155693358369e-08 -5.48034926065569e-28 2.69748931272809e-06 -2.02514225417553e-27 2.69757271765926e-06)
(2.83242707824334e-06 4.23132772656615e-08 1.9173239768853e-23 2.83233240339841e-06 -6.83557851276497e-25 2.83240550286522e-06)
(2.96509173856565e-06 4.43372176940571e-08 4.61654016570884e-23 2.96501995775537e-06 -5.16932581864973e-23 2.96508162907074e-06)
(3.09475424642272e-06 4.62050528074566e-08 5.54415851446061e-24 3.0947069887755e-06 -5.06844813426934e-23 3.09475615825531e-06)
(3.21918418327263e-06 4.78748775487923e-08 -2.26174838814954e-23 3.21916288018874e-06 6.86043758885104e-25 3.21919856541089e-06)
(3.33696914194137e-06 4.93195326597302e-08 5.18122876755655e-28 3.33697490081642e-06 3.33291282579355e-27 3.33699628018401e-06)
(3.44767012104561e-06 5.05288748968394e-08 -2.092526474082e-28 3.44770367658025e-06 -2.30733096303599e-27 3.44771012532802e-06)
(3.55092933307118e-06 5.14965571001467e-08 2.77157889979444e-23 3.55099104274865e-06 -5.64472677348763e-25 3.55098214043692e-06)
(3.64647536954653e-06 5.22199251884644e-08 5.81137640599912e-23 3.64656524382865e-06 -7.20336986191891e-23 3.64654076188135e-06)
(3.73410646441849e-06 5.26995505097677e-08 -9.68369834411264e-26 3.73422419615621e-06 -7.28352829685685e-23 3.73418408663076e-06)
(3.81368020899621e-06 5.29388582691122e-08 -3.07317742795541e-23 3.81382520320897e-06 4.6798914324086e-25 3.81376958407487e-06)
(3.88510069327251e-06 5.29437454434142e-08 5.1550902404199e-29 3.88527208341017e-06 -5.2335111818508e-31 3.88520123427978e-06)
(3.94832175302644e-06 5.27224270805476e-08 -2.83765521055115e-29 3.94851842889595e-06 5.46325882828462e-28 3.94843277540345e-06)
(4.00333818460504e-06 5.22850973617604e-08 -1.05459776491808e-28 4.00355880809944e-06 1.55294690627357e-28 4.0034589169107e-06)
(4.0501931046162e-06 5.16438295239014e-08 7.02823657171824e-29 4.05043613814285e-06 -1.01458706726597e-27 4.05032270149177e-06)
(4.08897459743335e-06 5.08122623567011e-08 4.04622101456994e-29 4.08923833448685e-06 2.97649879682822e-28 4.08911215481399e-06)
(4.11981340399475e-06 4.9805323732555e-08 -2.87860273820146e-29 4.12009600194302e-06 0 4.11995797533727e-06)
(4.14288005268329e-06 4.86389092943359e-08 -6.3510881332802e-29 4.1431795741802e-06 -3.22385149557606e-31 4.14303066646189e-06)
(4.15836950367534e-06 4.73294452790696e-08 -8.82188322622556e-29 4.15868394738117e-06 -6.64820316087456e-28 4.15852518012594e-06)
(4.16649733830376e-06 4.58936045386302e-08 1.74170573257687e-28 4.16682468015922e-06 -6.92289798506294e-28 4.16665710296539e-06)
(4.1674717934951e-06 4.43478416661187e-08 1.08850298822771e-28 4.16780999152594e-06 1.36333352115185e-27 4.16763468418696e-06)
(4.16150862465449e-06 4.27084650984924e-08 -1.30574575586615e-28 4.16185564454655e-06 -1.65701149129436e-30 4.16167369417036e-06)
(4.14881398197887e-06 4.09914199143766e-08 0 4.14916776660157e-06 0 4.14898028817005e-06)
(4.12963909252819e-06 3.92128818295552e-08 0 4.12999758130281e-06 0 4.12980570578563e-06)
(4.10429765151102e-06 3.73890490576276e-08 0 4.10465884376893e-06 0 4.10446368044583e-06)
(4.07313271627063e-06 3.55355487978778e-08 -2.13434738842984e-41 4.07349470334104e-06 -3.89322360615409e-27 4.07329732621045e-06)
(4.03651343351886e-06 3.36671841113626e-08 -1.06772238375469e-41 4.03687444904789e-06 3.8798897823056e-27 4.03667586384242e-06)
(3.99478827076505e-06 3.17973736468475e-08 -4.91573410776827e-23 3.99514669955413e-06 -1.48918212109961e-24 3.99494784168882e-06)
(3.94827642090615e-06 2.99381152217882e-08 -1.14968819233263e-22 3.94863080791602e-06 1.53232770352386e-22 3.9484325327732e-06)
(3.8972370091009e-06 2.80998127460869e-08 -3.21737687510666e-23 3.89758604274954e-06 3.26962298417117e-22 3.89738913557672e-06)
(3.84185818582076e-06 2.62913964121418e-08 8.13478949517506e-23 3.842200678223e-06 1.74441791088761e-22 3.84200586115464e-06)
(3.78223783239803e-06 2.45204246274152e-08 4.77272169841789e-23 3.78257267541922e-06 1.82311857298214e-24 3.78238062969052e-06)
(3.71840491926958e-06 2.27935836278563e-08 -1.76388342864774e-27 3.71873103398553e-06 5.16526683242083e-30 3.71854242596605e-06)
(3.650380497619e-06 2.11172653425975e-08 4.11860458493121e-28 3.65069683154937e-06 -1.20603656809294e-26 3.65051231753109e-06)
(3.57820657287934e-06 1.94975538202919e-08 -4.88845339245259e-23 3.57851213632591e-06 -2.35954711562624e-24 3.57833233356922e-06)
(3.50188088724654e-06 1.79398895518097e-08 -5.7892911811573e-23 3.50217474515116e-06 1.69230342826787e-22 3.50200025415794e-06)
(3.42136444947212e-06 1.64489018802746e-08 3.77108175755781e-23 3.42164575927422e-06 1.86792495276221e-22 3.42147710999479e-06)
(3.33638148366186e-06 1.50280547045415e-08 4.57157626873758e-23 3.33664937494985e-06 2.44451516459999e-24 3.33648714861486e-06)
(3.24655571444687e-06 1.3680002677645e-08 -1.05958993769196e-27 3.24680934688809e-06 5.69780991518046e-27 3.2466540440104e-06)
(3.15096440058989e-06 1.24065944178202e-08 1.00415318974011e-27 3.15120263067957e-06 -1.11880966089957e-26 3.15105501875809e-06)
(3.04874695863427e-06 1.1209773739492e-08 1.17625934533004e-28 3.0489686179357e-06 1.20502506818402e-27 3.04882930166255e-06)
(2.93794856791489e-06 1.0091673261403e-08 -5.70354773046442e-28 2.93815173131794e-06 4.14826441862016e-27 2.93802200194892e-06)
(2.81726057535598e-06 9.05487238994513e-09 5.20960622923558e-29 2.81744349682597e-06 2.50313307872604e-26 2.81732411289594e-06)
(2.68285781314499e-06 8.10260023293229e-09 -1.02408612769831e-27 2.68301716304029e-06 -3.80582035476818e-26 2.68291039457016e-06)
(2.53365776165271e-06 7.23945485575358e-09 -2.56876621192219e-29 2.53379143962457e-06 1.33498707963081e-26 2.53369802034554e-06)
(2.36370606688078e-06 6.46772547554798e-09 1.68598117183203e-27 2.36380963595796e-06 -8.89001162247119e-27 2.36373262970551e-06)
(2.17502442186819e-06 5.79397984020947e-09 9.03346797287766e-29 2.17510309857651e-06 1.66796753957458e-26 2.17504040620568e-06)
(1.95837719045411e-06 5.16022848478216e-09 -1.48552456563053e-27 1.95842155054657e-06 -7.65766481154582e-27 1.95837517469975e-06)
(1.82997504338005e-06 4.99336420032493e-09 3.07130344425925e-28 1.83070746038872e-06 1.02422059968282e-26 1.8303302220903e-06)
(1.93134995058894e-06 5.15424442547494e-09 -3.67184044634751e-25 1.93403004937705e-06 -5.32988824313397e-26 1.93269039433543e-06)
(2.10206303966931e-06 5.06202890832786e-09 8.6765964034931e-25 2.10668149847141e-06 -4.04249398210064e-24 2.10439652361542e-06)
(2.33446793618721e-06 4.71015245824408e-09 8.53171826281798e-25 2.34082904116839e-06 7.23895533703724e-26 2.33769102715293e-06)
(2.57051381486084e-06 3.88695456400679e-09 -1.46908166665069e-25 2.57772855038957e-06 -1.89817505950941e-24 2.57418873364936e-06)
(2.81784489086544e-06 2.7739307272137e-09 -1.26440282387432e-25 2.82472669292884e-06 -2.56143981632023e-24 2.82137261456398e-06)
(3.07885565765022e-06 1.47889609440943e-09 2.2072311025634e-24 3.08384091573054e-06 -2.28442705363598e-24 3.08145314338463e-06)
(3.37911337099948e-06 1.05019505936697e-10 4.6491307766501e-25 3.38020141792556e-06 4.32232213349629e-26 3.37976504253427e-06)
(3.66927000936205e-06 -1.25124585971263e-09 2.33483271713559e-24 3.66421127228098e-06 -4.03858270025382e-24 3.66683656801495e-06)
(3.93392453523496e-06 -2.55416470884284e-09 3.19766087280712e-24 3.9206577106519e-06 -3.8136951387515e-24 3.92735270312135e-06)
(4.14013571901237e-06 -3.7865754313752e-09 3.90502828878681e-24 4.11720183019333e-06 -5.18389382683014e-24 4.12868180566492e-06)
(4.26787188747415e-06 -4.99294800938113e-09 2.99708663340561e-24 4.23462266197328e-06 -3.45191651571927e-24 4.25119561895277e-06)
(4.24144075302651e-06 -6.00321657245214e-09 -1.96820520786139e-24 4.19948437159662e-06 3.13632228268098e-24 4.22036131718497e-06)
(4.13365779021631e-06 -6.6268882203115e-09 4.3174217872403e-25 4.08532395332338e-06 -1.23566172088054e-24 4.10935075484627e-06)
(4.0123793521405e-06 -6.91763439697136e-09 2.27034682582398e-24 3.95899674772345e-06 -3.49622580642591e-24 3.98551294516748e-06)
(3.90870510409431e-06 -6.96650532853657e-09 -5.04793995087713e-25 3.8507893260082e-06 9.70954740926459e-25 3.87953909466938e-06)
(3.86661949937716e-06 -6.92429326737221e-09 3.21793184715218e-25 3.80334501080302e-06 1.74977713785011e-26 3.8347281036965e-06)
(3.95165961354139e-06 -6.96520729877199e-09 -3.30134821324893e-24 3.88013811620779e-06 3.92919939866926e-24 3.9155757643898e-06)
(4.30109433099236e-06 -7.873514897046e-09 -1.68296484277952e-24 4.21272787586331e-06 2.27376416054147e-24 4.25642433078286e-06)
(4.84843974193896e-06 -1.10391234539948e-08 1.4267339813886e-24 4.73250566731673e-06 -2.20217210050886e-24 4.78974385791864e-06)
(5.71641196579813e-06 -1.90949568034786e-08 -6.07789081103707e-26 5.55617686843816e-06 -8.22346871747395e-25 5.63519930073891e-06)
(7.16555864442539e-06 -3.95692804656168e-08 -1.2239514724143e-25 6.9276588281736e-06 -5.26034776985717e-28 7.04483561981096e-06)
(9.00971004252139e-06 -8.72825129837462e-08 4.36594962816008e-28 8.66297801916214e-06 1.05294687880047e-29 8.83368069671621e-06)
(9.67874076752622e-06 -1.63741884085029e-07 1.5628376125012e-24 9.28818002106457e-06 7.49982743819156e-25 9.4803563920292e-06)
(7.11191228172145e-06 -1.61381484170098e-07 6.21575363304149e-25 6.91151378752664e-06 1.70910977917856e-25 7.01063132366117e-06)
(4.90681776571393e-06 -9.56584244012052e-08 4.13381500743617e-30 4.85345199865699e-06 3.63152657618099e-29 4.87983047693197e-06)
(3.28161040524259e-06 -3.8002972140189e-08 -6.78351689265521e-28 3.27546384119526e-06 2.71458984077512e-26 3.27854229946731e-06)
(2.79195495195072e-06 -1.96502733416292e-08 9.83780791090805e-31 2.79150767256293e-06 -4.9937319542322e-33 2.79169362033274e-06)
(9.16519423175148e-05 -4.69487493418624e-06 1.28167955216932e-27 9.16929869918422e-05 -2.61589607029241e-29 9.1676150334621e-05)
(8.29844653520963e-05 -4.28841707365654e-06 -2.05753405130561e-25 8.32907478272888e-05 6.19099562498611e-25 8.31306856158727e-05)
(4.82150137571519e-05 -1.8543041948354e-06 -4.6686280011663e-22 4.87938061387553e-05 -4.5430235282477e-24 4.85121138803833e-05)
(2.05563233826131e-05 -2.03454904636634e-07 1.1135041129321e-21 2.06264696806444e-05 3.32895623178822e-21 2.05932345846545e-05)
(5.94007569701641e-06 3.96715261932608e-08 2.54914134174587e-22 5.8175808699331e-06 1.35139522643736e-21 5.87992094178395e-06)
(3.21127424426251e-06 2.03148294922346e-08 3.74927338598529e-23 3.12853339208556e-06 -3.11838483731033e-25 3.17030799569013e-06)
(2.84171721942881e-06 1.04923706142388e-08 -8.9300136064672e-25 2.78018033150018e-06 -1.25034994878366e-24 2.81123528094481e-06)
(1.63011401613109e-06 3.73202850225408e-09 -7.11404509801277e-25 1.599684575542e-06 -1.24295780193865e-24 1.61500714636717e-06)
(8.78656511373983e-07 1.39023067947998e-09 -4.26193898894125e-25 8.64641651917004e-07 -4.44460393724628e-25 8.71697680759537e-07)
(5.73450261043438e-07 7.55323569527674e-10 2.7803723714351e-25 5.65439138240702e-07 3.25594768321584e-25 5.69464632720108e-07)
(4.21720404922225e-07 5.35029011228846e-10 2.68700772008135e-25 4.16510720176669e-07 2.72097851340525e-25 4.1912539069105e-07)
(3.6415249269855e-07 4.72193614983954e-10 -2.98195271925196e-25 3.59897664482667e-07 -4.15077126745885e-25 3.62029546567092e-07)
(3.77574525651285e-07 5.15114158944282e-10 -4.21755668176329e-25 3.73174309614754e-07 -4.76176319667839e-25 3.75375645123235e-07)
(4.40965945501624e-07 6.54053591953115e-10 4.19897307863267e-25 4.35496778300027e-07 6.20382008233344e-25 4.38229675759802e-07)
(5.58437448760886e-07 9.41449960674586e-10 -3.94913917522842e-25 5.5060355421061e-07 -5.84326910011488e-25 5.54515316690415e-07)
(7.44603055550052e-07 1.48100274114241e-09 2.20623235945162e-25 7.32338248260634e-07 -1.4234122200167e-26 7.38463908505517e-07)
(1.01688602001274e-06 2.45636219904127e-09 -3.76764887030022e-25 9.97161747054085e-07 2.90441200824231e-26 1.00701617998911e-06)
(1.39012441375946e-06 4.27271632648787e-09 -3.1628336796977e-24 1.35891328769771e-06 -3.62327381127151e-24 1.37451523973444e-06)
(1.88355878463236e-06 7.62463973123268e-09 -1.78741048738963e-24 1.83580257020003e-06 -2.80135011989057e-24 1.85968639082712e-06)
(2.50487434644792e-06 1.3510955908208e-08 6.32269144309292e-25 2.43565716950486e-06 -3.442545203925e-26 2.47028714660797e-06)
(3.23913211946942e-06 2.30766458945546e-08 -2.7011381520612e-24 3.14573726918823e-06 -6.05283832148085e-24 3.19245081724779e-06)
(4.05062004841412e-06 3.73628089504572e-08 -5.565883551499e-24 3.93418311353344e-06 -1.21641308232768e-23 3.99239674599411e-06)
(4.90832526087028e-06 5.65350610784356e-08 -1.14250187969087e-23 4.77425003536989e-06 -1.6265030143519e-23 4.84124549799868e-06)
(5.75777164804934e-06 7.90699737354851e-08 -1.29965636243541e-23 5.61722216708318e-06 -3.79710680317775e-23 5.68738613424664e-06)
(6.47953482486419e-06 1.01546416663644e-07 -2.45623295276849e-24 6.34852452983254e-06 -2.65892497107493e-23 6.4138397329254e-06)
(6.99041490303402e-06 1.21211362426691e-07 -2.46722601015766e-22 6.88441751965425e-06 4.44587041195386e-23 6.93740920979784e-06)
(7.42515692568009e-06 1.42184274914645e-07 -5.56175258253995e-22 7.34729373194859e-06 -1.85208284431787e-21 7.38568085023261e-06)
(8.33223743906901e-06 1.96812559538554e-07 1.54893396526923e-22 8.27194859963403e-06 -2.17816379475271e-21 8.30207822989437e-06)
(1.11314258984825e-05 3.51034355299453e-07 3.88166851135531e-22 1.10697615323137e-05 -3.15247414745893e-23 1.11004790871673e-05)
(1.54093233437161e-05 6.03100363745728e-07 9.58105882511061e-27 1.53327587155007e-05 4.6302952583806e-27 1.53702948918181e-05)
(1.999488805926e-05 9.04704553434852e-07 -7.52753923899787e-22 1.99106642407709e-05 5.54049120642497e-23 1.99520567790987e-05)
(2.48060286886732e-05 1.24884690311622e-06 -1.64463451745507e-21 2.47169810858516e-05 -7.07502661010759e-21 2.47603101690371e-05)
(2.97195844102292e-05 1.62017910068995e-06 1.73316910724133e-22 2.96297051316954e-05 -8.82198124711143e-21 2.96731748039367e-05)
(3.46850076743005e-05 2.01055650882851e-06 1.28794413733635e-21 3.45964066740671e-05 -8.82721860682885e-23 3.46388657075412e-05)
(3.96562221520394e-05 2.41181380721127e-06 8.4538429026375e-26 3.95706051305872e-05 9.65117854705724e-27 3.96112556249138e-05)
(4.46179330389986e-05 2.81901812851037e-06 -3.87736845093545e-26 4.45364175605064e-05 1.55664878240964e-25 4.45746948184881e-05)
(4.95537834442641e-05 3.22751476865572e-06 -3.33684664677331e-37 4.94773098936228e-05 -3.44021205291616e-25 4.95127756751989e-05)
(5.44559903971737e-05 3.63376251927816e-06 2.15186896451214e-21 5.43853585444012e-05 -1.19765803265426e-22 5.44176345200247e-05)
(5.9314672464381e-05 4.03431459957028e-06 4.91682713803251e-21 5.9250653189748e-05 1.86344927505887e-20 5.92793879159589e-05)
(6.41212616324813e-05 4.42606497009334e-06 2.363787764715e-22 6.4064605242057e-05 2.11822587035959e-20 6.40894581362354e-05)
(6.88658028145954e-05 4.80598520345502e-06 -2.75978253586318e-21 6.88172415309279e-05 1.39841126581272e-22 6.8837886895967e-05)
(7.35390922495977e-05 5.17129042614069e-06 -9.56269196039067e-26 7.34993222502107e-05 -1.12189182929183e-26 7.35154555031957e-05)
(7.81331791817771e-05 5.51945782882213e-06 3.92724156279833e-26 7.81028624641115e-05 -3.37719242162213e-25 7.81141992236075e-05)
(8.26426392303346e-05 5.84831032799178e-06 3.35524956577117e-37 8.26224044581309e-05 -1.73418619798987e-27 8.26286781710347e-05)
(8.7064488048256e-05 6.15600167765456e-06 3.5400006857363e-37 8.70549284421948e-05 7.67981678868558e-25 8.70558877978617e-05)
(9.1400041864936e-05 6.44115376244181e-06 -4.69734611401592e-21 9.14016899727393e-05 1.66914122227544e-22 9.13971116585833e-05)
(9.56657274126897e-05 6.70363908481035e-06 -9.70995086208261e-21 9.56790147194441e-05 -3.99057552188233e-20 9.56687337846281e-05)
(9.98278871539281e-05 6.94017512357558e-06 3.0951528480245e-22 9.98531573676545e-05 -4.35635262776473e-20 9.9837059457318e-05)
(0.000103785907205117 7.14311045950532e-06 5.46712129380846e-21 0.00010382337509554 -1.65473391723969e-22 0.000103801408079732)
(0.000107529075912707 7.31141917669884e-06 -2.82691937676091e-26 0.000107578798783589 -7.95258440148597e-25 0.000107550983565814)
(0.000111044046160308 7.4442326536839e-06 -1.27373161149218e-25 0.000111105926000092 -2.61110898721229e-26 0.000111072358506644)
(0.000114320046367017 7.54119390501718e-06 -6.77816716479231e-21 0.000114393834784286 1.37626275435604e-22 0.000114354681955627)
(0.000117348996563988 7.60243355645214e-06 -1.24314204209939e-20 0.000117434313643474 -5.67062519025782e-20 0.000117389803283697)
(0.000120124977726367 7.62849932944153e-06 1.82175872265619e-21 0.000120221329071783 -6.02031688659319e-20 0.000120171741117606)
(0.000122643898508242 7.62030230708751e-06 7.47449582735083e-21 0.000122750690291208 -1.13823005040885e-22 0.000122696348698402)
(0.000124903115371577 7.5790621714105e-06 1.45452974514353e-36 0.000125019665274214 -1.90790271973039e-25 0.000124960932839976)
(0.000126901509153541 7.50628331263557e-06 1.32266236710156e-26 0.000127027059249694 -1.0523245374062e-25 0.000126964330571531)
(0.000128639236455549 7.40370837171893e-06 -2.04870461384385e-27 0.000128772963099101 3.09088991363622e-25 0.000128706660131248)
(0.000130117938168642 7.27330047269943e-06 -2.51220451505732e-26 0.00013025896517195 4.92740886140134e-26 0.000130189530447343)
(0.000131340635736703 7.11720156497365e-06 1.37553257670982e-26 0.000131488048318426 -5.46713978881757e-26 0.000131415938298841)
(0.000132311656042323 6.93769384009496e-06 0 0.00013246451522859 0 0.000132390193536801)
(0.000133036524018249 6.73715867804866e-06 0 0.000133193882542331 0 0.000133117812067799)
(0.000133521500842657 6.51802046946814e-06 -1.88372707795898e-36 0.000133682415504697 3.68810988802002e-25 0.000133605053286866)
(0.00013377343151968 6.28271376291499e-06 -8.1203792103268e-37 0.000133936975480391 1.32653608218151e-25 0.000133858766041727)
(0.000133798934187984 6.03362661543155e-06 1.88915777299168e-36 0.000133964198599273 -2.45249699064948e-25 0.000133885574909964)
(0.000133604812089742 5.7731132831747e-06 0 0.00013377090982459 -7.96132349316761e-25 0.000133692290155545)
(0.000133197627470387 5.50346952758791e-06 -2.02235322379264e-39 0.000133363684290897 5.36242048115121e-25 0.000133285478354006)
(0.000132585352573321 5.22699297075625e-06 0 0.000132750516894016 0 0.000132673121145337)
(0.000131777857055215 4.94595836101267e-06 -7.4440730868161e-26 0.000131941322849732 -1.70039582875235e-27 0.000131865108973972)
(0.000130785918873517 4.66254374664429e-06 4.38374490860037e-26 0.000130946938611536 -2.43852464465913e-26 0.000130872248700685)
(0.000129621069585094 4.37880047557255e-06 2.56383418047585e-25 0.000129778969352599 1.20632165038254e-24 0.000129706107785604)
(0.000128294185254402 4.09659018412e-06 1.27349638552331e-20 0.000128448366548397 3.87931521784259e-22 0.000128377600483588)
(0.000126815191854385 3.81758251153642e-06 2.88053995208698e-20 0.000126965130621543 9.85339239596657e-20 0.000126896689990576)
(0.000125192133670108 3.54324028116492e-06 6.3046022217484e-21 0.000125337371137111 1.95578742863921e-19 0.000125271453984191)
(0.000123430815273712 3.27483849393695e-06 -2.24178689835824e-20 0.000123570945467585 9.67251986048646e-20 0.000123507723749022)
(0.000121534221945296 3.0134846541725e-06 -1.26544814453915e-20 0.000121668871504626 -4.81653157741795e-22 0.000121608501108778)
(0.000119503206108582 2.76017861686286e-06 0 0.000119632015548023 -1.24253797335137e-24 0.000119574645542226)
(0.000117338371729405 2.51587254480386e-06 -1.58501039241132e-25 0.000117460996675929 2.22038348597536e-24 0.000117406769571601)
(0.000115040917031809 2.28147147234818e-06 1.30254446667137e-20 0.00011515703942433 6.25715216045562e-22 0.000115106083568237)
(0.000112610680965334 2.05779239455643e-06 1.49127551015536e-20 0.00011272000896582 9.71210029282864e-20 0.000112672442979923)
(0.000110046198536359 1.84556153898432e-06 -1.07754212369156e-20 0.000110148467700563 9.40053458822972e-20 0.000110104391888074)
(0.000107338740845575 1.64537739896838e-06 -1.24885700906368e-20 0.00010743367925616 -6.6557176499677e-22 0.00010739320656803)
(0.000104476033179413 1.4577857540503e-06 -1.46786784408957e-25 0.000104563348274841 -1.07132913789018e-24 0.000104526585744834)
(0.000101429175814786 1.28328137509867e-06 -3.01845712355175e-25 0.000101508471643274 2.05870366611108e-24 0.000101475602268568)
(9.81701461154077e-05 1.1224447895e-06 2.56577518835385e-25 9.82409405994651e-05 -3.13947100636941e-24 9.82121441544463e-05)
(9.46379891520642e-05 9.75963662876462e-07 6.06905177047405e-25 9.46995702208519e-05 2.1086113343993e-24 9.46752074345658e-05)
(9.07892809714192e-05 8.44645169849573e-07 -8.02472504217463e-25 9.08408327090708e-05 -1.88685673547591e-24 9.08212002779415e-05)
(8.65049654766334e-05 7.29588926513064e-07 -5.02158874865938e-26 8.65452563994067e-05 -6.1780547977424e-25 8.65310161301296e-05)
(8.17457940665555e-05 6.31859824907749e-07 5.29879208810026e-25 8.17737342259596e-05 2.29495591842314e-24 8.1765239839853e-05)
(7.6325599392547e-05 5.5281531876168e-07 -2.3760464462857e-25 7.63397340070643e-05 1.65037552091262e-24 7.63377848603042e-05)
(7.02923200365492e-05 4.92816101691611e-07 8.42362167930332e-39 7.02936405580394e-05 -3.08526924982089e-24 7.02978026349231e-05)
(6.33989298888092e-05 4.53261877480268e-07 2.07757294424696e-25 6.33849122865787e-05 1.41305544994392e-24 6.33951595591233e-05)
(5.93254534699187e-05 4.61665048331966e-07 1.61037125171408e-24 5.93768192778382e-05 -5.46274776564166e-23 5.93538691565251e-05)
(6.26082498755924e-05 4.6820363531232e-07 -1.89023624295589e-26 6.28608391315048e-05 -1.48357979692948e-25 6.27332256686984e-05)
(6.81096828892513e-05 4.23554212065759e-07 -3.71744129375859e-22 6.8534569549287e-05 1.70815160511018e-21 6.83190567282578e-05)
(7.55635789912526e-05 3.34850462870407e-07 -1.15066555614268e-22 7.61036902936325e-05 -1.04752671687832e-23 7.58261679555334e-05)
(8.32009323622491e-05 1.9126303968529e-07 4.76041458917833e-23 8.37152049558378e-05 1.84456588832597e-22 8.34478920972486e-05)
(9.12594829885415e-05 1.68960097006519e-08 -5.20285933177949e-22 9.15684472927567e-05 1.65445148621059e-21 9.14004155435769e-05)
(9.98550547762646e-05 -1.73178656908366e-07 -1.55161734884659e-21 9.97370037958071e-05 2.5873950053124e-21 9.97810765109754e-05)
(0.000109738643836256 -3.69440372615675e-07 -1.25248326471692e-22 0.000108915099620318 -1.14505697667629e-23 0.000109311295167855)
(0.000119363363873975 -5.55184933247681e-07 -5.01253763761529e-22 0.000117545128984083 7.41587352187848e-22 0.000118442058895035)
(0.000128229777332695 -7.26134967369513e-07 -6.1730855353267e-22 0.000125160067094788 7.03657008104903e-22 0.000126688717370426)
(0.00013528403353503 -8.79718322614827e-07 -5.70322023274553e-22 0.000130794720657661 8.24339473043377e-22 0.0001330427640005)
(0.000139820734853856 -1.02161826367715e-06 -3.87581194586001e-22 0.000133855210361098 6.47977452484202e-22 0.000136851579849824)
(0.000139488103968879 -1.13089164100603e-06 1.4580040881865e-21 0.000132282150838444 -2.05533337634378e-21 0.000135909417276757)
(0.000136516689850338 -1.19164957833875e-06 -1.1598959501176e-22 0.00012837490920069 1.12218055803365e-22 0.000132476489530934)
(0.000133036791736625 -1.20832393299961e-06 -2.52440930890342e-22 0.000124148630794389 5.99772306332011e-22 0.000128628818080467)
(0.000130096508840932 -1.19275467105519e-06 -3.10409906111847e-22 0.0001205381 4.01486183487527e-22 0.000125359684678573)
(0.000129176211122445 -1.1662208474328e-06 -3.64679362997453e-22 0.000118832109514205 4.38033697467387e-22 0.000124054250478393)
(0.00013250122956478 -1.15668413382396e-06 5.31385311221023e-22 0.000120958189630743 -7.30011354882931e-22 0.000126793511264457)