/*--------------------------------*- C++ -*----------------------------------*\
  =========                 |
  \\      /  F ield         | OpenFOAM: The Open Source CFD Toolbox
   \\    /   O peration     | Website:  https://openfoam.org
    \\  /    A nd           | Version:  7
     \\/     M anipulation  |
\*---------------------------------------------------------------------------*/
FoamFile
{
    version     2.0;
    format      ascii;
    class       volVectorField;
    location    "20000";
    object      U;
}
// * * * * * * * * * * * * * * * * * * * * * * * * * * * * * * * * * * * * * //

dimensions      [0 1 -1 0 0 0 0];

internalField   nonuniform List<vector> 
15600
(
(0.0305196018953855 -7.79577166013889e-05 0)
(0.0374800550543871 -0.00100617025394763 2.51454687255884e-20)
(0.02264121565748 -0.00288011319533387 -1.2223720243353e-19)
(-0.0060908458468958 0.00107292654006908 -6.18847420002534e-19)
(-0.0173906443969169 0.00755465107755558 0)
(-0.0147602753345482 0.00878425164182933 1.88170450337256e-18)
(-0.0105538626843965 0.0074156361381167 -2.02728838527098e-18)
(-0.00818048229386143 0.00630238222679568 0)
(-0.00634226212918531 0.00515417647751949 -2.34172402748949e-18)
(-0.00512693922177597 0.00423217312598242 2.51829632681575e-18)
(-0.00415618256277356 0.00340654836793257 2.70419811475617e-18)
(-0.00365387884243289 0.00295004460308714 1.40235249679039e-21)
(-0.00338741555621383 0.00270564588670332 0)
(-0.0033783364801496 0.0026770662390882 -3.16227332220813e-21)
(-0.00364103003257214 0.00286367263724073 -3.38003978237621e-18)
(-0.0041594331604306 0.00324525299688073 0)
(-0.00482135549372083 0.0037186589626258 0)
(-0.00552664195529586 0.00415647392659849 -7.70809557583896e-18)
(-0.00622958539583092 0.00448931557827686 -4.05548486469823e-18)
(-0.00681986276366412 0.00461852567764203 8.2919821926697e-21)
(-0.00717429005367624 0.00445985017046268 -4.50630635189706e-18)
(-0.00729358557712493 0.00403643535992618 0)
(-0.00724499605894915 0.00345951426501705 9.82536860847831e-21)
(-0.00696056096616804 0.00277121445917206 -5.24376118709191e-18)
(-0.00645059371944631 0.00203534121876846 -1.04196626643568e-20)
(-0.00592502884250954 0.00135127849839953 5.58296437809936e-18)
(-0.00509933249050628 0.000683507376603298 -4.11973930294809e-16)
(-0.00613063045997449 0.000273345117409342 -4.17571132295422e-16)
(-0.0104483684048714 7.26588616490252e-05 1.69433472499441e-22)
(-0.0149048331652343 7.5014052074186e-05 -3.92479060272349e-32)
(-0.0185978384055965 8.49126695865779e-05 0)
(-0.021929025714885 9.00119768557724e-05 -4.65208776703269e-16)
(-0.0247751005069824 9.45249478744905e-05 -4.75923562160025e-16)
(-0.027239909610313 9.73402229306413e-05 0)
(-0.0293609326955669 9.94673468631142e-05 0)
(-0.0311972422161469 0.000100736874556635 5.80532727131308e-21)
(-0.0327873823892371 0.000101357715187306 -1.17342601429925e-20)
(-0.0341657051248526 0.000101304664668651 1.20215745270039e-20)
(-0.0353568967496549 0.000100627572305056 5.1085665734643e-16)
(-0.0363804665597685 9.93265831607321e-05 5.30543126190436e-16)
(-0.0372510179734902 9.74272197470288e-05 -6.42467133862284e-21)
(-0.0379802921179505 9.49595967921577e-05 0)
(-0.0385777517122946 9.19577309318214e-05 0)
(-0.0390511461698436 8.84572297224881e-05 -7.24490529715835e-21)
(-0.0394068694741046 8.44946155917086e-05 7.24173023673858e-21)
(-0.0396503902334015 8.01019749818747e-05 7.70455945573342e-21)
(-0.039786676941119 7.53013066844546e-05 -6.7503980380957e-16)
(-0.0398203919538221 7.01235390038103e-05 -7.00626106415936e-16)
(-0.0397558745850857 6.46185197802583e-05 8.31770368008174e-21)
(-0.0395976324682495 5.88399600764653e-05 -4.22226565293186e-21)
(-0.0393503786443441 5.28380920292321e-05 -4.48049283155388e-21)
(-0.0390190886564641 4.66622803764179e-05 4.48212561278871e-21)
(-0.0386088865447267 4.03582655555943e-05 -7.78346982792458e-16)
(-0.038124947091199 3.39689051246024e-05 -8.03569958209734e-16)
(-0.0375724307002113 2.75327398140015e-05 0)
(-0.0369564638208999 2.10873244563827e-05 0)
(-0.0362821320991729 1.46659764331798e-05 -1.32316273846735e-21)
(-0.0355544693991181 8.30118268812624e-06 1.32440068522881e-21)
(-0.0347784756166757 2.02221205927628e-06 6.96007294117663e-22)
(-0.0339590847176619 -4.14428725683359e-06 -6.96753976900243e-22)
(-0.0331011576940781 -1.01741747361866e-05 0)
(-0.0322094397160497 -1.60476593939081e-05 0)
(-0.0312885364367248 -2.17465408640707e-05 1.52869378421888e-21)
(-0.0303428705035998 -2.72587721797428e-05 1.59411030305062e-21)
(-0.0293766879350634 -3.25711791256792e-05 -3.12882379479716e-21)
(-0.0283940711056279 -3.76773537814151e-05 0)
(-0.0273989927109917 -4.25668809923302e-05 0)
(-0.0263954633962975 -4.72307724354251e-05 0)
(-0.0253873981722123 -5.16661960908132e-05 0)
(-0.0243785470901411 -5.58711161606732e-05 0)
(-0.0233724194865792 -5.98501212504529e-05 0)
(-0.0223722107288628 -6.36078421975602e-05 0)
(-0.0213808147144271 -6.71523831673131e-05 1.22706559274725e-15)
(-0.0204008245440783 -7.04910442176475e-05 2.48648274040496e-15)
(-0.0194345964368386 -7.36323484310402e-05 1.25831819372588e-15)
(-0.018484317362799 -7.65832022126922e-05 -1.54952913604241e-20)
(-0.0175521819570379 -7.93473707691034e-05 -2.04825113663925e-22)
(-0.0166405266623039 -8.19270343255185e-05 3.16828114010783e-20)
(-0.0157517044009584 -8.4331522515268e-05 -1.59620544885967e-20)
(-0.0148881609341004 -8.65624155679429e-05 1.36236071939393e-15)
(-0.0140521765108095 -8.86407171251956e-05 1.36634893559462e-15)
(-0.0132463670429207 -9.05538022431366e-05 0)
(-0.0124731041922064 -9.23436158762594e-05 -1.69848805713554e-20)
(-0.0117362569497897 -9.39471564674522e-05 3.41840461905806e-20)
(-0.0110392010870934 -9.54661819353056e-05 -5.19433040168378e-20)
(-0.0103896084934479 -9.67127500893681e-05 3.47786283883167e-20)
(-0.00979295773347553 -9.79636927733251e-05 -3.54849317997442e-20)
(-0.00926512238128944 -9.8735254206013e-05 3.55142672669507e-20)
(-0.00881575044498052 -9.97014518949895e-05 0)
(-0.00847286675879314 -9.98968493740219e-05 3.65252884061469e-20)
(-0.00825543006518772 -0.000101390516317906 -7.33929795655882e-20)
(-0.00810643952213505 -0.000101757120228556 3.68625084754499e-20)
(-0.00830378654072389 -0.000363751759882885 0)
(-0.0083487342155972 -0.00105584029884175 0)
(-0.00812289250504815 -0.00167414549470444 1.91389574046833e-17)
(-0.00767218792879255 -0.00217174727746517 3.65102362879793e-20)
(-0.00679805922232409 -0.00240352579854234 -1.85044721660145e-17)
(-0.00558224089004973 -0.00231968217968393 3.58996600396083e-17)
(-0.00396256314535127 -0.00181735537068663 3.48077115169686e-17)
(-0.00181932346841384 -0.000763804368121725 0)
(0.000873024220166966 0.000899070531661164 1.61897083978624e-17)
(0.00409576201601056 0.00312507875984137 1.54944583765448e-17)
(0.00777041172117411 0.00580788122643218 0)
(0.0118416109670272 0.00881884714995882 1.43217751078701e-17)
(0.0159099123439564 0.0118184695815111 -1.37398499277786e-17)
(0.0196576133587117 0.0146493091731526 -1.31207160078894e-17)
(0.0233095322357665 0.0175261067622745 0)
(0.0270520986117462 0.020617172417029 1.16979084525054e-17)
(0.0312203738946533 0.024190424593393 -5.22863088042559e-21)
(0.0362689340221801 0.0286262458059809 -9.96849868184991e-18)
(0.0437520961961634 0.0348169524595417 -1.42207181114197e-20)
(0.0545864076138384 0.0425756193941406 1.93278589884536e-20)
(0.068935788877906 0.051049521455627 -6.51277896400955e-18)
(0.0892147288799209 0.0600828235295188 0)
(0.116068488939138 0.0666232337285365 -1.10222192540444e-22)
(0.146501113184264 0.0634319755098211 -2.40340306852542e-20)
(0.143836307064226 0.0380479534524121 -4.0827568069657e-22)
(0.0990208414926771 0.0122896871924237 -1.37909829140107e-22)
(0.0491853563950083 0.00148209414108323 1.40539409589397e-22)
(0.0268745524244464 -3.63831851028699e-05 0)
(0.108418410226148 -0.00039799268598183 8.94920586759162e-24)
(0.120793118396346 -0.00278185944672223 -8.971018841497e-24)
(0.0823601379624848 -0.00795109284652395 1.77783669621223e-19)
(0.00153884389673905 0.00149106188959907 6.48095990963765e-16)
(-0.041665856659063 0.0202588069103583 8.35639566578397e-16)
(-0.0397708696181074 0.0246430941400876 -2.85855629083499e-18)
(-0.0292426485238353 0.0211625159233547 -9.68746777687476e-23)
(-0.0229079711772534 0.0181645673190202 -3.33421437940176e-18)
(-0.0180270693743199 0.0150033085563786 -4.56909773002533e-22)
(-0.0147508456629632 0.0124073264788937 9.29009654941733e-22)
(-0.0121859322972981 0.0100874856561424 0)
(-0.0108479182388062 0.00879808171183859 -4.43462512996947e-18)
(-0.0101984376878272 0.00813584171045298 0)
(-0.0102723643380157 0.00810682761251601 -4.84472814504481e-21)
(-0.0111019869827521 0.00870231294195533 5.17058883408701e-18)
(-0.0126190583198058 0.0098480970702517 -5.37696168035799e-18)
(-0.0145218158801233 0.0112448447213342 0)
(-0.0165469085548353 0.012528117705742 5.82874045180987e-18)
(-0.0185623080393067 0.0134884077411823 6.09642088827061e-18)
(-0.0202975220159448 0.013849386687052 0)
(-0.021482225234326 0.0133951696021286 0)
(-0.0221300858436272 0.0121944276302628 -7.10107080455097e-18)
(-0.02237849527798 0.010536091593435 0)
(-0.0220788640062105 0.00854422943844071 7.77721617648946e-18)
(-0.0212788763528218 0.00640432661017374 -8.0519853649163e-18)
(-0.0204350002527361 0.00435894832087227 -4.14682662359258e-18)
(-0.0195704351913227 0.0025013713806976 6.20911625066599e-16)
(-0.0238207150411365 0.0014490925094722 5.95053519452368e-16)
(-0.035686653774962 0.000907753980600131 -2.75515611190212e-22)
(-0.0475378999387068 0.00080941514308996 -1.50198509151616e-20)
(-0.0572586116737353 0.000711040703966658 0)
(-0.0657726850747984 0.000615585619495925 6.40932717922987e-16)
(-0.0729398254307814 0.000529748349431725 6.31334659120484e-16)
(-0.0790529666217548 0.000455446168259432 1.49095773670763e-20)
(-0.0842488253529538 0.00039297869958048 -1.47656952462228e-20)
(-0.0886890800786414 0.000340048391088868 0)
(-0.0924817595598268 0.000294913022669413 0)
(-0.0957176786020996 0.000255713018260434 1.14060405617064e-31)
(-0.0984624680131981 0.000221087152160513 -6.71068001214182e-16)
(-0.10076748195568 0.000189921012162769 -6.80001948905115e-16)
(-0.102671724602 0.000161455175297387 -8.55143699252811e-21)
(-0.104206655100518 0.000135158147543034 8.52329043087953e-21)
(-0.105397810928774 0.000110630269185158 0)
(-0.106266264794222 8.75659529306515e-05 0)
(-0.106829618185343 6.57262813074544e-05 -6.86388369368902e-32)
(-0.107103169123695 4.49292026159269e-05 0)
(-0.107101126859069 2.505782126671e-05 8.7049856555581e-16)
(-0.106837135796258 6.06367678307993e-06 8.91073716861998e-16)
(-0.1063236502932 -1.2053036566862e-05 0)
(-0.105573901682071 -2.92677828875091e-05 -5.56688737773581e-21)
(-0.104601238838325 -4.55458587654687e-05 1.1305925288026e-20)
(-0.103419405763427 -6.08549375210966e-05 1.67384333122403e-22)
(-0.102042287311349 -7.51839250845289e-05 1.00158242738579e-15)
(-0.100483710622097 -8.85345897566899e-05 1.02807041045656e-15)
(-0.0987573332680323 -0.000100919587817602 0)
(-0.0968766119112446 -0.00011234872448087 0)
(-0.0948548020904304 -0.000122837993927308 -1.96354072092686e-31)
(-0.092704945527734 -0.000132397649789092 -1.75663215180377e-21)
(-0.0904399013772703 -0.000141041333705487 1.7629080622037e-21)
(-0.0880722848772629 -0.000148785055336673 0)
(-0.0856144433639476 -0.000155647713342085 0)
(-0.0830783732557577 -0.000161657335976244 0)
(-0.0804756651478754 -0.00016684220255721 0)
(-0.0778174404908319 -0.000171242914359951 2.37262424636648e-31)
(-0.0751143744264609 -0.000174886133275931 0)
(-0.0723767652695356 -0.000177806447670534 0)
(-0.0696146756979726 -0.000180007397473693 0)
(-0.0668381685807943 -0.000181491940505196 0)
(-0.0640570162990153 -0.000182287824491024 0)
(-0.0612805407863994 -0.000182427103423471 9.48320405565521e-21)
(-0.0585174555295282 -0.000181965311340082 -9.53646392848688e-21)
(-0.0557757315007133 -0.000180955445633501 -1.97993277498974e-20)
(-0.053062639407433 -0.000179456047288772 -1.66557086067236e-15)
(-0.050384781886474 -0.000177514713158707 -3.41104596859801e-15)
(-0.0477482632024142 -0.000175171016062985 -1.74645893337074e-15)
(-0.0451588932335895 -0.000172441398519341 0)
(-0.0426225885872173 -0.000169312897191229 0)
(-0.040145606864368 -0.000165763469642007 0)
(-0.0377343070011617 -0.000161796619806325 2.26556185578236e-20)
(-0.0353952726874205 -0.000157392245944612 -1.89899214921486e-15)
(-0.0331349216918845 -0.000152584759192499 -1.95155532650758e-15)
(-0.0309605127509413 -0.000147280168844451 -2.35680648573129e-20)
(-0.0288793246906429 -0.000141519891722135 0)
(-0.0269021564577019 -0.000134948799327173 0)
(-0.0250399033345566 -0.000127668733557974 4.99246778442543e-20)
(-0.023313251091051 -0.000118738833241684 -5.01648233339775e-20)
(-0.0217402627533639 -0.000108611704135903 -5.13738195300722e-20)
(-0.020362913195662 -9.50178824032283e-05 1.03679608193961e-19)
(-0.0192125271825376 -7.95088336478913e-05 -5.22937828023866e-20)
(-0.01836565063177 -5.80070707016369e-05 0)
(-0.0178715933694902 -3.7829880292209e-05 0)
(-0.0177102906321873 -9.83299820506672e-06 0)
(-0.018370948212895 -0.000636372114767728 -5.51695571868e-20)
(-0.0183651385724182 -0.0023650730741511 1.10427444221894e-19)
(-0.0174886414936664 -0.00385154181408168 -5.40505874649329e-20)
(-0.0159253117570005 -0.00498067076373422 -1.45563082997073e-21)
(-0.0132896610397957 -0.00536754241015157 2.72645370514788e-17)
(-0.00978240055857829 -0.00487926125465175 -2.66524606492111e-17)
(-0.00526906474536948 -0.00325214727938525 -2.59579705630811e-17)
(0.000511229805620837 -0.000157580412258842 0)
(0.00756247590789518 0.00453027407889492 0)
(0.015831303462928 0.0106772093973244 0)
(0.0251406882568319 0.0180071233044016 2.17549114250332e-17)
(0.035373061872508 0.0261874943434014 0)
(0.045682123671463 0.034399794204844 8.31670275032668e-21)
(0.0553946195203539 0.0422760231795394 1.8918550437526e-17)
(0.0649030739532891 0.0503191016766854 1.79199500308818e-17)
(0.0746295262727379 0.0589701457653429 -1.68482820860098e-17)
(0.085338877692823 0.0689209873611838 -7.50168263458042e-21)
(0.0980892113702085 0.0811452821189412 -1.42460409964257e-17)
(0.116284929456751 0.0977602547495294 -1.27495756217076e-17)
(0.142309095616836 0.118239524862864 1.10375769421609e-17)
(0.17709845599713 0.140363427939475 9.08551559353834e-18)
(0.225620936055588 0.163166222021273 2.35479120324675e-22)
(0.28969397484027 0.178817863615856 0)
(0.364751707643212 0.170519565615959 -4.62743829292641e-20)
(0.379937169743393 0.109251341156522 1.13233478147144e-20)
(0.299000887608375 0.0414239923473258 0)
(0.179779009727236 0.00777167801391543 -1.64422653910437e-19)
(0.111878006324911 0.000698216228891626 0)
(0.206248297162127 -0.000385475498567304 0)
(0.214856659836074 -0.00429578618180738 0)
(0.157283519280403 -0.0130051850725835 -3.32832764990648e-19)
(0.0295948676432335 -0.00195565784959649 -6.24846004369572e-16)
(-0.0555425619988768 0.0286780377021238 -8.42619820489512e-16)
(-0.061089870571821 0.0376649236195305 2.9029010572654e-18)
(-0.0463018161933183 0.0330313577338555 0)
(-0.0366749623484927 0.0287023818810274 3.41346218394861e-18)
(-0.0292113995360468 0.0240166544786451 0)
(-0.0241197579274763 0.0200528923943069 0)
(-0.0201726494359708 0.0165301637166736 0)
(-0.0180991898813692 0.0145775988223978 4.57014580100673e-18)
(-0.0171625280122152 0.0136432867913841 4.839274631578e-18)
(-0.0173885628276759 0.0137313657142278 -5.07656189850096e-18)
(-0.0188162211079702 0.0148138603856886 3.30438913601999e-23)
(-0.0213093629780355 0.0167402595616499 -5.9433368144726e-21)
(-0.0244001924080931 0.0190272410148588 0)
(-0.0276869556974189 0.0211019873687483 0)
(-0.0309561698030592 0.0226212018823304 0)
(-0.0338256351057047 0.0231713127716145 -1.26043448825107e-20)
(-0.0359580329432021 0.0224652192419503 1.30910867634943e-20)
(-0.0374048223625043 0.020616002571128 7.06578972155117e-18)
(-0.0383489804655817 0.0180260525933042 7.37446562297903e-18)
(-0.0386163102324905 0.0148851577421043 7.67076927784813e-18)
(-0.0383023464963617 0.0114630032660437 7.91269446544452e-18)
(-0.0380438170132748 0.00810932873332003 1.57759072463202e-20)
(-0.0387185095708635 0.00515971879077892 -2.05542809893379e-18)
(-0.0470171582879474 0.00338923933622214 -4.64277989268524e-19)
(-0.0651191037717498 0.00246357202703347 0)
(-0.0826363398141255 0.00218681308726077 0)
(-0.0967676422845575 0.00187838832553943 0)
(-0.108795651658043 0.00160253069735477 -1.31709013939708e-20)
(-0.118741233051847 0.00136063443602679 1.28871082517054e-20)
(-0.127071541769298 0.00115679034042987 0)
(-0.134033875332821 0.000986593291837219 0)
(-0.13987583081024 0.000843206034733883 0)
(-0.144764694043022 0.000720831394590696 0)
(-0.148835717161514 0.000614388538267373 0)
(-0.152187245890635 0.00052008470815643 0)
(-0.154896036280511 0.000435018948593998 0)
(-0.157021228791555 0.000357189317995612 0)
(-0.158610822438785 0.000285193629876662 0)
(-0.159704124183082 0.000217967987611402 7.52141326228918e-21)
(-0.160333844152105 0.000154674487143459 -7.47489749906831e-21)
(-0.160527535754047 9.46435393334555e-05 -7.91164519917715e-21)
(-0.160309203351612 3.74770294080371e-05 7.87359719890202e-21)
(-0.159701021638618 -1.68429648916976e-05 0)
(-0.158726990891926 -6.84117792999388e-05 0)
(-0.157408933546258 -0.000117352536708841 -8.78276445391304e-21)
(-0.15576777390047 -0.000163620244030385 8.75642872224248e-21)
(-0.153824406767646 -0.000207146604183429 -4.63429959161691e-21)
(-0.151599791429903 -0.00024787430762244 4.62747758186303e-21)
(-0.149114661935774 -0.000285795622908458 0)
(-0.146389332685211 -0.000320931458751111 0)
(-0.143443613715879 -0.000353323225541085 0)
(-0.140296811139841 -0.000383007300101022 2.65711810004805e-21)
(-0.13696775136411 -0.000410030441147047 6.8596943811297e-23)
(-0.133474793876343 -0.000434429326172453 -2.73748056058035e-21)
(-0.12983587106116 -0.000456248623354975 0)
(-0.126068433107136 -0.000475540199544068 0)
(-0.122189426275824 -0.000492364900025793 0)
(-0.118215211502111 -0.0005068032665496 0)
(-0.114161520183332 -0.000518938382283032 -3.20657024254683e-21)
(-0.110043412078682 -0.000528873305379776 -6.68236434722556e-23)
(-0.10587534387856 -0.000536680912120727 -6.6344048141654e-23)
(-0.101671282404444 -0.000542439142113408 1.03274314211163e-20)
(-0.0974449035224365 -0.000546165033363555 -6.97560361063174e-21)
(-0.0932097855642922 -0.000547884457893432 0)
(-0.0889790471942906 -0.000547680765314979 0)
(-0.0847651719734388 -0.00054565354508846 0)
(-0.0805798289847119 -0.000541950082981757 -1.56807114329694e-20)
(-0.0764337612978617 -0.000536712016260807 -2.48395804557078e-22)
(-0.0723368576221735 -0.000530085708901092 1.61965206248998e-20)
(-0.0682982389932196 -0.000522187540067562 0)
(-0.0643265039432483 -0.000513103577007636 0)
(-0.0604300388147547 -0.000502857619709447 -1.7614823289407e-20)
(-0.0566175130063621 -0.000491407435679859 1.77788919085043e-20)
(-0.0528981035594299 -0.000478698260767521 0)
(-0.0492812099645415 -0.000464725405380479 1.88228351604452e-20)
(-0.0457766399610524 -0.000449438922954262 -3.8240101970664e-20)
(-0.0423942446646277 -0.000432866103593366 1.94237880007371e-20)
(-0.0391452823105476 -0.000414767566091718 0)
(-0.0360416173468872 -0.000395079797294002 0)
(-0.03310027520901 -0.000372956129063818 0)
(-0.0303393938634401 -0.000348253712943879 0)
(-0.0277908621002817 -0.000318859832458622 0)
(-0.0254847430740131 -0.000284947071535371 0)
(-0.0234846976062479 -0.000241632335068364 4.54162408891269e-20)
(-0.0218422595060271 -0.000190729345646256 -4.59615531061119e-20)
(-0.0206753074679021 -0.000123888847775703 0)
(-0.0200663559947592 -5.27895464587238e-05 0)
(-0.0200946954668332 4.01325819743786e-05 0)
(-0.0212049616543235 -0.000669279116355561 1.59955624302664e-18)
(-0.0209774311848103 -0.00276443860201057 0)
(-0.0193398395236108 -0.00441918517836903 -2.53263779653192e-17)
(-0.0166375183525673 -0.00551020175569806 4.77469257896201e-20)
(-0.0124663563113582 -0.00550064589817116 -2.44112607463053e-17)
(-0.00707401543606433 -0.00421595886792412 0)
(-0.000279163756842055 -0.00130262838680855 -2.31072690083529e-17)
(0.00828562079397932 0.00365856351366093 0)
(0.0186069955987247 0.0108066778270269 0)
(0.0306249788877189 0.0199478867586355 0)
(0.0441143733968818 0.0307178994399 -1.90701858174696e-17)
(0.0589241703146645 0.0426685780658883 5.33370948414293e-20)
(0.074010573195689 0.0548007547848177 3.50242314726048e-17)
(0.0885251935234816 0.0666746149653968 -1.68166346534054e-17)
(0.102866705180475 0.0788888815466551 -1.60868297044899e-17)
(0.117584570360011 0.0920358469856183 0)
(0.133705034187137 0.107034106776272 -1.42131661439966e-17)
(0.152681412404563 0.125167526707441 1.30407791706871e-17)
(0.17893420005081 0.148944808463631 -2.70653158262255e-21)
(0.215865745414033 0.17752760036654 -9.92214272571149e-18)
(0.265008246560342 0.207799375163935 -2.18718256745246e-22)
(0.332060011640086 0.237444834440053 -5.85203679336623e-18)
(0.418868224890767 0.255679592085437 3.30526694898477e-18)
(0.520730659580588 0.242044299924891 -5.58400655103133e-19)
(0.561688216294008 0.164048918666268 1.18525031864784e-18)
(0.484911808399252 0.0715699677228372 1.52639715646907e-22)
(0.333465580220202 0.0178001151773727 2.85622607287703e-19)
(0.227770522223265 0.00293922527888674 5.14000781559747e-23)
(0.31815947003143 0.000446446949858048 0)
(0.3158136809731 -0.00519631742196155 0)
(0.24422642705287 -0.0175958775851891 1.45470646343866e-19)
(0.0780860610871336 -0.00835982755844953 0)
(-0.0567550818871322 0.032753780413538 -2.47340304990321e-18)
(-0.0778728446341857 0.0479076573430961 -2.95930830894836e-18)
(-0.0613355694898493 0.0430220815534013 -3.16299435118762e-18)
(-0.0492266653285784 0.0379130536842407 3.28253116946963e-22)
(-0.0397245153339141 0.0321834500194644 4.79070598610078e-22)
(-0.0331223544381588 0.0271657444589525 -2.97576963150695e-21)
(-0.0280441873745785 0.0227216758874267 2.11894836347891e-21)
(-0.0253647258260721 0.0202783225876132 0)
(-0.0242527462912911 0.0192155518211736 -2.86429506632882e-22)
(-0.0247082789602122 0.0195335242763811 -2.11952940071861e-22)
(-0.0267626740137166 0.0211723814544103 5.2876790967236e-21)
(-0.0301975475514114 0.0238859754658826 5.56802249354325e-18)
(-0.0344025581196909 0.0270203077894434 -5.57813519167387e-21)
(-0.0388652258073328 0.0298210164735398 0)
(-0.0433033949870895 0.0318254122309055 0)
(-0.047278292654795 0.03252688217768 0)
(-0.0504581360293453 0.0316168752216253 6.57388272038549e-18)
(-0.0529518608859664 0.0292443312877627 6.80657691441809e-18)
(-0.0549743307567945 0.0258752780161065 -7.03413556048353e-18)
(-0.0563726180074651 0.0217473432519163 -1.43327822060681e-21)
(-0.0573012558406897 0.0171819784041305 -3.68854567628441e-18)
(-0.0585876682528384 0.0126338273763948 0)
(-0.0619709867587261 0.00867237020480548 -1.83353069090339e-18)
(-0.0742483019576744 0.00604140146121295 4.23751277700853e-19)
(-0.0964626809912086 0.00464500384707016 -1.21993200893387e-20)
(-0.117046449422356 0.00408076321915177 -2.63222984063472e-23)
(-0.133132177505886 0.00343756294644769 1.10545802521109e-20)
(-0.146326403248547 0.00289016571196202 -1.07855741798519e-20)
(-0.156918335936102 0.0024217094609727 -1.51095129863224e-22)
(-0.165534383201772 0.00203425412289098 -1.83337592450914e-22)
(-0.172524167702679 0.00171294468509609 1.00703251129293e-20)
(-0.178198916931676 0.00144345485359293 0)
(-0.182768551059669 0.00121359089810417 0)
(-0.186397506293295 0.00101367795492233 -1.02653794004198e-20)
(-0.18920568009116 0.00083651650215546 2.03792120984588e-20)
(-0.191286353108619 0.000676802939012215 -1.01291007965791e-20)
(-0.192712038135757 0.000530851375277806 0)
(-0.193541663345678 0.000396063780737451 5.34622724720204e-21)
(-0.193823570296195 0.000270444141373957 -5.2629585277929e-21)
(-0.193597959377601 0.000152420107794857 0)
(-0.192898614890375 4.09181131359165e-05 0)
(-0.191756894286117 -6.44487846362641e-05 -5.71503719719069e-21)
(-0.19020586885384 -0.000163940921252827 5.64201440328284e-21)
(-0.188271684282091 -0.000257954941313964 0)
(-0.185979805676987 -0.000346667055101121 0)
(-0.183354756270673 -0.000430105574139812 0)
(-0.180420568330712 -0.000508217514457058 -3.15375237551787e-21)
(-0.17720084608271 -0.000580977482409326 -7.14567264440045e-16)
(-0.173718532249992 -0.000648435045017236 -7.34075647327528e-16)
(-0.169995805718779 -0.00071067856247383 -3.27940461730999e-21)
(-0.166054071027696 -0.000767820258651872 0)
(-0.161914018947346 -0.000819960743142061 0)
(-0.157595679441995 -0.000867210641614965 0)
(-0.153118470833539 -0.000909663797596467 0)
(-0.148501246651688 -0.000947424246118373 0)
(-0.143762263037922 -0.000980606317047822 0)
(-0.138919172047257 -0.00100933766532767 0)
(-0.133988959122458 -0.00103377347209488 0)
(-0.128987928434808 -0.00105407105237952 0)
(-0.12393168193189 -0.00107040952239752 0)
(-0.118835230367663 -0.00108291796622803 0)
(-0.113713106985541 -0.00109172102201377 0)
(-0.108579588705444 -0.00109685464769253 -4.58861300448723e-21)
(-0.103448819398244 -0.00109837795244274 1.05243617685601e-15)
(-0.0983344326814433 -0.00109644219359668 1.07361637786815e-15)
(-0.0932494093823839 -0.00109122797007464 -4.85003926364253e-21)
(-0.0882059120167083 -0.00108298448158109 0)
(-0.0832152251139822 -0.00107194982379093 0)
(-0.0782878414992981 -0.00105836012646471 0)
(-0.0734335880581395 -0.00104239645046771 0)
(-0.0686618972182979 -0.00102417740892753 0)
(-0.0639821588046526 -0.00100371088388788 0)
(-0.0594042189467522 -0.00098089846379801 -1.16636577403339e-20)
(-0.0549385692103612 -0.000955629009646147 1.17962830667033e-20)
(-0.0505960527962066 -0.000927860083729935 -1.22376162220997e-20)
(-0.0463881294908315 -0.000897481319733903 1.23891237365629e-20)
(-0.0423265514221101 -0.000864447793001706 0)
(-0.0384249593010747 -0.000828308149441025 0)
(-0.0346980643164756 -0.000788729915633906 0)
(-0.0311667642303413 -0.00074424798453083 0)
(-0.027853710335037 -0.000694107257652668 0)
(-0.0247974625732858 -0.000634835605223377 2.91499196740425e-20)
(-0.0220353783235322 -0.000565521921852202 2.82059698860546e-22)
(-0.0196434693131689 -0.000478390750835902 2.81845424665465e-22)
(-0.0176857391931641 -0.000373912672433314 2.82354612350836e-22)
(-0.0163048331586749 -0.000238538257280986 2.84184020863204e-22)
(-0.0156124384778399 -8.58913486858497e-05 2.87535361542645e-22)
(-0.0157797759842651 0.00011256136826339 -3.52013857965517e-20)
(-0.0171582242081843 -0.00044137215562338 -1.16350648634095e-18)
(-0.0166699634066226 -0.00233696467329333 0)
(-0.014393263594852 -0.00361911135055757 9.02887390638122e-18)
(-0.0108301550925955 -0.00420615346417618 8.80401258516875e-18)
(-0.00563507646814097 -0.00349754698249707 -3.31780850726512e-20)
(0.000958154027058264 -0.00130265961544827 0)
(0.00915592975091311 0.00276145135534304 1.58140051731826e-17)
(0.0193669962711756 0.00911650642388453 -2.95308709540486e-20)
(0.0315956621801862 0.0178990223497679 -1.43239722755731e-17)
(0.0457944488553107 0.0288999666406632 -2.68409481434948e-20)
(0.061748093998307 0.0417503531346147 1.33062846584682e-17)
(0.0793059214793787 0.0559770443068282 1.28401447892623e-17)
(0.0974744930932054 0.0706485199732557 -1.25885647807781e-17)
(0.115389008217286 0.0853651164229392 1.23402653058047e-17)
(0.13336811092649 0.100705964477768 -1.17914272072497e-20)
(0.1519729871727 0.117295210859441 -1.11846943242249e-20)
(0.172295840036385 0.136095285228466 1.10442309666091e-17)
(0.195921042215671 0.158421335012155 -1.02151324920333e-17)
(0.227469695548713 0.186509786443841 -2.13340117243008e-21)
(0.270904648634057 0.219199921076718 7.85051253855868e-18)
(0.328044763665429 0.252771608812462 6.25585783354319e-18)
(0.404071591568724 0.283506757707631 8.96109204137928e-18)
(0.50022376956944 0.299143617616107 -2.48879034687159e-18)
(0.61215513237174 0.279195469256885 6.92080537022943e-23)
(0.676365971810427 0.196660906414083 8.60968829047853e-19)
(0.628762129461009 0.0959066453282449 2.50827992745253e-22)
(0.48375110556566 0.0294275869261633 -2.32256224442921e-19)
(0.360081342724034 0.00688467158793124 0)
(0.426073368123781 0.00223953637577428 -6.02682520940651e-24)
(0.411155974163175 -0.00520559052640489 5.98992471584485e-24)
(0.334179107019913 -0.0210727352230496 1.23893176900612e-19)
(0.143094000988473 -0.0163356551163256 1.17525881074259e-22)
(-0.0426757804525563 0.0320651735763279 0)
(-0.0889926295915658 0.0552238645580198 -1.87326816344364e-22)
(-0.0739124819666008 0.0510410037160777 3.14045683361368e-18)
(-0.0603275988920493 0.0457334586071101 -3.47046474855079e-18)
(-0.0494178814044545 0.0394629359856307 -9.39938499346538e-22)
(-0.0416682822112632 0.0337262823881198 4.12267356904343e-18)
(-0.0357334374717102 0.0286404887516391 -4.46525600209433e-18)
(-0.0325963009519284 0.0258813682426863 -4.78791208453684e-18)
(-0.0314249526171702 0.0248297773304553 -5.08385221354522e-18)
(-0.0321819979644584 0.0254791089766461 5.2856471257797e-18)
(-0.0348734112692804 0.0277224546257259 0)
(-0.039185313956699 0.0312021505360024 0)
(-0.0443863090843082 0.0351075422857271 5.67612233789277e-18)
(-0.0498786142590816 0.0385284901123927 0)
(-0.0553277370903229 0.0409043942571536 0)
(-0.0602874898609011 0.0416809785716297 1.17781828702915e-20)
(-0.0644805933430939 0.0405653597080238 -1.40324623099382e-20)
(-0.0680776249521033 0.0377340055299806 -2.54769251261914e-21)
(-0.0713180619918534 0.0336893822735387 0)
(-0.0741145447869253 0.0287144137345455 -1.25676062159284e-17)
(-0.0767199285165347 0.0231748153807362 -3.14975157027281e-18)
(-0.080139107722593 0.0176180551993232 -3.14627292273692e-18)
(-0.0865244442712018 0.012722145451848 1.53544916245874e-18)
(-0.101619455196577 0.00910961787675407 -1.10275355252914e-22)
(-0.124890201901188 0.00713584737808206 0)
(-0.145120394539929 0.006145908490732 0)
(-0.160295189376889 0.0050628273027851 0)
(-0.172296555133678 0.00418202903055557 0)
(-0.181650984349418 0.0034494585466028 0)
(-0.189055213085113 0.00285527420087783 0)
(-0.194890725301908 0.00236758409349811 0)
(-0.19947073884379 0.0019615458835644 -7.12558539826015e-21)
(-0.203002528920661 0.00161674954836866 6.86083417524078e-21)