/*--------------------------------*- C++ -*----------------------------------*\
  =========                 |
  \\      /  F ield         | OpenFOAM: The Open Source CFD Toolbox
   \\    /   O peration     | Website:  https://openfoam.org
    \\  /    A nd           | Version:  7
     \\/     M anipulation  |
\*---------------------------------------------------------------------------*/
FoamFile
{
    version     2.0;
    format      ascii;
    class       volScalarField;
    location    "20000";
    object      walldist;
}
// * * * * * * * * * * * * * * * * * * * * * * * * * * * * * * * * * * * * * //

dimensions      [0 1 0 0 0 0 0];

internalField   nonuniform List<scalar> 
15600
(
0.00195548402226242
0.00195645419159368
0.00195063867884618
0.00191648986889861
0.00184313460957569
0.00178996457483627
0.00178176509560388
0.00181188373869078
0.00187229434092408
0.00195952930914282
0.00206964193754614
0.00218356262006774
0.00229332559196097
0.00239877052450162
0.00249981607625959
0.00259644011059346
0.0026926476912417
0.00279963869996172
0.00291942960795811
0.00305208145803779
0.00319728514878087
0.0033526057642563
0.00350514147971492
0.00364389129039687
0.00376209864282001
0.0038520472622379
0.00390589454151693
0.00391728338318702
0.00391096524291171
0.00391096804452692
0.00391096804452681
0.00391096804452675
0.00391096804452689
0.00391096804452681
0.00391096804452684
0.00391096804452681
0.00391096804452681
0.00391096804452679
0.00391096804452684
0.00391096804452692
0.00391096804452679
0.00391096804452687
0.00391096804452698
0.00391096804452689
0.00391096804452684
0.00391096804452681
0.00391096804452684
0.00391096804452681
0.00391096804452679
0.00391096804452684
0.00391096804452681
0.00391096804452692
0.00391096804452678
0.00391096804452684
0.00391096804452692
0.00391096804452684
0.00391096804452678
0.00391096804452682
0.00391096804452686
0.00391096804452673
0.00391096804452678
0.00391096804452675
0.00391096804452673
0.00391096804452678
0.00391096804452706
0.0039109680445269
0.00391096804452686
0.00391096804452695
0.00391096804452689
0.00391096804452679
0.00391096804452672
0.00391096804452695
0.00391096804452679
0.00391096804452678
0.00391096804452681
0.00391096804452679
0.00391096804452689
0.00391096804452698
0.00391096804452694
0.00391096804452682
0.00391096804452683
0.00391096804452692
0.00391096804452673
0.00391096804452673
0.00391096804452687
0.00391096804452689
0.0039109680445268
0.00391096804452679
0.00391096804452691
0.00391096804452684
0.00391096804452684
0.00391096524291176
0.00391728338318698
0.0039058945415171
0.00385204726223849
0.00376209864282017
0.00364389129039582
0.00350514147971509
0.00335260576425847
0.0031972851487812
0.00305208145803704
0.00291942960795691
0.00279963869995914
0.00269264769123882
0.00259644011059185
0.00249981607626064
0.00239877052450231
0.00229332559196257
0.00218356262006693
0.00206964193754685
0.00195952930914461
0.00187229434092501
0.00181188373869226
0.00178176509560545
0.00178996457483523
0.00184313460957491
0.00191648986889931
0.0019506386788468
0.00195645419159347
0.00195548402226176
0.00593826484140548
0.00594389362740664
0.0059719298582688
0.00603676594914605
0.00614477323246616
0.00631786905641718
0.00655086822158089
0.00682600981580559
0.00712858538191135
0.00744829969165008
0.00777573123175211
0.00809925364880901
0.00841598007267647
0.00872695338920213
0.00903326479687976
0.00933601425226291
0.00963683047225666
0.00993699349248429
0.0102336163617036
0.0105227209479327
0.0107995785150827
0.0110581948060741
0.0112911137034089
0.0114928421726179
0.0116593149915352
0.0117864350303754
0.0118704546747089
0.0119085693386866
0.0119143889283476
0.0119120220260752
0.0119097335435959
0.0119075209257934
0.0119053842149667
0.011903323451993
0.0119013386763233
0.0118994299259809
0.0118975972375571
0.0118958406462066
0.011894160185644
0.011892555888142
0.0118910277845283
0.0118895759041803
0.0118882002750254
0.0118869009235365
0.0118856778747296
0.0118845311521622
0.0118834607779297
0.011882466772665
0.0118815491555347
0.0118807079442386
0.0118799431550078
0.011879254802602
0.0118786429003097
0.0118781074599458
0.0118776484918507
0.0118772660048903
0.0118769600064532
0.0118767305024515
0.0118765774973201
0.011876500994015
0.0118765009940149
0.01187657749732
0.0118767305024516
0.0118769600064533
0.0118772660048904
0.0118776484918508
0.0118781074599457
0.0118786429003097
0.0118792548026021
0.0118799431550078
0.0118807079442389
0.0118815491555347
0.0118824667726649
0.0118834607779299
0.011884531152162
0.0118856778747296
0.0118869009235366
0.0118882002750254
0.01188957590418
0.0118910277845278
0.0118925558881421
0.0118941601856442
0.0118958406462068
0.0118975972375575
0.0118994299259811
0.0119013386763229
0.0119033234519924
0.0119053842149666
0.0119075209257936
0.0119097335435959
0.0119120220260755
0.0119143889283476
0.0119085693386866
0.0118704546747092
0.0117864350303761
0.0116593149915347
0.0114928421726173
0.0112911137034097
0.0110581948060731
0.0107995785150854
0.0105227209479276
0.0102336163617057
0.00993699349248686
0.00963683047225203
0.00933601425226237
0.00903326479687673
0.00872695338920558
0.00841598007267534
0.0080992536488108
0.00777573123175451
0.00744829969165198
0.00712858538190959
0.00682600981580174
0.0065508682215841
0.00631786905641695
0.00614477323246619
0.00603676594914541
0.0059719298582689
0.00594389362740643
0.00593826484140525
0.010066939824028
0.0100767436178517
0.010129646716212
0.0102599786200277
0.0104834064554884
0.0108154165445636
0.0112351643579816
0.0117133029750673
0.0122279975164257
0.0127639287363284
0.0133074799023414
0.0138446306973544
0.0143722383347526
0.0148917842709774
0.0154048741339567
0.0159131836284258
0.0164186405218566
0.0169215827317871
0.0174169873005434
0.0178982666560744
0.0183575472332136
0.0187849579700832
0.0191692130385225
0.0195018576231176
0.0197762541536313
0.0199857891119397
0.0201244748663216
0.0201879042540306
0.0201980613126839
0.0201940486188516
0.0201901690317966
0.0201864180555664
0.020182795761868
0.0201793022199992
0.0201759374968413
0.0201727016568533
0.0201695947620665
0.0201666168720777
0.0201637680440424
0.0201610483326718
0.0201584577902257
0.0201559964665084
0.0201536644088634
0.0201514616621689
0.0201493882688345
0.020147444268796
0.0201456296995112
0.0201439445959578
0.0201423889906289
0.0201409629135302
0.0201396663921772
0.0201384994515923
0.0201374621143029
0.020136554400338
0.0201357763272281
0.0201351279100024
0.0201346091611869
0.0201342200908044
0.0201339607063725
0.0201338310129033
0.0201338310129034
0.0201339607063725
0.0201342200908044
0.020134609161187
0.0201351279100024
0.0201357763272281
0.0201365544003381
0.0201374621143027
0.0201384994515924
0.0201396663921772
0.0201409629135302
0.0201423889906289
0.0201439445959576
0.0201456296995113
0.0201474442687959
0.0201493882688346
0.0201514616621692
0.0201536644088634
0.0201559964665082
0.0201584577902255
0.0201610483326719
0.0201637680440425
0.020166616872078
0.0201695947620669
0.0201727016568534
0.0201759374968409
0.0201793022199987
0.0201827957618679
0.0201864180555662
0.0201901690317968
0.0201940486188519
0.020198061312684
0.0201879042540305
0.0201244748663217
0.0199857891119403
0.0197762541536322
0.0195018576231175
0.0191692130385202
0.0187849579700837
0.0183575472332137
0.0178982666560768
0.0174169873005426
0.0169215827317828
0.0164186405218594
0.0159131836284213
0.0154048741339631
0.0148917842709733
0.0143722383347563
0.0138446306973524
0.0133074799023377
0.0127639287363307
0.0122279975164288
0.011713302975068
0.0112351643579831
0.0108154165445612
0.0104834064554891
0.0102599786200275
0.0101296467162121
0.0100767436178518
0.0100669398240282
0.0143468600119824
0.0143609949414319
0.0144397536255763
0.0146382678068793
0.0149818387339375
0.0154789420240316
0.016092411063379
0.0167809651159392
0.0175154527024902
0.0182753847284438
0.0190428210690673
0.0198012944777942
0.0205474026747205
0.021283076286386
0.022010449915802
0.0227317929380064
0.0234493377854717
0.0241624373985178
0.0248638541919576
0.0255442959927104
0.0261926292199345
0.0267949642069894
0.0273360494628685
0.0278043625115249
0.0281905996111179
0.0284855396325202
0.0286808740828854
0.0287705358080751
0.0287851883733971
0.028779469597933
0.0287739406195783
0.0287685949304391
0.028763432632708
0.028758453825144
0.0287536586030638
0.0287490470583304
0.0287446192793474
0.0287403753510484
0.0287363153548892
0.0287324393688409
0.0287287474673817
0.028725239721489
0.0287219161986352
0.0287187769627784
0.0287158220743574
0.0287130515902872
0.0287104655639511
0.0287080640451966
0.0287058470803318
0.0287038147121187
0.0287019669797711
0.0287003039189495
0.0286988255617587
0.0286975319367435
0.0286964230688868
0.0286954989796073
0.0286947596867573
0.0286942052046196
0.0286938355439083
0.028693650711767
0.0286936507117669
0.0286938355439084
0.0286942052046196
0.0286947596867573
0.0286954989796076
0.0286964230688868
0.0286975319367434
0.0286988255617587
0.0287003039189495
0.0287019669797711
0.0287038147121187
0.0287058470803316
0.0287080640451967
0.0287104655639511
0.0287130515902873
0.0287158220743577
0.0287187769627785
0.0287219161986352
0.0287252397214891
0.0287287474673814
0.0287324393688408
0.0287363153548894
0.0287403753510484
0.0287446192793476
0.0287490470583306
0.0287536586030634
0.0287584538251438
0.0287634326327077
0.0287685949304389
0.0287739406195785
0.0287794695979331
0.0287851883733971
0.0287705358080751
0.0286808740828856
0.0284855396325209
0.0281905996111188
0.0278043625115247
0.0273360494628703
0.0267949642069881
0.0261926292199368
0.0255442959927082
0.0248638541919564
0.0241624373985166
0.0234493377854708
0.0227317929380133
0.0220104499157924
0.0212830762863895
0.0205474026747185
0.0198012944777964
0.0190428210690684
0.0182753847284403
0.0175154527024888
0.016780965115946
0.0160924110633803
0.0154789420240328
0.014981838733933
0.0146382678068796
0.0144397536255765
0.014360994941432
0.0143468600119826
0.0187835659411906
0.0188021917528217
0.0189077796192567
0.019177070944959
0.0196453515631752
0.0203137135130666
0.0211280425804181
0.0220347136139557
0.0229970140026393
0.0239891077933102
0.0249885812162258
0.0259764416492148
0.0269490197619228
0.0279087100825755
0.0288581941960054
0.0298003558781589
0.0307377416353653
0.0316686805778262
0.0325836392250116
0.0334705218508957
0.0343148154236716
0.0350984645194079
0.0358021081822684
0.0364110448100526
0.0369132069871873
0.0372966708004999
0.0375507223145452
0.037667574031145
0.0376868865060921
0.0376793991503291
0.0376721603587452
0.0376651615377929
0.0376584028212681
0.0376518843384706
0.0376456062141931
0.0376395685687074
0.0376337715177546
0.0376282151725342
0.0376228996396923
0.0376178250213112
0.0376129914149017
0.0376083989133911
0.0376040476051166
0.0375999375738154
0.0375960688986174
0.0375924416540369
0.0375890559099667
0.0375859117316697
0.0375830091797735
0.0375803483102652
0.0375779291744848
0.0375757518191206
0.0375738162862055
0.0375721226131122
0.0375706708325492
0.037569460972559
0.0375684930565138
0.0375677671031146
0.0375672831263881
0.0375670411356865
0.0375670411356865
0.0375672831263881
0.0375677671031146
0.0375684930565139
0.0375694609725591
0.0375706708325494
0.037572122613112
0.0375738162862054
0.0375757518191206
0.0375779291744847
0.037580348310265
0.0375830091797735
0.0375859117316695
0.0375890559099667
0.037592441654037
0.0375960688986174
0.0375999375738154
0.0376040476051167
0.0376083989133911
0.0376129914149012
0.0376178250213111
0.0376228996396923
0.0376282151725344
0.0376337715177547
0.0376395685687074
0.0376456062141928
0.0376518843384706
0.0376584028212678
0.0376651615377928
0.0376721603587452
0.0376793991503295
0.0376868865060924
0.037667574031145
0.0375507223145454
0.0372966708005004
0.0369132069871876
0.0364110448100533
0.035802108182267
0.0350984645194093
0.0343148154236725
0.0334705218508955
0.0325836392250107
0.0316686805778245
0.030737741635365
0.0298003558781552
0.0288581941960111
0.027908710082571
0.0269490197619275
0.0259764416492137
0.024988581216225
0.0239891077933167
0.0229970140026384
0.0220347136139525
0.0211280425804163
0.0203137135130677
0.0196453515631774
0.0191770709449586
0.0189077796192568
0.0188021917528219
0.0187835659411911
0.0233828011122064
0.0234060828239804
0.023539494957918
0.0238822011253546
0.0244798358997001
0.0253257836409737
0.0263483496270296
0.0274811246090147
0.0286795686460964
0.0299123086459749
0.0311522969102482
0.0323779278910054
0.0335852563068845
0.0347771568240665
0.0359568774390191
0.0371279383833669
0.0382932109520245
0.0394499616570038
0.0405862769439767
0.0416871548774726
0.0427345791588382
0.0437061760227854
0.0445783251923673
0.0453330299168729
0.0459553579606253
0.0464305837937989
0.0467455001399387
0.0468905363594437
0.0469146793296253
0.0469053586053949
0.0468963473652271
0.0468876348535102
0.0468792212368004
0.0468711066760573
0.0468632913266288
0.0468557753382365
0.0468485588549613
0.0468416420152298
0.0468350249518011
0.0468287077917533
0.0468226906564721
0.0468169736616392
0.0468115569172211
0.046806440527459
0.0468016245908575
0.0467971092001764
0.0467928944424215
0.0467889803988363
0.0467853671448933
0.0467820547502875
0.0467790432789302
0.0467763327889417
0.0467739233326469
0.0467718149565687
0.0467700077014253
0.0467685016021246
0.0467672966877625
0.046766392981618
0.0467657905011533
0.0467654892580102
0.0467654892580102
0.0467657905011533
0.0467663929816181
0.0467672966877625
0.0467685016021248
0.0467700077014252
0.0467718149565689
0.0467739233326467
0.0467763327889418
0.04677904327893
0.0467820547502874
0.0467853671448931
0.046788980398836
0.0467928944424216
0.0467971092001764
0.0468016245908575
0.0468064405274591
0.0468115569172212
0.0468169736616389
0.0468226906564715
0.046828707791753
0.0468350249518013
0.0468416420152301
0.0468485588549612
0.0468557753382365
0.0468632913266286
0.0468711066760569
0.0468792212368002
0.0468876348535103
0.0468963473652274
0.0469053586053952
0.0469146793296255
0.0468905363594439
0.0467455001399391
0.0464305837937994
0.0459553579606257
0.0453330299168727
0.0445783251923671
0.0437061760227849
0.042734579158839
0.0416871548774757
0.0405862769439729
0.0394499616570027
0.038293210952026
0.0371279383833631
0.0359568774390197
0.0347771568240657
0.0335852563068848
0.0323779278910083
0.0311522969102499
0.0299123086459719
0.0286795686460982
0.027481124609014
0.0263483496270311
0.0253257836409745
0.0244798358996986
0.0238822011253547
0.023539494957918
0.0234060828239803
0.0233828011122066
0.0281505194252806
0.0281786278743322
0.028340890298432
0.0287597253596688
0.0294914943749552
0.0305215622270331
0.0317600033576284
0.0331271631381724
0.0345703934811643
0.036052584329627
0.0375418861884696
0.0390139874473042
0.040464657230372
0.041897267535996
0.0433156532028245
0.0447239939953803
0.0461254974731213
0.0475163279428035
0.0488821045399279
0.0502048126716503
0.0514628044186832
0.0526292294848121
0.0536760526216123
0.0545818614735137
0.0553287541047806
0.0558991008483239
0.0562771098834782
0.056451362240443
0.0564805126036638
0.056469291349425
0.0564584427308115
0.0564479537509345
0.0564378246103115
0.0564280555027212
0.0564186466151869
0.0564095981279579
0.0564009102144936
0.0563925830414449
0.0563846167686405
0.0563770115490698
0.0563697675288686
0.056362884847306
0.0563563636367704
0.0563502040227576
0.0563444061238575
0.0563389700517433
0.056333895911161
0.0563291837999194
0.05632483380888
0.0563208460219489
0.0563172205160679
0.0563139573612089
0.0563110566203648
0.0563085183495454
0.0563063425977703
0.056304529407066
0.0563030788124602
0.0563019908419794
0.0563012655166453
0.0563009028504742
0.0563009028504742
0.0563012655166453
0.0563019908419795
0.0563030788124603
0.0563045294070661
0.0563063425977706
0.0563085183495454
0.0563110566203649
0.0563139573612089
0.0563172205160679
0.0563208460219489
0.0563248338088799
0.0563291837999195
0.0563338959111613
0.0563389700517435
0.0563444061238578
0.0563502040227577
0.0563563636367703
0.0563628848473057
0.0563697675288682
0.0563770115490696
0.0563846167686408
0.056392583041445
0.0564009102144936
0.0564095981279579
0.0564186466151864
0.0564280555027209
0.0564378246103112
0.0564479537509345
0.0564584427308113
0.056469291349425
0.0564805126036643
0.056451362240443
0.0562771098834782
0.0558991008483241
0.0553287541047807
0.0545818614735129
0.053676052621613
0.0526292294848122
0.0514628044186802
0.050204812671653
0.0488821045399275
0.0475163279428048
0.046125497473115
0.044723993995383
0.0433156532028215
0.0418972675360015
0.0404646572303699
0.0390139874473024
0.0375418861884694
0.0360525843296315
0.0345703934811633
0.0331271631381764
0.0317600033576221
0.0305215622270329
0.029491494374955
0.0287597253596691
0.028340890298432
0.0281786278743324
0.0281505194252808
0.0330928928877996
0.0331260050630143
0.0333181787848391
0.0338159466669413
0.0346867889052052
0.0359077390519186
0.0373699692093064
0.0389800985968138
0.040677077604708
0.0424178508693816
0.0441655922842725
0.045893186512273
0.0475961068883061
0.0492782407354256
0.0509440310479201
0.0525983411459207
0.054244726922635
0.0558782096947212
0.0574818508670562
0.0590345128270193
0.0605107829772808
0.0618791704983277
0.0631070636750281
0.0641695095922074
0.0650455278794824
0.0657144784251412
0.0661578902809522
0.0663624285277752
0.0663967696927032
0.0663835782865994
0.0663708249811157
0.0663584944559726
0.0663465869468919
0.0663351026816742
0.0663240418801783
0.0663134047543001
0.0663031915079528
0.0662934023370467
0.0662840374294707
0.0662750969650748
0.0662665811156522
0.066258490044923
0.0662508239085193
0.0662435828539698
0.0662367670206853
0.0662303765399454
0.0662244115348863
0.066218872120489
0.0662137584035676
0.0662090704827594
0.0662048084485152
0.0662009723830913
0.0661975623605412
0.0661945784467071
0.0661920206992157
0.0661898891674718
0.066188183892653
0.0661869049077062
0.0661860522373443
0.066185625898044
0.066185625898044
0.0661860522373444
0.0661869049077064
0.0661881838926531
0.0661898891674719
0.0661920206992159
0.0661945784467072
0.0661975623605412
0.0662009723830915
0.0662048084485153
0.0662090704827595
0.0662137584035677
0.066218872120489
0.0662244115348865
0.0662303765399456
0.0662367670206854
0.0662435828539698
0.0662508239085193
0.0662584900449229
0.0662665811156518
0.0662750969650746
0.0662840374294707
0.0662934023370467
0.0663031915079529
0.0663134047543
0.0663240418801778
0.0663351026816735
0.0663465869468914
0.0663584944559725
0.0663708249811158
0.0663835782865995
0.0663967696927033
0.066362428527775
0.0661578902809524
0.0657144784251418
0.0650455278794825
0.0641695095922073
0.0631070636750274
0.0618791704983269
0.0605107829772836
0.0590345128270157
0.0574818508670602
0.0558782096947153
0.0542447269226395
0.0525983411459173
0.0509440310479212
0.0492782407354211
0.0475961068883116
0.0458931865122709
0.044165592284275
0.042417850869379
0.0406770776047103
0.0389800985968108
0.0373699692093101
0.0359077390519187
0.0346867889052059
0.0338159466669407
0.0333181787848393
0.0331260050630143
0.0330928928877996
0.0382163196040782
0.0382546189210787
0.0384778024255473
0.0390574046712684
0.0400724313972942
0.0414912676097288
0.0431854883662982
0.0450474869700928
0.0470075069625407
0.0490163310655297
0.0510319749171849
0.0530244176123373
0.0549888260207127
0.056929621531468
0.0588518774605057
0.0607611656396834
0.0626614028999148
0.0645464254346917
0.0663966431913898
0.0681876811235256
0.0698902240225476
0.0714679705409593
0.0728835650097739
0.0741083843771664
0.0751182571145064
0.0758894224480236
0.0764006322338393
0.0766365654853502
0.0766762875965563
0.0766610538662886
0.0766463260998153
0.076632086568344
0.0766183355440903
0.0766050732901232
0.0765923000603402
0.0765800160994424
0.0765682216429129
0.0765569169169926
0.0765461021386597
0.0765357775156076
0.0765259432462271
0.0765165995195855
0.0765077465154095
0.0764993844040683
0.0764915133465557
0.0764841334944768
0.0764772449900312
0.0764708479660011
0.0764649425457378
0.0764595288431492
0.0764546069626904
0.0764501769993516
0.0764462390386517
0.0764427931566269
0.0764398394198252
0.0764373778853003
0.0764354086006051
0.0764339316037869
0.0764329469233851
0.0764324545784269
0.076432454578427
0.0764329469233851
0.0764339316037869
0.0764354086006052
0.0764373778853004
0.0764398394198254
0.0764427931566267
0.0764462390386517
0.0764501769993516
0.0764546069626903
0.0764595288431494
0.0764649425457376
0.0764708479660011
0.0764772449900312
0.0764841334944768
0.0764915133465558
0.0764993844040684
0.0765077465154094
0.0765165995195853
0.0765259432462268
0.0765357775156073
0.0765461021386597
0.0765569169169926
0.0765682216429129
0.0765800160994421
0.0765923000603398
0.0766050732901228
0.0766183355440899
0.0766320865683439
0.0766463260998153
0.0766610538662888
0.0766762875965567
0.07663656548535
0.0764006322338394
0.0758894224480243
0.0751182571145067
0.0741083843771665
0.0728835650097736
0.0714679705409621
0.0698902240225449
0.0681876811235272
0.0663966431913894
0.0645464254346904
0.0626614028999112
0.060761165639686
0.058851877460504
0.0569296215314695
0.0549888260207129
0.0530244176123399
0.0510319749171835
0.0490163310655321
0.0470075069625401
0.0450474869700945
0.0431854883662994
0.0414912676097272
0.0400724313972955
0.0390574046712692
0.0384778024255469
0.0382546189210788
0.038216319604078
0.0435274320577958
0.0435711086181068
0.0438264398192235
0.0444908812866672
0.0456553859601056
0.0472793649942715
0.0492140770632599
0.0513371706835476
0.0535698653390859
0.0558565569261318
0.0581499142792934
0.0604169049974457
0.0626523783538275
0.0648613092843873
0.0670494244468064
0.0692230300865123
0.071386417092119
0.0735321929432498
0.0756380189721382
0.0776761640873577
0.0796132674813453
0.0814080410429534
0.083018211482646
0.0844113512629736
0.0855599808417695
0.0864371045199459
0.0870185952868826
0.0872870733897306
0.0873323735680693
0.0873150226974652
0.0872982481398638
0.0872820296697159
0.0872663675970695
0.0872512622215527
0.0872367138323486
0.0872227227081663
0.0872092891172143
0.0871964133171761
0.0871840955551834
0.0871723360677953
0.0871611350809723
0.0871504928100583
0.0871404094597576
0.0871308852241158
0.0871219202865016
0.0871135148195887
0.0871056689853396
0.0870983829349893
0.0870916568090314
0.0870854907372057
0.0870798848384824
0.0870748392210543
0.0870703539823239
0.0870664292088955
0.0870630649765654
0.0870602613503163
0.0870580183843094
0.0870563361218803
0.0870552145955339
0.0870546538269428
0.0870546538269426
0.0870552145955341
0.0870563361218804
0.0870580183843095
0.0870602613503165
0.0870630649765655
0.0870664292088954
0.0870703539823239
0.0870748392210543
0.0870798848384825
0.0870854907372055
0.0870916568090316
0.0870983829349889
0.0871056689853394
0.0871135148195886
0.0871219202865019
0.0871308852241159
0.0871404094597577
0.0871504928100583
0.087161135080972
0.087172336067795
0.0871840955551833
0.087196413317176
0.0872092891172144
0.0872227227081664
0.0872367138323485
0.0872512622215521
0.0872663675970693
0.0872820296697159
0.0872982481398637
0.0873150226974655
0.0873323735680697
0.0872870733897305
0.0870185952868832
0.0864371045199466
0.0855599808417703
0.0844113512629726
0.0830182114826471
0.0814080410429516
0.0796132674813473
0.0776761640873572
0.0756380189721379
0.0735321929432489
0.0713864170921175
0.0692230300865123
0.0670494244468073
0.0648613092843858
0.0626523783538259
0.0604169049974465
0.0581499142792942
0.0558565569261319
0.0535698653390903
0.0513371706835474
0.0492140770632571
0.047279364994274
0.0456553859601062
0.0444908812866672
0.0438264398192239
0.0435711086181069
0.0435274320577963
0.0490331056978569
0.0490823565463981
0.0493710145376612
0.0501234083066543
0.0514428751536219
0.0532795173552233
0.0554635320248678
0.0578572845254364
0.0603726410240863
0.0629473772118
0.0655286195053492
0.0671605975830928
0.069185614374375
0.0711477227675488
0.0730238947201244
0.0747975375875672
0.0765385024684442
0.0785441622507648
0.0810895140755964
0.0842512811118729
0.0880970146940355
0.091712248842453
0.0935241220808993
0.09509174735808
0.0963842159819141
0.0973711788747843
0.0980255247583048
0.0983277397447047
0.0983788223395693
0.0983592767717329
0.0983403804432097
0.0983221105402217
0.0983044674120331
0.098287451396171
0.0982710628183973
0.0982553019926737
0.098240169221134
0.0982256647940545
0.0982117889898274
0.0981985420749326
0.0981859243039124
0.0981739359193483
0.098162577151838
0.0981518482199703
0.0981417493303085
0.0981322806773671
0.0981234424435949
0.0981152347993564
0.0981076579029162
0.0981007119004231
0.098094396925897
0.0980887131012155
0.0980836605361011
0.0980792393281117
0.0980754495626322
0.0980722913128636
0.0980697646398189
0.0980678695923144
0.0980666062069667
0.0980659745081895
0.0980659745081897
0.098066606206967
0.0980678695923144
0.098069764639819
0.0980722913128638
0.098075449562632
0.0980792393281118
0.0980836605361008
0.0980887131012152
0.0980943969258972
0.0981007119004233
0.098107657902916
0.0981152347993561
0.098123442443595
0.0981322806773675
0.0981417493303084
0.0981518482199703
0.0981625771518377
0.0981739359193482
0.0981859243039121
0.0981985420749324
0.0982117889898275
0.0982256647940547
0.098240169221134
0.0982553019926736
0.0982710628183969
0.0982874513961709
0.0983044674120326
0.0983221105402218
0.0983403804432101
0.0983592767717331
0.0983788223395693
0.0983277397447049
0.0980255247583057
0.097371178874785
0.0963842159819149
0.0950917473580793
0.0935241220808981
0.091712248842455
0.0880970146940365
0.0842512811118637
0.0810895140755898
0.0785441622507547
0.0765385024684388
0.0747975375875683
0.0730238947201208
0.0711477227675478
0.0691856143743795
0.0671605975830888
0.0655286195053497
0.0629473772118003
0.0603726410240857
0.057857284525435
0.0554635320248692
0.0532795173552229
0.0514428751536216
0.0501234083066541
0.0493710145376616
0.049082356546398
0.0490331056978572
0.0547404678387627
0.0547954972253701
0.0551187039629218
0.0559622759390698
0.0574423880198327
0.0594994877381596
0.0619419385167527
0.0646162641643394
0.0652500649316274
0.0658326074977601
0.0675426304153562
0.0699230158074561
0.0724085235471695
0.0748127600530514
0.0771143737045829
0.0792987690417461
0.0814412811487844
0.08385284880982
0.0868150190504873
0.090399916169886
0.0946705675908611
0.0997041607636214
0.104414896689712
0.106163398561451
0.107604974750194
0.108705800005568
0.109435669516838
0.109772857128044
0.109829933980345
0.109808113317254
0.109787017491301
0.109766621005646
0.109746924250211
0.109727927601808
0.109709631424118
0.109692036067647
0.109675141869696
0.109658949154331
0.109643458232346
0.10962866940124
0.109614582945184
0.109601199134994
0.10958851822811
0.109576540468564
0.109565266086962
0.109554695300461
0.109544828312747
0.109535665314012
0.109527206480943
0.109519451976703
0.109512401950908
0.109506056539624
0.109500415865345
0.109495480036984
0.109491249149863
0.109487723285707
0.109484902512627
0.109482786885124
0.109481376444076
0.109480671216738
0.109480671216739
0.109481376444077
0.109482786885124
0.109484902512627
0.109487723285707
0.109491249149864
0.109495480036983
0.109500415865344
0.109506056539624
0.109512401950908
0.109519451976703
0.109527206480943
0.109535665314011
0.109544828312746
0.109554695300462
0.109565266086963
0.109576540468564
0.109588518228109
0.109601199134994
0.109614582945183
0.10962866940124
0.109643458232346
0.109658949154331
0.109675141869696
0.109692036067647
0.109709631424118
0.109727927601808
0.10974692425021
0.109766621005647
0.109787017491301
0.109808113317254
0.109829933980345
0.109772857128044
0.109435669516839
0.108705800005568
0.107604974750194
0.106163398561451
0.104414896689712
0.0997041607636251
0.0946705675908631
0.0903999161698809
0.0868150190504801
0.0838528488098094
0.0814412811487842
0.0792987690417472
0.0771143737045784
0.0748127600530504
0.0724085235471669
0.0699230158074532
0.0675426304153588
0.0658326074977614
0.0652500649316359
0.0646162641643445
0.0619419385167535
0.0594994877381592
0.0574423880198329
0.0559622759390768
0.0551187039629234
0.05479549722537
0.0547404678387629
0.060656906887016
0.0607179265347325
0.0610769485134208
0.062015041948598
0.0636616890936139
0.0659473251749929
0.068657679754424
0.0680053902216738
0.067578442724916
0.0685485672288876
0.0707201682696704
0.0735868188493183
0.0765456964477216
0.0794032639829891
0.0821407203775461
0.084746085550308
0.0872994497410015
0.090121329268245
0.0934966212051632
0.0974928186188068
0.102168715479783
0.107598928076267
0.113647128708238
0.117640637383445
0.119236782747791
0.120455640963088
0.121263800418504
0.121637241692714
0.121700532408273
0.121676353306705
0.121652977409474
0.121630376438383
0.121608550825493
0.121587500988347
0.12156722732993
0.121547730238633
0.121529010088213
0.12151106723776
0.12149390203166
0.121477514799567
0.121461905856364
0.12144707550214
0.121433024022156
0.121419751686822
0.121407258751668
0.121395545457321
0.12138461202948
0.121374458678897
0.121365085601354
0.121356492977647
0.121348680973566
0.12134164973988
0.121335399412324
0.121329930111583
0.121325241943283
0.121321334997977
0.121318209351143
0.121315865063168
0.121314302179351
0.121313520729892
0.121313520729892
0.121314302179351
0.121315865063168
0.121318209351143
0.121321334997977
0.121325241943283
0.121329930111583
0.121335399412324
0.12134164973988
0.121348680973566
0.121356492977647
0.121365085601354
0.121374458678896
0.12138461202948
0.121395545457321
0.121407258751669
0.121419751686823
0.121433024022156
0.121447075502139
0.121461905856364
0.121477514799567
0.12149390203166
0.12151106723776
0.121529010088213
0.121547730238633
0.12156722732993
0.121587500988347
0.121608550825493
0.121630376438383
0.121652977409474
0.121676353306705
0.121700532408274
0.121637241692714
0.121263800418504
0.120455640963088
0.119236782747791
0.117640637383444
0.113647128708243
0.107598928076275
0.102168715479788
0.0974928186188027
0.0934966212051577
0.0901213292682404
0.087299449741
0.084746085550309
0.0821407203775413
0.079403263982988
0.0765456964477228
0.0735868188493178
0.0707201682696686
0.0685485672288959