# Probe 0 (0.0005 0.0001 0.0003)
# Probe 1 (0.0005 0.0001 0.0027)
# Probe 2 (0.0005 0.0009 0.0027)
# Probe 3 (0.0005 0.0009 0.0003)
# Probe 4 (0.0005 0.0005 0.0015)
#       Probe             0             1             2             3             4
#        Time
            1     0.0200004          0.02          0.02     0.0200001     0.0200001
            2     0.0200016          0.02          0.02     0.0200021     0.0200008
            3     0.0200031     0.0200003     0.0200001     0.0200108     0.0200021
            4     0.0200045      0.020001     0.0200007     0.0200451     0.0200034
            5     0.0200072      0.020002     0.0200032     0.0201655     0.0200058
            6     0.0200099     0.0200032     0.0200086     0.0203816     0.0200082
            7     0.0200127     0.0200044     0.0200393     0.0207102     0.0200107
            8     0.0200156     0.0200056     0.0201225      0.021218     0.0200134
            9     0.0200201     0.0200071     0.0203165     0.0220263     0.0200173
           10     0.0200248     0.0200087     0.0206955     0.0230609     0.0200216
           11     0.0200296     0.0200104     0.0212827     0.0243309      0.020026
           12     0.0200351     0.0200121     0.0221235     0.0258937      0.020031
           13     0.0200407     0.0200139     0.0231703     0.0276821     0.0200363
           14     0.0200465     0.0200158     0.0244251     0.0297007     0.0200419
           15     0.0200523     0.0200178     0.0258777     0.0318463     0.0200478
           16     0.0200585       0.02002      0.027531     0.0342432     0.0200546
           17      0.020065     0.0200222      0.029377     0.0368734     0.0200624
           18     0.0200718     0.0200247     0.0314093     0.0397362     0.0200716
           19     0.0200787     0.0200273     0.0336188      0.042839     0.0200834
           20     0.0200857     0.0200301     0.0359944     0.0461951     0.0200994
           21     0.0200927     0.0200332     0.0385267     0.0498266     0.0201222
           22     0.0200994     0.0200365     0.0412111     0.0537558     0.0201563
           23     0.0201066     0.0200402     0.0440285     0.0580265     0.0202084
           24     0.0201143     0.0200442     0.0469936     0.0626623     0.0202896
           25     0.0201222     0.0200486     0.0501094     0.0677356     0.0204153
           26     0.0201302     0.0200536     0.0533851     0.0733549     0.0206084
           27     0.0201386     0.0200592     0.0568362     0.0796758     0.0209023
           28     0.0201473     0.0200654     0.0604863     0.0869272     0.0213394
           29     0.0201564     0.0200727     0.0643348     0.0953724     0.0220076
           30     0.0201666      0.020081     0.0684556      0.105467     0.0230014
           31     0.0201778     0.0200907     0.0729521      0.117853     0.0244275
           32     0.0201899     0.0201021     0.0779489      0.133288     0.0263484
           33     0.0202035     0.0201152     0.0836422      0.152646     0.0287742
           34     0.0202208     0.0201309     0.0901634      0.176795     0.0316434
           35     0.0202413     0.0201496     0.0977121      0.206676     0.0349348
           36     0.0202698     0.0201722      0.106608      0.243863     0.0387343
           37     0.0203168     0.0201996      0.117184      0.289644     0.0431707
           38     0.0203864     0.0202331      0.129839      0.346551     0.0484032
           39     0.0204535     0.0202744      0.145009      0.417932     0.0546574
           40     0.0205134     0.0203258      0.162623      0.507916     0.0618367
           41     0.0205866       0.02039      0.182957      0.622137     0.0707564
           42     0.0206889     0.0204712      0.206447      0.767799     0.0822374
           43     0.0208466     0.0205745      0.233675      0.954099     0.0976509
           44     0.0210321     0.0207072      0.265322       1.19297      0.119288
           45     0.0212773     0.0208793      0.302192       1.49937      0.150896
           46     0.0215269     0.0211045      0.345235       1.89141      0.198584
           47        0.0218     0.0214026      0.395548       2.38986      0.271924
           48     0.0221102     0.0218017      0.454413       3.01674      0.381347
           49     0.0224743     0.0223429      0.523343       3.79274      0.545109
           50     0.0228842     0.0230858       0.60412       4.73348      0.751249
           51     0.0233632     0.0240929      0.698826       5.84561       1.00846
           52     0.0239674     0.0254024      0.809876        7.1206       1.32587
           53     0.0247185     0.0269269      0.940281       8.52436       1.71121
           54     0.0256763     0.0285382       1.09304       10.0012       2.17076
           55     0.0270073     0.0302363       1.27167       11.4845       2.70079
           56     0.0290342     0.0320231       1.48006       12.9223       3.29153
           57     0.0324897     0.0338999       1.72249       14.2902       3.92909
           58     0.0392356      0.035867       2.00346       15.5764       4.59626
           59     0.0509151     0.0379236        2.3276       16.7951       5.28245
           60     0.0708964     0.0400681       2.69942       17.9419       5.97699
           61      0.104908     0.0423069       3.12292       19.0365       6.68043
           62      0.157421     0.0446391       3.60179       20.1036       7.38764
           63      0.241248     0.0470702        4.1387       21.1484       8.10054
           64      0.367505     0.0496088       4.73506       22.1767       8.82809
           65      0.539667     0.0522691       5.39085       23.1905       9.57749
           66      0.766902     0.0550741       6.10449       24.1879       10.3496
           67       1.05072       0.05806       6.87286        25.173       11.1439
           68       1.39255     0.0612806       7.69148       26.1485       11.9568
           69       1.78875     0.0648176       8.55418       27.1157       12.7895
           70       2.23148     0.0687638       9.45458       28.0718       13.6396
           71       2.71105      0.073243       10.3857       29.0174       14.5052
           72       3.21795     0.0784065       11.3399       29.9525       15.3835
           73       3.73943     0.0844314       12.3093       30.8781       16.2723
           74       4.26558     0.0915172       13.2844       31.7955       17.1695
           75       4.79101     0.0998847       14.2539       32.7057       18.0738
           76       5.31343      0.109763       15.2046       33.6092       18.9831
           77       5.83225      0.121381       16.1247       34.5056       19.8948
           78       6.34774      0.134952       17.0058       35.3946        20.807
           79       6.86037      0.150679       17.8394       36.2768       21.7177
           80       7.36904      0.168591       18.6251        37.151        22.625
           81       7.87519      0.188611       19.3761       38.0177       23.5271
           82       8.38006      0.210874       20.0982       38.8775       24.4225
           83       8.88357       0.23546       20.7954       39.7314       25.3093
           84       9.38626       0.26257       21.4712       40.5792       26.1862
           85       9.88821       0.29242        22.127       41.4211       27.0519
           86       10.3871       0.32522       22.7654       42.2568       27.9051
           87       10.8837      0.361222       23.3882       43.0865       28.7461
           88       11.3776      0.400724       23.9975       43.9098       29.5739
           89       11.8682       0.44388       24.5942       44.7268       30.3871
           90       12.3549      0.490814       25.1791       45.5369       31.1849
           91       12.8373       0.54162       25.7529       46.3396       31.9669
           92       13.3148      0.596358       26.3168       47.1345       32.7327
           93       13.7871      0.655046       26.8713       47.9215        33.482
           94       14.2538      0.717669       27.4173       48.7004       34.2148
           95       14.7147      0.784174       27.9552       49.4709       34.9312
           96       15.1697      0.854474       28.4854       50.2329       35.6312
           97       15.6187      0.928454       29.0082       50.9859        36.315
           98       16.0615       1.00598       29.5236       51.7299       36.9829
           99       16.4983       1.08688       30.0316       52.4643       37.6351
          100       16.9288         1.171       30.5322       53.1889       38.2721
          101       17.3533       1.25816       31.0253       53.9034        38.894
          102       17.7718       1.34817       31.5109       54.6076       39.5014
          103       18.1845       1.44086       31.9891        55.301       40.0945
          104       18.5915       1.53603       32.4599       55.9835       40.6738
          105       18.9929       1.63353       32.9233       56.6548       41.2395
          106       19.3665       1.73406       33.3834       57.3149       41.7899
          107       19.7345       1.83662        33.836        57.964       42.3277
          108       20.0973       1.94107       34.2812       58.6018       42.8534
          109       20.4555       2.04727       34.7188       59.2281        43.367
          110       20.8096       2.15509       35.1491       59.8428       43.8689
          111       21.1598       2.26443       35.5719       60.4455       44.3593
          112       21.5064       2.37517       35.9874       61.0363       44.8384
          113       21.8494       2.48724       36.3955       61.6148       45.3066
          114       22.1891       2.60055       36.7962        62.181        45.764
          115       22.5255       2.71504       37.1896       62.7348       46.2108
          116       22.8585       2.83064       37.5758        63.276       46.6473
          117       23.1882       2.94732       37.9549       63.8045       47.0735
          118       23.5145       3.06503       38.3268       64.3205       47.4897
          119       23.8376       3.18375       38.6918       64.8237       47.8959
          120        24.157       3.30345         39.05       65.3143       48.2923
          121       24.4725       3.42411       39.4014       65.7923        48.679
          122       24.7832       3.54552       39.7461       66.2576        49.056
          123       25.0889       3.66751       40.0843       66.7105       49.4235
          124       25.3896       3.79008       40.4161       67.1508       49.7814
          125       25.6853       3.91291       40.7415       67.5788         50.13
          126       25.9759       4.03614       41.0608       67.9946       50.4693
          127       26.2616       4.15974        41.374       68.3982       50.7995
          128       26.5423       4.28375       41.6812       68.7898       51.1207
          129       26.8179       4.40814       41.9826       69.1695       51.4329
          130       27.0885       4.53285       42.2782       69.5375       51.7364
          131       27.3541       4.65787       42.5682        69.894       52.0312
          132       27.6146       4.78315       42.8528       70.2391       52.3175
          133       27.8701       4.90872       43.1319        70.573       52.5953
          134       28.1206       5.03457       43.4057       70.8958       52.8648
          135       28.3656        5.1607       43.6744       71.2077       53.1261
          136       28.6051       5.28711        43.938       71.5089       53.3792
          137       28.8388       5.41381       44.1967       71.7996       53.6243
          138       29.0669       5.54073       44.4505         72.08       53.8614
          139       29.2892       5.66789       44.6997       72.3502       54.0905
          140       29.5059        5.7953       44.9443       72.6105       54.3118
          141        29.717         5.923       45.1844       72.8609       54.5253
          142       29.9225       6.05099       45.4201       73.1018       54.7312
          143       30.1224        6.1793       45.6516       73.3333       54.9293
          144       30.3168       6.30791        45.879       73.5555       55.1199
          145       30.5057       6.43681       46.1023       73.7687       55.3031
          146         30.69       6.56604       46.3219       73.9728       55.4802
          147       30.8698       6.69564       46.5375       74.1682         55.65
          148       31.0438       6.82561       46.7495       74.3553       55.8126
          149       31.2127       6.95597       46.9578       74.5337       55.9692
          150       31.3765       7.08673       47.1626       74.7042       56.1187
          151        31.535       7.21789       47.3639       74.8665       56.2624
          152       31.6891       7.34948        47.562        75.021       56.4002
          153       31.8378       7.48154       47.7567        75.168        56.531
          154        31.981       7.61405       47.9483       75.3076        56.656
          155       32.1195       7.74703       48.1367       75.4398       56.7752
          156       32.2532       7.88044       48.3222       75.5648       56.8887
          157       32.3822       8.01427       48.5047        75.683       56.9965
          158       32.5062       8.14856       48.6844       75.7945       57.0986
          159       32.6254       8.28352       48.8612       75.8994        57.195
          160       32.7396       8.41905       49.0353       75.9979       57.2859
          161       32.8488       8.55503       49.2067       76.0903       57.3712
          162       32.9531       8.69145       49.3755       76.1766       57.4511
          163       33.0523       8.82829       49.5418        76.257       57.5256
          164       33.1466       8.96553       49.7056       76.3317       57.5949
          165        33.236       9.10313        49.867       76.4008       57.6589
          166       33.3205        9.2411       50.0261       76.4645       57.7178
          167       33.4003       9.37938       50.1828       76.5228       57.7718
          168       33.4755       9.51783       50.3373       76.5761       57.8208
          169        33.546       9.65659       50.4896       76.6243       57.8652
          170       33.6122       9.79569       50.6397       76.6676       57.9049
          171       33.6739       9.93511       50.7878       76.7062       57.9403
          172       33.7313       10.0748       50.9338       76.7401       57.9713
          173       33.7845       10.2148       51.0778       76.7696       57.9987
          174       33.8335       10.3551       51.2198       76.7946       58.0221
          175       33.8784       10.4957         51.36       76.8155       58.0415
          176       33.9194       10.6365       51.4982       76.8322       58.0569
          177       33.9565       10.7774       51.6346       76.8448       58.0685
          178       33.9899       10.9183       51.7692       76.8536       58.0763
          179       34.0196       11.0592       51.9021       76.8586       58.0803
          180       34.0457       11.2004       52.0332       76.8599       58.0807
          181       34.0684       11.3417       52.1626       76.8577       58.0776
          182       34.0876       11.4832       52.2903        76.852       58.0709
          183       34.1035       11.6249       52.4165        76.843       58.0607
          184       34.1162       11.7667        52.541       76.8307       58.0466
          185       34.1257       11.9086        52.664       76.8153        58.029
          186       34.1321       12.0507       52.7854       76.7969       58.0082
          187       34.1356       12.1929       52.9053       76.7756       57.9842
          188       34.1362       12.3352       53.0237       76.7514       57.9572
          189        34.134       12.4774       53.1407       76.7246       57.9272
          190        34.129       12.6194       53.2562       76.6951       57.8945
          191       34.1213       12.7615       53.3703       76.6631       57.8588
          192       34.1111       12.9035        53.483       76.6282       57.8203
          193       34.0983       13.0456       53.5943       76.5906        57.779
          194       34.0831       13.1877       53.7043       76.5503       57.7345
          195       34.0654       13.3298        53.813       76.5075       57.6873
          196       34.0455       13.4718       53.9203       76.4623       57.6375
          197       34.0233       13.6139       54.0263       76.4151       57.5853
          198        33.999        13.756       54.1311       76.3659       57.5308
          199       33.9725        13.898       54.2346       76.3149       57.4739
          200        33.944         14.04       54.3368       76.2621       57.4149
          201       33.9135        14.182       54.4378       76.2076       57.3535
          202        33.881       14.3239       54.5376       76.1515       57.2899
          203       33.8467       14.4657       54.6362       76.0937       57.2243
          204       33.8106       14.6072       54.7336       76.0341       57.1566
          205       33.7728       14.7486       54.8298       75.9728        57.087
          206       33.7332       14.8898       54.9248       75.9099       57.0155
          207        33.692       15.0309       55.0187       75.8453       56.9422
          208       33.6492       15.1718       55.1114       75.7793       56.8672
          209       33.6049       15.3126        55.203       75.7121       56.7903
          210       33.5591       15.4533       55.2934       75.6437       56.7119
          211       33.5118       15.5938       55.3827       75.5743       56.6317
          212       33.4631       15.7342        55.471       75.5041         56.55
          213       33.4131       15.8744       55.5581       75.4332       56.4667
          214       33.3618       16.0145       55.6441       75.3618       56.3819
          215       33.3092       16.1545        55.729       75.2899       56.2955
          216       33.2555       16.2942       55.8129       75.2178       56.2075
          217       33.2007       16.4338       55.8957       75.1454       56.1179
          218       33.1449       16.5732       55.9775        75.073       56.0268
          219        33.088       16.7124       56.0582       75.0005       55.9342
          220       33.0302       16.8515       56.1378       74.9281       55.8402
          221       32.9715       16.9903       56.2164       74.8559        55.745
          222       32.9121       17.1289        56.294       74.7839       55.6485
          223       32.8518       17.2673       56.3706       74.7122        55.551
          224       32.7909       17.4054       56.4462       74.6408       55.4525
          225       32.7294       17.5432       56.5207       74.5699       55.3531
          226       32.6673       17.6807       56.5943       74.4994       55.2529
          227       32.6046        17.818       56.6669       74.4294        55.152
          228       32.5416        17.955       56.7385         74.36       55.0505
          229       32.4781       18.0918       56.8091       74.2913       54.9485
          230       32.4143       18.2283       56.8787       74.2231       54.8461
          231       32.3502       18.3646       56.9474       74.1557       54.7432
          232       32.2858       18.5006       57.0152        74.089       54.6401
          233       32.2213       18.6364        57.082        74.023       54.5368
          234       32.1567       18.7719       57.1478       73.9578       54.4332
          235       32.0919       18.9071       57.2127       73.8935       54.3296
          236       32.0272       19.0421       57.2767       73.8299        54.226
          237       31.9624       19.1768       57.3397       73.7673       54.1223
          238       31.8977       19.3112       57.4019       73.7055       54.0188
          239       31.8331       19.4454       57.4631       73.6447       53.9153
          240       31.7686       19.5792       57.5235       73.5848       53.8121
          241       31.7043       19.7128       57.5829       73.5259        53.709
          242       31.6402       19.8461       57.6414        73.468       53.6062
          243       31.5763       19.9791       57.6991       73.4111       53.5037
          244       31.5127       20.1118       57.7559       73.3553       53.4015
          245       31.4493       20.2442       57.8118       73.3004       53.2995
          246       31.3858       20.3763       57.8668       73.2466       53.1976
          247       31.3224       20.5081       57.9209       73.1938       53.0959
          248       31.2591       20.6396       57.9742       73.1421       52.9945
          249       31.1961       20.7708       58.0267       73.0914       52.8934
          250       31.1334       20.9017       58.0783       73.0418       52.7928
          251        31.071       21.0323        58.129       72.9933       52.6926
          252        31.009       21.1625       58.1789       72.9458        52.593
          253       30.9475       21.2924        58.228       72.8994        52.494
          254       30.8865        21.422       58.2763       72.8541       52.3957
          255       30.8261       21.5513       58.3238       72.8099        52.298
          256       30.7663       21.6803       58.3704       72.7668        52.201
          257       30.7071       21.8089       58.4162       72.7248       52.1047
          258       30.6486       21.9371       58.4613       72.6839       52.0092
          259       30.5908        22.065       58.5055       72.6441       51.9145
          260       30.5338       22.1926       58.5489       72.6054       51.8206
          261       30.4774       22.3198       58.5916       72.5678       51.7275
          262       30.4219       22.4467       58.6335       72.5312       51.6353
          263       30.3671       22.5733       58.6746       72.4958       51.5439
          264       30.3131       22.6995        58.715       72.4614       51.4534
          265         30.26       22.8253       58.7546        72.428       51.3638
          266       30.2076       22.9508       58.7934       72.3956       51.2752
          267       30.1561        23.076       58.8315       72.3641       51.1874
          268       30.1055       23.2009       58.8688       72.3335       51.1006
          269       30.0557       23.3254       58.9054       72.3037       51.0147
          270       30.0067       23.4495       58.9413       72.2748       50.9298
          271       29.9586       23.5733       58.9764       72.2467       50.8458
          272       29.9113       23.6968       59.0108       72.2195       50.7629
          273       29.8649       23.8199       59.0445        72.193       50.6809
          274       29.8193       23.9427       59.0775       72.1674       50.5998
          275       29.7746       24.0651       59.1098       72.1426       50.5198
          276       29.7307       24.1872       59.1414       72.1187       50.4408
          277       29.6876       24.3089       59.1723       72.0956       50.3627
          278       29.6453       24.4303       59.2025       72.0734       50.2857
          279       29.6038       24.5513        59.232        72.052       50.2096
          280       29.5631       24.6719       59.2608       72.0315       50.1346
          281       29.5232       24.7923        59.289       72.0119       50.0605
          282       29.4841       24.9122       59.3165       71.9932       49.9875
          283       29.4458       25.0318       59.3433       71.9753       49.9155
          284       29.4083       25.1511       59.3695       71.9584       49.8444
          285       29.3715         25.27        59.395       71.9422       49.7744
          286       29.3355       25.3885       59.4199        71.927       49.7054
          287       29.3002       25.5067       59.4442       71.9126       49.6373
          288       29.2656       25.6245       59.4678        71.899       49.5703
          289       29.2318        25.742       59.4907       71.8863       49.5042
          290       29.1988       25.8591       59.5131       71.8745       49.4391
          291       29.1664       25.9759       59.5348       71.8634        49.375
          292       29.1348       26.0923       59.5559       71.8532       49.3118
          293       29.1038       26.2084       59.5764       71.8438       49.2497
          294       29.0736       26.3241       59.5963       71.8352       49.1884
          295        29.044       26.4395       59.6156       71.8275       49.1282
          296       29.0151       26.5545       59.6342       71.8205       49.0689
          297        28.987       26.6691       59.6523       71.8143       49.0105
          298       28.9595       26.7835       59.6698       71.8088        48.953
          299       28.9326       26.8974       59.6868       71.8042       48.8965
          300       28.9065        27.011       59.7031       71.8003       48.8408
          301        28.881       27.1243       59.7189       71.7971       48.7861
          302       28.8561       27.2372       59.7341       71.7947       48.7322
          303       28.8319       27.3498       59.7487        71.793       48.6793
          304       28.8083        27.462       59.7628        71.792       48.6272
          305       28.7854       27.5739       59.7763       71.7918        48.576
          306       28.7631       27.6854       59.7892       71.7922       48.5256
          307       28.7414       27.7966       59.8016       71.7933       48.4761
          308       28.7204       27.9074       59.8134       71.7951       48.4275
          309       28.6999       28.0179       59.8247       71.7975       48.3796
          310       28.6801       28.1281       59.8354       71.8006       48.3326
          311       28.6608       28.2379       59.8456       71.8043       48.2864
          312       28.6422       28.3474       59.8553       71.8086        48.241
          313       28.6241       28.4566       59.8644       71.8136       48.1964
          314       28.6066       28.5654        59.873       71.8191       48.1526
          315       28.5897       28.6739        59.881       71.8253       48.1096
          316       28.5733       28.7821       59.8885        71.832       48.0674
          317       28.5575       28.8899       59.8955       71.8393       48.0259
          318       28.5423       28.9974        59.902       71.8472       47.9852
          319       28.5276       29.1045       59.9079       71.8556       47.9452
          320       28.5134       29.2114       59.9133       71.8645        47.906
          321       28.4998       29.3179       59.9182        71.874       47.8675
          322       28.4868       29.4241       59.9226        71.884       47.8297
          323       28.4742       29.5299       59.9265       71.8945       47.7927
          324       28.4622       29.6354         59.93       71.9056       47.7563
          325       28.4507       29.7406       59.9329       71.9171       47.7207
          326       28.4397       29.8455       59.9353       71.9291       47.6858
          327       28.4292         29.95       59.9372       71.9415       47.6516
          328       28.4192       30.0543       59.9386       71.9545        47.618
          329       28.4097       30.1582       59.9395       71.9679       47.5852
          330       28.4007       30.2617       59.9401       71.9817        47.553
          331       28.3922        30.365       59.9401        71.996       47.5214
          332       28.3841        30.468       59.9398       72.0107       47.4906
          333       28.3765       30.5706        59.939       72.0258       47.4603
          334       28.3694       30.6729       59.9378       72.0413       47.4308
          335       28.3627       30.7749       59.9362       72.0572       47.4018
          336       28.3565       30.8766       59.9341       72.0735       47.3735
          337       28.3507       30.9779       59.9315       72.0902       47.3458
          338       28.3454        31.079       59.9286       72.1073       47.3187
          339       28.3404       31.1797       59.9252       72.1247       47.2923
          340       28.3359       31.2802       59.9214       72.1425       47.2664
          341       28.3318       31.3803       59.9173       72.1606       47.2411
          342       28.3281       31.4801       59.9127        72.179       47.2164
          343       28.3248       31.5796       59.9077       72.1978       47.1923
          344       28.3219       31.6788       59.9024       72.2169       47.1688
          345       28.3194       31.7777       59.8967       72.2362       47.1458
          346       28.3172       31.8763       59.8906       72.2559       47.1234
          347       28.3154       31.9746       59.8842       72.2759       47.1016
          348        28.314       32.0726       59.8774       72.2961       47.0802
          349       28.3129       32.1703       59.8702       72.3167       47.0595
          350       28.3121       32.2676       59.8627       72.3374       47.0392
          351       28.3117       32.3647       59.8548       72.3585       47.0195
          352       28.3117       32.4615       59.8467       72.3797       47.0003
          353       28.3119        32.558       59.8382       72.4012       46.9816
          354       28.3125       32.6541       59.8294        72.423       46.9634