8 	0.447951885884776 	-3.81639164714898e-17 	0.276818401823056 	-0.011699849065493 	1.58118614267233e-20
8 	0.469847353982584 	-4.16333634234434e-17 	0.289915961986811 	-0.0122710235026573 	4.36612097649389e-17
8 	0.492544066505222 	-3.90312782094782e-17 	0.303853362394713 	-0.0128217726682119 	1.8005012593827e-16
8 	0.516071310214825 	-3.20923843055709e-17 	0.318691059608062 	-0.0133443568163391 	-1.89419617951449e-16
8 	0.540459439672915 	-3.29597460435593e-17 	0.33449107924267 	-0.0138299206173449 	-3.65576963645714e-17
8 	0.565739915956099 	-2.42861286636753e-17 	0.351316162421567 	-0.0142681457443749 	-3.24818641870663e-20
8 	0.591945346757322 	-1.90819582357449e-17 	0.369228667855748 	-0.0146463096543711 	1.86229686446433e-20
8 	0.619109527920687 	-2.08166817117217e-17 	0.388293030182152 	-0.0149503856899433 	1.24872933302734e-20
8 	0.647267486459308 	-2.42861286636753e-17 	0.408641137336185 	-0.0151780611240232 	8.85999659681973e-21
8 	0.676455525107242 	-2.08166817117217e-17 	0.430643334909224 	-0.0153234024970514 	2.39182084911932e-20
8 	0.706711268458091 	-1.38777878078145e-17 	0.454750789179455 	-0.0153858405008635 	4.09511026138122e-21
8 	0.738073710744478 	-1.38777878078145e-17 	0.481145317730391 	-0.0153460708031336 	-2.96570502304381e-20
8 	0.770583265314232 	-1.38777878078145e-17 	0.509768164332846 	-0.0151807218882185 	-3.4757047294951e-20
8 	0.804281815860736 	-1.38777878078145e-17 	0.540427114896659 	-0.0148727080319492 	-4.88661195389854e-22
8 	0.83921276946661 	-1.04083408558608e-17 	0.572884578002561 	-0.0144134800360418 	-6.04396140120201e-20
8 	0.875421111521546 	-6.93889390390723e-18 	0.606902288933659 	-0.0138007786162264 	4.59195672648644e-20
8 	0.912953462576835 	-1.04083408558608e-17 	0.64223735965026 	-0.0130360342093173 	-2.31586109551398e-20
7.99999999999999 	0.95185813720085 	-1.28477957439532e-17 	0.678605433521572 	-0.0121238375112503 	5.2366003132661e-20
7.99999999999999 	0.992185204901424 	-6.7762635780344e-18 	0.715664299502113 	-0.0110603060014694 	-2.64315267869259e-20
7.99999999999999 	1.03398655318282 	-4.33680868994202e-18 	0.752905882314026 	-0.00987252862968269 	9.31649740111824e-20
7.99999999999999 	1.07731595280667 	-8.67361737988404e-19 	0.789759723871738 	-0.00859150937994118 	-1.56364686247646e-19
7.99999999999999 	1.12222912532785 	-8.67361737988404e-19 	0.825547845469312 	-0.00725724924106381 	2.03650843896887e-21
7.99999999999999 	1.16878381297823 	-8.67361737988404e-18 	0.859509647642317 	-0.00592353275745058 	8.83697929487369e-22
8 	1.21703985097228 	-8.67361737988404e-18 	0.890969727314403 	-0.00464390435999617 	8.46897761756807e-20
8 	1.26705924231071 	-8.67361737988404e-18 	0.919624070148906 	-0.00343292600998116 	-5.42027445741537e-20
8 	1.3189062351593 	-6.93889390390723e-18 	0.945795929567691 	-0.00223843631725942 	-9.64008842623739e-21
8 	1.37264740288181 	-5.20417042793042e-18 	0.968747170194537 	-0.00109837849485177 	-1.12960555837821e-21
8 	1.41220272459524 	-6.93889390390723e-18 	0.984279841699364 	-0.000240828148870742 	9.7704080372609e-22
8 	1.43617694926586 	-3.46944695195361e-18 	0.993821390342289 	0.000300557958902289 	0
8 	1.45930396367274 	0 	1.00148521696648 	0.000757437086481347 	0
8 	1.48161370685419 	0 	1.00827587320507 	0.00117883878589333 	0
8 	1.50313505985141 	0 	1.01425295490165 	0.00156690405582573 	0
8 	1.52389588309638 	3.46944695195361e-18 	1.01946964571234 	0.00192316922429721 	0
8 	1.54392305247857 	6.93889390390723e-18 	1.02397242553609 	0.00224968949929133 	0
8 	1.56324249413703 	6.93889390390723e-18 	1.02780102053287 	0.00254864182606464 	0
8 	1.58187921802306 	3.46944695195361e-18 	1.03098850446893 	0.00282217236034198 	0
8 	1.59985735027679 	-3.46944695195361e-18 	1.03356150347061 	0.0030723473656481 	0
8 	1.61720016445966 	-6.93889390390723e-18 	1.03554046237049 	0.00330112367289302 	0
8 	1.63393011168312 	-6.93889390390723e-18 	1.03693994847978 	0.00351032625105816 	0
8 	1.65006884967273 	-6.93889390390723e-18 	1.03776899046665 	0.00370163536401076 	0
8 	1.66563727080512 	-3.46944695195361e-18 	1.03803145339584 	0.00387657927427515 	0
8 	1.68065552915414 	0 	1.03772645926146 	0.00403653059002479 	0
8 	1.69514306658136 	0 	1.03684887847085 	0.00418270412747435 	0
8 	1.70911863790442 	0 	1.03538992075157 	0.00431615518074402 	0
8 	1.7226003351761 	0 	1.03333785167107 	0.0044377778827582 	0
8 	1.73560561110536 	-3.46944695195361e-18 	1.03067885333391 	0.0045483038107993 	0
8 	1.74815130165068 	-6.93889390390723e-18 	1.02739803320944 	0.00464830121718739 	0
8 	1.76025364781502 	-6.93889390390723e-18 	1.02348056477457 	0.00473817559781019 	0
8 	1.77192831667064 	-6.93889390390723e-18 	1.01891291882947 	0.00481817243591354 	0
8 	1.78319042164083 	-6.93889390390723e-18 	1.01368411791285 	0.00488838331410058 	0
8 	1.79405454206499 	-6.93889390390723e-18 	1.00778692390295 	0.00494875638864529 	0
8 	1.80453474207227 	-6.93889390390723e-18 	1.0012188573333 	0.00499911174191682 	0
8 	1.81464458878828 	-6.93889390390723e-18 	0.99398295107008 	0.00503916149824823 	0
8 	1.8243971698984 	-6.93889390390723e-18 	0.986088162114439 	0.00506853391797888 	0
8 	1.83380511059041 	-6.93889390390723e-18 	0.977549400053832 	0.00508680011071566 	0
8 	1.84288058989839 	-6.93889390390723e-18 	0.968387172115121 	0.00509350168944346 	0
8 	1.85163535646909 	-6.93889390390723e-18 	0.958626883921059 	0.00508817773918502 	0
8 	1.86008074377113 	-6.93889390390723e-18 	0.94829786389581 	0.00507038989113916 	0
8 	1.8682276847667 	-3.46944695195361e-18 	0.937432192992248 	0.0050397449701563 	0
8 	1.8760867260648 	3.46944695195361e-18 	0.926063419362062 	0.00499591540163421 	0
8 	1.88366804157438 	3.46944695195361e-18 	0.914225222940362 	0.00493865808358837 	0
8 	1.89098144567491 	3.46944695195361e-18 	0.901950073424984 	0.00486783247121913 	0
8 	1.89803640592159 	6.93889390390723e-18 	0.889267903380181 	0.00478341799833941 	0
8 	1.90484205530155 	6.93889390390723e-18 	0.876204802208817 	0.00468552990244422 	0
8 	1.91140720405698 	6.93889390390723e-18 	0.86278173107925 	0.00457443132965653 	0
8 	1.91774035109035 	6.93889390390723e-18 	0.849013263629479 	0.00445053621035818 	0
8 	1.9238496949667 	6.93889390390723e-18 	0.834906356098538 	0.00431439847632409 	0
8 	1.92974314452705 	6.93889390390723e-18 	0.820459127510942 	0.00416669242179095 	0
8 	1.9354283291268 	6.93889390390723e-18 	0.805659586751129 	0.0040081933113893 	0
8 	1.9409126085123 	6.93889390390723e-18 	0.790484203994074 	0.00383976159654106 	0
8 	1.94620308234835 	6.93889390390723e-18 	0.774896211369652 	0.00366232472382217 	0
8 	1.95130659940914 	6.93889390390723e-18 	0.758843506151389 	0.00347685512343654 	0
8 	1.95622976644424 	6.93889390390723e-18 	0.742255990610573 	0.00328434834706734 	0
8 	1.96097895673142 	6.93889390390723e-18 	0.725042119272296 	0.00308580707599324 	0
8 	1.96556031832711 	6.93889390390723e-18 	0.707084336269648 	0.0028822323810885 	0
8 	1.96997978202541 	6.93889390390723e-18 	0.688232976775029 	0.0026746225484129 	0
8 	1.97424306903576 	6.93889390390723e-18 	0.668298085660669 	0.00246397947526185 	0
8 	1.9783556983893 	6.93889390390723e-18 	0.647038479731767 	0.00225132250647248 	0
8 	1.98232299408358 	6.93889390390723e-18 	0.624147313352915 	0.00203770979805299 	0
8 	1.9861500919747 	6.93889390390723e-18 	0.599233621651764 	0.00182426774106817 	0
8 	1.98984194642589 	6.93889390390723e-18 	0.571800419775971 	0.00161222950217259 	0
8 	1.99340333672126 	3.46944695195361e-18 	0.541223567964206 	0.00140298288409055 	0
8 	1.99683887325273 	0 	0.5067457825997 	0.00119812140647264 	0
8 	2.00015300348845 	0 	0.4675245587045 	0.000999486474460264 	0
8 	2.00335001773022 	-3.46944695195361e-18 	0.42281459002413 	0.000809233853250285 	0
8 	2.00643405466757 	-6.93889390390723e-18 	0.372373351487046 	0.000630073448776136 	0
8 	2.00940910673542 	-6.93889390390723e-18 	0.316977324221728 	0.000465668053771418 	0
8 	2.01227902528252 	-6.93889390390723e-18 	0.258506327674619 	0.000320519624410639 	0
8 	2.01504752555717 	-6.93889390390723e-18 	0.199174150136601 	0.000199007635155819 	0
8 	2.01771819151684 	-6.93889390390723e-18 	0.140560798544462 	0.000104809635739601 	0
8 	2.02029448046774 	-6.93889390390723e-18 	0.0833668179463921 	4.08387934199726e-05 	0
8 	2.02277972754048 	-6.93889390390723e-18 	0.027595340475604 	7.41776470799297e-06 	0
