/*--------------------------------*- C++ -*----------------------------------*\
  =========                 |
  \\      /  F ield         | OpenFOAM: The Open Source CFD Toolbox
   \\    /   O peration     | Website:  https://openfoam.org
    \\  /    A nd           | Version:  7
     \\/     M anipulation  |
\*---------------------------------------------------------------------------*/
FoamFile
{
    version     2.0;
    format      ascii;
    class       volScalarField;
    location    "20000";
    object      Cx;
}
// * * * * * * * * * * * * * * * * * * * * * * * * * * * * * * * * * * * * * //

dimensions      [0 1 0 0 0 0 0];

internalField   nonuniform List<scalar> 
15600
(
0.0366379686320119
0.109813421411876
0.181664403209759
0.248891902185414
0.309200007162546
0.363752196789992
0.414781368238178
0.463899710097573
0.512289784648637
0.560893206559298
0.610166026468452
0.660087043645238
0.710526261967188
0.761346571025011
0.812416925226945
0.863795085566216
0.915846590200955
0.969098920520566
1.02416178998513
1.08173909829377
1.14243431250841
1.20651476998127
1.27392508020808
1.34424684828523
1.4165028121064
1.48966078652315
1.5630061016552
1.63628203891923
1.70955797618325
1.78283391344727
1.8561098507113
1.92938578797532
2.00266172523935
2.07593766250337
2.1492135997674
2.22248953703142
2.29576547429544
2.36904141155947
2.44231734882349
2.51559328608751
2.58886922335154
2.66214516061557
2.73542109787959
2.80869703514361
2.88197297240763
2.95524890967166
3.02852484693568
3.1018007841997
3.17507672146373
3.24835265872775
3.32162859599178
3.3949045332558
3.46818047051982
3.54145640778385
3.61473234504787
3.68800828231189
3.76128421957592
3.83456015683995
3.90783609410397
3.981112031368
4.05438796863202
4.12766390589605
4.20093984316007
4.2742157804241
4.34749171768812
4.42076765495214
4.49404359221616
4.56731952948019
4.64059546674421
4.71387140400823
4.78714734127226
4.86042327853628
4.93369921580031
5.00697515306433
5.08025109032835
5.15352702759238
5.2268029648564
5.30007890212042
5.37335483938444
5.44663077664847
5.51990671391249
5.59318265117652
5.66645858844054
5.73973452570457
5.81301046296859
5.88628640023261
5.95956233749663
6.03283827476066
6.10611421202468
6.1793901492887
6.25266608655273
6.32594202381675
6.39921796108078
6.4724938983448
6.54583645698185
6.61899561110731
6.69125834461582
6.76158728333827
6.82900692587665
6.89309726524122
6.95380207210707
7.01138808912608
7.06645741679951
7.11971401066726
7.17176822496956
7.22314768000443
7.27421865554723
7.3250398352836
7.37548041776847
7.42540310988781
7.4746779775203
7.52328304262509
7.57167251263601
7.62078684522675
7.67180801186712
7.72634728372834
7.78663522333353
7.85384413625637
7.92568765393868
7.99886203136799
0.0366253715478826
0.109776145482943
0.181607927707162
0.248834711152472
0.309169557378634
0.363771331220707
0.414864093156785
0.464053625420586
0.512517779322836
0.561194417568211
0.610537784303396
0.660526766373424
0.711031886435751
0.761916581016506
0.813050326710703
0.864490648273892
0.916601621385889
0.969908621604025
1.02501892736614
1.08263362616043
1.14335377830234
1.20744565497627
1.27485408438875
1.34516234009161
1.41739706251336
1.49053026211582
1.56385010629186
1.63710084938762
1.71035159248339
1.78360233557915
1.85685307867492
1.93010382177069
2.00335456486646
2.07660530796222
2.14985605105799
2.22310679415375
2.29635753724952
2.36960828034528
2.44285902344105
2.51610976653681
2.58936050963258
2.66261125272835
2.73586199582411
2.80911273891987
2.88236348201564
2.9556142251114
3.02886496820717
3.10211571130293
3.1753664543987
3.24861719749447
3.32186794059023
3.39511868368599
3.46836942678176
3.54162016987753
3.61487091297329
3.68812165606906
3.76137239916482
3.83462314226059
3.90787388535636
3.98112462845213
4.05437537154789
4.12762611464366
4.20087685773943
4.27412760083519
4.34737834393095
4.42062908702672
4.49387983012248
4.56713057321825
4.64038131631401
4.71363205940978
4.78688280250554
4.86013354560131
4.93338428869707
5.00663503179284
5.0798857748886
5.15313651798437
5.22638726108014
5.2996380041759
5.37288874727166
5.44613949036743
5.5193902334632
5.59264097655896
5.66589171965473
5.73914246275049
5.81239320584626
5.88564394894202
5.95889469203779
6.03214543513355
6.10539617822932
6.17864692132508
6.25189766442085
6.32514840751661
6.39839915061238
6.47164989370815
6.54496699238641
6.61810136731996
6.69034283241848
6.76065823011512
6.82807595455796
6.89217767366106
6.95290738014468
7.01053075285641
7.06564749103215
7.11895873776121
7.17107240970956
7.22251402078685
7.2736483853491
7.32453394714511
7.37504042593905
7.42503107628454
7.47437648258074
7.52305475744848
7.57151830918025
7.62070384812283
7.67178863709108
7.72637754446844
7.7866923053042
7.85390057662886
7.92572492484881
7.99887462845212
0.0366123129966778
0.109737504030389
0.181549383343338
0.248775425044617
0.309137992135262
0.363791166593839
0.41494984848694
0.464213179030082
0.51275412600985
0.561506662727245
0.610923160641472
0.660982597373994
0.711556033365031
0.76250747211147
0.813706931524707
0.865211691472161
0.91738431158049
0.970747984428201
1.02590746422404
1.08356092322072
1.14430692682027
1.20841064098787
1.27581712065979
1.34611136897225
1.41832407185855
1.4914315890748
1.56472502922258
1.63794965521594
1.71117428120929
1.78439890720265
1.85762353319601
1.93084815918937
2.00407278518272
2.07729741117608
2.15052203716943
2.22374666316279
2.29697128915614
2.3701959151495
2.44342054114286
2.51664516713621
2.58986979312957
2.66309441912292
2.73631904511628
2.80954367110964
2.88276829710299
2.95599292309634
3.0292175490897
3.10244217508306
3.17566680107641
3.24889142706977
3.32211605306312
3.39534067905648
3.46856530504984
3.54178993104319
3.61501455703654
3.6882391830299
3.76146380902326
3.83468843501661
3.90791306100997
3.98113768700333
4.05436231299669
4.12758693899004
4.2008115649834
4.27403619097676
4.34726081697011
4.42048544296347
4.49371006895682
4.56693469495017
4.64015932094353
4.71338394693689
4.78660857293024
4.8598331989236
4.93305782491695
5.00628245091031
5.07950707690367
5.15273170289702
5.22595632889037
5.29918095488373
5.37240558087708
5.44563020687044
5.5188548328638
5.59207945885715
5.66530408485051
5.73852871084387
5.81175333683722
5.88497796283058
5.95820258882393
6.03142721481728
6.10465184081064
6.177876466804
6.25110109279736
6.32432571879071
6.39755034478406
6.47077497077742
6.54406567682745
6.61717436483691
6.68939378239994
6.7596951430051
6.82711087906046
6.89122439474905
6.95197991297739
7.00964200982399
7.06480789529322
7.1181757969905
7.17035110470718
7.22185714879744
7.27305722451536
7.32400952688687
7.37458431597923
7.4246454140759
7.47406394308981
7.52281810961714
7.571358456883
7.62061781063655
7.67176855256816
7.72640891374282
7.78675147835448
7.85395908457565
7.92576356109874
7.99888768700333
0.0365987760735831
0.109697447031246
0.181488694330012
0.248713967113129
0.30910527057026
0.363811728586412
0.415038745238367
0.464378577467221
0.512999130661342
0.56183034624318
0.611322654362987
0.661455126735933
0.712099381283827
0.763120009243582
0.814387589673386
0.86595914858541
0.918195674015738
0.971618095590899
1.02682855081541
1.08452218990753
1.14529499195898
1.20941097723415
1.2768154357123
1.34709516348297
1.4192850401923
1.49236593420357
1.56563200306992
1.63882955521709
1.71202710736426
1.78522465951142
1.85842221165859
1.93161976380576
2.00481731595293
2.07801486810009
2.15121242024726
2.22440997239442
2.29760752454159
2.37080507668876
2.44400262883593
2.51720018098309
2.59039773313026
2.66359528527742
2.73679283742459
2.80999038957176
2.88318794171892
2.95638549386609
3.02958304601326
3.10278059816042
3.17597815030759
3.24917570245476
3.32237325460192
3.39557080674909
3.46876835889626
3.54196591104342
3.61516346319059
3.68836101533775
3.76155856748492
3.83475611963209
3.90795367177926
3.98115122392643
4.05434877607359
4.12754632822076
4.20074388036793
4.2739414325151
4.34713898466226
4.42033653680942
4.49353408895659
4.56673164110375
4.63992919325092
4.71312674539809
4.78632429754525
4.85952184969242
4.93271940183959
5.00591695398675
5.07911450613392
5.15231205828109
5.22550961042825
5.29870716257541
5.37190471472258
5.44510226686975
5.51829981901692
5.59149737116408
5.66469492331125
5.73789247545842
5.81109002760558
5.88428757975275
5.95748513189992
6.03068268404708
6.10388023619425
6.17707778834142
6.25027534048859
6.32347289263575
6.39667044478291
6.46986799693008
6.54313134351627
6.61621340361674
6.68840996597702
6.7586967752513
6.82611045005024
6.89023619443961
6.95101846995211
7.00872070950531
7.0639375426834
7.11736417479976
7.16960337619911
7.22117621368592
7.27244440776309
7.32346589562622
7.37411149743891
7.42424562401149
7.47373995445972
7.52257279278955
7.57119274881641
7.62052862139299
7.67174773229882
7.7264414321599
7.78681281908676
7.85401973583793
7.92580361270464
7.99890122392642
0.0365847432545176
0.109655922630197
0.181425782102478
0.248650257797758
0.309071350324588
0.363833043816025
0.415130898487189
0.464550034838962
0.513253110436415
0.562165887129623
0.611736782623328
0.661944966164613
0.712662633577221
0.763754985368124
0.815093182299204
0.866733987232059
0.91903675904026
0.972520081495279
1.02778337953423
1.08551867062921
1.1463192528165
1.21044795869559
1.27785032190703
1.34811499718477
1.42028121152586
1.4933345070486
1.56657220194732
1.63974168845635
1.71291117496539
1.78608066147443
1.85925014798346
1.9324196344925
2.00558912100153
2.07875860751057
2.1519280940196
2.22509758052864
2.29826706703768
2.37143655354671
2.44460604005575
2.51777552656478
2.59094501307382
2.66411449958285
2.73728398609188
2.81045347260092
2.88362295910996
2.95679244561899
3.02996193212803
3.10313141863706
3.1763009051461
3.24947039165513
3.32263987816417
3.39580936467321
3.46897885118224
3.54214833769127
3.61531782420031
3.68848731070934
3.76165679721838
3.83482628372742
3.90799577023645
3.98116525674549
4.05433474325453
4.12750422976356
4.2006737162726
4.27384320278163
4.34701268929067
4.4201821757997
4.49335166230873
4.56652114881777
4.6396906353268
4.71286012183584
4.78602960834488
4.85919909485391
4.93236858136295
5.00553806787198
5.07870755438102
5.15187704089005
5.22504652739909
5.29821601390812
5.37138550041716
5.44455498692619
5.51772447343523
5.59089395994426
5.6640634464533
5.73723293296233
5.81040241947137
5.88357190598041
5.95674139248944
6.02991087899847
6.10308036550751
6.17624985201655
6.24941933852558
6.32258882503462
6.39575831154365
6.46892779805268
6.54216278292168
6.61521723965742
6.68739010956035
6.75766183442477
6.82507337242677
6.88921179345973
6.95002180643222
7.00776565922973
7.06303530648692
7.11652282050407
7.16882825621562
7.22047033395125
7.27180914177505
7.3229023496113
7.37362135823833
7.4238311885523
7.47340409728186
7.52231848940248
7.57102097047272
7.62043616493734
7.67172614933116
7.72647514181577
7.78687640690957
7.85408260893147
7.9258451315149
7.99891525674548
0.0365701963734477
0.109612877072164
0.181360565218116
0.248584214623721
0.309036187487504
0.363855139875325
0.415226427524869
0.464727773095226
0.513516394112117
0.562513719749409
0.612166081522405
0.662452749773657
0.713246519397104
0.764413222488487
0.815824622823345
0.867537210477168
0.919908655480069
0.973455109808053
1.02877318645553
1.08655165538053
1.14738103534796
1.21152292779137
1.27892311894735
1.34917219029247
1.42131387544178
1.49433856146513
1.567546842979
1.6406872357259
1.71382762847279
1.78696802121969
1.86010841396659
1.93324880671348
2.00638919946038
2.07952959220727
2.15266998495417
2.22581037770106
2.29895077044796
2.37209116319486
2.44523155594175
2.51837194868865
2.59151234143554
2.66465273418244
2.73779312692933
2.81093351967623
2.88407391242313
2.95721430517002
3.03035469791691
3.10349509066381
3.1766354834107
3.2497758761576
3.3229162689045
3.39605666165139
3.46919705439829
3.54233744714518
3.61547783989208
3.68861823263897
3.76175862538587
3.83489901813277
3.90803941087966
3.98117980362656
4.05432019637346
4.12746058912035
4.20060098186725
4.27374137461414
4.34688176736104
4.42002216010793
4.49316255285483
4.56630294560172
4.63944333834862
4.71258373109551
4.78572412384241
4.85886451658931
4.9320049093362
5.0051453020831
5.07828569482999
5.15142608757688
5.22456648032378
5.29770687307068
5.37084726581757
5.44398765856447
5.51712805131136
5.59026844405826
5.66340883680515
5.73654922955205
5.80968962229895
5.88283001504584
5.95597040779273
6.02911080053963
6.10225119328652
6.17539158603342
6.24853197878032
6.32167237152721
6.3948127642741
6.467953157021
6.54115874120428
6.61418458338593
6.68633289290572
6.75658898075142
6.82399830364634
6.88814986567294
6.94898863218629
7.0067756226354
7.06210001871308
7.11565064492888
7.16802474132741
7.21973859580057
7.27115060417261
7.32231815930995
7.37311326387582
7.42340157120073
7.47305593678392
7.52205487025996
7.57084289948654
7.62034032158569
7.67170377572589
7.72651008634857
7.78694232414038
7.85414778524827
7.92588817127733
7.99892980362656
0.0365551165988719
0.109568254633053
0.181292959250714
0.24851575209497
0.308999736539711
0.363878045367716
0.41532545601263
0.464912022316161
0.513789322509026
0.56287429437685
0.612611106798614
0.66297913490579
0.713851794606082
0.765095572720262
0.816582858128163
0.868369858130966
0.920812492048098
0.974424390971109
1.02979925293552
1.08762248141269
1.14848171408207
1.21263727611731
1.28003521561353
1.35026811138376
1.42238436876333
1.49537939724035
1.56855718787558
1.64166742107332
1.71477765427106
1.78788788746881
1.86099812066656
1.9341083538643
2.00721858706205
2.08032882025979
2.15343905345753
2.22654928665528
2.29965951985302
2.37276975305077
2.44587998624851
2.51899021944625
2.592100452644
2.66521068584174
2.73832091903948
2.81143115223723
2.88454138543497
2.95765161863272
3.03076185183046
3.10387208502821
3.17698231822595
3.25009255142369
3.32320278462144
3.39631301781918
3.46942325101692
3.54253348421467
3.61564371741241
3.68875395061016
3.7618641838079
3.83497441700565
3.90808465020339
3.98119488340114
4.05430511659888
4.12741534979663
4.20052558299437
4.27363581619211
4.34674604938985
4.4198562825876
4.49296651578534
4.56607674898309
4.63918698218083
4.71229721537858
4.78540744857632
4.85851768177406
4.9316279149718
5.00473814816955
5.07784838136729
5.15095861456503
5.22406884776278
5.29717908096052
5.37028931415827
5.44339954735601
5.51650978055375
5.5896200137515
5.66273024694924
5.73584048014699
5.80895071334473
5.88206094654248
5.95517117974022
6.02828141293796
6.1013916461357
6.17450187933345
6.24761211253119
6.32072234572894
6.39383257892668
6.46694281212442
6.54011791859331
6.6131140979889
6.68523694740496
6.75547682537765
6.82288385198416
6.88704903636243
6.94791760971785
7.00574931806878
7.06113046858411
7.11474651899985
7.16719179134671
7.21898005196625
7.27046794245116
7.32171256846541
7.37258655660636
7.42295621580613
7.47269502226716
7.52178159410714
7.57065830534694
7.62024096726993
7.67168058252037
7.72654631099494
7.78701065611225
7.85421534916203
7.92593278770851
7.99894488340113
0.0365394844094429
0.10952199754734
0.181222876681385
0.248444781583445
0.308961950294445
0.363901789944376
0.415428112141516
0.465103021009947
0.514072248932402
0.563248077780589
0.613072434548225
0.663524802983772
0.714479242755958
0.765802919394333
0.817368869782954
0.869233008094923
0.921749438805381
0.975429179768467
1.0308629072704
1.08873253496442
1.14962271390061
1.21379244624721
1.28118805156058
1.35140417917079
1.42349407728501
1.49645836177593
1.56960454456732
1.6426835133862
1.71576248220509
1.78884145102398
1.86192041984287
1.93499938866176
2.00807835748064
2.08115732629953
2.15423629511842
2.2273152639373
2.30039423275619
2.37347320157507
2.44655217039396
2.51963113921284
2.59271010803173
2.66578907685061
2.7388680456695
2.81194701448839
2.88502598330727
2.95810495212616
3.03118392094505
3.10426288976393
3.17734185858282
3.2504208274017
3.32349979622059
3.39657876503947
3.46965773385836
3.54273670267725
3.61581567149613
3.68889464031501
3.7619736091339
3.83505257795279
3.90813154677168
3.98121051559057
4.05428948440945
4.12736845322834
4.20044742204722
4.27352639086611
4.34660535968499
4.41968432850388
4.49276329732277
4.56584226614165
4.63892123496054
4.71200020377943
4.78507917259831
4.85815814141719
4.93123711023608
5.00431607905496
5.07739504787385
5.15047401669274
5.22355298551162
5.29663195433051
5.36971092314939
5.44278989196828
5.51586886078717
5.58894782960605
5.66202679842493
5.73510576724382
5.80818473606271
5.88126370488159
5.95434267370048
6.02742164251937
6.10050061133825
6.17357958015714
6.24665854897602
6.31973751779491
6.39281648661379
6.46589545543268
6.53903896770416
6.61200439768213
6.68410085431432
6.75432392857252
6.82172857473262
6.88590788045155
6.94680735253386
7.00468541692546
7.06012540096778
7.11380927228135
7.16632832798069
7.21819372047955
7.26976027287661
7.32108479311726
7.37204055459014
7.42249454584486
7.4723208865229
7.52149830718858
7.5704669490993
7.62013797337721
7.67165653969095
7.72658386264871
7.78708149128421
7.85428538813715
7.92597903856624
7.99896051559056
0.0365232795686969
0.109474045933449
0.181150226785123
0.248371211214403
0.308922779836387
0.363926404342649
0.415534528798298
0.465301016421523
0.514365539629497
0.5636355538278
0.613550661971129
0.66409046039249
0.715129676102034
0.766536178200377
0.818183675314633
0.870127777757137
0.922720708675758
0.976470776950711
1.03196552641594
1.08988325305657
1.15080551188288
1.21498993360041
1.28238311918182
1.35258186433676
1.42464443756645
1.49757685183226
1.5706902688973
1.64373682803469
1.71678338717209
1.78982994630948
1.86287650544688
1.93592306458427
2.00896962372167
2.08201618285906
2.15506274199646
2.22810930113385
2.30115586027125
2.37420241940864
2.44724897854603
2.52029553768342
2.59334209682082
2.66638865595821
2.73943521509561
2.812481774233
2.8855283333704
2.95857489250779
3.03162145164518
3.10466801078258
3.17771456991997
3.25076112905737
3.32380768819476
3.39685424733215
3.46990080646955
3.54294736560694
3.61599392474433
3.68904048388173
3.76208704301912
3.83513360215652
3.90818016129392
3.98122672043131
4.05427327956871
4.1273198387061
4.20036639784349
4.27341295698089
4.34645951611829
4.41950607525568
4.49255263439307
4.56559919353046
4.63864575266785
4.71169231180525
4.78473887094264
4.85778543008004
4.93083198921743
5.00387854835483
5.07692510749222
5.14997166662961
5.22301822576701
5.2960647849044
5.36911134404179
5.44215790317919
5.51520446231658
5.58825102145398
5.66129758059137
5.73434413972876
5.80739069886616
5.88043725800355
5.95348381714094
6.02653037627834
6.09957693541574
6.17262349455313
6.24567005369052
6.31871661282792
6.39176317196531
6.46480973110271
6.53792049179407
6.61085404591661
6.68292314291785
6.75312879786389
6.82053097633374
6.88472492065892
6.94565642334986
7.00358254193016
7.05908351475255
7.11283769146125
7.16543323343549
7.21737858339955
7.26902667934122
7.32043402058661
7.37147455100999
7.42201596367403
7.47193304522787
7.52120464279035
7.57026858303579
7.62003120658357
7.6716316161142
7.72662278992156
7.78715492135574
7.85435799284228
7.92602698372399
7.9989767204313
0.0365064810988581
0.109424337716172
0.181074915513459
0.248294945747485
0.308882174458336
0.363951920425822
0.415644843737506
0.465506264852593
0.514669574263623
0.564037224110519
0.614046408143882
0.664676839393374
0.715803936654598
0.767296298372236
0.819028329524957
0.871055325438849
0.923727559016063
0.977550530918861
1.03310853777001
1.09107612535241
1.15203163921798
1.2162312883776
1.28362196554092
1.3538026914397
1.42583693879203
1.49873631533654
1.5718157663765
1.64482872857421
1.71784169077193
1.79085465296965
1.86386761516737
1.93688057736509
2.00989353956281
2.08290650176052
2.15591946395824
2.22893242615595
2.30194538835367
2.37495835055139
2.4479713127491
2.52098427494682
2.59399723714453
2.66701019934225
2.74002316153997
2.81303612373768
2.8860490859354
2.95906204813312
3.03207501033083
3.10508797252855
3.17810093472626
3.25111389692398
3.3241268591217
3.39713982131942
3.47015278351713
3.54316574571485
3.61617870791256
3.68919167011028
3.762204632308
3.83521759450571
3.90823055670343
3.98124351890115
4.05425648109887
4.12726944329658
4.2002824054943
4.27329536769201
4.34630832988973
4.41932129208745
4.49233425428516
4.56534721648288
4.63836017868059
4.71137314087831
4.78438610307603
4.85739906527375
4.93041202747146
5.00342498966918
5.07643795186689
5.14945091406461
5.22246387626233
5.29547683846004
5.36848980065776
5.44150276285547
5.51451572505319
5.58752868725091
5.66054164944862
5.73355461164634
5.80656757384406
5.87958053604177
5.95259349823948
6.0256064604372
6.09861942263492
6.17163238483264
6.24464534703035
6.31765830922807
6.39067127142579
6.4636842336235
6.53676104295415
6.60966155351899
6.68170228862358
6.75188988610645
6.81928950644309
6.88349862558599
6.94446333222933
7.00243926535383
7.05800346116326
7.11183051878015
7.16450534896932
7.21653358549526
7.26826621217786
7.3197594084241
7.37088781315634
7.42151984975781
7.47153099631717
7.52090022076536
7.57006295037491
7.61992052868122
7.67160577952663
7.7266631432058
7.78723104138566
7.85443325726732
7.92607668524862
7.99899351890115
0.0364890672536819
0.109372808546352
0.180996845372622
0.24821588645335
0.308840081595593
0.363978371224373
0.415759199759697
0.465719031993383
0.514984746405574
0.564453608594926
0.614560314821093
0.665284699072301
0.716502897268911
0.76808426391673
0.819903925856001
0.872016851893935
0.924771293243847
0.978669839469952
1.03429342102043
1.09231269608611
1.15330268318691
1.21751811756764
1.2849061943745
1.355068240886
1.4270731246987
1.49993825325718
1.57298249400331
1.64596062851067
1.71893876301804
1.7919168975254
1.86489503203276
1.93787316654013
2.0108513010475
2.08382943555486
2.15680757006222
2.22978570456959
2.30276383907695
2.37574197358431
2.44872010809168
2.52169824259904
2.5946763771064
2.66765451161377
2.74063264612113
2.8136107806285
2.88658891513586
2.95956704964323
3.03254518415059
3.10552331865795
3.17850145316532
3.25147958767268
3.32445772218005
3.39743585668741
3.47041399119477
3.54339212570213
3.6163702602095
3.68934839471686
3.76232652922423
3.8353046637316
3.90828279823896
3.98126093274633
4.05423906725369
4.12721720176106
4.20019533626842
4.27317347077578
4.34615160528315
4.41912973979051
4.49210787429787
4.56508600880523
4.6380641433126
4.71104227781996
4.78402041232733
4.85699854683469
4.92997668134206
5.00295481584942
5.07593295035678
5.14891108486415
5.22188921937151
5.29486735387888
5.36784548838624
5.4408236228936
5.51380175740097
5.58677989190833
5.6597580264157
5.73273616092306
5.80571429543043
5.87869242993779
5.95167056444515
6.02464869895251
6.09762683345988
6.17060496796724
6.2435831024746
6.31656123698197
6.38953937148933
6.4625175059967
6.53555912023498
6.60842537676377
6.68043671098992
6.75060558947892
6.8180025579228
6.88222740773463
6.94322653465482
7.00125410716526
7.05688384201496
7.11078645040319
7.16354347339229
7.21565763287968
7.26747788693047
7.31906008331926
7.37027958147873
7.42100556186556
7.47111421933447
7.52058464704133
7.56984978492906
7.61980579639974
7.67157899648285
7.72670497473983
7.78730994991497
7.85451127884544
7.92612820748062
7.99901093274632
0.0364710154903052
0.109319391717546
0.180915915297402
0.248133930985964
0.308796446757892
0.364005790978722
0.415877744896316
0.465939593266522
0.515311464043068
0.564885246294397
0.615093047266134
0.665914826322231
0.717227462775125
0.768901094887479
0.820811597805654
0.87301360186333
0.925853262524713
0.979830151606598
1.03552171006054
1.0935945660618
1.1546202892174
1.21885208702783
1.28623746816826
1.35638015097627
1.42835459557425
1.50118422154672
1.57419196214954
1.64713399313015
1.72007602411077
1.79301805509138
1.86596008607199
1.9389021170526
2.01184414803321
2.08478617901382
2.15772820999443
2.23067024097504
2.30361227195565
2.37655430293627
2.44949633391688
2.52243836489749
2.5953803958781
2.66832242685871
2.74126445783932
2.81420648881993
2.88714851980054
2.96009055078115
3.03303258176176
3.10597461274237
3.17891664372298
3.25185867470359
3.3248007056842
3.39774273666481
3.47068476764542
3.54362679862603
3.61656882960664
3.68951086058725
3.76245289156787
3.83539492254848
3.90833695352909
3.9812789845097
4.05422101549031
4.12716304647093
4.20010507745154
4.27304710843215
4.34598913941276
4.41893117039337
4.49187320137398
4.56481523235458
4.63775726333519
4.71069929431581
4.78364132529642
4.85658335627703
4.92952538725764
5.00246741823825
5.07540944921886
5.14835148019947
5.22129351118008
5.29423554216069
5.3671775731413
5.44011960412191
5.51306163510252
5.58600366608313
5.65894569706374
5.73188772804436
5.80482975902496
5.87777179000558
5.95071382098619
6.0236558519668
6.09659788294741
6.16953991392802
6.24248194490863
6.31542397588924
6.38836600686985
6.46130803785046
6.53431316770366
6.607143915375
6.67912477167978
6.74927424540786
6.81666846476113
6.880909621452
6.94194442952856
7.00002553311522
7.05572320790296
7.10970413473222
7.16254636151152
7.21474959159366
7.26666068307981
7.3183351399701
7.36964906860264
7.42047243424037
7.47068217475829
7.5202575131107
7.56962881075998
7.61968686122065
7.67155123231233
7.72674833867562
7.78739174909459
7.85459215857894
7.92618161711748
7.9990289845097
0.0364523024400644
0.109264018079651
0.180832020520319
0.248048973250009
0.308751213458879
0.364034215183556
0.416000632601282
0.466168234183543
0.515650150108822
0.565332695967212
0.615645295112316
0.666568036861817
0.7179785711496
0.769747848705377
0.821752520394976
0.874046865686405
0.926974867521472
0.981032969412781
1.03679499497492
1.09492339472594
1.15598616301406
1.22023492364044
1.28761751030907
1.35774012002612
1.42968301032898
1.50247583315609
1.57544573651568
1.64835034139581
1.72125494627594
1.79415955115607
1.8670641560362
1.93996876091633
2.01287336579646
2.08577797067659
2.15868257555672
2.23158718043685
2.30449178531697
2.3773963901971
2.45030099507723
2.52320559995736
2.59611020483749
2.66901480971762
2.74191941459775
2.81482401947788
2.887728624358
2.96063322923813
3.03353783411826
3.10644243899839
3.17934704387852
3.25225164875865
3.32515625363878
3.39806085851891
3.47096546339904
3.54387006827916
3.61677467315929
3.68967927803942
3.76258388291955
3.83548848779968
3.90839309267981
3.98129769755994
4.05420230244007
4.1271069073202
4.20001151220033
4.27291611708046
4.34582072196059
4.41872532684072
4.49162993172085
4.56453453660097
4.6374391414811
4.71034374636123
4.78324835124136
4.85615295612149
4.92905756100162
5.00196216588175
5.07486677076188
5.147771375642
5.22067598052214
5.29358058540226
5.36648519028239
5.43938979516252
5.51229440004265
5.58519900492278
5.6581036098029
5.73100821468304
5.80391281956316
5.87681742444329
5.94972202932342
6.02262663420355
6.09553123908368
6.16843584396381
6.24134044884394
6.31424505372407
6.3871496586042
6.46005426348432
6.53302157242966
6.60581551045469
6.67776477233973
6.74789413041546
6.81528549991567
6.87954356080019
6.94061535709968
6.99875195275016
7.05452005632646
7.10858217065598
7.1615127225191
7.21380828613805
7.26581354272225
7.3175836399111
7.3689954583102
7.41991977673735
7.47023430330363
7.5199183955018
7.56939974182169
7.61956356918512
7.67152245107459
7.7267932911488
7.78747654481744
7.8546760011702
7.92623698329995
7.99904769755994
0.0364329038782445
0.109206615949519
0.180745052435924
0.247960903263629
0.30870432314298
0.364063680633766
0.416128021949606
0.466405250714427
0.516001243027995
0.56579653683983
0.616217773255581
0.667245176291362
0.71875719472911
0.770625621527459
0.822727911689291
0.875117980971368
0.928137560207374
0.9822798499984
1.03811492409785
1.09630090231557
1.1574020727664
1.22166841754819
1.28904810731589
1.35914990856462
1.43106008864307
1.5038147601225
1.57674544015761
1.6496112479141
1.72247705567059
1.79534286342708
1.86820867118357
1.94107447894006
2.01394028669655
2.08680609445304
2.15967190220953
2.23253770996602
2.30540351772251
2.37826932547899
2.45113513323549
2.52400094099197
2.59686674874846
2.66973255650495
2.74259836426144
2.81546417201793
2.88832997977442
2.96119578753091
3.0340615952874
3.10692740304389
3.17979321080038
3.25265901855687
3.32552482631336
3.39839063406985
3.47125644182633
3.54412224958282
3.61698805733931
3.6898538650958
3.76271967285229
3.83558548060878
3.90845128836527
3.98131709612176
4.05418290387825
4.12704871163474
4.19991451939123
4.27278032714772
4.34564613490421
4.4185119426607
4.49137775041719
4.56424355817368
4.63710936593016
4.70997517368665
4.78284098144314
4.85570678919963
4.92857259695612
5.00143840471261
5.0743042124691
5.14717002022559
5.22003582798208
5.29290163573857
5.36576744349506
5.43863325125154
5.51149905900803
5.58436486676452
5.65723067452102
5.73009648227751
5.80296229003399
5.87582809779048
5.94869390554697
6.02155971330346
6.09442552105995
6.16729132881644
6.24015713657293
6.31302294432941
6.38588875208591
6.45875455984239
6.5316826623969
6.60443844233539
6.67635495240149
6.74646345788844
6.81385187307771
6.87812745734781
6.93923759681558
6.99743171735333
7.05327282974347
7.10741910573636
7.16044121832114
7.21283249795186
7.26493536920035
7.31680461029842
7.36831790448358
7.41934687393025
7.46977002519798
7.51956685523088
7.5691622815901
7.61943576069475
7.67149261551254
7.72683989035143
7.78756444685572
7.85476291515705
7.92629437770156
7.99906709612176
0.0364127946927209
0.109147111017969
0.180654898460299
0.247869607015991
0.308655715109622
0.36409422547208
0.416260077843304
0.466650949670677
0.516365197285659
0.566277369356647
0.61681122277991
0.667947121187424
0.719564341469558
0.771535549665886
0.823739034375019
0.876228334326842
0.92934284574577
0.98357240751506
1.03948320614717
1.09772887208523
1.1588698514379
1.22315442447167
1.29053111115247
1.36061134161329
1.43248761319274
1.50520273573394
1.57809275558769
1.65091834497313
1.72374393435858
1.79656952374402
1.86939511312946
1.94222070251491
2.01504629190035
2.08787188128579
2.16069747067124
2.23352306005668
2.30634864944212
2.37917423882756