/*--------------------------------*- C++ -*----------------------------------*\
  =========                 |
  \\      /  F ield         | OpenFOAM: The Open Source CFD Toolbox
   \\    /   O peration     | Website:  https://openfoam.org
    \\  /    A nd           | Version:  7
     \\/     M anipulation  |
\*---------------------------------------------------------------------------*/
FoamFile
{
    version     2.0;
    format      ascii;
    class       volScalarField;
    location    "20000";
    object      Cy;
}
// * * * * * * * * * * * * * * * * * * * * * * * * * * * * * * * * * * * * * //

dimensions      [0 1 0 0 0 0 0];

internalField   nonuniform List<scalar> 
15600
(
1.0019554547921
0.99938472242561
0.987180338581583
0.959621912097566
0.918546533442375
0.869757169374534
0.817251556350638
0.762948864537229
0.708001513665191
0.653259246325667
0.599115580649119
0.545559656333668
0.492487481877301
0.43977415729828
0.387297469071108
0.33512231131158
0.283624888023827
0.233382060287171
0.185151261831221
0.139994339160247
0.0991700505460855
0.0639565709013091
0.0357414599653341
0.0160382478751284
0.0062081506463241
0.00390952159104964
0.00391090958419403
0.00391090958419403
0.00391090958419399
0.00391090958419403
0.003910909584194
0.00391090958419394
0.00391090958419391
0.003910909584194
0.00391090958419397
0.00391090958419386
0.00391090958419391
0.00391090958419397
0.00391090958419394
0.00391090958419405
0.00391090958419408
0.00391090958419406
0.00391090958419399
0.00391090958419417
0.00391090958419402
0.003910909584194
0.00391090958419386
0.00391090958419392
0.00391090958419397
0.00391090958419389
0.00391090958419386
0.00391090958419403
0.00391090958419397
0.00391090958419403
0.00391090958419414
0.00391090958419405
0.00391090958419397
0.00391090958419392
0.00391090958419397
0.00391090958419392
0.00391090958419389
0.00391090958419394
0.00391090958419382
0.00391090958419398
0.00391090958419418
0.00391090958419398
0.00391090958419406
0.00391090958419405
0.00391090958419399
0.00391090958419397
0.00391090958419391
0.00391090958419398
0.00391090958419398
0.00391090958419389
0.00391090958419391
0.00391090958419406
0.00391090958419408
0.003910909584194
0.00391090958419405
0.003910909584194
0.00391090958419394
0.00391090958419403
0.00391090958419392
0.00391090958419391
0.00391090958419398
0.00391090958419391
0.00391090958419409
0.00391090958419396
0.00391090958419394
0.00391090958419403
0.00391090958419403
0.00391090958419405
0.003910909584194
0.00391090958419394
0.00390957673795895
0.0061936716977849
0.015994561815015
0.035670623035517
0.0638630549338363
0.0990581010777812
0.139867743734752
0.185014116421208
0.233237783451753
0.283475864888725
0.334970527614324
0.387144404980192
0.439620408903426
0.492332846944811
0.545403832167588
0.598958139545261
0.653099924016286
0.707840871105459
0.76278866926594
0.817094445996166
0.869607218076811
0.918412106419805
0.959518978226772
0.98712292209354
0.999368309303545
1.0019554547921
1.00593821428583
1.00337774031781
0.991222057725607
0.963773646612899
0.922862315618647
0.874267784371792
0.82197177838441
0.767885804657709
0.713157694363187
0.658633820803827
0.604706168542994
0.551363925152729
0.498503510905295
0.446000522091612
0.393733230688141
0.34176626342337
0.290474319444063
0.240431959893192
0.192393598342552
0.147416847388363
0.106755448012437
0.071682476539814
0.0435799540803329
0.0239553686515416
0.0141645016422579
0.0118750457681123
0.0118764285716566
0.0118764285716566
0.0118764285716568
0.0118764285716566
0.0118764285716567
0.0118764285716565
0.0118764285716566
0.0118764285716566
0.0118764285716567
0.0118764285716566
0.0118764285716566
0.0118764285716568
0.0118764285716568
0.0118764285716566
0.0118764285716567
0.0118764285716566
0.0118764285716567
0.0118764285716567
0.0118764285716565
0.0118764285716566
0.0118764285716568
0.0118764285716565
0.0118764285716565
0.0118764285716566
0.0118764285716566
0.0118764285716567
0.0118764285716568
0.0118764285716567
0.0118764285716567
0.0118764285716567
0.0118764285716565
0.0118764285716566
0.0118764285716565
0.0118764285716566
0.0118764285716565
0.0118764285716566
0.0118764285716566
0.0118764285716565
0.0118764285716567
0.0118764285716567
0.0118764285716567
0.0118764285716568
0.0118764285716569
0.0118764285716565
0.0118764285716566
0.0118764285716565
0.0118764285716565
0.0118764285716567
0.0118764285716565
0.0118764285716565
0.0118764285716567
0.0118764285716567
0.0118764285716566
0.0118764285716567
0.0118764285716568
0.0118764285716567
0.0118764285716567
0.0118764285716566
0.0118764285716565
0.0118764285716567
0.0118764285716566
0.0118764285716565
0.0118764285716568
0.0118764285716566
0.0118764285716567
0.0118764285716566
0.0118764285716566
0.0118764285716568
0.0118751007088077
0.0141500804651855
0.023911856928129
0.0435093998226563
0.0715893337239027
0.106643945233625
0.147290757065022
0.192257000117407
0.240288258709403
0.29032589090718
0.341615085355286
0.393580777355218
0.445847387178649
0.49834949296946
0.551208722700883
0.604549355574766
0.658475134084877
0.712997692679741
0.767726248603867
0.821815295112511
0.8741184317703
0.922728425443872
0.963671123789419
0.991164870372326
1.00336139268876
1.00593821428583
1.01006687360508
1.00751703384947
0.995411836747147
0.968077471313957
0.927336196784651
0.878943634563706
0.826864913436615
0.77300359670515
0.718502758803351
0.664205280056728
0.610501554914736
0.557380820559268
0.504739924167568
0.452454976513902
0.400404752886778
0.348653602878129
0.297574665652513
0.247740118131292
0.199901243056338
0.15511126398115
0.114618720796252
0.0796914045042419
0.0517055947395744
0.0321625161278683
0.0224123164260345
0.0201323697733472
0.0201337472101568
0.0201337472101568
0.0201337472101568
0.0201337472101568
0.0201337472101568
0.020133747210157
0.0201337472101568
0.0201337472101568
0.0201337472101567
0.0201337472101568
0.020133747210157
0.0201337472101569
0.020133747210157
0.0201337472101569
0.0201337472101567
0.0201337472101569
0.0201337472101568
0.0201337472101567
0.0201337472101567
0.0201337472101569
0.0201337472101569
0.0201337472101568
0.0201337472101568
0.0201337472101568
0.0201337472101568
0.020133747210157
0.0201337472101569
0.0201337472101569
0.0201337472101568
0.0201337472101567
0.0201337472101569
0.0201337472101568
0.0201337472101569
0.0201337472101567
0.0201337472101568
0.0201337472101568
0.0201337472101569
0.0201337472101569
0.0201337472101567
0.0201337472101568
0.0201337472101569
0.020133747210157
0.0201337472101569
0.0201337472101568
0.0201337472101567
0.0201337472101569
0.0201337472101568
0.0201337472101568
0.0201337472101568
0.0201337472101568
0.0201337472101568
0.0201337472101568
0.0201337472101568
0.0201337472101568
0.0201337472101569
0.020133747210157
0.0201337472101569
0.020133747210157
0.0201337472101568
0.0201337472101568
0.0201337472101569
0.0201337472101568
0.0201337472101567
0.0201337472101569
0.0201337472101567
0.0201337472101569
0.0201337472101568
0.0201337472101567
0.0201324245007894
0.0223979551363232
0.0321191851272939
0.0516353335085346
0.079598648508804
0.114507681069913
0.154985697262962
0.199765212061022
0.247597013687191
0.297426853496098
0.348503052625622
0.400252932686111
0.452302477556981
0.504586545831475
0.557226262597828
0.610345393093931
0.66404725221368
0.718343421475337
0.772844703285971
0.826709080218158
0.878794902587782
0.927202863121034
0.967975374594908
0.995354886923227
1.00750075411284
1.01006687360508
1.01434677746363
1.01180796150298
0.999755099503258
0.972538957709064
0.931973968515281
0.883790772868653
0.831937295638982
0.778308865629477
0.724043626191545
0.669980836435038
0.616509242052022
0.563618131632308
0.511204794946227
0.459145876131247
0.407320672252161
0.355793245661247
0.304935118396804
0.25531599578345
0.207683915004223
0.163087549749514
0.122770048283765
0.0879937227144945
0.0601289009278973
0.040670314784551
0.0309622721205648
0.0286921830397976
0.0286935549272468
0.0286935549272468
0.0286935549272467
0.0286935549272468
0.0286935549272468
0.0286935549272468
0.0286935549272468
0.0286935549272468
0.0286935549272468
0.0286935549272468
0.0286935549272467
0.0286935549272468
0.0286935549272468
0.0286935549272468
0.0286935549272467
0.0286935549272465
0.0286935549272468
0.0286935549272468
0.0286935549272467
0.0286935549272467
0.0286935549272467
0.0286935549272468
0.0286935549272468
0.0286935549272468
0.0286935549272468
0.0286935549272467
0.0286935549272468
0.0286935549272468
0.0286935549272467
0.0286935549272469
0.0286935549272467
0.0286935549272468
0.0286935549272467
0.0286935549272467
0.0286935549272468
0.0286935549272468
0.0286935549272467
0.0286935549272468
0.0286935549272467
0.0286935549272468
0.0286935549272468
0.0286935549272468
0.0286935549272467
0.0286935549272468
0.0286935549272467
0.0286935549272467
0.0286935549272468
0.0286935549272467
0.0286935549272467
0.0286935549272466
0.0286935549272468
0.0286935549272467
0.0286935549272467
0.0286935549272467
0.0286935549272468
0.0286935549272468
0.0286935549272468
0.0286935549272467
0.0286935549272468
0.0286935549272468
0.0286935549272467
0.0286935549272469
0.0286935549272468
0.0286935549272467
0.0286935549272468
0.0286935549272467
0.0286935549272468
0.0286935549272468
0.0286922375467287
0.0309479729115852
0.0406271711268698
0.0600589434572558
0.0879013677091189
0.122659488572261
0.162962525817299
0.20754847201796
0.255173509939617
0.304787945201109
0.355643346223498
0.407169508377693
0.458994036427813
0.51105207964103
0.563464241771906
0.616353755233497
0.66982349160654
0.723884977558347
0.778150659120026
0.831782136286302
0.883642684250794
0.931841211746251
0.972437302703126
0.999698395910883
1.01179175214606
1.01434677746363
1.01878346636592
1.01625607805587
1.00425746854205
0.977163881407165
0.936781634543948
0.888815473932129
0.837195491148879
0.78380847905935
0.729787469193583
0.675967966491044
0.622737007067722
0.570083932783778
0.517906492268679
0.466081882596836
0.414489941751759
0.363194434376351
0.312565206145501
0.26316940020866
0.215751689255525
0.171356030398879
0.131219982761917
0.096600178896478
0.068860776968774
0.0494897783042821
0.0398254369792816
0.0375655665819848
0.0375669327318337
0.0375669327318337
0.0375669327318338
0.0375669327318338
0.0375669327318337
0.0375669327318337
0.0375669327318337
0.0375669327318337
0.0375669327318336
0.0375669327318338
0.0375669327318338
0.0375669327318337
0.0375669327318336
0.0375669327318337
0.0375669327318337
0.0375669327318337
0.0375669327318338
0.0375669327318338
0.0375669327318337
0.0375669327318336
0.0375669327318337
0.0375669327318337
0.0375669327318336
0.0375669327318338
0.0375669327318338
0.0375669327318338
0.0375669327318336
0.0375669327318337
0.0375669327318338
0.0375669327318335
0.0375669327318337
0.0375669327318337
0.0375669327318337
0.0375669327318336
0.0375669327318336
0.0375669327318336
0.0375669327318337
0.0375669327318337
0.0375669327318337
0.0375669327318337
0.0375669327318337
0.0375669327318336
0.0375669327318338
0.0375669327318337
0.0375669327318337
0.0375669327318336
0.0375669327318337
0.0375669327318336
0.0375669327318336
0.0375669327318338
0.0375669327318337
0.0375669327318337
0.0375669327318336
0.0375669327318336
0.0375669327318336
0.0375669327318336
0.0375669327318337
0.0375669327318338
0.0375669327318338
0.0375669327318336
0.0375669327318338
0.0375669327318335
0.0375669327318337
0.0375669327318338
0.0375669327318338
0.0375669327318338
0.0375669327318337
0.0375669327318337
0.0375656208609242
0.0398112021247176
0.0494468288520341
0.0687911343854561
0.0965082395697728
0.131109920648934
0.171231569136056
0.21561685581878
0.263027555626504
0.312418695317958
0.363045209595132
0.41433945824711
0.465930726297857
0.517754464283939
0.569930735500003
0.622582219980332
0.675811329700136
0.729629534486358
0.78365098462404
0.837041030346501
0.888668052237421
0.936649475799426
0.977062684294737
1.00420102020224
1.01623994165711
1.01878346636592
1.02338268377933
1.02086714177163
1.00892477238121
0.98195822959464
0.941765418534299
0.89402424224865
0.842646306648329
0.789509556191367
0.735741723219536
0.682174420656598
0.629192911967187
0.576786594210811
0.524853691741492
0.473271974863696
0.42192184232529
0.370866750210281
0.320474806423183
0.271310498039125
0.224115009960055
0.179927409896382
0.139979463078781
0.105521914495422
0.0779125266401993
0.058632323829344
0.0490132847141069
0.0467640073403948
0.0467653675586675
0.0467653675586675
0.0467653675586677
0.0467653675586678
0.0467653675586677
0.0467653675586676
0.0467653675586675
0.0467653675586676
0.0467653675586676
0.0467653675586676
0.0467653675586675
0.0467653675586676
0.0467653675586676
0.0467653675586676
0.0467653675586675
0.0467653675586677
0.0467653675586675
0.0467653675586676
0.0467653675586675
0.0467653675586677
0.0467653675586675
0.0467653675586675
0.0467653675586677
0.0467653675586677
0.0467653675586676
0.0467653675586675
0.0467653675586677
0.0467653675586675
0.0467653675586676
0.0467653675586676
0.0467653675586676
0.0467653675586676
0.0467653675586674
0.0467653675586674
0.0467653675586673
0.0467653675586676
0.0467653675586675
0.0467653675586676
0.0467653675586676
0.0467653675586676
0.0467653675586675
0.0467653675586676
0.0467653675586676
0.0467653675586676
0.0467653675586675
0.0467653675586677
0.0467653675586674
0.0467653675586674
0.0467653675586676
0.0467653675586675
0.0467653675586675
0.0467653675586674
0.0467653675586677
0.0467653675586674
0.0467653675586674
0.0467653675586675
0.0467653675586676
0.0467653675586675
0.0467653675586676
0.0467653675586676
0.0467653675586675
0.0467653675586677
0.0467653675586675
0.0467653675586677
0.0467653675586678
0.0467653675586677
0.0467653675586675
0.0467653675586675
0.0467640613836333
0.0489991165708941
0.0585895756964344
0.077843210478688
0.105430406074006
0.139869916792124
0.179803531914729
0.22398080840236
0.27116931821023
0.320328982228772
0.370718224800762
0.4217720641149
0.473121527004901
0.524702376256622
0.576634114875968
0.629038850245771
0.682018517843129
0.735584528593885
0.789352799916546
0.842492569985004
0.89387751190519
0.941633879718028
0.981857507148786
1.00886858864551
1.02085108100393
1.02338268377933
1.02815038356914
1.02564712185375
1.01376305305325
0.98692820878597
0.946931772136642
0.899423820581174
0.848296798154279
0.795419477004889
0.741914096048077
0.688608233275579
0.635885314084302
0.583734792730963
0.532055386781079
0.480725460808192
0.429625994899233
0.378820125336336
0.328674158597427
0.279749828341539
0.232784703868697
0.188812784327766
0.149059828804454
0.114770479098854
0.0872958678076666
0.068109786741216
0.0585377093482684
0.0562994130514206
0.0563007671382866
0.0563007671382867
0.0563007671382866
0.0563007671382866
0.0563007671382867
0.0563007671382866
0.0563007671382868
0.0563007671382867
0.0563007671382867
0.0563007671382866
0.0563007671382867
0.0563007671382865
0.0563007671382866
0.0563007671382865
0.0563007671382868
0.0563007671382867
0.0563007671382866
0.0563007671382865
0.0563007671382868
0.0563007671382866
0.0563007671382867
0.0563007671382866
0.0563007671382865
0.0563007671382867
0.0563007671382867
0.0563007671382867
0.0563007671382867
0.0563007671382868
0.0563007671382866
0.0563007671382866
0.0563007671382865
0.0563007671382866
0.0563007671382867
0.0563007671382866
0.0563007671382867
0.0563007671382866
0.0563007671382866
0.0563007671382865
0.0563007671382866
0.0563007671382867
0.0563007671382869
0.0563007671382869
0.0563007671382866
0.0563007671382866
0.0563007671382868
0.0563007671382865
0.0563007671382866
0.0563007671382867
0.0563007671382867
0.0563007671382867
0.0563007671382864
0.0563007671382866
0.0563007671382867
0.0563007671382866
0.0563007671382866
0.0563007671382866
0.0563007671382866
0.0563007671382868
0.0563007671382867
0.0563007671382867
0.0563007671382868
0.0563007671382867
0.0563007671382868
0.0563007671382866
0.0563007671382867
0.0563007671382868
0.0563007671382867
0.0563007671382866
0.0562994668510168
0.0585236103596417
0.0680672473021234
0.0872268900249233
0.114679417367087
0.148950817239584
0.188689510994115
0.232651157337573
0.279609337618101
0.328529046190026
0.378672324919137
0.429476947820651
0.48057574734246
0.531904809897952
0.583583057646909
0.635732004302901
0.688453091329834
0.741757668617919
0.795263485932532
0.848143812156065
0.89927780691175
0.946800875954476
0.986827978394153
1.01370714361587
1.02563113948795
1.02815038356914
1.03309273770583
1.03060220617298
1.01877857392708
0.99208025285841
0.952287383339451
0.905021198688904
0.854154280151604
0.801545891814385
0.748312577803355
0.695277733003847
0.642822876899819
0.590937523014313
0.539520900255803
0.488451989279316
0.437612372841449
0.387064855771914
0.337173877134188
0.288498316260553
0.241771994349286
0.198023656261931
0.158472834910635
0.124357845387955
0.0970229475931702
0.0779344359815798
0.0684110406131973
0.066184127662011
0.0661854754116683
0.0661854754116684
0.0661854754116684
0.0661854754116683
0.0661854754116684
0.0661854754116684
0.0661854754116684
0.0661854754116685
0.0661854754116686
0.0661854754116685
0.0661854754116684
0.0661854754116682
0.0661854754116685
0.0661854754116686
0.0661854754116685
0.0661854754116685
0.0661854754116684
0.0661854754116684
0.0661854754116685
0.0661854754116685
0.0661854754116684
0.0661854754116684
0.0661854754116685
0.0661854754116685
0.0661854754116684
0.0661854754116684
0.0661854754116685
0.0661854754116684
0.0661854754116684
0.0661854754116684
0.0661854754116685
0.0661854754116685
0.0661854754116685
0.0661854754116684
0.0661854754116684
0.0661854754116685
0.0661854754116687
0.0661854754116684
0.0661854754116683
0.0661854754116685
0.0661854754116684
0.0661854754116685
0.0661854754116684
0.0661854754116684
0.0661854754116685
0.0661854754116685
0.0661854754116684
0.0661854754116685
0.0661854754116686
0.0661854754116685
0.0661854754116683
0.0661854754116684
0.0661854754116684
0.0661854754116687
0.0661854754116683
0.0661854754116684
0.0661854754116684
0.0661854754116685
0.0661854754116685
0.0661854754116684
0.0661854754116685
0.0661854754116686
0.0661854754116685
0.0661854754116684
0.0661854754116685
0.0661854754116684
0.0661854754116684
0.0661854754116685
0.0661841812097858
0.0683970133118473
0.0778921128808965
0.0969543205841168
0.124267246708346
0.158364377655171
0.197901009725796
0.241639126840225
0.288358539886852
0.337029502589189
0.386917806906263
0.437464083678737
0.488303037110334
0.539371089032538
0.590786559446491
0.642670346606067
0.695123379801354
0.748156945676046
0.801390693977223
0.854002072316185
0.90487592794369
0.952157153328766
0.991980532544972
1.01872294883741
1.03058630508146
1.03309273770583
1.03821614425477
1.03573880927757
1.02397782781619
0.997421031380917
0.957839185126812
0.910823622374767
0.860226335060624
0.807896731171631
0.754945451297323
0.702191553590132
0.650014581255967
0.598404109227024
0.547259896554554
0.496461562589358
0.445891314872058
0.395611614707151
0.345984965338786
0.297567287161976
0.251088515915951
0.207571949641651
0.168230666988045
0.134296424636584
0.107106358099882
0.0881189899345509
0.0786460599094285
0.0764309473089753
0.0764322885095386
0.0764322885095386
0.0764322885095384
0.0764322885095386
0.0764322885095386
0.0764322885095386
0.0764322885095386
0.0764322885095386
0.0764322885095385
0.0764322885095386
0.0764322885095385
0.0764322885095387
0.0764322885095385
0.0764322885095386
0.0764322885095387
0.0764322885095386
0.0764322885095384
0.0764322885095386
0.0764322885095386
0.0764322885095386
0.0764322885095385
0.0764322885095386
0.0764322885095385
0.0764322885095386
0.0764322885095385
0.0764322885095385
0.0764322885095386
0.0764322885095386
0.0764322885095386
0.0764322885095386
0.0764322885095384
0.0764322885095386
0.0764322885095386
0.0764322885095385
0.0764322885095385
0.0764322885095385
0.0764322885095386
0.0764322885095386
0.0764322885095386
0.0764322885095385
0.0764322885095387
0.0764322885095385
0.0764322885095384
0.0764322885095386
0.0764322885095386
0.0764322885095386
0.0764322885095386
0.0764322885095385
0.0764322885095387
0.0764322885095386
0.0764322885095387
0.0764322885095385
0.0764322885095387
0.0764322885095385
0.0764322885095387
0.0764322885095385
0.0764322885095386
0.0764322885095385
0.0764322885095385
0.0764322885095384
0.0764322885095386
0.0764322885095385
0.0764322885095386
0.0764322885095386
0.0764322885095385
0.0764322885095385
0.0764322885095386
0.0764322885095385
0.0764310005965082
0.078632106920777
0.0880768910968769
0.107038094713434
0.134206305970967
0.168122784347092
0.207449952863907
0.250956352303461
0.297428251307105
0.34584135568685
0.395465344925229
0.445743811390541
0.496313399606398
0.547110879040552
0.598253945439792
0.649862859006796
0.70203801802776
0.754790643610063
0.807742355629347
0.860074933892925
0.910679121765298
0.957709645686949
0.997321839830383
1.02392249749185
1.03572299243795
1.03821614425477
1.04352723565851
1.04106358069696
1.02936754538375
1.00295745824822
0.963594364453
0.916838602864306
0.866520823051366
0.814480216130632
0.761821302750863
0.709358645051824
0.657469736981868
0.606144217101412
0.555282394097414
0.504764549462159
0.454473538447259
0.404471466321823
0.355118829600249
0.306968481294157
0.260746329290719
0.21747002521983
0.178345957021217
0.144599082778095
0.117559152712852
0.0986766328906948
0.0892560168521714
0.0870531368836294
0.0870544713170205
0.0870544713170205
0.0870544713170205
0.0870544713170205
0.0870544713170205
0.0870544713170205
0.0870544713170206
0.0870544713170205
0.0870544713170204
0.0870544713170204
0.0870544713170204
0.0870544713170205
0.0870544713170206
0.0870544713170205
0.0870544713170206
0.0870544713170205
0.0870544713170206
0.0870544713170204
0.0870544713170205
0.0870544713170205
0.0870544713170206
0.0870544713170206
0.0870544713170204
0.0870544713170205
0.0870544713170206
0.0870544713170204
0.0870544713170204
0.0870544713170205
0.0870544713170206
0.0870544713170205
0.0870544713170205
0.0870544713170205
0.0870544713170204
0.0870544713170204
0.0870544713170204
0.0870544713170206
0.0870544713170204
0.0870544713170206
0.0870544713170206
0.0870544713170207
0.0870544713170205
0.0870544713170204
0.0870544713170206
0.0870544713170205
0.0870544713170205
0.0870544713170204
0.0870544713170205
0.0870544713170204
0.0870544713170205
0.0870544713170205
0.0870544713170205
0.0870544713170207
0.0870544713170203
0.0870544713170205
0.0870544713170204
0.0870544713170206
0.0870544713170205
0.0870544713170205
0.0870544713170205
0.0870544713170205
0.0870544713170205
0.0870544713170205
0.0870544713170205
0.0870544713170205
0.0870544713170206
0.0870544713170204
0.0870544713170205
0.0870544713170206
0.0870531899022529
0.089242140897763
0.0986347665308928
0.117491266268543
0.144509461709586
0.178238670043649
0.217348702002444
0.26061489536053
0.306830213085888
0.354976012862274
0.404326004164471
0.454326849429396
0.504617204576225
0.5551341993697
0.605994882394642
0.657318852380453
0.709205957085224
0.761667349708429
0.814326693007546
0.866370258100444
0.916694900598708
0.963465540876766
1.00285881482953
1.02931252062406
1.04104785119595
1.04352723565851
1.04903288732254
1.0465834135496
1.03495470385568
1.00869670063121
0.969560371545767
0.923073926528082
0.873045892217341
0.821304868888492
0.768949032907648
0.716788285260133
0.665197994944785
0.614167866448172
0.563598778304608
0.513371698455668
0.463370153633442
0.413655880108408
0.364587294157483
0.316714068986431
0.270757937016863
0.227730696561209
0.188831799741236
0.155279157060701
0.128394862996816
0.109621032114141
0.100254646422957
0.0980644472032202
0.0980657746450657
0.0980657746450655
0.0980657746450655
0.0980657746450658
0.0980657746450657
0.0980657746450655
0.0980657746450656
0.0980657746450655
0.0980657746450656
0.0980657746450655
0.0980657746450655
0.0980657746450655
0.0980657746450655
0.0980657746450657
0.0980657746450656
0.0980657746450655
0.0980657746450657
0.0980657746450657
0.0980657746450655
0.0980657746450655
0.0980657746450657
0.0980657746450656
0.0980657746450654
0.0980657746450655
0.0980657746450654
0.0980657746450656
0.0980657746450659
0.0980657746450655
0.0980657746450655
0.0980657746450655
0.0980657746450656
0.0980657746450655
0.0980657746450655
0.0980657746450655
0.0980657746450657
0.0980657746450657
0.0980657746450657
0.0980657746450656
0.0980657746450656
0.0980657746450655
0.0980657746450654
0.0980657746450656
0.0980657746450655
0.0980657746450655
0.0980657746450655
0.0980657746450655
0.0980657746450655
0.0980657746450659
0.0980657746450657
0.0980657746450655
0.0980657746450655
0.0980657746450655
0.0980657746450656
0.0980657746450654
0.0980657746450655
0.0980657746450654
0.0980657746450655
0.0980657746450655
0.0980657746450655
0.0980657746450656
0.0980657746450654
0.0980657746450656
0.0980657746450655
0.0980657746450657
0.0980657746450656
0.0980657746450657
0.0980657746450655
0.0980657746450657
0.0980644999440172
0.100240850323976
0.109579406747965
0.128327367302037
0.155190051816439
0.188725130246947
0.227610071578038
0.270627259499309
0.316576596546326
0.364445299380903
0.413511255162045
0.463224308916147
0.513225201636911
0.563451436505446
0.614019391195169
0.665047978678932
0.716636475942508
0.768795965821514
0.82115222941256
0.872896194114598
0.922931051847534
0.969432290052206
1.00859862542273
1.03489999585568
1.04656777458701
1.04903288732254
1.05474022651545
1.05230545346615
1.04074653605288
1.01464618825516
0.975744929550467
0.929537664960213
0.879809989121912
0.828379523816069
0.77633786855503
0.724490091949602
0.673209359542839
0.622485444126916
0.572219815040542
0.522294151876207
0.472592677489544
0.423176745719831
0.374402616406364
0.326816666404312
0.281136299644234
0.238367246630291
0.199701769577491
0.166350473312967
0.139627516213016
0.120966355534882
0.11165618674957
0.109479132811356
0.109480453030891
0.109480453030891
0.109480453030891
0.109480453030891
0.109480453030891
0.109480453030891
0.109480453030891
0.109480453030891
0.109480453030891
0.109480453030891
0.109480453030891
0.109480453030891
0.109480453030891
0.109480453030891
0.109480453030891
0.109480453030891
0.109480453030891
0.109480453030891
0.109480453030891
0.109480453030891
0.109480453030891
0.109480453030891
0.109480453030891
0.109480453030891
0.109480453030891
0.109480453030891
0.109480453030891
0.109480453030891
0.109480453030891
0.109480453030891
0.109480453030891
0.109480453030891
0.109480453030891
0.109480453030891
0.109480453030891
0.109480453030891
0.109480453030891
0.109480453030891
0.109480453030891
0.109480453030891
0.109480453030891
0.109480453030891
0.109480453030891
0.109480453030891
0.109480453030891
0.109480453030891
0.109480453030891
0.109480453030891
0.109480453030891
0.109480453030891
0.109480453030891
0.109480453030891
0.109480453030891
0.109480453030891
0.109480453030891
0.109480453030891
0.109480453030891
0.109480453030891
0.109480453030891
0.109480453030891
0.109480453030891
0.109480453030891
0.109480453030891
0.109480453030891
0.109480453030891
0.10948045303089
0.109480453030891
0.109480453030891
0.109479185265155
0.111642473430488
0.120924979989998
0.139560425580878
0.166261902787714
0.199595740185613
0.238247345459026
0.281006406248856
0.326680018884146
0.374261473702762
0.423032988654769
0.472447708002768
0.522148534192747
0.572073357416488
0.622337859813778
0.673060243424657
0.724339193471977
0.776185719883937
0.828227800359285
0.879661189620776
0.929395648176768
0.975617617318745
1.01454870207073
1.04069215641781
1.05228990835905
1.05474022651545
1.06065664159523
1.05823710783953
1.04675053975433
1.02081362301786
0.982156044527396
0.936238185426046
0.886821869730979
0.835713338892622
0.783997374466979
0.732474035167528
0.6815142016553
0.631107717491872
0.581156664550302
0.531543460202441
0.482153048976256
0.433046388361133
0.384577502767585
0.337289351881905
0.2918948525075
0.249393444986937
0.210969938230406
0.17782736384179
0.151271653477676
0.132727290089154
0.123475397537275
0.121311970430483
0.121313283190463
0.121313283190462
0.121313283190463
0.121313283190462
0.121313283190463
0.121313283190463
0.121313283190463
0.121313283190463
0.121313283190462
0.121313283190463
0.121313283190462
0.121313283190462
0.121313283190463
0.121313283190463
0.121313283190463
0.121313283190462
0.121313283190463
0.121313283190462
0.121313283190463
0.121313283190463
0.121313283190463
0.121313283190463
0.121313283190462
0.121313283190463
0.121313283190462
0.121313283190462
0.121313283190463
0.121313283190462
0.121313283190463
0.121313283190463
0.121313283190462
0.121313283190462
0.121313283190463
0.121313283190462
0.121313283190463
0.121313283190462
0.121313283190462
0.121313283190463
0.121313283190463
0.121313283190463
0.121313283190462
0.121313283190463
0.121313283190462
0.121313283190463
0.121313283190463
0.121313283190462
0.121313283190463
0.121313283190463
0.121313283190463
0.121313283190463
0.121313283190463
0.121313283190463
0.121313283190463
0.121313283190463
0.121313283190462
0.121313283190463
0.121313283190462
0.121313283190462
0.121313283190463
0.121313283190462
0.121313283190463
0.121313283190463
0.121313283190463
0.121313283190463
0.121313283190462
0.121313283190463
0.121313283190462
0.121313283190463
0.121312022587855
0.123461770029625
0.132686173516563
0.151204982745528
0.177739347622365
0.210864572388604
0.249274294142196
0.291765771958918
0.337153559501398
0.384437243351666
0.432903530971283
0.482008986783091
0.531398753860559
0.581011123492647
0.630961056758254
0.681366018662454
0.732324080900413
0.783846177858937
0.835562565012985
0.886674001747972
0.936097057961876
0.982029529731932
1.02071674743365
1.04669650051466
1.05822166002651
1.06065664159523
1.06678979157346
1.06438605541373
1.05297448740315
1.02720698896011
0.988802015815381
0.943184161692532
0.894090610746098
0.843315807559296
0.791937465784431
0.740750450179394
0.690123272067293
0.640045848330082
0.590420895906697
0.541131597037727
0.4920636444114
0.443277584744968
0.395125125135776
0.34814568285258
0.303047523119061
0.26082356561185
0.222650892887963
0.189724685985996
0.163342348585647
0.144919060731651
0.135727579175188
0.133578278090293
0.133579583146909