/*--------------------------------*- C++ -*----------------------------------*\
  =========                 |
  \\      /  F ield         | OpenFOAM: The Open Source CFD Toolbox
   \\    /   O peration     | Website:  https://openfoam.org
    \\  /    A nd           | Version:  7
     \\/     M anipulation  |
\*---------------------------------------------------------------------------*/
FoamFile
{
    version     2.0;
    format      ascii;
    class       volScalarField;
    location    "20000";
    object      Cz;
}
// * * * * * * * * * * * * * * * * * * * * * * * * * * * * * * * * * * * * * //

dimensions      [0 1 0 0 0 0 0];

internalField   nonuniform List<scalar> 
15600
(
0
-9.61716561969537e-20
9.55980588579237e-20
5.66385977537432e-18
-7.47249893191442e-18
-1.07150939460535e-17
-1.59612291892479e-18
7.25114704292602e-18
0
-9.41337958757948e-20
-4.83257782326957e-18
-4.75419595871886e-18
2.07350740835269e-18
0
-4.06076645376572e-18
0
0
-5.31536314243366e-18
1.60842621247769e-18
1.60246097605214e-18
-7.1636994579912e-18
2.57475994187526e-18
9.58786837383192e-20
0
5.01657026814579e-18
9.63735809212434e-20
-2.32138233419407e-16
-2.3095348575567e-16
0
-2.46294925337053e-18
-2.5593227801189e-18
-2.49860745826748e-16
-2.38531914118398e-16
0
-2.55932278011888e-18
0
0
9.63735267483437e-20
2.34697556199542e-16
2.33993165300464e-16
-2.55932278011892e-18
0
2.55932278011901e-18
0
2.55932278011889e-18
2.55932278011889e-18
-2.49764372300016e-16
-2.47070376212222e-16
2.55932278011892e-18
0
0
0
-2.34890303253026e-16
-2.29187847339412e-16
-2.55932278011921e-18
0
-9.63735267483481e-20
9.63735267483419e-20
-5.11864556023783e-18
0
0
0
2.55932278011911e-18
5.02227203348947e-18
5.02227203348969e-18
0
-5.11864556023771e-18
9.63735267483473e-20
0
0
2.55932278011896e-18
-2.55932278011891e-18
2.37449626033145e-16
4.71333637219379e-16
2.31605495937115e-16
0
0
9.63735267483481e-20
9.63735267483458e-20
2.32330980472906e-16
2.31446421171394e-16
-9.63735267483483e-20
2.55932278011896e-18
0
-2.55932278011893e-18
-7.67796834035718e-18
5.02227203348983e-18
-5.02227203348945e-18
0
-9.63735267483429e-20
2.46294925337056e-18
-5.11864556023771e-18
2.46294925337057e-18
5.11864556023808e-18
9.63734747475954e-20
0
0
4.29354714921971e-16
4.08717720385116e-16
0
0
-3.31378132381913e-18
-3.31856495266215e-18
-7.21863678793001e-18
-3.8912023498501e-18
9.80237353554088e-20
-2.1671182939851e-18
0
0
-4.93012091245157e-18
2.76997788628069e-18
9.87734448752836e-20
-7.34897814038491e-18
7.60999905521291e-18
0
0
0
-7.69188994393226e-18
2.56356872578274e-18
9.63735267483493e-20
9.63885231830034e-20
2.57310139486627e-18
-2.44225915391592e-18
1.96809565591901e-15
1.90635816543503e-15
-8.96277891952468e-18
7.42705654269848e-18
1.58727879298589e-18
2.83802391461947e-18
-7.43859840582195e-18
-1.16425099336593e-17
0
-2.28052931874902e-18
0
2.10256976708965e-18
-4.0395132311912e-18
-5.60285445870863e-18
5.13316849314038e-18
-3.48517667315603e-18
4.36087568227781e-18
0
1.92071087970452e-19
-2.46000531615615e-18
7.54807576016419e-18
-2.56671428608733e-18
0
2.27397019009609e-16
2.21770507747805e-16
7.51571349865436e-18
2.56949184953622e-18
0
2.32343240658721e-16
2.3130710479109e-16
0
4.94622164911771e-18
0
-2.37672979958176e-18
0
-2.27397019009613e-16
-2.14262872524629e-16
4.94622164911778e-18
0
7.51571349865489e-18
-1.92762049954354e-19
0
-2.76225389949052e-18
2.32343240658715e-16
2.31699572790553e-16
0
0
-4.94622164911836e-18
0
2.22836321460372e-16
2.24277758275053e-16
0
-1.92762049954353e-19
0
2.56949184953599e-18
2.37672979958184e-18
-1.92762049954353e-19
0
2.56949184953602e-18
4.94622164911827e-18
-1.92762049954362e-19
-2.56949184953607e-18
4.9462216491185e-18
0
-5.13898369907232e-18
2.56949184953621e-18
1.92762049954356e-19
2.569491849536e-18
-2.56949184953619e-18
-2.25020289210021e-16
-4.5183101558939e-16
-2.24424520173545e-16
-2.56949184953619e-18
-1.92762049954351e-19
2.76225389949077e-18
-2.56949184953623e-18
-2.25020289210009e-16
-2.24360850753153e-16
-1.92762049954361e-19
-2.56949184953591e-18
-5.13898369907223e-18
-1.92762049954359e-19
0
2.56949184953621e-18
-1.92762049954357e-19
0
0
4.9462216491178e-18
7.51571349865438e-18
-2.56949184953621e-18
-1.9276204995435e-19
-2.37243984816982e-18
0
2.38758310752553e-18
-3.96309357023488e-16
-4.18931151715362e-16
0
-4.35999449401372e-18
-4.65224775764454e-18
2.03511827774245e-18
0
7.50764039585627e-18
0
6.17736990851983e-18
1.94533103467179e-19
6.40406435901292e-18
-2.52284270824152e-18
0
0
8.18627171768572e-18
7.43162689082633e-18
9.35813165040829e-18
0
5.28103077192761e-18
2.44257407842546e-18
2.38059438776456e-18
-1.92762049954353e-19
0
0
-1.91980635231226e-19
-1.93046460959397e-15
-1.81525218177715e-15
-1.59905139505191e-18
-5.57755930517539e-18
0
-5.29189021212813e-18
0
4.48764466721229e-18
8.67138261580787e-18
-1.82312356131446e-18
-5.76753006579226e-18
3.82122293250909e-19
0
5.22396688638358e-18
-1.39686963112611e-18
0
-8.79547386347946e-18
0
-2.48583409569822e-18
-1.92264772547867e-19
0
0
-2.48202628778195e-18
-1.92762604885857e-19
4.58711554850895e-18
0
0
0
0
0
2.29355777425449e-18
-1.92762604885861e-19
-2.67908298402621e-18
0
4.97264075828056e-18
0
0
0
2.29355777425436e-18
-2.29355777425448e-18
2.29355777425431e-18
-1.92762604885858e-19
4.97264075828082e-18
-2.29355777425422e-18
-2.6790829840262e-18
0
0
0
1.92762604885852e-19
4.97264075828056e-18
0
0
0
0
0
0
-1.92762604885864e-19
0
1.92762604885862e-19
-2.48632037914019e-18
0
1.92762604885861e-19
-4.58711554850899e-18
0
2.48632037914044e-18
0
0
4.9726407582804e-18
0
0
-2.48632037914002e-18
-1.92762604885859e-19
0
1.92762604885864e-19
2.67908298402621e-18
-7.26619853253518e-18
-2.48632037914002e-18
1.92762604885859e-19
2.67908298402628e-18
0
-4.97264075828044e-18
-2.67908298402622e-18
0
0
0
0
-1.92762604885849e-19
4.9726407582804e-18
0
0
0
-1.92762851758994e-19
0
0
-5.13347314612122e-18
0
1.93610315278633e-19
-1.93778522023185e-19
1.30148779660888e-18
-1.78204459273992e-18
0
-5.28738379983272e-18
5.72119170034612e-18
1.92224357150351e-18
-4.61098646026623e-18
4.43421695807746e-18
2.43817576454198e-18
1.94921924022727e-19
-5.2956910200285e-18
-1.09607828160563e-17
-4.18284207424574e-18
-8.25782843238434e-18
0
9.99203682677349e-18
-2.3567134525163e-18
0
-2.48632037913959e-18
0
4.4336075497226e-18
-2.27359740831105e-18
1.91179493195848e-19
1.90544421333647e-19
8.33488368942124e-18
0
0
4.72431127492679e-18
7.28634450619746e-18
0
4.2771376988761e-18
0
0
-1.9106126377098e-19
0
1.02771913386425e-17
1.91380438803825e-19
-1.63386708345672e-18
2.70444690936418e-18
0
0
0
0
0
-7.01312001243049e-18
0
-2.40608868838023e-18
-4.81217737676016e-18
-2.40608868838024e-18
-2.40608868838026e-18
-1.92763180564159e-19
-2.40608868838027e-18
0
0
0
0
-2.40608868838024e-18
0
4.81217737676049e-18
0
-4.42665101563209e-18
2.40608868838023e-18
0
0
0
0
0
0
-2.40608868838025e-18
0
-2.93807807272511e-16
-2.89998808332813e-16
0
-4.61941419619664e-18
0
0
0
0
0
-2.40608868838025e-18
2.40608868838023e-18
0
0
0
-1.92763180564154e-19
1.92763180564152e-19
2.91594481764716e-16
2.92404897021178e-16
0
0
0
0
0
0
0
1.92763180564155e-19
0
1.92763180564157e-19
0
5.00494055732461e-18
2.40608868838022e-18
0
0
5.00494055732467e-18
0
0
-2.40608868838009e-18
0
5.00494055732431e-18
0
0
0
0
-4.6114861301569e-18
0
0
2.48354260609957e-18
0
0
8.49926698500264e-18
6.15607450697158e-18
-1.53105963194844e-18
0
1.94280898992436e-19
-1.58137543862211e-18
3.70545507163298e-18
-1.94527097692402e-19
0
0
-2.49624042995238e-18
0
7.97296097346967e-18
2.88157845449029e-18
0
0
0
0
-4.62666976519173e-18
0
-2.23231938733515e-18
-6.80286950628698e-18
1.91980952977566e-19
4.92699807212173e-18
-5.47655938360147e-18
2.61576078687463e-18
0
7.11261041824688e-18
-7.48191275245425e-18
0
4.35733480760783e-18
-8.06652143593806e-18
-4.12312629764249e-18
-3.38085343776349e-18
-1.91061385008325e-19
2.02015010062283e-18
0
0
-1.91527846284647e-19
-2.60838823543366e-18
0
-2.31403608193923e-18
9.22566448873112e-18
-2.33830580549447e-18
2.13357123517809e-18
2.32472614634209e-18
-1.92763777780948e-19
0
2.32869291418365e-18
0
-4.46462205058664e-18
-1.92763777780949e-19
4.46462205058645e-18
-2.3286929141837e-18
1.92763777780955e-19
2.13592913640269e-18
4.65738582836731e-18
0
2.13592913640286e-18
-2.32869291418366e-18
-2.32869291418367e-18
0
0
-2.32869291418365e-18
2.32869291418367e-18
1.92763777780955e-19
0
0
0
0
-6.60055118698905e-18
2.76837622297983e-16
2.75023544806058e-16
-1.92763777780949e-19
-1.92763777780944e-19
-2.32869291418367e-18
-4.65738582836734e-18
-2.13592913640273e-18
0
2.32869291418367e-18
0
-8.92924410117339e-18
0
0
6.79331496477095e-18
-2.32869291418367e-18
2.32869291418368e-18
-2.70237071111018e-16
-2.76966710164661e-16
-1.92763777780948e-19
-4.4646220505864e-18
-1.92763777780957e-19
2.32869291418369e-18
0
-2.32869291418383e-18
-2.32869291418382e-18
1.92763777780951e-19
0
-4.46462205058667e-18
0
0
-4.65738582836771e-18
-1.92763777780951e-19
2.32869291418363e-18
0
-6.60055118698956e-18
-1.92763777780945e-19
1.92763777780962e-19
-1.92763777780947e-19
6.60055118698902e-18
-1.92763777780951e-19
-1.92763777780952e-19
0
-1.9276377778095e-19
0
-2.13342929856261e-18
0
1.93254988657353e-19
5.01420796234784e-18
0
2.80164344842838e-18
0
0
0
-6.55045439757073e-18
0
1.98010558677617e-18
3.74077542241012e-18
0
6.63842109574167e-18
-2.4120818770085e-18
0
1.95202695958911e-19
2.19723922115053e-18
1.95159102627845e-19
-8.033827152857e-18
-4.93141507182466e-18
-4.58150949176084e-18
-2.33226181910927e-18
0
9.63908704772494e-20
0
0
-1.90125683081207e-18
-1.51146900606302e-17
5.42075566025306e-18
2.68293822823485e-18
-4.62124554930198e-18
0
8.92669805609313e-18
0
0
-3.79646862535002e-18
-3.81963995126242e-19
0
-4.73613900725872e-18
6.39409840191198e-18
-7.11718976190772e-18
5.55619935093147e-18
2.89912357539944e-18
0
-1.92071677987271e-19
4.65024399032506e-18
-2.26331229379706e-18
4.11802580287764e-18
-2.25022117301556e-18
1.92764397359371e-19
6.5693341969368e-18
0
1.92764397359369e-19
4.31530133217169e-18
-2.25403286476523e-18
0
0
0
0
4.50806572953082e-18
0
2.06126846740616e-18
-6.37656979957703e-18
-2.25403286476539e-18
0
-2.06126846740604e-18
1.92764397359369e-19
2.2540328647654e-18
0
0
-4.50806572953079e-18
-4.50806572953077e-18
0
-1.92764397359374e-19
0
4.3153013321713e-18
0
-2.25403286476522e-18
2.06126846740616e-18
1.92764397359371e-19
-1.92764397359371e-19
1.92764397359377e-19
-4.31530133217114e-18
-6.56933419693687e-18
1.92764397359362e-19
0
0
0
1.92764397359369e-19
-1.92764397359376e-19
2.25403286476549e-18
-2.25403286476522e-18
0
2.25403286476537e-18
4.50806572953081e-18
0
0
0
0
0
4.50806572953083e-18
0
0
0
0
0
2.06126846740603e-18
1.92764397359368e-19
2.25403286476554e-18
-2.25403286476532e-18
1.92764397359364e-19
2.25403286476537e-18
0
1.9276439735937e-19
0
-2.25403286476541e-18
0
4.30797980999724e-18
0
0
-2.13261632569954e-18
8.97101107558552e-16
8.55868541732965e-16
-5.22422131906813e-18
0
0
1.30847766886591e-18
-4.92972142884783e-18
1.94356807011401e-19
3.88863549117632e-19
-1.9452066796335e-19
0
-3.81920837590977e-18
6.99271306441917e-18
1.95075222035747e-19
-4.61550737058478e-18
-5.37569341919052e-18
-2.71531058017538e-18
-7.3676248252829e-18
-2.67282616890259e-18
0
2.25744720566215e-18
-4.31530133216867e-18
2.08563836301265e-18
1.92561989591721e-19
4.46857422132633e-18
-4.40460307221274e-18
0
-4.85584111491579e-18
1.23855703468607e-17
1.90165761344934e-19
1.90292165455101e-19
2.05812521285975e-18
0
1.82823732684691e-18
1.73730769544655e-18
1.46783757022543e-18
6.5515693996978e-18
-1.5216640235757e-18
-1.63999592378305e-18
0
-5.36452064634049e-18
-2.61803469665825e-18
-4.55680581874846e-18
1.92071839383246e-19
-6.55902920186526e-18
-1.92467677021587e-19
0
0
2.18201188992751e-18
0
4.36402377985513e-18
0
0
0
-2.18201188992764e-18
1.9276504015531e-19
0
6.54603566978254e-18
0
6.35327062962729e-18
-1.92765040155301e-19
0
0
4.17125873969965e-18
0
0
0
-1.92765040155311e-19
-2.37477693008295e-18
0
-4.17125873970001e-18
8.53528251955472e-18
0
-2.18201188992767e-18
4.36402377985501e-18
-1.9892468497724e-18
2.18201188992755e-18
-4.55678882001064e-18
0
2.18201188992751e-18
0
0
0
0
2.18201188992776e-18
-6.16050558947206e-18
-3.9784936995447e-18
2.18201188992751e-18
-1.98924684977233e-18
-2.18201188992762e-18
-2.18201188992754e-18
2.18201188992757e-18
0
0
1.92765040155304e-19
0
0
0
-1.9276504015531e-19
-1.92765040155305e-19
4.17125873969963e-18
4.17125873970022e-18
4.17125873969963e-18
0
0
1.79648180961698e-18
0
0
-2.18201188992765e-18
0
0
-1.92765040155311e-19
-1.92765040155308e-19
-4.36402377985525e-18
0
4.1712587396997e-18
0
-1.92855252368503e-19
1.93062385980245e-19
2.44444751024206e-18
-8.18090657899988e-16
-8.82187938426855e-16
0
2.58598591644217e-18
-2.7442073078447e-18
1.64268640220171e-18
-4.5643249215626e-18
-1.94353980411014e-19
-1.85302003260349e-18
-5.21112216590077e-18
-4.04510055438299e-18
0
4.11540013764774e-18
-4.3915672821476e-18
0
-4.80174068791732e-18
-1.95148973613979e-19
-7.4907031114499e-18
-6.8029890497098e-18
0
0
-2.1820118899279e-18
9.63921801079066e-20
-4.03786047266092e-18
0
-1.5897806926831e-15
-1.5442213906429e-15
1.90233226532419e-19
0
0
1.90293598477541e-19
3.96517321731058e-18
-3.9172940353277e-18
5.47557610465164e-18
-3.53917266093413e-18
-3.3882299271744e-18
-4.59752644451447e-18
-1.27548497861434e-18
-8.55838935205932e-16
-9.01901365642291e-16
-2.87709982303242e-18
1.9169943323936e-19
-2.00601587930626e-18
-6.6194737719822e-18
-8.52125936263216e-18
0
5.94580436377348e-18
0
-1.91977104888864e-18
2.11253675594734e-18
-8.45014702378875e-18
-1.92765707058813e-19
1.71646458222708e-16
1.73895742743588e-16
1.92765707058815e-19
0
-2.11253675594729e-18
1.92765707058814e-19
0
-4.03230780483606e-18
0
0
0
1.91977104888854e-18
-1.92765707058812e-19
-6.14484456078307e-18
0
-1.9276570705881e-19
1.73758994978657e-16
1.74676846682906e-16
4.03230780483613e-18
1.72700534182972e-18
1.91977104888848e-18
0
2.11253675594735e-18
-1.91977104888848e-18
0
4.03230780483574e-18
0
1.92765707058814e-19
1.92765707058814e-19
0
-2.11253675594737e-18
0
0
0
0
0
-2.1125367559475e-18
6.14484456078335e-18
2.11253675594732e-18
2.11253675594732e-18
-1.92765707058815e-19
5.95207885372471e-18
0
0
-1.91977104888851e-18
-1.92765707058809e-19
0
-1.92765707058818e-19
6.14484456078358e-18
6.14484456078322e-18
0
-4.03230780483571e-18
-4.0323078048359e-18
1.92765707058811e-19
0
-5.95207885372433e-18
0
0
1.92765707058815e-19
0
0
-4.22507351189473e-18
0
1.92765707058814e-19
0
-2.11043944232329e-18
0
-2.17915001375754e-18
0
-6.59255009288863e-18
-2.33964113713221e-18
1.9392956610266e-19
0
-5.77928750264689e-18
1.9427091061047e-19
0
-3.39123345826475e-18
0
1.76130207227057e-18
-1.94746494788063e-19
-1.94897452031778e-19
0
6.69349153879774e-18
0
0
-4.36761722045422e-18
-8.49773175975282e-18
0
-2.11565799985368e-18
1.92765707058823e-19
9.63928720062975e-20
0
-1.70943230508996e-18
1.5517092307648e-15
1.46455649100263e-15
4.8867786028292e-18
-1.90135103572085e-19
-2.52932956656195e-18
1.26039002021982e-17
1.90473890868808e-19
-3.59024277097925e-18
-3.58542195719845e-18
0
6.16223241273762e-18
0
-3.82296513534342e-19
8.91841731433881e-16
8.0020223333271e-16
0
-1.91699326804399e-19
-4.62424957194424e-18
0
-4.02548873827306e-18
2.05386571875125e-18
3.7015631326854e-18
0
0
1.85275112588932e-18
0
1.46324398274396e-16
-1.04748571107553e-17
-1.62053776089075e-16
1.92766398995578e-19
0
1.8527511258895e-18
1.92766398995579e-19
1.85275112588932e-18
0
-3.70550225177898e-18
-1.50415433324166e-16
5.2702600652749e-19
1.51749442223256e-16
-3.89826865077455e-18
1.9276639899558e-19
0
0
-1.69714010179053e-16
-1.64552296676019e-16
0
-2.04551752488491e-18
-1.92766398995584e-19
3.89826865077423e-18
0
0
1.92766398995579e-19
-1.92766398995579e-19
0
4.09103504976986e-18
0
0
0
-2.04551752488507e-18
-2.04551752488494e-18
1.92766398995578e-19
-1.92766398995578e-19
0
-4.09103504977006e-18
-1.92766398995576e-19
2.04551752488503e-18
0
-4.09103504976983e-18
0
1.92766398995577e-19
2.04551752488507e-18
3.21982194629097e-16
3.22562012828067e-16
0
-1.92766398995581e-19
-1.54313701974949e-16
-1.54395380764964e-16
0
-2.04551752488507e-18
0
2.04551752488489e-18
5.94378617565913e-18
-2.04551752488506e-18
2.04551752488491e-18
-5.75101977666353e-18
-4.09103504976986e-18
0
0
5.94378617565912e-18
-5.75101977666361e-18
1.85275112588949e-18
1.67190187095678e-16
1.62174551586802e-16
-2.054359890795e-18
4.41256813202321e-18
-2.00508059445417e-18
1.93610396414572e-19
2.64402757346948e-18
-2.59831819604985e-18
7.65167444800382e-18
0
-7.26098616019672e-18
0
0
0
6.98276272697758e-18
3.39484751484519e-18
3.89784101257255e-19
-6.3055257231233e-18
-8.78988372112282e-18
-4.64928663434487e-18
-2.25315711436896e-18
-1.94865061256191e-19
-4.29177101827584e-18
0
0
0
3.67259423236354e-18
0
-1.91981856385724e-19
4.14157795737535e-18
0
1.98015320042339e-18
-2.33502440715492e-18
0
-5.88577883307877e-18
1.9047500045703e-19
0
0
-1.74532941094201e-18
0
1.61437914520847e-18
-2.72468691846506e-18
-2.40374161318705e-18
0
0
-1.91699216518918e-19
-2.23721063428409e-18
0
2.04183079332781e-18
1.52955364108685e-16
1.62537486484654e-16
-1.97762341844378e-18
3.76896775939361e-18
-1.92767116928472e-19
-1.92767116928471e-19
-1.50865102913486e-16
-1.48588252875834e-16
1.92767116928471e-19
-1.9808674381609e-18
1.98086743816091e-18
3.57620064246537e-18
0
1.98086743816091e-18
0
-3.76896775939357e-18
1.44922500599011e-16
-1.98132598723494e-18
-1.50294390335963e-16
-1.98086743816102e-18
0
0
0
0
0
-1.92767116928474e-19
-5.7498351975543e-18
1.92767116928465e-19
0
1.98086743816103e-18
1.92767116928472e-19
0
-1.78810032123242e-18
0
0
0
1.92767116928471e-19
0
0
-1.78810032123254e-18
0
0
0
0
1.98086743816104e-18
-1.92767116928465e-19
0
3.76896775939338e-18
1.98086743816092e-18
0
1.92767116928472e-19
-3.11056241666993e-16
-3.13448592871177e-16
0
0
1.47288902271033e-16
3.12563231074039e-16
1.61009277804364e-16
-1.98086743816102e-18
0
-1.92767116928469e-19
-1.61593704840881e-16
-1.58689289305429e-16
0
0
-1.92767116928471e-19
0
0
0
0
0
-1.59727305328348e-16
-1.62634571015688e-16
0
2.04261674376703e-18
0
6.71575077801999e-18
-2.56380101180206e-18
0
1.94057613592564e-19
2.59458410785882e-18
0
-5.49817318838175e-18
3.35752632752744e-18
-6.21681404016596e-18
-3.46470624919973e-18
-9.03455796635944e-18
-1.6441843304554e-18
0
1.95170097591575e-19
6.62935366428527e-18
6.90143336123692e-18
0
-1.94289606014315e-19
0
-1.79074569130064e-18
5.55706808062743e-18
3.54786421956145e-18
1.72821540488454e-18
1.91982057686697e-19
-1.90478531937212e-18
2.23212631008313e-18
0
4.32110483851316e-18
1.21462097479914e-17
-1.69900799102377e-18
-1.58118547791078e-18
4.99761425806829e-18
-1.90775191360505e-19
-1.30686070633387e-18
-5.72207969433806e-18
0
1.91148365102905e-19
0
0
0
0
0
-1.86695597856726e-18
-1.78488602938447e-18
-1.54719999089425e-16
-1.52592236982779e-16
1.72262012906834e-18
-5.56274055088658e-18
-3.64423774663819e-18
0
1.91850280424859e-18
0
-3.64423774663818e-18
0
0
-1.92767861859141e-19
1.92767861859145e-19
0
-5.56274055088686e-18
0
-1.72573494238967e-18
-1.91850280424868e-18
0
7.48124335513522e-18
3.644237746638e-18
1.91850280424867e-18
1.91850280424867e-18
0
7.48124335513563e-18
1.91850280424865e-18
-1.92767861859146e-19
9.39974615938408e-18
-3.45146988477912e-18
0
0
0
-1.92767861859147e-19
0
-7.28847549327638e-18
1.91850280424866e-18
-1.7257349423895e-18
1.91850280424858e-18
0
-7.48124335513604e-18
0
0
0
-3.83700560849757e-18
-5.36997268902809e-18
1.91850280424864e-18
1.92767861859143e-19
1.91850280424867e-18
-1.91850280424865e-18
0
1.91850280424869e-18
-1.92767861859151e-19
-1.92767861859145e-19
7.48124335513546e-18
1.91850280424867e-18
0
-1.54572600810647e-16
-1.49817067007518e-16
0
0
0
1.48817092397904e-16
1.49768930666905e-16
1.92767861859152e-19
9.20697829752445e-18
3.8370056084973e-18
-3.64423774663803e-18
0
-1.91850280424864e-18
0
1.92767861859141e-19
0
-1.72382797596524e-18
-1.93065800477174e-19
-5.74058439743342e-18
1.86666419952836e-18
-1.77910973547313e-18
-1.93774316371596e-19
2.23540520147538e-18
-3.88111415741591e-19
2.69498564786866e-18
2.62551895641484e-18
5.87437014621314e-18
-2.01357037000233e-18
6.18458829617736e-18
-1.96446800486428e-18
-1.94732076045642e-19
-5.3138997681361e-18
-5.66682410537133e-18
2.1875446319357e-18
1.87011232644548e-18
-3.90253155790605e-19
1.84693374543732e-18
0
0
5.37772341058683e-18
0
0
0
3.60839164081781e-18
0
-1.7768040441154e-18
-4.2173526882599e-18
0
1.90174848025355e-19
-1.62896415650729e-18
-7.20607491985595e-18
3.20932284868786e-18
0
0
0
0
-5.25236270622202e-18
5.01275404018889e-18
0
-2.34731092401878e-18
-2.21630018825226e-18
2.09523081358409e-18
0
0
0
0
0
-5.18949140135266e-18
0
3.5239171458448e-18
0
-1.85834289033746e-18
0
1.92768634829746e-19
-7.04783429169005e-18
-7.0478342916896e-18
-3.52391714584502e-18
0
-3.71668578067454e-18
8.90617718202745e-18
0
-8.90617718202712e-18
0
0
0
8.90617718202745e-18
-7.07544568277229e-16
-7.08725502313347e-16
0
-1.92768634829742e-19
8.90617718202743e-18
0
3.52391714584516e-18
-1.92768634829744e-19
-1.92768634829742e-19
-7.14399633934135e-16
-7.21517584123421e-16
0
-1.92768634829744e-19
8.90617718202742e-18
0
3.52391714584519e-18
3.13837987618546e-18
-1.92768634829742e-19
5.38226003618246e-18
0
0
1.9276863482974e-19
1.85834289033739e-18
-1.66557425550754e-18
7.15872439554765e-16
7.09205986233393e-16
-1.92768634829742e-19
0
3.52391714584494e-18
1.92768634829745e-19
1.85834289033718e-18
-1.66557425550746e-18
1.85834289033739e-18
0
0
1.92768634829742e-19
1.92768634829749e-19
0
-1.92768634829742e-19
1.8583428903374e-18
0
3.52391714584527e-18
0
0
0
0
3.71668578067456e-18
0
1.92768634829751e-19
0
0
0
0
0
-1.90302044996711e-18
0
-2.349290805697e-18
-7.04909491647425e-18
-7.6194387311182e-18
7.97924411315237e-18
2.83742658232812e-18
-5.70727904490576e-18
7.21423306703525e-18
1.71218084960608e-18
-8.21658575836717e-18
-1.90080756178533e-18
0
-4.03189843847352e-18
3.97747070792893e-18
4.02710641018063e-18
-3.93511257712851e-18
-5.7063038059649e-18
1.90194742689903e-18
-3.52890212013287e-18
1.92768634829754e-19
-9.63959097504136e-20
-1.92565642589922e-19
-1.91982483024898e-19
-5.31400725540467e-18
-3.79151320124448e-18
3.87857392701644e-18
-2.10517401147997e-18
-5.54177913743474e-18
3.8840208864815e-18
5.31061151847358e-18
3.28188342274655e-18
0
-1.90889698015205e-19
2.84725399369986e-18
-1.91062519325834e-19
-2.82098461044499e-18
2.5147404009179e-18
-2.58581282821119e-18
0
0
3.86407897772874e-18
0
-6.59532089372765e-16
-6.95413938159383e-16
-5.01040234957832e-18
0
-8.6160102152861e-18
-1.80030981782692e-18
1.80030981782681e-18
5.20816001655609e-18
1.80030981782703e-18
0
0
0
-1.92769436924683e-19
0
0
5.20816001655607e-18
3.40785019872938e-18
-1.92769436924687e-19
-1.60754038090231e-18
0
3.2150807618047e-18
0
0
6.92836363290522e-16
6.87139745005367e-16
-1.80030981782697e-18
0
0
5.0153905796314e-18
0
0
0
6.91036053472743e-16
6.87303873586519e-16
0
0
-1.92769436924671e-19
0
0
1.92769436924684e-19
-1.92769436924681e-19
0
1.800309817827e-18
0
0
-3.21508076180474e-18
0
-6.84605891949089e-16
-6.97069847291209e-16
1.92769436924683e-19
0
0
0
1.80030981782698e-18
-1.80030981782698e-18
-3.21508076180474e-18
0
0
0
0
0
5.20816001655605e-18
0
0
-5.01539057963173e-18
0
-3.40785019872925e-18
0
0
0
0
3.40785019872935e-18
0
0
0
-3.51751324540493e-18
-3.47571694122915e-18
-1.83578381200242e-18
2.14596234542953e-18
0
0
-2.51728313088055e-18
-5.07092925310718e-18
2.74119930836988e-18
-1.94407952065743e-19
-1.58460265201395e-18
-4.19124068821737e-18
-1.94721635546973e-19
5.12352309370953e-18
-1.95029884310261e-19
5.93126673882742e-18
0
1.74416721787274e-18
-3.98674774054496e-18
3.73787265185362e-18
0
1.80278327661538e-18
0
0
0
-4.96351614111434e-18
1.70812731637474e-18
-1.82669451833355e-18
1.90242096009801e-19
0
-3.55680989817121e-18
0
1.39191433352696e-18
0
0
-2.67888123980677e-18
1.90983923893627e-19
-7.74523014013104e-18
1.91148542072438e-19
-2.23931019370219e-18
0
1.81253540261923e-18
0
0
1.86918126017337e-18
3.45098195043455e-17
-2.72060714241144e-17
1.74268265322065e-18
-3.4831529918946e-18
1.74432846151771e-18
0
0
0
-1.92770269272495e-19
-1.92770269272497e-19
-4.84744484600803e-18
4.84744484600833e-18
-1.7443284615177e-18
0
0
0
6.39900303825338e-18
6.62595365901183e-16
6.73977054320845e-16
3.29588665376281e-18
0
-1.92770269272493e-19
5.04021511528082e-18
-3.48865692303542e-18
-1.927702692725e-19
3.29588665376271e-18
-3.10311638449056e-18
3.10311638449055e-18
1.9277026927249e-19
0
0
0
5.04021511528082e-18
0
-1.92770269272493e-19
5.04021511528081e-18
-3.48865692303535e-18
3.10311638449056e-18
0
-1.74432846151778e-18
0
3.29588665376304e-18
6.66864499939403e-16
6.6307728872275e-16
1.92770269272491e-19
-1.74432846151777e-18
0
0
3.48865692303543e-18
0
0
0
1.92770269272497e-19
0
-6.59177330752601e-18
-1.74432846151772e-18
0
-6.39900303825342e-18
6.68608828400916e-16
6.59088333581978e-16
0
1.74432846151769e-18
-1.92770269272496e-19
-6.78110947823637e-16
-6.55461655366702e-16
1.92770269272495e-19
0
6.78454357679835e-18
0
3.29588665376303e-18
0
-1.74432846151778e-18
0
1.92860922727348e-19
1.75184529578315e-18
0
1.93441398284307e-19
7.27730331115485e-18
6.0356982547148e-18
0
-2.12326629909813e-18
0
2.54393725098541e-18
0
5.31229093908272e-18
-2.87296621517885e-18
0
0
1.97179872685661e-18
0
0
3.8824557172197e-18
-4.12550443080725e-18
-7.5023525052894e-18
3.61141363460739e-18
1.93538654870733e-19
-1.92973415225311e-19
0
0
7.88297077344756e-18
1.91982940616681e-19
0
-5.28023322133103e-18
-4.16784834548149e-18
-1.96522546020113e-18
-3.6141770122152e-18
1.15562983475205e-17
-1.33324820383828e-18
0
2.71350661440674e-18
2.96251063228719e-18
0
4.92071360861698e-18
-4.52898848993738e-18
0
-2.04699826767871e-18
2.12372597184769e-18
0
3.60917205765764e-18
-6.85712614025112e-18
6.53402509695339e-16
6.24488715900468e-16
-6.36965731771955e-18
1.92771672200001e-19
0
-1.69032635236431e-18
-1.92771133047827e-19
0
0
-6.37576314336089e-18
-6.34534923465665e-16
-6.47769136865597e-16
0
1.49755521931659e-18
1.49755521931659e-18
-1.69032635236425e-18
0
-6.5139357314435e-16
-6.34967758964374e-16
0
-1.92771133047828e-19
0
-1.92771133047828e-19
-1.92771133047837e-19
0
4.68543679099711e-18
0
0
0
1.69032635236432e-18
0
-1.49755521931627e-18
4.87820792404442e-18
3.18788157168067e-18
0
-1.92771133047827e-19
0
1.69032635236414e-18
1.69032635236415e-18
-1.69032635236431e-18
-1.92771133047817e-19
1.92771133047826e-19
-6.42601012961478e-16
-6.48586509733172e-16
0
0
6.50281560191091e-16
6.40856037027927e-16
-1.9277113304783e-19
0
0
-3.18788157168101e-18
1.49755521931644e-18
0
4.68543679099674e-18
0
1.92771133047826e-19
0
-6.37915576170483e-16
-6.52709298431113e-16
0
1.49755521931654e-18
6.375763143362e-18
6.39220360256735e-16
1.29751917798216e-15
6.38976576682717e-16
0
0
1.69032635236436e-18
0
0
-6.56853427640941e-18
0
0
0
1.74133796000181e-18
0
1.93610497106879e-19
1.8157016122459e-18
4.05758016595412e-18
0
-2.15777566791084e-18
7.5069128776232e-16
7.22963756763357e-16
2.65981255145696e-18
0
0
-2.86698362175042e-18
-1.7182780720657e-18
-1.81841837789211e-18
-7.04212708545143e-18
0
-1.7985495422559e-18
-1.94841474995297e-19
0
-1.72848424283869e-18
1.92974347083102e-19
4.6854367910031e-18
0
3.08730089646055e-18
0
-3.3678473991731e-18
1.90552385399651e-19
-3.65408095954624e-18
-3.22747211399706e-18
-3.48608875409229e-18
1.90306905151584e-19
0
1.90643309533492e-19
-3.8155647930984e-19
-1.90890976979362e-19
-4.75103211594689e-18
7.21748679668524e-18
4.74628693770665e-18
6.62187309442753e-18
-6.30201420158608e-18
0
0
0
0
1.92269911895918e-19
0
0
-3.46417765779244e-18
1.44546155419662e-18
0
1.44546155419662e-18
-3.2764671673403e-18
0
0
6.28586948048345e-16
6.15398443073121e-16
0
0
-1.44546155419672e-18
0
0
0
0
-1.63823358367015e-18
6.1413233250644e-16
6.24254277702456e-16
-1.92772029473477e-19
-1.83100561314366e-18
-1.92772029473476e-19
-1.92772029473476e-19
1.6382335836702e-18
0
-1.92772029473476e-19
-1.92772029473476e-19
-1.92772029473473e-19
0
0
0
-1.92772029473474e-19
0
0
0
0
-2.89092310839362e-18
0
0
-3.27646716734037e-18
-3.08369513786683e-18
0
-1.63823358367023e-18
-6.16637711555802e-16
-6.21430969947605e-16
-3.27646716734037e-18
-2.69815107891997e-18
0
-4.91470075101053e-18
0
0
-1.44546155419668e-18
0
0
0
0
4.72192872153715e-18
4.52915669206332e-18
5.97461824626038e-18
0
-4.72192872153712e-18
-6.11048637368529e-16
-6.26769363477165e-16
0
1.92772029473476e-19
-1.92772029473466e-19
-3.27646716734053e-18
0
5.97461824626033e-18
0
-1.92862831670782e-19
0
-1.68731900862758e-18
3.12244628401644e-18
0
0
3.91896510556023e-18
-8.27912244381285e-18
0
-6.57652586054392e-16
-7.52884118902583e-16
-4.94478535605314e-18
5.16584506866858e-18
0
0
3.12855536072287e-18
0
-4.94313949346836e-18
-1.90383315641999e-18
1.73190711782119e-18
1.69598297027616e-18
-1.5887318429796e-18
0
1.6403699686517e-18
-3.27646716734019e-18
9.63994324000569e-20
-1.58957990877341e-18
-4.67131191911117e-18
1.91179605717388e-19
-1.90553206446312e-19
1.8578902921957e-18
-1.45474792989213e-18
8.50148780918651e-18
0
2.82515171019035e-18
-3.81288566239497e-19
3.81557824130801e-19
-2.20384639409613e-18
-4.76794901916646e-18
2.004077811007e-18
2.29356519505521e-18
-3.81721851977767e-18
6.0881187545056e-18
-3.78354025700915e-18
0
3.18007907651726e-18
3.20544549750915e-18
0
-8.79583239186579e-18
0
0
0
0
0
0
0
1.58798272059943e-18
0
0
0
0
1.58798272059942e-18
1.58798272059942e-18
0
0
-5.96638496275256e-18
-8.75680448430628e-18
-6.06752203353344e-16
-5.97323112379062e-16
0
0
0
0
5.96638496275297e-18
5.96638496275255e-18
0
4.57117520197601e-18
0
0
-8.7568044843063e-18
0
0
1.39520976077676e-18
0
0
0
1.58798272059951e-18
1.58798272059943e-18
0
0
0
0
0
0
1.58798272059943e-18
0
-7.36159472352992e-18
0
0
1.58798272059942e-18
1.58798272059953e-18
0
0
0
0
1.20243680095429e-18
1.58798272059953e-18
0
0
0
0
3.17596544119905e-18
1.58798272059943e-18
-2.59764656173097e-18
0
0
2.98319248137669e-18
-4.76394816179796e-18
0
-4.75695751585606e-18
0
1.40173998139194e-18
-2.69062537955761e-18
0
1.78338321574638e-18
-6.29382032474277e-16
-5.82154530382346e-16
-2.09551559052996e-18
-1.94150550861248e-19