/*--------------------------------*- C++ -*----------------------------------*\
  =========                 |
  \\      /  F ield         | OpenFOAM: The Open Source CFD Toolbox
   \\    /   O peration     | Website:  https://openfoam.org
    \\  /    A nd           | Version:  7
     \\/     M anipulation  |
\*---------------------------------------------------------------------------*/
FoamFile
{
    version     2.0;
    format      ascii;
    class       volScalarField;
    location    "20000";
    object      Dk;
}
// * * * * * * * * * * * * * * * * * * * * * * * * * * * * * * * * * * * * * //

dimensions      [0 2 -3 0 0 0 0];

internalField   nonuniform List<scalar> 
15600
(
0.00200898621670362
0.00142157150982049
0.000620374975547226
0.000163038296684432
8.12764304624211e-05
8.83243571432912e-05
3.99909894444516e-05
1.41226551291237e-05
6.62479200216281e-06
4.17677591107366e-06
3.79936008648663e-06
4.20980269691835e-06
5.05448015093259e-06
6.41742899851834e-06
8.31264526446507e-06
1.06089176072891e-05
1.31049816095658e-05
1.5593572621014e-05
1.79506533287124e-05
1.97073291137664e-05
2.02669839019741e-05
1.91654119929369e-05
1.62670055638266e-05
1.27870038197385e-05
1.21878841975155e-05
1.70892672173544e-05
2.63681145661918e-05
3.76746084478414e-05
5.12275714817611e-05
6.65266254527257e-05
8.31846101509424e-05
0.000100793479065749
0.000119092058748218
0.000137860627041581
0.000156963852670081
0.000176291171362972
0.000195767226293225
0.000215326430400189
0.000234914909272509
0.000254481004320689
0.000273975719928294
0.000293350432001861
0.000312557904651977
0.000331552731052204
0.000350293586188158
0.000368746028827245
0.000386889372716179
0.000404719863927607
0.00042223773335319
0.000439444355724135
0.000456236225252621
0.000472383258221963
0.000487726254567881
0.000502220001840814
0.000515825481022323
0.000528508711520586
0.000540240677539685
0.000550996934481423
0.000560758047733947
0.000569509781139164
0.000577243082303256
0.000583954262604858
0.00058964500946058
0.000594321869235597
0.000597995914593699
0.000600682001909271
0.000602397546931361
0.000603161376643493
0.000602992485996666
0.000601909210318911
0.000599930055864341
0.000597074767438088
0.000593367393347014
0.000588835728056847
0.000583508813702875
0.000577413816858489
0.000570571834073337
0.000562994127387182
0.000554677743277028
0.000545603080456888
0.000535730303102304
0.000525001442194671
0.000513336808136103
0.000500638026447577
0.000486768144878488
0.000471578060438532
0.00045484404144552
0.000436392851389124
0.000415925927763102
0.000393493203231114
0.000368923607295056
0.000343325387117324
0.000317405429878548
0.000294756769394673
0.000273275280346012
0.000250489376268681
0.000247058475154202
0.000272861916448704
0.000326346332696808
0.000400112547265152
0.000498601766274212
0.000629233245126575
0.000789581407680786
0.000973370450194242
0.00116722634111312
0.00134542762147682
0.0014749506497917
0.00158858100227527
0.00170145599054936
0.00185646723523669
0.00208809385890684
0.00256619572685526
0.00330249048182204
0.0045536071317811
0.00673847745848351
0.0103811278235933
0.0103924691457664
0.00572656318860872
0.0031513695309613
0.00212540393307982
0.0108962739502551
0.00781381105075237
0.00345275763065274
0.000931249859051534
0.000449850282432921
0.000485950221689104
0.000227927170980452
8.1867083237622e-05
3.77433522707751e-05
2.33230020223726e-05
2.08474762185961e-05
2.29144381399453e-05
2.73991396433495e-05
3.47066940855969e-05
4.49439401336141e-05
5.7438607546171e-05
7.11085503147661e-05
8.48021869703195e-05
9.77414429398323e-05
0.00010751508882905
0.000110814048013311
0.000105086771690415
8.95098768577344e-05
7.05182498135397e-05
6.74972873932142e-05
9.46542711214914e-05
0.000145705953190894
0.000208174454063014
0.000282962476909252
0.000367296784311018
0.000459024204815016
0.000555916188062714
0.000656542590943749
0.000759706807657629
0.000864666731201832
0.000970814441697802
0.00107773072684566
0.00118504849241679
0.00129246331328663
0.00139968267715137
0.00150642895305727
0.00161242743984997
0.00171741218693702
0.00182112869487899
0.00192334588083639
0.00202387134459101
0.00212258927212573
0.00221947834293191
0.00231454147164419
0.00240779264699461
0.0024984238481687
0.00258473039630602
0.00266653953316043
0.00274362639565089
0.00281579947611285
0.00288289517299742
0.00294477693407401
0.00300133331641571
0.00305247985005432
0.00309815963399148
0.00313834306651631
0.0031730284158364
0.00320224138798496
0.00322603229665528
0.00324447396384734
0.00325765752006796
0.00326568596809237
0.00326866807923684
0.00326671202690344
0.00325992159175991
0.00324840052749586
0.00323225889172945
0.00321162775596101
0.00318665587002379
0.00315749656153008
0.00312429128711437
0.00308714807211175
0.00304612176499558
0.00300119184255584
0.00295224912502934
0.00289907836306355
0.00284136756718152
0.0027786908113793
0.00271051798520908
0.00263612193327399
0.00255469340403922
0.00246505515675105
0.0023662385351879
0.00225670435470143
0.00213657073763878
0.00200507129483738
0.00186767913495294
0.0017284525059869
0.00160530731028637
0.00148903582361997
0.00137229494260537
0.00136203718970072
0.00150878868481038
0.00180458037110663
0.00221129293987522
0.00275323459338112
0.00346747620695471
0.00433807122602001
0.0053296630266712
0.006368658993975
0.00731872650844222
0.00802086724107311
0.00864742803142578
0.00928153143702681
0.0101484412174076
0.0114527062085467
0.0140735939005463
0.0180937823009509
0.0248301632817804
0.0362784592714157
0.05415201773326
0.055046021232121
0.0319513392525634
0.0178060717393469
0.0118056574550305
0.0270456271748001
0.0195804924141385
0.00881351261511149
0.00239894441111497
0.00109108129646312
0.00116472859437899
0.000567934818731679
0.000208362350930217
9.48589644502925e-05
5.76065637228487e-05
5.06518251567467e-05
5.5222993039603e-05
6.57713607828131e-05
8.31254900129716e-05
0.000107586170737518
0.000137601458454415
0.000170548103257977
0.000203503859772605
0.000233730260645277
0.000256061796189976
0.000262944461059931
0.00024917214196752
0.000213550950378356
0.000170960091950843
0.000167601310721492
0.000236799211461466
0.00036369900254446
0.000519442540961583
0.000704288745298772
0.000910790980447223
0.00113322741212084
0.00136605528531532
0.00160576516005755
0.00184950643547414
0.00209552209405346
0.00234239192087609
0.00258914145839253
0.00283492754150253
0.00307906134483711
0.00332089546171192
0.00355983281388828
0.00379530062722827
0.00402676289980367
0.00425372472444369
0.00447575336721321
0.00469250806062186
0.00490382886993754
0.00510979736648516
0.00531060011742655
0.00550413751702575
0.00568710807882011
0.00586001977286473
0.00602255482619038
0.00617445328870014
0.00631551636857215
0.00644559484840584
0.00656458518160453
0.00667242576569161
0.00676909831729791
0.0068546273742752
0.00692907903962692
0.00699256064511344
0.0070452184269108
0.00708723225333381
0.00711881088433856
0.00714018377297331
0.00715158990285165
0.00715326707907208
0.00714544169810122
0.00712832446774312
0.00710211902000615
0.00706703606312538
0.00702331529043352
0.00697121812700339
0.00691100392544763
0.00684289940647303
0.00676706018000668
0.00668353347708595
0.00659221873378553
0.00649283908971623
0.00638491172737934
0.00626775554637868
0.00614046070362299
0.00600187876373697
0.00585048608486578
0.00568450053066171
0.00550149103114784
0.00529914597357915
0.00507434672339897
0.00482639377209062
0.00455393476585181
0.00426578728301132
0.00397048277492762
0.00369764746151749
0.00343025382653412
0.00318567112982053
0.003196946128954
0.00355475429680379
0.0042329837171872
0.00516415307826518
0.00640087264082612
0.0080131734515117
0.00995878602924089
0.012158456193733
0.0144536728349997
0.0165800343404875
0.0182578576021846
0.01981354912037
0.0214326135383994
0.0235707047277823
0.0267218863709161
0.0326387416958554
0.0415446873034918
0.0557246089103946
0.0778367910512831
0.107300821204594
0.111075742752865
0.0757727806920698
0.0467323261283843
0.0310598544347752
0.0484543825484497
0.0357270388538503
0.0169420143913492
0.00467828125975869
0.00189718828262597
0.00196445914684743
0.0010014239897131
0.000377207956926517
0.000170343433337137
0.00010193801494969
8.82877210615829e-05
9.55116936931625e-05
0.00011337660764414
0.00014298825283737
0.000184787261956962
0.00023600555952469
0.000291892281395718
0.000346899604551536
0.000394371878538534
0.000427001474948196
0.000434282114643312
0.000410825455901568
0.000357496190421515
0.000298982125132294
0.000308300497816962
0.000440939616597402
0.000669102737802325
0.000941541307451036
0.0012505166192224
0.00158058803307769
0.00192152664789086
0.00226521694029375
0.00260737094175384
0.00294501127836555
0.0032767185004019
0.00360152831335736
0.00391898194532288
0.00422874345303771
0.00453060877467493
0.00482439153534696
0.00510993249912145
0.00538707863075077
0.00565569512402084
0.00591567078817868
0.0061669345269673
0.00640948889807311
0.00664355134556231
0.00686974784026643
0.00708399390847888
0.00728525820520733
0.00747477338223029
0.00765259491536985
0.00781868818558126
0.00797305572754571
0.00811572965503444
0.00824676478392816
0.00836623557777024
0.00847423571472431
0.00857087931256514
0.00865630144607154
0.00873065831202996
0.00879412715440543
0.00884690443834226
0.00888920262567809
0.00892124615312984
0.00894326500520065
0.008955486622744
0.00895812776600332
0.0089513876378712
0.00893544663554774
0.00891047361122004
0.00887663940198455
0.00883412965449452
0.00878313828781454
0.00872384688009504
0.00865639693979423
0.00858085660884521
0.00849718560730564
0.00840520073870236
0.00830454409192375
0.00819465667839354
0.00807477091475131
0.00794388089095592
0.00780069905533527
0.0076435689235586
0.00747044934088293
0.00727871024393341
0.00706543694585087
0.00682719517382004
0.00656173062438989
0.00626720400126922
0.00594859101425927
0.00561267636004933
0.00527764003333872
0.00492608137519218
0.00463001000444421
0.0047032247250434
0.00523918244010848
0.00618486927653892
0.00749060420797338
0.00922090290595897
0.011443593360112
0.0140903418241939
0.0170554715535798
0.020157527234328
0.0231373478431997
0.02576657448709
0.028382963907461
0.0312312556985988
0.0348178262400795
0.0398408576202087
0.0481809353955096
0.0600340546044571
0.0768855918518678
0.0989808280041885
0.12025129402525
0.120662415571008
0.0998499406002899
0.0758907214325247
0.057132930329579
0.0640017076293645
0.0504947645955075
0.0275885252977043
0.00816485615256019
0.0028454333806444
0.00275272835456504
0.0014798615792179
0.000576847761430478
0.0002599212367079
0.000153831530895766
0.000131485520591812
0.000141249001596617
0.000167204567342473
0.000210286769272304
0.000270593786754985
0.000343366499149998
0.000420816779838052
0.000493793049421121
0.000550666134463005
0.000584176302120157
0.000586360589100191
0.000556830180417273
0.00050164776879846
0.000454464183193359
0.000498784591721601
0.00070823176355927
0.0010265900523596
0.00137624490738067
0.00173782547289712
0.00209701106534783
0.00244749160154516
0.00278637205013405
0.00311325592684541
0.0034284551471952
0.00373260517027536
0.00402639763744091
0.00431040919292267
0.00458514142972848
0.00485095862069809
0.0051081440340026
0.00535689279791674
0.00559734838590227
0.00582961214717092
0.00605376739261327
0.00626989666290601
0.0064781156043993
0.00667872888748018
0.00686848120302176
0.00704755926821612
0.00721658942113384
0.00737583049134982
0.00752529922037385
0.00766500531061732
0.00779498131414076
0.00791527528005027
0.00802594919241643
0.00812707664010795
0.00821874413157984
0.00830105137039036
0.0083741121095344
0.00843805449781877
0.00849302056218208
0.00853916468665445
0.00857665162993585
0.00860565315314288
0.00862634367437164
0.00863889527723825
0.00864347242996204
0.00864022810872904
0.00862930353687239
0.00861083189227184
0.00858494686980527
0.0085517869768799
0.00851149153925513
0.00846418636995018
0.00840996367151148
0.00834885930366006
0.00828082738007117
0.00820571750523877
0.00812324982684905
0.00803299818393074
0.00793437826201016
0.00782662824084874
0.00770876446824295
0.00757955022243233
0.00743742194977356
0.00728044996786842
0.00710631315870756
0.00691253880527101
0.00669680202434443
0.00645768286413321
0.00619603553244829
0.00591430806470052
0.00561428872723367
0.00528396743875663
0.00502251406608567
0.00513792792681439
0.0057095690112182
0.00667005316066874
0.0080020683228943
0.00975806884154605
0.0119774407016867
0.0145837439137429
0.0174623015050819
0.0204971246698756
0.0235042910439399
0.0264063805482778
0.0294748263061467
0.0329628188339162
0.0372630503701607
0.0430547918988672
0.0515218466338581
0.0626275343465256
0.0763385573686057
0.0912044840153871
0.100963061608296
0.0988363312050251
0.0920093419926263
0.0849783162547713
0.0739752856142825
0.0676238655395832
0.0571749978865144
0.0382104954087832
0.0132673861205009
0.00395367275662591
0.00338579324884937
0.00194071600021677
0.000792911755018017
0.000359503680335544
0.000211519457065301
0.000178838251305521
0.000190881895651707
0.000225238136272524
0.000281700104424417
0.000358791325644759
0.000448316890950965
0.000538374449978839
0.000616162634167215
0.000667910982251748
0.00069071303188185
0.000686686974831833
0.000663386223428476
0.000631791252795337
0.000628859247043458
0.00072503496632877
0.000987324956662009
0.00132545138611831
0.00166663559544615
0.00199291429494898
0.00230642218175402
0.00260618170575911
0.0028945478560281
0.00317195009693617
0.00343990197959103
0.00369883441381515
0.00394957805397357
0.00419245060244718
0.00442786690905274
0.00465601823645177
0.00487709292565973
0.00509118574585791
0.0052983728506139
0.00549869470776053
0.00569218704061666
0.00587889361560267
0.00605887282741609
0.00623015514288851
0.00639246048886151
0.00654625829674728
0.00669173297057692
0.00682894556016572
0.00695788063798871
0.00707853539151389
0.00719092619109411
0.00729508298411984
0.00739104906726918
0.00747887859504342
0.007558637790192
0.00763040443087432
0.00769426853464511
0.00775033237297901
0.00779870961969928
0.00783952401306322
0.00787290783162087
0.00789899905321652
0.00791793830902078
0.00792986559980317
0.00793491668592292
0.00793322062667723
0.00792489937641131
0.00791006914763156
0.00788884534476633
0.007861343500619
0.00782767734402913
0.00778794864883202
0.00774223235720546
0.0076905605047107
0.00763290353563051
0.00756915489573218
0.00749911199406899
0.007422464811199
0.00733878529797004
0.00724751492829328
0.00714793023183751
0.00703913647372896
0.00691999469409357
0.00678913825521632
0.00664485994673849
0.00648545858824805
0.00630904242759303
0.00611457260359539
0.00590117379176442
0.005668709450862
0.00541184864845844
0.0051248788842993
0.00490811721423537
0.00503007244301231
0.00555870631669331
0.00642634297934656
0.00762852652716768
0.00920037418550932
0.0111587729873488
0.0134253396576787
0.0159054063194423
0.0185235765839478
0.0211586644981833
0.0238150444370066
0.0266979770860765
0.0300348288483755
0.0341083498492838
0.0394823202980807
0.0467275656859405
0.0557065719428089
0.0657812965992868
0.0755418247458662
0.0804878252400078
0.0786042187572497
0.076113063606238
0.0791283445258935
0.0764151976477159
0.0647365968749985
0.0562903965856384
0.0462869515532304
0.0198702782596567
0.00537832050330276
0.00375404260209222
0.00230024796655593
0.0010023389050811
0.000462681035765412
0.000272590664299443
0.000228555250250895
0.000242304341878242
0.000284342603354059
0.00035166396638615
0.00043934716089181
0.000534475743206418
0.000621576579845118
0.000687493799442493
0.000723667566178833
0.000734384598682009
0.000732682336795052
0.000730016780442811
0.000738816514655095
0.000792224569261802
0.000936976661136199
0.00120399367029812
0.0014996764151247
0.00179468177148169
0.00206842292875604
0.0023358295016975
0.0025922610801812
0.00284199280606352
0.00308346872221782
0.00331837916893235
0.00354629116335592
0.00376789656785423
0.00398312685991352
0.00419224948642234
0.00439527243705872
0.00459228447974967
0.00478328767032458
0.00496829637591885
0.00514729830078531
0.00532028774708065
0.00548727932663906
0.00564731572562601
0.00579945843394639
0.00594404621295852
0.00608126365256952
0.00621116401021245
0.00633374865154047
0.00644899052900232
0.00655688054893377
0.00665742670846887
0.00675065012980555
0.00683658490238923
0.00691527556622114
0.00698677793544708
0.00705115828176739
0.00710849386524138
0.00715887272545856
0.00720239274995975
0.00723916052731303
0.00726929006949501
0.00729290046152867
0.0073101136517659
0.00732105216245486
0.00732583648135682
0.00732458324210984
0.00731740442143869
0.00730440723740262
0.00728569677599394
0.00726137590021568
0.00723154476449439
0.00719629338848419
0.00715569016307257
0.0071097698320902
0.00705851906741534
0.00700186542468328
0.00693966229039035
0.00687168017918478
0.00679759831652721
0.00671699609529177
0.00662932780572875
0.00653392581233643
0.00642994187285012
0.00631637286790376
0.00619194229884529
0.00605541938651812
0.00590529904596687
0.00574070765207006
0.00556011153845034
0.00536203488445415
0.00513925011767832
0.00489089356410605
0.00470937595928051
0.00482392375592902
0.00529642242267682
0.0060652359557884
0.00712806002137875
0.00850657515868029
0.0102030577823809
0.0121398458149972
0.0142493435665938
0.0164719473406242
0.0187262462613767
0.0210464906193465
0.0235885427721821
0.0265419519265396
0.0301155508087693
0.0347581977626447
0.0407271425701084
0.0478934286759307
0.0555688459071998
0.0626768930686422
0.0659477474435623
0.0646909162234436
0.0630496492876644
0.0690444946025734
0.0714190380821907
0.0601507712797305
0.0514382639777365
0.0509313289705651
0.0271313819741209
0.00745742961683774
0.0039039208932292
0.00248864059592744
0.0011748064471187
0.00055973636380999
0.000333259039243663
0.000277798334531277
0.000292070355266723
0.000339417980708607
0.000412101735554019
0.000500483289337231
0.000587891821371577
0.000659163340175597
0.000706160754331142
0.000729397416119314
0.000738321310305647
0.000749217522633583
0.000773558002438004
0.000823085304915693
0.000922923671434877
0.00109639229385857
0.00133521948826286
0.00157633906036149
0.00183265335175704
0.00206853355245446
0.00230618347289321
0.00253453267101241
0.00275955088278354
0.0029777535755414
0.00319112160149954
0.00339860424362936
0.00360085518555114
0.0037975768518186
0.00398896470524024
0.00417492957619984
0.00435551036402331
0.00453066253783842
0.00470036944486651
0.00486459202774284
0.00502329957326782
0.0051762640524174
0.00532223727829675
0.0054612997898457
0.00559360863043163
0.005719239657177
0.00583819612397691
0.00595045788539753
0.00605599530013742
0.00615479752240197
0.00624686945873306
0.00633222888277106
0.0064109060298484
0.00648294115008825
0.00654838495682939
0.00660729774131789
0.00665974978407575
0.00670582102921644
0.00674560018238615
0.00677918372903307
0.00680667482284694
0.00682818135223946
0.00684381429264906
0.00685368604771563
0.00685790848491334
0.00685659140975602
0.00684984135379353
0.00683776048420628
0.00682044772013914
0.0067979985040568
0.00677050536851909
0.00673805241898977
0.00670070615733992
0.00665850614765911
0.00661145342474543
0.00655950230358844
0.00650254806174091
0.00644041964417651
0.00637287339371878
0.00629958700995938
0.00622014134699602
0.00613402742533085
0.00604060268424818
0.00593911148899481
0.00582858179421557
0.00570808614327672
0.00557641854966776
0.00543277840082123
0.00527540982420611
0.00510217834058455
0.00490598805253043
0.00468928575575601
0.00453465624531882
0.00463875753393292
0.00506052531562234
0.0057462483091208
0.00669249871066458
0.00791153070716801
0.00939335396151722
0.0110696798711344
0.0128890476259429
0.0148013640742897
0.0167503287646551
0.018779892755621
0.0210127177122253
0.0236049844947685
0.0267194242366875
0.0307143952117899
0.0357026082018981
0.0415833309631651
0.0477596805649444
0.0533984772776344
0.0559816113789029
0.055144559521227
0.0536521445274439
0.0595119188039311
0.0641852252818431
0.0555671877751831
0.0455829039640989
0.0524053796982949
0.0340891590252868
0.0104249143142086
0.00404640967436992
0.0025105797576754
0.00128623236928956
0.000639469026032617
0.000388431829745998
0.000322717113974244
0.000335702210598888
0.000384573760754516
0.000455762518746397
0.000535693193536341
0.000607450754061152
0.000660469271032044
0.000693367312858113
0.000712786404272185
0.000729353339733388
0.000757074404664082
0.000806699043872535
0.000888494868067621
0.00101687980727164
0.00119941388541136
0.00140159448815128
0.0016030942694972
0.00183519267796101
0.00204713542301614
0.00226609665741364
0.00247606704238477
0.00268466739820358
0.00288712770451954
0.00308572656915195
0.00327906285215787
0.00346778396119529
0.00365147708095236
0.00383029870897139
0.00400411348093803
0.00417293377222603
0.00433669276457889
0.00449535728997673
0.00464887460935079
0.00479722688789858
0.00493964319524926
0.00507558453948047
0.0052052077254031
0.00532858959662535
0.00544575513130397
0.00555668556329767
0.00566135216387021
0.0057597254870942
0.00585179440101159
0.00593756278950462
0.00601704726475776
0.00609027645814973
0.00615728865324862
0.00621813191192301
0.00627286321362981
0.00632154876909345
0.00636426363942866
0.00640109090044674
0.00643212079159581
0.00645744972532498
0.00647717869394709
0.00649141201236649
0.0065002560846163
0.00650381787963162
0.00650220353584095
0.00649551678357869
0.0064838571308298
0.00646731993530834
0.00644599638438218
0.00641997488544604
0.00638933696800148
0.00635414977121325
0.00631445861903987
0.00627027738961679
0.00622158237816404
0.00616830192194012
0.00611030987056808
0.00604742125591007
0.00597938805784239
0.00590588622855896
0.00582652445094286
0.00574081333831028
0.00564817701577045
0.00554786787100866
0.00543916995820022
0.00532110893936063
0.00519292693655299
0.00505284072634375
0.00489843806886181
0.0047234794581809
0.00453256895308245
0.00439887512358788
0.00449283657885038
0.0048718360195809
0.00549019220184892
0.00634269223454674
0.0074341849036159
0.00874566971319535
0.0102213659426669
0.0118178296337578
0.0134923214729106
0.0152053708269043
0.0170032722840863
0.0189865895822667
0.0212856179823199
0.0240341823963329
0.0275227171406005
0.0317977261225705
0.0367813860762356
0.0419794103556413
0.0467065330504509
0.0489273050510911
0.048301432155616
0.0468693566786143
0.0517058045836024
0.0568911384171223
0.0512404757924876
0.0403365382482694
0.0513692000262095
0.0400610939699796
0.0142338707633276
0.00440559690549681
0.00244993016875667
0.00133645199625164
0.000694802214253
0.00043330052125693
0.000359667081509316
0.000369461529667373
0.000416040552670266
0.000480478647167532
0.000547613346137809
0.00060351139342794
0.00064325075555787
0.000670024877113216
0.000692588423840575
0.000720595248699334
0.000764488669830236
0.000834281568644239
0.000937869354493054
0.00108019599288561
0.00125994614829198
0.00143077468138048
0.00161007342969626
0.00182693424660381
0.00202364225909395
0.0022300045147636
0.00242736376185342
0.00262442888064802
0.00281575630988467
0.00300378273077994
0.00318694842750527
0.00336587515477937
0.00354010153589185
0.0037097521746567
0.00387467125407964
0.00403485302673678
0.0041902194071114
0.00434072627644446
0.00448630888141969
0.00462686287301608
0.00476143735452904
0.0048899990448575
0.00501263472193072
0.0051293777183909
0.00524022589585589
0.005345149800653
0.00544411692389937
0.00553709852880803
0.00562408347298868
0.00570507534327134
0.00578009044120569
0.00584915678085603
0.00591231177503106
0.00596960209140526
0.00602108284990625
0.00606681785532781
0.00610687919473599
0.00614134647768027
0.00617030608420843
0.00619385026335436
0.0062120758150701
0.00622508310986154
0.00623297515534084
0.00623585639030445
0.0062338313404041
0.0062270027252888
0.00621546907317591
0.00619932402378883
0.00617865665036372
0.00615355354534603
0.00612409582581352
0.0060903528514588
0.00605237623944261
0.00601019161177272
0.00596379406491831
0.00591313920411731
0.00585813700020718
0.00579864920185658
0.00573448651222651
0.00566539941624818
0.00559108789538728
0.00551118144790901
0.00542524134960011
0.00533269148910409
0.00523297265837936
0.00512529364533397
0.00500893186801381
0.00488217004942943
0.00474253842995413
0.00458486434005412
0.0044151053441246
0.00429808695655112
0.00438307746113482
0.00472640136605438
0.00528986005675428
0.00606656902673159
0.00705417878617458
0.00823081222629063
0.00954955060774064
0.0109722273191731
0.0124619885773855
0.013991259962382
0.0156059405158505
0.0173915218903446
0.0194587967372414
0.02192277053882
0.0250228449396034
0.028775915165802
0.0331197872730776
0.0376450284788791
0.0417518352040322
0.0437313480913976
0.0431765788071042
0.0418109257817731
0.0455422545292678
0.0503575267154591
0.0470925276209106
0.0362898366457129
0.0484831283126934
0.0445342372202771
0.0186983133371186
0.00514071191117954
0.00240572501076794
0.0013490838686798
0.000727851141810463
0.000465903699140016
0.000387028954019481
0.000392289815074938
0.000434041759631759
0.000489571120928144
0.000544265303181376
0.000588246758148804
0.000620803940036185
0.000647117589887153
0.000675888154265748
0.000715334849685254
0.000773230883910181
0.000857827411707946
0.000973552180223245
0.00112150574063015
0.00129346259849782
0.00144209859635087
0.00161103796552496
0.00181709349087227
0.00200386708347078
0.00220112224146377
0.00238956355683655
0.00257823660618012
0.00276151648447975
0.00294182289110507
0.00311756865892907
0.00328931786351207
0.0034565988860278
0.00361950285971243
0.00377786624856976
0.00393166778161495
0.00408082291000463
0.00422527891441628
0.00436496695690301
0.0044995791808966
0.00462837599935232
0.00475146813381386
0.00486890294127141
0.00498068753938111
0.00508680394513864
0.00518721698736223
0.00528189215644802
0.00537080116428479
0.00545393272835944
0.00553129034070147
0.00560289032455028
0.00566876055837378
0.00572893817647938
0.00578346919937602
0.00583240779866968
0.00587581646213665
0.00591376558657642
0.00594633279453937
0.0059736022539713
0.00599566383994495
0.00601261203970122
0.00602454516935119
0.00603156465921169
0.00603377409204019
0.00603127787216878
0.00602417906395087
0.00601257652342767
0.0059965635926714
0.00597622880853207
0.00595165861571547
0.00592293526136517
0.00589013143369238
0.0058533054238664
0.00581249381715242
0.00576770832819075
0.00571892786609897
0.00566609251054199
0.00560910251852358
0.00554781665175367
0.00548204571516891
0.00541156292192461
0.00533609305249665
0.00525530586054537
0.00516875997370991
0.00507601755127091
0.00497643541041218
0.00486932644019368
0.00475308508613214
0.0046253129386344
0.00448190574750795
0.00432962704239991
0.00422613670860466
0.00430344076108163
0.00461688066539456
0.00513496643759455
0.00584889378408157
0.00675093383541272
0.00781919241597682
0.00901256376707644
0.0102969173359894
0.0116402588886776
0.013023793830394
0.0144920539895277
0.0161199146037475
0.0180034764984784
0.0202448903212676
0.0230448124041842
0.0264083654449727
0.0302835412115522
0.0343247118196145
0.037978383279748
0.0397651665751159
0.0391947843092391
0.0379046065270864
0.0406644607604162
0.0448284919903534
0.0430698351405965
0.0334738772151912
0.0442554530381175
0.0475141824104504
0.0234745283246521
0.0063512774251262
0.00244959030456334
0.00135401701574278
0.000748189461855763
0.000488223088677314
0.000405892176581559
0.000405973193823781
0.000441822064023612
0.000488676916730321
0.00053349955719644
0.000569945362450651
0.000599714959488461
0.000628469790931481
0.000664124881723516
0.00071351781891231
0.00078270555416126
0.000877400867281854
0.000999522887395182
0.00114826659916244
0.00131135668595781
0.00144626544609961
0.00161126656199418
0.0018088262339012
0.00198905952697247
0.00217945417143171
0.00236154721305821
0.0025440513821318
0.00272152042481668
0.00289620662147654
0.00306658037016616
0.00323312033740199
0.00339536558333139
0.00355337068573783
0.00370697020821687
0.00385612792551883
0.00400075459008628
0.00414078949850623
0.00427618542703909
0.00440634043686619
0.00453092081869966
0.00465000720559401
0.00476362019814383
0.0048717497219284
0.00497436772947917
0.0050714355410231
0.00516291718492827
0.00524878431751269
0.00532902525666474
0.00540364339638431
0.00547265521144811
0.0055360887187201
0.00559398115043918
0.00564637839452672
0.00569333432766426
0.00573491092311629
0.00577117784638593
0.00580221184769998
0.00582809612855273
0.00584891954331302
0.00586477568781319
0.00587576225292059
0.00588198047332539
0.00588353436580317
0.00588052939617413
0.00587307009112887
0.00586125673539798
0.00584518354488623
0.00582493976843366
0.00580061299971933
0.00577228780658769
0.00574004105515599
0.00570393803650351
0.00566402575796961
0.00562033102450854
0.00557285325460218
0.00552155834816576
0.00546637920720324
0.00540721501882563
0.00534392664396481
0.0052763474969623
0.00520428071956808
0.00512748419640142
0.00504562470358448
0.0049583613575257
0.00486517327269284
0.0047654108136481
0.00465760193411606
0.00453949335480648
0.00440796670983869
0.00427021717865912
0.00417786492952543
0.00424866427691629
0.00453688109714423
0.00501683353730697
0.00567735746282395
0.00650847509027615
0.00748798723588953
0.00857923198828284
0.00975128515832569
0.0109762753829787
0.0122421297092549
0.0135917682113152
0.0150923512199085
0.0168288189944585
0.0188941079995184
0.0214592103515524
0.0245264250275576
0.0280499721641293
0.0317290304917938
0.0350312460988395
0.0366439563051593
0.0360061129662212
0.0347892159545697
0.0367420815795806
0.0402821275964359
0.0391945735907959
0.0316787955310058
0.0391080586091692
0.0492734340330803
0.028164960533126
0.00813959111102325
0.00263213909742585
0.00137552277885867
0.000766759348041611
0.000504686784680035
0.000419010765953484
0.000413649980848245
0.000443405388994107
0.000482834505777984
0.000520581001515205
0.000552798529207189
0.000582327638639965
0.000614670035291032
0.000656824062999253
0.000714436225970055
0.000792076037887572
0.0008934209006573
0.00101872142721423
0.00116583481663045
0.00132083507393985
0.00144848766923629
0.00161248835671522
0.00180309829676647
0.00197907584968859