/*--------------------------------*- C++ -*----------------------------------*\
  =========                 |
  \\      /  F ield         | OpenFOAM: The Open Source CFD Toolbox
   \\    /   O peration     | Website:  https://openfoam.org
    \\  /    A nd           | Version:  7
     \\/     M anipulation  |
\*---------------------------------------------------------------------------*/
FoamFile
{
    version     2.0;
    format      ascii;
    class       volTensorField;
    location    "20000";
    object      gradU;
}
// * * * * * * * * * * * * * * * * * * * * * * * * * * * * * * * * * * * * * //

dimensions      [0 0 -1 0 0 0 0];

internalField   nonuniform List<tensor> 
15600
(
(0.053431748386323 -0.0150571853918701 6.73550219201561e-22 15.7729604918488 -0.101917290655929 1.22541484719441e-24 0 0 0)
(1.00182444374884 -0.0766883473347155 -2.97324669368587e-22 16.4342736592459 -0.987598084253953 -1.43925134335736e-21 -1.85907190757376e-21 1.95600890971462e-22 1.93602135446634e-44)
(0.715094788266375 -0.121691842112794 1.66590466927989e-17 3.92268054359024 -0.773568090986657 6.12540112574013e-17 1.90753908339302e-21 -2.00700329424862e-22 -1.98649465084314e-44)
(-4.52863744734661 2.55334388763335 3.79915155283497e-14 -7.82782201142775 4.36983634590159 6.79063142963716e-14 0 0 0)
(-5.66233893370171 4.51079333425787 5.66186629680214e-14 -7.05210671767436 5.54622773891637 6.96607784441593e-14 0 0 0)
(-4.14458210017091 3.93127571564833 2.04971325464711e-16 -4.31862310804115 4.06338393550584 1.90975033884954e-16 0 0 0)
(-2.9827198488521 3.11772683112046 -4.08197244081802e-16 -2.81084020910796 2.92496732614119 -3.83851159836914e-16 3.06174281968488e-17 -3.18621259403351e-17 4.17313579378856e-33)
(-2.09342853164877 2.3011737313074 2.09469072540894e-16 -1.88059967741796 2.06211447292868 2.00593592752821e-16 0 0 0)
(-1.49691297867529 1.66343347911736 -4.24901986333745e-17 -1.33163842006123 1.47869984225213 1.58659273359547e-18 0 0 0)
(-1.13082948792593 1.24174333745064 4.59213088122793e-16 -1.02393247223967 1.12482276212827 4.15293836960954e-16 -1.1339221206141e-17 1.24561539930914e-17 4.59402904230948e-33)
(-0.992553788133026 1.07169133688645 -3.40166089403017e-18 -0.916447562389764 0.990236207976637 5.66102052321938e-19 -4.95714529165678e-21 5.31780773609958e-21 -2.3858223965111e-36)
(-0.948217045605611 1.00958430577996 -5.55068690406658e-16 -0.890513882423386 0.948819316244302 -5.49612315020882e-16 -2.66341195631902e-22 2.22038917336402e-22 2.34363495992444e-36)
(-0.987245382969551 1.03943840261876 2.32064097029229e-16 -0.93878011742296 0.989243964832837 2.24914931616473e-16 1.00360294736994e-20 -1.05612946568398e-20 -5.79607938493994e-39)
(-1.08552442451944 1.13103019983706 -3.17549750332186e-16 -1.04229388487862 1.08700575234531 -2.19888045680337e-16 -5.09219317009986e-21 5.32482536066533e-21 -7.58283720200427e-38)
(-1.19656918531925 1.23430317445454 2.45064175675629e-16 -1.15810025932695 1.19620231596825 2.15194519795234e-16 -1.22788686575752e-17 1.26812496599886e-17 2.29789329940327e-33)
(-1.26967856256316 1.28208950478755 5.35631427709997e-17 -1.25187282492976 1.26700169152451 -6.68516945015195e-18 -1.37029907825489e-20 1.34543377892323e-20 2.14670816666378e-40)
(-1.27461228601467 1.23491693946129 3.407305604289e-16 -1.30674684960528 1.2706986893659 3.51385740172525e-16 1.3038687435806e-20 -1.28020888193958e-20 -2.04263851922512e-40)
(-1.19409048266437 1.08298491179551 1.18054599561028e-18 -1.30534254716082 1.19029262536228 1.44083084024117e-18 0 0 0)
(-1.01487414733052 0.834332669659118 -1.61766851535312e-18 -1.22266717824944 1.01317833695656 -2.01889235853918e-18 -1.07098448474725e-20 8.48505192127805e-21 1.72522825612859e-40)
(-0.761175694520769 0.542679618644729 -3.48221915787481e-17 -1.05847252657811 0.76363763225044 5.6712823263987e-18 1.00353481621553e-20 -7.95067075356232e-21 -1.61657488563191e-40)
(-0.484981408572052 0.284647128978763 1.16780529197087e-16 -0.822140013971008 0.491164390455098 1.30427897015605e-16 0 0 0)
(-0.232359853656006 0.103960926850797 1.89480077651582e-16 -0.520332713074158 0.240197194857414 3.1065351314563e-16 0 0 0)
(-0.0617856665080665 0.0176689955053653 -5.33927732132547e-17 -0.229383317538393 0.0709981888367377 7.02285565052013e-18 -9.18410654556524e-22 -3.05565752000274e-24 2.53956764077144e-36)
(0.0145070024934922 -0.00358803893481583 1.19558454171193e-17 0.0304190205013092 -0.0106962744484706 8.15630326961423e-17 1.19335694642871e-19 -4.10358999187551e-20 3.04194784101175e-34)
(-0.0228672563757672 0.00303544564158418 1.96924389456198e-17 -0.0417412994838804 0.0270321103376874 1.7958138604941e-17 -4.09037177031014e-20 2.52619862247834e-20 1.86555502551622e-35)
(-0.0418929609698271 0.000381891425649202 -2.64950088391042e-15 -0.762408239156385 0.0459017065503524 2.85593333943156e-16 6.10298669960556e-21 -3.6928069236748e-23 3.59240024517609e-34)
(-0.0455427609991841 0.000134862112500092 -2.69023679426469e-15 -1.60432351773711 0.0479262288804537 1.1200933299747e-14 -8.8080460566583e-16 2.63713704443727e-17 6.32606699551168e-30)
(-0.0475784661888329 0.000224777202816332 2.65660953390652e-15 -2.44111926913926 0.0526640853335155 8.50331795952515e-15 -1.35235419372527e-15 2.90498496719986e-17 4.53356604077524e-30)
(-0.0479533424075408 0.000181926672426462 2.69274522675161e-15 -3.30569100669677 0.05279027273693 -2.72540370049839e-16 0 0 0)
(-0.045185069599068 0.000161409473820793 5.357423659269e-22 -4.10937290592712 0.0509558842900722 6.62315353866521e-19 3.16722609764285e-20 -1.52898593509839e-22 -9.47318099444173e-39)
(-0.0416615828204416 0.000128001690684009 -2.73533936957513e-15 -4.84862604693389 0.0476926707088625 2.50902152339292e-16 5.63915290921535e-21 -1.73258205162425e-23 3.7024510159537e-34)
(-0.0376394374158745 0.000104807474126381 -2.81372234326398e-15 -5.50981765074154 0.0441247246121335 8.68288793950766e-15 -3.13971818114271e-15 2.51937708744706e-17 5.11364268446676e-30)
(-0.0337790709315618 8.28344981620934e-05 2.73526991826056e-15 -6.09883429232834 0.0405574126613853 6.75672640127353e-15 -3.50828670341154e-15 2.32880487032162e-17 3.73059918386589e-30)
(-0.0301851607311377 6.52509260484337e-05 2.81372180752186e-15 -6.62054389919818 0.0372642405794826 -2.4028732849717e-16 0 0 0)
(-0.0269580840140758 4.92533756452895e-05 0 -7.08282433884359 0.0342678180026703 0 0 0 0)
(-0.0240704958256339 3.51264051294184e-05 -2.74780554879607e-31 -7.49226034391723 0.0315745368403025 2.08585053995896e-32 0 0 0)
(-0.021492745700491 2.2026938346764e-05 1.54089386854421e-45 -7.85501709199911 0.0291372004328322 6.51112647591755e-31 -4.12991498445926e-31 1.53171844320426e-33 3.4278188932809e-62)
(-0.0191743393535309 9.8868228835721e-06 3.00395711371812e-15 -8.17609159477088 0.0269132332890616 -2.09026985415318e-16 0 0 0)
(-0.0170714499165871 -1.58400936834651e-06 3.1313191710196e-15 -8.45966501893189 0.0248557407762681 -7.49167703516196e-15 4.64140580366589e-15 -1.36275963917228e-17 4.2412400162044e-30)
(-0.015142996599944 -1.24481764034238e-05 -3.00399974593107e-15 -8.70908410142293 0.0229263324727939 -6.17256873057565e-15 4.81419541023467e-15 -1.26834040559052e-17 3.29071103706644e-30)
(-0.0133563857674438 -2.27743224803502e-05 -3.13132051981977e-15 -8.92707364205252 0.0210929897373996 1.97674702361868e-16 -3.48219841435842e-20 1.07607046792295e-22 -2.97655108127155e-39)
(-0.0116854398712611 -3.25710159977482e-05 8.65088739661181e-20 -9.11584591234693 0.0193316356270058 -1.79236693598358e-20 -7.90848280189079e-22 -2.20434423261732e-24 5.85475557196788e-39)
(-0.0101104910893888 -4.18198656391974e-05 4.80688737914697e-20 -9.27723240166759 0.0176241051756202 4.15868504155043e-19 3.56128324237746e-20 -1.05402702559681e-22 -2.87820449069656e-39)
(-0.0086166927081025 -5.04970583807224e-05 -9.05590715761254e-20 -9.41277506568223 0.0159581502425427 4.50297050750034e-19 3.68802525005701e-20 -9.91548692390873e-23 -2.54895585326905e-42)
(-0.00719208049538368 -5.86200947465071e-05 -4.67200736569715e-20 -9.5237949000176 0.014324119945045 -4.42851865648038e-19 -3.68802525005682e-20 9.91548692390822e-23 2.54895585326892e-42)
(-0.00582654543605601 -6.61771133893876e-05 -3.98632269877524e-15 -9.61142311895393 0.012714588573366 1.76516811194395e-16 0 0 0)
(-0.00451223368397838 -7.31831561637941e-05 -4.1512870279968e-15 -9.67664022196366 0.0111245663797489 8.56798306230991e-15 -5.52536801923598e-15 6.33445735376603e-18 5.00537196647402e-30)
(-0.00324411555145041 -7.96988472744485e-05 3.98637109479988e-15 -9.72031712150591 0.00954942343119661 7.67902689366474e-15 -5.5766996170334e-15 5.49229325866707e-18 4.3065044176185e-30)
(-0.00202079731500041 -8.57504310515406e-05 4.15123231517289e-15 -9.7432710410059 0.00798786600455164 -1.56912782794018e-16 1.36763707552715e-22 5.80342560226013e-24 -2.80947484500967e-34)
(-0.000842326668076008 -9.12683069523943e-05 2.74079825068523e-20 -9.7463404292926 0.00644159565136908 -1.15264486727629e-18 -3.84230268990895e-20 7.45586442785655e-23 -3.5868854222873e-39)
(0.000291235093048529 -9.6109968761548e-05 2.5591224083905e-20 -9.73034983761124 0.00491412422807224 2.76834909185365e-19 1.92301618636009e-20 -3.09386200040813e-23 1.08775710982878e-46)
(0.00137825095759558 -0.000100191932160833 -4.63657149444862e-15 -9.69611436106984 0.00341131102872485 1.17387988605613e-16 -1.92301618625764e-20 3.09386200035629e-23 -1.08804905496183e-46)
(0.00241650971129658 -0.00010355268679751 -4.80062494378596e-15 -9.64450483311836 0.00193855425492 9.47798623706842e-15 -5.30405215349085e-15 1.05636546099032e-18 5.28479415711645e-30)
(0.00340471759778185 -0.000106271060264262 4.63651047828051e-15 -9.57639722105368 0.000499755732177367 9.08676482803228e-15 -5.28027949662878e-15 2.81544027978659e-19 4.95480244166119e-30)
(0.00434234375718308 -0.000108385422180139 4.80065406538641e-15 -9.49267265041733 -0.000902123186225551 -9.14082172876281e-17 -1.89865383846362e-20 2.04479851003945e-23 -1.62450634164647e-34)
(0.00522914863032124 -0.000109920590989902 3.18945714031428e-20 -9.39420998169932 -0.00226426427891142 -5.04397265093452e-22 0 0 0)
(0.00606491622839513 -0.000110900803268634 5.13048720863116e-31 -9.28188647628796 -0.0035841490744132 -1.9985922337556e-30 9.75807959293799e-31 3.77115021325735e-34 2.09973440641579e-61)
(0.0068493523279231 -0.000111345385645005 -9.97759945762932e-31 -9.15657774853723 -0.00485913021323576 -1.02389707173912e-30 4.81317581749835e-31 2.555533939228e-34 5.44148489080724e-62)
(0.00758211597657839 -0.000111280987757977 -1.05470738143909e-30 -9.01916056229373 -0.00608663250407864 4.95866133631364e-33 0 0 0)
(0.00826294805256094 -0.000110735954265931 1.23045800670771e-44 -8.87051147861092 -0.00726428798766856 1.11284884431523e-30 -4.66282216444139e-31 -3.81931427803046e-34 5.85985247277667e-62)
(0.00889164763032663 -0.000109739032015693 -9.920098798354e-21 -8.71150611121775 -0.0083898737938264 -3.13763156741532e-23 0 0 0)
(0.00946818376442019 -0.000108325714945823 -1.04055777075131e-20 -8.54301788926228 -0.0094614248160144 -9.4675091986867e-20 -4.26704516066108e-21 -2.33795646417224e-24 -1.71950376770774e-40)
(0.00999281235315029 -0.000106534037963055 3.02774586595839e-20 -8.3659140072646 -0.0104774635552443 -9.89834258711951e-20 -4.09797154103706e-21 -4.14046158235431e-24 3.40329784977884e-40)
(0.0104660605179325 -0.000104401672147228 1.04055777075127e-20 -8.1810511393116 -0.0114368776483178 1.94249515696481e-19 8.36501670083766e-21 6.47841804532385e-24 -1.68379408186675e-40)
(0.0108887851450464 -0.000101970857408515 -2.0357359860688e-20 -7.98927163648445 -0.0123390389067045 -2.57553462845304e-22 0 0 0)
(0.0112622188229193 -9.92834973265144e-05 0 -7.79139773049504 -0.0131838931080149 -5.1363304609539e-19 0 0 0)
(0.0115878795799238 -9.63792152402685e-05 -1.63293981169267e-35 -7.5882269916491 -0.0139718083137334 -1.0946806109707e-20 0 0 0)
(0.0118674781956005 -9.32963594440902e-05 -7.89512011313812e-34 -7.38052954931496 -0.0147035250255997 5.29268430302904e-19 0 0 0)
(0.0121026777487388 -9.00622846997644e-05 1.36989771137564e-30 -7.16904711331876 -0.0153799607828764 3.89956889727717e-32 0 0 0)
(0.0122948208037526 -8.66994234950243e-05 9.69433992655494e-20 -6.95449754264372 -0.0160017134028353 3.06622621061751e-21 7.31169849799561e-31 1.6819819716001e-33 3.45625024088614e-61)
(0.0124447154229213 -8.32172660433201e-05 -1.95907141783904e-19 -6.73758163801105 -0.016569166241281 -2.43309698633753e-19 2.71717814635104e-20 7.70316511808515e-23 6.6976773174859e-39)
(0.0125527036208575 -7.96307558752486e-05 7.64351684907047e-15 -6.51899227550082 -0.0170819481109733 2.90595668790521e-16 -5.34940198905877e-20 -1.59452560021477e-22 5.17285244771622e-34)
(0.0126194523162771 -7.59807493336116e-05 1.55064138713461e-14 -6.29941622125869 -0.0175402800651981 -1.78991815461633e-14 3.47773343978397e-15 9.68634364583522e-18 9.69703770928132e-30)
(0.012646457192509 -7.23089736138007e-05 2.11215931653352e-16 -6.07952059893339 -0.0179453504578992 -3.99246622115103e-14 6.69649856954549e-15 1.97635032154733e-17 4.40274142052757e-29)
(0.0126359472832442 -6.86547994772427e-05 -1.55061134410703e-14 -5.85994203172127 -0.0182991977619205 -2.22703404195018e-14 3.21834046400252e-15 1.0041255478004e-17 1.24698589824359e-29)
(0.0125906811168258 -6.50460812632698e-05 -7.85472176155765e-15 -5.64127721552811 -0.0186046277487377 -3.70361454925642e-16 2.37571130576369e-20 9.71033002887291e-23 -5.31606966351092e-34)
(0.0125135718737543 -6.14998220215757e-05 -2.12635361419826e-19 -5.4240793978772 -0.0188646032499741 -2.85956888390976e-19 2.20581051028801e-20 1.056676856352e-22 1.01287792064431e-41)
(0.0124071696500943 -5.80136040073437e-05 3.48569824563277e-21 -5.20886139227608 -0.019082032095773 3.21224796472083e-19 -2.20581051028815e-20 -1.05667685635207e-22 -1.01287792064437e-41)
(0.012273184083362 -5.45785126707677e-05 8.62396013254983e-15 -4.99610822084894 -0.0192587279758584 5.15203621951953e-16 2.0387785840654e-20 1.13287705319412e-22 -5.83653397106203e-34)
(0.0121118732315885 -5.11617019571994e-05 8.63619761383152e-15 -4.7862956333933 -0.0193956287610467 -2.29004005540632e-14 2.6461327998195e-15 1.0737983121613e-17 1.23274026852748e-29)
(0.0119215431906479 -4.77350755909805e-05 -8.6243149360785e-15 -4.57992138873061 -0.0194909773164532 -2.74512357037405e-14 2.51238938246791e-15 1.06704524543935e-17 1.54349009975807e-29)
(0.011698063216682 -4.4245445703027e-05 -8.63607580319501e-15 -4.37753886396911 -0.0195418289382493 -5.78030720379308e-16 -7.34615950381475e-20 -4.85912297033733e-22 1.16888410266433e-33)
(0.0114362391830313 -4.07441017187994e-05 4.62915755564499e-19 -4.17979858655891 -0.0195415912700364 2.25683185186811e-18 3.59390949149476e-20 2.45950595882652e-22 3.10854756897575e-38)
(0.0111274426245256 -3.70945433654798e-05 -2.33258900930153e-19 -3.98745077872197 -0.0194862163049667 -1.69688343173204e-20 0 0 0)
(0.0107623163009806 -3.35006730237916e-05 2.45542659470058e-19 -3.8014489336381 -0.0193593715787765 1.94156937138031e-20 0 0 0)
(0.0103226459717141 -2.95100945749551e-05 2.69867738991378e-21 -3.6228976811687 -0.019159087951692 5.47313158616115e-18 3.00309809742269e-20 2.65015435035172e-22 -3.36010003029988e-38)
(0.00979350399250492 -2.58684569719222e-05 -4.94352253815927e-19 -3.45336123208358 -0.0188426485229886 -3.16400244221391e-18 -1.32561133766874e-21 3.50145564613151e-24 6.69136350954532e-38)
(0.00913491278036203 -2.10481078884124e-05 -2.69867738992171e-21 -3.29452914517628 -0.0184268111572475 -2.37315982024662e-18 -2.87053696365562e-20 -2.68516890681285e-22 -3.33126347924513e-38)
(0.0083317559133045 -1.77078005002292e-05 2.48809594345833e-19 -3.14922585232367 -0.0177938006276095 3.30633731441642e-18 0 0 0)
(0.00730872511007115 -1.13710334414722e-05 2.59756515785781e-19 -3.01981455073709 -0.0170578882042233 -6.60985327014522e-18 0 0 0)
(0.00609737931694972 -1.01112216206056e-05 -2.59944132958258e-19 -2.91130657777522 -0.0159181075412996 9.18334761307896e-18 2.45265488482701e-20 2.76670498674064e-22 2.53951446898356e-41)
(0.00470371801842178 -5.16915084750518e-06 -2.5975651578581e-19 -2.82524237057471 -0.0148704652660242 -5.90100670939282e-18 -2.45265488482696e-20 -2.76670498674058e-22 -2.53951446898352e-41)
(0.00305609103017681 -2.85042066735713e-05 2.59944132958235e-19 -2.76669452519918 -0.0134102354145609 2.63097030440755e-20 0 0 0)
(0.00417359937650766 -6.72135327613587e-05 -2.77368187793906e-19 -2.73332739856414 -0.0140698877391132 3.48233872569464e-18 0 0 0)
(0.00853100459004415 -0.00440743660593849 2.70746610535688e-19 -2.64929686770351 -0.0193733076326267 -6.13066273497826e-18 -2.17020703487101e-20 -8.8628051011153e-22 -7.98131161037829e-40)
(0.166027401641521 -0.00327567149144018 -5.52045898796214e-17 -2.48971683848787 -0.171989738454107 -2.3424235620657e-16 2.17152237643152e-20 8.8681767618393e-22 7.98614900639618e-40)
(0.497195249751545 0.0843774584182518 1.79817135973778e-14 -2.3398194514709 -0.493268379635068 1.43498647103152e-15 0 0 0)
(0.801538568783694 0.25984936449499 3.644890762689e-14 -2.26435748850636 -0.788598173438803 -5.68620266830178e-14 2.29431590184139e-15 7.97678168147972e-16 5.50140127539397e-29)
(1.06406187403234 0.493681756180647 1.22482902091714e-14 -2.16816399469287 -1.04286360723178 -6.73841903499322e-14 2.1805537129967e-15 1.04825586696707e-15 7.02721927161974e-29)
(1.24445023322362 0.736673934050696 -1.63618449499842e-14 -2.00412682972488 -1.21301910300878 -3.75105372391157e-15 1.74054949910331e-17 1.05184283247132e-17 1.42765141154881e-32)
(1.32519207157904 0.941258491218684 8.32912573803469e-16 -1.77977967184792 -1.28304549420298 -1.12274802684231e-15 2.50806833989589e-21 -4.03065046948265e-23 9.92373688503913e-37)
(1.26038452050729 1.02510742259458 2.69089569446325e-16 -1.47170642463469 -1.20936888256769 3.18374587792644e-17 3.69227275621089e-21 1.64232195086726e-21 4.00427173938477e-35)
(1.01347782760423 0.904845405761721 -1.09840623633518e-15 -1.06459985457786 -0.95807336198881 1.0375285068772e-15 5.19208591151108e-21 3.73019591153719e-21 -2.04887941290081e-35)
(0.560424468386654 0.536126843748027 2.34173083332939e-15 -0.52532285185654 -0.507868233986531 -2.56140046253189e-15 1.22675729470073e-20 9.61565914144799e-21 -2.08811150575047e-37)
(-0.108662935682691 -0.0946712440005934 1.63270892063062e-15 0.168967393795576 0.150087040105788 -1.47846972358464e-15 -3.3747616107156e-21 -4.45830295885632e-21 -1.02640167742406e-39)
(-0.994617539952434 -0.973643082517658 -1.17148491179133e-16 1.03873177682021 1.01454849076148 -1.33419643639962e-17 3.52801518832356e-21 4.66076196405995e-21 1.07301229686118e-39)
(-2.00774169980583 -2.00020659768154 1.17887355335404e-15 2.01519824351064 2.00563740279814 -1.01712274472076e-15 0 0 0)
(-3.13580211475481 -3.17028870327289 -9.42273377158448e-16 3.0723883985862 3.10563871035904 1.02760330187653e-15 1.91906077627828e-20 1.93533433936897e-20 1.03585460084961e-35)
(-4.3939085603131 -4.52595665571442 -1.75618186396814e-17 4.20800835332815 4.33566357374969 -1.76241440488104e-19 -4.66151373666369e-20 -4.72353129519276e-20 -2.07549028423107e-35)
(-5.9080809560904 -6.21320902150479 3.42092266092984e-16 5.51869333691273 5.80691229365942 -4.20780408087706e-16 -6.02042052647116e-17 -6.33458499493734e-17 4.51975553536355e-33)
(-7.77144616163559 -8.37542373427004 9.51482508938649e-16 7.06934629247639 7.6209103326728 -9.54550062483952e-16 -4.79062687244159e-21 -5.23291575471416e-21 5.24213853926191e-36)
(-10.4969320898987 -11.5115382636653 2.22262338491787e-17 9.34232611921161 10.2347608569965 1.67401919770887e-18 2.5041847283435e-20 2.61466541043982e-20 -5.30509242557347e-36)
(-14.3839405739177 -15.6035121192757 2.23957687705094e-15 12.9127013878673 13.9666681039078 -2.04395524309071e-15 0 0 0)
(-19.7825612572662 -20.4072554608674 9.86873352866234e-16 18.6379638340856 19.1263890748732 -7.8036474782775e-16 0 0 0)
(-26.9352763315999 -25.1521296839239 -6.10521246595167e-16 28.0525726966505 25.9611348486131 6.64063266149558e-16 0 0 0)
(-35.3997759861012 -27.5430227912644 3.09031045548708e-16 44.3649325688101 33.9910308774046 -4.47826488554712e-16 1.86124277759408e-20 1.10678151111486e-20 -2.69995645493843e-37)
(-37.2147318614936 -20.4046553725341 3.14067125586819e-17 66.9517548822724 35.8165237937648 -4.04191356790545e-19 -1.72643776830345e-20 -1.02662018359508e-20 2.5044055792688e-37)
(-19.9082904401685 -5.86453932304931 2.7544750893576e-18 70.6872240303912 19.4734716706823 2.26477228294502e-20 0 0 0)
(-3.93072875715553 -0.544580944288151 9.02328081938779e-19 42.3695524310321 3.80617449703296 -1.22436302466751e-17 3.93163874714433e-17 3.52973638372011e-18 -1.13679647766675e-35)
(-0.350888494719719 -0.0396158992155977 -2.7320837391275e-18 17.4720260445845 0.313569884136506 2.0258659074584e-20 -2.83447912331492e-21 -1.6411271893619e-22 -1.15543588578764e-38)
(-0.109854240541661 -0.055298038917919 -9.38847244011637e-22 21.8274638363207 0.0435890281076666 -1.76697237299519e-24 0 0 0)
(0.853601460259806 -0.0865553879652316 3.44608690472456e-18 19.2703993623095 -0.81621694181247 3.87588727346028e-20 7.13121917708029e-21 -5.9070885554645e-22 2.79786748051755e-38)
(1.28567749903763 -0.0935817333059568 4.19765931493206e-15 8.58297716208901 -1.21367502545747 1.21446722827918e-17 -4.76209645082494e-17 7.55358720982286e-18 -2.14865421742637e-35)
(-2.92765213167218 1.99801174778423 -3.02701205952064e-14 -4.29471316636967 3.03932453870168 -6.25574860702286e-14 2.95964664182165e-14 -1.81284567698701e-14 -7.50791527229285e-30)
(-4.57387966369082 3.79668841703304 -5.86522939700664e-14 -5.82146343921967 4.68127271677944 -6.63688273099774e-14 3.15340922897971e-14 -2.50557846836068e-14 -1.91963481485252e-30)
(-3.50665301566441 3.36229246498077 -5.61127152165002e-15 -3.82657570023886 3.58483407022315 -1.96138985106385e-16 3.29504416849992e-21 -3.26767048641303e-21 3.87571947734891e-37)
(-2.60283458668027 2.73270354199199 -2.24525799035715e-16 -2.5553543404893 2.64979974679469 -2.09397103939603e-16 -8.67874245266598e-17 9.02186078787111e-17 -1.03225801604682e-32)
(-1.8893366676199 2.06968620237542 -1.63774324535611e-16 -1.76132258055403 1.91948850127154 -1.94359685070981e-16 2.18460347169065e-20 -2.39058869970032e-20 1.45688902784763e-36)
(-1.39458659524794 1.53408436450577 7.08303976587273e-17 -1.27970464952014 1.40819984792077 -3.42523482853207e-18 -2.1904918407757e-20 2.42876692489592e-20 3.489828075659e-36)
(-1.08817005412972 1.181643791534 -9.16805359708368e-17 -1.00529696621462 1.09484978376125 -8.62292830038851e-17 3.29685503718999e-17 -3.61095449453417e-17 -7.9080657995896e-33)
(-0.970820623821018 1.04262629251601 -1.05526671601711e-16 -0.903086474555289 0.972677264171758 6.76852078887003e-18 1.43907974092428e-20 -1.54420224189495e-20 3.53335638006025e-36)
(-0.94101913324479 1.00065680105303 5.54309891661595e-16 -0.88209415739996 0.940191564579323 5.26333506960787e-16 -1.88104573619751e-17 2.00434825287027e-17 -2.99284355956538e-35)
(-0.982207610930801 1.03899510212054 1.51650222619944e-16 -0.925053454295152 0.980482600411308 1.09117067219051e-16 1.36797271535298e-20 -1.44887959054617e-20 3.24757240400289e-36)
(-1.06927203042314 1.12485618852347 6.50262160100602e-16 -1.01353022152361 1.06829642869247 5.41690525608458e-16 -3.39516130501821e-20 3.529662704199e-20 1.41952459633003e-35)
(-1.16107386404843 1.21088797493798 4.7807611156267e-16 -1.11077467414041 1.16217984511846 4.66571186663737e-16 3.55223883085696e-17 -3.68417598980296e-17 -9.39861915968763e-33)
(-1.2169162030715 1.23885343499872 -3.62400204699133e-17 -1.19036304709646 1.21992546432509 3.86773359459784e-18 -3.52971971383141e-20 3.61794143667255e-20 1.32462005563516e-35)
(-1.21329125311401 1.17701935021569 -6.51595218331409e-16 -1.2404431542995 1.21781471473896 -6.77496352406425e-16 2.57730620775123e-17 -2.51636669568218e-17 3.49176029174084e-33)
(-1.13898910483607 1.02107440346963 -3.70116320691398e-16 -1.25103909466971 1.14346653641264 -3.52671095744414e-16 7.31450831565196e-20 -6.64154640248863e-20 -6.70647129176506e-36)
(-0.989436934867876 0.785938985330647 2.90763465614188e-19 -1.20998776337431 0.991154653310553 4.62726942140769e-19 -6.61961863214063e-20 5.46088042638368e-20 -1.46209217686242e-38)
(-0.782403991442984 0.520125980354289 5.32859852766608e-17 -1.11887920443742 0.780653877346526 -7.83227464576003e-18 2.98459229502916e-20 -2.31240792188488e-20 1.29987340351643e-38)
(-0.553205828294211 0.286315183894279 -6.80568818145695e-17 -0.981391083370978 0.548346834359709 -1.16843639052345e-16 1.53509237384499e-17 -8.8158912825322e-18 -1.16291344270485e-34)
(-0.33698538500485 0.121428754293182 -4.13430978219326e-16 -0.799490587339932 0.329097683691244 -7.39593350171585e-16 0 0 0)
(-0.169959926236652 0.035784401915903 2.88446509274341e-17 -0.613667758420237 0.164882381799689 -2.12948610459768e-18 0 0 0)
(-0.0859724034531331 0.0126426799043832 4.41736620539733e-17 -0.472164945345558 0.0778376875688826 1.74505859615653e-16 -1.14298627420137e-19 3.960245030456e-20 -2.95926048212176e-34)
(-0.106644600211733 0.01146783570877 -2.5199685509989e-17 -0.641449960345738 0.105387659606452 4.75894824442995e-17 3.94721476713238e-20 -2.43778538169403e-20 -1.80026334013577e-35)
(-0.126413616655177 0.0018333861605537 3.93242762965174e-15 -1.34854367426033 0.12561513184617 -4.2438729973746e-16 3.33593184143426e-22 -1.99846832906301e-23 -2.97554650292143e-40)
(-0.135264202017812 0.000593221486366616 3.74410940822015e-15 -2.16456612272336 0.131521092914428 2.53286845156984e-14 8.74962973261552e-16 -2.60760756326409e-17 -6.25145725641762e-30)
(-0.135662573329447 0.000296211665632027 -3.94309923390136e-15 -2.93515606384947 0.134128118483488 2.63987396472626e-14 1.28001431777002e-15 -2.74049808493955e-17 -4.22836438178918e-30)
(-0.131619930623085 -0.00037535901223276 -3.74782090852913e-15 -3.66548156053147 0.12791307971567 3.78540501550644e-16 0 0 0)
(-0.120823694566451 -0.000722533808036359 1.69817542228533e-31 -4.31120555634265 0.116876085608314 1.23452836332854e-19 -2.08675834491143e-31 2.58586316854974e-33 3.35939349445872e-50)
(-0.108974658017439 -0.000876402629699314 3.75427262220646e-15 -4.87619819917145 0.104029014017983 -3.44362592538927e-16 1.23075433582413e-31 -1.21004854845351e-33 -1.2957058018678e-52)
(-0.096810554330484 -0.000885257450955299 3.67960878883347e-15 -5.3629190272823 0.0913425195707227 2.60560095460556e-14 3.09275438459009e-15 -2.47744772523488e-17 -5.04143490491003e-30)
(-0.0856558508813486 -0.000832493943582928 -3.75427262220664e-15 -5.78197862312282 0.0796288581132974 2.74104895262932e-14 3.32249051585294e-15 -2.20099948974952e-17 -3.49355749270336e-30)
(-0.0756122512689732 -0.000752081021249653 -3.6796087888333e-15 -6.14220773263408 0.0692081041836955 3.14232687615502e-16 0 0 0)
(-0.0667609451222144 -0.000670188503251252 0 -6.45221165917189 0.060046014268051 0 0 0 0)
(-0.0589428230292449 -0.00059468234947817 3.55818434705074e-31 -6.7188018872451 0.0520189166623666 -2.70100653405753e-32 0 0 0)
(-0.0520158774650498 -0.000530015965997601 -3.08213017455661e-33 -6.94763854090681 0.0449533056838727 7.4783789247616e-19 3.98534074539723e-31 -1.47809820423643e-33 -3.30782264396261e-62)
(-0.0458167207888417 -0.000476080011991667 -3.90788915516229e-15 -7.14317190922347 0.0386881229959521 2.70430395077769e-16 0 0 0)
(-0.0402115487399526 -0.000432117997495908 -3.94085008330914e-15 -7.30898294454115 0.0330784071579156 -2.86403756804815e-14 -4.5461058626872e-15 1.33367183378275e-17 -4.16435462654889e-30)
(-0.0350847893759211 -0.00039644501898351 3.90788915516243e-15 -7.44792487572813 0.0280054772177403 -3.03456643531739e-14 -4.57848699982679e-15 1.20532237144128e-17 -3.1039285070975e-30)
(-0.0303470807207316 -0.000367432674439258 3.94085008330888e-15 -7.56231844040466 0.0233745786759895 -2.48122123318032e-16 0 0 0)
(-0.0259285920211855 -0.000343564754771488 -1.8510933996334e-35 -7.65407304681671 0.019112562500158 1.24092513340956e-20 0 0 0)
(-0.0217769592286847 -0.000323573712359953 0 -7.72479391182395 0.015163147375572 1.48001537297452e-20 0 0 0)
(-0.0178521582698452 -0.000306558541396107 -1.14092618910275e-33 -7.77585216459063 0.011483494390345 -8.45080573144022e-19 0 0 0)
(-0.0141219940705391 -0.000291976713195895 7.31931126715831e-35 -7.80843394037643 0.00803830547966029 8.6919896914119e-19 0 0 0)
(-0.0105599745502732 -0.000279333571929872 5.04797150880457e-15 -7.8235717825819 0.00479786038764812 -2.23513129434759e-16 0 0 0)
(-0.00714598653281341 -0.000268309768238907 5.15873749213953e-15 -7.8221766065711 0.00173616625211882 3.80984734778908e-14 5.38057849401378e-15 -6.16336207566832e-18 -4.88585648889506e-30)
(-0.00386753557120368 -0.000258440407866891 -5.04790294761605e-15 -7.80506781481254 -0.00116648305499607 4.00713047690419e-14 5.33288056247509e-15 -5.249451880303e-18 -4.09977174401442e-30)
(-0.000722565944432358 -0.000249009086358578 -5.15880600589356e-15 -7.77300650094828 -0.00391059730556582 1.95333872616322e-16 9.99246392494364e-20 -2.77840540332129e-23 -3.09682880759481e-42)
(0.00228816754397757 -0.000239564856792338 -6.85611887255896e-20 -7.72682111783086 -0.00649028053110473 4.83562424054954e-19 -9.99246392489338e-20 2.77840540328841e-23 3.09682886602138e-42)
(0.00516726410347853 -0.000229803604139324 1.06078484156785e-19 -7.66739475401223 -0.00890989826312547 -2.71161300164272e-19 -9.87153256839291e-31 4.98033278944029e-34 2.81725129654337e-50)
(0.00791138486346281 -0.00021960758536738 5.82831251975378e-15 -7.5955427733901 -0.0111733673255734 -1.47460297752728e-16 4.94606971119159e-20 8.59837594744786e-24 -1.90256167423727e-34)
(0.0105162095160282 -0.000209150231356177 5.9786700414953e-15 -7.51203784918823 -0.0132816883031255 4.44132383197408e-14 5.14327524617673e-15 -1.0220009494533e-18 -5.13228278112167e-30)
(0.0129819694321174 -0.00019861464046067 -5.82831251975435e-15 -7.41763147017201 -0.0152374359561334 4.62324176885597e-14 5.07050391056129e-15 -2.6910122162189e-19 -4.74851344160105e-30)
(0.0153089052453996 -0.000188078586381496 -5.97870760622559e-15 -7.31305637376493 -0.0170438736661094 1.13465894732981e-16 0 0 0)