/*--------------------------------*- C++ -*----------------------------------*\
  =========                 |
  \\      /  F ield         | OpenFOAM: The Open Source CFD Toolbox
   \\    /   O peration     | Website:  https://openfoam.org
    \\  /    A nd           | Version:  7
     \\/     M anipulation  |
\*---------------------------------------------------------------------------*/
FoamFile
{
    version     2.0;
    format      ascii;
    class       volScalarField;
    location    "20000";
    object      k_conv;
}
// * * * * * * * * * * * * * * * * * * * * * * * * * * * * * * * * * * * * * //

dimensions      [0 2 -3 0 0 0 0];

internalField   nonuniform List<scalar> 
15600
(
-1.80185737927141e-05
-7.11324412772657e-07
-3.71801137403707e-07
6.3670494420411e-08
-3.65927474653526e-07
-3.8395995238715e-07
-1.14735611760426e-07
-2.62815223864183e-08
-8.63817864661232e-09
-2.05285149330572e-09
-1.59529053986666e-10
-2.82870819694907e-10
-5.03584257441272e-10
-8.47181961045464e-10
-1.3101568458916e-09
-1.83896271089511e-09
-2.32832826895211e-09
-2.6850858616899e-09
-3.29222392676034e-08
-7.40471627595821e-08
-1.15507616483886e-07
-1.3321162548354e-07
-1.01391038078156e-07
-4.68492044270326e-08
-3.8780907608793e-10
-5.30780676788487e-09
-1.24412033623716e-08
-2.27106238568074e-08
-3.43353828580721e-08
-4.6382289516041e-08
-5.77575808279459e-08
-6.822476003457e-08
-7.75188218205751e-08
-8.57618321035356e-08
-9.29641026475287e-08
-9.9254560897216e-08
-1.04676659874921e-07
-1.09298999965892e-07
-1.13145122667587e-07
-1.16241744440256e-07
-1.1860223714835e-07
-1.20246248094142e-07
-1.21197378407782e-07
-1.21495799380336e-07
-1.21202772107452e-07
-1.20428179865278e-07
-1.19306953511967e-07
-1.17889591773039e-07
-1.16207187382604e-07
-1.13573015144733e-07
-1.59624449024222e-07
-3.4636768845136e-07
-5.35951983381309e-07
-7.26383174563717e-07
-9.15873716075534e-07
-1.10269636731077e-06
-1.28522376867918e-06
-1.4618695413374e-06
-1.63113535646219e-06
-1.79164416838267e-06
-1.94213926118745e-06
-2.08151594562048e-06
-2.2088697212326e-06
-2.32347732968123e-06
-2.42482104791787e-06
-2.51260007253914e-06
-2.58669167407571e-06
-2.64712961791427e-06
-2.69405013913602e-06
-2.72759079163444e-06
-2.74790967899942e-06
-2.75509587893484e-06
-2.74944299306999e-06
-2.7315026511333e-06
-2.70203283235782e-06
-2.66194610992913e-06
-2.61215877748584e-06
-2.55351758807433e-06
-2.48658950978642e-06
-2.4116932979251e-06
-2.32859730625024e-06
-2.23681824391013e-06
-2.13527182485745e-06
-2.02330556866545e-06
-1.89838923899085e-06
-1.76042435828087e-06
-1.60351535892677e-06
-1.43140893048056e-06
-1.23012668258164e-06
-1.02018064342737e-06
-7.70717253136078e-07
-5.55833380069659e-07
-3.26911667324246e-07
-3.28248313452454e-07
-8.30050944551371e-07
-8.95076339532258e-07
-4.16974983364121e-07
-2.50927713628014e-07
-8.08053355604332e-07
-1.56457505769917e-06
-2.60577585643967e-06
-4.13419861265694e-06
-6.15083851088678e-06
-8.60610331675775e-06
-1.11329833129632e-05
-1.29217529547681e-05
-1.24362683753885e-05
-1.18108740743082e-05
-1.0852484491416e-05
-1.1370565070176e-05
-1.32171785093658e-05
-2.36412303584208e-05
-4.03459647528511e-05
-8.29882292121945e-05
-0.00019565249340846
-0.000467400827917052
-0.000263060034392198
-2.10860212459531e-05
-1.05363448940957e-05
-1.85611689558471e-06
-7.62914768763334e-05
-5.45663750207561e-05
-4.4663466531096e-05
7.07561221751536e-06
-6.20546763542141e-06
-7.8530637379808e-06
-2.35997819420756e-06
-5.66511513506478e-07
-1.84799194121854e-07
-5.05566222945887e-08
-1.45873610026968e-08
-2.46352155856269e-08
-4.21138091579414e-08
-6.95575687303374e-08
-1.07878473624649e-07
-1.55039317221375e-07
-2.0445111999269e-07
-2.55454585279562e-07
-8.17081498194913e-07
-1.65250436698148e-06
-2.48462624370939e-06
-2.84203825010365e-06
-2.21202458072952e-06
-7.82534130742524e-07
-6.01008911910087e-08
-4.87350001432309e-07
-1.07602617719239e-06
-1.85068804459702e-06
-2.71880001919821e-06
-3.60572401921146e-06
-4.44776226797635e-06
-5.22901529446175e-06
-5.93242532312689e-06
-6.56566127987417e-06
-7.12808800093343e-06
-7.62803942563091e-06
-8.06776389810137e-06
-8.4519929511562e-06
-8.78237093602295e-06
-9.0611642862697e-06
-9.28974645038595e-06
-9.47005859267855e-06
-9.60434097579686e-06
-9.69606424181753e-06
-9.75050466943292e-06
-9.77714773114052e-06
-9.78746302749915e-06
-9.78517406816327e-06
-9.77210666343238e-06
-1.1138677049976e-05
-1.49114124874031e-05
-1.85877874650234e-05
-2.22532382419926e-05
-2.58758677442884e-05
-2.9426010357063e-05
-3.28756568201241e-05
-3.61986479964819e-05
-3.93701583654939e-05
-4.23672438060019e-05
-4.51692636073076e-05
-4.77579446499992e-05
-5.01178038022706e-05
-5.22366392805895e-05
-5.41053178218591e-05
-5.57179476470853e-05
-5.70718125328713e-05
-5.81667128231147e-05
-5.90044231290009e-05
-5.95878273933239e-05
-5.99198000817598e-05
-6.00035636011815e-05
-5.98424249517739e-05
-5.94431119378352e-05
-5.88162013674885e-05
-5.79749980698908e-05
-5.69342355197542e-05
-5.57076168412897e-05
-5.43061630556257e-05
-5.27351888209134e-05
-5.0994055054977e-05
-4.90727428612299e-05
-4.69552664307098e-05
-4.46160500958423e-05
-4.20303631239377e-05
-3.91482726504652e-05
-3.59419347924072e-05
-3.23152797941225e-05
-2.82834448953678e-05
-2.36713879320986e-05
-1.87392496974759e-05
-1.32235933003123e-05
-8.22439713209304e-06
-3.78017469648593e-06
-3.84800642141436e-06
-1.18078815915131e-05
-1.45693075008917e-05
-1.03615998657975e-05
-1.18314119266073e-05
-2.57917356379631e-05
-4.42218809839845e-05
-6.86779612142075e-05
-0.000102017191882737
-0.000143559154705734
-0.000192236267587977
-0.000242770714096258
-0.000275328762195745
-0.000268617238205702
-0.000257316928067684
-0.000241953198233943
-0.000250688874422108
-0.000291580983483126
-0.000480011792157054
-0.000801183518965486
-0.00156247346385056
-0.00341741447997568
-0.00725071350337474
-0.00502464315056004
-0.0011994502407466
-0.000699738006630181
-0.000179303277202739
-0.000272526427238927
-0.000452100398971559
-0.000527776218403032
9.18297990290113e-05
-2.4796787807184e-05
-4.34115304293185e-05
-1.32445579463952e-05
-3.3314737063409e-06
-1.10334137400135e-06
-3.48097213303544e-07
-1.64379919799989e-07
-2.61980405571724e-07
-4.30109957894787e-07
-7.01548529696978e-07
-1.10219148835222e-06
-1.633702992273e-06
-2.25279870405573e-06
-2.98666068236606e-06
-5.97778720471131e-06
-1.05035776450718e-05
-1.46460638854068e-05
-1.60850600664743e-05
-1.22432683207907e-05
-3.07585339620804e-06
-5.62886915208019e-07
-4.64991299771031e-06
-9.97485176476878e-06
-1.6760029697343e-05
-2.4152855421743e-05
-3.17412649977439e-05
-3.89574002470893e-05
-4.57526357309653e-05
-5.19336837388174e-05
-5.75838766616855e-05
-6.26680040420976e-05
-6.72654143241131e-05
-7.1388708558064e-05
-7.50885102349185e-05
-7.83847749164442e-05
-8.13085265346087e-05
-8.38809601225416e-05
-8.61284549440623e-05
-8.80778579347297e-05
-8.97652636615767e-05
-9.12415146042494e-05
-9.2599536436672e-05
-9.39553358667044e-05
-9.53361349267415e-05
-0.000104710862078183
-0.000120210019937118
-0.000133369388951423
-0.000146142071083673
-0.000158452608027385
-0.000170238644445369
-0.000181444579605486
-0.000192020518898413
-0.000201921635986833
-0.000211107700706923
-0.000219543637008885
-0.00022720016683088
-0.000234053944518145
-0.00024008806408817
-0.000245292434470236
-0.000249663206798225
-0.000253202310675213
-0.000255916410860953
-0.000257814954991728
-0.000258908406305537
-0.00025920671347318
-0.000258718755967406
-0.000257454696939371
-0.00025542819174596
-0.000252661401904574
-0.000249183731458635
-0.000245027362471483
-0.000240222051551062
-0.000234787882008733
-0.000228729417071767
-0.00022202760329784
-0.000214637458278592
-0.00020648194290066
-0.000197456386621586
-0.00018741979357563
-0.000176207572863853
-0.000163577326221433
-0.000149291884632806
-0.0001329511413724
-0.000114378205368431
-9.30417962451033e-05
-6.95380154374847e-05
-4.36741582394476e-05
-1.92871323019782e-05
6.98108061896464e-07
2.41680594655596e-06
-2.95529776525383e-05
-5.54312308212995e-05
-6.14310435686794e-05
-8.93099681129378e-05
-0.000166072183808504
-0.000264600356143251
-0.00039327119078334
-0.000560658727942511
-0.000760535094675572
-0.000996543947651392
-0.00123388714852516
-0.00138620682645199
-0.00138892875922503
-0.00136906752007459
-0.00133714938562214
-0.00139934797721867
-0.00163264271133387
-0.00248453078101343
-0.00393585911346714
-0.0069545897162379
-0.0131225546728969
-0.0224904689075689
-0.0170184360844673
-0.00685989659675718
-0.00452522735868749
-0.0012843615886753
5.94803057334458e-05
-0.00101229761795429
-0.00211745644639781
0.000112938867399038
-1.67030247831479e-05
-0.000129529148588195
-4.10916791319218e-05
-1.08171711417242e-05
-3.66998447035947e-06
-1.29899536301542e-06
-8.00393767717136e-07
-1.23227933602173e-06
-1.96899797937068e-06
-3.18507812100989e-06
-5.05288887535185e-06
-7.64181058406558e-06
-1.08248672998414e-05
-1.46257415561646e-05
-2.29730196611888e-05
-3.5306134451914e-05
-4.45739833809685e-05
-4.54847167264677e-05
-3.22942387707895e-05
-3.33594559960073e-06
-3.11108400024328e-06
-2.03059674697517e-05
-3.86081457321453e-05
-6.10765143267166e-05
-8.31764099144139e-05
-0.000105353206066008
-0.000125529919921619
-0.000144375004779243
-0.000161125045344296
-0.000176371259746156
-0.000189949855793963
-0.000202259226094538
-0.000213351574010725
-0.000223465268753475
-0.000232694668409243
-0.000241182647755993
-0.000249019025388941
-0.000256303149130831
-0.000263119241380956
-0.000269564419410428
-0.000275757899363301
-0.000281963111113979
-0.000288585085613676
-0.000313414640544418
-0.000336593615938522
-0.000351735212393672
-0.00036594905392849
-0.000379098730805994
-0.000391181450945003
-0.000402199546631002
-0.000412154705910055
-0.000421050288954658
-0.000428890683462204
-0.000435683054567387
-0.000441437071234393
-0.000446165621972617
-0.000449885152713509
-0.00045261538315058
-0.000454378837244026
-0.000455200317446549
-0.000455105121380007
-0.000454116991924712
-0.000452255938044033
-0.000449536336335539
-0.000445967274309672
-0.000441556011372709
-0.000436313366768652
-0.000430258774483467
-0.000423418746814506
-0.000415820744934583
-0.000407485657543601
-0.000398419902718253
-0.000388606640947927
-0.000377998450056147
-0.000366508049059342
-0.000354004775419735
-0.000340311996593266
-0.000325203590721173
-0.000308391081832109
-0.000289517031994081
-0.000268105476159245
-0.000243590560009679
-0.000215216291256802
-0.000182336751014347
-0.00014406701879804
-0.00010065399223326
-5.23606924709502e-05
-4.45273388303751e-06
3.62222165147682e-05
5.10189899206281e-05
-1.37932585138398e-06
-8.57473981811536e-05
-0.000152535737351209
-0.000245597421338135
-0.000412285622106442
-0.000618344273486606
-0.000880917838008348
-0.00120705625925951
-0.00158079170909488
-0.00206815370066023
-0.00248145045715972
-0.00278161048728762
-0.00288264527054594
-0.00296174885032577
-0.00303862019153806
-0.00326467939676994
-0.0038425372786383
-0.00544262376795932
-0.00803594981582799
-0.0125251084935914
-0.0198408444120445
-0.0272711681865756
-0.0222752454560188
-0.0119166799726331
-0.00973320326487632
-0.00150828429728168
0.00210076107148736
0.000775580058359089
-0.00358878070754867
-0.000259165835779627
2.75098382468178e-05
-0.000255067027612353
-8.7483758605881e-05
-2.44111638727147e-05
-8.60635153532119e-06
-3.37042836217209e-06
-2.51989253997853e-06
-3.83154140459187e-06
-6.02035085857578e-06
-9.65216677999763e-06
-1.53053056786683e-05
-2.32077569927937e-05
-3.29557659006351e-05
-4.38126691981102e-05
-5.78075950047961e-05
-7.70053423403534e-05
-8.52191988367755e-05
-7.70989246860016e-05
-4.77893273110924e-05
-9.20844064437101e-07
-9.31609136665974e-06
-4.77711067388682e-05
-7.58859394019135e-05
-0.000113009380082777
-0.000145902915937405
-0.000181706948253165
-0.000214252554759189
-0.000246107687614335
-0.000274513231173357
-0.00030082492459879
-0.000324261886044036
-0.000345616182805508
-0.000364845080545159
-0.000382391075304415
-0.00039838517819003
-0.000413077769305905
-0.000426608695728634
-0.000439136621598186
-0.000450785343723076
-0.000461691189908909
-0.000471981471736464
-0.000482038941042661
-0.000514513757632302
-0.00053268583883693
-0.000542557182969868
-0.000551678202734477
-0.000559575396976056
-0.000566261465707663
-0.000571794382673232
-0.000576227442211888
-0.000579605623491735
-0.000581970291317546
-0.00058335979811118
-0.000583812481413989
-0.000583366170762616
-0.000582058972112088
-0.000579929492374976
-0.000577016074036579
-0.000573356068774099
-0.0005689853025073
-0.000563935873244762
-0.000558233977020191
-0.000551897887065926
-0.000544936373337088
-0.000537350315081698
-0.000529138185768925
-0.000520303376651544
-0.000510859955480733
-0.000500827691396778
-0.000490222559166656
-0.000479047611368113
-0.000467284789917599
-0.000454886106031452
-0.00044176751198937
-0.000427799081848935
-0.000412802290162342
-0.000396549752892807
-0.000378757321342593
-0.000359068033989844
-0.000337038851835897
-0.000312089057165768
-0.000283498196021916
-0.000250332281896841
-0.000211680423817121
-0.000166396369741789
-0.00011426740630725
-5.5314761043358e-05
5.76788840812754e-06
6.24228600296628e-05
9.73278286318198e-05
4.70351996965545e-05
-9.02154816950176e-05
-0.000229684647703397
-0.000380501057396246
-0.000600568262612586
-0.000858480686587308
-0.00117146511430206
-0.00154108034758852
-0.00202433060097889
-0.00253073553703313
-0.00297250379522385
-0.0033090328732368
-0.00349177792506995
-0.00367228058464024
-0.00387304679309386
-0.00421800865820513
-0.00496113708835525
-0.00662513175017558
-0.00920341254251253
-0.0130220627060182
-0.018417408351669
-0.0225337608070807
-0.0202011247967157
-0.0121396748801403
-0.0145764021852932
-0.00198458863604111
0.00108225051738613
0.00381413876652681
-0.00323142726525329
-0.00051578302615976
0.000327368736608722
-0.000328985997730336
-0.000129006323704649
-3.9957005542725e-05
-1.52689400508922e-05
-6.70793597121745e-06
-6.01225889113239e-06
-9.17157501887607e-06
-1.42075886300555e-05
-2.2400071578476e-05
-3.49096922029205e-05
-5.1816636434269e-05
-7.15649161491749e-05
-9.07092201946061e-05
-0.000103425548948657
-0.000119077327590475
-0.000114019285838766
-8.83432183614071e-05
-4.38346391370147e-05
-2.28258474910132e-06
-1.44408530644856e-05
-6.75805765375648e-05
-9.95842771590353e-05
-0.000158514822274967
-0.000209390544191356
-0.000268096030263115
-0.00031887603594959
-0.000367285538735713
-0.000408277194903533
-0.000444812088292952
-0.000475947934525978
-0.000503255348594376
-0.000526890393581784
-0.000547663736317336
-0.000565883767129474
-0.000581984332134258
-0.000596221720504395
-0.000608855660937529
-0.000620085851776093
-0.000630123279816785
-0.000639060099902412
-0.000666099382134484
-0.000678583989055994
-0.000683180041843839
-0.000687101448100886
-0.000689973189770316
-0.000691666534313963
-0.000692247646902622
-0.000691801350538063
-0.000690401589410505
-0.000688110401593777
-0.000684982850776842
-0.000681069108026895
-0.000676417639588438
-0.000671075075408115
-0.000665086897223557
-0.000658497393705188
-0.000651348777541149
-0.000643680479041403
-0.000635528486708403
-0.000626923282565232
-0.000617887826561527
-0.000608435544292346
-0.000598568812066907
-0.000588280652765101
-0.00057756042973948
-0.000566402236443385
-0.000554811078915095
-0.000542798111720522
-0.000530369208542969
-0.00051751480643244
-0.000504202176825437
-0.000490366430736888
-0.000475906075235004
-0.000460672054719068
-0.000444466016176945
-0.000427040892998924
-0.000408092025755401
-0.00038723991859352
-0.000364019161247565
-0.000337820535772571
-0.00030788321652294
-0.000273212890336464
-0.000232813273103284
-0.000185389293494695
-0.000130451770954682
-6.75372762138625e-05
-3.96686782472197e-07
6.63175288801388e-05
0.000116755662471665
7.8083418606739e-05
-8.59996138509542e-05
-0.000275238665365386
-0.000459925905666415
-0.000701418092607465
-0.000969828693356695
-0.0012781529577937
-0.00164782114724793
-0.00217425798343436
-0.00258696797687041
-0.00297763783218619
-0.00327953024434535
-0.00347052532216184
-0.00366194147903042
-0.00386922373318857
-0.00417850971686337
-0.00481743792392347
-0.00611497185124788
-0.00810912362854522
-0.0108410313037038
-0.0145337371618437
-0.017080953981491
-0.0167025892878951
-0.0127555804649424
-0.0171627667539274
-0.00745901872528122
-0.0037433872475979
0.00529494462281237
-0.002624387946801
9.47571664408817e-07
0.00145724128914507
-0.000199973254345109
-9.99057993243246e-05
-4.03386378619703e-05
-1.944175233188e-05
-1.03957000405057e-05
-1.16076656023333e-05
-1.79976490488698e-05
-2.73858097540165e-05
-4.18952566005215e-05
-6.28509344615027e-05
-8.90212373125618e-05
-0.000116426338324647
-0.000138566008792432
-0.000146819375404774
-0.000144092060877827
-0.000123272117040331
-8.32014717008271e-05
-3.12917027053523e-05
-3.4638659702859e-06
-2.858612632609e-05
-9.43193088364624e-05
-0.000144331377971489
-0.000236720730176039
-0.000308659010072216
-0.00038789297236909
-0.000451315283640578
-0.000509350293775388
-0.000556079392330595
-0.000596215816698756
-0.000629060102152855
-0.00065682361904975
-0.000679924040053981
-0.000699435826488366
-0.000715824877761317
-0.000729647735280012
-0.000741247351768595
-0.000750948955948642
-0.000759001364612719
-0.000765685196042884
-0.000778715501779846
-0.000794332207906545
-0.00079482417799964
-0.00079494819730932
-0.000794144315731186
-0.000792264482904584
-0.000789303124394225
-0.000785350223713177
-0.0007805038705417
-0.000774847866970503
-0.000768452249472135
-0.000761377658598811
-0.000753678739076098
-0.00074540725262988
-0.00073661249642852
-0.000727341836783452
-0.000717640441469338
-0.000707550431127348
-0.000697110258568399
-0.000686353969414566
-0.000675309433644097
-0.000663996535637344
-0.000652425071608742
-0.000640593032043568
-0.000628487751486649
-0.000616091066723746
-0.00060338836125466
-0.000590375636407079
-0.000577056471273702
-0.000563429367584722
-0.000549476706252356
-0.000535157557562844
-0.000520398190511597
-0.000505089210718519
-0.000489073065695812
-0.000472142772861756
-0.000454043051147003
-0.000434461306685927
-0.000413010664431644
-0.00038922230842624
-0.000362483299714771
-0.000332025913116606
-0.000296836358340643
-0.00025588514054814
-0.000207786988027231
-0.000151853651716639
-8.71911113299792e-05
-1.67299839603727e-05
5.65132439902091e-05
0.000117346099539879
9.23134140305493e-05
-7.97289827428748e-05
-0.000298535431386799
-0.000502275192222588
-0.000751124929602699
-0.00101542263991764
-0.00130406367498267
-0.00174187294734054
-0.00216007536680687
-0.00251976133330435
-0.00285083511949794
-0.00310640569481081
-0.00327631197197946
-0.00343980319011702
-0.00359915500267286
-0.00381162635527911
-0.00425445766123139
-0.00514076147594913
-0.00652804741099568
-0.00839881414224002
-0.0109689190369263
-0.0128683645005027
-0.0137540394679447
-0.014441808902804
-0.0177312127806521
-0.0133237795474651
-0.00945243128807364
0.00482995212568516
-0.00272719123784597
0.00106376247759064
0.00303126124068218
0.000214446581512649
7.46129417067417e-05
7.19554859514238e-06
-1.0907659611967e-05
-1.14503608011098e-05
-1.84838671542873e-05
-2.9706605756134e-05
-4.42457290721101e-05
-6.49389271320668e-05
-9.24764988163228e-05
-0.000123579069274475
-0.000152409572941459
-0.0001718178476733
-0.000176313443488169
-0.000154701681267842
-0.000125178568173448
-7.97049746537302e-05
-2.78596395191242e-05
-2.38440874537966e-05
-7.31107442873628e-05
-0.000150779650990582
-0.000223333711863955
-0.000341140886699451
-0.000426702049593699
-0.000517438642115022
-0.000586468641255404
-0.00064762281858725
-0.000695092137568048
-0.000734620740279707
-0.000765908516483887
-0.000791479726057553
-0.000811976340863058
-0.000828589608635842
-0.000841887105936403
-0.000852475320341574
-0.000860740855031218
-0.000867033436403971
-0.000871608900459872
-0.000873485961301889
-0.000893118671938905
-0.000890464509117086
-0.000887821785357861
-0.000884465569460694
-0.000880115929744659
-0.000874726802896771
-0.000868344782151079
-0.000861073244414596
-0.00085301853262715
-0.000844270693474495
-0.000834904579016274
-0.000824983561990046
-0.000814564070266214
-0.000803698680987397
-0.000792437106891487
-0.000780826614327576
-0.000768911622447089
-0.000756732929877981
-0.000744327207490129
-0.000731726266499112
-0.000718955593166251
-0.000706032759175066
-0.00069296519655781
-0.00067974809033335
-0.000666364680738285
-0.000652790551668434
-0.000639003095907782
-0.000624989921657383
-0.000610748126676964
-0.000596270838404724
-0.000581535296085933
-0.000566496179103709
-0.000551075327759877
-0.000535160379094522
-0.00051859047948191
-0.000501154937835755
-0.000482595025632603
-0.000462594796575458
-0.000440765257937372
-0.000416639525008983
-0.00038960922248429
-0.000358908278129066
-0.000323518266048922
-0.000282388191835262
-0.000234074421869443
-0.000177720343939606
-0.000112102816819805
-3.94993204163719e-05
3.81731574184735e-05
0.000105906513636138
9.49647060482563e-05
-7.32449139691778e-05
-0.000308323995020784
-0.000522887615622986
-0.000772888184820744
-0.00102843006730451
-0.00132985983677504
-0.00178504624551228
-0.00211169455907347
-0.00242394904241993
-0.00270404785591892
-0.00291859318885328
-0.00306178848618811
-0.00318999533904705
-0.0032915867634496
-0.00340346380038268
-0.00365401153664882
-0.00419825660220241
-0.00508686786434107
-0.00632333730436484
-0.00812764880084785
-0.00973629195489804
-0.0114801377400738
-0.0158494712005212
-0.0187321455293462
-0.0168419653539621
-0.0141073447492449
0.00266913026255714
-0.00284667664979379
0.00246460312282729
0.00410511227171705
0.000924736721584119
0.000394006186100919
0.00013276584198556
2.52030083427718e-05
-4.40290582755368e-06
-2.402511680808e-05
-4.18834736133874e-05
-6.14530248103435e-05
-8.65441418963818e-05
-0.000117239376146542
-0.000149166605676703
-0.000176284555351247
-0.000192025082386028
-0.000190854242765445
-0.000161645598900797
-0.000130715653531798
-8.82249587854663e-05
-5.4427131126595e-05
-6.98250379073262e-05
-0.000145958679658113
-0.000227050286566838
-0.000319022180655413
-0.000451407551422255
-0.000545358505213457
-0.000640724218516053
-0.000711046200993668
-0.000771570881146846
-0.00081742384609053
-0.000854622377932727
-0.000883295492376547
-0.000906001049706646
-0.000923547191075844
-0.000937138441872852
-0.000947401134502495
-0.000954947649756498
-0.000960182150675441
-0.00096345930166673
-0.000965212331320971
-0.000972318875464091
-0.000975967164009467
-0.000971229127924299
-0.000966064197681099
-0.000960047689026644
-0.000953037250267802
-0.000945037661103334
-0.000936120020502748
-0.000926395855889862
-0.000915977251830805
-0.000904958704699109
-0.000893418181812788
-0.00088142026713783
-0.000869021686260035
-0.000856274499142993
-0.000843227601674757
-0.000829927098715445
-0.000816415846366003
-0.000802732733904289
-0.000788912311020973
-0.000774984145490667
-0.000760971608704653
-0.000746890525422645
-0.000732746832518404
-0.000718533959643441
-0.000704232143472227
-0.000689811652702308
-0.000675242500032007
-0.000660504493719933
-0.000645589080195871
-0.000630485374977585
-0.000615167336906743
-0.000599587623657995
-0.000583666241809451
-0.000567290719169676
-0.000550299817773718
-0.000532481672953893
-0.000513576498219565
-0.000493266967945965
-0.000471163992264818
-0.00044680393631301
-0.000419586018410183
-0.000388747651847581
-0.00035327228052254
-0.000312089690281412
-0.000263718756741876
-0.000207155040757822
-0.000140940486449368
-6.68439637449862e-05
1.38784436367029e-05
8.62099166352489e-05
8.94658365370095e-05
-6.73175013979168e-05
-0.000309730302305473
-0.000529961253610733
-0.000777747628498247
-0.00102279298896609
-0.00140393335486103
-0.0017575249491161
-0.00205148451937121
-0.00232378023741116
-0.00256238805560123
-0.0027429524089522
-0.00286026628521749
-0.002954286484546
-0.00300084501848558
-0.00302205473002608
-0.00310570899901829
-0.0033800639286852
-0.00387450573912653
-0.00463145490038866
-0.00587837735583066
-0.00734839914667708
-0.00973383391491867
-0.0168085044264726
-0.0201455918272852
-0.0189130585627166
-0.0171972954346654
-0.000899269634264007
-0.00184086507757411
0.00334732015765249
0.00531621350803584
0.00204488263236404
0.000782007809999055
0.000334847562619507
9.97624560615007e-05
1.70902736987138e-05
-2.4355990988017e-05
-5.14252813196394e-05
-7.59633575982858e-05
-0.000103887021242261
-0.000135668276419292
-0.000167166138839005
-0.00019279437685862
-0.00020683025293141
-0.000204923521500884
-0.000182426490914465
-0.00014370534900235
-0.000109313417199958
-0.00011577133086027
-0.000136631029533077
-0.000231095388212349
-0.000308577130021318
-0.000418855382177586
-0.000558051968237418
-0.000656767213144522
-0.000752155300510992
-0.000821507044357423
-0.000879713765555638
-0.000923194539833462
-0.000957674482571684
-0.000983677604711838
-0.001003636289725
-0.00101848450239859
-0.00102939352004004
-0.001037027043747
-0.00104198606853859
-0.00104468068151244
-0.00104543700239843
-0.00104408901904002
-0.00105426494631083
-0.00104775334825132
-0.00104125798085254
-0.00103411953105991
-0.00102608165709411
-0.00101707557185898
-0.00100713244636459
-0.000996334773817453
-0.000984798828440298
-0.000972640808307582
-0.000959958420045649
-0.000946831524184317
-0.000933324812932127
-0.000919494237204824
-0.000905390406023281
-0.000891060521360495
-0.000876548785380717
-0.000861895949477491
-0.000847138593273976
-0.000832308907533102
-0.000817434216379869
-0.000802535932714079
-0.000787628477438639
-0.000772716855028309
-0.00075779344400115
-0.000742836269430783
-0.000727811019084897
-0.000712680843060416
-0.00069741824217859
-0.000682009612075655
-0.000666440993160755
-0.00065068427480866
-0.000634691645420582
-0.000618382868630887
-0.000601647156243851
-0.000584324683109115
-0.000566203851521406
-0.000547025167402872
-0.000526470852299547
-0.00050415244576202
-0.000479609495834786
-0.000452249799207521
-0.000421314222917783
-0.000385791415385174
-0.000344592620760236
-0.000296214501605604
-0.000239524415505156
-0.000172907270649966
-9.7740405691444e-05
-1.49263965101695e-05
6.04647616462279e-05
7.79053293830536e-05
-6.23701650666433e-05
-0.000305743383554109
-0.000527937586359951
-0.000771217199782678
-0.00105682624160607
-0.0014235046720929
-0.00172108837798011
-0.00198607334313072
-0.00222461849060028
-0.00242924555530375
-0.00258152082207861
-0.00267485865711824
-0.00273704556574004
-0.00273321286177964
-0.00267406309066498
-0.00261551847007472
-0.00267483400850113
-0.00285405418212975
-0.0032322220733428
-0.004050345766186
-0.00545866763744718
-0.00837253076705485
-0.0174720684683552
-0.0214600243938082
-0.0204598877478684
-0.0189066297941278
-0.00535668999632418
0.00100942503949472
0.0033362802484385
0.00625161666876734
0.00287532138795083
0.00118242761859061
0.000582549913496208
0.000211356311902171
5.70235780106985e-05
-1.60047890563011e-05
-5.61094069541204e-05
-8.64168139837551e-05
-0.00011667438867151
-0.000149053848417077
-0.000180442561383359
-0.000205786798810197
-0.000220329185933913
-0.000221105853608765
-0.000209143970103429
-0.000176463583553545
-0.000158871899626333
-0.00016728722124914
-0.000215378904209697
-0.000316406797417092
-0.000389979010461761
-0.0005169428880751
-0.000657372732832964
-0.000758102594716089
-0.000850970895823342
-0.000918405962514192
-0.000973773246043102
-0.00101482977469008
-0.00104671918601817
-0.00107030945719364
-0.00108784870834215
-0.0011003704476621
-0.00110900095519509
-0.00111443075842337
-0.00111724531395529
-0.0011178585656443
-0.00111661469892698
-0.00111152041537668
-0.00111881772550234
-0.00111121242068451
-0.00110330773087885
-0.00109465846113257
-0.00108510663189955
-0.00107462467091603
-0.00106325675893995
-0.00105108938687694
-0.00103824102240621
-0.00102483072126953
-0.00101095837753705
-0.000996704721291738
-0.000982133611982675
-0.000967299334336845
-0.00095225029014862
-0.000937031266049101
-0.000921683955885352
-0.000906246579068696
-0.00089075306623543
-0.000875233020963618
-0.000859711483121948
-0.000844207951065906
-0.000828735612674556
-0.000813298892985581
-0.00079788960363957
-0.000782484174264182
-0.00076704432764034
-0.00075152680288344
-0.000735897185834729
-0.000720137248026898
-0.000704230605578792
-0.00068814786237624
-0.000671841791161295
-0.000655232883363092
-0.000638213207765806
-0.00062062551937837
-0.000602259334252801
-0.000582856248601729
-0.000562098439448022
-0.000539598184210747
-0.000514897574205171
-0.00048741297355986
-0.000456388218308351
-0.000420819096538012
-0.000379599255709427
-0.000331214883913392
-0.000274425628608464
-0.000207521085699197
-0.000131580481234742
-4.73520607565901e-05
3.00717262055239e-05
6.0660760297619e-05
-5.86510729830757e-05
-0.000298218158470628
-0.00051942201360018
-0.000763401511068265
-0.0011152212731138
-0.00140214048728942
-0.00167855156530558
-0.00191748566445807
-0.00212698585502867
-0.00230318592340078
-0.0024312842895406
-0.00250224336112773
-0.00253446857449957
-0.00248419184421602
-0.00235280715473519
-0.00217195031938659
-0.00205530954699466
-0.00197554446747295
-0.00203949405801227
-0.00250968831455588
-0.00390057964955161
-0.00728258478855983
-0.018650134365561
-0.0225307289705712
-0.0217828231621
-0.0196451466503256
-0.0100194464358436
0.00555297204820946
0.00195854322441397
0.00637574815168623
0.00437329937825374
0.00160906597336478
0.000845015532456725
0.000349339498208619
0.000115405295318128
3.0158844409058e-06
-5.46924323121118e-05
-9.22985352079923e-05
-0.000125191006362856
-0.000158495540382315
-0.000190564994345447
-0.000216963482146345
-0.000233902388581867
-0.000239179285425514
-0.000233196209655078
-0.000222266411664222
-0.000214204707152903
-0.000229574308299264
-0.000298069897431779
-0.000397180139966243
-0.000470142364017055
-0.000609969568001614
-0.000748130701076296
-0.000848987581847599
-0.000938253094140792
-0.00100348087705972
-0.00105601679558863
-0.00109482917670535
-0.00112440135840214
-0.00114588395981145
-0.00116133969763916
-0.00117188084043765