/*--------------------------------*- C++ -*----------------------------------*\
  =========                 |
  \\      /  F ield         | OpenFOAM: The Open Source CFD Toolbox
   \\    /   O peration     | Website:  https://openfoam.org
    \\  /    A nd           | Version:  7
     \\/     M anipulation  |
\*---------------------------------------------------------------------------*/
FoamFile
{
    version     2.0;
    format      ascii;
    class       volScalarField;
    location    "20000";
    object      k_diff;
}
// * * * * * * * * * * * * * * * * * * * * * * * * * * * * * * * * * * * * * //

dimensions      [0 2 -3 0 0 0 0];

internalField   nonuniform List<scalar> 
15600
(
0.00199057046621099
0.00142055368713827
0.000619995726005973
0.000163092779437978
8.09063550969892e-05
8.79383379929222e-05
3.98757512498984e-05
1.40962717908418e-05
6.61612337082011e-06
4.17470873631668e-06
3.79918764814414e-06
4.20950342482349e-06
5.05395034327135e-06
6.41653340535223e-06
8.31124498924029e-06
1.06069244050487e-05
1.31024190928888e-05
1.55905803877219e-05
1.7917396360791e-05
1.96329920664956e-05
2.01512917102749e-05
1.9032130290691e-05
1.61656032988508e-05
1.27401544448498e-05
1.21874957944377e-05
1.70838314114989e-05
2.63548064432592e-05
3.76490349320005e-05
5.11861024570923e-05
6.6465931903653e-05
8.31019449390753e-05
0.000100686285839652
0.000118958129897361
0.000137697918316228
0.000156770619756019
0.00017606590740647
0.000195508742478458
0.000215033845867191
0.000234587694904018
0.000254118988340567
0.000273579104492842
0.000292919790425239
0.00031209417503351
0.000331057192005784
0.000349767820596272
0.00036819185371355
0.000386308780371936
0.000404115063751411
0.000421611137961565
0.000438799260629904
0.000455526577363612
0.00047147140076493
0.000486612644186207
0.000500907164995237
0.000514317752013121
0.000526812121386308
0.000538362806551017
0.000548946827834731
0.000558546087752612
0.000567147531138351
0.000574743136807098
0.000581330071356113
0.000586910659382527
0.000591491891865053
0.000595085075198553
0.000597705083344941
0.000599369178034369
0.00060009588683031
0.000599903817576127
0.000598810934006087
0.000596835367379726
0.000593996573566628
0.000590318124076737
0.000585827098265543
0.000580551639333374
0.000574517884639016
0.000567745922701585
0.000560246100894077
0.000552014852454348
0.000543032229267543
0.000533258613633126
0.000522636516197273
0.000511087335462077
0.000498513359628752
0.000484780182250063
0.000469738818161334
0.000453171453455059
0.000434901127780391
0.000414643274316527
0.000392427329439651
0.000368113073706544
0.000342734658971427
0.000317047581020822
0.000294400479239625
0.000272420723920099
0.000249573794574127
0.000246622691726592
0.000272591118245521
0.00032551644722042
0.000398525505414757
0.000495974717834099
0.000625081691950783
0.000783419946392587
0.00096476128074019
0.00115609316631988
0.00133249557875341
0.00146247645492351
0.00157668810996944
0.00169046350538142
0.00184487709955044
0.00207454391440974
0.00254198233726538
0.00326103698963989
0.00446813718017044
0.0065362943799156
0.00989328644790904
0.0100884107555156
0.00568177157988327
0.00313630649140682
0.00212303306244263
0.0106764268908571
0.00767978252639871
0.00340137821718026
0.000937619384613155
0.000443089752343442
0.000477796565482519
0.000225487388163515
8.12832041025312e-05
3.7553182628482e-05
2.32698353944375e-05
2.08305147653608e-05
2.28867359269547e-05
2.73521230522848e-05
3.46282656471014e-05
4.48199888950892e-05
5.72566395412643e-05
7.08636462381435e-05
8.44932715443311e-05
9.68632110388515e-05
0.00010580293834246
0.000108281263521417
0.000102214112277137
8.72823447052943e-05
6.97283770410783e-05
6.74238278521357e-05
9.40887376614145e-05
0.000144324941784515
0.000205529164717705
0.00027856590931544
0.000360685340392136
0.000449776984520859
0.000543661446004768
0.000640969303940723
0.000740555212676015
0.000841733713018154
0.000943946026637402
0.00104682424626001
0.00115004904511033
0.00125336447342213
0.00135652473054628
0.00145929809803574
0.00156145355324186
0.00166276623589293
0.00176301876511679
0.00186201195584219
0.00195957705605044
0.00205561459878459
0.00215012133810996
0.00224311583511541
0.0023332333227263
0.00241866682546485
0.00250025969458418
0.00257775370284744
0.00265095228909592
0.00271968458772431
0.00278380118914716
0.0028431735986054
0.0028976933942123
0.00294727405225562
0.00299185170813189
0.0030313854345838
0.00306585798881088
0.00309527550451778
0.00311966549956828
0.00313907516030327
0.00315356774142015
0.00316321726332131
0.0031681033135371
0.00316830580605124
0.0031639024340252
0.00315497266293473
0.00314160431211263
0.00312390490326808
0.00310199809919715
0.00307601189229682
0.00304606351716231
0.0030122403079312
0.00297458142434996
0.00293305842705582
0.00288756188903053
0.00283788707563081
0.00278373946825069
0.00272472102400587
0.00266032931330875
0.00258989073188197
0.00251262780254434
0.002427463880331
0.00233341952299719
0.00222913540468705
0.0021144735120512
0.00198893556400111
0.0018568981295764
0.0017223846353233
0.00159936732076965
0.00147530740853628
0.00135594689717024
0.00134996131020067
0.00149521926108311
0.00177700997947971
0.00216539627267344
0.00268315915853222
0.0033645378366013
0.00419415913406173
0.00513738082544882
0.00612521871145665
0.00704032000455891
0.00774468523137723
0.00837611009640025
0.0090174131012376
0.00986466568709031
0.0111126581602588
0.0135145312068477
0.0171494322473866
0.0229714091474216
0.0321632427111409
0.0450791983202918
0.0467807669563681
0.0283594833728261
0.0161781638837042
0.0113688835485827
0.02243588595902
0.0170278473021938
0.00797538829964495
0.00248743569005002
0.00105849398056555
0.00111650338224009
0.000553280922851885
0.000204696467922411
9.36474061288612e-05
5.72037879276257e-05
5.04370482130628e-05
5.48948509909353e-05
6.52356263857546e-05
8.2236884781417e-05
0.000106154634049871
0.000135428282118151
0.000167492905915394
0.000199443637232746
0.000226457675332247
0.000244140458741296
0.000246905002644032
0.000231877169449598
0.000200386719361165
0.00016716202534138
0.000165939587908529
0.000228716384843232
0.000343842185593727
0.000481347816536256
0.000641369307058756
0.000817281487813603
0.0010047318181521
0.00119937684959685
0.00139892697754797
0.00160141965334584
0.00180592159295685
0.00201162897248656
0.00221813229442087
0.0024250466217671
0.0026321006543415
0.00283900197277713
0.00304546658033616
0.0032511832051697
0.00345582975316284
0.00365907035360652
0.00386057014004167
0.00405999740797862
0.00425712611022352
0.00445200671595351
0.00463676105396888
0.00481129139638288
0.00498096739811919
0.00514411396995417
0.00530032861321006
0.00544922462406908
0.00559044692148082
0.00572366680620969
0.00584858301337463
0.00596492271738459
0.00607244599311568
0.00617094835344236
0.00626026288702965
0.00634026260952186
0.00641086076427543
0.00647200892107254
0.00652369498900026
0.0065659380418895
0.0065987806655563
0.00662228095978234
0.00663650426498555
0.00664151932367198
0.00663740394750215
0.00662425655202612
0.00660221271656944
0.00657143953641226
0.00653211629847477
0.00648440857002663
0.00642843595040519
0.00636423913114749
0.00629174683456645
0.00621074768889109
0.00612086496872471
0.00602155824435191
0.00591210081630836
0.00579155645642348
0.00565869655483332
0.00551203282451937
0.00534959446703396
0.00516930939758346
0.00496865333769453
0.00474639532435047
0.00450143478167904
0.00423881527682569
0.00396418589442693
0.00369341302894953
0.00339356718416756
0.00312181185648166
0.00312670083805009
0.00345742090597744
0.00406009407032257
0.00489464979691027
0.00600500972385619
0.00745170990017353
0.00919616994669245
0.0111507987760217
0.0131851616758092
0.0151141730645128
0.01672110969947
0.0182050378272094
0.0197406822355163
0.0216644073421765
0.0243701956045416
0.0290530411470934
0.0357849822416106
0.0454323842405424
0.0581580687555208
0.0720216984615133
0.0759169664726283
0.051550237777808
0.0295330958040393
0.0227599511996649
0.0216929374912032
0.0203869250564983
0.0115503642972887
0.00474586443833689
0.00184605722526257
0.00180828257364977
0.000951516933699602
0.000364062497316879
0.000165874627020836
0.000100218008638793
8.70936152250147e-05
9.37557331183207e-05
0.000110576092742883
0.000138367509201755
0.000177286654021818
0.000224455742811296
0.000275319499006396
0.000324475781872215
0.000361497517045055
0.00037972445425955
0.000376078192030676
0.000351000016590522
0.00031169458516249
0.000282762475516556
0.00028752986129536
0.000381316343800224
0.000542735700073064
0.000725196964784044
0.000929950420532697
0.00114905165495555
0.0013804143581451
0.00161953142540818
0.00186517640813385
0.00211515025228373
0.00236875959419728
0.00262490784718617
0.00288307256620208
0.00314256279089251
0.00340285662106382
0.00366334551842464
0.00392344529155021
0.00418252860835097
0.00443996622704874
0.00469511351302792
0.00494732213258127
0.00519585641486218
0.00544002165089958
0.00566198079487563
0.00587745626360877
0.00609140981792968
0.00629736826972058
0.00649506488619836
0.00668402661148775
0.0068638349408854
0.00703412591546661
0.00719458205838521
0.00734493034181217
0.0074849402250707
0.0076144251214955
0.00773324214328158
0.0078412917148831
0.00793851729627749
0.00802490347323438
0.00810047256223763
0.00816528146935666
0.00821941637970855
0.00826298584200657
0.00829611343624118
0.00831892949595
0.0083315653009163
0.0083341539541144
0.00832683792386122
0.00830978261705847
0.00828317530415584
0.00824721113591293
0.00820207229164457
0.00814790252861868
0.0080847786873295
0.00801268488659412
0.00793148395968623
0.00784089357405785
0.00774048241131047
0.00762965335786065
0.00750760744081677
0.00737330582900694
0.00722542569384199
0.00706225461980585
0.00688169216186898
0.00668135937090964
0.00645891239901022
0.00621239092783685
0.00594158806316648
0.00564651767292625
0.00532671391527792
0.00492417167676078
0.00454405488072433
0.00455008903701641
0.00499349160131963
0.00577169554553435
0.00686733326106917
0.00832461641595345
0.0101983387075461
0.0124273285857431
0.0148291443858349
0.0173972047319506
0.0199003096709822
0.0221851684241873
0.0243959233041669
0.0267371348126862
0.0295196854443749
0.0331581475590511
0.0386386103801356
0.0458869519371012
0.0548985318216435
0.0647811336712801
0.074426530755338
0.0811602699939165
0.0658469922325075
0.0327504356414696
0.0221162057417171
0.0128314733532381
0.0152807064666549
0.0110099188490401
0.007127017037351
0.00280797832275148
0.00241979598679323
0.0013618394995567
0.000543156352882824
0.000247879953011649
0.000148569013214562
0.000127172555826098
0.000135015384840329
0.000157420040356839
0.000194348826403823
0.000244994989258507
0.000304282205774289
0.000364989049621861
0.000418867754331677
0.000452088296423005
0.000454905584995516
0.000436542336233968
0.000404438382206286
0.000373722310359176
0.00036849928740536
0.000383082178061621
0.000479499755432478
0.00064122477332095
0.000828491448643314
0.00105106834133594
0.00129641252449728
0.0015625806794449
0.00183928968289323
0.00212350677163971
0.00241011290473483
0.00269737483734436
0.00298301513027992
0.00326603416047347
0.00354531358931748
0.00382017281675489
0.0040899247824713
0.00435403267885484
0.00461198563844714
0.00486333851032587
0.00510767391173944
0.00534462858993342
0.00557364812960853
0.0057720568935374
0.00597320645428901
0.0061712284731104
0.00635907608330374
0.00653734713776664
0.00670594756279016
0.0068647485028404
0.00701366574103197
0.00715265364837785
0.00728169701658378
0.00740080649411573
0.0075100155222242
0.00760937993064706
0.00769897708647473
0.00777890517378473
0.00784928255454345
0.00791024628357682
0.0079619500677037
0.00800456253757816
0.00803826473505462
0.0080632469770865
0.0080797050936303
0.00808783502375432
0.00808782708753433
0.00807986223384108
0.00806411448574725
0.00804075968109134
0.00800998098667445
0.00797196411023891
0.00792688603097196
0.00787490203018024
0.00781612747198841
0.00775062600263189
0.00767838827799552
0.00759931631965556
0.00751321966954498
0.00741981250157013
0.00731868172596377
0.00720930887523129
0.00709099308686189
0.00696289077833123
0.00682373214774261
0.00667233738413512
0.00650668119483975
0.00632543881285131
0.00612479836306753
0.00590110635213489
0.00563952160579246
0.00527511480629348
0.0048997591377508
0.00488145121943395
0.00529063240900437
0.00600892861751108
0.00704836708601398
0.00843837197530425
0.0102089682059074
0.0122196219952868
0.01444280592575
0.0168450297650213
0.0192815085809433
0.0216938026891957
0.0241588125940213
0.0268498933159432
0.0299730457780826
0.033841772855601
0.0390662250655862
0.045609585610509
0.0531897305983072
0.0610940861881926
0.0685548505528262
0.0739805751351349
0.074203871717407
0.040507675888184
0.019562830032764
0.0131467356072818
0.0128233183469625
0.00844595237678061
0.00832545305220569
0.0042236641903984
0.00292291637360697
0.00174266926577088
0.000727383696722373
0.000333734479620212
0.000198750133143727
0.000167028683213848
0.000173964730321032
0.000199198963921639
0.000240450454814157
0.000294691626128743
0.000353814372962134
0.000407912209805754
0.000447307083074127
0.000462501857494115
0.000439630839194568
0.000405508200773206
0.000371684666654134
0.000355866665738498
0.000364890509783552
0.000406012615109851
0.000509559385598006
0.000690413041683772
0.000916740776120323
0.00119025296564191
0.00147749178921081
0.00177368618509668
0.00206465645645896
0.00235034161173386
0.00262731551770387
0.00289643797260493
0.00315714755945756
0.00340997608509936
0.00365493256355232
0.00389226066835034
0.00412201727306851
0.00434428593213399
0.00455908015187238
0.00476640055715121
0.00496620276714715
0.00515854652927432
0.00532437169808994
0.0054944597417906
0.00566201702577329
0.00582037286852428
0.00597014692387149
0.00611159363006084
0.00624469859305127
0.00636943895119421
0.00648582034185762
0.00659387212080243
0.00669364231541154
0.0067851930790382
0.00686859873034455
0.00694394527931275
0.0070113303474947
0.00707086320347242
0.00712266470040053
0.00716686660882126
0.00720361087993667
0.00723304901756029
0.00725534129150781
0.00727065586958386
0.00727916712611842
0.00728105188105899
0.00727648367458979
0.00726562581368419
0.00724863019540095
0.00722564252697
0.00719681189727899
0.0071622918760615
0.0071222347503747
0.00707678597174299
0.00702607122319505
0.00697019303163055
0.00690921386118425
0.00684314442078979
0.00677194060735383
0.00669550710535134
0.00661366996483741
0.00652622732534713
0.00643287327391651
0.00633329688201149
0.00622680814900601
0.00611298808257157
0.00599033135435828
0.00585815729664854
0.00571177108122721
0.00554722029797369
0.00534474371096589
0.00504497522878915
0.00470770493217759
0.00465174873161503
0.00496954405707628
0.00555011389302016
0.00641848759213481
0.00759129527474096
0.00905971395306923
0.0106492592712456
0.0125419170072784
0.0145750678547022
0.0167050103803958
0.0189272560553716
0.0212886461315522
0.023937073154751
0.0270159199637004
0.0307693324358307
0.0355403096280543
0.0413343638618835
0.0476674891538953
0.0535027165043012
0.056953420585954
0.0578973741234567
0.0633197045187555
0.0488308618059118
0.0251119841487693
0.0183680871914734
0.0153391868488946
0.00704032235731445
0.00738807206121398
0.0065395309679633
0.0034319941366439
0.00209524406220487
0.000910065278302444
0.000418430145181148
0.000247068374581469
0.000202434264980084
0.000205228588707998
0.000229023820192134
0.000268117357910631
0.00031684244978985
0.000364817099328068
0.000401370336888368
0.000418020744814518
0.000410501310787117
0.000377351534515168
0.000338712743942293
0.000310597048299655
0.000308124992180017
0.000326984561626403
0.000402096960471382
0.000550814541204619
0.000785479194433318
0.00105215824531985
0.00134185819590635
0.00161587750639777
0.00188158874916009
0.00213180289147323
0.00237271608034512
0.00260382975811782
0.00282757503558489
0.00304412380575991
0.00325424535675572
0.00345805413173341
0.00365576954365435
0.00384742588866431
0.00403306063772037
0.00421265401403708
0.00438617515980069
0.00455352547697128
0.00470716341517975
0.00485003213594421
0.00499902168351957
0.00513981002496933
0.00527323495044267
0.00539958872275878
0.00551896532744667
0.00563132948892338
0.00573665115087662
0.00583492732463576
0.00592617775660734
0.00601044071984186
0.00608776742812758
0.00615821999446869
0.00622187025117697
0.00627879957262677
0.00632909896502693
0.00637286903192595
0.00641021938392633
0.0064412683485257
0.0064661427113049
0.00648497755853045
0.00649791653322542
0.00650511134210389
0.00650671910830927
0.00650289696855083
0.00649379324876043
0.00647954364427898
0.00646027352450434
0.00643610957438559
0.0064071847401376
0.00637363566164281
0.00633560187221073
0.00629321556475183
0.00624660381461302
0.00619587468893933
0.0061411071670467
0.00608234941233122
0.00601962366933179
0.00595290199516229
0.00588216682273444
0.00580734947492442
0.00572843788662388
0.00564510155111468
0.00555732894099033
0.00546403914514331
0.00536493007323066
0.00525537141107413
0.00513196734666444
0.00497387583662157
0.00473036726923736
0.00443108097237479
0.00434087154545467
0.00457279158767436
0.00502960571065349
0.00573923295640796
0.0067097665908029
0.00781672747495944
0.00915462763575698
0.0107066487845396
0.0123950138359656
0.0142057859671586
0.0161596318031534
0.0182869931277528
0.0207126272752453
0.0235422798561824
0.0269699278204394
0.0311301193446845
0.0359599638710273
0.0407358701275703
0.0441542413723823
0.0440938266800898
0.0424671868874811
0.0465148966608444
0.047351497189546
0.0311879872772552
0.0219200976251974
0.018988250831482
0.0075208504685649
0.00551767612306769
0.00858816729979888
0.00408702952498534
0.00245823091629853
0.00110452426742212
0.000502570780413668
0.000291456173369019
0.000230253175511529
0.000225337704843061
0.000244145276209699
0.000277351631016533
0.000317436067681409
0.000353152581237236
0.00037451030885191
0.000375251592648334
0.000353712900492914
0.000327067660622648
0.000293635360569494
0.000276348605522077
0.000290277073008737
0.000319176430166251
0.000430232311561082
0.000632936419701949
0.000895645418913864
0.00115065944809403
0.00140089347207215
0.00162379859858144
0.00183756220856564
0.00203971405943719
0.00223693995360788
0.00242879511500661
0.0026167942982678
0.00280063919761804
0.00298046963554917
0.00315604758625971
0.0033272546116811
0.00349391480242739
0.00365588927566682
0.00381303816256355
0.00396524952888381
0.0041136292855807
0.00423763134864915
0.00437615554431708
0.00450705977625923
0.00463131243572701
0.0047493618132365
0.00486134598169177
0.00496728288674905
0.0050671199587691
0.00516081636829773
0.00524835872468638
0.00532975717072448
0.00540504136453995
0.00547425395531218
0.00553744826883648
0.0055946865363255
0.00564603943493043
0.00569158615290052
0.00573141436846861
0.00576561953793989
0.00579430479119857
0.00581758088123376
0.00583556623533532
0.00584838792068467
0.00585618211848381
0.00585909254494014
0.0058572658172563
0.00585084168184623
0.00583994712784732
0.00582469585461258
0.0058052006756433
0.00578158132083414
0.0057539639674186
0.00572248408472794
0.00568727764649614
0.00564848781349367
0.00560625360804095
0.00556070041513515
0.0055119400905566
0.0054600744726765
0.00540517316225454
0.00534733495025233
0.00528664651439677
0.00522327730202839
0.00515713999954737
0.00508845886631031
0.00501650149311366
0.00494120845092005
0.00485830850111196
0.00476508836057522
0.00464097950536358
0.00444570485205818
0.00418354000685243
0.00406766050456775
0.00422922588219874
0.00458669149130888
0.00516706708563958
0.00593787536632247
0.00677971223589737
0.00791199671749082
0.0091850933655431
0.0105842897219166
0.012115376075519
0.0138109578373428
0.0156876816716179
0.0178446681375786
0.0203549747718343
0.0233601222401057
0.0268318258245186
0.0306155214307707
0.0338246798269305
0.0351072016998078
0.0327062452548535
0.0301873239802774
0.0328775125456783
0.0392349537899519
0.0323584370543904
0.0224420446600468
0.0207215415883995
0.00956046616829877
0.00480271384463639
0.00853551903473665
0.00494545838797717
0.00283602059594351
0.00133648590003113
0.000597512770465911
0.000335038655062866
0.000251887647628233
0.00023667163585431
0.000249953147729508
0.000278474621388769
0.000312610162524674
0.000339892990431988
0.000351310116170018
0.000343736852904551
0.000320681081934387
0.000301475632251826
0.000276092287637979
0.000270957435173503
0.000294653240462741
0.000348186294169035
0.00048956852345938
0.000721186662294316
0.000961514569689294
0.00116961536830808
0.00136422963847661
0.00153855842090775
0.00170985257228887
0.00187672062993265
0.00204313733195314
0.00220812382075449
0.00237187776161877
0.00253367882932094
0.00269309763336453
0.00284964249876514
0.0030029416408417
0.00315267883987281
0.00329859545419668
0.00344047273803496
0.00357796708306661
0.00370431052537365
0.00382765373618445
0.00395245477471465
0.00407098282831506
0.00418381956305491
0.00429121991295549
0.00439324512057687
0.00448987852111234
0.00458106083825752
0.00466674671420529
0.00474691827532046
0.00482158183750243
0.00489076393275918
0.00495450410459513
0.00501285233911596
0.00506586689920645
0.00511361348373071
0.00515616527170609
0.00519360299088112
0.0052260139695103
0.00525349208468159
0.00527613789651873
0.00529405865596909
0.00530736974662589
0.00531619602514779
0.00532067130513015
0.00532093485543447
0.00531712133461664
0.00530935327934217
0.00529773762896902
0.0052823778725051
0.00526338412947851
0.00524087412142053
0.00521497916774224
0.0051858360198941
0.00515359747064135
0.00511842343152578
0.00508047145129294
0.0050398991719065
0.00499686491541022
0.0049515064944488
0.00490399868321317
0.00485453437180037
0.00480339692261768
0.00475067168752648
0.00469672406562869
0.00464110944178125
0.00458393410994464
0.00452136024771448
0.00445131542974254
0.00435404956751223
0.00420117718417599
0.00397610418524729
0.00384273018972746
0.00394740261110892
0.0042249260539681
0.00470012279854533
0.00523444246149674
0.00597032766619235
0.00689049171467398
0.00793306679011697
0.00909049553341411
0.0103831000541074
0.0118493458155518
0.0134928836212434
0.0153865759696139
0.0175721776454254
0.0201356311234432
0.0229162463235985
0.0256717058673554
0.0274212941617938
0.0269107846695522
0.0230768854124918
0.0206343868149887
0.0228748846275774
0.030197623415653
0.0292206932281698
0.0209729063697349
0.0196756434782901
0.0128320735719565
0.00502658688135185
0.00726256830436591
0.00608584764024205
0.00319625870258317
0.00160895792940312
0.00072018025702254
0.000387447631499761
0.000274787603488026
0.000247352921297757
0.000256147877922816
0.000282005993850894
0.000311628562611401
0.000331433458578472
0.000335001360076948
0.000322749404607344
0.000300190696364136
0.000280728979504909
0.000275273932574214
0.000283110915904459
0.000300560985832887
0.000392737687569343
0.000552156706943894
0.000779385828232915
0.000967895493275406
0.00112580956090697
0.00127319519558904
0.00141236570361888
0.00155362915287496
0.00169623902956764
0.00184119715641429
0.00198737123318418
0.00213392572334206
0.00227994532734564
0.00242461385281162
0.0025673000838444
0.00270747112059666
0.00284472917544415
0.00297874270206435
0.00310927117382176
0.00323653109744597
0.0033469005569763
0.00346772366181088
0.00358232562543394
0.00369152008074557
0.00379567248897819
0.00389493296350662
0.00398932347926161
0.00407881330233343
0.00416334344995036
0.00424286861292327
0.00431737062502416
0.00438685595604291
0.00445135172600443
0.00451089800643944
0.00456554504450481
0.00461535087385642
0.00466037997051944
0.00470070326543852
0.00473639840451262
0.00476754845202904
0.00479424178751901
0.00481657245741056
0.00483463993860111
0.00484855087524393
0.00485842121114827
0.00486437669962774
0.00486655083140678
0.00486507500555021
0.00486006983590418
0.00485163856944058
0.00483987807537692
0.00482489082134793
0.00480678680247866
0.00478569250289118
0.00476174266849658
0.00473509459037577
0.00470592155092952
0.00467440299572417
0.00464072991283543
0.00460510152077887
0.00456770415232769
0.00452876179412805
0.0044885405985643
0.00444739409552426
0.00440553236355165
0.00436340282601285
0.00432079796844752
0.00427793965322354
0.00423142360391735
0.00417975724563742
0.00410425862641051
0.00398948644402934
0.00380166209434801
0.00365753556728169
0.00371579946453929
0.00392760963070513
0.00426315224178447
0.00467640286247165
0.00529218264101702
0.00603409768351407
0.00688086287522984
0.00783182661366365
0.00891869544948033
0.010182355355705
0.0116136449726891
0.0132594289755887
0.0151306999606302
0.0172557728598761
0.0193597670913994
0.0211204685860213
0.0215181809348615
0.019502408539003
0.0149382532871159
0.0131672583694139
0.0155141394807998
0.0224644977976289
0.024128133070271
0.0186003226518141
0.0166041847500579
0.0170046236058901
0.0054087412636384
0.00507515217747504
0.00668778159043993
0.00355439023154569
0.00189460543783344
0.000876810082027202
0.000458901852992772
0.000307967703538924
0.000265020289616732
0.000268345508108129
0.000290321575319447
0.000313516603995263
0.00032507799569521
0.00032228603955867
0.000307787962252371
0.000286831221675494
0.000266834727506155
0.000270855570066066
0.000285498636268854
0.000333669541804637
0.000433094420961726
0.000596325311198511
0.000795935467297758
0.000929591589546937
0.00104743718804647
0.00116005844419214
0.00127483751089681
0.00139465172365304
0.00151978285858669
0.00164886468952493
0.00178090334591351
0.00191434475538485
0.00204820422121742
0.00218141174070138
0.00231325464201229
0.00244309484300913
0.00257048209700709
0.00269503428975299
0.0028164562017347
0.00293676966747544
0.0030395237124456
0.00315134178407312
0.00325779387210968
0.00335943430578141
0.00345650107786728
0.003549084236009
0.00363718637465587
0.003720773834671
0.00379979257213024
0.00387420049146281
0.00394398194747451
0.00400914622624834
0.0040697235076251
0.00412575678992972
0.00417729897316152
0.00422441041221516
0.00426715692247998
0.0043056097292882
0.00433984605437576
0.00436994735354359
0.00439599906223376
0.00441809124375097
0.00443631792672902
0.00445077897004207
0.0044615829168454
0.00446884844841385
0.00447270399477122
0.00447327862425489
0.00447069267263324
0.00446504787503495
0.00445643632520254
0.0044449540796413
0.00443070362783124
0.00441380583831526
0.00439439100031462
0.00437261668020656
0.00434866358073117
0.004322725105629
0.0042950163172402
0.00426576605637828
0.00423519500773817
0.00420355725385555
0.00417116835622166
0.00413842125532993
0.00410561563005974
0.0040732406432104
0.00404128297328729
0.0040100448974963
0.00397653563015431
0.00393980150527047
0.00388235646664973
0.00380143974450346
0.00365191321007817
0.00350245702206398
0.00352249936699308
0.00367202596900709
0.00385360322351668
0.00422697458775521
0.00471074494191675
0.00529827038792652
0.00597412781087215
0.00674454601865269
0.00765032496146057
0.00873217346219428
0.00996784732183805
0.0113784965430041
0.0129443651745584
0.0146344544606819
0.0160716473671134
0.0168632213049023
0.0159911677468546
0.0127092247557254
0.00801785845321522
0.00733140749358582
0.00930352452511892
0.0162801458624553
0.0187424196860492
0.015899035315803
0.0127403614012359
0.0213647397187363
0.00533506602620989
0.00297141078945542
0.00749949040335406
0.0039835129854568
0.00217157234382906
0.00105757516847454
0.000551971863012952
0.00035551477598559
0.000291757179646773
0.00028582021152222
0.000300465854874791
0.000315014791784106
0.000318645402027696
0.000311452387754113
0.000296520556502095
0.000278224484145795
0.000264034706303473
0.000263211877287792
0.000291262629290709
0.000359441867231771
0.000458755182580152
0.000614380541186598
0.000777147228081491
0.000865847930086856
0.000954293388465715
0.00104200018225591
0.0011391544774917
0.0012428571465791
0.001354501791086
0.00147106049556849
0.00159175978236083
0.00171457437797578
0.00183849297698278
0.00196227924622341
0.00208516248480999
0.00220643172594774
0.00232559728136218
0.00244223885775049
0.00255577207578635
0.00265908105478377
0.00276622422820355
0.00287056878147491
0.00297014881300109
0.00306535029906488
0.00315633189756206
0.00324314822750714
0.00332579386220489
0.00340423893287284
0.00347843778999487
0.00354835397020154
0.00361397639038488
0.00367531907788053
0.00373241704359902
0.00378531789519885
0.00383407886507844
0.00387876448956262
0.00391944379308624
0.00395619011761631
0.00398908221661893
0.00401820190212528
0.00404363352894466
0.00406546506801101
0.00408378684108743
0.00409869334465086
0.00411028675467291
0.00411867919019637
0.00412399422584872
0.00412635897196758
0.00412589462753291
0.00412270314253054
0.00411687324571692
0.00410849549060097
0.00409766486685215
0.0040844959119433
0.00406911232426185
0.00405166835476192
0.00403234718622522
0.00401134969546495
0.00398890773437391
0.00396527117700999
0.00394068434348916
0.00391541704375795
0.00388981595901515
0.0038642904166986
0.00383920258614261
0.00381505423344097
0.00379198970052046
0.003770366322799
0.00374758754610723
0.00372322312928205
0.00368106407020255
0.00363009689447827
0.00352012211530949
0.00336970280849576
0.00335808635073642
0.00338420205446874
0.00355297860631369
0.00383368718113871
0.00420100132646721
0.00465148382963071
0.00517491306599175
0.00578439363465891
0.00652783175703453
0.00744333933721248
0.00849498143699099
0.00967831432814909
0.0109425745660898
0.0121961407023835
0.0129685756604493
0.0127998189687598
0.0107140261666681
0.00656092963590542
0.00234302004208737
0.00282908640046963
0.00502664463771293
0.0114034483606364
0.0138379829712825
0.0130937981935807
0.00904665296740048
0.0246046156980169
0.00501854490859018
0.00183787525145198
0.00652452283787248
0.00457143136233318
0.00244526169145938
0.00124941076777716
0.000661557170738547
0.00041569802174823
0.000325467013235635
0.00030559094390252
0.000309821208208586
0.000315021546480068
0.00031207994483833
0.000302225658905359
0.00028787787027261
0.000272529074126974
0.000263648884819194
0.000270965125086105
0.000306204808457015
0.00037444214620172
0.000467217974670025
0.000608364136098142