/*--------------------------------*- C++ -*----------------------------------*\
  =========                 |
  \\      /  F ield         | OpenFOAM: The Open Source CFD Toolbox
   \\    /   O peration     | Website:  https://openfoam.org
    \\  /    A nd           | Version:  7
     \\/     M anipulation  |
\*---------------------------------------------------------------------------*/
FoamFile
{
    version     2.0;
    format      ascii;
    class       volScalarField;
    location    "20000";
    object      nut;
}
// * * * * * * * * * * * * * * * * * * * * * * * * * * * * * * * * * * * * * //

dimensions      [0 2 -1 0 0 0 0];

internalField   nonuniform List<scalar> 
15600
(
1.59875783061853e-09
1.12875390980706e-09
4.46645581047619e-10
8.5841329953023e-11
3.14044207335407e-11
3.04980787768213e-11
1.43606185044949e-11
5.83606521994789e-12
3.39654664140459e-12
2.78696984258767e-12
3.2602878885017e-12
4.53642051333382e-12
6.69329479224868e-12
1.02394843675301e-11
1.57260729552663e-11
2.39706710068904e-11
3.61268511714448e-11
5.35721154165677e-11
7.85278050324619e-11
1.11921449107782e-10
1.48732635439394e-10
1.76904572618794e-10
1.80866350018728e-10
1.60390717099827e-10
1.57647088169771e-10
2.17591155445738e-10
3.35741315025246e-10
4.79705234577427e-10
6.52273114623364e-10
8.47073713125023e-10
1.05917737621437e-09
1.28338850783401e-09
1.51638162496654e-09
1.75535903778611e-09
1.99859759311161e-09
2.24468949238513e-09
2.49267522823939e-09
2.74171969030127e-09
2.99113690363385e-09
3.24026910703405e-09
3.48849244654179e-09
3.7351877987443e-09
3.97975371602545e-09
4.22161203996055e-09
4.46023658523214e-09
4.6951888167055e-09
4.92620533936643e-09
5.15323835501305e-09
5.37629080355384e-09
5.59538018923811e-09
5.80918858813096e-09
6.01478637819258e-09
6.21014648847524e-09
6.39469323552659e-09
6.56792979593673e-09
6.72942349983996e-09
6.87880489338639e-09
7.01576272710989e-09
7.1400495429645e-09
7.25148407404681e-09
7.34995105756189e-09
7.43540352683815e-09
7.50786296750071e-09
7.56741273345541e-09
7.6141938112961e-09
7.64839536504384e-09
7.67023914686877e-09
7.67996487797328e-09
7.6778144182682e-09
7.66402122878266e-09
7.63882094692101e-09
7.60246498037714e-09
7.55525953269514e-09
7.49755850670888e-09
7.4297316916465e-09
7.35212499548163e-09
7.26500703746847e-09
7.16852121549914e-09
7.06262992280245e-09
6.94708357909232e-09
6.82137496068994e-09
6.68476595662969e-09
6.53624189100866e-09
6.37455017609204e-09
6.19794701906505e-09
6.00453391353476e-09
5.79146211698143e-09
5.55652583445794e-09
5.29592351359521e-09
5.01029093963738e-09
4.6974498971539e-09
4.37151153386284e-09
4.04147654001054e-09
3.75309448541446e-09
3.47951297271783e-09
3.23984865416539e-09
3.09966074027848e-09
3.03527895003483e-09
3.01422234719238e-09
2.93846452783497e-09
2.83391900847744e-09
2.7547930968131e-09
2.71455251178817e-09
2.68506200743104e-09
2.63888731564593e-09
2.54667664186001e-09
2.35471756373057e-09
2.10495108067415e-09
1.83471639579284e-09
1.59426250061428e-09
1.39444600425674e-09
1.31673029113155e-09
1.36553964231135e-09
1.63574666675404e-09
2.32673485917129e-09
4.0089547179475e-09
5.46582926640095e-09
4.12058470924195e-09
2.50205006954623e-09
1.69140343173476e-09
3.02825083878909e-07
2.14294040360266e-07
8.57514317859479e-08
1.72702488373324e-08
6.18378590379124e-09
5.95154759941658e-09
2.88912801400659e-09
1.18935520839964e-09
6.78050478954714e-10
5.44111666844697e-10
6.25289372310222e-10
8.63190553075865e-10
1.2684506450533e-09
1.93619796055938e-09
2.97230772089254e-09
4.53306162486624e-09
6.83990820580266e-09
1.01589391671037e-08
1.49055868934093e-08
2.12898732889265e-08
2.83863435316216e-08
3.38941416148911e-08
3.47654468478712e-08
3.08338366882711e-08
3.02349716111242e-08
4.16502448719167e-08
6.41539786844715e-08
9.14786821748296e-08
1.24225053997554e-07
1.61171230143449e-07
2.01393555798584e-07
2.43899622566408e-07
2.88060011298086e-07
3.3334087511826e-07
3.79417419661465e-07
4.26024308739264e-07
4.72983760290461e-07
5.20141893360949e-07
5.67374128651427e-07
6.14561374132517e-07
6.61591098927585e-07
7.08351431881196e-07
7.54733544490999e-07
8.00632510009504e-07
8.45952867954941e-07
8.90615284338351e-07
9.34573017446591e-07
9.77819509963538e-07
1.02035646787929e-06
1.06218804529756e-06
1.10295398637048e-06
1.14189793090175e-06
1.17893631025435e-06
1.21396160206238e-06
1.24688018766146e-06
1.27760989291533e-06
1.30607982665712e-06
1.33222958447269e-06
1.35601032829621e-06
1.37738528203462e-06
1.39632978610765e-06
1.41283178353827e-06
1.42689187621913e-06
1.43852218705243e-06
1.4477456063621e-06
1.45459405316298e-06
1.45910562265708e-06
1.46132187809327e-06
1.46128493483674e-06
1.45903559575996e-06
1.45461534148314e-06
1.44806905240331e-06
1.43945212202571e-06
1.42882908379478e-06
1.41626763987316e-06
1.40183115228017e-06
1.38556863493873e-06
1.36750566196697e-06
1.34763393442427e-06
1.32590524816481e-06
1.30222307018284e-06
1.27644719971695e-06
1.24838546390125e-06
1.21779980665162e-06
1.18436072336177e-06
1.14770614173246e-06
1.10729930190306e-06
1.06271369068515e-06
1.01323781490183e-06
9.58963212638016e-07
8.99500784393382e-07
8.37438484659749e-07
7.74536701945892e-07
7.19276577439069e-07
6.66640235621859e-07
6.21154113997637e-07
5.95130288928724e-07
5.8345783622236e-07
5.79551625557826e-07
5.65116710264952e-07
5.45475406555174e-07
5.30801454796352e-07
5.23308923039312e-07
5.17482802049931e-07
5.08076689976624e-07
4.89462721511887e-07
4.52053496602967e-07
4.03932089700308e-07
3.52270317704138e-07
3.06430048286462e-07
2.6881437882128e-07
2.5450807613581e-07
2.64601044982923e-07
3.16971035435484e-07
4.47892536349203e-07
7.51694707432753e-07
1.00870880339841e-06
7.39967585185621e-07
4.52753976686815e-07
3.17089322294503e-07
6.20677558183232e-06
4.43662863980586e-06
1.80887022120931e-06
3.94683919974216e-07
1.39435371449047e-07
1.33390219268406e-07
6.69176014002449e-08
2.80030674556059e-08
1.57076640935649e-08
1.23463201561729e-08
1.39321073007749e-08
1.90544325845274e-08
2.7849090404372e-08
4.23637294181074e-08
6.49651814090349e-08
9.91692673596001e-08
1.49974543843401e-07
2.23490461469291e-07
3.28174812339361e-07
4.69058227241897e-07
6.26033064888732e-07
7.48718377000351e-07
7.70062378417531e-07
6.85019375784767e-07
6.65302153638161e-07
9.02868039238365e-07
1.37896362679829e-06
1.95272534016508e-06
2.63839566528684e-06
3.4101141978306e-06
4.24851698587401e-06
5.13246631618086e-06
6.0487659463556e-06
6.98617153335759e-06
7.93810002638069e-06
8.89921011292743e-06
9.86612674963519e-06
1.08359741664063e-05
1.18065355922054e-05
1.27756984026202e-05
1.37414854504959e-05
1.47019104991935e-05
1.56550285274211e-05
1.65989431499029e-05
1.75319194411106e-05
1.84524933859041e-05
1.93598024742856e-05
2.02537581342353e-05
2.11342135264762e-05
2.19922711177756e-05
2.28143225128444e-05
2.36014528991321e-05
2.43514902139394e-05
2.50624743074567e-05
2.57326842964222e-05
2.63605907756096e-05
2.69448530853094e-05
2.74843069717449e-05
2.79779861282822e-05
2.84251320399361e-05
2.88251972531951e-05
2.91778562825817e-05
2.94830074077265e-05
2.9740753971037e-05
2.99513921387257e-05
3.01153794610648e-05
3.02332834793088e-05
3.03057321879473e-05
3.03333606075422e-05
3.03167790969954e-05
3.02566126081677e-05
3.01535586351538e-05
3.00085193106041e-05
2.9822574136855e-05
2.95968668371607e-05
2.93324609102522e-05
2.90301476587161e-05
2.86902667330454e-05
2.83125028730155e-05
2.78957564906346e-05
2.74379768905455e-05
2.69362320181771e-05
2.6386543314154e-05
2.57839477960575e-05
2.51216589361552e-05
2.43920363898752e-05
2.35840166089759e-05
2.26881285058478e-05
2.16895990911042e-05
2.05880724049286e-05
1.93752256195214e-05
1.80987082805742e-05
1.67944621055176e-05
1.56253991465201e-05
1.44865968243307e-05
1.35283977262011e-05
1.30039872236581e-05
1.27624122443047e-05
1.26590581505184e-05
1.23369160649754e-05
1.19127793333951e-05
1.15947019830863e-05
1.1424140803149e-05
1.12815686620928e-05
1.10550441971786e-05
1.06351724519142e-05
9.83277168954123e-06
8.80321025375497e-06
7.6986613143002e-06
6.71198518769933e-06
5.90313971230304e-06
5.57681342085142e-06
5.76552372680264e-06
6.80976571880182e-06
9.33810904112807e-06
1.48511442774321e-05
1.95972989258213e-05
1.38357305628719e-05
8.21143815520716e-06
6.12265325692759e-06
3.81031844140478e-05
2.89591947798386e-05
1.25944301357151e-05
3.26521158274484e-06
1.15843785538397e-06
1.10330184789317e-06
5.73357232468787e-07
2.44533424918894e-07
1.35313182195053e-07
1.04137429545806e-07
1.15185929765177e-07
1.55703747899621e-07
2.25821794404966e-07
3.41615152781472e-07
5.22497126567682e-07
7.97590899192141e-07
1.20840619699753e-06
1.80650804558056e-06
2.65092368043997e-06
3.77739665481276e-06
5.02210112812042e-06
5.98437142077723e-06
6.14716234251351e-06
5.48494281723692e-06
5.20904547723009e-06
6.84911565692616e-06
1.02374004395096e-05
1.4255549645256e-05
1.90168456271241e-05
2.43197447808567e-05
3.00199866757873e-05
3.59575741025535e-05
4.20389334847902e-05
4.81837564331281e-05
5.4350115916148e-05
6.05040652933876e-05
6.66276210808344e-05
7.27057926974015e-05
7.87288970202083e-05
8.46877334103999e-05
9.0574238968492e-05
9.63801900242687e-05
0.000102097648229557
0.000107718833567114
0.000113236688439624
0.000118644982135463
0.000123940063198955
0.000129121908464825
0.000134111410245767
0.000138883213952887
0.000143453573624822
0.000147815447466413
0.000151961237633816
0.000155884355475027
0.000159579241630813
0.000163041072669273
0.000166265742234897
0.000169249786159636
0.000171990489937525
0.000174485923934391
0.000176734957048265
0.000178737311485114
0.000180493568308217
0.000182005079766248
0.000183273921026128
0.000184302743662857
0.000185094536203283
0.000185652393145501
0.000185979256754111
0.000186077766577139
0.000185950455113945
0.000185600052656573
0.000185030160551728
0.000184245128335163
0.000183249519349785
0.000182047414151491
0.000180641466712913
0.000179031991885592
0.000177215918242423
0.000175186041530212
0.000172930072754708
0.000170430830632801
0.000167665249014087
0.000164604309213243
0.000161208620907514
0.000157432389887658
0.000153210096536041
0.000148479471074643
0.000143147262402332
0.000137185124617606
0.000130520973945474
0.000123366168628042
0.000115884779890029
0.000108929235970591
0.000101775828883947
9.56843861470209e-05
9.24649590101623e-05
9.09539861905815e-05
9.01754357173333e-05
8.81010678202461e-05
8.54442214775635e-05
8.34532380388886e-05
8.23497888507071e-05
8.13313429033328e-05
7.97261235248279e-05
7.69012098602414e-05
7.16521304290985e-05
6.48174742908179e-05
5.73536838249898e-05
5.05194995490078e-05
4.47894526826965e-05
4.22511177072515e-05
4.32113893387786e-05
4.9698762044014e-05
6.48440638535805e-05
9.60096412968455e-05
0.000123867216604788
8.692989660845e-05
4.71801119268685e-05
3.5303898006154e-05
0.000112205937679421
9.2243337093998e-05
4.39718296888475e-05
1.47675534311247e-05
5.66708274416124e-06
5.37340904612054e-06
2.89559823856264e-06
1.26142666520431e-06
6.90259063613145e-07
5.19671400957491e-07
5.6201322659069e-07
7.4853521747387e-07
1.07392667820005e-06
1.61077981190632e-06
2.45086626953517e-06
3.73270260276237e-06
5.65183064555954e-06
8.44880096532923e-06
1.23291965099363e-05
1.73490478281768e-05
2.26995254990508e-05
2.6591655120096e-05
2.69700810735983e-05
2.4035604912506e-05
2.21260098109342e-05
2.79411046176598e-05
4.0479202943763e-05
5.50656937638475e-05
7.21481283661754e-05
9.07384879956994e-05
0.000110279733482301
0.000130126261487906
0.000149986264876035
0.000169595870125465
0.0001888658919127
0.000207717696907533
0.000226137214593957
0.000244110250671146
0.000261640957866961
0.000278729753630297
0.000295379474222391
0.000311589704690515
0.000327359437898173
0.000342686156349192
0.000357567331057484
0.000371998647003633
0.00038597796845336
0.000399325794535637
0.000412062142188546
0.000424213904026865
0.000435782070266786
0.000446758399312616
0.000457136155447847
0.000466910376219437
0.00047607787471943
0.000484636469207979
0.000492584970092893
0.000499923003052921
0.000506651295055213
0.000512771749747805
0.000518287497841073
0.000523203044603459
0.000527524288370665
0.000531258337502803
0.000534413432880054
0.00053699863097967
0.000539023282114635
0.000540496525548624
0.000541426699418195
0.000541820998855007
0.000541685923330744
0.000541028020113778
0.000539855495991598
0.000538177970912806
0.000536005311275817
0.000533346079715612
0.000530205405680387
0.000526582872172697
0.000522470094108957
0.000517848849494753
0.000512688715243672
0.000506947311839307
0.000500567839392026
0.000493478236086843
0.000485580881178864
0.000476759958398837
0.000466850450839096
0.000455685368430522
0.000443019113378195
0.000428735184003217
0.000412606933410601
0.000395038682313216
0.000376333508899635
0.000358416923947722
0.000338892033239595
0.000321617773552386
0.000312738209543185
0.000308809840777474
0.000306792516928553
0.000301500809640531
0.000294773395461358
0.000289866580719959
0.000287205350888709
0.000284273822789891
0.000279754284271973
0.000271598706476612
0.000256357840559108
0.000236078726352746
0.000213347802492619
0.000191876597309588
0.000173239389706834
0.000164533086978133
0.000167110377605526
0.000187169946474719
0.000232296194631978
0.000320642204563155
0.000400669234020372
0.000300418044417852
0.000153126262731852
0.000105636192544368
0.000230768586433667
0.000198967371379883
9.8951962716121e-05
4.28444302399516e-05
1.96429723631669e-05
1.89215850919768e-05
1.05956579970618e-05
4.72926880032806e-06
2.56632438783768e-06
1.88752047408702e-06
1.98892656400421e-06
2.59915114015416e-06
3.67359418637967e-06
5.44156474676291e-06
8.20488952314017e-06
1.24128726127935e-05
1.866969191813e-05
2.7657595841123e-05
3.96635575794585e-05
5.41493263717101e-05
6.8356521419594e-05
7.72415228904142e-05
7.62723354133523e-05
6.7527774993699e-05
6.12286204420283e-05
7.52782829260774e-05
0.000106450743680994
0.000141995528452953
0.000182957418297679
0.000225938627511013
0.000269817179401655
0.000312983783451985
0.000355082761415651
0.000395644457670965
0.000434694872749766
0.000472185815183226
0.000508223118097313
0.000542867417265387
0.000576212454667826
0.000608324057281084
0.000639266068107182
0.000669086010392411
0.000697824585726033
0.000725513447062794
0.000752179101280474
0.000777835923994138
0.000802268465578384
0.000825510418106202
0.00084763210559508
0.000868650707676416
0.000888568894198225
0.000907388057924234
0.000925111320609473
0.00094174368167306
0.000957291907430466
0.000971763292918846
0.000985165734563233
0.000997507514397779
0.0010087978591916
0.00101904710359559
0.00102826684397093
0.00103647023580922
0.00104367205267409
0.00104988843700442
0.00105513682200718
0.00105943544295362
0.00106280252576191
0.00106525549183873
0.00106680999983067
0.00106747940209308
0.00106727546530367
0.0010662096663452
0.0010642958771887
0.00106155002468297
0.00105798825744584
0.00105362445570689
0.00104846680402915
0.00104251429177138
0.00103575279763204
0.00102815184629616
0.00101966064468668
0.00101020831183696
0.000999699912052342
0.000988014135379562
0.000974987375318707
0.000960422930000832
0.000944043151842841
0.000925555587532972
0.000904541716955983
0.000880761814839797
0.00085381131201401
0.000824242107585898
0.000792474372269413
0.000761361860577
0.000725854640849453
0.000693515925776675
0.00067772118284875
0.000671816147870977
0.000669350504741524
0.000661641306599199
0.000651741564676862
0.000645090825215345
0.000641670581121735
0.000637293371687734
0.000629895145422945
0.000615339959588727
0.000587345550498298
0.000549408763585292
0.000506147079900974
0.000464522035134373
0.000427645177670182
0.000410603767464053
0.000416636513867579
0.000458138184085529
0.00054713690427174
0.00071264431923039
0.000860394576044126
0.000701866062380379
0.000367175556368842
0.00023339752398563
0.000401994138915338
0.0003589243685568
0.000174693468917169
8.92177908889007e-05
5.19100051751154e-05
5.28351331345446e-05
3.10468024158994e-05
1.42804670493287e-05
7.7172730563064e-06
5.5375711543748e-06
5.66059812089819e-06
7.22063644172305e-06
1.00047736238962e-05
1.45681159775262e-05
2.1658822387323e-05
3.23308642298302e-05
4.78356590236673e-05
6.92766840622506e-05
9.61691763256549e-05
0.000125318599530155
0.000150551841420938
0.000162629220898737
0.000155973416422397
0.000137753742071264
0.000126820192737402
0.000155719997144293
0.00021757166884302
0.000285335464714837
0.000361322483290719
0.000437417933212398
0.000512913027432958
0.00058499609714559
0.000653901769183142
0.000719070397476431
0.000780946556328932
0.000839618221053138
0.000895444659192734
0.000948627951853154
0.000999415015589245
0.0010479771943097
0.00109447359971689
0.00113902473112433
0.00118173368975034
0.00122268236621058
0.00126193981776021
0.00129935978179106
0.00133487125265486
0.0013686307994094
0.00140069184977943
0.00143107575847845
0.00145979545084769
0.00148686600208772
0.00151230371686616
0.00153612665237096
0.0015583542524737
0.00157900572643555
0.00159810021394334
0.001615656588894
0.00163169431245414
0.00164623370935546
0.00165929626103393
0.0016709050706783
0.00168108496736737
0.00168986221158037
0.00169726441868918
0.00170331989840213
0.0017080565626832
0.00171150084064587
0.00171367635234708
0.00171460317197641
0.0017142987971766
0.00171278004380701
0.00171006678235131
0.00170618156042456
0.00170114711766945
0.0016949829285164
0.00168770047538231
0.00167929825924895
0.00166975642722221
0.00165903199167445
0.00164705324398323
0.00163371988394602
0.00161889770000833
0.00160241409677192
0.00158403773990247
0.00156348759064939
0.00154037197096388
0.00151426493270432
0.00148457701397236
0.00145092627356352
0.00141274338695661
0.00137066691556371
0.00132521104793241
0.00127975064689938
0.00122595608410783
0.00117615717753242
0.00115348126519064
0.00114726764084394
0.00114617555407407
0.00113835473224564
0.00112790208223612
0.00112203073065981
0.00111949311969873
0.00111544021361631
0.00110636129636748
0.00108583629110022
0.00104478589084475
0.000988289190038763
0.000923282653294885
0.00086022252009379
0.000804064746658626
0.000779277003410321
0.000791412945072828
0.000859292143617135
0.000997796749114451
0.0012436375399584
0.00145951442203029
0.00126756261976078
0.000716482992774511
0.000440160071865203
0.000634197785827374
0.000591303407847554
0.000272448551155029
0.000148580666422585
0.000108343628867631
0.000120842758174381
7.64316598366435e-05
3.66101293118753e-05
1.9844109351764e-05
1.38871624891982e-05
1.37075155867643e-05
1.69731118580504e-05
2.29434080146307e-05
3.26950564939879e-05
4.76751362925405e-05
6.96995430718004e-05
0.000100441258787795
0.000140554905119754
0.000186972341566316
0.000231695482123691
0.000265031039982864
0.00027526269166544
0.000259140104728559
0.000231268154635866
0.000220361770892939
0.000274368940972987
0.000379356721573959
0.000487776582328918
0.000605756843670179
0.000718820665981605
0.000828812309762683
0.000931594139937991
0.0010287262555073
0.00111957945060828
0.0012052140235793
0.0012858726000034
0.0013622189381162
0.00143460683004133
0.00150345121661325
0.00156903480712696
0.00163161805179837
0.00169139848132183
0.00174854541852431
0.00180319383922316
0.00185538412881604
0.00190487115227167
0.00195187142623002
0.00199651282422052
0.00203884772345951
0.00207890843812274
0.00211672134329049
0.00215231612314585
0.00218572323163476
0.00221697475437632
0.00224610369819743
0.00227314204736914
0.00229812096939669
0.00232107067268184
0.00234202152946383
0.00236100447499679
0.00237805144916993
0.00239319602640837
0.00240647355838737
0.00241792084394709
0.00242757604544013
0.00243547785821411
0.00244166415423911
0.00244617061986531
0.00244902908163454
0.00245026658902204
0.00244990658602755
0.00244797139898222
0.00244448694207475
0.00243948237325893
0.00243298698769297
0.00242502578696073
0.00241561349619891
0.0024047480045936
0.00239240363456871
0.00237852469691782
0.00236301827516303
0.00234575418226072
0.00232655840072091
0.00230520588539351
0.00228139697286032
0.00225476469317873
0.00222480425552104
0.00219095193189828
0.00215245332738645
0.00210877162677643
0.00205918889651535
0.00200436593061673
0.00194486691235638
0.00188412946401758
0.00181025147218565
0.00174130387682389
0.00171219694173342
0.00170772028977951
0.00171017707888983
0.00170497808949744
0.00169698105726251
0.00169419511598522
0.00169473813283583
0.00169295401861634
0.00168358174936479
0.00165787665516178
0.00160426354923008
0.00152946122493983
0.00144300637474234
0.0013588334796532
0.0012841351784856
0.00125291701527059
0.00127326904549048
0.00136935208686354
0.00155724097523139
0.00187787302835853
0.00215770305963871
0.00195093963381904
0.00119977387539253
0.000743334964555394
0.000931020537642076
0.000912399595422837
0.000399234582423074
0.000216302765745431
0.000184315894207346
0.000228309355663484
0.000161561588216755
8.17715668945476e-05
4.49433113651201e-05
3.07409860773488e-05
2.91901129997138e-05
3.49185286275457e-05
4.58817416206579e-05
6.37843773714685e-05
9.08417711425669e-05
0.000129323550768659
0.000180364431268947
0.000242650159870839
0.000308873571642621
0.000366115764009337
0.00040239220945884
0.000406805857891241
0.000381310813311469
0.000347527274038171
0.00034464697992071
0.000435579154291458
0.000592440298833914
0.000745242046572719
0.000907573916143559
0.00105802517853183
0.00120287162643771
0.0013364207053349
0.00146195949911404
0.00157870457162745
0.00168837699762762
0.00179134250868108
0.00188856022176695
0.00198052143357516
0.00206779945432951
0.00215078164017529
0.00222982492727776
0.00230520123646916
0.0023771448226969
0.00244585579507654
0.00251115815356752
0.00257309025013207
0.00263191079307767
0.00268773827033099
0.00274063370678597
0.00279064384066639
0.00283781002465246
0.00288217699170533
0.00292378998226972
0.00296269574466012
0.00299894147008942
0.00303257256050204
0.00306363280993647
0.00309216433925208
0.00311820895398722
0.00314180867176498
0.00316300631060213
0.00318184627842447
0.00319837474614903
0.00321263928739276
0.00322468878198403
0.00323457242239263
0.00324233811749677
0.00324803087966226
0.0032516908348428
0.00325335213960371
0.00325304429720643
0.00325079519346911
0.00324663666728163
0.00324060427364785
0.00323273360053248
0.0032230548748974
0.00321158580586972
0.00319832338747474
0.00318323595903649
0.00316625500220754
0.00314726626968739
0.00312610955677042
0.00310257095161484
0.0030763724607989
0.00304714618429468
0.00301443907917081
0.00297763530113165
0.00293603189278276
0.00288871628271397
0.00283498931078226
0.00277399568298287
0.00270635618134474
0.0026326210368794
0.00255587725018025
0.00246063783966623
0.00237144226451587
0.00233643893549911
0.00233571075747696
0.00234394595355087
0.00234412531444299
0.00234132633135822
0.00234365729074235
0.00234956347216773
0.00235179466303011
0.00234333887160666
0.00231317140952947
0.002247620714176
0.00215504191398635
0.00204779390550249
0.00194313214019724
0.00185092980502747
0.0018141807717621
0.00184365255372984
0.00196723937196853
0.00220107310247944
0.00258750105471092
0.00292765194620341
0.00271538449669787
0.00179816011408393
0.00115003315020686
0.00129506196659733
0.00132271169845591
0.000567401771355475
0.000293145351917284
0.000268351913142998
0.00036217363538557
0.000296968639546922
0.000161261392910716
9.10396424043078e-05
6.12259592202157e-05
5.5846945553058e-05
6.43621861306981e-05
8.2076937951625e-05
0.000111159751641043
0.00015425294378424
0.000213186025060201
0.000287195397534389
0.000371727573051124
0.00045485750547353
0.000520338127275907
0.000555560926389162
0.000553380929748838
0.000521989725400144
0.000488691203106849
0.000502951106373938
0.000641025193189425
0.000852734702282388
0.00105027535712598
0.00125646624051012
0.00144341278135887
0.00162253984582741
0.00178646894766257
0.0019402556279267
0.00208289681004083
0.002216722248713
0.00234219234018604
0.00246052647483058
0.00257233850444848
0.00267834333716605
0.00277902536024414
0.00287483108430312
0.00296610367994818
0.0030531385727038
0.00313613864330656
0.00321481129732627
0.00328948389882354
0.00336038972418837
0.00342765077892018
0.0034913426664341
0.00355152873188131
0.00360826647209233
0.0036616162762885
0.00371163891701098
0.00375839649920255
0.00380195108510968
0.00384236218754237
0.00387968686517176
0.00391397975055317
0.00394529461000324
0.00397368500053118
0.00399920499842194
0.00402191014687225
0.00404185765101361
0.0040591059907671
0.00407371481397204
0.00408574379032926
0.0040952508060622
0.00410229013884822
0.00410691019104638
0.00410915225757374
0.00410905192346179
0.00410664257522567
0.00410196172661895
0.00409505095691127
0.00408595171008223
0.00407469896185586
0.00406131301250762
0.00404578958625367
0.00402809088824242
0.0040081355813983
0.00398578820298219
0.00396085883058957
0.00393309414021709
0.00390216349920763
0.0038676316957784
0.00382896110908152
0.0037854281569923
0.00373619206741888
0.00368018938774822
0.00361655619600917
0.0035443056894185
0.00346396220982027
0.0033759867091154
0.00328278508929756
0.00316549462469976
0.00305553989798712
0.00301517371676807
0.00302001308505482
0.00303619208685227
0.00304438613585116
0.0030488247012239
0.00305853640667232
0.00307180332473041
0.0030795040354632
0.00307291193988718
0.00303882931127396
0.00296192322535216
0.00285214065269086
0.00272478811788528
0.00260019998253572
0.00249133288796266
0.00244919396958987
0.00248726954522006
0.00263551972262719
0.00290967259458941
0.00335187788828163
0.00375087686443352
0.00353666221864461
0.00248971246427371
0.00165740800057266
0.0017314604041064
0.0018017218773305
0.000795732865737574
0.000382912869062079
0.000353494511346837
0.000499243355185179
0.000480838976944735
0.000283969916559615
0.000166515839709697
0.000111161134777952
9.75772978595029e-05
0.000108302000126621
0.000134083159050971
0.000176907769524455
0.000238987135256967
0.00032047313815188
0.000417572249457044
0.000522036858539374
0.000618086307844863
0.000688189951085215
0.000721156590535398
0.00071453850651396
0.000681987567638629
0.000657147262944658
0.000697196237300367
0.000888970079072048
0.0011538684908629
0.00139513878078883
0.00164339648531274
0.0018657359605971
0.00207829543850457
0.00227216676696363
0.00245395012333143
0.00262243520480918
0.00278045466235151
0.00292855493094274
0.00306817131903189
0.00320003067761436
0.00332497197043392
0.00344357087021036
0.00355635705989358
0.00366374296091309
0.00376608853759405
0.00386347886729707
0.00395576156321282
0.00404337546920007
0.00412654793121748
0.00420541339826238
0.00428006600259465
0.00435058743778882
0.00441705253587296
0.00447953820215849
0.00453812163058284
0.00459288108081542
0.00464389426466846
0.00469123556506732
0.00473497599124877
0.00477518331121121
0.0048119237875858
0.0048452629592517
0.00487526650168084
0.00490200133745075
0.00492553584366451
0.00494593943966358
0.00496328248243125
0.004977634979868
0.00498906461097878
0.0049976347372649
0.0050034019002402
0.00500641445947196
0.00500671400802979
0.00500433926912026
0.00499933306942329
0.00499174250943659
0.00498161431656718
0.00496898760584735
0.00495388479094185
0.00493629990729075
0.0049161889327147
0.00489345790904364
0.00486795054768144
0.00483944799448852
0.00480765865526162
0.00477220044990694
0.00473257269402784
0.00468815640517176
0.00463812495526779
0.00458150391019963
0.00451708689625783
0.00444384755274533
0.00436066902625511
0.00426793089094083
0.0041659266994854
0.00405614516995114
0.00391672443163957
0.00378608217248244
0.00374088209790555
0.00375285692850539
0.00377901064885927
0.00379733825343294
0.00381094104005668
0.00383021535405288
0.00385252223276272
0.00386684111825238
0.00386278814744237
0.00382515465523782
0.00373738602084092
0.00361094871817034
0.00346411197592515
0.00331999328346026
0.0031949130718144
0.00314663599239004
0.00319129390977293
0.00335948074976709
0.00366682877186095
0.00415527113591877
0.00461430643453659
0.00439884632496826
0.00325610347232633
0.00225493357926483
0.00224820649657992
0.00231441351043654
0.00111282786681749
0.000488090078235852
0.000419256583367569
0.000621342943746902
0.000695828097031544
0.000452544960513199
0.000277599192882512
0.000186016557282555
0.000157922004994909
0.000169060749942565
0.000203480591923946
0.000261726816110924
0.000344318035056342
0.000448556567193715
0.000567070189885833
0.00068819566518051
0.000793585952368303
0.000866145794169939
0.000897867976653247
0.000890631740133932
0.000863085050484899
0.000854221339495849
0.000927276121288379
0.00117524689977682
0.00148939281090045
0.001773093169072
0.00206117242528801
0.00231792014718653
0.00256298805241491
0.00278637741858273
0.0029958476211218
0.00319006625306181
0.0033722378950093
0.00354300360601272
0.00370396892014489
0.00385596888294604
0.00399995035797526
0.00413657634657198
0.00426645433414994
0.00439006456787676
0.00450785573452705
0.00461964818314609
0.0047256582908379
0.00482630761900258
0.00492183024361398
0.00501237926968809
0.00509807027990078
0.00517900495774348
0.00525527678714826
0.00532698026690795
0.00539421001327961
0.00545706132186904
0.00551562839825248
0.00557000129496114
0.00562026567959443
0.00566650307990073
0.00570879277888257
0.00574721270808771
0.00578184043004254
0.00581275442467702
0.00584003429703979
0.00586376033946421
0.00588401345366538
0.00590087373380129
0.00591441834827108
0.00592471944478223
0.00593184145222429
0.00593583961228804
0.00593676135241137
0.00593465046787928
0.00592955464146335
0.00592152588617661
0.00591061553934925
0.00589686614737676
0.0058803017205015
0.00586091416645532
0.00583865323027383
0.00581341274371461
0.00578501626222112
0.00575321728755611
0.00571768779572321
0.00567799634138843
0.00563357951291806
0.00558374189435167
0.00552755989711529
0.00546393205260523
0.0053915177606814
0.00530913489866393
0.00521553483080079
0.00511091366662562
0.00499532361698923
0.00486919326114202
0.00470815180016278
0.00455747006149102
0.00450798587098868
0.00452839532007579
0.00456630664638366
0.00459621342798786
0.00462114148936831
0.00465186292966379
0.0046845639383403
0.00470634662622472
0.00470524412128316
0.00466424432232931
0.00456599464108008
0.00442338676971303