/*--------------------------------*- C++ -*----------------------------------*\
  =========                 |
  \\      /  F ield         | OpenFOAM: The Open Source CFD Toolbox
   \\    /   O peration     | Website:  https://openfoam.org
    \\  /    A nd           | Version:  7
     \\/     M anipulation  |
\*---------------------------------------------------------------------------*/
FoamFile
{
    version     2.0;
    format      ascii;
    class       volScalarField;
    location    "20000";
    object      omega;
}
// * * * * * * * * * * * * * * * * * * * * * * * * * * * * * * * * * * * * * //

dimensions      [0 0 -1 0 0 0 0];

internalField   nonuniform List<scalar> 
15600
(
3736.59373697264
3740.79119269286
3928.47831341027
4593.83445983612
5362.47971841348
5672.60765801406
5562.54128636452
5185.33541276448
4655.28289509191
4080.68619109968
3598.37149651878
3211.09358885385
2896.65662686638
2638.88362262945
2423.47322603579
2217.55391664611
2007.62177845729
1798.3828857492
1593.70210367871
1398.73669247273
1230.4675639084
1097.15578088044
999.66310957945
941.181816730001
926.829669949671
934.156943994991
934.148434241683
934.148434241683
934.1484342417
934.148434241684
934.148434241698
934.148434241724
934.148434241738
934.148434241695
934.148434241684
934.14843424174
934.148434241738
934.148434241709
934.148434241726
934.148434241724
934.148434241711
934.148434241669
934.1484342417
934.148434241617
934.148434241685
934.148434241695
934.148434241766
934.148434241737
934.14843424171
934.148434241723
934.148434241739
934.148434241684
934.14843424171
934.148434241682
934.148434241684
934.148434241726
934.14843424171
934.148434241735
934.148434241712
934.148434241735
934.148434241748
934.148434241725
934.148434241781
934.148434241708
934.148434241611
934.148434241705
934.148434241666
934.148434241673
934.148434241701
934.148434241709
934.148434241739
934.148434241708
934.148434241708
934.14843424175
934.14843424174
934.148434241667
934.14843424166
934.148434241697
934.148434241673
934.148434241695
934.148434241727
934.148434241681
934.148434241735
934.148434241739
934.148434241708
934.14843424174
934.148434241653
934.148434241713
934.148434241723
934.148434241681
934.148434241682
934.148434241674
934.148434241696
934.148434241727
934.156606450232
926.853382901375
941.069162138714
999.426596959883
1096.80765013919
1230.01272510391
1398.17629420062
1593.08915946309
1797.74495364192
2006.96900007751
2216.89876984299
2422.82481159317
2638.14145562712
2895.75906092127
3209.99705810336
3597.01686598567
4078.9924574127
4653.4518091197
5183.78972304665
5561.58401997134
5672.65259108397
5363.95887081958
4596.3181931787
3929.58195295088
3740.93715986776
3736.59373697179
632.298030377397
636.509882950499
668.86905213229
774.038491238874
899.053469928339
952.488370664899
936.253388779476
874.535844794317
786.444296189331
690.123714485135
608.646270468465
543.100262065224
489.903363710312
446.283150230031
409.890102971842
375.219054893037
339.871322157599
304.549640824046
269.925290869012
236.879193632128
208.267463638689
185.605333026143
169.137659729062
159.410059501655
157.495127546891
158.905918717142
158.856721648565
159.0129565936
159.088421378577
159.126880123797
159.137948019302
159.139445875595
159.136100175093
159.131980801102
159.127224150734
159.121794959633
159.11486804605
159.105755176562
159.093740620071
159.078288080378
159.058999198101
159.035635022392
159.008078343972
158.976325094556
158.940420463401
158.900448847519
158.856543503487
158.808905256394
158.75787157961
158.703893909043
158.647453790365
158.588878293411
158.528586297475
158.466970895989
158.404401541675
158.341238580359
158.277829433061
158.214514544891
158.15162165912
158.089462132695
158.028330635731
157.968501273647
157.910222606535
157.853719069459
157.799188029431
157.746798443271
157.696694405395
157.648997374153
157.603811953962
157.561235929083
157.521358870091
157.484268917234
157.450025181376
157.418651403954
157.390140245803
157.364458144627
157.341560696668
157.32140218945
157.303959646317
157.289235567166
157.277294610735
157.2682402466
157.26225768517
157.259518483516
157.260442840681
157.265255836048
157.274948937378
157.289549622712
157.311468034677
157.339008719361
157.377586881713
157.417648721128
157.465881826466
157.474369399504
157.538083285675
156.676114864616
159.465669738682
169.507225717082
186.003362666022
208.512843225237
236.816940901255
269.413552090536
303.492535853186
338.283379285372
373.196968954122
407.602364023174
444.011780461078
487.717170140798
541.066368201856
606.614435214637
688.028705010701
783.845498871185
871.661066208594
932.950804939946
948.672365260931
894.675038587622
778.679616620659
692.654931704938
661.045979062969
643.180731565584
220.036258867726
221.444047487943
232.674910710085
259.874771854197
294.863367996937
311.479250410434
307.08443909062
287.531590342624
259.037197135666
227.691051635817
200.986963765944
179.448860806957
161.991285361526
147.655205286977
135.649014398143
124.165720058256
112.407015564266
100.5855452609
88.9577099293873
77.8821191709164
68.3143786859961
60.8091932399718
55.5094016994497
52.6592523565083
52.9063725755289
53.9829646277107
54.1344083790109
54.3659424935338
54.460817611752
54.4758034687553
54.4400607882731
54.3813305569234
54.3108213453242
54.235924349971
54.1584945648691
54.0795159434694
53.9986981343963
53.9157618539507
53.8302845720743
53.7420244542174
53.6508621224694
53.556840564359
53.4601093709958
53.360908771774
53.259500078743
53.1561758859625
53.051288613444
52.9453440319328
52.8393540939352
52.7337119795811
52.6284643437739
52.5241359263412
52.4211271328543
52.3197942718947
52.2204526377946
52.1233928658621
52.0288802603136
51.9371632646234
51.848468298424
51.7629984327964
51.6809346174872
51.6024326489944
51.5276202719609
51.4566004630505
51.3894496391632
51.3262187147641
51.2669390823816
51.2116271575687
51.1602927862989
51.1129498106305
51.069612894723
51.0302989087153
50.9949939318881
50.9636492143576
50.9361887101315
50.9125175563353
50.8925418245864
50.8761824610971
50.8634035808359
50.8542195452869
50.8487347501135
50.8471186820048
50.849650608353
50.8566381456605
50.868691114319
50.8862996887861
50.9108166951472
50.9427458588593
50.9850738035053
51.0366638458819
51.1032785820673
51.1746113273223
51.25277139785
51.2773929386234
51.2930692898945
51.1512243942166
52.2646609359167
55.6310368998592
60.9538787503924
68.1985269056285
77.2665977792108
87.6296791932265
98.4170113048199
109.429198171561
120.527906646526
131.613121616865
143.63678487729
158.139130272591
175.876860534281
197.532943029863
224.269787084088
255.007169929088
282.954829336151
301.53392055175
304.327877028888
283.335054724672
250.951762220759
246.680210235274
251.465164984618
237.415254997893
118.86791384446
117.080350912309
122.256513829499
126.172946490154
134.89554020732
140.654319301341
139.307690758898
130.918208163495
118.269126614557
104.290177011925
92.2845890273498
82.5576809786506
74.6891552316878
68.1962292457744
62.6863246136685
57.3389541404877
51.8064196147419
46.1913545072579
40.6567914962808
35.4402794085035
30.997166090756
27.6183766511662
25.4200917082451
24.6102091970764
25.6440599656548
26.7455205721634
26.9482335856095
27.0898406840238
27.0305099264936
26.8725316787038
26.6683842214914
26.4568694070134
26.251511316183
26.0598492460267
25.8820144021525
25.7175672351328
25.5645541541742
25.4214259518367
25.2865711188042
25.1587908009224
25.0370974714944
24.9207732416128
24.809263468341
24.7021595716199
24.5991348941345
24.4999815579241
24.4046754549151
24.3135948286777
24.2261816982128
24.1421720475418
24.0614654729862
23.9840873114526
23.9099837557576
23.8391013083417
23.7713766150894
23.7067509435617
23.6451679017002
23.5865787605093
23.5309368520038
23.4781964654695
23.4283126919978
23.3812381331576
23.3369205633888
23.2953046040245
23.2563294388498
23.219929402154
23.1860378512794
23.1545900103631
23.1255288722154
23.098811546202
23.0744052964977
23.052285340299
23.032409156068
23.0147148763213
22.9991264138866
22.9855589662722
22.9739325789988
22.9641817743305
22.9562753676101
22.9502221211349
22.9460990937674
22.944033599709
22.9442347829423
22.946946693794
22.952643270416
22.9617542023693
22.9753569647926
22.9940277879967
23.0201622940055
23.0533706559879
23.0980601575043
23.1466296065555
23.1980000712794
23.2020521839525
23.1903451341677
23.1872461538262
23.7732205636657
25.2987834416831
27.6057711223971
30.7359459824828
34.6277378686397
39.0335775617626
43.6021861593212
48.2704824356034
53.0025847109076
57.8187830997217
63.2109815465953
69.752787161357
77.7844543218452
87.5084622443418
99.4157531111159
112.563414309439
124.244870632799
131.107773063967
130.232439004609
117.968539031918
104.036698910778
112.971285120357
133.688362106531
134.094407331414
79.6098134725267
77.9891915127186
83.4940869721696
78.378823228817
74.6918436472288
75.4458702517466
75.3563996799706
71.2817490408243
64.6835085311305
57.3504748105101
50.9852369664247
45.7894386745664
41.5925452639699
38.0861111687003
35.0249761343302
31.9702484109529
28.7627694175236
25.4831841116151
22.2769403626529
19.342512703809
16.9415344028328
15.2534275492957
14.3759668210385
14.4944268830032
15.8264572663338
16.7820364433775
16.7865440670774
16.6642606592388
16.3594722734967
16.0244575598977
15.7033205673494
15.4246678719718
15.1865950295643
14.9871945567897
14.8186283111876
14.6757507517673
14.5529814629692
14.4464821399292
14.3529002005556
14.2698249990644
14.1953160544912
14.1279244838658
14.0665029898372
14.01016757786
13.9582193986977
13.9101691804767
13.8657828493226
13.8243722661577
13.7853169479788
13.7484042862603
13.7135384990391
13.6805723955416
13.6493568945008
13.6197621026576
13.5916680055912
13.5649720222269
13.5395847403999
13.5154314790531
13.492446897128
13.4705734854348
13.4497602182601
13.4299594623479
13.4111249825933
13.3932122338279
13.3761762122916
13.3599715793965
13.3445547524188
13.329885456485
13.3159303619826
13.3026664516014
13.2900778732437
13.2781531092014
13.2668683275847
13.2561870249754
13.2460627292147
13.2364417130226
13.2272706760254
13.2185021669552
13.2101061596578
13.2020733825356
13.1944320383236
13.1872361565456
13.1805831840925
13.174590699956
13.1695117259011
13.1655822089951
13.163426864486
13.1634089619265
13.1669839037676
13.1740076950915
13.1870860782905
13.2012751533015
13.2143033258536
13.1926445951676
13.1621892797352
13.1725333129653
13.5108376828944
14.3329254791925
15.5425048558038
17.1725832912017
19.1785841347242
21.4270156193917
23.7529194851139
26.1252858907314
28.5323040583488
31.0090509602371
33.8306141436223
37.2456832699606
41.433042941069
46.4522701376588
52.5492074002217
58.985848700668
64.5297068117279
67.3182257999741
66.0489309903214
59.1493066519038
52.3532992218068
58.3353355532037
78.5250035402409
88.2095691546457
57.0611337726489
56.5055221817155
65.5024995887215
58.6575937871765
47.2906738692586
44.5892538562184
45.1123833996033
43.1612659122085
39.4525101381525
35.2864583645022
31.608186450487
28.565731366958
26.1008179969729
23.9833777998719
22.0426265980953
20.0324997943651
17.8999735860802
15.7332778088582
13.6786174855877
11.9050449950803
10.5649676892995
9.76869512053875
9.5936092914503
10.1721850200608
11.4704639421868
12.0718533372884
11.7621387232319
11.419885187898
11.0014022617883
10.6500808625122
10.3596788441558
10.1369707726813
9.96270163124261
9.82877143586609
9.72341744504729
9.64045712742611
9.57382564932837
9.51982875924423
9.47533909397296
9.43825625698424
9.40691868305469
9.38013370453902
9.35697385623349
9.33674705260474
9.31892710442161
9.30316375023014
9.28898614500604
9.27580248134102
9.26342553898039
9.25178341976665
9.2408095053266
9.2304038497744
9.22047832904905
9.21095802652119
9.2017762707003
9.19287898156215
9.18422126047062
9.17576800376997
9.16749006445763
9.15936330292369
9.15136743316195
9.14348386264292
9.1356944442938
9.12798152822964
9.12032651176284
9.11271007356203
9.10511362225922
9.09752043831932
9.08991814723107
9.08230059887159
9.07466543290576
9.06701133287707
9.05932712466147
9.05159201811407
9.0437773355245
9.03584816465358
9.02776820303702
9.01950333505805
9.01102893307944
9.00233220298471
8.99342237044265
8.98432321887389
8.97508308412703
8.96576432368235
8.95651261268627
8.9474723686694
8.93902493237282
8.93141784353564
8.92554594761559
8.92136340618979
8.92032846173792
8.91909005786347
8.9151413010212
8.88701693244546
8.85718507262367
8.86763867684039
9.08113924817738
9.58827299923299
10.3284201887588
11.3184712062981
12.524020828159
13.8636164243064
15.2470323604995
16.6525761595181
18.0761958138068
19.5463338431297
21.2254839856969
23.2364689143709
25.6775130262834
28.5631394177401
32.0286246148119
35.5593536756941
38.5436907197824
39.9421754470096
39.167375935926
35.424801713992
31.8605186378841
34.7121269240909
48.9336830161573
60.3143279964183
42.3003360306835
41.7440351056271
54.2587395212117
49.7456359167903
33.9294288244481
28.0974521733079
28.6917893795957
27.9263922203791
25.8099796055855
23.3870031659789
21.1808402602901
19.3095255979552
17.7703540155152
16.3772502498201
15.012922320205
13.5529578699654
12.0157306865274
10.500732424517
9.14387649262154
8.06924234734294
7.35349108630609
7.06229535008071
7.25473828866738
7.99376167606537
9.06043246385322
9.26869632977184
8.75137622206304
8.35977510372899
7.97537153178596
7.70284258669887
7.49369909217946
7.34706273289258
7.23839473147898
7.16070931938061
7.10322028359621
7.06134294338489
7.03026085021987
7.00735866092872
6.99034660393869
6.97777917379458
6.96850073826794
6.96170980367325
6.95678538398019
6.95327621358604
6.95085065655001
6.94920413622367
6.94788745855107
6.94667017725571
6.94551351577769
6.94438725499173
6.94325562607746
6.94206537556187
6.94077348828653
6.93934420825973
6.9377468692601
6.93595870138068
6.93396245758263
6.93174674689877
6.92930339818884
6.92662692261807
6.92371365932541
6.92056029521428
6.9171631080602
6.91351799472369
6.90961954248552
6.90546136582764
6.90103725140876
6.89634210372458
6.89137372801646
6.886133897627
6.88062634760478
6.87485423402304
6.86881262738499
6.86248902227894
6.85586471108387
6.84891608080287
6.84161812263745
6.83394725409339
6.82588650725378
6.81742757962365
6.80857765429481
6.79935468766996
6.78979387545334
6.77994411411361
6.76991292149415
6.75981871876408
6.74993858249392
6.74048680768583
6.73208348014642
6.72476357685393
6.7193895429532
6.71358562268284
6.70503484138479
6.67983820912643
6.65787128106375
6.67002934945077
6.81669229179964
7.16205547969596
7.66791032064566
8.34114384235609
9.15420044711044
10.0517468502757
10.9767713133129
11.9138746235444
12.8618289807772
13.8427359274889
14.9608042569156
16.2849818518875
17.8721926155611
19.7228079898922
21.9160286519347
24.0976551757024
25.930753396027
26.8055062222154
26.4186993779394
24.2734673017077
22.1919875947376
23.509065779148
32.7220368800397
42.4600422105039
32.4628753950593
31.0897124847342
45.5752435522075
45.04364760666
27.6548710637392
18.9460611653523
19.0205552331079
18.8825774384412
17.7033192246009
16.3291265841415
15.0059740104284
13.8274388985486
12.8208613548768
11.8342276945365
10.8000947184951
9.68082766417579
8.5392395065428
7.47149535635987
6.58373242490733
5.95035209207415
5.604467279096
5.58793712396295
5.94064846967977
6.65891881883948
7.4352162713497
7.3533900489669
6.7948468433082
6.46112933851944
6.15971850219825
5.97056451886703
5.82907436383227
5.73699636154702
5.67117711176064
5.62759665597403
5.59753676541775
5.57805255894656
5.56555622069738
5.55830526829588
5.55467497613313
5.55369444649394
5.5545688226364
5.55676172231175
5.55985542164883
5.56355104813016
5.56762579035261
5.57176844116314
5.57572249439856
5.57941584632687
5.58284406522727
5.58599322209752
5.58884536798892
5.59137319981514
5.59355671965402
5.59538000713605
5.59683039045288
5.59790034937381
5.59858584970183
5.59888650835203
5.59880372090479
5.5983403319933
5.59749998792874
5.59628607596019
5.59470124549637
5.59274743649095
5.59042528000402
5.58773447639722
5.58467474760648
5.5812466444346
5.57745287146643
5.57329886841469
5.56879107506511
5.56393461555234
5.55872791212473
5.55316332115321
5.5472283623081
5.54090687932185
5.53418182982287
5.52703774148124
5.51946473608283
5.5114604858758
5.50303516585713
5.49420855703066
5.48501482073537
5.47550288724065
5.46576772077423
5.45592344770578
5.44619993900889
5.43680514579215
5.42821615208512
5.42052874825586
5.41429165913676
5.40777160509795
5.39897875799193
5.37881513017767
5.36491245981431
5.37914990216736
5.48659272294381
5.73810085074505
6.11012927707085
6.60409774116621
7.19731494184823
7.84887434629319
8.51912469880302
9.19743184256129
9.88353970538836
10.5953255408
11.4047938960187
12.3552239778389
13.4817565404835
14.781182313429
16.3021302085689
17.7937532444299
19.049268014297
19.6857464881208
19.5193463547602
18.1998718778683
16.851332294238
17.4803599956875
23.4763740920852
30.9744782423609
25.7518434535999
23.5606462152845
38.1902590668077
41.846183262885
25.0688030586098
14.0330417166488
13.1400403792333
13.220178005772
12.5734936912554
11.848878698856
11.083370612721
10.3354140120146
9.65047349911343
8.9102704927226
8.0945742831142
7.2242950174596
6.37866222475886
5.63469140970375
5.0637012362039
4.70477131822174
4.57217921641161
4.69397656879196
5.08822897196223
5.70189361525027
6.21836260223707
5.97938327137513
5.48322389845741
5.23083359439856
5.00623265878184
4.87831633610725
4.7824485291642
4.72446234511044
4.68429321037951
4.66022657325925
4.64535493527488
4.63783662804584
4.63497734585251
4.63559295254724
4.63850176052545
4.64302830352957
4.64860548074143
4.65485793409603
4.66149090253911
4.66829670507512
4.67508490249084
4.68159961360426
4.68772574715607
4.69344133620079
4.6987496089604
4.70364406128598
4.70811618338848
4.71215225315857
4.71574364263443
4.71888426586161
4.72157031668933
4.72380159364408
4.72558028717275
4.7269110193917
4.72779946132441
4.72825210551501
4.72827575751685
4.72787673901844
4.72706057112943
4.72583200404753
4.72419462553455
4.72215124552616
4.71970470825859
4.71685858899516
4.71361819716145
4.70999084745993
4.70598431216041
4.70160472020882
4.69685258264681
4.69172349970207
4.68620931738807
4.68029921790719
4.67398206006259
4.66724861319562
4.66009485954102
4.65252389574891
4.64454974989415
4.63619569396658
4.62749815356479
4.61850933765482
4.60932028911862
4.60004629704064
4.59089270209052
4.58206679182631
4.57396266454509
4.56671708859441
4.56070478219211
4.55464018020947
4.54687884661665
4.53147683913804
4.52404697736382
4.53986861105654
4.62233948495925
4.81410486046822
5.10150977103525
5.48308719332266
5.93969917363428
6.43914534753274
6.95247799450002
7.47219001799013
7.99842610910969
8.5462057730838
9.16818751133045
9.89405604241269
10.7467897878265
11.7230941806728
12.8537374347247
13.9552139033546
14.8885790542608
15.3981415810812
15.3550179229444
14.4948633406248
13.5393877821357
13.8486543079917
17.874512892768
23.4447646690891
20.9671811579455
18.4075275764484
31.7164669285903
38.9671498276462
24.2766024553536
11.625796273867
9.57415167643004
9.59599966046386
9.20860979509857
8.86758892023499
8.45920165723829
7.98634309789547
7.50474611503255
6.93013998834824
6.28056951431087
5.60844048874471
4.98861697151246
4.47519352876647
4.11318910528813
3.92266858706484
3.91019508261952
4.09282311396775
4.46805942495605
4.95578852245581
5.2758428756098
4.97997106449699
4.58030731911192
4.39631311147834
4.23029060911587
4.14320424630915
4.07707304047598
4.04015859559855
4.01556631424133
4.00294041845898
3.99678349249204
3.99591709146484
3.99827428116326
4.00301423999335
4.00924920171274
4.01648685693913
4.02430567635649
4.03242948484307
4.04063920120924
4.04878236405513
4.05667335687756
4.06414552112992
4.07114855855712
4.07767681355844
4.08373461997359
4.08931927502871
4.0944273149812
4.09905226756743
4.10319129192114
4.10684337227504
4.11000925377736
4.11269238071579
4.1148979761964
4.11663298897378
4.11790503823234
4.11872224080757
4.11909280082985
4.1190243870423
4.11852391641308
4.11759758437685
4.11625060753274
4.11448759812232
4.11231326788858
4.10973303377889
4.10675378747283
4.10338395908175
4.09963210581277
4.09550500346098
4.09100466153383
4.08612908315874
4.08087337490418
4.07523078442274
4.06919472455234
4.06276084427197
4.05592983986831
4.04870929680081
4.04111675889975
4.03317885320263
4.02493473222659
4.01643997512388
4.00778439359298
3.99908488458732
3.9905317703284
3.98233121453469
3.97482391150132
3.96817222261671
3.96265005897558
3.95729679778987
3.95078876947426
3.93931549398998
3.93666528279656
3.95341462597037
4.01894579623876
4.1700343510059
4.39983322287209
4.7054422671443
5.07032443411517
5.46818582931039
5.87724113431009
6.29195712854948
6.71270191451089
7.15243640296389
7.6513280076088
8.23117944564746
8.90779815547603
9.67883505757753
10.5640684620643
11.4256713239825
12.1635708311354
12.5979367917891
12.6268339222594
12.0401274380813
11.3093190240184
11.4611143530922
14.2564505363739
18.3736832738835
17.3839499803541
14.9598547185028
26.018988821746
35.9480860911534
24.243126319643
10.6963161753216
7.4559314199604
7.2654422156266
6.96902870260191
6.82417788183692
6.63859355139419
6.34401239795256
5.99732226555884
5.54514858259399
5.03033383952282
4.51609116119058
4.06434123131147
3.71124618330922
3.48571280051329
3.39843739311409
3.451584840519
3.65229531579244
3.98263158129604
4.35459875491921
4.54023325764844
4.24553719893107
3.93870519426188
3.80415913613453
3.68079833719663
3.62055988504973
3.5742456409244
3.55074945185299
3.53606060295257
3.530487056032
3.52962729909611
3.53268553305057
3.53804567466795
3.54508078616214
3.55310498593486
3.5617434918663
3.5706718579966
3.57967779649544
3.58859099197146
3.59728978190823
3.60560384825815
3.61343810300712
3.62076932180503
3.62759710767903
3.63392543615483
3.63975375071304
3.64508137125975
3.64990583526895
3.65422738460015
3.65804777028815
3.66137021708754
3.66420009282784
3.66654418058112
3.66841055841251
3.66980777247322
3.67074469826218
3.67123020326612
3.67127264459389
3.6708797184143
3.67005849002177
3.66881522457249
3.66715574417713
3.66508604552002
3.66261283030201
3.65974410189904
3.65648908575793
3.65285691931721
3.64885490851993
3.64448626491509
3.6397509158876
3.63464657779605
3.62916974318883
3.62331746332226
3.61708927946984
3.6104896796422
3.60352986821681
3.59623030887467
3.58862039124406
3.58074160677274
3.57265214746245
3.56444119880245
3.55622635698318
3.54818717260563
3.54052688832184
3.53354869162296
3.52742960192147
3.52238341889694
3.51769231883908
3.51231528717057
3.50391336728155
3.50463247142639
3.5217254703275
3.57519430190441
3.69719252189506
3.88560359347447
4.13690902556724
4.43654158037277
4.76264377140636
5.09835818669958
5.43944004711341
5.78641556016083
6.15067815167245
6.56386648479797
7.04286645197081
7.59907922582772
8.23128913005138
8.95232439265083
9.65664470762093
10.2683029326543
10.6548199866557
10.727577646079
10.3117046337616
9.71492983843253
9.78487645652131
11.7797793426243
14.8623995756631
14.5897298628932
12.6768478169573
21.020746966646
32.8882212812767
24.3875017028084
10.6572119127086
6.25423926605752
5.7658048593078
5.47236982125352
5.40022805878542
5.34395461284488
5.16542462802371
4.91180310385017
4.5547605116258
4.14921454186117
3.75739408772805
3.42793657272346
3.1854073836819
3.04934550885656
3.02541988144518
3.11223019503795
3.30848134939873
3.58713994185999
3.86469213367153
3.96400893380344
3.69775551352182
3.46703172665668
3.36675404814311
3.27450361082872
3.23223836458306
3.19965954805122
3.18509003704148
3.17705464223031
3.17609632237784
3.17868006858517
3.18422599028751
3.19145223867339
3.19986932114553
3.20893553403121
3.21835494426948
3.227870855308
3.23731431763122
3.24654932441636
3.25546715534338
3.26392991038147
3.27188520907113
3.27932148214183
3.28623992177161
3.29264401829412
3.29853454583685
3.30391242675079
3.30877750770509
3.31313177094527
3.31697859279756
3.32032266190072
3.32317045341405
3.32552962967287
3.32740887246099
3.32881722086972
3.32976395817771
3.33025833089659
3.33030913263971
3.32992459886672
3.32911243597228
3.32787970993561
3.32623318319144
3.32417986234641
3.3217274666816
3.3188848957899
3.31566204890382
3.31206858949695
3.30811233800008
3.30379755191819
3.29912579162893
3.2940969589697
3.28871023324332
3.28296565654566
3.27686594188483
3.270418657384
3.2636379142688
3.25654651747715
3.24917598588758
3.24156956592251
3.23378718066
3.22591727484464
3.21807702650483
3.2104372210324
3.20319643495384
3.19662956852318
3.19092077249011
3.18624739367385
3.18207679869749
3.17761021710453
3.17153415010292
3.17452315004864
3.19149398781245
3.23603849899915
3.33645504452347
3.49390469537863
3.70468913304517
3.95588571002461
4.22909886847808
4.51095365920219
4.7980825825111
5.09114143464058
5.40028385014156
5.75107493500137
6.1571500798737
6.62712832637604
7.16084793153993
7.76673750279427
8.36289084644341
8.88924827038161
9.24364772839368
9.34347438826411
9.03711367417045
8.52218860912246
8.54763423434847
9.99853835223873
12.3653411390877
12.3521109147297
11.1606415470942
16.6854900018984
29.9477381144586
24.449766892263
11.167617255404
5.65719746078894
4.80508556844324
4.46909040919281
4.39805272865004
4.40655668206001
4.30329080367263
4.11543160408125
3.83305799258103
3.51426718543959
3.21529690183535
2.97407969800905
2.80814048351209
2.73127764486021
2.74592178649433
2.84753621056562
3.02850889318227
3.25819218161063
3.46337682867978
3.50982853562454
3.28140613357341
3.108862572333
3.0325210954035
2.96332124386597
2.93348286031631
2.91083532309472
2.90250484196873
2.89920261925288
2.90146848788563
2.90646154131192
2.91372185886284
2.92222177108221
2.93156370545916
2.94131247518661
2.95122756059516
2.96110151093914
2.97079614088115
2.98020086596004
2.98921295847206
2.99773195474791
3.00572800922471
3.0131948284624
3.02013405163892
3.02654888071557
3.03244100481477
3.03781232812096
3.04266409517777
3.04699935404462
3.05082253626988
3.05413929730359
3.05695684213951
3.05928341214869
3.06112808421286
3.06250023100755
3.06340943048366
3.06386522976267
3.06387679263718
3.06345282663593
3.06260161024931
3.06133091909914
3.05964834177249
3.05756177025588
3.05507981797522
3.05221219133922
3.04896943730571
3.04536176203759
3.04139752951071
3.03708195994687
3.03241805944156
3.02740762704125
3.02205213534736
3.01635414725743
3.01031901238297
3.0039568345228
2.99728407205577
2.99032538043311
2.98311385140008
2.97569391832879
2.96812644307037
2.9604987956131
2.95292674495664
2.94557331192148
2.93863104477668
2.9323522548302
2.9269231179613
2.92249865706009
2.91868950636564
2.91490066266715
2.9105345623722
2.91495293643478
2.93144520474856
2.96917578237272
3.05312358736906
3.18666772343096
3.36620599408414
3.58026113215246
3.81318366268802
4.0541309850052
4.30035622553774
4.55263146271209
4.82010809245457
5.12388745829562
5.47535528675573
5.88134968588108
6.34262420103967
6.86490953708539
7.38407958026353
7.8508912155066
8.1826278250793
8.29863451336145
8.06254201463936
7.59762926166924
7.59804356141695
8.66444422789747
10.5428807512342
10.5355380119339
10.1300251581761
13.0378362633385
27.1361152788048
24.4230574399844
12.0133625527154
5.49007134775941
4.20682436530636
3.79516168273961
3.68728513724564
3.71708016547485
3.66186966376529
3.52123746132554
3.29718607393123
3.04607557333913
2.81685631087598
2.63949151156016
2.52715040779388
2.48974611571436
2.52729219586095
2.63266553561753
2.79420790117037
2.98142872358126
3.13299407623103
3.14853798343865
2.95835846194741
2.82896007089823
2.76990379577795
2.71811231833771
2.6972173769666
2.68204668622007
2.67831043344692
2.67857130623165
2.6832499464458
2.69006440995166
2.69862119959749
2.70808941623119
2.71813586995445
2.72840625472714
2.73870080557003
2.748849158383
2.75873582837875
2.76826910098766
2.7773538378108
2.78592109343789
2.79395293797501
2.80144571321535
2.80840125216578
2.81482271082221
2.82071248701723
2.82607314791696
2.830906845417
2.8352173600465
2.83900990290515
2.84229086595317
2.84506802861076
2.84735010193438
2.84914650489093
2.85046691796869
2.85132121457642
2.85171926143172
2.85167061409248
2.85118446760923
2.85026968092461
2.84893472630394
2.84718798413317
2.84503818604998
2.8424947931047
2.83956829582439
2.83626991091904
2.83261043780153
2.82859883444143
2.82424124392974
2.8195419958061
2.81450458492279
2.80913249229475
2.80343045307256
2.79740605008113
2.79107150526447
2.78444519016851
2.77755321450821
2.77042978558712
2.76312003261222
2.75568510096454
2.74821091745704
2.74081105115701
2.7336412899294
2.72688719002716
2.72078218342602
2.71551105074822
2.71121499016715
2.70761651325993
2.70428932026388
2.7011324209783
2.70634065593386
2.72208609866473
2.75447071393064
2.82556042950341
2.94018192615281
3.09501115892503
3.2798461379274
3.48125771262781
3.69029012560242
3.90465197299
4.12522737346335
4.3603504978676
4.62776307689481
4.93723661263304
5.29447063141574
5.70101123917612
6.16107296398118
6.62415429387545
7.04836545782794
7.36278182972684
7.46905203333054
7.27234890851975
6.86035335603925
6.84607398530683
7.63216092694696
9.17810391704998
9.05455527751905
9.38902012978889
10.1168797205463
24.3938506454823
24.2519389996087
13.0600448384626
5.65721860887332
3.87020466649865
3.34704305540826
3.18087850219337
3.20254794944647
3.17648398365671
3.07034060924468
2.89164335696805
2.69288178394092
2.51606978541487
2.38530533250372
2.31087383100914
2.29980805876794
2.35021737608536
2.45308327621443
2.59465857574319
2.74676752237908
2.85935359490787
2.85792835908391
2.70251084240091
2.60482305555177
2.5588081806234
2.52041755584074
2.50625191020331
2.49692466209407
2.4967566324964
2.49984981446208
2.50646306724264
2.5147642191059
2.52439758977377
2.53468635733506
2.54534475018211
2.55608123872164
2.56672734587047
2.57714153092221
2.58722580845379
2.59690256270043
2.60608752610597
2.61473487055281
2.62283328158351
2.63038067342563
2.63737912615705
2.64383196867961
2.64974221979689
2.65511295982124
2.65994699069168
2.66424867351767
2.66802388199143
2.6712796577509