/*--------------------------------*- C++ -*----------------------------------*\
  =========                 |
  \\      /  F ield         | OpenFOAM: The Open Source CFD Toolbox
   \\    /   O peration     | Website:  https://openfoam.org
    \\  /    A nd           | Version:  7
     \\/     M anipulation  |
\*---------------------------------------------------------------------------*/
FoamFile
{
    version     2.0;
    format      ascii;
    class       volScalarField;
    location    "20000";
    object      p;
}
// * * * * * * * * * * * * * * * * * * * * * * * * * * * * * * * * * * * * * //

dimensions      [0 2 -2 0 0 0 0];

internalField   nonuniform List<scalar> 
15600
(
2.14863345464905e-09
0.00607356145511508
0.018468490680942
0.0374669197676014
0.0481737391570712
0.0544381722737975
0.0588235346156267
0.0613491932815826
0.0630382705223711
0.063974774058531
0.0647012242771801
0.0652845778982917
0.06579460676492
0.0663210871135354
0.066931876598773
0.0676600288027318
0.0684743695123536
0.0693366928791931
0.0701605912223641
0.0708233989393746
0.0712833295944831
0.0715346319795834
0.07157658465356
0.0715603614309891
0.0712866744898063
0.071016503732004
0.0708191324733568
0.0705859639444296
0.0705392237145369
0.0706940355817353
0.0711109764576898
0.0717930033749286
0.0727428706682754
0.073948527960892
0.0753973781633717
0.0770742920134411
0.0789650257741348
0.0810557993129928
0.0833339452692111
0.085787644988367
0.0884058926493838
0.0911782918775338
0.094094937728213
0.0971462800986694
0.100323076820051
0.103616327056731
0.107017204037844
0.110516998518504
0.114107065817998
0.11777880509807
0.121523618913373
0.125332969849197
0.129198458711768
0.133111846287452
0.137065100645014
0.141050413473281
0.1450602259484
0.149087239975745
0.153124438988338
0.157165106659287
0.161202842593647
0.165231579460686
0.169245600122442
0.173239546692174
0.177208429757396
0.181147632766848
0.185052908219106
0.188920370582225
0.192746482487143
0.196528034146048
0.200262131433779
0.203946176543419
0.207577882215065
0.211155273060314
0.214676676111241
0.218140701514922
0.221546206043773
0.224892255231888
0.228178069309379
0.231402989624448
0.234566420267068
0.237667829488134
0.24070670577838
0.24368266611061
0.246595250366545
0.24944438509925
0.252229575971795
0.254951629077538
0.257609647480486
0.260207209773786
0.262741730731306
0.265224619430761
0.267648551273382
0.270028171158483
0.27241145410655
0.274633963501994
0.276645314015865
0.278677275142284
0.280924560346534
0.283397060359276
0.286149971949835
0.289194655715381
0.292428961153055
0.295643462866575
0.298517888887678
0.300690934187836
0.301734498979443
0.301659251088895
0.30012843236608
0.297021295548741
0.291371711528321
0.282471536326723
0.266031472324961
0.238946293075784
0.194092708783539
0.122607137448623
0.0113115350011592
-0.094115002804793
-0.0883181996977645
-0.0351804105464673
2.1892307607714e-05
0.00609883070169999
0.0183441974907569
0.0371012499796838
0.0478578531828489
0.0542005084711486
0.0586616105226057
0.0612533925019527
0.0629867868960691
0.0639541106950736
0.0646941088711267
0.0652864144384562
0.0658004780684408
0.0663255047622642
0.0669304675127734
0.0676516938286452
0.0684610755515633
0.0693226298512655
0.0701528839273467
0.0708274447420022
0.0712989206928738
0.0715580129138407
0.0715999567170057
0.0715790768226627
0.0712983083087739
0.0710273467995561
0.0708310499087755
0.070598607931497
0.0705532177348198
0.0707093127134491
0.0711276740640098
0.0718110629906506
0.0727622028481795
0.0739689695239436
0.0754187444244705
0.0770963811649453
0.0789876356882794
0.0810787309819737
0.0833570071883033
0.0858106540100395
0.0884286748654675
0.0912006827195078
0.0941167821261609
0.0971674323644486
0.10034340059946
0.103635695343934
0.1070354984324
0.110534108744711
0.11412289209878
0.117793260018002
0.121536626023515
0.125344462598578
0.129208380562702
0.133120150536607
0.137071750486019
0.141055381698668
0.145063494648653
0.14908880018007
0.153124290238269
0.157163256544052
0.161199306235796
0.165226378930403
0.169238763829365
0.173231108749877
0.177198429318029
0.181136113377633
0.185039917216138
0.188905958546489
0.192730702818506
0.196510942688044
0.20024378615558
0.20392663704797
0.207557209058309
0.211133527130343
0.2146539181194
0.218116991681956
0.221521603993374
0.224866820143406
0.228151860236732
0.231376066061886
0.234538842715575
0.23763966000836
0.240678007995617
0.243653506284821
0.246565696787441
0.249414510805554
0.252199455389218
0.254921345518312
0.257579278068566
0.260176844600365
0.262711420167704
0.26519442622537
0.267618368901287
0.269998121203795
0.272378106256162
0.274607681020905
0.276643309403976
0.278700494769208
0.280976243349336
0.283479309551415
0.28626394948836
0.289334562751824
0.292579855547875
0.295783653004363
0.298622513202061
0.300734881896066
0.301707714810007
0.301554115017425
0.299933280412863
0.296705129336977
0.290887726749878
0.281686823106419
0.264782884548278
0.237056833396566
0.191393327565871
0.119189389759986
0.00880728922020317
-0.0936527154795785
-0.0875862053641311
-0.035087247864184
8.0623371228228e-05
0.00618029172236618
0.0182880464441725
0.0367682457232587
0.0475573059428033
0.0539648665949892
0.0584978004190734
0.0611546352758427
0.0629330290321699
0.0639319161879174
0.0646863028531508
0.065287966927382
0.0658063971268097
0.0663302596586809
0.0669293841425097
0.0676432673367698
0.0684468968149843
0.0693066947597251
0.070142488866939
0.0708286866975347
0.0713124803715705
0.0715805034740577
0.0716235193246924
0.0715997500699856
0.0713110837519431
0.0710389267917074
0.0708439329346831
0.0706110724957256
0.0705664164874902
0.0707233887818978
0.071143083271175
0.0718278659304802
0.0727803843973959
0.0739883651196155
0.0754391507533208
0.0771175612442598
0.0790093519382347
0.0811007491343207
0.0833791043080508
0.0858326192889246
0.0884503108594598
0.0912218048146685
0.0941372184218882
0.0971870225042306
0.100361995189582
0.103653155002842
0.107051692030025
0.11054891877428
0.114136220636887
0.117805025744335
0.121546758112926
0.125352898034329
0.129215066770642
0.133125046260216
0.137074825520026
0.141056616531363
0.145062880195532
0.149086337318193
0.153119989244347
0.157157136534389
0.161191394519843
0.165216710246135
0.169227379630589
0.173218056434183
0.177183761425733
0.181119886887233
0.185022192899364
0.188886800441062
0.192710177920248
0.196489120577059
0.200220738743343
0.203902437743785
0.207531931797793
0.211107245634739
0.214626705366219
0.218088919751267
0.221492744170398
0.224837243515972
0.228121638364965
0.231345272266404
0.234507552913301
0.237607954080501
0.240645969270239
0.243621225278813
0.246533267589886
0.249382041916121
0.252167053847552
0.25488914912815
0.257547393614959
0.260145441068787
0.262680530127062
0.265164177358824
0.267588467238781
0.269969411648216
0.272343053438275
0.274572552070371
0.276631288413003
0.278714032101786
0.281019566467422
0.283554389892937
0.286371556791268
0.289467866512199
0.29272250434012
0.295913092025331
0.298713651334801
0.300763642770518
0.30166507180943
0.301432922506633
0.299720467962755
0.296368795829819
0.290377130483207
0.280871609590968
0.263511830642992
0.235185301153257
0.188844294741273
0.116341642534975
0.00773569541634861
-0.0912356271994503
-0.085934762258567
-0.0349425512152615
0.000205876035061462
0.00639283108638768
0.0183628265259336
0.036462296502767
0.047283872453173
0.0537433103141845
0.0583394176231066
0.0610573627092912
0.0628793994845753
0.0639094342520065
0.0646782562845143
0.0652892609748813
0.0658120139401592
0.0663348099642343
0.0669280514386663
0.0676341350780092
0.0684311036709206
0.0692878797774412
0.0701278104157698
0.0708248328455433
0.0713212832287268
0.0715994655565234
0.0716460316551853
0.071622629189346
0.0713233273336876
0.0710479177749994
0.0708539910463714
0.0706194816734257
0.0705749320849426
0.0707328163652019
0.0711542795113712
0.0718410018869209
0.0727954129529387
0.0740049984219462
0.0754570459079168
0.0771363411974659
0.0790286548696624
0.0811202325391709
0.0833984538836648
0.0858515478248087
0.088468557660879
0.0912391328531305
0.0941534125243961
0.0972018857216784
0.100375346165951
0.103664825284889
0.10706153211942
0.11055682345625
0.114142109524355
0.117808813464748
0.121548369340233
0.125352278226495
0.129212178148683
0.133119865707574
0.137067344319225
0.14104683980752
0.145050826548988
0.149072038078232
0.15310348754158
0.157138486424925
0.161170659969138
0.165193963912207
0.169202701793268
0.17319153384198
0.177155486114231
0.181089955222919
0.184990704768822
0.188853858682836
0.192675888176195
0.196453590968038
0.200184079690421
0.203864760610188
0.207493347275059
0.211067862632609
0.214586630360619
0.218048256860104
0.22145159572034
0.224795711547098
0.228079826283706
0.231303287675021
0.234465509585227
0.237565975008942
0.240604186294104
0.243579786760956
0.24649233279216
0.249341802168247
0.252127705061271
0.254850951691492
0.257510561549755
0.260110308500136
0.262647192823371
0.265132875885716
0.267558668626065
0.269942375170464
0.272307734591673
0.274530231070159
0.276609724145726
0.278716656812508
0.281050976097962
0.283615785446838
0.286462519648996
0.289579822748123
0.292837735966122
0.296008873584469
0.298765668189346
0.300750435019869
0.301580391588202
0.301270547676822
0.29946629665219
0.295989945612295
0.289820282534266
0.280011864675716
0.26221819020953
0.233354244112988
0.1865008924744
0.114119700138789
0.0080868777519271
-0.0868142920656887
-0.0829717785543013
-0.0345816795844826
0.000451448568627665
0.00682339325497398
0.01865737789283
0.0361734855253766
0.0470144405408867
0.0535238508329857
0.0581796172322969
0.0609575577302535
0.0628236854294938
0.0638858656395733
0.0646697291370477
0.0652904571939693
0.0658176400847567
0.0663393500140367
0.0669262452187447
0.067623414000736
0.0684119891057474
0.0692634558754752
0.0701049221268359
0.0708108478494014
0.0713196186025487
0.0716097228279202
0.0716645744974297
0.0716475744953627
0.0713346895921313
0.0710540117601438
0.0708602224471322
0.0706232071044807
0.0705789581776333
0.0707387979861555
0.07116344492279
0.0718534058915092
0.0728107242455927
0.0740225657238094
0.0754761886540368
0.0771563835476707
0.0790489854684952
0.0811403017215523
0.0834177769385081
0.0858696976979193
0.0884851590693665
0.0912538548833103
0.0941659633690402
0.097212005206168
0.100382800414229
0.103669409763942
0.107063103720414
0.110555273241165
0.114137324956237
0.117800703346321
0.121536874900479
0.125337370222981
0.129193850651218
0.133098133875699
0.137042243621974
0.141018424954386
0.14501917075446
0.14903723180703
0.153065636990156
0.157097712089943
0.161127095029909
0.165147752321277
0.169153996589701
0.173140495376272
0.177102280253524
0.181034751924878
0.184933676947598
0.188795181519124
0.192615739142894
0.196392149683106
0.200121527932676
0.203801280476198
0.207429118702103
0.211003061581854
0.214521427808994
0.217982819010464
0.221386085154263
0.224730289978396
0.228014657822002
0.231238544025777
0.234401374284706
0.237502649175241
0.240541889510148
0.243518769493124
0.246432870850054
0.249284228862818
0.252072376360889
0.254798332390581
0.257461073701032
0.260064558955401
0.262605467623332
0.26509564290287
0.267525214668908
0.269913665481448
0.272271429502246
0.274484331871615
0.276583293284599
0.278712012355667
0.281071747682759
0.283661207872893
0.286530001995708
0.289657815176619
0.292906405840942
0.296044507117017
0.298744272844437
0.300653875153068
0.301406543665085
0.301014391107312
0.299111865303892
0.29550063102342
0.289136003826636
0.27900255923184
0.260759496113819
0.23136008784354
0.184046911009874
0.111979508290504
0.00900351943676872
-0.0813116805539232
-0.078884573075367
-0.0338005220279146
0.00085258290483653
0.00751992758166744
0.0192368455419606
0.0359449892173504
0.0467389107207956
0.0532985031542931
0.0580151464300192
0.0608537591382292
0.0627650991522685
0.0638609509386488
0.0646606946788942
0.0652916888236603
0.0658234932656545
0.0663440792562185
0.066923931656263
0.06761054915587
0.0683881168232972
0.0692306391492484
0.0700692675823906
0.0707804715710699
0.0713002553043741
0.0716047004519061
0.0716749329693405
0.0716723402808028
0.0713439156676226
0.0710565006189727
0.0708607428932314
0.0706217014008961
0.0705799003242917
0.070744415477214
0.0711747554312634
0.0718697366064839
0.0728310070159778
0.0740454953441002
0.0755005791294763
0.0771811761525321
0.0790732861208432
0.081163352085953
0.0834389386950205
0.0858884316005318
0.0885010088996417
0.0912664327633516
0.0941749391835696
0.097217094493382
0.100383759215274
0.103666053069428
0.107055295365574
0.110542892639203
0.114120279416372
0.117778942223381
0.12151038537687
0.125306170968011
0.129157988004423
0.133057679093338
0.136997291661967
0.140969092970409
0.144965597111292
0.148979574462986
0.153004071577603
0.157032430107704
0.161058301815798
0.165075664672537
0.169078840666609
0.173062504507312
0.17702169273906
0.1809518093135
0.184848622716792
0.188708260377585
0.192527197298209
0.196302234985858
0.200030490242251
0.203709369594837
0.207336581349919
0.21091013903846
0.214428354644709
0.217889823456638
0.221293390805445
0.224638119693011
0.227923238502165
0.231148114075228
0.23431219014316
0.23741499383768
0.240456075073294
0.243435153937881
0.246351853464807
0.249206292201774
0.251998046892214
0.254728289654972
0.257395968234301
0.260005293913078
0.262552573723151
0.26504991190871
0.267485960782646
0.269881584313189
0.272234593369357
0.274438409483909
0.276554977955336
0.278700758955516
0.281079939292643
0.283685294936692
0.286564634983222
0.28968793218787
0.292909768794482
0.295996382836082
0.298621497444782
0.300441769611633
0.301107087368267
0.300623572610398
0.298611054312364
0.294847793989269
0.288261270843636
0.277764365001134
0.259030173715543
0.229055710664002
0.18126773900592
0.109593944602607
0.0099217495254415
-0.0755165709279447
-0.0741613374661624
-0.0325654896475936
0.00139999205383772
0.00846175638742422
0.0200943648388466
0.0358419112401313
0.0464658431135503
0.0530635193224564
0.0578424972942047
0.0607450654163619
0.0627033587774818
0.0638347070463186
0.0646512766460676
0.0652931479984976
0.0658298097785605
0.0663492139606494
0.0669211196656608
0.067595073573289
0.0683582396154847
0.0691871478152771
0.0700175673182179
0.0707298595839336
0.0712594805381197
0.0715814388086184
0.071674424465113
0.0716920359441024
0.071347617168436
0.0710533755295387
0.0708532191682366
0.0706148807657498
0.0705793622730085
0.0707519047700515
0.0711902098896949
0.0718913803837861
0.0728569458351187
0.0740738460941129
0.0755297781937387
0.0772099207716089
0.0791005277834507
0.0811882364254855
0.0834607704206528
0.0859066413461514
0.0885151291166241
0.0912760775553008
0.0941797900940453
0.0972168862264384
0.100378277640146
0.10365513759983
0.107038820940405
0.110520766651003
0.114092452137399
0.117745407275967
0.121471174453358
0.125261347685007
0.129107644921391
0.13300193447747
0.136936288211914
0.140902996135482
0.144894594099772
0.148903872484517
0.152923895777704
0.156948021633519
0.160969915621541
0.164983566946172
0.168983306593619
0.172963815902182
0.176920135697041
0.180847672389219
0.184742195537326
0.188599832980741
0.192417060574805
0.19619068102885
0.199917813042458
0.203595862910599
0.207222535552035
0.210795838551312
0.21431407659994
0.217775838237117
0.221179964082889
0.224525517015988
0.227811730913446
0.231037986935988
0.234203750989293
0.237308582671071
0.240352067921631
0.243333982298199
0.246253999688786
0.249112337726001
0.25190862830606
0.254644223901742
0.2573180479293
0.259934614896692
0.262489827734836
0.264996175054954
0.26744067892523
0.269845687917003
0.272197076654637
0.274393220992225
0.276525143365544
0.278682337999494
0.281074949510236
0.283687502233018
0.28656612955086
0.289670582305909
0.292849346753419
0.295867315725773
0.298401269697721
0.300117987266923
0.30068361889737
0.300096026437638
0.297957215612118
0.294019602274376
0.28717836207977
0.276273832663772
0.256999221030017
0.226405478436705
0.178135033733543
0.106957431559179
0.0107562957707293
-0.069739856781544
-0.0691723876553016
-0.0309787253324416
0.00207482453846671
0.00958462767631099
0.0211715610166814
0.0359130647624406
0.0462151973376096
0.0528267098506512
0.0576561084918379
0.060629440731472
0.0626378746383688
0.0638071471982223
0.0646416849143349
0.065295142628254
0.0658369461758005
0.0663550606109287
0.0669179132153009
0.0675767783781484
0.068321849739672
0.0691324315987813
0.069949822494735
0.0706601171514723
0.0711994195878446
0.071541778002813
0.0716617367470615
0.0716992095804378
0.0713404517197223
0.0710417913606139
0.0708357562027385
0.0706024458082018
0.0705770480540468
0.0707602961688899
0.0712079690928155
0.0719158744649484
0.0728857335480962
0.0741047170580634
0.0755609738638097
0.0772400214964952
0.079128416537539
0.0812130191717954
0.0834817317550121
0.0859232047395771
0.0885268292347922
0.0912825371718284
0.0941807044581501
0.0972120072265037
0.100367405272233
0.103638118796771
0.107015543453492
0.110491164181917
0.114056502207189
0.117703130344726
0.121422629210759
0.125206625282697
0.129046866113426
0.132935246053698
0.136863861821901
0.140825026514808
0.144811298135425
0.148815487364799
0.152830676853058
0.15685024043687
0.160867857575786
0.164877528689946
0.168873593703826
0.17285074042747
0.176804013738015
0.180728822236243
0.184620936215721
0.188476483581618
0.192291940757567
0.196064111438584
0.199790116246947
0.203467361211018
0.207093547913801
0.210666678034128
0.21418504900164
0.217647242768939
0.221052095537872
0.224398670665441
0.227686208406587
0.230914105767806
0.234081852832074
0.237189044487455
0.240235305853633
0.243220472215989
0.246144271446117
0.249007026298117
0.251808424693899
0.254550009178215
0.2572306708898
0.259855253842081
0.262419226261373
0.264935585542436
0.26738959469683
0.269805439225938
0.272157445242778
0.274347488985739
0.276493420531524
0.278657115175081
0.281058459974466
0.283671253015695
0.28654017627883
0.289614578046096
0.2927373808671
0.295673207648194
0.298102820842098
0.299703861123234
0.300157576882829
0.299452039480512
0.297169014598041
0.293033215562294
0.285903819946457
0.274550380847556
0.254692269687573
0.223450825140008
0.174722625017343
0.104186673409434
0.0116009742806902
-0.0640131869223859
-0.0640946477265936
-0.0291458418338528
0.00286539737073171
0.0108069581348714
0.0224097483141304
0.0361900652169272
0.046006732142907
0.0526155078450493
0.0574514585258268
0.0605036392109325
0.0625676082470387
0.0637782688129455
0.0646322579643441
0.0652981315088557
0.0658454001375022
0.0663620579480999
0.06691465900816
0.0675560411588773
0.0682796689584001
0.0690681058483022
0.0698690700556904
0.0705756690193238
0.0711247556403705
0.0714883337459559
0.0716348724268346
0.0716866812418266
0.0713179723293374
0.071019358006149
0.0708072998220963
0.070583714561076
0.070571365795063
0.0707672674927915
0.0712252705364926
0.0719403752215921
0.0729146654007156
0.074135672572756
0.0755920648090754
0.0772697374190063
0.0791555776089675
0.0812366852654404
0.0835011555995149
0.0859377879751003
0.0885360931588783
0.0912860974737131
0.0941782549423255
0.0972032959791692
0.100352226001762
0.10361631609971
0.10698701510923
0.110455854878053
0.114014401373832
0.117654271605197
0.121367085426391
0.125144502615922
0.128978301269968
0.132860402422126
0.136782928420569
0.140738216104269
0.144718846321893
0.14871765062924
0.15272773033319
0.156742475916469
0.160755581094497
0.164761057785911
0.168753255127294
0.172726867588215
0.176676944233151
0.180598895963499
0.184488493833505
0.188341865802064
0.192155488844219
0.195926167609189
0.199651024796788
0.203327466219683
0.206953190362349
0.210526193320572
0.21404476559271
0.217507482977061
0.220913177703604
0.22426091416315
0.227549939530253
0.230779667473096
0.233949613091874
0.23705940766865
0.240108716613359
0.243097436283564
0.246025348288103
0.248892881176607
0.251699774473701
0.254447760660532
0.257135683968203
0.259768728665694
0.262341891897436
0.264868788102951
0.267332754101819
0.269760189185993
0.272114115314907
0.274299693225345
0.276459459521905
0.278625688113342
0.281032046659836
0.283639337611265
0.286491172345889
0.289526543640361
0.292582853075983
0.295425613550742
0.297740223340062
0.299215348270118
0.299545834538949
0.298708806326391
0.296263979221488
0.291906932419435
0.284457962391486
0.272619699587835
0.25214454212778
0.220243971623104
0.1711076357064
0.10137850215199
0.0125297738515397
-0.0583133505934339
-0.0589978827971201
-0.0271371170222501
0.00376460535281437
0.0120424369276169
0.02376901179078
0.0366873516695664
0.0458584465964743
0.0524676220513827
0.0572316497441288
0.0603642317821691
0.0624911780264768
0.0637480604525609
0.0646235028404103
0.0653027358019519
0.0658557945105612
0.0663707771226987
0.0669119776919844
0.0675338024449725
0.068233343703659
0.0689969568893405
0.0697792629357681
0.0704808772471589
0.0710388235461292
0.0714217455316991
0.071591203595504
0.0716504786382651
0.0712785328772716
0.070984724981979
0.0707675780682457
0.0705580610007598
0.0705608812011873
0.0707710272499451
0.0712402361891542
0.0719631162086512
0.0729421738720489
0.0741653803662369
0.0756219626876804
0.077298218292667
0.0791813878739027
0.081258825294849
0.08351883298816
0.0859503699020527
0.0885430759830254
0.0912870793095595
0.094172917983266
0.0971913681242581
0.10033348855589
0.103590613502759
0.106954246765003
0.110415968054842
0.113967390156545
0.117600176195648
0.121305986427133
0.125076514723308
0.128903570741197
0.132779102906257
0.136695260057887
0.140644403509789
0.144619137719484
0.148612315738577
0.152617058072479
0.156626772383615
0.160635167082473
0.164636265960255
0.168624427767791
0.172594353964347
0.176541098101874
0.180460073685516
0.184347052748247
0.188198163480748
0.192009883556272
0.195779018664364
0.199502693827417
0.203178314726212
0.206803577091848
0.210376471950613
0.213895283408913
0.217358581747557
0.220765195808503
0.224114191594321
0.227404823579669
0.230636522532346
0.233808828756414
0.236921410002733
0.239973971926507
0.242966471614541
0.245898742386116
0.248771316223938
0.251583977325087
0.254338642488056
0.257034091734046
0.259675851417971
0.262258406239913
0.264796080819929
0.2672700856952
0.269709396761862
0.272065890795088
0.274248644712303
0.276422886376145
0.278588325695896
0.280996465344087
0.283593044830473
0.286421259110279
0.289409663108272
0.292390237534768
0.295130485130459
0.29732090843783
0.298661007163033
0.298857554305804
0.297875769831204
0.295251943870979
0.290651380821689
0.282853271689016
0.270498688102629
0.249381434784192
0.21682415737178
0.167343751220322
0.0985923077327554
0.0135816207276525
-0.0526313921247806
-0.0539115252213178
-0.0249970019958152
0.00476768507239526
0.0132233778426188
0.0252286002349127
0.0373893092002441
0.0457635217737396
0.0524056338185001
0.0570136370516804
0.0602094080529951
0.0624072255829797
0.0637164315939668
0.0646160287192511
0.0653096758514283
0.0658688031995079
0.0663818455684606
0.0669106365902934
0.0675112679304941
0.0681847946808139
0.0689217410739299
0.0696836157138129
0.0703784911004459
0.070942933269636
0.0713414465069327
0.0715288149576095
0.0715899408198402
0.0712224228660246
0.0709372779281248
0.0707168643400575
0.0705251605692706
0.0705447486518651
0.0707705341826776
0.0712517879994053
0.0719830851316699
0.0729673553046351
0.0741930662683318
0.0756500296169638
0.0773249626349366
0.0792054790620013
0.0812791996913396
0.0835346481658416
0.0859609539005178
0.0885478958615769
0.0912857117424613
0.0941650248269469
0.0971766547271154
0.100311723160525
0.103561640884551
0.106917962115706
0.110372317684736
0.113916369323209
0.117541828081374
0.121240395551635
0.125003800253432
0.128823884305739
0.132692624097561
0.136602195741005
0.140544985679167
0.144513622673253
0.148500981811421
0.152500203266943
0.156504712377432
0.160508232657428
0.164504800136338
0.168488783617762
0.172454891934554
0.17639818350651
0.180314074862109
0.184198339355801
0.188047105723572
0.191856852607455
0.195624386912887
0.199346836299583
0.203021606397045
0.206646390593606
0.210219175510689
0.213738239573245
0.217202148362236
0.220609728047774
0.223960046868787
0.227252366877838
0.23048613610666
0.233660919752965
0.236776421281605
0.239832385658471
0.242828829029405
0.245765633130574
0.248643428676458
0.251462036021986
0.254223546468547
0.256926657344935
0.259577231848773
0.262169197701444
0.264717669310058
0.267201515641718
0.269652663305964
0.272011899030084
0.27419339359506
0.276383244808157
0.278545026785677
0.280951976800984
0.283532959072861
0.286331552669996
0.289265657695205
0.292162153677814
0.294791475415596
0.296849521631806
0.298046158725644
0.298098303165944
0.296958465287112
0.294138488690445
0.289272470821444
0.281096907335242
0.268198203408459
0.246421700848253
0.213218677386991
0.163459989027888
0.0958574555619755
0.0147836600690926
-0.0469668551614317
-0.0488512441070601
-0.0227542677320488
0.00587127485335896
0.0143241270767924
0.0267832341578324
0.0382453430462037
0.0457044267692664
0.0524277414545415
0.056827918611703
0.0600407692367835
0.0623149428420764
0.063683146761851
0.064610361609442
0.0653196312748629
0.0658850452552035
0.0663958586470124
0.066911418786835
0.0674896484675506
0.0681357669983796
0.0688446212297801
0.0695842541301078
0.0702699247094025
0.0708373934222367
0.0712468861864866
0.0714471682824977
0.0715063468286471
0.071150544461435
0.0708769093624497
0.0706557296349348
0.0704849290081298
0.070522520144994
0.0707651650628536
0.0712592370667804
0.0719996045948242
0.0729895805258529
0.0742181744355544
0.0756757947008496
0.07734959116537
0.0792275655915145
0.0812976170759504
0.0835485031348075
0.0859695342461335
0.0885506380392411
0.091282170423556
0.0941548318352821
0.0971594953893993
0.100287357936138
0.103529908665126
0.106878751794559
0.110325572639786
0.113862083593406
0.117480045208545
0.12117120104343
0.124927314515399
0.128740260946964
0.132602045079691
0.136504870968341
0.140441150735956
0.144403538052889
0.148384930481956
0.15237848823818
0.15637765477295
0.160376169061682
0.164368079704306
0.16834776600936
0.172309944594898
0.176249679181221
0.180162389830914
0.184043851663139
0.187890194389595
0.191697898003738
0.195463770885248
0.199184943711224
0.20285882211249
0.20648309758042
0.21005575311942
0.213575062323601
0.217039587049491
0.220448151629915
0.223799827216311
0.227093883639578
0.230329786138167
0.233507124079513
0.236625635157011
0.239685101964162
0.242685596885623
0.245627045809037
0.248510171471368
0.251334820794427
0.254103246063247
0.256814043144166
0.259473399966703
0.262074641445929
0.264633737191851
0.267126998267548
0.269589700329597
0.271951479262094
0.274133138946269
0.276340021210467
0.278495645263381
0.280898602855587
0.283459462409637
0.286222762233702
0.289095768189692
0.291900602103712
0.294411441259523
0.29632968945099
0.297374875917345
0.297272224766482
0.295960869105697
0.292927493730543
0.287774212500596
0.279194081347544
0.265727432272138
0.243279287250702
0.209437475988757
0.159485554226387
0.0932163497508602
0.0161581772396636
-0.0413199568945811
-0.0438270844579921
-0.0204274192123945
0.00707213556160407
0.0153624012113476
0.0284322419564833
0.0391868083629256
0.0457314272753906
0.0525058886411896
0.0567081988486313
0.0598645828895829
0.0622143752566245
0.0636478564022469
0.0646067570142372
0.0653331077694379
0.0659050201193455
0.0664133460299603
0.0669150603737025
0.0674700270720821
0.068087670636717
0.0687671430687953
0.0694825177733933
0.0701559564819176
0.0707223606566283
0.0711379821901833
0.0713468738713681
0.0714017821701335
0.0710639013481303
0.0708039329091636
0.0705848380214211
0.0704374024387097
0.0704939524919731
0.0707545067203543
0.0712620914286556
0.0720121708319876
0.0730083671011727
0.0742402704543394
0.075698884123476
0.0773717996543009
0.079247416567405
0.0813139222030704
0.0835603189282162
0.0859761084870709
0.0885513763191667
0.091276604627553
0.0941425595068283
0.0971401818051345
0.100260760806314
0.103495855693323
0.106837124657439
0.110276310352955
0.113805177137681
0.117415536442446
0.12109917407974
0.124847888274767
0.128653588134059
0.132508306949573
0.13640427727647
0.140333937364774
0.144289966312068
0.148265284488088
0.15225307242195
0.156246792057768
0.160240198128639
0.164227352091765
0.168202644216362
0.172160799330364
0.176096886921947
0.180006331174376
0.183884909499237
0.187728753119717
0.191534343869193
0.195298491940788
0.199018331474576
0.202691268104751
0.20631499188241
0.209887483086661
0.213407011446845
0.216872136211075
0.220281680816302
0.223634720059146
0.226930531694688
0.230168597934303
0.233348531250348
0.236470101434179
0.239533126400704
0.242537730954445
0.245483880172645
0.248372380378716
0.251203094848685
0.253978419983971
0.256696832067383
0.259364824557089
0.261975075044091
0.264544457548631
0.267046522013565
0.269520318703474
0.271884133746906
0.274067193745205
0.27629268232371
0.278439889362673
0.280836315976993
0.283372784412427
0.286095378722093
0.288900974016329
0.291607235906103
0.293992774111287
0.295764415168946
0.296650452368863
0.296382594468994
0.294886059424886
0.291621935576536
0.286159807976345
0.277149795154579
0.263093823290233
0.23995574656931
0.205503955369343
0.155643393750705
0.0909501445936872
0.0177128935689882
-0.0356915410066983
-0.0388462311298667
-0.0180274351574193
0.00836561242161606
0.0163794051516458
0.030155853969149
0.0401635391959465
0.0459277462066032
0.0525509141257528
0.0566758578273021
0.0596924158801509
0.0621064531354652
0.0636101952370327
0.0646051293843179
0.0653503807222768
0.0659291034815866
0.0664347774363453
0.0669222275902022
0.0674533191660233
0.0680415997247508
0.0686904119409877
0.0693793180130657
0.0700371696099678
0.0705981848410613
0.0710152318756483
0.0712291869551316
0.0712785389528909
0.0709635491378413
0.0707189570106877
0.0705048407961478
0.0703826742782103
0.0704589221782974
0.0707382764451892
0.0712599888850901
0.0720203987651144
0.0730233361286143
0.0742590076677899
0.0757189958432578
0.0773913405867049
0.0792648435645469