/*--------------------------------*- C++ -*----------------------------------*\
  =========                 |
  \\      /  F ield         | OpenFOAM: The Open Source CFD Toolbox
   \\    /   O peration     | Website:  https://openfoam.org
    \\  /    A nd           | Version:  7
     \\/     M anipulation  |
\*---------------------------------------------------------------------------*/
FoamFile
{
    version     2.0;
    format      ascii;
    class       volScalarField;
    location    "20000";
    object      Pk;
}
// * * * * * * * * * * * * * * * * * * * * * * * * * * * * * * * * * * * * * //

dimensions      [0 2 -3 0 0 0 0];

internalField   nonuniform List<scalar> 
15600
(
3.97043406123496e-07
3.0648881839828e-07
7.4432471647533e-09
9.18599761776197e-09
4.14835860871327e-09
2.05932003400675e-09
5.02565078156442e-10
1.01814525793913e-10
3.0448243248397e-11
1.43122623897903e-11
1.289625799786e-11
1.63897426568331e-11
2.62152438780586e-11
4.84098390289864e-11
9.01286678973605e-11
1.542671303296e-10
2.34238279283137e-10
3.07221637668774e-10
3.34826964841472e-10
2.89999655251152e-10
1.84691997765648e-10
7.01773316762128e-11
1.13010122264647e-11
2.18102532774155e-13
6.29602438103819e-13
1.28030046574414e-10
8.66937613827108e-10
2.86289186434253e-09
7.13361571760967e-09
1.431120294737e-08
2.49075404650415e-08
3.8968340046473e-08
5.64098671733824e-08
7.69466961934029e-08
1.0026858036699e-07
1.26009132249983e-07
1.5380686125004e-07
1.83285211525544e-07
2.14068899290669e-07
2.45773867680963e-07
2.78012813791226e-07
3.10394935307925e-07
3.42531850382724e-07
3.74042876962756e-07
4.04562484374583e-07
4.33746641892867e-07
4.6128514534748e-07
4.86910379702537e-07
5.10388025051757e-07
5.31521918009233e-07
5.50023320332495e-07
5.65489694796917e-07
5.77658370588076e-07
5.86453688097348e-07
5.91855353120702e-07
5.93893867641772e-07
5.92647359355138e-07
5.88237281974939e-07
5.80824838226794e-07
5.70606082861607e-07
5.57806523523973e-07
5.42675631085142e-07
5.25480724989204e-07
5.06500449077471e-07
4.86018793682823e-07
4.64318972865794e-07
4.41677733073579e-07
4.18360727683584e-07
3.94618828459077e-07
3.706860764279e-07
3.46779364444458e-07
3.23098554311301e-07
2.99826845140993e-07
2.7712771958334e-07
2.55142133879968e-07
2.33986727551349e-07
2.13753234072485e-07
1.94509562811477e-07
1.76301980948965e-07
1.59158559656662e-07
1.43092820906217e-07
1.281083936329e-07
1.14201468262758e-07
1.01361849286829e-07
8.95739732690294e-08
7.88184935642272e-08
6.90732031579652e-08
6.03152505602324e-08
5.25273381746284e-08
4.56937225956366e-08
3.98169080117202e-08
3.48953334957741e-08
3.09377577759493e-08
2.80424142771274e-08
2.4506085362663e-08
2.05059058504615e-08
1.88088708528135e-08
1.98708887023368e-08
2.18325410134812e-08
2.24672689876229e-08
2.12731326700802e-08
1.73551956524789e-08
1.06235595268889e-08
3.06710918642233e-09
1.92751949616885e-10
1.02914175957554e-08
3.79284674929632e-08
8.20204124783352e-08
1.40002901982937e-07
2.19572723953182e-07
3.32767849471962e-07
5.72160767358822e-07
1.10752844917345e-06
2.48172265414851e-06
6.53058446702066e-06
2.04405466125827e-05
4.09983569256829e-05
2.37055864614376e-05
4.52669167861338e-06
5.14746315927247e-07
0.000143554900878427
7.94620793053402e-05
6.71590856976389e-06
7.06073482796368e-07
5.55065303635161e-07
3.00593537419764e-07
7.98045209641473e-08
1.73676074872363e-08
5.3704193003581e-09
2.60993429900124e-09
2.37400899394257e-09
3.06692551812848e-09
4.90273487563729e-09
8.87087027756472e-09
1.60728454669645e-08
2.69288862153872e-08
4.04533068791325e-08
5.34613574457823e-08
6.11510840090262e-08
5.96469070020404e-08
4.81590378408255e-08
3.06218378817367e-08
1.55080691124151e-08
7.33896072799704e-09
1.33588876932656e-08
7.81836425225874e-08
3.04985302577936e-07
7.94601223225807e-07
1.67776728850021e-06
3.00571936879975e-06
4.79945722238456e-06
7.02572567287875e-06
9.64086029705545e-06
1.25859320295579e-05
1.58049282291862e-05
1.92403734125069e-05
2.28387142130329e-05
2.65474516493279e-05
3.03164660161004e-05
3.40967792315034e-05
3.78411053519372e-05
4.15038247303316e-05
4.50416068170341e-05
4.84138624256772e-05
5.15834174878467e-05
5.45171382689826e-05
5.71872080539218e-05
5.95718286932534e-05
6.1653527913998e-05
6.34206455038955e-05
6.48456088108302e-05
6.58829132030378e-05
6.65325914119388e-05
6.67982385763563e-05
6.66888782395238e-05
6.62183276798883e-05
6.54046885460184e-05
6.42697653036791e-05
6.28385558103786e-05
6.11386643810696e-05
5.9199689688554e-05
5.70526258851878e-05
5.47292470984079e-05
5.22614824355154e-05
4.96808593442849e-05
4.70179698603535e-05
4.43019960070894e-05
4.15603469456703e-05
3.881839813558e-05
3.60993626028815e-05
3.34243061442499e-05
3.08121600464484e-05
2.82797463006734e-05
2.58415751409181e-05
2.35096769560863e-05
2.12935403084329e-05
1.92001532686448e-05
1.7234183535671e-05
1.53982326046048e-05
1.36931868137615e-05
1.2118550360772e-05
1.06728381997927e-05
9.35374289435777e-06
8.15831432678543e-06
7.08293424624019e-06
6.12367217609528e-06
5.27600207384497e-06
4.53557270154798e-06
3.89756742149611e-06
3.35798112731625e-06
2.91214265361274e-06
2.55661323200563e-06
2.28770091791084e-06
2.09198811997017e-06
1.92053895719103e-06
1.77874294947756e-06
1.71428325837956e-06
1.73801499219657e-06
1.77865919721103e-06
1.67478974263083e-06
1.3974775807283e-06
9.21182930807167e-07
3.52942742499809e-07
4.59404843528376e-08
6.69577512796047e-07
3.07775398274162e-06
7.56478646280603e-06
1.40010234906542e-05
2.21651542107945e-05
3.30866713664252e-05
4.84670779661134e-05
7.90509116384636e-05
0.00014316654059773
0.000296280671659357
0.000697802076439854
0.00182210590420149
0.00324061113003364
0.00239240562267671
0.000928169819358296
0.000257470568988337
0.00433721426160128
0.00210054438206587
0.000310347934416275
3.33845873393343e-06
7.79053684421377e-06
4.81368648484723e-06
1.40933765870101e-06
3.34409222871388e-07
1.08216844171314e-07
5.46783358402174e-08
5.03967408606469e-08
6.61614028901859e-08
1.05624291494281e-07
1.87056725215003e-07
3.29345508141342e-07
5.39474073449211e-07
8.02399912564261e-07
1.07356373255791e-06
1.29480056555483e-06
1.41776261226451e-06
1.39339731258854e-06
1.20991479986462e-06
9.20964416690819e-07
7.22214309663276e-07
1.09883670554431e-06
3.43291411310629e-06
9.88196509043923e-06
2.13346938286156e-05
3.87665808444056e-05
6.17682244190426e-05
8.95381891426686e-05
0.000120925793997066
0.000154904491361062
0.000190502896668611
0.000226932486924962
0.000263497522686254
0.000299620442888429
0.000334792395957328
0.000368575901168002
0.000400584947302335
0.000430485257881859
0.000457988951462059
0.000482855273443962
0.000504889092864272
0.000523941699578805
0.000539911104542393
0.000552747413248709
0.000562454505706784
0.000569128192423752
0.000572636093147221
0.000572771285779853
0.000569763727628166
0.000563773602680906
0.000554990019940433
0.000543624869309237
0.000529907527154229
0.000514080538029601
0.000496395355154449
0.000477108696304463
0.000456478864518742
0.000434762219823833
0.000412209984376582
0.0003890652421367
0.000365560140570959
0.000341913600993232
0.000318329337878402
0.000294994301368914
0.000272077733490384
0.000249730741548085
0.000228086411297868
0.00020726039988531
0.000187351344624543
0.000168441198014454
0.00015059488581711
0.000133860291678099
0.000118268812433914
0.000103836375370667
9.05649567621878e-05
7.84443238288951e-05
6.74539703740879e-05
5.75648434446328e-05
4.87409429456954e-05
4.09401211494772e-05
3.41147617645801e-05
2.82122310524592e-05
2.31758486617865e-05
1.89454497470195e-05
1.5458397352543e-05
1.26516157492992e-05
1.0460457985532e-05
8.82585093629167e-06
7.68489819071297e-06
6.99501262209289e-06
6.65126284650386e-06
7.13369063237079e-06
8.42806641876177e-06
8.81426550171403e-06
8.02343913952387e-06
6.81747974263981e-06
4.90294345021473e-06
2.5917464620935e-06
8.04846250079114e-07
2.08101530895715e-06
1.11135022781628e-05
3.46240538807448e-05
7.96545042369137e-05
0.00014781920692376
0.000239443840397482
0.000354781982822812
0.000506949467814875
0.000719048105098083
0.00110116980814175
0.00182384597971247
0.00333763498041217
0.00655616764987412
0.0127886538819327
0.0181403402732762
0.0173626462775412
0.0126740028118695
0.00701554128378646
0.0268209233678535
0.0143278154777458
0.00327419321025907
4.53554856168636e-05
3.44280503676403e-05
2.66474401005683e-05
8.81537657254148e-06
2.32828815634507e-06
7.98821557639312e-07
4.21010319328385e-07
3.93711358367298e-07
5.23680640398391e-07
8.31516564893596e-07
1.43566559389835e-06
2.44771986653891e-06
3.90800801501655e-06
5.74791839159515e-06
7.79808600859391e-06
9.90134822778581e-06
1.19708935167507e-05
1.36299463802081e-05
1.43407285362457e-05
1.35073707869222e-05
1.28837066897537e-05
1.76595543572722e-05
3.93173057602698e-05
8.77588899751907e-05
0.000155267823216751
0.000237389779914062
0.000326183159241658
0.00041558235302317
0.000501310489481578
0.000581069464069337
0.000653489738848883
0.000718009019958397
0.000774361206985887
0.000822557769713133
0.000862715356042123
0.000895057446279599
0.00091986332911567
0.000937468141582629
0.000948246832971067
0.000952609616799337
0.000950992819699605
0.000943854462237426
0.000931669342012543
0.000914944580742601
0.000894352378260375
0.000869944004983452
0.000842113153954367
0.000811456040856615
0.000778431283989338
0.000743480112229084
0.00070702123261852
0.00066944902976048
0.000631132436139769
0.000592414555367739
0.000553612441094438
0.000515017128767038
0.000476893692464821
0.000439481458634234
0.00040299449164386
0.000367622147003598
0.00033352976770392
0.000300859586842433
0.00026973166094675
0.000240244873169225
0.000212478027088145
0.000186490904439824
0.000162325363134385
0.000140006333067293
0.000119542749035275
0.0001009283385186
8.41422889818875e-05
6.91501391351535e-05
5.59048000336754e-05
4.43474958397845e-05
3.44085282556558e-05
2.60078629539887e-05
1.90554180728594e-05
1.34511701399256e-05
9.08497610536997e-06
5.83651554002893e-06
3.57464762596548e-06
2.1576842423956e-06
1.43315349319343e-06
1.23939976294975e-06
1.40809998115268e-06
1.76885090314325e-06
2.1642993734315e-06
2.45244646250061e-06
2.55028194167306e-06
2.3809683912411e-06
1.94517358592627e-06
5.30441153328538e-07
2.0779031143626e-07
6.00005114760894e-07
9.34698711261386e-08
8.88163923906523e-07
4.92673434146629e-06
1.5368720411661e-05
3.81984708556145e-05
8.2221620898693e-05
0.000158173572298725
0.000278872181362825
0.000455427847727551
0.000698760973482289
0.00102529194137679
0.00145550087800164
0.00203346156948863
0.00284017293672729
0.00409970139470503
0.00611115300590901
0.00946195172644768
0.014358850175659
0.0185535954769786
0.017226900622319
0.0220862685888733
0.033407082378545
0.0335084394851669
0.0532709945480081
0.0359896381799472
0.01298982520606
0.000778672757910644
6.49649025488274e-05
7.78653805823196e-05
3.05383217576115e-05
9.28024371371599e-06
3.43493145216067e-06
1.89208797722557e-06
1.79307074116892e-06
2.40207409814114e-06
3.76417536987516e-06
6.28577621410637e-06
1.02934934201552e-05
1.5876540198434e-05
2.28719710845839e-05
3.11126360073031e-05
4.07702562595027e-05
5.22653897209521e-05
6.45990683732103e-05
7.529288503214e-05
8.01361390535737e-05
8.50440563151577e-05
0.000106386324617147
0.000180960899144878
0.000309479330542861
0.000434744062241437
0.000540854191492316
0.000618891561075696
0.000670658328864621
0.000700974634822807
0.000715235873507305
0.000717517262209124
0.000710968386630019
0.000697766259976509
0.000679529883858049
0.00065743669386949
0.000632400551841311
0.000605141406259833
0.000576251346157398
0.000546226048779974
0.000515488218049507
0.000484402219703849
0.000453286533900346
0.000422428468838493
0.000392158172825578
0.000362588848991959
0.000333773554678937
0.000305835081530602
0.000278907907244713
0.000253090146920145
0.00022846238471119
0.000205088095161424
0.000183015977151379
0.000162281858186655
0.00014291032620774
0.000124916110847151
0.000108305256392092
9.30760428261229e-05
7.92198280385847e-05
6.67219346110474e-05
5.55623401721508e-05
4.57162707722335e-05
3.71547589151836e-05
2.98449848076701e-05
2.37504418135024e-05
1.88309981179434e-05
1.5042811434875e-05
1.23383114221867e-05
1.06663357455763e-05
9.97248848859945e-06
1.01996701463349e-05
1.1288064950942e-05
1.31747256243031e-05
1.57929335706421e-05
1.90712559241145e-05
2.29324898488707e-05
2.72925194401434e-05
3.20593618534364e-05
3.71322185166186e-05
4.24013817536085e-05
4.77478190186249e-05
5.30440069210904e-05
5.8152408918089e-05
6.29307877791424e-05
6.72270301011876e-05
7.09007106069333e-05
7.3805175211295e-05
7.58535467763498e-05
7.6929413165537e-05
7.70051798257452e-05
7.56246944078088e-05
7.20950723230849e-05
5.5887957026909e-05
3.2539565955062e-05
2.67921669632055e-05
3.84356526236843e-05
6.05563964936452e-05
9.5220680294445e-05
0.000148231899325765
0.000227392316270074
0.000339791507189623
0.000488760282221993
0.000679591397138174
0.000913749923811226
0.00122080030030597
0.00164373350988707
0.00223987910680813
0.00307199630577172
0.00425188231946459
0.00583049020521966
0.00781453663904437
0.0101267646256674
0.0116929902091648
0.00987445125827723
0.00465463241969033
0.00566579602716235
0.0298942383154779
0.0524278664383968
0.0555593810611396
0.0481658197078442
0.0265331157094696
0.00442614903885801
5.73772731564636e-05
0.000133890965825044
6.90404157009044e-05
2.55710502704124e-05
1.05002590436267e-05
6.06138539454771e-06
5.79730644535103e-06
7.74558795131591e-06
1.1831582202354e-05
1.88495779918453e-05
2.9190009761672e-05
4.26858877719576e-05
5.88973353217373e-05
7.81463479291811e-05
0.00010198359780305
0.000132004889361172
0.00016715951038166
0.000203358354761482
0.000232089957695373
0.00026168615684841
0.000304581497465985
0.000410184984015004
0.000535454044148774
0.000591379961851869
0.000593270737732328
0.000560834303490654
0.000513619415259571
0.000462605781719219
0.000413331202410123
0.000367774277780557
0.000326448403673452
0.00028917503639814
0.000255584008387249
0.000225270488643407
0.000197873676008935
0.00017309119192032
0.00015067796223969
0.000130436906199029
0.000112208169333957
9.58608685882963e-05
8.128686500321e-05
6.84016271383583e-05
5.71112941016969e-05
4.72633063876597e-05
3.87838694032495e-05
3.16127511781386e-05
2.56852955346502e-05
2.09343036867426e-05
1.72950016873733e-05
1.47041782538642e-05
1.31003868934574e-05
1.24238331606237e-05
1.26163471092685e-05
1.36213665732663e-05
1.53840298053195e-05
1.78512511283138e-05
2.09717448529791e-05
2.46961190631506e-05
2.89769112683316e-05
3.37684603955555e-05
3.90267584892922e-05
4.47092069281689e-05
5.07742129787022e-05
5.71807861998986e-05
6.38881428453722e-05
7.08553335530729e-05
7.80411702700575e-05
8.54041543666601e-05
9.29029569449614e-05
0.000100496344322792
0.000108142083569995
0.00011579555829897
0.000123408241406823
0.00013092638689195
0.000138289969006248
0.000145432285484054
0.000152279674392251
0.00015875284908594
0.000164768094948386
0.000170241301925903
0.000175088813585307
0.000179238408608103
0.000182628690968682
0.000185238734885678
0.000187081423489283
0.000188259513613364
0.000188878241173291
0.000189006232589508
0.000187806889038793
0.00018386080574973
0.000157987280069969
0.000114412865402734
0.000103085230669812
0.000129236544353093
0.000174811201605901
0.000240210476462856
0.000330926219952862
0.00045123818054235
0.000601822767973288
0.00077652176993405
0.000970871407289681
0.0011741244554031
0.00141726369200001
0.00174739013784665
0.00222853263316228
0.00291392084354283
0.00389555062890118
0.00507228496717924
0.00626308533902068
0.00727277723712754
0.00750537246243621
0.00645345244945466
0.00400425724837008
3.77797656376179e-05
0.013134716382903
0.0438441947178517
0.0426251233025188
0.0462461566982764
0.0366222420020987
0.0124831523705891
0.000296030648487033
0.000122075371436077
0.000105098121537168
5.19349833006071e-05
2.48091347187581e-05
1.51265851368939e-05
1.45133149264606e-05
1.90780999545375e-05
2.79329704432119e-05
4.165135099808e-05
5.96537793223753e-05
8.06374147106871e-05
0.000103779920183839
0.000130907069636587
0.000166346910199516
0.00021294103598548
0.000270697503932118
0.00033621827859274
0.000399399827301135
0.00046177614124068
0.000506293565175075
0.000558859795200633
0.000569865798656096
0.000505802734176965
0.000417905643243833
0.000332058927198651
0.000259356936693289
0.000200839496714384
0.000154673113249434
0.000118333446778163
8.96558681905612e-05
6.69489764364641e-05
4.89572881891718e-05
3.47593458961037e-05
2.36778268957052e-05
1.52106616603403e-05
8.97948266764024e-06
4.69320606544075e-06
2.12157841483205e-06
1.07688062415319e-06
1.40021804525447e-06
2.95119204085656e-06
5.61238477544511e-06
9.28780642431359e-06
1.38842070266742e-05
1.93106311762543e-05
2.5480033129581e-05
3.23106572859215e-05
3.97253765639231e-05
4.76513746102575e-05
5.60199907054318e-05
6.47664006496893e-05
7.38292859146639e-05
8.31505859150373e-05
9.26754428975444e-05
0.000102352376292234
0.000112133251787593
0.000121973232830717
0.000131830844667115
0.000141667726226018
0.0001514483069945
0.00016113956463678
0.000170710582036683
0.000180132149563023
0.000189376442899499
0.000198416465052518
0.000207225724454328
0.000215777610443689
0.000224046037630548
0.000232005973793686
0.00023963211146262
0.000246897131242129
0.000253769974480993
0.000260214514265105
0.000266188783054572
0.000271645082483806
0.000276530228669121
0.000280787877459418
0.000284362052323484
0.000287203802420961
0.000289275998325972
0.000290566800013974
0.000291098943537425
0.000290955931619688
0.000290303784080989
0.000289406576237849
0.000288586793615649
0.000288010467176679
0.000286581102333342
0.000282720697180795
0.000252840022432902
0.000198566305036753
0.00018451706770068
0.00022135594488454
0.000284505647917005
0.000373404801907079
0.000492745321719174
0.000644457841777442
0.000825143404985518
0.00102293414473299
0.00122609919163072
0.00141405550858526
0.00161054782721646
0.0018617474856615
0.00223017070665948
0.00276164567642899
0.00353381340974934
0.00445626300884097
0.00540541886013472
0.006434163418958
0.00755373485714092
0.00898555898101323
0.00846969270120092
0.00209294554430745
0.00396178539428334
0.026907271353924
0.0287782429379818
0.037279967880913
0.0406832887890099
0.0226774670196003
0.00190052289057376
3.13381849111593e-05
0.000105022662470655
7.74777170113581e-05
4.62579164274664e-05
3.03524973292741e-05
2.90612840891635e-05
3.70260376347487e-05
5.10269698621249e-05
6.98111743793432e-05
9.05707242907498e-05
0.000111160179399373
0.000132243476703729
0.000159091343273071
0.000199371109962297
0.000256552008339447
0.000330403626180637
0.000417504439368579
0.000504948593840573
0.000579903144281304
0.000593049215234078
0.000551503372056113
0.000457359857721827
0.000340852921174087
0.000240937911549016
0.000164946092077362
0.000110501661903072
7.22138283576421e-05
4.57212923383842e-05
2.77055399624636e-05
1.59012095372598e-05
8.73603053587635e-06
5.13063311142249e-06
4.32725818636461e-06
5.78759766919971e-06
9.11997277633038e-06
1.40321326645475e-05
2.0297568236205e-05
2.77333219877565e-05
3.61840535259651e-05
4.55137594554577e-05
5.56169534085953e-05
6.64179587656418e-05
7.7830359519389e-05
8.97616539455918e-05
0.000102123085986945
0.000114829971073893
0.000127801860553043
0.000140962395126818
0.00015423982525675
0.000167566929711792
0.000180880912929601
0.000194122947973932
0.000207237845246874
0.00022017395206399
0.000232883605490885
0.000245323142303814
0.000257452791360494
0.000269236911000198
0.000280643713860539
0.000291644849103278
0.000302215293132773
0.000312332950222681
0.000321978321403747
0.000331134255431174
0.000339785082488143
0.000347915830289478
0.000355510820613405
0.000362554698892981
0.000369034056749198
0.000374936030478182
0.000380246265180195
0.000384947015082213
0.000389015703884546
0.000392424339028843
0.000395139866447629
0.000397124574237209
0.000398338895576281
0.000398747684474816
0.000398329079030065
0.000397083684096897
0.000395048333391907
0.00039231637074434
0.000389054058597228
0.000385553314452213
0.000382197173309553
0.000379467592777884
0.00037760245942777
0.000375263589272508
0.00037091550597699
0.000338546048303823
0.000277871746390782
0.000262773445181627
0.000308412251676775
0.000386669112042778
0.000497002101750922
0.000643796107972971
0.00082859620768412
0.00104598945503131
0.00128000622012084
0.00151302764820249
0.00171636078951671
0.00190714782241016
0.00213504216346249
0.00246873110486672
0.00296098722388018
0.0037002630910941
0.00467252763817265
0.0058809438361271
0.00761166604104518
0.0101636299460061
0.0135390779860526
0.0134771017081867
0.00492516343253069
0.00154482077137318
0.0149848230908168
0.0190177986898229
0.0275304951207123
0.0399982389773808
0.0317510472494522
0.00599450643254054
2.56882798792127e-05
6.85654334157414e-05
8.25122913442112e-05
6.71592494749244e-05
4.89902560085798e-05
4.68043372289586e-05
5.71470897498833e-05
7.31675784217655e-05
9.07437484396511e-05
0.00010584365307936
0.000118391164892009
0.00013287461882863
0.000157605410909062
0.000201251123907159
0.0002662321546239
0.000350266498359451
0.000447516663624719
0.000539414488802627
0.000598868452832987
0.000563886641498897
0.000453357468302273
0.000322557414373834
0.000214169623569647
0.000137547115594531
8.681382876058e-05
5.51680564711508e-05
3.63756536550858e-05
2.65662739029632e-05
2.29801004275649e-05
2.38893119499172e-05
2.81037810239694e-05
3.48319416216356e-05
4.35174409336267e-05
5.3770366923247e-05
6.53069339557817e-05
7.79148028340367e-05
9.14248884751323e-05
0.000105694833351648
0.000120597125314231
0.000136021933304018
0.000151900275377919
0.000168160339931248
0.000184721989055598
0.000201497618500011
0.000218402439607129
0.000235353289319953
0.00025226847055401
0.00026907012461688
0.000285685512637405
0.000302046963578049
0.000318091992822523
0.000333762614841977
0.000349004845430335
0.000363768505281795
0.000378008001416983
0.000391682359868467
0.000404755039459349
0.000417194401722193
0.000428973414252868
0.000440069137816056
0.000450462811516628
0.000460139518738663
0.000469087941855137
0.000477300168669106
0.000484770391645674
0.000491493447183817
0.000497462347990571
0.000502669895704045
0.000507111893156071
0.000510785791417867
0.000513688350251138
0.000515813567349758
0.000517151041212306
0.000517685511784624
0.000517397268986465
0.00051626239967442
0.000514255619124299
0.000511359675069392
0.00050757634194465
0.000502940310092669
0.000497531889371268
0.00049150839859051
0.000485107087478024
0.000478727735457955
0.00047284505882727
0.000468052941365717
0.000464637112783547
0.000461001674128101
0.000455640389314771
0.000420858177000833
0.000355453988171923
0.000340376628904791
0.000394472730532078
0.000487519155704965
0.000619777170099606
0.000795809899133637
0.00101781807575922
0.00127939085589806
0.00156098393532925
0.00183943940326375
0.00207932005702856
0.002293662007275
0.00253942139895851
0.00289819899426122
0.0034399521045289
0.00428137925896967
0.00550141840976427
0.00723517742976453
0.00992666483283277
0.0139173752836095
0.0185020255149616
0.0179332164877194
0.00718597118553291
0.00136259131945779
0.00875738714653516
0.0130702743268471
0.0197616273856857
0.0366962638336254
0.0383818265897854
0.0122875144835197
0.000364632128089121
3.56794315145094e-05
6.23415993674876e-05
7.43843869673211e-05
6.29431427143543e-05
6.05234681473727e-05
7.06833094266144e-05
8.39293011537841e-05
9.45856189390161e-05
0.000100316499896387
0.000104911799244115
0.000115455037050751
0.000140445255345749
0.000187474255266302
0.000257439828538769
0.000345509423966168
0.000441857244179413
0.000521537019999095
0.000550827237917253
0.000476693991184238
0.000342811623470978
0.00022332241372859
0.000143072541058661
9.36796391486672e-05
6.5483269226119e-05
5.22272955634441e-05
4.84757919214307e-05
5.13642974802e-05
5.87366781852659e-05
6.93447433655861e-05
8.22931637628504e-05
9.70027901907265e-05
0.000113058165104819
0.000130172670243146
0.000148137350830083
0.000166795581094748
0.000186017651103139
0.000205688314669852
0.000225696917209051
0.000245959889181883
0.000266414983093545
0.000286994656576007
0.000307623122896502
0.000328216917315463
0.000348693440078802
0.000368968422942229
0.000388955837680966
0.000408573653086691
0.000427745915606361
0.00044640259647881
0.000464479897518207
0.000481919209073791
0.000498666342627878
0.000514671182467017
0.000529888855191398
0.000544279765531002
0.000557809297510298
0.000570448576111307
0.000582174146677443
0.000592967349755036
0.000602814657922387
0.000611707429945969
0.000619641782016278
0.000626618461006929
0.000632641007734039
0.000637713400861159
0.000641836165306838
0.000645008731731618
0.000647234782883239
0.000648521078733778
0.000648874795220698
0.000648301301428826
0.000646802261229343
0.000644375304629081
0.000641014351641837
0.00063670942100482
0.000631449051440416
0.000625233188031913
0.000618086434889223
0.000610076990055455
0.00060132733235795
0.000592056559197131
0.000582567236214093
0.000573356069616784
0.000564972003945194
0.000558085686342862
0.000553006778733713
0.000547855518818994
0.000541071194522648
0.000503524934116989
0.000434055378627385
0.000419799184954474
0.000482665034184675
0.000591034020664547
0.000746591430584028
0.000954272297654225
0.00121754243751952
0.00152938101715891
0.0018667476111029
0.00220091829679466
0.00249104578930012
0.00274872876304
0.0030408337399202
0.003466157398532
0.00411801011202293
0.00515155646459142
0.00674131732482728
0.00914526831508116
0.0128946300134679
0.0181990863211992
0.0233344334473012
0.0216367959103179
0.0088247223116119
0.00161773511427242
0.00576950692750282
0.00958557580239854
0.0143289639893113
0.0324879323990465
0.0424617759855601
0.0198747762171486
0.0013282517123727
3.37626450908965e-05
3.70283070267936e-05
6.23973273480114e-05
6.40253916950234e-05
6.30564332872835e-05
7.11600923518528e-05
7.92794131243872e-05
8.25751354255284e-05
8.16948358312917e-05
8.27261983196997e-05
9.27311169963082e-05
0.000119000477705063
0.000167951130967618
0.000239356205429495
0.000325911764910255
0.000413456878231854
0.000472595388145679
0.000473032360841527
0.000380730405192519
0.000256183988711534
0.000164503310210908
0.00011228335009638
8.57057841070016e-05
7.53135394728464e-05
7.65055436755281e-05
8.46801464710088e-05
9.78216393517532e-05
0.00011419995451117
0.000132914019514784
0.000153264486465028
0.000174816230966283
0.000197246778087726
0.000220340146451006
0.000243939855173376
0.000267929526452848
0.000292207477332959
0.000316676334888048
0.000341237197984738
0.00036582124571098
0.000390365981259453
0.000414809626530743
0.000439079285939682
0.000463094501050839
0.000486773325432363
0.00051002841772681
0.000532767066128664
0.000554901028065878
0.000576349546736558
0.000597038929231165
0.000616903014707617
0.000635881654400173
0.000653919566990941
0.000670965782525975
0.00068697527950847
0.000701909009959807
0.000715733444013406
0.000728421690173078
0.000739953148119251
0.000750312743311612
0.000759491575180074
0.000767486789880706
0.000774301615071836
0.000779945343763711
0.000784430887140386
0.000787771293346391
0.000789973982653488
0.000791043985262684
0.000790992035919342
0.000789833721252378
0.000787586466996124
0.000784267203995889
0.000779890159054706
0.000774466724857906
0.000768005591142731
0.000760511836917156
0.000751988479435789
0.000742453162108046
0.000731953913830498
0.000720593500932666
0.000708537306478082
0.000696066355292649
0.000683545948285124
0.000671562894394031
0.000660727684176862
0.000651761333072135
0.000644969848088805
0.000638160237114579
0.00062962185797125
0.000588848876383179
0.000515573232675219
0.000502766383221382
0.00057496014226501
0.000699539888981537
0.000880070368901406
0.00112182001788033
0.0014298973821993
0.00179680942922477
0.00219580564466314
0.0025925291906857
0.00294218706872236
0.00325763984783306
0.00361760154796222
0.00414079109919806
0.00494772115347221
0.00623841110143037
0.00828141252987646
0.0114447801331824
0.0162940556022081
0.0227594768185363
0.0278467359933094
0.0245807994145906
0.00995095295920855
0.0018535895432416
0.00430325083879094
0.00752565431401846
0.0107140714525208
0.028443688122923
0.0441376598049131
0.0268788641218916
0.00322508624035379
7.51436367446091e-05
2.74601712396924e-05
3.99537228755012e-05
5.16564719385525e-05
5.33932442889188e-05
5.95235445057403e-05
6.37032820358058e-05
6.30200232320262e-05
5.99891999578121e-05
6.07349548803871e-05
7.12990992643926e-05
9.80468793668087e-05
0.000146721163955144
0.000216286956516324
0.000297227298130007
0.000371933527395047
0.000410506671400794
0.000391441447567414
0.000299795896817523
0.000198975693164097
0.000135448848282684
0.000106401880138534
9.8071452714814e-05
0.000102046250563199
0.000115208804778626
0.000133532379509515
0.000155630307776851
0.000180045009392885
0.000206121536207301
0.000233287143402418
0.000261204955646286
0.000289614605336383
0.000318350733283419
0.000347296367079691
0.000376366974131529
0.000405482605463987
0.000434558164782242
0.000463499899578711
0.000492245367377803
0.00052073706111889
0.000548916537879578
0.00057671313898812
0.000604048571013641
0.000630840582315705
0.000656997427317945
0.000682417849872915
0.0007070058032821
0.000730674604613615
0.000753346033020921
0.000774950944292269
0.000795427147274356
0.000814717765799073
0.000832770414141125
0.00084953940059954
0.000864985731947144
0.000879076445369481
0.000891786161699949
0.000903096708979196
0.000912996177730039
0.000921479941826592
0.000928550687018624
0.000934218672398582
0.000938501901306328
0.000941423020257629
0.000943004468407164
0.000943260284491005
0.000942200325869067
0.000939841814166055
0.0009362089621962
0.000931329559362158
0.000925232589134748
0.000917945661133138
0.000909495217335568
0.000899906380600595
0.000889201034504874
0.000877397994459007
0.000864533776903649
0.00085068120353579
0.000835979573981576
0.000820639000480143
0.000805003828467043
0.000789501031700596
0.000774803185828614
0.000761571570035565
0.000750557666433808
0.000742030572673038
0.000733456701441572
0.000722887887916157
0.000678426777846136