/*--------------------------------*- C++ -*----------------------------------*\
  =========                 |
  \\      /  F ield         | OpenFOAM: The Open Source CFD Toolbox
   \\    /   O peration     | Website:  https://openfoam.org
    \\  /    A nd           | Version:  7
     \\/     M anipulation  |
\*---------------------------------------------------------------------------*/
FoamFile
{
    version     2.0;
    format      ascii;
    class       volSymmTensorField;
    location    "20000";
    object      tauij_B;
}
// * * * * * * * * * * * * * * * * * * * * * * * * * * * * * * * * * * * * * //

dimensions      [0 2 -2 0 0 0 0];

internalField   nonuniform List<symmTensor> 
15600
(
(3.98243481569785e-06 -2.51930713053278e-08 -1.07684368726333e-30 3.98293154668315e-06 -1.95914158270829e-33 3.98260566455012e-06)
(2.81269349650028e-06 -1.84636883758223e-08 2.43404106731824e-30 2.81718463341377e-06 1.4037753105639e-30 2.81495512301593e-06)
(1.16911953142965e-06 -1.69769480712683e-09 -7.44154158370685e-27 1.17044934082302e-06 -2.73587438076441e-26 1.16975831928407e-06)
(2.63671394933617e-07 4.52768216954637e-10 -3.26124221988446e-24 2.62143681283688e-07 -5.82916833140852e-24 2.62893906410906e-07)
(1.12626024449844e-07 7.98084747085891e-11 -1.77807631321829e-24 1.1192202736263e-07 -2.18765639488634e-24 1.12270379501424e-07)
(1.15588560398851e-07 1.18133512871923e-11 -6.25123163101223e-27 1.15087906009344e-07 -5.82437162782943e-27 1.15335756816075e-07)
(5.33400229563658e-08 -4.40708170285466e-12 5.42227969092124e-27 5.31703468728379e-08 5.96989990429715e-27 5.32543555526556e-08)
(2.01990718750206e-08 -2.45449760831667e-12 -1.22247516891065e-27 2.01505678350226e-08 -1.17067729000913e-27 2.01746371041326e-08)
(1.05514256575755e-08 -1.12695739347176e-12 1.44319941460802e-28 1.05312120421094e-08 -5.38893622057063e-30 1.05412569880751e-08)
(7.58813607646576e-09 -6.07032312730896e-13 -1.24821096037983e-27 7.57556320687323e-09 -1.19212632495608e-27 7.58183290110585e-09)
(7.82762336114154e-09 -5.06139397756825e-13 1.11065555343524e-29 7.81469442872203e-09 -1.86299324899656e-30 7.82115133895327e-09)
(9.71985024032112e-09 -5.40153511046123e-13 2.51802620170577e-27 9.70263873098825e-09 2.49327157297972e-27 9.71124721780757e-09)
(1.29386669924526e-08 -6.73735576097741e-13 -1.55334058621744e-27 1.29122085407354e-08 -1.50535125062898e-27 1.29254511436916e-08)
(1.80361021551812e-08 -9.08614109849079e-13 3.25159784587188e-27 1.79916109776132e-08 2.25148568288452e-27 1.80138717344304e-08)
(2.54454458404576e-08 -1.19837260270038e-12 -3.66079872107998e-27 2.53701880420685e-08 -3.58359097519028e-27 2.54078111718489e-08)
(3.54983736781922e-08 -7.24314091791571e-13 -1.28361600357488e-27 3.53767618225514e-08 1.59925488010146e-28 3.54375035839768e-08)
(4.84447975893014e-08 2.5949884734303e-12 -1.23099932928983e-26 4.82608894477161e-08 -1.26939978398233e-26 4.83527021325851e-08)
(6.43567235853345e-08 1.19121689055452e-11 -6.3244346331401e-29 6.41012506912134e-08 -7.71883560691502e-29 6.42287836790242e-08)
(8.3592677063352e-08 3.0495056577958e-11 1.27872978388912e-28 8.32741600431886e-08 1.57872873009928e-28 8.34332853850039e-08)
(1.04536142134695e-07 5.77282896954204e-11 3.89622697189367e-27 1.04194823500393e-07 -6.33848285677775e-28 1.04365758361183e-07)
(1.22151387527931e-07 7.99427333148199e-11 -1.73690758754898e-26 1.21861018053406e-07 -1.93988848579489e-26 1.22007122401859e-07)
(1.29476794049806e-07 7.36580728923674e-11 -3.3519892156729e-26 1.29309599044395e-07 -5.49560269755545e-26 1.29394583008596e-07)
(1.20559295147974e-07 3.82919966728032e-11 9.657122118042e-27 1.20511262885459e-07 -1.27019771555235e-27 1.20536945252005e-07)
(1.00633230760696e-07 -4.3034403739421e-12 -1.93674695762582e-27 1.0064131550402e-07 -1.30753715255561e-26 1.00637884337762e-07)
(9.74152090440415e-08 6.10186515336277e-12 -3.09800730674675e-27 9.73994760643137e-08 -2.83503073858783e-27 9.74079991312773e-08)
(1.35527756949918e-07 1.65810193482827e-10 5.76506630728645e-25 1.35489550263623e-07 -6.21425754850706e-26 1.35509525874353e-07)
(2.09118730333654e-07 5.38592408787989e-10 1.19894613562227e-24 2.09055967530501e-07 -3.76947003415913e-24 2.09088149160718e-07)
(2.9878957646393e-07 1.17090986483312e-09 -6.25658113910507e-25 2.98693402710544e-07 -4.0930215014118e-24 2.98743929185362e-07)
(4.06275829834266e-07 2.15609470304329e-09 -1.75640531594047e-24 4.06144405131009e-07 1.77770756033013e-25 4.06213272482248e-07)
(5.27604938704719e-07 3.48080504031673e-09 -2.72825529835522e-29 5.27442061755131e-07 -5.60900409680092e-28 5.27528388535353e-07)
(6.59707512395217e-07 5.1354194381412e-09 2.89720360365927e-24 6.59518228387603e-07 -2.65749865050152e-25 6.59619258383255e-07)
(7.99346855454149e-07 7.07110214451484e-09 7.64057715109681e-24 7.9913698508235e-07 -1.11758519923839e-23 7.99250243411307e-07)
(9.44452791041893e-07 9.24803464589156e-09 1.17218844879365e-24 9.44227346086323e-07 -1.02810893289523e-23 9.44350347116955e-07)
(1.09328323604266e-06 1.16213170297144e-08 -4.93909200464935e-24 1.09304644021029e-06 4.21790533742986e-25 1.09317726445327e-06)
(1.24476563157992e-06 1.41556172383671e-08 0 1.24452089969911e-06 0 1.24465787485627e-06)
(1.39802351135842e-06 1.68177192203323e-08 6.1679702425001e-40 1.39777369971816e-06 -4.68208678973173e-41 1.3979154497803e-06)
(1.55245958989159e-06 1.95799516166196e-08 1.02945367764962e-39 1.55220718186652e-06 -1.62683044406535e-39 1.552352441022e-06)
(1.70755391187724e-06 2.2416524208193e-08 -8.23600836750152e-24 1.70730119346645e-06 5.73093401717493e-25 1.70744877054973e-06)
(1.86287936284249e-06 2.53040209684964e-08 -2.32492845135782e-23 1.86262854290779e-06 2.24493936564542e-23 1.8627772367548e-06)
(2.01802634333994e-06 2.82198164998436e-08 -5.86552108872994e-24 2.0177796335981e-06 2.0041881411063e-23 2.01792820857179e-06)
(2.17260635850242e-06 3.11421084180745e-08 1.09237094573212e-23 2.17236600572995e-06 -6.89587081448143e-25 2.1725131712007e-06)
(2.32623385048858e-06 3.4049518085893e-08 -3.20172923674533e-28 2.32600214128467e-06 6.69565047412678e-29 2.32614655586372e-06)
(2.4785342761908e-06 3.6921266557734e-08 -3.33032581273468e-28 2.47831352246571e-06 -1.65463474799178e-27 2.47845380166184e-06)
(2.6291476040705e-06 3.97372977257142e-08 2.26611148900229e-28 2.62894011316474e-06 -1.90056085761527e-27 2.62907485140314e-06)
(2.77774617172249e-06 4.2478639902797e-08 3.72877233265198e-28 2.77755423703373e-06 1.9747818388263e-27 2.77768201496139e-06)
(2.92405690119165e-06 4.51277570547799e-08 1.87165377550688e-23 2.92388279294155e-06 -8.28779757880442e-25 2.92400218772971e-06)
(3.06791579272771e-06 4.76694772438199e-08 4.76691897608852e-23 3.06776173255179e-06 -4.22388487467903e-23 3.06787133634838e-06)
(3.20929312914131e-06 5.00915217205909e-08 8.19534193784498e-24 3.20916127282975e-06 -3.96001590138874e-23 3.20925969373994e-06)
(3.34819081956666e-06 5.23831195135463e-08 -2.2318232854761e-23 3.34808320059753e-06 8.43608719894615e-25 3.34816909077861e-06)
(3.48461985478519e-06 5.45349908365109e-08 6.1633361175902e-29 3.4845383421559e-06 6.44906907162362e-27 3.48461042850929e-06)
(3.61775956553252e-06 5.65259955561069e-08 -2.60375883750464e-28 3.6177058550629e-06 -1.60800646695763e-27 3.61776294921168e-06)
(3.74578560522104e-06 5.83206592134291e-08 2.78881027316412e-23 3.74576114837699e-06 -7.06063860917655e-25 3.74580218499121e-06)
(3.8674357319886e-06 5.98944308998267e-08 6.27515249928298e-23 3.8674416683354e-06 -5.88662431322051e-23 3.8674657457472e-06)
(3.98235157136618e-06 6.12388021010178e-08 4.11670538687327e-24 3.98238872404616e-06 -5.81088739663302e-23 3.98239511561536e-06)
(4.09022384963784e-06 6.23479194115935e-08 -3.15302341737851e-23 4.09029274021924e-06 6.00362619615941e-25 4.09028089005573e-06)
(4.19078323883863e-06 6.32183571154867e-08 -2.14632078317633e-28 4.19088409153648e-06 3.39430280897488e-30 4.19085361714999e-06)
(4.28379977498988e-06 6.38490489779348e-08 -1.02415546170144e-38 4.28393252306513e-06 1.3745331936788e-38 4.28388321374074e-06)
(4.36907973749928e-06 6.42411580488777e-08 3.62323708814361e-39 4.36924402537009e-06 7.18162601032843e-39 4.36917584436082e-06)
(4.44646912727826e-06 6.43980478024945e-08 7.53066295680546e-39 4.44666431836095e-06 -3.54050876080619e-41 4.44657740064569e-06)
(4.51585515852739e-06 6.43251757158053e-08 3.38123806655583e-39 4.51608034953711e-06 -8.06703610170721e-39 4.51597499579981e-06)
(4.57716614176681e-06 6.40299501316162e-08 7.29122406540805e-29 4.57742017844014e-06 2.30614384571638e-31 4.57729684811661e-06)
(4.6303729088336e-06 6.35215907890651e-08 1.09096871821988e-28 4.6306544073904e-06 7.03964896512617e-28 4.63051370836751e-06)
(4.67548890773014e-06 6.28109358073957e-08 -1.965520018455e-28 4.67579628378299e-06 7.43185083512879e-28 4.67563895706175e-06)
(4.71256610214616e-06 6.19101806152197e-08 -1.42044835140277e-28 4.71289759929252e-06 -1.4700152834123e-27 4.71272450414542e-06)
(4.74169233258202e-06 6.08326390771548e-08 1.55004883465579e-28 4.74204605489031e-06 1.9610619828746e-30 4.74185815122294e-06)
(4.76298542734032e-06 5.95924496485721e-08 0 4.76335937439869e-06 3.92846860908933e-27 4.76315770314481e-06)
(4.77658349592256e-06 5.82042549783028e-08 1.25250388681256e-43 4.77697559375989e-06 8.39646207558568e-29 4.77676125953772e-06)
(4.78263582689505e-06 5.66829242323466e-08 6.06342451762812e-42 4.78304395563808e-06 -4.06476295574635e-27 4.78281811052652e-06)
(4.78129303392162e-06 5.50433047733908e-08 -1.05178203999525e-38 4.78171504711836e-06 -2.99401663045448e-40 4.78147887814906e-06)
(4.77270049837307e-06 5.33000812685605e-08 -7.42976269967128e-28 4.77313422885079e-06 -2.34996227704353e-29 4.77288895390836e-06)
(4.75700495877381e-06 5.14678154298242e-08 1.28893920490169e-27 4.75744822246782e-06 1.85801079152194e-27 4.75719508467951e-06)
(4.73436297555178e-06 4.9561015871877e-08 -5.8109162485568e-23 4.73481356835577e-06 -2.2092421831967e-24 4.73455383853115e-06)
(4.70496522202978e-06 4.75942985103598e-08 -1.43430159942504e-22 4.70542095124094e-06 1.35159779163924e-22 4.7051559085046e-06)
(4.66903205801327e-06 4.55821035240051e-08 -5.17909936203797e-23 4.66949078574864e-06 2.99189312769732e-22 4.66922169311868e-06)
(4.6267937209959e-06 4.35383071110304e-08 9.12948563074776e-23 4.62725340065096e-06 1.65388050164479e-22 4.62698148439187e-06)
(4.5784655653961e-06 4.14758534496452e-08 5.77487215304368e-23 4.5789242690162e-06 2.72294299620615e-24 4.57865070191879e-06)
(4.52421481016175e-06 3.94064217940054e-08 1.38454510832405e-27 4.52467073548795e-06 2.07671113009326e-27 4.52439663253721e-06)
(4.46413069740688e-06 3.73402492708766e-08 1.33136692579069e-28 4.46458215942843e-06 -2.30194928740825e-27 4.4643085795246e-06)
(4.39818976076188e-06 3.52860488859637e-08 -6.09079828765881e-23 4.39863515721315e-06 -3.6386933168432e-24 4.39836312267619e-06)
(4.32623654757891e-06 3.32511512240474e-08 -7.83792923505688e-23 4.32667431807833e-06 1.59016398977552e-22 4.32640483197019e-06)
(4.24795518330372e-06 3.12416867018647e-08 4.16917359330003e-23 4.2483837364654e-06 1.87182384712301e-22 4.24811782593615e-06)
(4.16288603680898e-06 2.92631185421333e-08 5.7730636601641e-23 4.16330369954411e-06 3.86400332968772e-24 4.16304243443847e-06)
(4.07039725215607e-06 2.73204409307496e-08 -3.26063597123662e-27 4.07080220934227e-06 -1.47528064837309e-26 4.07054675220732e-06)
(3.96970884577851e-06 2.54184415246885e-08 1.48692056799934e-27 3.97009914238835e-06 1.08168685785551e-28 3.96985071066119e-06)
(3.85973492704931e-06 2.35613867217668e-08 -1.52186039431575e-27 3.86010831230052e-06 -1.20337440976546e-28 3.85986833558179e-06)
(3.73929333709765e-06 2.17539891862076e-08 -1.96526343625889e-28 3.73964738524e-06 -3.28651955165102e-26 3.73941730245328e-06)
(3.60661007495064e-06 2.0000160568053e-08 2.87069957826328e-27 3.60694176533558e-06 1.83241800035708e-26 3.60672351236537e-06)
(3.46031175529729e-06 1.83062532619019e-08 1.74497398609157e-28 3.4606180501595e-06 1.31880158715379e-26 3.46041327205501e-06)
(3.29803085670849e-06 1.66781530200999e-08 -1.31767658110418e-27 3.29830757460687e-06 -1.75101095272951e-26 3.29811910539259e-06)
(3.12016371989329e-06 1.5130206455129e-08 -1.30145571755327e-27 3.12040788753713e-06 3.31172879517411e-26 3.12023695757169e-06)
(2.92535302663569e-06 1.36757642813106e-08 1.10586230626568e-27 2.92555985992864e-06 -4.31396149463918e-26 2.92541031090338e-06)
(2.72238597836979e-06 1.23506022059279e-08 1.24274669592975e-27 2.72255711590577e-06 2.57975283597887e-26 2.72242710308492e-06)
(2.51686795234319e-06 1.11816462160506e-08 -1.05055811506409e-27 2.51700104888724e-06 -1.06330047627275e-28 2.51689265458359e-06)
(2.33726689691518e-06 1.02586882451225e-08 1.04098901603871e-27 2.33740383597696e-06 -1.30695462677498e-26 2.33729822474079e-06)
(2.16688065298015e-06 9.23359855260189e-09 -8.66553708365139e-28 2.1670748398129e-06 2.13348043422471e-26 2.16694002046243e-06)
(2.00083398282691e-06 8.07691842830088e-09 1.78784162186756e-25 2.00302423157976e-06 7.58906909349332e-25 2.00190979013444e-06)
(1.94158115065361e-06 6.99110499784075e-09 -5.57372116807236e-23 1.94772135310697e-06 -4.44797122708717e-24 1.94466342384542e-06)
(2.01749322161391e-06 6.08424131398551e-09 -1.17596490833252e-22 2.0271462387766e-06 1.70170936894601e-22 2.02235900790485e-06)
(2.19760011492173e-06 5.04726178330028e-09 -4.34917437943501e-23 2.21030159866072e-06 1.99951256140443e-22 2.20401475308073e-06)
(2.40225229526834e-06 3.7243653746403e-09 4.80275555658438e-23 2.41669466821386e-06 1.09914302811967e-23 2.40956584100231e-06)
(2.63403461088873e-06 2.37630111279615e-09 -2.36041388296407e-24 2.64881767892132e-06 3.18177708922435e-24 2.64154558489179e-06)
(2.91880981557828e-06 1.2302878478637e-09 -7.41296259782646e-25 2.93241713482953e-06 -8.77101359223621e-26 2.92575401273113e-06)
(3.24787977541033e-06 4.33661840303172e-10 2.9816673136176e-24 3.25858353387799e-06 -2.81643574020801e-24 3.25338205297546e-06)
(3.58954792590379e-06 -2.90093881564232e-11 -6.28772543139661e-24 3.59528479019971e-06 6.87749324911964e-24 3.59255747479999e-06)
(3.90067086102513e-06 -1.96059167295311e-10 -4.30852595517849e-24 3.89930523696706e-06 3.90152676509319e-24 3.90009736253982e-06)
(4.11850017518195e-06 -1.65759857429464e-10 2.98330341401169e-25 4.10826678278188e-06 3.39657995486905e-26 4.11343423666879e-06)
(4.15084067673521e-06 -3.5301091743024e-11 -2.77591426150023e-24 4.13193992820959e-06 2.39503679146381e-24 4.14138534744728e-06)
(4.07682219653926e-06 2.06075352148568e-10 1.98339896824961e-24 4.05054634131968e-06 -2.16309541863042e-24 4.06362077643879e-06)
(3.94241264078712e-06 5.83344963402575e-10 3.23064821549825e-26 3.91038006254188e-06 4.10016463614981e-28 3.92628948863268e-06)
(3.84189746618314e-06 1.10724031203358e-09 -4.49403564749391e-25 3.80454391731709e-06 7.71824338751228e-25 3.82305940234537e-06)
(3.81363021318311e-06 1.82125446995902e-09 -1.32678430243917e-24 3.77070259316394e-06 1.33107581751223e-24 3.79195648908833e-06)
(4.11253722715264e-06 2.8562673384926e-09 -2.92989287258509e-26 4.05794113097341e-06 -2.23865987703e-27 4.0848939702592e-06)
(4.75839725828359e-06 3.67440872369508e-09 -3.05823100761692e-24 4.68096949821714e-06 2.79110191155051e-24 4.71911357615092e-06)
(6.12961353229995e-06 2.89411288102427e-09 -1.61427479745932e-24 6.00232316067456e-06 1.27647903511159e-24 6.06489501502709e-06)
(8.92451484452655e-06 -6.74856186475087e-09 1.42052106671769e-24 8.67836299689043e-06 -1.54509915004532e-24 8.79917235176226e-06)
(1.46197443459399e-05 -6.74382745675791e-08 -1.23896608442489e-24 1.40633751408246e-05 1.79527174374366e-24 1.43359121480323e-05)
(1.71552790730778e-05 -2.54418498766405e-07 -1.7156936452388e-25 1.63569263240328e-05 2.26535425362179e-27 1.67484603319782e-05)
(1.09588511337115e-05 -2.67107363417085e-07 -1.13500479351948e-26 1.06342993601575e-05 -9.33218603901824e-29 1.07947835393617e-05)
(6.25967781433057e-06 -1.04648172817177e-07 -1.006292400474e-25 6.22096157568014e-06 2.18025987458251e-26 6.24000805401015e-06)
(4.21457863448339e-06 -2.94852383432849e-08 4.62585005986334e-27 4.2123309001189e-06 -3.3987984665096e-29 4.21339164647514e-06)
(0.000127717002629549 -6.59315793382402e-06 2.84306495417307e-28 0.00012762406968815 5.35083557063985e-31 0.000127650469390336)
(9.05676729529153e-05 -4.11098343490318e-06 -7.40004064016178e-25 9.12833372170112e-05 -8.17921005077574e-27 9.09335163644682e-05)
(3.80171552257209e-05 -7.27977813015228e-07 -3.55871730515435e-22 3.84458013407474e-05 -1.68915395518285e-24 3.82376525984358e-05)
(9.0130141305587e-06 3.96646050040247e-08 1.16341752669224e-23 8.80691178675088e-06 1.39346631052328e-21 8.91189156891245e-06)
(3.76293723457824e-06 1.25207752405463e-08 1.67693153286617e-22 3.64847347292266e-06 5.6535022690551e-22 3.70636944939831e-06)
(3.82092660860999e-06 2.76320377424964e-09 3.33957299437386e-23 3.73651596272537e-06 1.16734995365835e-24 3.77918658393526e-06)
(1.81834377379466e-06 -5.12384546323101e-10 8.99423755324753e-25 1.78799270779431e-06 3.44321931636698e-25 1.80330392915426e-06)
(6.97916692770973e-07 -3.66753879694245e-10 1.94759863193389e-25 6.88856600665964e-07 2.31191136333296e-25 6.93422507958865e-07)
(3.57390488019289e-07 -1.72482287582375e-10 -4.8011732416635e-26 3.53589626638893e-07 2.30601385025159e-27 3.55499287801586e-07)
(2.515204151223e-07 -9.59523650672954e-11 3.19458763479994e-26 2.491448019968e-07 6.65659835952804e-26 2.50336243078374e-07)
(2.54934117250446e-07 -8.72527651849438e-11 6.59757078351418e-26 2.52503620101507e-07 -4.22262838303569e-27 2.53720029613456e-07)
(3.14157234710647e-07 -1.02342153949027e-10 -4.62238052864902e-25 3.10909548105232e-07 -4.71627455745359e-25 3.12532677058485e-07)
(4.16770588896741e-07 -1.44529356682551e-10 -1.92378174763477e-25 4.11791437567507e-07 -1.38391235977817e-25 4.14278825141418e-07)
(5.80202328187444e-07 -2.15549110262432e-10 -1.25897053117178e-24 5.71924816805253e-07 -1.04888843219473e-24 5.76061683538267e-07)
(8.19115149475038e-07 -2.97567536924649e-10 -1.52657278660611e-24 8.0530429960034e-07 -1.27728809307044e-24 8.12213011853763e-07)
(1.14496011138445e-06 -2.1980991657461e-10 1.64438250446344e-25 1.12286740448775e-06 -1.76966782477533e-26 1.1339273991028e-06)
(1.56639003182491e-06 4.33812997996066e-10 4.28056610193414e-24 1.53313294850753e-06 4.80613003233213e-24 1.54979243022851e-06)
(2.08574269171922e-06 2.33619730848332e-09 3.75924611020599e-24 2.03936803569711e-06 3.58343891832209e-24 2.06260084966317e-06)
(2.71175952826766e-06 6.32069590817378e-09 -3.34730709491506e-27 2.65271576823176e-06 -7.71119292110059e-27 2.68226325185122e-06)
(3.39539990848454e-06 1.2747380272066e-08 -1.13508729053351e-24 3.32884530054496e-06 1.67240443488795e-25 3.3620853448074e-06)
(3.97270816090953e-06 1.97306632630965e-08 1.49612943211198e-24 3.910170056309e-06 3.56701459610804e-24 3.94130117953822e-06)
(4.21679928876776e-06 2.29823237929392e-08 1.40128881237488e-23 4.17164666105243e-06 2.50678817481475e-23 4.19395562804475e-06)
(3.93191501175306e-06 2.00903731148208e-08 -1.00279717866311e-24 3.90863312682814e-06 7.40325359826712e-26 3.92009754618936e-06)
(3.28211754552328e-06 1.41688344872375e-08 -1.35851921648352e-24 3.27201575833435e-06 -5.38190627202054e-24 3.27681582742773e-06)
(3.18102259976685e-06 1.90474916539144e-08 7.60718336739503e-25 3.16820102105436e-06 -1.43812958697339e-24 3.17457380684709e-06)
(4.42284393362159e-06 5.60908132708852e-08 -1.63786587610324e-22 4.4018498154419e-06 1.76758357869637e-23 4.41231361744392e-06)
(6.8115492964841e-06 1.38827471379732e-07 -2.96331871103608e-22 6.77731862023527e-06 -1.62326300252551e-21 6.79419382301806e-06)
(9.7223509454612e-06 2.68477111645593e-07 2.43615498647362e-22 9.67299075156104e-06 -2.41241494247488e-21 9.69753047860395e-06)
(1.32078794767372e-05 4.55391273777624e-07 4.65573254735195e-22 1.31433984722903e-05 -4.702421424539e-23 1.31751784907596e-05)
(1.71367299525952e-05 6.94958754579677e-07 6.26283876523845e-39 1.7060109220644e-05 -1.98970454964643e-26 1.70977833456277e-05)
(2.14101317304717e-05 9.82211395951696e-07 -7.56086312823433e-22 2.1324336596653e-05 6.93524069954334e-23 2.13662381427316e-05)
(2.59232579716466e-05 1.30822984056652e-06 -1.65177682188065e-21 2.58314770442282e-05 -6.34900840821857e-21 2.58760338563233e-05)
(3.06098459269924e-05 1.66579663571685e-06 1.24379158434557e-22 3.05146220967116e-05 -7.88952572325127e-21 3.05604978762471e-05)
(3.54138718010429e-05 2.04769960010017e-06 1.22656401376253e-21 3.53173227129999e-05 -1.04746599080514e-22 3.53634624930276e-05)
(4.03010877211735e-05 2.44833578002521e-06 0 4.02048621825195e-05 0 4.02504271901086e-05)
(4.52433906195581e-05 2.86262627870651e-06 -1.51587302681916e-37 4.51488458226609e-05 1.1506944415721e-38 4.51931684686858e-05)
(5.0221704401664e-05 3.28637089116165e-06 -1.87042347660011e-37 5.01299747039079e-05 -3.53715178471067e-25 5.01724990710276e-05)
(5.5219374886571e-05 3.71571059062507e-06 2.03265686421083e-21 5.51314658676822e-05 -1.406621777181e-22 5.51717124947736e-05)
(6.02227449569953e-05 4.14717300205948e-06 4.81527923476272e-21 6.01395793072624e-05 1.62422412870167e-20 6.01771149721392e-05)
(6.52187043909569e-05 4.57745058585887e-06 4.12123532907236e-22 6.51411587090925e-05 1.8641865738122e-20 6.51755808782168e-05)
(7.01948334328289e-05 5.00340565761452e-06 -2.60723133732519e-21 7.0123749889476e-05 1.64155388234222e-22 7.01546787158624e-05)
(7.5138812969401e-05 5.42201696702187e-06 1.31122466017615e-41 7.50750030368034e-05 -8.79011095108025e-27 7.51020798588312e-05)
(8.00386919840859e-05 5.83040530146821e-06 0 7.99829321089033e-05 -1.11701724834623e-26 8.00058203808321e-05)
(8.48829954982634e-05 6.2258454767335e-06 9.13462598516915e-40 8.48360213438192e-05 6.76598980436568e-25 8.48544094616941e-05)
(8.96612960994226e-05 6.60581408463605e-06 -6.19179235790749e-41 8.96238029615042e-05 -7.35301360768468e-25 8.96374030166522e-05)
(9.43649220373565e-05 6.96804138643426e-06 -4.49580058064588e-21 9.43375661922964e-05 1.99064209324892e-22 9.43461122878831e-05)
(9.89887163611864e-05 7.310645949273e-06 -9.84976034300239e-21 9.89721143205271e-05 -3.56000452064486e-20 9.89753594687932e-05)
(0.000103531860780576 7.63220029398516e-06 -2.7865667171204e-22 0.000103526578496881 -3.9177370576399e-20 0.000103524297277102)
(0.00010799455527834 7.93149153614221e-06 5.26371911589609e-21 0.000108001061135179 -1.99310151970335e-22 0.000107993080728671)
(0.000112377391639817 8.20759148243963e-06 1.789636322766e-25 0.00011239604036502 -5.13663737876325e-25 0.000112382252568238)
(0.000116642495881323 8.45703707181516e-06 -1.16999686967775e-25 0.000116673548806021 2.99078436965586e-25 0.000116653894390406)
(0.000120710140003504 8.6735853464572e-06 -6.65539448602328e-21 0.000120753725681577 1.68384599075528e-22 0.000120728207991517)
(0.000124571941850432 8.85646075921501e-06 -1.31120651402988e-20 0.000124628054262126 -5.23591744370937e-20 0.000124596737732922)
(0.000128217026017092 9.00496089358547e-06 9.1995055327267e-22 0.000128285540566241 -5.61240531658709e-20 0.000128248545241911)
(0.000131636029872499 9.11873961516192e-06 7.45473206202356e-21 0.00013171670995058 -1.41478376117835e-22 0.00013167420661379)
(0.000134820844807577 9.19777421588385e-06 1.59920919819828e-36 0.000134913348847946 -5.56740154840849e-25 0.000134865555244489)
(0.000137764588522266 9.24235066834423e-06 2.07166969322809e-36 0.000137868476499264 3.91964684409533e-25 0.000137815653353065)
(0.000140461517669405 9.2530422833991e-06 -1.04879932720019e-36 0.000140576256579953 -3.0689613562328e-25 0.000140518704646459)
(0.000142907127823289 9.2307002015857e-06 -1.79992775057735e-36 0.000143032098751102 1.06107895374965e-25 0.000142970154937708)
(0.000145098192558622 9.17643574390254e-06 -6.19767270836781e-37 0.000145232699484664 -7.16919265023622e-36 0.000145166732257563)
(0.000147032759640713 9.09159812692058e-06 9.53476278378226e-37 0.000147176038639976 0 0.000147106443410359)
(0.000148710188996075 8.97775266957318e-06 1.95400922675458e-40 0.000148861419166738 -1.28944978491387e-25 0.000148788612931544)
(0.000150131144643406 8.83665366027599e-06 -2.177448853023e-36 0.000150289460753161 -3.91946341610825e-25 0.000150213875872813)
(0.000151297468255166 8.67020936275499e-06 -1.19556484479498e-36 0.000151461973049901 5.27753991525353e-25 0.000151384051460105)
(0.000152212089826551 8.4804499445967e-06 8.08716205164689e-26 0.000152381867025362 1.27894567687124e-27 0.000152302054104745)
(0.000152878837564724 8.26949019841728e-06 5.84040633116597e-26 0.000153052964756321 2.64586828258506e-26 0.000152971703280721)
(0.000153302137650447 8.03948976039457e-06 -1.67048701515219e-25 0.000153479696992214 5.76966617948855e-25 0.000153397422320898)
(0.000153486729664212 7.7926195428729e-06 -5.71166333710372e-26 0.0001536668162521 -1.20686984869938e-24 0.000153583952614879)
(0.000153437365760525 7.53103339127688e-06 8.41127494855786e-26 0.000153619092065184 6.01213100805346e-25 0.000153536050720778)
(0.000153158625503247 7.25685229437965e-06 1.84234004075388e-25 0.000153341121256116 5.82714386870744e-27 0.000153258301154977)
(0.000152655123851991 6.97217061613627e-06 -2.75233242723978e-25 0.000152837535270179 6.53218094534068e-26 0.00015275532348247)
(0.000151931801489647 6.67906210513831e-06 1.43992861246015e-20 0.000152113291469218 5.4508147647404e-22 0.000152032064039605)
(0.000150994639016257 6.37959474914306e-06 3.41947159129211e-20 0.000151174398929745 1.0708543413418e-19 0.000151094515240222)
(0.000149850504237587 6.07579642778559e-06 1.00181426845325e-20 0.000150027769151255 2.13399470723792e-19 0.000149949564971814)
(0.000148506532372638 5.76960843982987e-06 -2.449071462901e-20 0.000148680592663372 1.05896590039805e-19 0.000148604374976819)
(0.00014696934764318 5.46284395509798e-06 -1.47113830846213e-20 0.000147139555954108 -6.98041070689333e-22 0.000147065599792552)
(0.000145244034638243 5.15715199518022e-06 6.88946241726148e-26 0.000145409804960758 1.4390972485321e-24 0.000145338354315741)
(0.00014333320088326 4.85400186414411e-06 3.48264924873215e-25 0.000143494000662586 -1.4011097483856e-24 0.00014342527216177)
(0.000141235911028948 4.55467911935585e-06 1.54911039237646e-20 0.000141391244449728 9.32505670387908e-22 0.000141325436025789)
(0.000138947061353426 4.26030999655113e-06 1.9095671195231e-20 0.000139096448450948 1.11146082630868e-19 0.000139033748612225)
(0.000136456530468524 3.97188857076028e-06 -1.17662473583662e-20 0.000136599478042534 1.07545846845902e-19 0.000136540080972029)
(0.000133749642934956 3.69034457456793e-06 -1.516909954597e-20 0.000133885622258719 -1.01011496583766e-21 0.000133829736578123)
(0.000130806322172493 3.41656329991961e-06 8.05621098172102e-39 0.000130934748712339 5.58411767818007e-24 0.00013088261100964)
(0.000127601646991571 3.15143339555391e-06 -1.17976053623477e-38 0.000127721869584457 -2.86253202514327e-24 0.000127673740802235)
(0.000124101266680842 2.89579140942899e-06 -4.03308213091256e-25 0.000124212525597277 -3.18906244425601e-26 0.000124168727892654)
(0.000120267218587942 2.65057712825423e-06 3.12110086850829e-25 0.00012036865383075 5.3520473160776e-24 0.000120329533336106)
(0.000116043700747338 2.41661341808279e-06 4.55078274727943e-25 0.000116134263360193 -2.60296308814941e-24 0.000116100294110132)
(0.000111385665720968 2.19509294125495e-06 -7.43453661937501e-25 0.000111464219026626 -2.49735014682442e-24 0.000111435838523838)
(0.000106219567692585 1.98697384209507e-06 6.69019411554858e-25 0.000106284716959584 -5.03949430681813e-26 0.000106262618753637)
(0.000100553097863495 1.79429879513196e-06 -2.44319050974186e-25 0.00010060369942942 1.89326348354464e-25 0.0001005882141832)
(9.43474463458995e-05 1.61837648824181e-06 -4.20926925679461e-25 9.43822751884738e-05 -5.96435613712227e-25 9.43741752306925e-05)
(8.78668474819611e-05 1.46317695102537e-06 6.6075236481192e-25 8.78864330934288e-05 5.1994615217839e-25 8.78850648024816e-05)
(8.12981597935787e-05 1.33111994184893e-06 -5.8194498300478e-25 8.13039690220759e-05 -5.98360846201218e-26 8.13087365192485e-05)
(7.54997218731165e-05 1.22665440466671e-06 2.35806879193672e-25 7.55073664306524e-05 2.07561913768065e-24 7.55117503040338e-05)
(6.99931155098363e-05 1.13140130651455e-06 1.69529754199406e-23 7.00233082638828e-05 -1.67820939073135e-24 7.00141499739857e-05)
(6.4728768879716e-05 1.04038509284415e-06 9.50999347535913e-24 6.5028580762754e-05 -1.1511310980619e-22 6.48800088755485e-05)
(6.28596646342827e-05 9.22381045590689e-07 1.50001476431176e-20 6.36829085978178e-05 1.37445089922556e-21 6.32685667371961e-05)
(6.53068889373672e-05 7.83082487609242e-07 -1.91233997426343e-20 6.65731060371662e-05 9.95297563196218e-20 6.59335460939624e-05)
(7.10677058970346e-05 6.12502905185378e-07 -5.67366867852647e-20 7.26871123961998e-05 8.60557815053412e-20 7.18657007948766e-05)
(7.76881284792748e-05 4.06575270337816e-07 -1.45448756693991e-20 7.94556856100992e-05 -1.72430746375181e-21 7.85560613409585e-05)
(8.52893340905678e-05 2.03281757245829e-07 3.19558323063958e-22 8.69873746101924e-05 -6.0332753858335e-22 8.61185447448432e-05)
(9.46613369668508e-05 3.24131403298421e-08 -5.99117660058877e-22 9.60581026419618e-05 7.2037506566086e-22 9.53367369276727e-05)
(0.000105483542497255 -8.65294698881188e-08 -1.02283850700484e-21 0.000106325012830858 1.24438235931452e-21 0.0001058802347252)
(0.000116724521591931 -1.53658225132288e-07 1.23472126433948e-21 0.000116727182945232 -1.16487216859395e-21 0.000116703887333009)
(0.000126981096205174 -1.72954824462777e-07 -1.37209288986532e-22 0.000125867181714669 1.34272008046857e-23 0.000126408453797013)
(0.000134227949005007 -1.5427717424101e-07 5.52621810217957e-22 0.000131792681815264 -6.48170697992277e-22 0.000133004108259641)
(0.000135651387878823 -1.09752533380592e-07 1.05871358570804e-21 0.000131959434103415 -1.03233872397083e-21 0.000133811385260226)
(0.000133699256794334 -4.42274225003722e-08 -9.51988717062886e-22 0.000128943866955801 9.17577768724677e-22 0.000131336410478462)
(0.000129837677028804 4.02839608105381e-08 5.35638895743804e-23 0.000124249721997059 4.06097684406653e-24 0.000127067747616994)