/*--------------------------------*- C++ -*----------------------------------*\
  =========                 |
  \\      /  F ield         | OpenFOAM: The Open Source CFD Toolbox
   \\    /   O peration     | Website:  https://openfoam.org
    \\  /    A nd           | Version:  7
     \\/     M anipulation  |
\*---------------------------------------------------------------------------*/
FoamFile
{
    version     2.0;
    format      ascii;
    class       volVectorField;
    location    "20000";
    object      U;
}
// * * * * * * * * * * * * * * * * * * * * * * * * * * * * * * * * * * * * * //

dimensions      [0 1 -1 0 0 0 0];

internalField   nonuniform List<vector> 
15600
(
(0.0250272290545211 -0.000218153323354129 0)
(0.0295783229418613 -0.00210529606684742 2.83443223802542e-23)
(0.00301828355373029 -0.00129128308556685 -2.77432138046509e-23)
(-0.0195273667551898 0.00983172587069565 0)
(-0.0162937485104417 0.0123811887169291 0)
(-0.0102724642383768 0.00941842044888956 1.67044572093171e-18)
(-0.0070269505015327 0.00713002579996725 1.82240651516399e-18)
(-0.00492107552202294 0.0052917606488928 1.97210873753628e-18)
(-0.00363774053897317 0.00399049503831578 0)
(-0.00290649811016536 0.00317934141500406 -2.31840198056291e-18)
(-0.00271955047692663 0.0029337503026802 -2.44863733671329e-21)
(-0.00275167117561086 0.00293511033824643 -2.66483278602077e-18)
(-0.00303341926814683 0.00319602785937587 2.83084377694004e-18)
(-0.00353351430092892 0.00367045040674606 -2.98364775245622e-18)
(-0.00411477101375914 0.00421698089484842 -6.27117618560577e-18)
(-0.00463522334675892 0.00464416092530824 -6.50321263263167e-21)
(-0.00500133881017962 0.00481507877621411 6.82792024692049e-21)
(-0.00510693623347152 0.00462912681737519 0)
(-0.00480047377685545 0.0039989445166016 -7.92482578009268e-21)
(-0.00406001812351792 0.00301138475649579 8.45775610957327e-21)
(-0.00294301630558758 0.00189168184311534 -4.67102979705092e-18)
(-0.0015019226352391 0.000846537058075615 4.97085048386361e-18)
(-0.000138524021327328 0.000162443048791845 1.01880034314493e-20)
(0.00111404758511295 -0.000163113048371924 -2.69872069872882e-18)
(0.000999051162309341 -2.50903240230979e-05 -6.75412639439197e-19)
(-0.00183904919311596 3.12880712602284e-05 1.00517868516113e-20)
(-0.00515308592165465 3.12348716099683e-05 -3.89331103384378e-16)
(-0.00851655415887283 5.10523162483721e-05 -3.94616678637655e-16)
(-0.012125799262556 6.41763917209429e-05 0)
(-0.0155442063118191 7.77140108658287e-05 1.01782202116991e-20)
(-0.0187477558500689 8.78312524512222e-05 7.85140472445421e-23)
(-0.0216497893119568 9.64728984001249e-05 -4.00858930053061e-16)
(-0.0242638859071405 0.000103190984103052 -4.1235620137532e-16)
(-0.0266001754297649 0.000108612449266054 0)
(-0.028687577753194 0.000112753629539299 0)
(-0.0305509331381778 0.000115830623725124 0)
(-0.0322151540037484 0.000117901470007545 -4.0269605018894e-32)
(-0.0337007352794141 0.000119058712799282 0)
(-0.0350251893521527 0.000119350402420504 4.4023554183491e-16)
(-0.0362025882418318 0.000118826573259282 4.58900689898911e-16)
(-0.0372444238687662 0.000117526098851466 -6.24783068692894e-21)
(-0.0381599915943726 0.000115488953640382 -1.97669186196618e-22)
(-0.0389569469703159 0.000112752755447062 6.4302068356725e-21)
(-0.0396417030018451 0.000109360173996671 6.84691430747038e-21)
(-0.0402197394269237 0.000105352316953521 -6.84139473324523e-21)
(-0.0406957158701849 0.000100769289308174 0)
(-0.0410736305744894 9.56539370275872e-05 -5.84209899823898e-16)
(-0.0413569921685953 9.00441606903824e-05 -6.08378889877223e-16)
(-0.0415490617852253 8.39739216727537e-05 2.51133379398121e-22)
(-0.0416531438003364 7.74772743975786e-05 -8.01826685120206e-21)
(-0.041672506336221 7.05983803309484e-05 4.26782455464998e-21)
(-0.0416104627519323 6.33921784485513e-05 -4.26782502586823e-21)
(-0.0414705210767322 5.59150649996879e-05 -6.79493969614857e-16)
(-0.041256318727291 4.82163382301334e-05 -7.03544845559212e-16)
(-0.0409715533352809 4.03408420578328e-05 -4.67420918184713e-21)
(-0.0406199401158787 3.23322515890248e-05 0)
(-0.0402052118085996 2.4231773552069e-05 1.46223588991418e-31)
(-0.0397311152821922 1.60795311377496e-05 7.51882510524243e-32)
(-0.0392014263951773 7.91389872076443e-06 0)
(-0.0386199419834919 -2.28906062581667e-07 -7.93810913076084e-32)
(-0.0379904758804491 -8.31466280038263e-06 0)
(-0.0373168543680051 -1.63113667605905e-05 -1.45380906067019e-21)
(-0.0366028958145804 -2.41899992344667e-05 -1.5249569040959e-21)
(-0.0358523889997549 -3.19241295767907e-05 2.98340921968291e-21)
(-0.0350690750413282 -3.94902598461564e-05 0)
(-0.0342566171405754 -4.68681497352693e-05 0)
(-0.0334185757771644 -5.40404423508276e-05 0)
(-0.0325583916824651 -6.09927042600854e-05 0)
(-0.0316793746182019 -6.77131985841093e-05 0)
(-0.0307847215884287 -7.41915007817233e-05 2.00761075606511e-31)
(-0.0298775455995406 -8.04191614970914e-05 1.42072367505161e-20)
(-0.0289609252325591 -8.63871469976133e-05 -2.87105585889072e-20)
(-0.0280379233709857 -9.20891979298269e-05 1.12018591881289e-15)
(-0.0271115208576611 -9.75222681347142e-05 2.27246528790581e-15)
(-0.0261845613808921 -0.000102686213457455 1.15114000923282e-15)
(-0.0252596991144556 -0.000107583757597863 1.53180612276997e-20)
(-0.0243393734791681 -0.000112218838506733 1.58221161656181e-20)
(-0.0234258117167378 -0.000116596671712642 -1.58440492832789e-20)
(-0.0225210795266335 -0.000120720840841366 1.63329517727026e-20)
(-0.0216271535999804 -0.000124595254977506 1.26384166722417e-15)
(-0.0207460618173607 -0.000128218684096007 1.26566727002958e-15)
(-0.0198800291147227 -0.000131590919719644 -6.78411710820407e-20)
(-0.0190316887408944 -0.000134702937041512 3.4184528856907e-20)
(-0.0182040268408199 -0.000137562044145768 0)
(-0.01740094118106 -0.00014013921185484 0)
(-0.0166267892276315 -0.000142471630528714 3.5984736680077e-20)
(-0.0158881380781882 -0.000144463971491214 3.95496226482746e-22)
(-0.0151915328729669 -0.000146262701353081 -3.64635121055374e-20)
(-0.0145493994992942 -0.000147548611128225 0)
(-0.0139704984373626 -0.000148857812685504 0)
(-0.0134782921441782 -0.000149215057378563 3.80678039476334e-20)
(-0.0130769160772448 -0.000150339631153693 -3.8095299595686e-20)
(-0.0127889534578758 -0.000149972606117787 0)
(-0.0126290402122987 -0.000154516976033955 0)
(-0.0121768948240212 -0.000159827688908594 -4.06857052563314e-20)
(-0.0113628217778389 -0.000801529959663218 3.98236137763827e-20)
(-0.0107344297938645 -0.00220985247430229 -1.02282253266331e-17)
(-0.0105446840308338 -0.0035425637986113 2.59806642276953e-15)
(-0.0102745765766052 -0.00470511173112518 2.3411325873877e-15)
(-0.00966292022655294 -0.00549495896204701 -3.34973838129546e-20)
(-0.00875652391353133 -0.00583864403226067 -1.746894905446e-17)
(-0.00745235916172369 -0.00554604887287793 -3.51173435829626e-22)
(-0.00569960687819548 -0.00449134641060293 1.58269504675348e-17)
(-0.00340204896748934 -0.00264355656415864 -1.51598317747216e-17)
(-0.000541334221708985 -5.74009678574806e-05 2.86661728882071e-20)
(0.00288070721891469 0.00316047838066077 -2.7402494781972e-20)
(0.0064631394475414 0.00658779303130884 -1.35130471676488e-17)
(0.0100331579431006 0.0100896431532105 1.28619266714476e-17)
(0.0135356787885669 0.0136784272444288 2.37025649766354e-20)
(0.0172747461160424 0.0176534001657743 1.13385550544839e-17)
(0.0213412023590511 0.0221833122182584 -1.04477381526399e-17)
(0.0271788838313578 0.0284744929515075 -4.69382592953804e-21)
(0.0360894960411054 0.037023122289901 -8.42381468284093e-18)
(0.0498420661758275 0.0482415997652805 -7.27058959620103e-18)
(0.0719052844453257 0.0625805671686745 5.79722020389346e-18)
(0.11026062145964 0.0793047800407955 -3.70943853175368e-18)
(0.161454210878029 0.0807572467198849 1.3796581616613e-22)
(0.156387496396779 0.0396527009609337 0)
(0.0763625717173509 0.00557879681609523 3.99747511042964e-19)
(0.0217550627046225 9.8351179773059e-05 -7.03204924107881e-23)
(0.0996941041183914 -0.000584996515779792 0)
(0.100511116020902 -0.00569899134153398 -4.08570080004645e-23)
(0.0284990326165835 -0.00490158757546288 4.93306928341819e-19)
(-0.0442299797832697 0.0257970119429311 5.59408001277668e-16)
(-0.0436264190592055 0.0347545834124442 5.97560500540769e-16)
(-0.0284642355728283 0.0270376632321199 1.61062970823666e-22)
(-0.0197408574641197 0.0207327499322651 -5.5739155212679e-18)
(-0.0141093107656019 0.0155805296520191 2.22016995559282e-21)
(-0.0106421432464666 0.0118685703592243 -3.20067906367542e-21)
(-0.00867347711265257 0.00954177939456358 7.13942565749534e-18)
(-0.00816467178281581 0.00882641900304995 3.76879303042317e-21)
(-0.00831804585167806 0.00885863730632895 -4.10294661321039e-18)
(-0.00914835040842605 0.00963969289899402 4.21327166122024e-21)
(-0.0105530111835495 0.0110196565322945 -8.93975202977718e-21)
(-0.0121558374852813 0.0125880226200087 9.57586424409444e-18)
(-0.0135950504987893 0.013803983696351 -9.77042132978495e-21)
(-0.0146401999763067 0.0142794724184523 5.31945663978019e-18)
(-0.0150438627873591 0.0137371158363235 2.22216359793369e-20)
(-0.0144725628144471 0.0119597360800671 -2.37956846155839e-20)
(-0.0128654024860614 0.00918494573204742 1.27391321374355e-20)
(-0.0103130833377042 0.0060135485255723 7.03552103108186e-18)
(-0.00691559604317509 0.00302735225878094 0)
(-0.00356744930055084 0.00097743794978042 0)
(-0.000646980528694057 -6.85543310545672e-06 4.11183537362808e-18)
(-0.00174094799085954 0.000461671364836877 1.02180399830752e-18)
(-0.0103126451896391 0.000699567933726121 4.80027920780028e-22)
(-0.0202935020390086 0.000731427912344469 5.77669892065744e-16)
(-0.0301384379540077 0.000786505724456579 5.4906132746999e-16)
(-0.0401682704493003 0.000774823361143539 0)
(-0.0494209532057254 0.00073151507187088 -5.09086818850443e-32)
(-0.0578691210896044 0.000668971085523954 2.51577978109574e-32)
(-0.065385902399397 0.000603120785429446 5.5000651310257e-16)
(-0.0720520110331523 0.00053927955462178 5.39068150660388e-16)
(-0.0779346117263187 0.000481159186695069 0)
(-0.0831293181051795 0.000429098568397873 0)
(-0.0877151893063552 0.000382975575943322 0)
(-0.0917645291910708 0.000341976721277488 5.2127928966096e-32)
(-0.0953355925826918 0.0003053274500127 0)
(-0.09847674681049 0.000272230292687167 -5.72511563254275e-16)
(-0.101226644174973 0.000242021521816172 -5.77340388164671e-16)
(-0.103616720544268 0.000214150508806186 0)
(-0.105672536556715 0.000188192089485413 0)
(-0.10741529777142 0.000163817762143335 0)
(-0.108862893415857 0.000140788060216449 0)
(-0.110030665462959 0.000118906480682908 0)
(-0.110931786514043 9.8013038236924e-05 0)
(-0.111577717412917 7.79836976700628e-05 7.39535320737272e-16)
(-0.111978684150705 5.87052588317868e-05 7.557627017495e-16)
(-0.112144317116211 4.01217942124145e-05 1.00443159405922e-20)
(-0.112084541134354 2.22250579777415e-05 -1.00373667197305e-20)
(-0.111809097173785 5.02518701162387e-06 -1.52982917062087e-31)
(-0.111327529271388 -1.14415112169048e-05 5.50328870341912e-21)
(-0.110650067545296 -2.71476502949544e-05 8.5385643740963e-16)
(-0.109786888963927 -4.20823306348611e-05 8.75889540868534e-16)
(-0.108748189749227 -5.62449900045772e-05 0)
(-0.107544111616423 -6.96361227790623e-05 0)
(-0.106184752574384 -8.22584343480376e-05 -1.83378763089519e-31)
(-0.10468016969836 -9.41114468463355e-05 -9.44239601853285e-32)
(-0.103040408258193 -0.000105194015079177 0)
(-0.101275488463355 -0.000115506053440054 1.00037750246046e-31)
(-0.0993953977493784 -0.000125047710688978 0)
(-0.0974100758085504 -0.000133820937983791 0)
(-0.095329371235934 -0.000141832351068324 0)
(-0.0931629957947201 -0.000149091691258688 2.23520307583579e-31)
(-0.0909204826600677 -0.000155613363712269 0)
(-0.0886111255397046 -0.000161417531366926 -8.18362868652766e-21)
(-0.0862439320990144 -0.000166528086884908 -1.74413615296496e-22)
(-0.0838275973725379 -0.00017097181727827 8.43274462581155e-21)
(-0.0813704997523694 -0.000174775530575434 0)
(-0.0788807547515874 -0.000177959576059632 -2.60462065673473e-31)
(-0.0763662932036104 -0.000180538840250269 -1.84989010594474e-20)
(-0.0738349552840508 -0.000182516787685439 3.75262047771112e-20)
(-0.0712945003896859 -0.000183903422547117 -1.45681692481673e-15)
(-0.0687524607457681 -0.000184720819425186 -2.99287086633942e-15)
(-0.0662160257128012 -0.00018500158100953 -1.53745846474219e-15)
(-0.0636919459195761 -0.000184787562023403 2.06690679135834e-20)
(-0.0611865031611578 -0.000184121863292421 -2.07844931628577e-20)
(-0.0587055553355859 -0.000183045398417733 2.15374467859703e-20)
(-0.0562546848241048 -0.000181583346565819 -6.55996150915136e-20)
(-0.0538394174997064 -0.000179746621651822 -1.68399678482149e-15)
(-0.0514655748421639 -0.000177508528528951 -1.74100080713215e-15)
(-0.0491396571089106 -0.000174822426763731 0)
(-0.0468692869419711 -0.000171592589045604 0)
(-0.0446633041591132 -0.000167747111684354 0)
(-0.0425328392590584 -0.000163055634423812 0)
(-0.0404909403282328 -0.000157448816483347 4.98878853731263e-20)
(-0.0385556874462219 -0.000150343931615075 -5.01613299404622e-20)
(-0.0367471414931076 -0.000141858250568976 0)
(-0.0350973758726717 -0.000130442497166718 5.23282363748646e-20)
(-0.0336348196526091 -0.000117368118090473 -1.05706382401644e-19)
(-0.0324150034386195 -9.88387179083824e-05 1.07251910968934e-19)
(-0.0314581560107555 -8.098812419919e-05 -5.41145341469564e-20)
(-0.0308215344541502 -5.80636276673343e-05 0)
(-0.030457876740616 -6.37942560638592e-05 5.59587571596283e-20)
(-0.0295957869199747 -0.000135120572523982 -5.59714614062271e-20)
(-0.0281342051203843 -0.00189980178206447 -3.66862009406284e-18)
(-0.0268307044975293 -0.0056740059334667 -5.77268701148331e-20)
(-0.0260560903794664 -0.00917319801104126 -3.65329634058204e-15)
(-0.0248323747893227 -0.0121559646433055 -3.49142805393062e-15)
(-0.0226767276766187 -0.0140614906678316 -2.67872189135486e-17)
(-0.0197160300328465 -0.0146792806217377 -4.98919297710641e-20)
(-0.015754525073586 -0.0135267122947986 0)
(-0.0107455689977449 -0.0103193762991162 0)
(-0.00451765415445058 -0.00502737368397186 -2.29033160726564e-17)
(0.00295659622313597 0.00218523026076277 -2.19471566359972e-17)
(0.0116438398454452 0.0110164243154276 0)
(0.0206848707848883 0.0204282357129502 0)
(0.0297398777439188 0.0301162853855186 -1.85435199640226e-20)
(0.0386850689273096 0.040134872296077 1.42251471442284e-22)
(0.0481953618039033 0.0512517943875949 -1.67089837487631e-17)
(0.0585546555509654 0.0639732483445371 0)
(0.0729620654287355 0.0812821252574866 0)
(0.094526340044077 0.104335500240969 -1.2139734088467e-17)
(0.127571741920535 0.133936071908389 2.66137688514411e-21)
(0.179583297897558 0.170298620490496 -9.89292190839975e-23)
(0.266508830607959 0.209513475958838 2.59243967881406e-22)
(0.384322011364521 0.211357060008315 -3.72977274025097e-22)
(0.407042250929277 0.115646384753021 4.57336203465199e-22)
(0.25890716551253 0.0245683708304196 -5.12199080100591e-19)
(0.116606223093757 0.00239413044279634 9.66206102890375e-23)
(0.2025309712702 0.000157170946949755 0)
(0.186459262152885 -0.00872499988107634 0)
(0.0738556394649738 -0.0113210714105581 -4.64747726594623e-19)
(-0.0552313507143092 0.0351667184847329 -5.55242826947688e-16)
(-0.0670771355520869 0.0531947647337007 -6.11704122862407e-16)
(-0.0455241570072666 0.0424229957806085 0)
(-0.0320097488664615 0.0330256517496233 7.84806882165686e-21)
(-0.0232118299541203 0.0252179602051295 -1.53952166251399e-21)
(-0.0177179113016472 0.0194779434823659 1.63118277642517e-21)
(-0.0145749715723282 0.0158821811517786 -3.68320004500761e-18)
(-0.0137340154044001 0.0147936792697006 -3.85343620077725e-21)
(-0.0140189802080455 0.0149427408890605 4.22668412758412e-18)
(-0.0153754654925182 0.0162767974853999 4.45013961546112e-18)
(-0.0176217615054546 0.0185191467407947 4.67093179823414e-18)
(-0.020164033797269 0.0210052905280056 -8.79736592852611e-23)
(-0.0224566862109693 0.0228969697402079 0)
(-0.0241606376647639 0.0236025795973914 -1.08265447496317e-17)
(-0.0249387136332879 0.0227211081295035 -5.77410885230371e-18)
(-0.0243713046366317 0.0199852594151205 1.3065497918163e-22)
(-0.0224057245498425 0.0157625345309316 -1.28088341893849e-20)
(-0.0191609402267159 0.0109097786459088 -7.06709875619235e-18)
(-0.0147599193542795 0.00627229226533711 -7.49209894985498e-18)
(-0.0103132647262061 0.00288096982074486 3.09333966038236e-20)
(-0.00673461688999896 0.00113265568808971 0)
(-0.00967865724367501 0.00171690692146118 0)
(-0.0240275706909663 0.00208472163471382 -1.47261497803667e-20)
(-0.0405827243462918 0.00217872607502281 1.41252362503989e-20)
(-0.0564282429632329 0.00223978319798603 0)
(-0.071849630512416 0.0021500440601055 -1.30046788793748e-20)
(-0.0856939689982101 0.00198284886784984 1.25925573502224e-20)
(-0.0980113121310587 0.00178325376668309 4.48548501262383e-32)
(-0.108758315939622 0.00158513663277136 1.22214322355812e-20)
(-0.11812332597302 0.00140110851537329 -1.19532086104276e-20)
(-0.126260197573945 0.00123691276571758 0)
(-0.133337463392344 0.00109194852625244 0)
(-0.13949007445688 0.000964391477580529 0)
(-0.144834346485487 0.000851461480837881 1.23517132368274e-20)
(-0.149462553051479 0.000750624762437986 -2.47036159750157e-20)
(-0.153449949428114 0.000659568789458697 1.23641098496398e-20)
(-0.156856609477164 0.000576413085691342 -1.29536691585975e-20)
(-0.159731454054702 0.000499656199305621 1.2820575348723e-20)
(-0.162114586877084 0.000428149600232817 0)
(-0.164039578425133 0.000361016799295957 6.91176744235216e-21)
(-0.165534988405871 0.000297604710713533 -6.8584350662985e-21)
(-0.166625462083269 0.000237381108051824 7.26251123163259e-21)
(-0.167332348584952 0.000179903354210806 2.36656276173477e-22)
(-0.167674375542902 0.000124791669604825 2.42596303928362e-22)
(-0.167668306125835 7.17645981641766e-05 2.48022376898094e-22)
(-0.167329714618639 2.08516092488735e-05 -7.82923000923399e-21)
(-0.166675324044673 -2.78139805268176e-05 0)
(-0.16572272710534 -7.42587111153204e-05 0)
(-0.164488455110192 -0.000118491640129285 -4.38131329955471e-21)
(-0.162988510791064 -0.000160471962546664 8.87180545822857e-21)
(-0.161238680510672 -0.000200191594600296 -4.49315310972748e-21)
(-0.159254502721177 -0.000237657995607071 -4.75669052422182e-21)
(-0.157051224058546 -0.000272880386715952 7.19737305053019e-21)
(-0.154643833085327 -0.000305870418681996 -4.95674927015927e-21)
(-0.152047083960407 -0.000336633199232547 3.80480216231474e-21)
(-0.149275537120747 -0.000365172875191157 -1.2924222811822e-21)
(-0.146343554606242 -0.000391496364267645 0)
(-0.14326529958257 -0.000415612557157425 0)
(-0.140054722514589 -0.000437536290898585 0)
(-0.136725517882536 -0.000457293695290035 2.95566955278213e-21)
(-0.133291080616308 -0.000474919567222579 -2.96604879683452e-21)
(-0.129764464317619 -0.000490460319399754 0)
(-0.126158323710791 -0.000503975117007723 0)
(-0.122484878697335 -0.000515530696940435 -6.56321372758457e-21)
(-0.118755905198091 -0.000525197707318143 1.33309988602124e-20)
(-0.114982759490978 -0.000533042761413768 -6.77131644900832e-21)
(-0.111176465706161 -0.00053911543357022 0)
(-0.107347820840546 -0.000543451000414422 1.45204495701789e-20)
(-0.103507495192943 -0.000546065620857948 -1.46181393765626e-20)
(-0.0996660115999053 -0.0005469946537512 0)
(-0.0958335738848928 -0.000546302669047842 0)
(-0.0920199478007564 -0.000544077316293891 -1.60009636638423e-20)
(-0.0882343799454882 -0.000540422593703602 1.61282333382254e-20)
(-0.0844856079467507 -0.000535438727635592 0)
(-0.0807819702869549 -0.000529209482299262 0)
(-0.0771316488520386 -0.000521771506616168 0)
(-0.0735430054121845 -0.000513110314029636 0)
(-0.0700250822769929 -0.000503114443522052 3.6756926476596e-20)
(-0.0665881255224528 -0.000491608085386052 -3.71065557233063e-20)
(-0.0632441789922221 -0.000478299299835367 -3.84347016066455e-20)
(-0.060007349488431 -0.000462897034565538 3.88234554577661e-20)
(-0.0568952149303018 -0.000444775907910198 0)
(-0.0539286649217456 -0.000423525461093427 -4.10705925483564e-20)
(-0.0511357871564248 -0.000397738746063037 4.1534943341623e-20)
(-0.0485486647381257 -0.00036716392958211 0)
(-0.0462152734830576 -0.000328537556993329 0)
(-0.0441809633811241 -0.000283706368361817 0)
(-0.0425242376458807 -0.000225833624731514 4.59681598067266e-20)
(-0.0412793790016757 -0.000166849075884186 -4.65904159032688e-20)
(-0.0405228804408466 -0.000102723772001479 0)
(-0.0401449992646026 -0.000106598071126707 -4.90309909708479e-20)
(-0.0393879125793865 -0.000251330303379208 4.78470866286861e-20)
(-0.0380986585289597 -0.00267705964570297 3.25835161190608e-18)
(-0.0365949338929709 -0.00783834605083703 0)
(-0.0351859523778327 -0.0125234443266722 0)
(-0.0329191792302979 -0.0163764751421649 0)
(-0.0293149774448014 -0.0185901997886581 0)
(-0.0245312471808678 -0.0188592740384476 0)
(-0.018292559217665 -0.0165337117287402 -2.23820599330083e-17)
(-0.0105539959500869 -0.0112729226356101 -2.16363663905095e-17)
(-0.00111743151885027 -0.00309702317992251 2.08938368137551e-17)
(0.0100430509948089 0.00774320042502895 -4.81403653602478e-21)
(0.0228480684353783 0.0208058886089813 1.91103278140627e-17)
(0.0361904629288554 0.0347850924341168 1.82379282595683e-17)
(0.0496597253439248 0.0493138453495875 -1.74692627066597e-17)
(0.0631079366814142 0.0645003578908451 1.61299284010725e-20)
(0.0774518199062331 0.0813536450858563 -2.41216648147682e-22)
(0.0931874052698655 0.10065870267888 -1.41954354998072e-20)
(0.114632067886832 0.126171061912563 1.2903052938607e-17)
(0.146116616109992 0.159232103043038 1.12935880339103e-17)
(0.193489685991349 0.200306957111672 0)
(0.265713776629714 0.247982725668236 0)
(0.379709032532935 0.293227595308207 -1.32928018056754e-22)
(0.530034011584296 0.288519800192918 -2.67739232426598e-19)
(0.590254033724673 0.172057022478553 -1.98324718295137e-22)
(0.443562835467889 0.0483683511571889 2.09237181450178e-22)
(0.254337870496491 0.0079506154187396 0)
(0.323065016226952 0.00278117668271707 8.21783892340634e-24)
(0.28479725505618 -0.0105201015435477 -8.3837257789742e-24)
(0.137613929478558 -0.0192713850216234 4.08138883970763e-19)
(-0.0498931483821161 0.0378993417601254 -3.55974694326459e-18)
(-0.0855227335696279 0.067761537296757 -3.85911269950416e-23)
(-0.0609874854814879 0.0555749920062951 3.71326313616105e-23)
(-0.0435594120790936 0.0439787025868121 5.78817391097011e-18)
(-0.032068440839285 0.0341701615700775 0)
(-0.0247765445509194 0.0267914619519107 -1.71456429680206e-21)
(-0.02056743276806 0.0221732592241109 1.84021437951473e-21)
(-0.0194056382837389 0.0208181003462067 0)
(-0.0198403914060677 0.0211676363628203 4.34200012565904e-18)
(-0.0217005815050404 0.0230827344353859 -9.13353964743477e-18)
(-0.0247150279721753 0.0261393319228386 -4.753431692939e-18)
(-0.0280969563216165 0.029436722306298 -9.91529726445913e-18)
(-0.0311588944976405 0.0318918687026308 5.17015242612241e-18)
(-0.0334913013258711 0.0327611720767061 5.47448811090387e-18)
(-0.0347265280048226 0.0315773766885296 5.7736712925662e-18)
(-0.0344510497697853 0.0280882938174331 6.12533895483952e-18)
(-0.0326679716590788 0.0227653665235418 -6.46626335818131e-18)
(-0.0295239041247961 0.0166117549452824 2.66847356190727e-20)
(-0.0251321456782251 0.0106157968847117 7.15642994656553e-18)
(-0.0206023626030912 0.00594415503059622 3.79477784899781e-18)
(-0.0174892298455208 0.00336938927644865 0)
(-0.0230682220782035 0.00382584125850879 0)
(-0.0428531628586217 0.00425301039662391 0)
(-0.0651784350565541 0.00441049511169299 0)
(-0.0856617953410862 0.004381116699937 0)
(-0.104587253391441 0.00410775422407562 -1.10816409606733e-20)
(-0.120949901360184 0.0037126952824605 2.11503761749028e-20)
(-0.135012628606069 0.00328758959464585 -1.01426678751189e-20)
(-0.146930281867627 0.00288389257185852 0)
(-0.157040272401075 0.00252003137837062 0)
(-0.165603922078934 0.00220060118192852 0)
(-0.172864562280838 0.00192169437747272 9.49241693174636e-21)
(-0.179010028532501 0.00167776026104938 2.16041770232178e-22)
(-0.184194401547602 0.00146264156105915 -9.20429707619392e-21)
(-0.188537792261465 0.00127098153755148 9.46595926084259e-21)
(-0.192136494038565 0.00109820759010297 -9.25631068373997e-21)
(-0.19506706239103 0.000940678449925314 9.6053040362357e-21)
(-0.197391685664979 0.000795551987756558 -9.4203298041679e-21)
(-0.199161430704509 0.000660665598492708 9.8386476996107e-21)
(-0.200419071878612 0.000534372648187987 3.11132871498933e-22)
(-0.201200979269657 0.000415426256724537 -9.82865994161633e-21)
(-0.201538450531404 0.000302802361740108 0)
(-0.201458530098995 0.000195631591999997 0)
(-0.200984757960839 9.32356559231147e-05 0)
(-0.200138093382654 -4.5750541380028e-06 0)
(-0.198942933698663 -9.77407029871949e-05 5.57902136496024e-21)
(-0.197420512660794 -0.000186352251206199 1.76143267257568e-22)
(-0.195590019874117 -0.00027050038187764 -5.63474431581336e-21)
(-0.193470429579131 -0.000350228223492835 -6.01127929585403e-16)
(-0.191080114499769 -0.000425560175610399 -6.18257524410036e-16)
(-0.188436914882998 -0.000496530293747137 0)
(-0.185558143305298 -0.000563194035806106 0)
(-0.182460599028919 -0.000625604787663203 0)
(-0.179160635608194 -0.000683814603925684 0)
(-0.175674215220618 -0.000737863044956236 0)
(-0.172016963890489 -0.000787786230762191 8.70033321152105e-22)
(-0.16820418357577 -0.000833622850106831 -8.68098688039616e-22)
(-0.164250866419281 -0.00087541381078658 0)
(-0.160171691835154 -0.000913208828356739 -1.86729716661433e-21)
(-0.155980995869853 -0.00094707401661437 3.77926807828702e-21)
(-0.151692743196786 -0.000977088308503185 -1.91331435598289e-21)
(-0.147320497961319 -0.00100334754711837 4.00934655748267e-21)
(-0.142877382970281 -0.00102596507780454 -4.01758018653145e-21)
(-0.13837606349913 -0.00104506287454875 0)
(-0.133828757504652 -0.00106076427212525 8.81401286738683e-16)
(-0.129247280333984 -0.00107318054300884 8.97349010981481e-16)
(-0.124643147033932 -0.00108239225594312 -9.02613885858578e-21)
(-0.120027677608045 -0.00108845506295532 -1.69520034113997e-22)
(-0.115412088871686 -0.00109139960263996 9.29492768070347e-21)
(-0.110807450374305 -0.00109128987313833 0)
(-0.106224521624672 -0.0010882360337636 0)
(-0.101673658975821 -0.00108238126719793 0)
(-0.0971647702110453 -0.00107388712250737 0)
(-0.092707370055077 -0.00106289916781582 0)
(-0.0883107371985012 -0.00104952181903646 0)
(-0.0839842128291728 -0.00103376875591655 0)
(-0.0797375908359529 -0.00101554906430269 -2.28766360681884e-20)
(-0.0755816854173257 -0.000994599647833186 -3.10895438514655e-22)
(-0.0715288972645487 -0.00097052788279401 -3.08207942174653e-22)
(-0.0675938966768022 -0.000942740799227726 -3.05596686476882e-22)
(-0.0637939596083882 -0.000910579773287809 -3.0308189661674e-22)
(-0.0601506057914121 -0.000872858768805952 2.55758677254713e-20)
(-0.0566894664903118 -0.000828553020902503 0)
(-0.0534447650193436 -0.000775190323063862 0)
(-0.0504556947611564 -0.000711641523280167 0)
(-0.0477798149539604 -0.000632741035782665 0)
(-0.0454720893958076 -0.000540053727551887 -2.98409269406554e-20)
(-0.0436249566384524 -0.000424329197360424 -2.9360974377471e-22)
(-0.0422810029955601 -0.00030264267287872 9.55292615934197e-20)
(-0.0415313441232732 -0.000175787482821339 -1.31801899122549e-19)
(-0.0412656959834375 -0.000159167520253398 6.78042398160324e-20)
(-0.0409663901989673 -0.00033093038095136 1.09727322056715e-21)
(-0.0403825806940893 -0.00291154251823132 0)
(-0.0389882471413877 -0.00844513948939985 0)
(-0.0369956274614507 -0.01334445885367 0)
(-0.0338211887574845 -0.0172014502827743 -1.8055199214873e-17)
(-0.0291078496215289 -0.0190836026078284 -1.76028266771943e-17)
(-0.0230022645490844 -0.0186377670751279 1.69421403850949e-17)
(-0.0151705943613264 -0.0151535495170584 -5.37626967875491e-21)
(-0.00556723494950893 -0.00829539928886453 1.57720383324734e-17)
(0.00599425712494248 0.00186658291300281 -1.51393887068059e-17)
(0.0195414214538402 0.0150450856397499 2.89325804932281e-17)
(0.0349660924398689 0.0307525743835841 -1.39320368040787e-17)
(0.0511580599287505 0.0477352660280094 -1.3574276911933e-17)
(0.067716189809987 0.065653025359954 1.32453867505252e-17)
(0.0845249582334163 0.0846792006021655 0)
(0.102578457443851 0.10585916933877 0)
(0.122548742029766 0.130137595338164 -5.56564821853892e-21)
(0.149106012024733 0.161138618723684 -1.04933486640981e-17)
(0.187193334920147 0.199958732574905 9.05259410192041e-18)
(0.243060788094133 0.246095966034593 -8.06042509952164e-22)
(0.325132395306825 0.295878398149984 7.13416187033887e-22)
(0.447300207483382 0.335514163395279 -2.71435363088322e-18)
(0.603306111251144 0.319432232788947 1.83815334661344e-19)
(0.692823206044981 0.2010941672275 -1.23145113489263e-22)
(0.58991440250558 0.0688586402850447 0)
(0.40271546234172 0.0159907987017395 0)
(0.434746747251848 0.00681689126339525 -6.87625321824136e-24)
(0.382169378307165 -0.0104980920038893 7.10429748710435e-24)
(0.213785643757017 -0.0271724356966036 -3.31656533271533e-19)
(-0.026735349753281 0.0342059017661427 3.15709589325405e-18)
(-0.0975965821622572 0.0782261530948074 0)
(-0.0744035329732694 0.0663975049788063 0)
(-0.0541680605826715 0.0535156338465268 -2.90117795469938e-18)
(-0.0405544785882508 0.0423886674910924 -7.71029380603048e-22)
(-0.031748990186068 0.0337773630768037 3.56278685946852e-18)
(-0.0266077749938947 0.0283840743046134 -5.72426299900739e-21)
(-0.0251508587073519 0.0268746539289658 -4.19781666709875e-18)
(-0.0257524589013726 0.0275015636192527 -8.88859167375504e-18)
(-0.0280855232110395 0.0300105017168666 -4.04532043248833e-22)
(-0.0317777767877561 0.0338136264762487 -4.80236578135006e-18)
(-0.0358764259911532 0.0377973050033966 9.92331435763775e-18)
(-0.0395960915412051 0.0406887625014528 -5.14115802354702e-18)
(-0.0424983065132416 0.0416480114275859 0)
(-0.0442424130336001 0.040199397995011 0)
(-0.0444938217490152 0.0361514898693826 2.05219381877489e-20)
(-0.0433444275871559 0.0300469530032761 5.99363257330842e-18)
(-0.0409791172249018 0.0229483020804403 -6.18808549796645e-18)
(-0.0375031565608201 0.0158909188912002 -2.50535296017269e-20)
(-0.0339573749542144 0.010100056307319 2.70592009336612e-20)
(-0.0324991762041847 0.00671663029631107 0)
(-0.0412037548896901 0.00677046458031738 0)