/*--------------------------------*- C++ -*----------------------------------*\
  =========                 |
  \\      /  F ield         | OpenFOAM: The Open Source CFD Toolbox
   \\    /   O peration     | Website:  https://openfoam.org
    \\  /    A nd           | Version:  7
     \\/     M anipulation  |
\*---------------------------------------------------------------------------*/
FoamFile
{
    version     2.0;
    format      ascii;
    class       volScalarField;
    location    "20000";
    object      walldist;
}
// * * * * * * * * * * * * * * * * * * * * * * * * * * * * * * * * * * * * * //

dimensions      [0 1 0 0 0 0 0];

internalField   nonuniform List<scalar> 
15600
(
0.00195545479209547
0.00195435739875591
0.00190710032762281
0.00176359171595482
0.00163231093289268
0.00158706365951107
0.00160268841281479
0.00165995874183543
0.00175191359166502
0.00187119531563509
0.00199265779205601
0.00210940144431134
0.00222094197678909
0.0023268886533714
0.0024281002167253
0.00253833318066752
0.00266774780758933
0.0028186726423008
0.00299420925087618
0.00319608070257329
0.00340761589879156
0.00360870659179986
0.00378058396448143
0.00389626921146698
0.00392632058283848
0.00391089177083206
0.00391090958419403
0.00391090958419403
0.00391090958419399
0.00391090958419403
0.003910909584194
0.00391090958419394
0.00391090958419391
0.003910909584194
0.00391090958419403
0.00391090958419391
0.00391090958419391
0.00391090958419397
0.00391090958419394
0.00391090958419394
0.00391090958419397
0.00391090958419406
0.00391090958419399
0.00391090958419417
0.00391090958419402
0.003910909584194
0.00391090958419386
0.00391090958419392
0.00391090958419397
0.00391090958419394
0.00391090958419391
0.00391090958419403
0.00391090958419397
0.00391090958419403
0.00391090958419403
0.00391090958419394
0.00391090958419397
0.00391090958419392
0.00391090958419397
0.00391090958419392
0.00391090958419389
0.00391090958419394
0.00391090958419382
0.00391090958419398
0.00391090958419418
0.00391090958419398
0.00391090958419406
0.00391090958419405
0.00391090958419399
0.00391090958419397
0.00391090958419391
0.00391090958419398
0.00391090958419398
0.00391090958419389
0.00391090958419391
0.00391090958419406
0.00391090958419408
0.003910909584194
0.00391090958419405
0.003910909584194
0.00391090958419394
0.00391090958419403
0.00391090958419392
0.00391090958419391
0.00391090958419398
0.00391090958419391
0.00391090958419409
0.00391090958419396
0.00391090958419394
0.00391090958419403
0.00391090958419403
0.00391090958419405
0.003910909584194
0.00391090958419394
0.00391089247740571
0.00392627035631528
0.00389650241402953
0.0037810312724307
0.0036092792546673
0.00340824588117019
0.0031967211435097
0.00299478520945687
0.00281917270274782
0.00266818162258856
0.0025387082221549
0.00242842510813223
0.00232721593273951
0.00222128615035381
0.0021097616979205
0.00199303297253141
0.00187158376666092
0.00175225823785739
0.00166020620460497
0.00160282633518902
0.00158705737393457
0.00163208585630514
0.00176311515153163
0.00190683250026134
0.0019543192699664
0.00195545479209569
0.00593824398857913
0.00595155414697512
0.00599719642541231
0.00608275167227218
0.00624222678629046
0.0064843556067018
0.00677917750603107
0.00710570728548655
0.0074513166456696
0.00780486700997738
0.00815345664762678
0.00849536408951375
0.00883164480770577
0.00916344825976863
0.00949211935317296
0.00982035117823551
0.0101473442335203
0.0104691170099679
0.0107806721822737
0.0110750088493713
0.0113417104133117
0.0115710007260388
0.0117535759779184
0.0118790836693127
0.0119380791719393
0.0119469742710018
0.0119429104875162
0.0119390109034264
0.0119352282717739
0.0119315627037893
0.0119280143073972
0.0119245831871971
0.0119212694444509
0.0119180731770664
0.0119149944795845
0.011912033443163
0.0119091901555662
0.0119064647011508
0.0119038571608517
0.011901367612172
0.0118989961291727
0.0118967427824584
0.0118946076391692
0.0118925907629706
0.011890692214043
0.0118889120490737
0.0118872503212483
0.011885707080242
0.0118842823722141
0.011882976239799
0.0118817887221004
0.0118807198546861
0.0118797696695828
0.0118789381952698
0.0118782254566767
0.0118776314751782
0.0118771562685915
0.011876799851174
0.0118765622336199
0.0118764434230601
0.01187644342306
0.01187656223362
0.011876799851174
0.0118771562685917
0.0118776314751783
0.0118782254566767
0.0118789381952698
0.0118797696695829
0.0118807198546865
0.0118817887221003
0.011882976239799
0.0118842823722142
0.0118857070802421
0.0118872503212482
0.0118889120490735
0.0118906922140428
0.0118925907629704
0.0118946076391692
0.0118967427824584
0.0118989961291728
0.0119013676121724
0.0119038571608517
0.0119064647011507
0.0119091901555662
0.0119120334431626
0.0119149944795843
0.0119180731770662
0.0119212694444502
0.0119245831871968
0.0119280143073969
0.0119315627037893
0.0119352282717732
0.0119390109034261
0.011942910487516
0.0119469723886655
0.0119381646304677
0.0118793699968426
0.0117540452879569
0.0115716220003037
0.0113424553850019
0.0110758507986715
0.0107815763616643
0.0104700605301903
0.0101483096564782
0.00982132537996145
0.00949309252716957
0.00916442732408917
0.00883263464442114
0.0084963678592498
0.00815447916268068
0.00780590942138292
0.00745235692863383
0.00710670715026967
0.00678010723598733
0.00648516580787465
0.00624283411493788
0.00608308685331357
0.00599738757802723
0.00595162507164882
0.00593824398857925
0.0100669239592491
0.0100909997527204
0.0101870000309007
0.0103857325120149
0.0107143144517952
0.0111581783875651
0.0116710759341498
0.0122241804931879
0.0128000207026238
0.013383711496935
0.0139604730519647
0.0145284845780774
0.0150891522079811
0.0156441006848743
0.0161951649362599
0.0167446989183433
0.0172901451469279
0.01782484378979
0.0183403193794894
0.0188247912337537
0.0192623139849316
0.0196377043634038
0.0199360038152762
0.0201408885212673
0.0202378230433106
0.0202533447187011
0.0202464519748835
0.0202398411288858
0.0202334285487889
0.0202272144231593
0.0202211989349564
0.0202153822615065
0.0202097645744744
0.020204346039841
0.0201991268178778
0.0201941070631235
0.0201892869243616
0.020184666544598
0.0201802460610403
0.0201760256050778
0.0201720053022622
0.0201681852722889
0.0201645656289776
0.0201611464802584
0.0201579279281538
0.0201549100687638
0.0201520929922523
0.0201494767828328
0.0201470615187566
0.0201448472723008
0.0201428341097573
0.020141022091423
0.0201394112715911
0.0201380016985425
0.020136793414539
0.0201357864558167
0.0201349808525813
0.0201343766290012
0.0201339738032077
0.0201337723872883
0.0201337723872884
0.0201339738032075
0.0201343766290014
0.0201349808525813
0.0201357864558168
0.020136793414539
0.0201380016985425
0.0201394112715912
0.0201410220914231
0.0201428341097572
0.0201448472723007
0.0201470615187566
0.0201494767828328
0.0201520929922522
0.0201549100687636
0.0201579279281537
0.0201611464802582
0.0201645656289775
0.020168185272289
0.0201720053022626
0.0201760256050779
0.0201802460610404
0.0201846665445978
0.0201892869243616
0.0201941070631235
0.0201991268178778
0.0202043460398406
0.0202097645744738
0.0202153822615057
0.0202211989349563
0.0202272144231585
0.0202334285487882
0.0202398411288858
0.0202464519748833
0.0202533413873575
0.0202379672837019
0.0201413569243816
0.0199367702779585
0.0196387205978523
0.0192635345741033
0.0188261736303842
0.0183418113264267
0.0178264069679638
0.0172917509286415
0.0167463250157486
0.0161967946008401
0.0156457379222375
0.01509080262003
0.014530152474663
0.0139621647578091
0.0133854288411221
0.0128017386791757
0.0122258526116606
0.0116726610408208
0.0111596102710439
0.0107154757667807
0.0103864895546519
0.0101874262690773
0.0100911381574275
0.0100669239592492
0.0143468492257321
0.0143821022396283
0.0145305223060888
0.0148471104468809
0.0153513988267881
0.016004491283866
0.016743402795398
0.0175312686016803
0.0183456357160008
0.0191677579880408
0.0199809336504361
0.0207832382988942
0.0215764369218313
0.0223626432026627
0.0231441966154457
0.0239230920940398
0.0246949461910886
0.0254503225039124
0.0261771392062856
0.0268586596418189
0.0274732103972205
0.0280000058811926
0.0284182275936596
0.0287053654204614
0.0288416118449557
0.0288640011382864
0.0288541758153254
0.0288447543861815
0.0288356155151445
0.0288267594709509
0.0288181865143443
0.0288098968980401
0.0288018908666872
0.0287941686568319
0.0287867304968852
0.0287795766070871
0.0287727071994759
0.0287661224778568
0.0287598226377702
0.0287538078664657
0.0287480783428726
0.0287426342375736
0.0287374757127803
0.028732602922308
0.0287280160115537
0.0287237151174743
0.0287197003685667
0.0287159718848478
0.0287125297778366
0.0287093741505389
0.0287065050974303
0.0287039227044429
0.0287016270489526
0.0286996181997666
0.0286978962171142
0.0286964611526378
0.0286953130493834
0.0286944519417964
0.028693877855715
0.0286935908083671
0.0286935908083671
0.0286938778557151
0.0286944519417964
0.0286953130493835
0.0286964611526377
0.0286978962171144
0.0286996181997666
0.0287016270489526
0.0287039227044429
0.0287065050974303
0.0287093741505388
0.0287125297778366
0.0287159718848478
0.0287197003685667
0.0287237151174743
0.0287280160115536
0.028732602922308
0.0287374757127805
0.0287426342375741
0.0287480783428728
0.0287538078664659
0.0287598226377702
0.0287661224778567
0.0287727071994761
0.0287795766070872
0.0287867304968851
0.0287941686568316
0.0288018908666866
0.0288098968980394
0.0288181865143435
0.0288267594709498
0.0288356155151439
0.0288447543861813
0.0288541758153254
0.0288639963054123
0.02884181699842
0.0287060224952725
0.0284193019849417
0.0280014314140912
0.0274749238809805
0.0268606021309816
0.026179240307881
0.0254525278945055
0.024697215647931
0.0239253938269178
0.023146506678295
0.0223649625576585
0.0215787719068709
0.0207855944047527
0.0199833187496744
0.0191701746104086
0.0183480557922524
0.0175336372111268
0.0167456669936317
0.0160065676256655
0.0153531351287184
0.0148483064378634
0.0145311934089021
0.0143823108158759
0.0143468492257324
0.0187835603201938
0.018830405868462
0.0190332396134053
0.0194721789399017
0.0201587422273064
0.021028759574018
0.0220019470328128
0.0230331368321416
0.0240947241510175
0.0251639672444692
0.0262221797499663
0.0272673297120937
0.0283015527096236
0.0293274681129957
0.0303479373443177
0.0313645807439821
0.0323711208233135
0.0333552428168769
0.0343011261232416
0.0351868961548553
0.0359849427042946
0.036668673639823
0.037211196561854
0.0375835897893991
0.0377605824511585
0.037790090362738
0.0377772250470615
0.0377648900751217
0.0377529250413588
0.0377413302976144
0.0377301061852667
0.0377192530351825
0.0377087711676673
0.0376986608924191
0.0376889225084831
0.0376795563042086
0.0376705625572056
0.0376619415343048
0.0376536934915177
0.037645818674
0.037638317316014
0.0376311896408942
0.0376244358610155
0.0376180561777608
0.0376120507814902
0.0376064198515138
0.0376011635560659
0.037596282052278
0.0375917754861563
0.0375876439925608
0.037583887695183
0.0375805067065293
0.0375775011279034
0.0375748710493919
0.0375726165498493
0.0375707376968872
0.0375692345468653
0.0375681071448798
0.0375673555247598
0.0375669797090604
0.0375669797090604
0.0375673555247597
0.0375681071448798
0.0375692345468654
0.0375707376968876
0.0375726165498493
0.0375748710493919
0.0375775011279034
0.0375805067065293
0.0375838876951829
0.0375876439925607
0.0375917754861563
0.0375962820522779
0.0376011635560657
0.0376064198515137
0.0376120507814902
0.0376180561777607
0.0376244358610157
0.0376311896408942
0.037638317316014
0.037645818674
0.0376536934915178
0.0376619415343049
0.0376705625572057
0.0376795563042086
0.0376889225084829
0.0376986608924191
0.0377087711676666
0.0377192530351819
0.0377301061852661
0.0377413302976133
0.0377529250413581
0.0377648900751218
0.0377772250470616
0.0377900839739278
0.0377608507412427
0.0375844424221683
0.0372125901244102
0.0366705234203214
0.035987167089036
0.0351894192026236
0.0343038586461299
0.0333581138975456
0.0323740782205895
0.0313675828162003
0.0303509526836446
0.0293304945187868
0.0283045972794911
0.027270399157732
0.0262252835422053
0.025167108639139
0.0240978719119052
0.02303622732105
0.0220049151026543
0.0210315039787752
0.0201610748051459
0.0194738304989729
0.0190341649453992
0.0188306872615326
0.0187835603201937
0.0233828007387425
0.0234416662138257
0.0237009410797185
0.0242667955278383
0.0251423703221316
0.0262372725169612
0.0274533095535247
0.0287367200281636
0.0300545639956721
0.0313799606518564
0.0326921695746558
0.0339890472600377
0.0352731128606788
0.0365475094605026
0.037815639080745
0.0390787326768761
0.040328548792841
0.0415497887970796
0.0427227561837428
0.0438202500033051
0.0448085062679294
0.0456549140915075
0.0463262850389654
0.0467870516648072
0.0470062805250185
0.047043167562099
0.0470271509064481
0.0470117956603675
0.0469969009335138
0.0469824671638787
0.0469684947764281
0.0469549841830432
0.0469419357824577
0.0469293499602007
0.0469172270885401
0.0469055675264285
0.04689437161945
0.0468836396997706
0.0468733720860869
0.0468635690835818
0.0468542309838781
0.0468453580649955
0.0468369505913085
0.0468290088135105
0.0468215329685714
0.0468145232797073
0.046807979956344
0.0468019031940884
0.0467962931746972
0.0467911500660504
0.0467864740221267
0.0467822651829798
0.046778523674719
0.0467752496094875
0.0467724430854489
0.0467701041867697
0.0467682329836085
0.0467668295321047
0.0467658938743698
0.0467654260384824
0.0467654260384823
0.0467658938743701
0.0467668295321046
0.0467682329836086
0.0467701041867698
0.0467724430854489
0.0467752496094875
0.0467785236747189
0.0467822651829799
0.0467864740221265
0.0467911500660501
0.0467962931746972
0.0468019031940883
0.0468079799563439
0.0468145232797072
0.0468215329685712
0.0468290088135101
0.0468369505913084
0.0468453580649955
0.046854230983878
0.0468635690835818
0.0468733720860869
0.0468836396997705
0.0468943716194501
0.0469055675264285
0.0469172270885401
0.0469293499602005
0.0469419357824575
0.0469549841830428
0.0469684947764276
0.0469824671638779
0.046996900933513
0.0470117956603675
0.0470271509064482
0.0470431595610018
0.0470066142606397
0.0467881070074428
0.046328009447134
0.0456572036398968
0.0448112602461096
0.043823374853154
0.0427261432364101
0.0415533499319174
0.0403322193105344
0.0390824607228342
0.0378193855117582
0.0365512687937117
0.0352768929798437
0.0339928561411078
0.0326960183424925
0.0313838533151098
0.0300584660386339
0.0287405587846028
0.0274570072350494
0.0262407094536682
0.0251453211187953
0.0242689195897776
0.0237021301364441
0.0234420231258935
0.0233828007387428
0.0281505243764302
0.0282218516075484
0.0285396539700149
0.0292371175092656
0.0303086595015653
0.0316366911780804
0.0331044689502439
0.0346493304132046
0.0362328079185137
0.0378237313637331
0.0393992325292073
0.0409570522388789
0.0425001069847804
0.0440320825022149
0.0455569409784113
0.0470755091696849
0.0485775094136493
0.0500445498504491
0.0514529159694363
0.0527698851987464
0.0539553146066595
0.0549703543668084
0.0557752896025741
0.0563276640672483
0.0565906748672224
0.0566352112017433
0.0566159277811615
0.0565974416197334
0.0565795098768224
0.0565621330797269
0.0565453117400633
0.0565290463536937
0.0565133374006536
0.0564981853450805
0.0564835906351481
0.0564695537029982
0.0564560749646799
0.0564431548200861
0.0564307936528968
0.0564189918305203
0.0564077497040414
0.0563970676081671
0.0563869458611786
0.0563773847648838
0.0563683846045722
0.0563599456489717
0.0563520681502114
0.0563447523437809
0.056337998448497
0.0563318066664712
0.0563261771830773
0.0563211101669264
0.0563166057698406
0.05631266412683
0.0563092853560724
0.0563064695588966
0.0563042168197662
0.0563025272062673
0.0563014007690983
0.0563008375420622
0.0563008375420623
0.0563014007690983
0.0563025272062674
0.0563042168197663
0.0563064695588967
0.0563092853560725
0.0563126641268302
0.0563166057698409
0.0563211101669265
0.0563261771830771
0.0563318066664711
0.056337998448497
0.0563447523437809
0.0563520681502114
0.0563599456489717
0.0563683846045719
0.0563773847648834
0.0563869458611786
0.0563970676081671
0.0564077497040415
0.0564189918305206
0.0564307936528968
0.0564431548200861
0.05645607496468
0.0564695537029982
0.056483590635148
0.0564981853450805
0.0565133374006532
0.0565290463536936
0.0565453117400629
0.0565621330797267
0.0565795098768223
0.0565974416197333
0.0566159277811617
0.0566352015299934
0.0565910764433768
0.0563289295388442
0.055777356966024
0.054973099781039
0.0539586175656884
0.0527736338830704
0.0514569815170147
0.0500488263062967
0.048581919164083
0.0470799897727451
0.0455614452719168
0.0440366015989766
0.0425046495828766
0.0409616276241153
0.0394038535396224
0.037828402788628
0.0362374918440528
0.034653944818325
0.0331089229463523
0.0316408460121398
0.0303122512159473
0.0292397315164356
0.0285411165126561
0.0282222868242161
0.0281505243764303
0.0330929032346107
0.0331771496615336
0.0335556351013251
0.0343895562102656
0.0356642629513544
0.0372339675253257
0.0389627044910269
0.0407785889816725
0.0426374248187034
0.0445035961468334
0.0463520296891356
0.048180346328644
0.0499918743089937
0.0517908617657077
0.0535818514446498
0.0553652507909244
0.0571286711672562
0.0588505141185528
0.0605028998463265
0.0620473817758637
0.0634372045120096
0.0646270509449538
0.0655704408498139
0.0662177771197601
0.0665261727900833
0.066578638548582
0.0665559687111379
0.0665342369400649
0.0665131569265977
0.0664927292906104
0.0664729546335446
0.0664538335383209
0.0664353665692539
0.0664175542719704
0.066400397173329
0.0663838957813431
0.0663680505851068
0.0663528620547227
0.0663383306412331
0.0663244567765524
0.0663112408734044
0.0662986833252614
0.0662867845062845
0.0662755447712703
0.0662649644555964
0.0662550438751713
0.06624578332639
0.0662371830860873
0.0662292434114975
0.0662219645402162
0.0662153466901639
0.0662093900595546
0.0662040948268657
0.0661994611508107
0.0661954891703162
0.0661921790045011
0.0661895307526586
0.0661875444942402
0.0661862202888458
0.0661855581762132
0.0661855581762132
0.0661862202888458
0.0661875444942404
0.0661895307526585
0.0661921790045012
0.0661954891703163
0.0661994611508106
0.0662040948268657
0.0662093900595546
0.0662153466901638
0.0662219645402163
0.0662292434114976
0.0662371830860873
0.06624578332639
0.0662550438751714
0.066264964455596
0.0662755447712701
0.0662867845062845
0.0662986833252614
0.0663112408734049
0.0663244567765525
0.0663383306412334
0.0663528620547231
0.0663680505851071
0.0663838957813431
0.0664003971733288
0.06641755427197
0.0664353665692533
0.0664538335383203
0.0664729546335441
0.0664927292906103
0.0665131569265972
0.066534236940065
0.0665559687111378
0.0665786271457288
0.0665266446901825
0.0662192604136252
0.0655728637254142
0.064630268916933
0.0634410765543087
0.062051777139173
0.0605076687366289
0.0588555320926301
0.0571338472240293
0.0553705115129448
0.053587141356782
0.0517961684507322
0.0499972073087544
0.0481857162864259
0.0463574512181041
0.044509074845852
0.0426429192518745
0.0407840074320874
0.0389679424920442
0.037238866551272
0.035668519091549
0.0343926781911546
0.0335573812099338
0.0331776660631123
0.0330929032346111
0.0382163354106575
0.0383139749236434
0.0387553741298806
0.0397307695998403
0.0412160953972106
0.0430363274946165
0.0450355806288772
0.0471324127405807
0.0492766903038763
0.0514281891379402
0.0530245602077353
0.0543374163500103
0.0556181445680377
0.0568391822302472
0.0579910050751513
0.0592747049565409
0.0610438658170701
0.063507070496827
0.0668048115920097
0.0711428283950647
0.0732664485348673
0.0746375033856442
0.075724418197828
0.076470193651826
0.0768256361436556
0.0768863217452812
0.0768601414573309
0.0768350451807513
0.0768107015666712
0.0767871113309342
0.0767642751680959
0.0767421937513247
0.0767208677323027
0.0767002977411297
0.0766804843862326
0.0766614282542757
0.0766431299100743
0.0766255898965123
0.076608808734461
0.0765927869227052
0.0765775249378661
0.0765630232343326
0.0765492822441937
0.0765363023771757
0.0765240840205786
0.0765126275392206
0.0765019332753838
0.0764920015487628
0.0764828326564169
0.076474426872726
0.0764667844493488
0.076459905615187
0.0764537905763498
0.0764484395161226
0.0764438525949407
0.0764400299503646
0.07643697169706
0.0764346779267798
0.0764331487083506
0.0764323840876624
0.0764323840876624
0.0764331487083504
0.0764346779267799
0.0764369716970602
0.0764400299503647
0.0764438525949405
0.0764484395161227
0.0764537905763498
0.076459905615187
0.0764667844493489
0.0764744268727259
0.076482832656417
0.0764920015487628
0.0765019332753838
0.0765126275392207
0.0765240840205784
0.0765363023771754
0.0765492822441938
0.076563023234333
0.0765775249378662
0.0765927869227056
0.0766088087344614
0.0766255898965123
0.0766431299100744
0.0766614282542757
0.0766804843862325
0.0767002977411293
0.0767208677323017
0.0767421937513237
0.0767642751680949
0.0767871113309334
0.0768107015666709
0.0768350451807512
0.0768601414573304
0.076886308548719
0.0768261809424269
0.0764719027443816
0.075727209604326
0.0746412112209862
0.0732709105017947
0.0711580230757322
0.0668166589702986
0.0635160251398552
0.0610506907823675
0.0592796941888415
0.0579950597415809
0.0568433084420055
0.0556225582428185
0.0543418932274544
0.053029089561063
0.0514345046746629
0.0492830249255901
0.0471386646796996
0.0450416313443774
0.0430419979700942
0.04122104032053
0.0397344182151855
0.0387574142331294
0.0383145754920336
0.0382163354106576
0.043527453380305
0.04363897705095
0.0441456001815878
0.0452676651589644
0.0469713333364557
0.0490512708850413
0.0513309477097941
0.0510194628071366
0.0510948792869893
0.0522121530416802
0.0539206312376677
0.0557190774609328
0.0574695466680071
0.0591433588537082
0.0607332975657794
0.062458941663134
0.0646961172655394
0.0676563701460152
0.0714757295209545
0.0763601082538126
0.082317691372938
0.0850146698196643
0.0862503659173344
0.0870981856314906
0.0875023979524764
0.0875716044732981
0.0875417851590866
0.0875132011256598
0.0874854743560574
0.0874586056656072
0.0874325958453917
0.0874074456621325
0.0873831558580789
0.0873597271508992
0.0873371602335764
0.0873154557743064
0.0872946144164001
0.0872746367781886
0.0872555234529316
0.0872372750087313
0.0872198919884485
0.0872033749096207
0.0871877242643866
0.0871729405194134
0.0871590241158271
0.0871459754691463
0.0871337949692216
0.0871224829801771
0.0871120398403562
0.0871024658622705
0.0870937613325537
0.0870859265119181
0.0870789616351172
0.0870728669109092
0.0870676425220254
0.0870632886251437
0.0870598053508656
0.0870571928036952
0.0870554510620243
0.0870545801781209
0.0870545801781209
0.0870554510620244
0.0870571928036951
0.0870598053508658
0.0870632886251439
0.0870676425220254
0.0870728669109092
0.0870789616351173
0.0870859265119183
0.0870937613325536
0.0871024658622705
0.0871120398403561
0.0871224829801771
0.0871337949692214
0.0871459754691462
0.0871590241158269
0.0871729405194132
0.0871877242643866
0.0872033749096207
0.0872198919884488
0.0872372750087316
0.0872555234529317
0.0872746367781887
0.0872946144164004
0.0873154557743064
0.0873371602335763
0.0873597271508989
0.0873831558580779
0.0874074456621314
0.0874325958453907
0.0874586056656067
0.0874854743560567
0.0875132011256597
0.0875417851590866
0.0875715894181895
0.0875030183191395
0.0871001287920901
0.0862535393514601
0.0850188854592073
0.0823371050993517
0.0763769401975072
0.0714891711273794
0.0676668891318299
0.0647044200713209
0.0624653210446852
0.0607387058327626
0.059148867178117
0.0574753830524373
0.0557250449936982
0.0539266989116162
0.0522174274678863
0.0510975420919116
0.0510185126270315
0.0513378409038582
0.0490577410660581
0.046976992285366
0.0452718597366799
0.0441479450781271
0.0436396648750075
0.0435274533803051
0.0490331325834159
0.0491590493618979
0.049733289805362
0.0510074063679007
0.0529374206145911
0.0552865770434164
0.0525320283871391
0.0515892623362561
0.0520424226793641
0.0536545159302432
0.0558984408758225
0.0582190309573926
0.0604700725168921
0.0626237892013279
0.0646764699131659
0.0668617267531614
0.0695695369652526
0.0730110669748394
0.0773176493822743
0.0826950306577702
0.0891446566772885
0.0957719834279442
0.0971619099852717
0.0981155112854767
0.0985702796696265
0.0986483192263006
0.0986147276016973
0.0985825280450512
0.098551294185396
0.0985210269411888
0.0984917272035734
0.0984633958362525
0.0984360336753611
0.0984096415293432
0.0983842201788357
0.0983597703765526
0.0983362928471756
0.0983137882872471
0.0982922573650669
0.0982717007205952
0.0982521189653569
0.0982335126823524
0.09821588242597
0.098199228721904
0.0981835520670769
0.0981688529295658
0.098155131748533
0.0981423889341591
0.0981306248675835
0.0981198399008471
0.0981100343568388
0.0981012085292485
0.0980933626825226
0.0980864970518236
0.0980806118429975
0.0980757072325398
0.0980717833675711
0.0980688403658137
0.0980668783155755
0.0980658972757355
0.0980658972757358
0.0980668783155757
0.0980688403658139
0.0980717833675711
0.09807570723254
0.0980806118429975
0.0980864970518235
0.0980933626825225
0.0981012085292485
0.0981100343568388
0.098119839900847
0.0981306248675835
0.0981423889341589
0.0981551317485331
0.0981688529295661
0.0981835520670766
0.0981992287219035
0.0982158824259697
0.0982335126823527
0.0982521189653572
0.0982717007205953
0.098292257365067
0.098313788287247
0.0983362928471758
0.0983597703765525
0.0983842201788358
0.098409641529343
0.0984360336753605
0.0984633958362514
0.0984917272035725
0.098521026941188
0.0985512941853954
0.0985825280450506
0.0986147276016969
0.0986483022455005
0.0985709783712674
0.098117697086847
0.0971654794388182
0.0957767254705041
0.089165551640437
0.0827133110596104
0.0773325457998964
0.0730230627895206
0.0695792838591103
0.0668695143429252
0.064683281936887
0.0626307397615212
0.0604773997430144
0.0582265716001549
0.0559061500913895
0.0536614033755094
0.0520464888902465
0.0515893310802608
0.0525274292490833
0.0552938762208461
0.052943819751739
0.0510121669336187
0.049735950681946
0.0491598276422128
0.049033132583416
0.0547405003242487
0.0548813377330399
0.0555256756425587
0.0569574208094181
0.0591220762943587
0.0565259024302314
0.053748329220191
0.0531082717360578
0.0540110269751835
0.0561605241288189
0.0589614026573273
0.0618177120555693
0.0645795924686148
0.0672219014848806
0.0697452243161346
0.072393105337861
0.0755632187151134
0.0794644812116909
0.0842239828359503
0.0900471218461177
0.0969317620227306
0.104610481904877
0.108473175646033
0.109536432880327
0.110043609065946
0.110130805216325
0.110093303116481
0.110057355589815
0.11002248616552
0.109988695868958
0.109955985695002
0.109924356607887
0.109893809541072
0.109864345397104
0.109835965047484
0.10980866933254
0.109782459061306
0.1097573350114
0.109733297928911
0.10971034852829
0.109688487492242
0.109667715471627
0.109648033085363
0.109629440920335
0.109611939531306
0.109595529440837
0.109580211139207
0.109565985084341
0.109552851701743
0.109540811384431
0.109529864492876
0.109520011354955
0.109511252265893
0.109503587488228
0.109497017251764
0.10949154175354
0.109487161157803
0.109483875595976
0.109481685166647
0.109480589935548
0.109480589935549
0.109481685166648
0.109483875595976
0.109487161157803
0.109491541753541
0.109497017251764
0.109503587488228
0.109511252265893
0.109520011354955
0.109529864492876
0.109540811384431
0.109552851701743
0.109565985084341
0.109580211139207
0.109595529440837
0.109611939531306
0.109629440920335
0.109648033085363
0.109667715471627
0.109688487492242
0.10971034852829
0.109733297928911
0.1097573350114
0.109782459061306
0.10980866933254
0.109835965047484
0.109864345397104
0.109893809541072
0.109924356607886
0.109955985695001
0.109988695868958
0.110022486165519
0.110057355589815
0.11009330311648
0.110130786240303
0.110044388971049
0.10953887020951
0.108477155623737
0.104634631434975
0.0969539537970025
0.0900666907355145
0.0842402066938699
0.0794778595034751
0.0755743530273876
0.0724022823747519
0.0697534444745575
0.0672303032008055
0.0645884218511261
0.0618268429189926
0.058970782937634
0.056169093681136
0.0540166469570926
0.0531095970841599
0.0537444616466863
0.0565148689823491
0.059129242737687
0.0569627681155823
0.0555286640908345
0.054882209786522
0.0547405003242488
0.0606569449977473
0.0608132498355141
0.0615302556019243
0.063125409177475
0.0648184442172373
0.0584488849490478
0.0558525949535257
0.0555978658173455
0.0570009169544676
0.059706871605313
0.0630654326355189
0.0664539403588138
0.0697227639856295
0.0728504319918658
0.0758420565745984
0.078947609844523
0.082567641712266
0.0869077609794902
0.0920912452655936
0.0983226911078449
0.105598133158617
0.113648239643848
0.120198805656365
0.121375735169885
0.121937238775919
0.122033926935861
0.121992371136559
0.121952538341191
0.121913900171298
0.121876457763065
0.121840212218892
0.121805164607232
0.121771315962433
0.121738667284589
0.121707219539396
0.121676973658006
0.121647930536894
0.121620091037726
0.121593455987228
0.12156802617707
0.121543802363745
0.121520785268459
0.121498975577025
0.121478373939758
0.121458980971382
0.121440797250935
0.121423823321688
0.12140805969106
0.121393506830542
0.121380165175632
0.12136803512576
0.12135711704424
0.121347411258209
0.121338918058576
0.121331637699984
0.121325570400771
0.121320716342931
0.121317075672097
0.121314648497509
0.121313434892004
0.121313434892004
0.121314648497509
0.121317075672097
0.121320716342932
0.121325570400771
0.121331637699985
0.121338918058576
0.121347411258209
0.121357117044241
0.12136803512576
0.121380165175632
0.121393506830542
0.12140805969106
0.121423823321688
0.121440797250935
0.121458980971382
0.121478373939758
0.121498975577025
0.121520785268459
0.121543802363745
0.12156802617707
0.121593455987228
0.121620091037726
0.121647930536895
0.121676973658006
0.121707219539396
0.121738667284589
0.121771315962432
0.121805164607232
0.121840212218892
0.121876457763064
0.121913900171297
0.121952538341191
0.121992371136559
0.122033905892617
0.121938102858047
0.121378433239653
0.120203211194548
0.113673482697951
0.105621478845459
0.0983434250054701
0.092108694329048
0.0869224387872292
0.0825801046004656
0.0789581419690889
0.0758516642716672
0.0728602635839849
0.069733071166479
0.0664646341126801
0.0630764586253223
0.059717126230562
0.0570081702851023