5 	0.00273779077457389 	1.38777878078145e-17 	-0.0298462993303276 	-0.000201141506883771 	-3.99612217114286e-23
5 	0.00831366561724399 	2.77555756156289e-17 	-0.0812089058715628 	-0.000264661803347466 	2.83450613430998e-20
5 	0.0140938010840031 	2.77555756156289e-17 	-0.118757126689864 	-0.000535249696256691 	-1.2976458833556e-23
5 	0.0200856798396764 	2.77555756156289e-17 	-0.139744720532128 	-0.00102985138995571 	4.765564702145e-21
5 	0.0262970586610136 	2.42861286636753e-17 	-0.147594640563915 	-0.00159891841169022 	1.75354952291195e-20
5 	0.0327359784782122 	2.42861286636753e-17 	-0.148850655906016 	-0.00220031938277237 	1.066427312387e-20
5 	0.0394107747842904 	2.42861286636753e-17 	-0.147459826184681 	-0.00283698188001385 	2.30026213284373e-21
5 	0.0463300884257855 	2.08166817117217e-17 	-0.14495499642352 	-0.00350933093629137 	4.3385162735741e-17
5 	0.0535028767887471 	1.73472347597681e-17 	-0.141890800766952 	-0.00421392247626941 	9.150847705332e-17
5 	0.0609384253945079 	1.38777878078145e-17 	-0.138487476453504 	-0.00494830959568964 	-5.68689623786275e-17
5 	0.0686463599202388 	1.04083408558608e-17 	-0.134840973799689 	-0.00571149068201708 	-3.93681750748911e-17
5 	0.0766366586598532 	6.93889390390723e-18 	-0.130994775454329 	-0.00650319251799019 	-2.99694190263755e-21
5 	0.0849196654413917 	1.04083408558608e-17 	-0.126967506127298 	-0.00732345561929963 	-2.12582971826916e-21
5 	0.0935061030176072 	1.73472347597681e-17 	-0.122764770258928 	-0.00817248338438296 	-1.56075110192485e-21
5 	0.0989609303011051 	1.56125112837913e-17 	-0.12008473373409 	-0.00871102887535639 	-1.43188738257499e-21
5 	0.103491473290936 	1.21430643318376e-17 	-0.117850942340534 	-0.0091572240054572 	-6.09178266190512e-22
5 	0.11163413998388 	6.93889390390723e-18 	-0.113824925907041 	-0.00995742490648877 	-6.11484694099968e-22
5 	0.121199206994262 	3.46944695195361e-18 	-0.109071133224825 	-0.0108942021048569 	-1.60041811184084e-21
5 	0.131114670419936 	1.04083408558608e-17 	-0.104111908130148 	-0.0118611850367807 	-5.60626535874106e-22
5 	0.141393366307709 	6.93889390390723e-18 	-0.0989329210577661 	-0.0128587829143013 	0
5 	0.152048600926373 	-3.46944695195361e-18 	-0.0935179374213858 	-0.0138873881316585 	-8.13149228061227e-22
5 	0.163094167992309 	-1.04083408558608e-17 	-0.0878488857861677 	-0.0149473622142265 	1.30524891142774e-21
5 	0.174544366526125 	-1.73472347597681e-17 	-0.0819058414070622 	-0.0160390216548756 	5.455221159661e-21
5 	0.186414019363427 	-2.42861286636753e-17 	-0.0756669517412397 	-0.0171626230240251 	-2.0256509651541e-21
5 	0.198718492343699 	-2.42861286636753e-17 	-0.0691083192102771 	-0.0183183468499498 	5.3809430533631e-21
5 	0.211473714202121 	-1.73472347597681e-17 	-0.0622038500749895 	-0.0195062798212082 	-3.31882692230222e-21
5 	0.224696197190089 	-1.38777878078145e-17 	-0.0549250745680749 	-0.0207263948842816 	8.56851115503399e-21
5 	0.238403058451124 	-1.73472347597681e-17 	-0.0472409412524186 	-0.0219785288082391 	8.2747751282266e-22
5 	0.25261204217984 	-1.90819582357449e-17 	-0.039117587320293 	-0.0232623567719947 	0
5 	0.267341542592663 	-1.73472347597681e-17 	-0.0305180858872001 	-0.0245773635007084 	0
5 	0.282610627740032 	-1.73472347597681e-17 	-0.0214021710827721 	-0.0259228104284729 	0
5 	0.298439064190913 	-2.16840434497101e-17 	-0.0117259418150636 	-0.0272976982931345 	3.65682446316855e-22
5 	0.31484734262158 	-2.94902990916057e-17 	-0.00144154549117469 	-0.0287007245471834 	5.0590671899409e-22
5 	0.331856704341784 	-3.16587034365767e-17 	0.00950315572689623 	-0.030130235950226 	-1.26159598546289e-20
5 	0.349489168792654 	-3.25260651745651e-17 	0.0211648979821802 	-0.0315841668428269 	8.82565627045424e-26
5 	0.367767562051934 	-2.77555756156289e-17 	0.0336279015936106 	-0.0330570416950244 	1.14561085169659e-22
5 	0.386715546383437 	-2.42861286636753e-17 	0.0469458401762076 	-0.0345476997181607 	2.47945053532416e-20
5 	0.406357650868994 	-3.12250225675825e-17 	0.0611897816454115 	-0.0360526786795191 	3.97233428558763e-22
5 	0.426719303162537 	-2.77555756156289e-17 	0.076439705979576 	-0.0375674217094632 	1.15344081638891e-21
5 	0.447826862407422 	-2.08166817117217e-17 	0.0927820883052867 	-0.0390865301229327 	1.499815530529e-21
5 	0.46970765335962 	-2.08166817117217e-17 	0.110310159920645 	-0.0406036476964664 	-1.6943757510099e-20
5 	0.49239000176093 	-2.08166817117217e-17 	0.129124084959279 	-0.042111322690819 	2.31102267658166e-21
5 	0.515903271008024 	-2.42861286636753e-17 	0.149331014155693 	-0.043600815006449 	3.29186725478304e-20
5 	0.540277900164783 	-2.42861286636753e-17 	0.171044967186867 	-0.045061956712188 	1.92120128456971e-20
5 	0.565545443367137 	-2.42861286636753e-17 	0.194386505441825 	-0.0464836892843335 	3.55767338013879e-21
5 	0.585354943477144 	-2.68882138776405e-17 	0.213256682294044 	-0.0475331101527415 	6.82797578516821e-21
5 	0.598687095456305 	-2.34187669256869e-17 	0.226234009955813 	-0.0482047096367089 	1.73130312495409e-21
5 	0.618891310399116 	-2.42861286636753e-17 	0.246390484649091 	-0.0491581757738425 	-1.13878232955925e-20
5 	0.647038693032828 	-3.46944695195361e-17 	0.275540194709011 	-0.0503619306659078 	-1.31669049306415e-20
5 	0.676217196720269 	-3.98986399474666e-17 	0.307559396156065 	-0.051431603976596 	4.4843062973462e-21
5 	0.70646459444521 	-3.29597460435593e-17 	0.343105235711839 	-0.0523280853607698 	-2.34549197402493e-21
5 	0.737820042926437 	-2.86229373536173e-17 	0.382378014339512 	-0.0530221889158036 	0
5 	0.770324133308009 	-2.94902990916057e-17 	0.425182348824075 	-0.0535038523016744 	0
5 	0.804018943706461 	-2.96529294174785e-17 	0.471185153680581 	-0.0537669772719951 	9.34244683681359e-22
5 	0.838948093682961 	-3.57244615833974e-17 	0.520180848999922 	-0.0537841644222241 	1.61071178842153e-19
5 	0.87515680071094 	-4.16333634234434e-17 	0.571954775935122 	-0.0535297438113586 	-4.20941838878377e-21
5 	0.912691938712296 	-3.46944695195361e-17 	0.62618799926347 	-0.0529972560625971 	-8.87393029718228e-21
5 	0.951602098737955 	-3.12250225675825e-17 	0.682581175375677 	-0.0521658753427837 	-6.41647388340971e-20
5 	0.991937651871333 	-4.16333634234434e-17 	0.740693874992834 	-0.0510206053013457 	-2.67868981553368e-20
5 	1.0280041084656 	-4.5102810375397e-17 	0.791889203303064 	-0.0497732843728339 	2.68240036623387e-20
5 	1.04928673654824 	-4.5102810375397e-17 	0.821695363142856 	-0.0489622152571235 	3.81904648006493e-20
5 	1.07709571559294 	-4.5102810375397e-17 	0.859572849827691 	-0.0477881503701756 	3.7423103950579e-20
5 	1.12202846741195 	-4.85722573273506e-17 	0.9187482283348 	-0.0457239916738095 	1.18444495641718e-19
5 	1.16860723751286 	-5.20417042793042e-17 	0.976275514893406 	-0.0433891154993644 	1.36111659805002e-19
5 	1.2168923243656 	-4.74880551548651e-17 	1.03085171337254 	-0.0408422211092957 	-1.34191239437654e-19
5 	1.26694623534961 	-4.40186082029115e-17 	1.08118314741411 	-0.0381462410132833 	-1.87009525677409e-23
5 	1.31883376767273 	-4.85722573273506e-17 	1.12636938787678 	-0.0353609931230276 	-5.32444725561749e-21
5 	1.37262209225426 	-4.85722573273506e-17 	1.16601817620285 	-0.032616537840202 	-1.94137048649845e-20
5 	1.41220272459524 	-4.85722573273506e-17 	1.19318637677273 	-0.0304375714866806 	-1.18057201236645e-20
5 	1.43617694926586 	-5.20417042793042e-17 	1.21062880986133 	-0.02898689748549 	0
5 	1.45930396367274 	-4.85722573273506e-17 	1.22502094140938 	-0.0277024714198816 	0
5 	1.48161370685419 	-4.85722573273506e-17 	1.23821140683457 	-0.0264577791958004 	0
5 	1.50313505985141 	-4.85722573273506e-17 	1.25028617739549 	-0.0252583677990684 	0
5 	1.52389588309638 	-4.85722573273506e-17 	1.26132663519 	-0.0241058966505508 	0
5 	1.54392305247857 	-4.85722573273506e-17 	1.27140866922574 	-0.0229999808564791 	0
5 	1.56324249413703 	-4.85722573273506e-17 	1.28060219432197 	-0.0219397214308292 	0
5 	1.58187921802306 	-4.85722573273506e-17 	1.28897095020055 	-0.0209238340366717 	0
5 	1.59985735027679 	-5.20417042793042e-17 	1.2965724994785 	-0.0199507180270405 	0
5 	1.61720016445966 	-5.20417042793042e-17 	1.30345835776119 	-0.0190185654302317 	0
5 	1.63393011168312 	-4.85722573273506e-17 	1.3096742011604 	-0.0181254513873764 	0
5 	1.65006884967273 	-4.85722573273506e-17 	1.31526011018485 	-0.0172693983156758 	0
5 	1.66563727080512 	-4.85722573273506e-17 	1.32025082018198 	-0.0164484215153816 	0
5 	1.68065552915414 	-5.55111512312578e-17 	1.32467595699146 	-0.0156605614520197 	0
5 	1.69514306658136 	-6.24500451351651e-17 	1.32856024274006 	-0.0149039059060533 	0
5 	1.70911863790442 	-6.24500451351651e-17 	1.33192366125819 	-0.0141766044709633 	0
5 	1.7226003351761 	-6.24500451351651e-17 	1.33478157585885 	-0.0134768774112002 	0
5 	1.73560561110536 	-6.24500451351651e-17 	1.33714479458004 	-0.0128030204686626 	0
5 	1.74815130165068 	-6.24500451351651e-17 	1.33901957981304 	-0.0121534068664064 	0
5 	1.76025364781502 	-6.24500451351651e-17 	1.34040760086255 	-0.0115264875050747 	0
5 	1.77192831667064 	-6.24500451351651e-17 	1.34130582975798 	-0.0109207901663727 	0
5 	1.78319042164083 	-6.24500451351651e-17 	1.34170638292313 	-0.0103349184155078 	0
5 	1.79405454206499 	-6.24500451351651e-17 	1.34159631452357 	-0.00976755082023562 	0
5 	1.80453474207227 	-6.24500451351651e-17 	1.34095737188736 	-0.00921744106794321 	0
5 	1.81464458878828 	-6.24500451351651e-17 	1.33976572978926 	-0.00868341955274678 	0
5 	1.8243971698984 	-6.24500451351651e-17 	1.33799172897717 	-0.00816439700724793 	0
5 	1.83380511059041 	-6.24500451351651e-17 	1.33559965524768 	-0.00765937074787143 	0
5 	1.84288058989839 	-6.24500451351651e-17 	1.33254760829082 	-0.00716743405960368 	0
5 	1.85163535646909 	-6.24500451351651e-17 	1.32878752319164 	-0.00668778912648743 	0
5 	1.86008074377113 	-6.24500451351651e-17 	1.3242654193485 	-0.0062197636710873 	0
5 	1.8682276847667 	-6.24500451351651e-17 	1.3189219574278 	-0.00576283105147415 	0
5 	1.8760867260648 	-6.24500451351651e-17 	1.31269337897765 	-0.0053166329469994 	0
5 	1.88366804157438 	-6.59194920871187e-17 	1.30551287887074 	-0.00488100295768006 	0
5 	1.8909814456749 	-6.93889390390723e-17 	1.29731241255222 	-0.00445598853778798 	0
5 	1.89803640592158 	-6.93889390390723e-17 	1.28802486738312 	-0.00404186787559175 	0
5 	1.90484205530155 	-6.93889390390723e-17 	1.27758643741139 	-0.00363915789800767 	0
5 	1.91140720405698 	-6.93889390390723e-17 	1.26593895049234 	-0.00324860979434681 	0
5 	1.91774035109035 	-6.93889390390723e-17 	1.25303182975826 	-0.00287118944906205 	0
5 	1.9238496949667 	-6.93889390390723e-17 	1.23882335147543 	-0.00250804206471233 	0
5 	1.92974314452705 	-7.28583859910259e-17 	1.2232809007866 	-0.00216044358782084 	0
5 	1.9354283291268 	-7.97972798949331e-17 	1.20638001881612 	-0.00182974478462878 	0
5 	1.9409126085123 	-8.32667268468867e-17 	1.18810215194923 	-0.00151730260667067 	0
5 	1.94620308234835 	-8.32667268468867e-17 	1.16843111775524 	-0.00122435516319622 	0
5 	1.95130659940914 	-8.32667268468867e-17 	1.14734834880384 	-0.000951893186149041 	0
5 	1.95622976644424 	-8.32667268468867e-17 	1.1248154573656 	-0.000701188773857271 	0
5 	1.96097895673142 	-8.32667268468867e-17 	1.10072440061045 	-0.000474505122544502 	-1.18008990785843e-15
5 	1.96556031832711 	-8.32667268468867e-17 	1.07492295957011 	-0.00027379143813181 	-1.10905365739725e-15
5 	1.96997978202541 	-8.32667268468867e-17 	1.0473114599941 	-0.000101343120169162 	1.32212312230497e-15
5 	1.97424306903575 	-8.32667268468867e-17 	1.01783212593406 	4.23581308201287e-05 	1.25108687184427e-15
5 	1.9783556983893 	-8.32667268468867e-17 	0.986386814380298 	0.000158242863475309 	0
5 	1.98232299408358 	-8.32667268468867e-17 	0.952777347040319 	0.000247627609757123 	0
5 	1.98615009197469 	-8.32667268468867e-17 	0.916673470946003 	0.000311930415166705 	0
5 	1.98984194642589 	-8.32667268468867e-17 	0.877588195133573 	0.000352711644412324 	0
5 	1.99340333672126 	-8.32667268468867e-17 	0.834848725185796 	0.000371736151796736 	0
5 	1.99683887325273 	-8.32667268468867e-17 	0.787554031256754 	0.000371040140730031 	0
5 	2.00015300348844 	-8.32667268468867e-17 	0.734479591316725 	0.000353126312061537 	0
5 	2.00335001773022 	-8.32667268468867e-17 	0.673912909972039 	0.00032107511769097 	0
5 	2.00643405466757 	-8.32667268468867e-17 	0.603800720635045 	0.000278019193071916 	0
5 	2.00940910673542 	-8.32667268468867e-17 	0.52263888803289 	0.0002271731940934 	0
5 	2.01227902528252 	-8.32667268468867e-17 	0.431094370917766 	0.000171718429544556 	0
5 	2.01504752555717 	-8.32667268468867e-17 	0.333127582419033 	0.000116033459006344 	0
5 	2.01771819151684 	-8.32667268468867e-17 	0.234171373096902 	6.59953028934855e-05 	0
5 	2.02029448046774 	-8.32667268468867e-17 	0.137912215018116 	2.77616328535885e-05 	0
5 	2.02277972754047 	-8.32667268468867e-17 	0.0453346280683723 	5.5471478191679e-06 	0
