2 	0.00391112967796261 	1.10588621593521e-17 	-0.0241673281141331 	0.000107891248370751 	-3.79891750260796e-16
2 	0.0118766651674913 	1.95156391047391e-17 	-0.0717240118338668 	0.000552540897304921 	5.0532627215444e-16
2 	0.0201340015485761 	2.16840434497101e-17 	-0.117431689679864 	0.00141935705555902 	1.51257625056093e-17
2 	0.028693828342395 	1.69135538907739e-17 	-0.155966558673748 	0.0025440634756123 	-1.12781165572403e-22
2 	0.0375672266585909 	8.23993651088983e-18 	-0.1814845484396 	0.00366037200306948 	-6.10176822124642e-21
2 	0.0467656835403032 	2.60208521396521e-18 	-0.195108573699943 	0.00463617307483861 	8.34793928455169e-21
2 	0.0563011068347007 	-2.60208521396521e-18 	-0.201508082701257 	0.0054905518275093 	2.51770596462163e-18
2 	0.0661858406082648 	-6.07153216591882e-18 	-0.204047113697998 	0.00627024268382065 	3.4657026392849e-18
2 	0.0764326811267815 	-6.07153216591882e-18 	-0.204464614761171 	0.00700408863498279 	-1.64382234643669e-18
2 	0.0870548934207258 	-8.67361737988404e-19 	-0.203611977414345 	0.0077077074723005 	-2.62016768118516e-18
2 	0.0980662284574839 	-2.60208521396521e-18 	-0.201922856242934 	0.00839026477311658 	3.53380947726412e-22
2 	0.109480940942647 	-1.21430643318376e-17 	-0.199631647597807 	0.00905740095917297 	3.15632343579899e-23
2 	0.121313807773417 	-1.04083408558608e-17 	-0.196871748788095 	0.00971254546404642 	-1.62062450898032e-21
2 	0.13358014716801 	-3.46944695195361e-18 	-0.193721705759587 	0.0103576581811135 	-7.25558306540594e-18
2 	0.146295838495838 	1.73472347597681e-18 	-0.190228245108344 	0.0109936710220854 	-9.73953605858731e-17
2 	0.159477342834115 	1.73472347597681e-18 	-0.186418467208071 	0.0116207432700814 	8.80445735419157e-17
2 	0.173141724277517 	3.46944695195361e-18 	-0.182306639727345 	0.0122384048409097 	8.67024976922161e-18
2 	0.18730667202848 	1.38777878078145e-17 	-0.177898142003836 	0.0128456319745594 	1.35156867870677e-21
2 	0.201990523296728 	1.73472347597681e-17 	-0.173191824056288 	0.0134408795385546 	2.86129646547159e-21
2 	0.217212287037676 	3.46944695195361e-18 	-0.168181438082351 	0.0140220829371484 	5.48041683081918e-24
2 	0.232991668560441 	-1.04083408558608e-17 	-0.162856499253498 	0.0145866366920449 	-1.45361614712589e-23
2 	0.249349095037321 	-1.04083408558608e-17 	-0.15720277520219 	0.0151313533704855 	6.17364675233576e-22
2 	0.266305741947753 	-1.38777878078145e-17 	-0.151202516882997 	0.01565240444119 	1.36190694719202e-21
2 	0.283883560490999 	-1.38777878078145e-17 	-0.144834492761843 	0.0161452432832375 	2.25806743901555e-22
2 	0.30210530600303 	-1.73472347597681e-17 	-0.138073856108452 	0.0166045096884024 	0
2 	0.320994567414414 	-3.12250225675825e-17 	-0.130891852207645 	0.0170239146756992 	4.70391968182278e-22
2 	0.340575797787321 	-3.46944695195361e-17 	-0.123255353105986 	0.0173961042982269 	1.51716892768497e-21
2 	0.360874345971201 	-3.46944695195361e-17 	-0.115126188418371 	0.0177125015278347 	-2.03996295900609e-23
2 	0.379381853751547 	-3.81639164714898e-17 	-0.107518561617746 	0.0179376233833703 	-1.47348286849646e-21
2 	0.390092168053834 	-4.16333634234434e-17 	-0.103048292063989 	0.0180456487239473 	-2.19489895146576e-21
2 	0.403729468200046 	-3.46944695195361e-17 	-0.0972190766361813 	0.0181383167417018 	-1.09844053934918e-17
2 	0.426341520272734 	-2.77555756156289e-17 	-0.0873380931919372 	0.0182242491389462 	-9.71115472894924e-18
2 	0.449781918030829 	-3.12250225675825e-17 	-0.0767429709659035 	0.0182051660129062 	1.10098896532764e-17
2 	0.474081006202548 	-3.46944695195361e-17 	-0.0653496090261632 	0.0180637424426304 	9.67626701136337e-18
2 	0.499270241132364 	-3.46944695195361e-17 	-0.0530559205341746 	0.0177804405350665 	2.17624818142124e-21
2 	0.525382231502763 	-3.12250225675825e-17 	-0.0397363402728663 	0.0173336293749671 	2.30154426755931e-21
2 	0.552450780547767 	-2.42861286636753e-17 	-0.0252345019701582 	0.0166999998599134 	2.91896507402085e-21
2 	0.58051092981285 	-1.73472347597681e-17 	-0.00935370454229032 	0.015855521697837 	6.90372963879762e-21
2 	0.609599004517911 	-3.46944695195361e-18 	0.0081550698580849 	0.0147781659492825 	5.74256760395416e-22
2 	0.639752660582033 	1.04083408558608e-17 	0.0276075474256141 	0.0134561259908247 	1.08867483968155e-21
2 	0.671010933370887 	1.04083408558608e-17 	0.0494176481641549 	0.0118945466054265 	9.95810160732965e-21
2 	0.703414288229901 	1.73472347597681e-17 	0.0742324176185084 	0.0100456130558764 	1.16827976832604e-17
2 	0.737004672868606 	2.08166817117217e-17 	0.103376495888929 	0.0078259007976341 	2.58322447732384e-16
2 	0.771825571663976 	1.75640751942652e-17 	0.138642163638722 	0.00507432274965109 	-3.03888613101916e-16
2 	0.807922061953053 	1.84314369322536e-17 	0.18132121916702 	0.00175639078010687 	-3.11529217183516e-18
2 	0.845340872387742 	1.38777878078145e-17 	0.231243292612664 	-0.00196325089946561 	-5.98590506966541e-18
2 	0.884130443427309 	6.07153216591882e-18 	0.287084954467686 	-0.00584786286771763 	-1.37479256720339e-16
2 	0.924340990046898 	1.73472347597681e-18 	0.347461954257704 	-0.00968907673930914 	1.04091963055383e-16
2 	0.966024566743242 	0 	0.411282043721607 	-0.0132944838500651 	1.72366217743169e-17
2 	1.00923513492173 	-1.73472347597681e-18 	0.477613089051154 	-0.0164401749756517 	1.42823665650762e-23
2 	1.05402863275206 	0 	0.545234991190577 	-0.0188822540709669 	7.25146141525437e-21
2 	1.10046304758287 	0 	0.61231261296428 	-0.0204086966421404 	4.22037287078906e-21
2 	1.14859849100923 	0 	0.67654820306917 	-0.0209093631200125 	-5.88203352071669e-21
2 	1.1731499461078 	0 	0.707722057664512 	-0.0209009748352869 	-9.86945304990334e-21
2 	1.19854810382362 	-3.46944695195361e-18 	0.736055346573764 	-0.020540085440218 	-1.62066601692817e-20
2 	1.25022400101563 	-1.04083408558608e-17 	0.789150715694438 	-0.0196190245403943 	-2.65194283178863e-20
2 	1.30384562673186 	-1.04083408558608e-17 	0.835071191913597 	-0.0185346572959077 	-1.2546925774243e-20
2 	1.35943156962566 	-6.93889390390723e-18 	0.874297370107042 	-0.0175976041084427 	5.89864283436068e-21
2 	1.41705378838763 	-1.04083408558608e-17 	0.908214395286978 	-0.0169138108063018 	5.44787564383923e-21
2 	1.47678687776592 	-1.04083408558608e-17 	0.938356475806723 	-0.0164516877068214 	2.55721480472755e-20
2 	1.53870816513278 	-1.21430643318376e-17 	0.965980574769563 	-0.0161225941257412 	-2.72617179471827e-20
2 	1.60289781058851 	-1.38777878078145e-17 	0.991800941972623 	-0.0158227117261364 	-1.07404677252255e-21
2 	1.66943891073267 	-6.93889390390723e-18 	1.01634930477274 	-0.0154630155871254 	1.69086164457601e-20
2 	1.73841760623657 	-5.20417042793042e-18 	1.03973985341516 	-0.0149943643325422 	-1.5018646900134e-20
2 	1.8099231933566 	-1.04083408558608e-17 	1.06193834438492 	-0.0143980973459899 	-2.6675719306476e-20
2 	1.87639343533151 	-1.38777878078145e-17 	1.08078629514284 	-0.0137596940795624 	-3.61082960895e-21
2 	1.91412260223978 	-1.73472347597681e-17 	1.0909097140693 	-0.0133783947702716 	-5.85510640974813e-22
2 	1.96088870322038 	-1.73472347597681e-17 	1.10153859046588 	-0.0129132537983768 	0
2 	2.02025965173185 	-1.38777878078145e-17 	1.11535677995322 	-0.0122614623399383 	0
2 	2.06006301192217 	-1.38777878078145e-17 	1.12449482491911 	-0.011776230415649 	0
2 	2.09845978584128 	-1.38777878078145e-17 	1.13211967209304 	-0.0113386505260818 	0
2 	2.13549967996946 	-1.38777878078145e-17 	1.13899540412027 	-0.0109211574634769 	0
2 	2.17123064424048 	-1.38777878078145e-17 	1.14518865261274 	-0.0105210627378242 	0
2 	2.20569893411516 	-2.08166817117217e-17 	1.15075908763712 	-0.0101394817427244 	0
2 	2.23894917046123 	-2.77555756156289e-17 	1.15575984845259 	-0.00977672350637672 	0
2 	2.27102439731726 	-2.77555756156289e-17 	1.16023801818976 	-0.00943251627693506 	0
2 	2.30196613761522 	-3.12250225675825e-17 	1.1642350878034 	-0.00910628417537927 	0
2 	2.33181444693392 	-3.46944695195361e-17 	1.16778739161647 	-0.00879724851770317 	0
2 	2.3606079653529 	-3.81639164714898e-17 	1.17092650891017 	-0.00850449342704422 	0
2 	2.38838396747391 	-3.81639164714898e-17 	1.17367962962974 	-0.00822702444280644 	0
2 	2.41517841067461 	-3.46944695195361e-17 	1.1760698834417 	-0.00796381541946921 	0
2 	2.44102598165722 	-3.81639164714898e-17 	1.1781166318658 	-0.00771384365992961 	0
2 	2.46596014135208 	-4.16333634234434e-17 	1.17983572361221 	-0.00747611527864409 	0
2 	2.49001316823444 	-4.16333634234434e-17 	1.1812397138188 	-0.00724968265792937 	0
2 	2.51321620011054 	-4.16333634234434e-17 	1.1823380486422 	-0.00703365562870875 	0
2 	2.535599274427 	-4.16333634234434e-17 	1.18313721758572 	-0.00682720782769838 	0
2 	2.55719136715571 	-3.81639164714898e-17 	1.18364087702635 	-0.006629579480509 	0
2 	2.57802043030466 	-3.81639164714898e-17 	1.18384994962568 	-0.00644007764363076 	0
2 	2.59811342810315 	-4.16333634234434e-17 	1.18376270567837 	-0.00625807472872234 	0
2 	2.61749637190832 	-3.81639164714898e-17 	1.18337483395004 	-0.0060830059397007 	0
2 	2.63619435387806 	-3.46944695195361e-17 	1.1826795111231 	-0.00591436607920654 	0
2 	2.65423157945406 	-3.81639164714898e-17 	1.18166748046307 	-0.0057517060248505 	0
2 	2.67163139869691 	-4.16333634234434e-17 	1.180327151485 	-0.00559462903430675 	0
2 	2.68841633651388 	-4.16333634234434e-17 	1.17864473284628 	-0.00544278690894846 	-2.54097407942815e-16
2 	2.70460812181851 	-4.16333634234434e-17 	1.17660440988154 	-0.00529587592719713 	-6.07965326772241e-16
2 	2.72022771565972 	-4.16333634234434e-17 	1.17418857549197 	-0.00515363235326833 	6.57942095131019e-16
2 	2.73529533835695 	-4.16333634234434e-17 	1.17137811787792 	-0.0050158272411724 	2.65298927597148e-16
2 	2.74983049567626 	-3.81639164714898e-17 	1.16815276043052 	-0.00488226019906451 	0
2 	2.76385200408157 	-3.46944695195361e-17 	1.16449143800439 	-0.00475275177032427 	0
2 	2.77737801509344 	-3.81639164714898e-17 	1.16037268051864 	-0.00462713414055608 	0
2 	2.79042603878708 	-3.81639164714898e-17 	1.15577496098619 	-0.00450524000484044 	0
2 	2.80301296646003 	-3.46944695195361e-17 	1.15067695302852 	-0.0043868896270523 	0
2 	2.81515509249873 	-3.46944695195361e-17 	1.14505763540527 	-0.0042718763771243 	0
2 	2.82686813547238 	-3.46944695195361e-17 	1.13889618036637 	-0.00415995131020738 	0
2 	2.83816725848143 	-3.12250225675825e-17 	1.13217156973948 	-0.00405080760951854 	0
2 	2.84906708878692 	-2.77555756156289e-17 	1.12486189673144 	-0.00394406590733752 	0
2 	2.85958173674617 	-2.77555756156289e-17 	1.11694332963858 	-0.00383926159373216 	0
2 	2.86972481407933 	-2.77555756156289e-17 	1.10838873189822 	-0.00373583521071674 	0
2 	2.87950945149043 	-2.42861286636753e-17 	1.09916594682576 	-0.003633126935469 	0
2 	2.88894831566567 	-2.08166817117217e-17 	1.089235761579 	-0.00353037606456275 	0
2 	2.89805362567107 	-2.08166817117217e-17 	1.07854956173099 	-0.00342672642000105 	0
2 	2.90683716877067 	-2.08166817117217e-17 	1.06704667554684 	-0.0033212383431942 	0
2 	2.9153103156857 	-2.08166817117217e-17 	1.05465138715833 	-0.00321290625630083 	0
2 	2.92348403531449 	-2.08166817117217e-17 	1.041269571714 	-0.00310068161967625 	0
2 	2.9313689089323 	-1.73472347597681e-17 	1.02678487173337 	-0.00298352445193768 	0
2 	2.93897514388925 	-1.73472347597681e-17 	1.01105425568316 	-0.00286056030050171 	0
2 	2.94631258682425 	-2.08166817117217e-17 	0.993894999189438 	-0.00273081473632858 	0
2 	2.95339073641193 	-1.73472347597681e-17 	0.97504339670393 	-0.0025921146474201 	0
2 	2.96021875565916 	-1.38777878078145e-17 	0.954111924548367 	-0.00244193385438751 	0
2 	2.96680548376697 	-1.38777878078145e-17 	0.930630206142194 	-0.00227759611604118 	0
2 	2.97315944757337 	-1.38777878078145e-17 	0.904099634051833 	-0.00209831853658247 	0
2 	2.97928887259171 	-1.38777878078145e-17 	0.873962904753742 	-0.00190491473337611 	0
2 	2.98520169365903 	-1.38777878078145e-17 	0.83955730160862 	-0.00169938165103458 	0
2 	2.99090556520807 	-1.38777878078145e-17 	0.800065081557074 	-0.00148482969022815 	0
2 	2.99640787117633 	-1.38777878078145e-17 	0.754449803569289 	-0.00126530214188179 	0
2 	3.00171573456492 	-1.38777878078145e-17 	0.701397346275962 	-0.00104559738529124 	0
2 	3.00683602665963 	-1.73472347597681e-17 	0.63928846443381 	-0.00083140943078934 	0
2 	3.01177537592613 	-2.42861286636753e-17 	0.566109377548767 	-0.00062899665039499 	0
2 	3.01654017659085 	-2.77555756156289e-17 	0.479612947623081 	-0.00044322702384943 	0
2 	3.02113659691864 	-2.77555756156289e-17 	0.379696293470951 	-0.000280167517497085 	0
2 	3.02557058719784 	-3.12250225675825e-17 	0.271242260894642 	-0.000149169243195745 	0
2 	3.02984788744324 	-3.46944695195361e-17 	0.161177609476824 	-5.87616906345951e-05 	0
