/*--------------------------------*- C++ -*----------------------------------*\
  =========                 |
  \\      /  F ield         | OpenFOAM: The Open Source CFD Toolbox
   \\    /   O peration     | Website:  https://openfoam.org
    \\  /    A nd           | Version:  7
     \\/     M anipulation  |
\*---------------------------------------------------------------------------*/
FoamFile
{
    version     2.0;
    format      ascii;
    class       volScalarField;
    location    "20000";
    object      Cy;
}
// * * * * * * * * * * * * * * * * * * * * * * * * * * * * * * * * * * * * * //

dimensions      [0 1 0 0 0 0 0];

internalField   nonuniform List<scalar> 
15600
(
1.00164986936672
0.992996132886476
0.964297616495446
0.91798682558059
0.864157129563122
0.807677432854663
0.75013456068266
0.692317502785337
0.634733715215709
0.577559375977461
0.520752185065403
0.464235404353579
0.407916191663478
0.351771351052603
0.296009222603146
0.241061672643565
0.187572934707413
0.136632837229373
0.0899192396304834
0.0499231689926503
0.0205560166539925
0.00652184822213038
0.00391081711043299
0.00391081711043305
0.00391081711043299
0.00391081711043295
0.00391081711043314
0.00391081711043295
0.0039108171104332
0.00391081711043295
0.00391081711043302
0.00391081711043296
0.00391081711043294
0.00391081711043292
0.00391081711043309
0.00391081711043287
0.00391081711043294
0.00391081711043299
0.00391081711043304
0.00391081711043308
0.0039108171104331
0.00391081711043298
0.0039108171104332
0.003910817110433
0.00391081711043305
0.00391081711043302
0.00391081711043296
0.00391081711043294
0.0039108171104329
0.00391081711043301
0.00391081711043287
0.00391081711043304
0.00391081711043299
0.00391081711043304
0.00391081711043316
0.00391081711043306
0.00391081711043299
0.00391081711043294
0.00391081711043299
0.00391081711043294
0.00391081711043281
0.00391081711043306
0.00391081711043294
0.00391081711043289
0.0039108171104332
0.003910817110433
0.00391081711043307
0.00391081711043308
0.0039108171104331
0.00391081711043289
0.00391081711043304
0.00391081711043289
0.003910817110433
0.003910817110433
0.00391081711043292
0.003910817110433
0.0039108171104331
0.00391081711043311
0.00391081711043297
0.00391081711043302
0.00391081711043304
0.00391081711043305
0.00391081711043293
0.00391081711043294
0.00391081711043299
0.00391081711043291
0.00391081711043302
0.00391081711043299
0.00391081711043305
0.00391081711043305
0.00391081711043304
0.00391081711043307
0.00391081711043293
0.00391081711043304
0.00391081711043299
0.00391081711043287
0.00391081711043294
0.00391081711043297
0.00647610023806735
0.0204139628944282
0.049697223013393
0.089639244694974
0.136318677638846
0.187238537459764
0.240715095830215
0.295655164350015
0.351413928362793
0.407557275874003
0.463875600205175
0.520390752568864
0.577195753587578
0.634367549110988
0.691948983703174
0.749765458269462
0.807311488294684
0.863801909291008
0.917658315768492
0.964047300183509
0.992884142903136
1.00163303285853
1.00563384465608
0.997014638101972
0.968430742818626
0.922305158858691
0.868690593852997
0.812436408913545
0.755123143644371
0.697536691552595
0.640182553677347
0.583236263841666
0.526655685983555
0.47036438084161
0.414269871476948
0.358349041856231
0.302809385336482
0.248081046386008
0.194805690817468
0.144068803688771
0.0975415637815576
0.0577050668523678
0.0284550973481278
0.0144769390695758
0.0118763291158874
0.0118763291158873
0.0118763291158875
0.0118763291158873
0.0118763291158872
0.0118763291158873
0.0118763291158874
0.0118763291158873
0.0118763291158873
0.0118763291158873
0.0118763291158871
0.0118763291158874
0.0118763291158872
0.0118763291158874
0.0118763291158872
0.0118763291158874
0.0118763291158875
0.0118763291158874
0.0118763291158872
0.0118763291158875
0.0118763291158873
0.0118763291158873
0.0118763291158873
0.0118763291158874
0.0118763291158873
0.0118763291158871
0.0118763291158874
0.0118763291158871
0.0118763291158873
0.0118763291158874
0.0118763291158874
0.0118763291158874
0.0118763291158873
0.0118763291158875
0.0118763291158873
0.0118763291158871
0.0118763291158874
0.0118763291158871
0.0118763291158872
0.0118763291158873
0.0118763291158871
0.0118763291158874
0.0118763291158873
0.0118763291158874
0.0118763291158874
0.0118763291158875
0.0118763291158874
0.0118763291158874
0.0118763291158871
0.0118763291158873
0.0118763291158874
0.0118763291158872
0.0118763291158872
0.0118763291158873
0.0118763291158874
0.0118763291158873
0.0118763291158874
0.0118763291158874
0.0118763291158873
0.0118763291158875
0.0118763291158874
0.0118763291158873
0.0118763291158872
0.0118763291158874
0.0118763291158873
0.0118763291158872
0.0118763291158873
0.0118763291158873
0.0118763291158873
0.0118763291158873
0.0118763291158874
0.0118763291158873
0.0118763291158872
0.0118763291158874
0.0118763291158873
0.0118763291158873
0.0144313736760008
0.0283136104670845
0.0574800223957073
0.0972626858875028
0.143755897337375
0.194472627499017
0.247735852183629
0.30245673955091
0.35799304514322
0.413912387656509
0.470006012119241
0.52629569528012
0.582874091807046
0.63981784783523
0.697169641955835
0.754755513472996
0.812071924751344
0.868336792256323
0.921977962494114
0.968181427155047
0.996903095004117
1.00561707533546
1.00976376417278
1.00118035266933
0.972715277438452
0.926781681558385
0.873390124553568
0.817369710911945
0.760294464169993
0.702947067406168
0.645830993924476
0.589121109005451
0.532775446671075
0.476717877610242
0.420856303594682
0.365167691558743
0.309858657225734
0.255357560069213
0.202303404036454
0.151777171593252
0.10544311606235
0.0657720381007687
0.0366435437136645
0.0227234472407018
0.0201336402419178
0.020133640241918
0.0201336402419178
0.0201336402419179
0.0201336402419178
0.0201336402419179
0.0201336402419177
0.0201336402419179
0.0201336402419177
0.020133640241918
0.0201336402419179
0.0201336402419177
0.0201336402419179
0.0201336402419177
0.020133640241918
0.0201336402419179
0.0201336402419179
0.0201336402419179
0.0201336402419178
0.0201336402419176
0.0201336402419179
0.0201336402419177
0.0201336402419178
0.0201336402419177
0.020133640241918
0.0201336402419178
0.0201336402419178
0.0201336402419178
0.0201336402419179
0.0201336402419179
0.0201336402419179
0.0201336402419179
0.0201336402419178
0.0201336402419178
0.0201336402419178
0.0201336402419179
0.0201336402419177
0.0201336402419179
0.0201336402419178
0.0201336402419178
0.0201336402419179
0.0201336402419177
0.0201336402419179
0.0201336402419179
0.0201336402419178
0.020133640241918
0.0201336402419179
0.0201336402419178
0.0201336402419178
0.0201336402419179
0.0201336402419177
0.0201336402419178
0.0201336402419178
0.0201336402419176
0.0201336402419179
0.0201336402419178
0.0201336402419179
0.0201336402419177
0.020133640241918
0.0201336402419179
0.0201336402419179
0.0201336402419179
0.0201336402419179
0.0201336402419177
0.0201336402419179
0.0201336402419178
0.0201336402419178
0.0201336402419178
0.0201336402419178
0.0201336402419179
0.0201336402419177
0.0201336402419179
0.0201336402419178
0.0201336402419179
0.0201336402419179
0.020133640241918
0.0226780711267624
0.0365026444748958
0.0655479281890922
0.105165396128377
0.151465564390816
0.201971723514656
0.255013799129654
0.309507475653865
0.364813173063472
0.420500304203756
0.476360996902095
0.532416950583897
0.588760440465437
0.645467801851061
0.702581541142193
0.759928360183623
0.81700674064607
0.87303779358787
0.926455846728976
0.972466999070553
1.00106927283077
1.00974706450108
1.0140449742466
1.00549866927834
0.977156766867848
0.931422188359371
0.878261804646519
0.822483724299422
0.765655215881441
0.708555633611995
0.651686347605935
0.595221529297263
0.539119389165453
0.483304119350019
0.427684014303525
0.372236127107359
0.317166163817859
0.262900633462561
0.210075780524384
0.159767919821423
0.1136341254225
0.0741345257868731
0.0451319560026481
0.031272048132964
0.0286934398753933
0.0286934398753932
0.0286934398753933
0.0286934398753932
0.0286934398753933
0.0286934398753932
0.0286934398753933
0.0286934398753932
0.0286934398753933
0.0286934398753933
0.0286934398753932
0.0286934398753933
0.0286934398753932
0.0286934398753933
0.0286934398753933
0.0286934398753932
0.0286934398753932
0.0286934398753933
0.0286934398753931
0.0286934398753932
0.0286934398753932
0.0286934398753933
0.0286934398753931
0.0286934398753932
0.0286934398753932
0.0286934398753933
0.0286934398753932
0.0286934398753933
0.0286934398753932
0.0286934398753933
0.0286934398753932
0.0286934398753933
0.0286934398753933
0.0286934398753932
0.0286934398753933
0.0286934398753932
0.0286934398753933
0.0286934398753931
0.0286934398753932
0.0286934398753932
0.0286934398753932
0.0286934398753933
0.0286934398753932
0.0286934398753933
0.0286934398753933
0.0286934398753932
0.0286934398753933
0.0286934398753932
0.0286934398753931
0.0286934398753932
0.0286934398753932
0.0286934398753933
0.0286934398753931
0.0286934398753932
0.0286934398753932
0.0286934398753932
0.0286934398753931
0.0286934398753933
0.0286934398753932
0.0286934398753933
0.0286934398753932
0.0286934398753933
0.0286934398753932
0.0286934398753933
0.0286934398753932
0.0286934398753933
0.0286934398753933
0.0286934398753932
0.0286934398753933
0.0286934398753932
0.0286934398753933
0.0286934398753932
0.0286934398753933
0.0286934398753932
0.0286934398753933
0.0286934398753932
0.0312268682328764
0.0449916659303376
0.0739113846520476
0.11335760586607
0.159457659359579
0.209745533457012
0.262558358293358
0.316816500101678
0.371883140984763
0.42732955372456
0.482948781171066
0.538762442453181
0.594862419338448
0.651324724768213
0.708191686501752
0.765290694000085
0.822122323388149
0.877910998169652
0.93109776491256
0.976909563784773
1.00538806967294
1.01402834677535
1.01848301705639
1.0099751781673
0.981760960803568
0.936232686199937
0.883311939918051
0.827785068404501
0.771212337570696
0.714369649955929
0.657756194195105
0.601545421592073
0.545695725698905
0.490131632036261
0.434761842225623
0.379563498800582
0.32474136495182
0.270720031407799
0.218132882006699
0.168051392808602
0.122125195528434
0.0828033555173511
0.0539313227807885
0.0401338082092903
0.0375668089813731
0.0375668089813729
0.037566808981373
0.037566808981373
0.0375668089813728
0.037566808981373
0.037566808981373
0.0375668089813731
0.0375668089813731
0.0375668089813729
0.0375668089813729
0.037566808981373
0.037566808981373
0.0375668089813731
0.0375668089813729
0.0375668089813731
0.0375668089813729
0.037566808981373
0.037566808981373
0.037566808981373
0.0375668089813729
0.0375668089813731
0.037566808981373
0.037566808981373
0.0375668089813729
0.037566808981373
0.037566808981373
0.0375668089813729
0.0375668089813731
0.037566808981373
0.037566808981373
0.0375668089813728
0.037566808981373
0.037566808981373
0.0375668089813729
0.037566808981373
0.037566808981373
0.0375668089813729
0.0375668089813729
0.037566808981373
0.037566808981373
0.0375668089813729
0.037566808981373
0.0375668089813729
0.037566808981373
0.037566808981373
0.0375668089813729
0.037566808981373
0.0375668089813731
0.0375668089813728
0.037566808981373
0.0375668089813729
0.0375668089813729
0.037566808981373
0.0375668089813729
0.0375668089813729
0.037566808981373
0.037566808981373
0.0375668089813728
0.0375668089813729
0.037566808981373
0.037566808981373
0.0375668089813729
0.037566808981373
0.037566808981373
0.0375668089813728
0.037566808981373
0.0375668089813731
0.0375668089813731
0.0375668089813731
0.0375668089813729
0.037566808981373
0.0375668089813729
0.0375668089813729
0.037566808981373
0.037566808981373
0.0400888317113187
0.053791664187391
0.0825812186450086
0.121849920320735
0.167742528422397
0.217804120907399
0.270379296440206
0.324393274698642
0.379212101189667
0.434408976833526
0.489777892898806
0.545340385126599
0.601187927319625
0.65739619809284
0.714007339866375
0.770849455763518
0.827425294337768
0.882962713759867
0.935909725807181
0.981514872385416
1.009865076391
1.01846646443059
1.02308363780435
1.01461567435969
0.986533819569337
0.941219402051555
0.888547067118936
0.833280605000207
0.776973022179067
0.720396642139072
0.664048390799781
0.608100972032651
0.552512969328257
0.49720925396539
0.44209894975971
0.387159292133127
0.332594067004452
0.278825876459957
0.22648513879971
0.176638313938301
0.13092731849038
0.0917897494705854
0.063053035152167
0.049320199323514
0.0467652344473434
0.0467652344473435
0.0467652344473435
0.0467652344473434
0.0467652344473436
0.0467652344473434
0.0467652344473436
0.0467652344473436
0.0467652344473436
0.0467652344473435
0.0467652344473435
0.0467652344473435
0.0467652344473434
0.0467652344473436
0.0467652344473434
0.0467652344473435
0.0467652344473435
0.0467652344473435
0.0467652344473434
0.0467652344473435
0.0467652344473436
0.0467652344473435
0.0467652344473435
0.0467652344473435
0.0467652344473435
0.0467652344473434
0.0467652344473435
0.0467652344473436
0.0467652344473437
0.0467652344473434
0.0467652344473435
0.0467652344473436
0.0467652344473434
0.0467652344473435
0.0467652344473435
0.0467652344473435
0.0467652344473433
0.0467652344473434
0.0467652344473432
0.0467652344473435
0.0467652344473435
0.0467652344473435
0.0467652344473435
0.0467652344473436
0.0467652344473434
0.0467652344473435
0.0467652344473436
0.0467652344473435
0.0467652344473434
0.0467652344473434
0.0467652344473436
0.0467652344473433
0.0467652344473435
0.0467652344473434
0.0467652344473436
0.0467652344473433
0.0467652344473435
0.0467652344473433
0.0467652344473434
0.0467652344473435
0.0467652344473434
0.0467652344473436
0.0467652344473436
0.0467652344473435
0.0467652344473434
0.0467652344473437
0.0467652344473435
0.0467652344473436
0.0467652344473436
0.0467652344473436
0.0467652344473435
0.0467652344473433
0.0467652344473435
0.0467652344473435
0.0467652344473434
0.0467652344473434
0.0492754336792795
0.0629140311672682
0.0915686536460339
0.130653333213235
0.176330896770101
0.22615791810599
0.278486738119419
0.332247607858911
0.386809541229701
0.44174773799479
0.496857172452313
0.552159293740885
0.607745152644324
0.663690081040056
0.720036029058118
0.77661184053964
0.83292251737394
0.888199479153426
0.940897958275084
0.986288886638002
1.01450608865326
1.02306716276592
1.02785279215317
1.01942616516588
0.99148152183162
0.946388790978164
0.893973962423487
0.838977447183254
0.782944726105284
0.726644411517238
0.670571082331333
0.614896666625215
0.559579944954209
0.504546147195534
0.449704834941465
0.395033340074774
0.340734435584908
0.287228661991337
0.235143363313174
0.185539799424308
0.140051889092223
0.101105340924108
0.0725089015050072
0.0588431135705546
0.056300623952892
0.056300623952892
0.0563006239528919
0.0563006239528921
0.056300623952892
0.0563006239528923
0.056300623952892
0.0563006239528921
0.056300623952892
0.0563006239528923
0.0563006239528921
0.0563006239528921
0.0563006239528923
0.056300623952892
0.0563006239528921
0.0563006239528921
0.0563006239528921
0.056300623952892
0.0563006239528922
0.0563006239528921
0.0563006239528922
0.0563006239528921
0.0563006239528921
0.056300623952892
0.0563006239528921
0.0563006239528922
0.056300623952892
0.0563006239528922
0.056300623952892
0.0563006239528922
0.0563006239528921
0.0563006239528923
0.0563006239528921
0.0563006239528919
0.0563006239528921
0.056300623952892
0.0563006239528922
0.056300623952892
0.0563006239528921
0.0563006239528921
0.0563006239528921
0.0563006239528921
0.0563006239528919
0.0563006239528922
0.0563006239528923
0.0563006239528922
0.0563006239528923
0.056300623952892
0.0563006239528922
0.0563006239528921
0.0563006239528919
0.0563006239528922
0.0563006239528921
0.0563006239528921
0.0563006239528918
0.056300623952892
0.0563006239528922
0.0563006239528921
0.0563006239528921
0.0563006239528919
0.0563006239528921
0.0563006239528923
0.0563006239528922
0.056300623952892
0.0563006239528922
0.0563006239528922
0.0563006239528923
0.056300623952892
0.0563006239528922
0.0563006239528921
0.0563006239528921
0.0563006239528921
0.0563006239528921
0.0563006239528921
0.0563006239528919
0.056300623952892
0.0587985665046854
0.0723705761052392
0.100885324279925
0.139779240997072
0.185233882489946
0.234817739456919
0.286891178770585
0.340389667303589
0.394685296206799
0.449355337385174
0.504195784036106
0.559227995352927
0.614542583488029
0.670214520705778
0.726285557631512
0.782585306929401
0.838621107776584
0.893628072643606
0.94606891934015
0.991237786703595
1.01931711443864
1.02783639754445
1.03279665393553
1.02441287795975
0.996610472598092
0.951747544490672
0.899599650198264
0.844882968578456
0.789135178854488
0.733121045197118
0.677332712046343
0.621941302223178
0.566905800744217
0.512151809406167
0.457589343738354
0.40319583579897
0.349173008694143
0.29593926577553
0.244118764047534
0.194767372701298
0.149510719542663
0.110762189314202
0.0823111627975923
0.0687148786805661
0.0661853213840638
0.0661853213840636
0.0661853213840637
0.0661853213840638
0.0661853213840638
0.0661853213840636
0.0661853213840637
0.0661853213840636
0.0661853213840638
0.0661853213840637
0.0661853213840638
0.0661853213840638
0.0661853213840638
0.0661853213840639
0.0661853213840637
0.0661853213840636
0.0661853213840638
0.0661853213840637
0.0661853213840639
0.0661853213840639
0.0661853213840636
0.0661853213840637
0.0661853213840637
0.0661853213840638
0.0661853213840638
0.0661853213840636
0.0661853213840637
0.0661853213840638
0.0661853213840636
0.0661853213840637
0.0661853213840638
0.0661853213840636
0.0661853213840638
0.0661853213840637
0.0661853213840636
0.0661853213840638
0.0661853213840637
0.0661853213840638
0.0661853213840638
0.0661853213840638
0.0661853213840639
0.0661853213840637
0.0661853213840637
0.0661853213840637
0.0661853213840639
0.0661853213840637
0.0661853213840636
0.0661853213840637
0.0661853213840639
0.0661853213840638
0.0661853213840636
0.0661853213840637
0.0661853213840639
0.0661853213840638
0.0661853213840637
0.0661853213840637
0.0661853213840636
0.0661853213840638
0.0661853213840638
0.0661853213840638
0.0661853213840638
0.0661853213840636
0.0661853213840638
0.0661853213840638
0.0661853213840638
0.0661853213840638
0.0661853213840637
0.0661853213840636
0.0661853213840638
0.0661853213840638
0.0661853213840638
0.0661853213840639
0.0661853213840636
0.0661853213840638
0.0661853213840637
0.0661853213840638
0.0686705582007006
0.0821735408376407
0.110543291379558
0.149239457611728
0.194463010958755
0.243794795528054
0.295603498310286
0.348829993223026
0.402849561504682
0.457241623191668
0.511803227554753
0.566555640365328
0.621589018952942
0.676977962611217
0.732764014972684
0.788777586720817
0.844528441433646
0.8992555207935
0.951429302544827
0.996367979139194
1.02430438181401
1.03278034270303
1.03792162314609
1.02958226824005
1.00192731150906
0.957302599207417
0.905431412091925
0.851004812880212
0.795552393040621
0.7398349265022
0.684342032474329
0.629243997913204
0.57450001997378
0.520036086192197
0.465762682794814
0.411657345877727
0.357920710366425
0.304968964069054
0.253422960103914
0.20433297934263
0.159316054766743
0.120772795847172
0.0924725084041218
0.0789482739769744
0.0764321228123517
0.0764321228123517
0.0764321228123516
0.0764321228123516
0.0764321228123516
0.0764321228123516
0.0764321228123515
0.0764321228123518
0.0764321228123517
0.0764321228123516
0.0764321228123516
0.0764321228123516
0.0764321228123517
0.0764321228123517
0.0764321228123516
0.0764321228123515
0.0764321228123517
0.0764321228123518
0.0764321228123517
0.0764321228123516
0.0764321228123515
0.0764321228123516
0.0764321228123518
0.0764321228123517
0.0764321228123517
0.0764321228123515
0.0764321228123516
0.0764321228123517
0.0764321228123518
0.0764321228123516
0.0764321228123515
0.0764321228123517
0.0764321228123517
0.0764321228123516
0.0764321228123516
0.0764321228123516
0.0764321228123517
0.0764321228123516
0.0764321228123515
0.0764321228123517
0.0764321228123517
0.0764321228123516
0.0764321228123515
0.0764321228123518
0.0764321228123516
0.0764321228123516
0.0764321228123516
0.0764321228123516
0.0764321228123517
0.0764321228123515
0.0764321228123517
0.0764321228123516
0.0764321228123517
0.0764321228123516
0.0764321228123517
0.0764321228123516
0.0764321228123518
0.0764321228123516
0.0764321228123515
0.0764321228123517
0.0764321228123516
0.0764321228123517
0.0764321228123516
0.0764321228123516
0.0764321228123515
0.0764321228123516
0.0764321228123516
0.0764321228123518
0.0764321228123516
0.0764321228123516
0.0764321228123516
0.0764321228123517
0.0764321228123518
0.0764321228123515
0.0764321228123515
0.0764321228123517
0.0789041883841322
0.092335615648872
0.120555057598979
0.159046229776407
0.204030229763149
0.253100707563691
0.30463497521659
0.357579511921055
0.411312905986644
0.465416804359636
0.519689350909752
0.574151714370684
0.628893580456934
0.683989161633558
0.739479786767972
0.795196694894501
0.850652164385594
0.905089107528734
0.956986046613273
1.00168610519104
1.02947434699657
1.03790539834424
1.04323433422615
1.03494102798717
1.00743892143264
0.96306114583184
0.911476796457984
0.85735090374342
0.802204674755115
0.746794745822037
0.691608116745713
0.636814206818328
0.582372433301447
0.528209183808359
0.474235432644312
0.420428823959838
0.366988864810601
0.31432944620883
0.263067996225646
0.214249002524629
0.169480588257556
0.131150119682486
0.103006092541007
0.0895565469190626
0.0870542930590023
0.0870542930590025
0.0870542930590024
0.0870542930590021
0.0870542930590023
0.0870542930590024
0.0870542930590025
0.0870542930590022
0.0870542930590024
0.0870542930590023
0.0870542930590025
0.0870542930590024
0.0870542930590023
0.0870542930590023
0.0870542930590023
0.0870542930590023
0.0870542930590023
0.0870542930590024
0.0870542930590024
0.0870542930590022
0.0870542930590025
0.0870542930590023
0.0870542930590024
0.0870542930590022
0.0870542930590024
0.0870542930590026
0.0870542930590023
0.0870542930590022
0.0870542930590023
0.0870542930590023
0.0870542930590025
0.0870542930590022
0.0870542930590023
0.0870542930590024
0.0870542930590023
0.0870542930590024
0.0870542930590023
0.0870542930590023
0.0870542930590023
0.0870542930590023
0.0870542930590024
0.0870542930590023
0.0870542930590026
0.0870542930590023
0.0870542930590023
0.0870542930590025
0.0870542930590023
0.0870542930590022
0.0870542930590024
0.0870542930590024
0.0870542930590023
0.0870542930590022
0.0870542930590024
0.0870542930590025
0.0870542930590023
0.0870542930590023
0.0870542930590023
0.0870542930590023
0.0870542930590025
0.0870542930590022
0.0870542930590024
0.0870542930590023
0.0870542930590023
0.0870542930590022
0.0870542930590025
0.0870542930590023
0.0870542930590023
0.0870542930590022
0.0870542930590025
0.0870542930590023
0.0870542930590022
0.0870542930590023
0.0870542930590023
0.0870542930590023
0.0870542930590023
0.0870542930590023
0.0895127048183947
0.102869955698862
0.1309335835984
0.169212252844075
0.213947924166492
0.262747522528879
0.313997301129352
0.366649549959265
0.42008628567668
0.473891463807714
0.527864362746999
0.582026050429542
0.636465723539682
0.691257193336951
0.74644156585654
0.801850939995212
0.857000202719339
0.91113638356304
0.962746344431791
1.00719904939201
1.03483370271148
1.04321819902128
1.0487416646518
1.04049609432597
1.01315243737477
0.96903063845894
0.917743628122651
0.863929455036651
0.809100634315364
0.754009511858837
0.699140370334711
0.644661728333363
0.590533231493484
0.536681682380454
0.48301856140536
0.429521624950161
0.37638921106933
0.3240328297444
0.273066358390837
0.224528279057386
0.18001747850865
0.14190759470874
0.11392555129487
0.100553430250508
0.0980655828660726
0.0980655828660726
0.0980655828660724
0.0980655828660729
0.0980655828660728
0.0980655828660726
0.0980655828660724
0.098065582866073
0.0980655828660728
0.0980655828660726
0.0980655828660727
0.0980655828660726
0.0980655828660726
0.0980655828660724
0.0980655828660725
0.0980655828660727
0.0980655828660726
0.0980655828660727
0.0980655828660725
0.0980655828660727
0.0980655828660729
0.0980655828660728
0.0980655828660724
0.0980655828660727
0.0980655828660726
0.0980655828660727
0.0980655828660725
0.0980655828660725
0.0980655828660725
0.0980655828660728
0.0980655828660728
0.0980655828660726
0.0980655828660726
0.0980655828660726
0.0980655828660726
0.0980655828660726
0.0980655828660725
0.0980655828660725
0.0980655828660728
0.0980655828660728
0.0980655828660726
0.0980655828660728
0.0980655828660725
0.0980655828660726
0.0980655828660726
0.0980655828660726
0.0980655828660725
0.0980655828660726
0.0980655828660726
0.0980655828660725
0.0980655828660726
0.0980655828660728
0.0980655828660728
0.0980655828660726
0.0980655828660726
0.0980655828660726
0.0980655828660726
0.0980655828660725
0.0980655828660725
0.0980655828660727
0.0980655828660724
0.0980655828660726
0.0980655828660726
0.0980655828660727
0.0980655828660724
0.0980655828660726
0.0980655828660726
0.0980655828660729
0.0980655828660727
0.0980655828660726
0.0980655828660727
0.0980655828660728
0.0980655828660727
0.0980655828660726
0.0980655828660727
0.0980655828660725
0.100509840562441
0.113790198052288
0.141692304822111
0.179750687236282
0.22422893314235
0.272747728704821
0.32370259598542
0.376051848819275
0.429181057941941
0.482676572127016
0.536338845671002
0.590188841798232
0.644315250101241
0.698791465718524
0.753658363479971
0.808748934883613
0.863580772824538
0.917405176169354
0.968717652358006
1.01291394847368
1.04038938685569
1.04872562232627
1.0544507438367
1.04625465850593
1.01907525571567
0.975218804222607
0.924240018510404
0.870748981470824
0.816249197406819
0.761488563285993
0.70694854323231
0.6527967208085
0.598992978614588
0.545464549600486
0.492123438979227
0.438947519708292
0.386133918215354
0.334091676124485
0.28343098997612
0.235184116002809
0.190940366048406
0.153059146934154
0.125245020274293
0.111953159776068
0.109480246696463
0.109480246696463
0.109480246696463
0.109480246696463
0.109480246696464
0.109480246696463
0.109480246696463
0.109480246696463
0.109480246696463
0.109480246696463
0.109480246696463
0.109480246696463
0.109480246696463
0.109480246696463
0.109480246696463
0.109480246696463
0.109480246696463
0.109480246696463
0.109480246696463
0.109480246696463
0.109480246696463
0.109480246696463
0.109480246696463
0.109480246696463
0.109480246696463
0.109480246696463
0.109480246696463
0.109480246696463
0.109480246696463
0.109480246696463
0.109480246696463
0.109480246696463
0.109480246696463
0.109480246696463
0.109480246696463
0.109480246696463
0.109480246696463
0.109480246696463
0.109480246696463
0.109480246696463
0.109480246696463
0.109480246696463
0.109480246696463
0.109480246696463
0.109480246696463
0.109480246696463
0.109480246696463
0.109480246696463
0.109480246696463
0.109480246696463
0.109480246696463
0.109480246696463
0.109480246696463
0.109480246696463
0.109480246696463
0.109480246696463
0.109480246696463
0.109480246696463
0.109480246696463
0.109480246696463
0.109480246696463
0.109480246696463
0.109480246696463
0.109480246696463
0.109480246696463
0.109480246696463
0.109480246696463
0.109480246696463
0.109480246696463
0.109480246696463
0.109480246696463
0.109480246696463
0.109480246696463
0.109480246696463
0.109480246696463
0.109480246696463
0.111909831747858
0.12511047933159
0.152845148890986
0.19067517548
0.234886565995371
0.28311427185564
0.333763423708324
0.385798580102161
0.438608996194463
0.491783501782029
0.54512376994337
0.598650655122688
0.652452321088859
0.706601731384727
0.761139520944156
0.815899607881672
0.870402392025589
0.923903599308332
0.974907699871151
1.01883820060509
1.0461485914791
1.05443479779309
1.06036896236089
1.05222417521033
1.02521504378457
0.981633653296284
0.930974376140405
0.877818309617151
0.8236596166332
0.769241580833612
0.715042742565107
0.661229714697471
0.607762625701787
0.554569154923476
0.501561851767715
0.448718710285669
0.396235601104414
0.344519006958163
0.294175308512547
0.24623030790146
0.20226339109843
0.164619212514126
0.136979152908142
0.123770492789421
0.121313061185964
0.121313061185964
0.121313061185964
0.121313061185964
0.121313061185964
0.121313061185964
0.121313061185964
0.121313061185964
0.121313061185964
0.121313061185964
0.121313061185964
0.121313061185964
0.121313061185964
0.121313061185964
0.121313061185964
0.121313061185964
0.121313061185964
0.121313061185964
0.121313061185964
0.121313061185964
0.121313061185964
0.121313061185964
0.121313061185964
0.121313061185964
0.121313061185964
0.121313061185964
0.121313061185964
0.121313061185964
0.121313061185964
0.121313061185964
0.121313061185964
0.121313061185964
0.121313061185964
0.121313061185964
0.121313061185964
0.121313061185964
0.121313061185964
0.121313061185964
0.121313061185964
0.121313061185964
0.121313061185964
0.121313061185964
0.121313061185964
0.121313061185964
0.121313061185964
0.121313061185964
0.121313061185964
0.121313061185964
0.121313061185964
0.121313061185964
0.121313061185964
0.121313061185964
0.121313061185964
0.121313061185964
0.121313061185964
0.121313061185964
0.121313061185964
0.121313061185964
0.121313061185964
0.121313061185964
0.121313061185964
0.121313061185964
0.121313061185964
0.121313061185964
0.121313061185964
0.121313061185964
0.121313061185964
0.121313061185964
0.121313061185964
0.121313061185964
0.121313061185964
0.121313061185964
0.121313061185964
0.121313061185964
0.121313061185964
0.121313061185964
0.123727436007129
0.1368454540166
0.164406553632121
0.201999859868646
0.245934619591017
0.293860571987354
0.344192808472598
0.395902361284634
0.448382305131712
0.501224041831644
0.554230507682885
0.607422444115857
0.660887469648499
0.714698100173466
0.768894721708191
0.823312214326276
0.87747388960287
0.930640064128204
0.981324499575745
1.02497947496971
1.05211877209472
1.06035311612646
1.06650398153771
1.05841237220633
1.03157974978525
0.988283489259886
0.93795541750733
0.885146589328624
0.831341483489708
0.777278599816679
0.72343344567636
0.669971626187282
0.6168535249392
0.564007284284293
0.511346017930062
0.458847845720828
0.406707336705218
0.355328320871751
0.305313223055291
0.257681154630464
0.214001211878838
0.176602756439159
0.149143139414178
0.136020727176007
0.133579344271193
0.133579344271193
0.133579344271193
0.133579344271193
0.133579344271193