/*--------------------------------*- C++ -*----------------------------------*\
  =========                 |
  \\      /  F ield         | OpenFOAM: The Open Source CFD Toolbox
   \\    /   O peration     | Website:  https://openfoam.org
    \\  /    A nd           | Version:  7
     \\/     M anipulation  |
\*---------------------------------------------------------------------------*/
FoamFile
{
    version     2.0;
    format      ascii;
    class       volScalarField;
    location    "20000";
    object      Cz;
}
// * * * * * * * * * * * * * * * * * * * * * * * * * * * * * * * * * * * * * //

dimensions      [0 1 0 0 0 0 0];

internalField   nonuniform List<scalar> 
15600
(
8.06411209399309e-18
-4.1654459029935e-18
0
-2.05307819819271e-18
0
1.01216904168655e-17
-6.02678688643528e-18
1.81046740334998e-18
-1.57309770918618e-18
1.63923045208466e-18
-4.33265881519973e-18
-2.62497409446436e-18
9.43362362018751e-20
-4.98455366070578e-18
-2.39751868616207e-18
0
-1.88843030813203e-18
0
0
6.0037305470485e-18
0
5.54013122947187e-18
0
-2.88077331676059e-18
0
9.63735270586733e-20
-2.2897453245498e-16
-2.32817038155523e-16
-2.97714684381936e-18
2.78439978970204e-18
-5.47242605234505e-18
-2.39919384559693e-16
-2.46469760752639e-16
-2.68802626264339e-18
0
-9.63735270586744e-20
0
0
2.29070905982022e-16
2.33526848709717e-16
0
9.63735270586722e-20
9.63735270586738e-20
-5.47242605234534e-18
2.78439978970224e-18
0
-2.37134984769991e-16
-2.4199129095036e-16
0
0
0
-5.47242605234582e-18
-2.31758932244667e-16
-2.25854521048196e-16
-2.88077331676053e-18
0
-5.56879957940457e-18
9.63735270586737e-20
-5.56879957940457e-18
0
0
0
9.6373527058675e-20
5.56879957940416e-18
5.37605252528665e-18
5.37605252528666e-18
0
0
0
2.88077331676076e-18
0
0
2.34543332034402e-16
4.68018529584479e-16
2.34034267020086e-16
-9.63735270586735e-20
-9.63735270586782e-20
0
0
2.317589322447e-16
2.30956402093523e-16
0
0
0
0
0
2.6880262626436e-18
9.63735270586781e-20
0
0
0
-2.88077331676048e-18
5.37605252528681e-18
0
0
-9.63735270586724e-20
0
4.87710100853205e-16
4.65756341027883e-16
-2.9233942664606e-18
0
6.7136490216361e-18
5.50934049670094e-18
-1.00083908387448e-17
4.39457695469583e-18
-2.30187817493687e-18
-7.23399723258502e-18
-5.15168062136532e-18
5.43616904245734e-18
9.86579482268006e-20
-4.53482324463895e-18
-1.66583530161558e-18
9.92931013620083e-20
-1.84641067389064e-18
1.94278154527049e-18
-1.05351069702269e-17
-5.88228541272983e-18
3.20828257228206e-18
-4.26493806438925e-18
9.63978089209432e-20
9.63947803915305e-20
-2.48762804751947e-18
3.18387344059617e-18
1.8829633933615e-15
1.79805336650703e-15
-5.89831480200493e-18
-1.87357465050134e-18
3.29562197047941e-18
1.41476343457965e-18
1.9020691446842e-19
5.75429475546708e-18
-3.81074690660872e-19
1.90659136635155e-19
-7.44851987788922e-18
-4.81991193337019e-18
0
0
1.91481878974851e-19
4.91090523570736e-18
-1.61717168196399e-18
-5.46344075302776e-18
2.77329372571091e-18
1.92768354143695e-19
2.59430253454144e-18
-5.57414177737034e-18
-8.16844431191269e-18
2.29278605303175e-16
2.16994741630182e-16
0
-1.92768354143695e-19
1.92768354143697e-19
2.40234120503784e-16
2.30797811013474e-16
-2.78707088868525e-18
2.59430253454154e-18
-2.97983924282892e-18
0
-2.59430253454162e-18
-2.26491534414465e-16
-2.1790828321176e-16
0
0
0
0
2.78707088868547e-18
0
2.31872907837723e-16
2.33727411810736e-16
-5.76691013151412e-18
0
0
0
2.24282768588206e-16
2.26090758102153e-16
0
0
-5.57414177737084e-18
2.78707088868519e-18
-2.78707088868523e-18
1.92768354143704e-19
0
0
0
0
0
-5.57414177737096e-18
1.92768354143694e-19
0
5.57414177737049e-18
1.92768354143687e-19
5.57414177737043e-18
5.5741417773708e-18
-2.24090000234088e-16
-4.49731697746231e-16
-2.23225897068872e-16
0
0
2.7870708886853e-18
2.78707088868547e-18
-2.21495697699548e-16
-2.26098307373401e-16
0
2.78707088868491e-18
-1.92768354143702e-19
5.57414177737045e-18
0
-2.78707088868543e-18
0
5.57414177737095e-18
-2.97983924282876e-18
2.78707088868547e-18
-2.59430253454158e-18
2.78707088868524e-18
2.59430253454176e-18
2.97983924282895e-18
1.9276835414369e-19
0
-4.50967071356877e-16
-4.59149305562449e-16
-2.63453121156983e-18
0
-3.33778115361859e-18
1.93975939356111e-19
1.71655463238008e-18
-8.2816616116738e-18
0
5.09869170499845e-18
2.28671525595962e-18
-5.62607925781986e-18
4.17104151638795e-18
-9.1193690139308e-18
-1.60384337966712e-18
-5.22498044299964e-18
0
-3.93117367440406e-18
5.96963412151903e-18
9.44273201656255e-18
6.37630562342532e-18
0
0
0
-5.36402529215565e-18
7.86549033188455e-18
-1.85902422650387e-15
-1.68523560151258e-15
-3.78398754616823e-18
1.89499292812683e-19
3.54431069719851e-18
-4.82476065802961e-18
0
5.35848876320085e-18
-2.52290035562277e-18
-7.55508171385621e-18
2.46020304391291e-18
1.9472146365029e-18
0
-1.65174994358002e-18
5.22670141032976e-18
1.91735052277677e-19
0
5.08727762169899e-18
1.92672227966914e-19
1.9276914565941e-19
0
-1.92769145659413e-19
0
0
-1.92769145659402e-19
0
0
2.50389211217168e-18
-2.50389211217167e-18
0
0
1.92769145659402e-19
-5.39332251566226e-18
-1.92769145659403e-19
5.20055337000338e-18
0
0
0
1.92769145659413e-19
-5.00778422434341e-18
0
-2.50389211217171e-18
2.5038921121718e-18
5.20055337000291e-18
0
-1.92769145659409e-19
-1.92769145659407e-19
2.69666125783113e-18
-2.50389211217193e-18
2.50389211217161e-18
-2.69666125783135e-18
0
1.92769145659407e-19
2.69666125783131e-18
5.3933225156622e-18
0
0
2.88943040349071e-18
2.69666125783093e-18
5.39332251566223e-18
-5.39332251566227e-18
0
1.92769145659403e-19
0
0
0
0
-1.92769145659408e-19
3.85538291318805e-19
5.20055337000286e-18
-1.92769145659408e-19
1.92769145659402e-19
0
3.85538291318799e-19
1.92769145659404e-19
0
5.39332251566227e-18
-5.39332251566229e-18
0
-5.39332251566207e-18
5.3933225156627e-18
3.85538291318799e-19
0
3.85538291318808e-19
-1.92769145659406e-19
-1.92769145659408e-19
1.92769145659405e-19
0
0
0
5.58609166132167e-18
0
5.20055337000252e-18
1.92769145659407e-19
-2.69666125783116e-18
-2.87660050660176e-18
0
2.94212891736726e-18
-6.25913830856998e-18
-1.93974797454978e-19
0
-1.99530180887636e-18
6.60591088234326e-18
2.46314856512233e-18
0
0
3.06795592984679e-18
-2.66931983613988e-18
3.28343745679122e-18
1.95567719448189e-19
5.60226858005326e-18
-5.67448399367e-18
-9.38073243858494e-18
-1.42785283134267e-18
0
1.93417272653411e-19
-2.69670337016362e-18
7.3464356576897e-18
2.49548461043302e-18
-1.28907895673621e-18
-3.79682223197756e-19
-7.5632089247671e-18
3.45166572907472e-18
-1.92437367696063e-18
-4.842713550829e-18
3.16444195838368e-18
0
-4.96996849222702e-18
-7.2898297902988e-18
-4.60676632556029e-18
-1.90774760326178e-19
-2.25097591060559e-18
0
5.71212948698154e-18
1.61839896450467e-18
-1.9173500923452e-19
2.8457302627047e-18
0
-2.78939793767284e-18
-5.2188958477555e-18
0
0
1.92769967017803e-19
0
-2.60944792387758e-18
2.60944792387774e-18
2.60944792387758e-18
0
1.92769967017803e-19
0
-5.21889584775551e-18
2.60944792387757e-18
-2.80221789089555e-18
1.92769967017796e-19
0
0
0
0
0
5.0261258807373e-18
0
-2.80221789089535e-18
5.21889584775546e-18
1.92769967017803e-19
0
0
-2.60944792387774e-18
1.92769967017804e-19
-2.83404855729762e-16
-2.84940394004616e-16
-1.92769967017798e-19
0
1.92769967017803e-19
1.92769967017796e-19
5.02612588073735e-18
0
0
-5.02612588073773e-18
5.60443578179073e-18
-2.41667795685979e-18
2.80221789089554e-18
-1.92769967017803e-19
0
0
2.88045441676442e-16
2.87549841928507e-16
0
0
-2.80221789089522e-18
1.92769967017802e-19
2.41667795685994e-18
-5.2188958477551e-18
2.41667795685992e-18
1.92769967017803e-19
0
0
-1.92769967017794e-19
5.02612588073736e-18
2.41667795685994e-18
-5.21889584775521e-18
1.927699670178e-19
-2.60944792387757e-18
1.927699670178e-19
-2.60944792387757e-18
1.92769967017798e-19
1.92769967017798e-19
7.82834377163268e-18
2.80221789089554e-18
-2.60944792387758e-18
0
1.92769967017803e-19
0
-1.92769967017805e-19
2.41667795685994e-18
0
-1.92867346233895e-19
-2.64722782109458e-18
5.30431938763246e-18
0
3.42865700361746e-18
-1.77545124116607e-18
5.76853942513287e-18
-2.25360204307081e-18
2.38000499384956e-18
0
7.48170064685848e-18
-5.15803722518429e-18
-5.516129427978e-18
-1.68171106192959e-18
-1.4177482741748e-18
7.13217264219273e-18
0
0
-1.3606838534466e-18
1.94603269051978e-19
-4.99388255496394e-18
4.83338432270012e-18
0
0
-9.79732844787531e-18
0
1.39520523174063e-18
1.89388157509847e-19
3.33841011308474e-18
-6.59319065091318e-18
-1.43157895013659e-18
2.65679118584323e-18
-2.48463115933984e-18
7.21139007775288e-18
2.21862757015703e-18
3.8155073469938e-19
2.17568332118958e-18
3.89871792258441e-18
0
1.75199408307086e-18
5.64707145285029e-18
-3.84028330044917e-19
2.75410012416099e-18
2.51309444703647e-18
-2.52531798718343e-18
2.33254716780691e-18
0
-5.05063597436703e-18
1.92770819376748e-19
-2.52531798718349e-18
2.52531798718346e-18
0
-7.19041232279689e-18
0
1.92770819376743e-19
0
-2.52531798718349e-18
-1.92770819376741e-19
5.05063597436659e-18
0
-2.52531798718366e-18
-2.52531798718346e-18
-2.5253179871835e-18
-2.52531798718348e-18
0
-5.05063597436694e-18
0
0
0
1.92770819376743e-19
0
-4.85786515499051e-18
-2.52531798718348e-18
2.78286304240653e-16
2.77157307279035e-16
-1.92770819376745e-19
2.52531798718347e-18
-5.05063597436694e-18
0
1.9277081937674e-19
4.85786515499021e-18
-2.33254716780675e-18
4.85786515499024e-18
0
0
-4.85786515499058e-18
1.92770819376742e-19
2.71808880656008e-18
0
-2.80811622227839e-16
-2.74439218472489e-16
0
0
-4.85786515498989e-18
0
0
0
-2.52531798718348e-18
0
0
-5.05063597436691e-18
-5.050635974367e-18
0
2.52531798718351e-18
-5.05063597436697e-18
-2.52531798718346e-18
2.52531798718364e-18
-2.33254716780676e-18
4.66509433561353e-18
0
0
-2.3325471678067e-18
-1.9277081937674e-19
0
0
-1.92770819376743e-19
2.52531798718354e-18
0
0
-1.92770819376744e-19
0
0
-5.50519996785366e-18
0
-8.37940138175541e-18
-7.03968338585545e-18
-3.90024444773043e-18
2.17834226476631e-18
-1.91061695719321e-18
1.94700067812317e-19
-7.40764241200507e-18
5.16197969006879e-18
2.65546182933028e-18
6.11373679878965e-18
6.0145992635834e-18
-3.91515472144648e-19
0
1.06444182103144e-17
1.32997714663641e-17
0
0
-7.38326371437936e-18
9.63981223939022e-20
0
-5.31198084526053e-18
-3.43676945941978e-18
-1.89667982208753e-18
5.24482652172173e-18
-3.21176713677579e-18
-2.98958026442638e-18
2.7558248890616e-18
-2.557780565231e-18
2.39247462682313e-18
2.44434562700596e-18
-6.79195702628487e-18
2.21942269589817e-18
-2.10305783971258e-18
1.91068605003471e-19
-1.9125583253984e-19
-3.00934479082075e-18
2.53178344951869e-18
1.64824185195661e-16
1.86250994877593e-16
0
-4.88832507977281e-18
0
-4.69555337583105e-18
-2.44416253988643e-18
0
0
0
0
0
0
-2.44416253988622e-18
0
0
-7.52525932360041e-18
-1.9277170394151e-19
0
0
-7.13971591571732e-18
0
7.13971591571733e-18
0
5.08109678371446e-18
7.13971591571733e-18
-4.50278167188957e-18
0
-2.44416253988646e-18
7.1397159157173e-18
0
0
4.88832507977285e-18
-4.88832507977246e-18
0
1.92771703941513e-19
-7.13971591571734e-18
0
-7.13971591571736e-18
1.92771703941513e-19
0
-4.88832507977295e-18
-4.69555337583111e-18
7.13971591571733e-18
-2.44416253988661e-18
2.44416253988629e-18
-4.695553375831e-18
0
-4.88832507977248e-18
0
2.44416253988626e-18
1.9277170394151e-19
-4.88832507977294e-18
0
0
0
0
0
0
0
5.08109678371441e-18
0
0
1.92771703941511e-19
0
4.69555337583173e-18
0
1.9277170394151e-19
-2.44416253988637e-18
1.92771703941514e-19
4.69555337583103e-18
1.92771703941511e-19
0
1.92771703941504e-19
-2.44416253988643e-18
0
2.25139083594512e-18
0
-1.92771703941514e-19
1.8215574787552e-16
1.69734774954084e-16
-4.9386559336628e-18
3.30299028970146e-18
3.20136463352324e-18
1.45540552839274e-18
-5.55094588730513e-18
-9.41661586497868e-16
-8.948096383615e-16
2.33078470276124e-18
-4.50579548771627e-18
0
5.30811386532567e-18
-2.94959178075548e-18
-1.6894694467488e-18
0
-3.17353173474849e-18
-5.31741836964985e-18
-4.87323073161698e-18
8.45969055503729e-18
0
0
0
-1.92115331361262e-19
0
0
0
3.24211593140868e-18
0
-6.13244899305477e-18
0
-2.46228963984115e-18
-4.98797282835346e-18
0
-4.30671693231304e-18
-2.14478414001133e-18
1.90910747454391e-19
1.91237870839153e-18
-3.56434229981524e-18
2.90161236813666e-18
-2.81877037368228e-18
-1.77838655247174e-16
-1.65759950527684e-16
-1.92675643542072e-19
0
0
2.36587652492963e-18
0
2.36587652492959e-18
0
2.17310390296275e-18
0
0
0
0
0
0
0
1.92772621966895e-19
0
4.73175304985955e-18
0
0
0
4.73175304985923e-18
4.73175304985953e-18
0
0
0
4.73175304985923e-18
4.7317530498592e-18
2.36587652492975e-18
-7.097629574789e-18
0
4.73175304985918e-18
0
0
-2.36587652492963e-18
0
0
0
2.36587652492953e-18
4.73175304985935e-18
0
2.36587652492957e-18
1.92772621966896e-19
2.36587652492962e-18
0
2.17310390296284e-18
0
4.34620780592541e-18
0
0
0
-4.73175304985928e-18
2.17310390296268e-18
0
0
1.92772621966901e-19
4.34620780592575e-18
0
-1.92772621966898e-19
0
0
2.36587652492976e-18
-2.36587652492938e-18
0
0
-2.55864914689664e-18
0
-7.09762957478892e-18
-2.5586491468965e-18
6.9048569528226e-18
4.34620780592538e-18
1.92772621966893e-19
0
2.36587652492941e-18
0
-4.53898042789221e-18
-1.92772621966894e-19
-1.6622166619269e-16
-1.68961671768827e-16
-5.15246240375971e-18
-2.81907668519425e-18
5.99344660260262e-18
0
0
8.21872638301292e-16
9.52500269771078e-16
0
4.72864584700668e-18
-4.99499374336715e-18
1.95095956706472e-19
0
-7.38262424278008e-18
-3.08828684393649e-18
0
-1.44688729795696e-18
1.60342208761268e-15
1.64413323147131e-15
-4.87503997619576e-18
0
2.0975758021157e-18
-7.06975166301015e-18
2.93915780167602e-18
4.5153884685513e-18
6.70113546181642e-18
0
0
2.76742027681337e-18
-1.05772264305068e-15
-1.08649534440171e-15
1.90397157663527e-19
0
0
-3.95480724203319e-18
1.90911158752048e-19
-5.16671942610578e-18
-3.06673156610925e-18
0
1.91734820788109e-19
0
6.9686761199511e-18
0
4.38794362539143e-18
0
1.92773574759488e-19
0
2.2903586000756e-18
8.96866082554242e-18
2.09758502531612e-18
0
1.70528556368957e-16
1.71431829065983e-16
0
-6.67830222546741e-18
-1.92773574759494e-19
4.38794362539169e-18
4.19517005063231e-18
2.29035860007543e-18
4.5807172001511e-18
0
0
0
8.96866082554221e-18
4.58071720015116e-18
2.29035860007581e-18
-6.87107580022675e-18
1.68238197768883e-16
1.67120912597148e-16
1.92773574759491e-19
0
0
2.29035860007561e-18
2.29035860007564e-18
4.38794362539133e-18
0
-1.92773574759487e-19
-2.29035860007575e-18
-1.92773574759489e-19
2.09758502531596e-18
-8.77588725078365e-18
-7.06384937498648e-18
0
-1.92773574759485e-19
-4.58071720015117e-18
1.92773574759489e-19
-1.92773574759494e-19
0
-2.29035860007586e-18
0
1.92773574759489e-19
-2.2903586000756e-18
2.29035860007562e-18
0
0
0
2.09758502531609e-18
4.19517005063212e-18
2.29035860007557e-18
-2.29035860007568e-18
0
0
-2.48313217483505e-18
8.96866082554292e-18
2.29035860007569e-18
1.92773574759487e-19
1.92773574759483e-19
0
4.58071720015132e-18
0
0
-2.2903586000756e-18
8.96866082554308e-18
-1.92773574759485e-19
0
0
0
2.29035860007565e-18
2.09758502531608e-18
0
-2.12974737823346e-18
-7.28457899516326e-18
1.9374960398868e-19
-3.87936892416762e-19
-1.33827962725772e-18
1.65778064555409e-18
7.48381456161376e-18
-1.68671101001241e-18
-4.15717747782672e-18
2.08910861711189e-18
0
7.30214972882951e-18
0
-2.76584607188165e-18
2.97058612636255e-18
2.92185749736461e-18
3.55264694260877e-18
-1.50345538596419e-15
-1.62364482691759e-15
0
0
0
-4.36990701970759e-18
7.58758200649445e-18
0
1.33112068594167e-18
0
-4.28751951425846e-18
1.89750067335649e-19
1.10167645786719e-15
9.66974156498928e-16
6.78635229600171e-18
-8.43049624571852e-18
5.72585836344662e-18
2.00335386823946e-18
1.90911583909591e-19
3.5781637456957e-18
7.20775075130317e-16
7.9778402772864e-16
0
-7.21644936210918e-16
-7.97204316706902e-16
0
-8.48449489955356e-18
-2.21751100672874e-18
-2.21751100672845e-18
-2.21751100672845e-18
0
0
-2.21751100672857e-18
1.5002206430046e-16
-1.25613933159946e-17
-1.60609538338813e-16
0
-2.21751100672843e-18
0
-1.9277456367999e-19
6.26698389282532e-18
0
6.45975845650547e-18
-1.52046800743509e-16
-6.71846003549996e-18
1.52212606912992e-16
0
-2.21751100672845e-18
0
1.92774563679994e-19
-1.62363257522421e-16
-1.63384259634467e-16
4.24224744977689e-18
-2.21751100672843e-18
-4.24224744977717e-18
2.21751100672843e-18
-4.24224744977721e-18
4.24224744977695e-18
0
6.65253302018538e-18
0
-2.21751100672847e-18
-2.21751100672847e-18
0
0
-6.4597584565054e-18
2.02473644304848e-18
-6.26698389282541e-18
-2.21751100672856e-18
2.21751100672829e-18
0
-2.21751100672873e-18
0
-4.43502201345689e-18
0
-8.48449489955439e-18
0
0
3.20484267595063e-16
3.15431548174013e-16
-2.21751100672845e-18
0
-1.54071537186556e-16
-1.56454854362771e-16
-1.92774563679998e-19
-1.92774563679992e-19
0
0
2.02473644304845e-18
0
-2.02473644304862e-18
0
-6.26698389282536e-18
0
0
-2.21751100672841e-18
0
0
1.58506559200016e-16
1.51799211360301e-16
-1.92774563679994e-19
-4.04947288609689e-18
-2.01453166106187e-18
-4.1114305440617e-18
-2.41210900672675e-18
-2.83010004541939e-18
-5.77935567696093e-18
6.10201936716106e-18
-3.58318624268881e-18
-1.70857987791005e-18
3.81833587393521e-18
-8.02104110979728e-18
0
2.13423861707498e-18
-6.84075115310004e-18
0
-1.95501604465473e-19
3.91412868304942e-19
1.69510233428924e-18
7.40693970487764e-18
-1.25444373662798e-18
-1.29275205462462e-17
-8.747175217276e-18
0
-9.64019994735519e-20
-2.20811069846727e-18
-4.56304827211724e-18
-1.21097289541001e-17
5.85103937182796e-18
6.14771994972739e-18
-2.93839800317632e-18
-5.31143914326945e-18
1.90008089459535e-19
4.39143860824116e-18
0
6.19363708105123e-18
-3.86640433495419e-18
-1.55482152958294e-18
1.9091202335035e-19
-1.91069255707268e-19
-7.75957106195095e-16
-6.89895003192615e-16
4.71513353647799e-18
7.63489991753723e-16
7.13841178701875e-16
-4.08184669390686e-18
-2.14723944339842e-18
1.59029258570471e-16
1.61177659719833e-16
2.14723944339856e-18
0
-4.2944788867968e-18
0
-1.5278031583042e-16
-1.46333205617874e-16
0
0
-2.14723944339839e-18
1.92775590145709e-19
0
0
0
0
1.50825851977154e-16
6.46913005607217e-19
-1.45237489635367e-16
0
0
0
4.10170329665138e-18
0
-6.44171833019548e-18
-1.92775590145709e-19
-1.92775590145715e-19
0
0
2.14723944339851e-18
0
-4.10170329665104e-18
-4.10170329665104e-18
1.92775590145709e-19
1.9277559014571e-19
-1.92775590145708e-19
0
0
-1.92775590145706e-19
4.29447888679671e-18
-2.14723944339852e-18
1.92775590145704e-19
-8.39618218344736e-18
-1.95446385325267e-18
0
0
1.95446385325283e-18
6.05616714990383e-18
-4.10170329665136e-18
1.92775590145708e-19
-1.92775590145714e-19
-3.07707871104218e-16
-3.14386206850197e-16
-2.14723944339841e-18
-2.14723944339856e-18
1.48871388123905e-16
3.15800755735187e-16
1.5750209698915e-16
4.2944788867971e-18
1.92775590145707e-19
0
-1.60790946833567e-16
-1.55560504776735e-16
2.14723944339852e-18
1.92775590145714e-19
0
2.14723944339853e-18
0
-1.95446385325267e-18
0
0
-1.46531373090359e-16
-1.50226889438146e-16
-2.14723944339869e-18
0
0
-4.35502550093123e-18
0
-4.71210500304901e-18
5.58607953953016e-18
0
1.94315123098596e-19
0
3.68443458064184e-18
2.22654091009678e-18
-1.94779572143315e-19
2.24944786355571e-18
1.95070203001249e-19
-3.90524703020143e-19
2.5593977631055e-18
-5.49533079162921e-18
5.76735653092233e-18
7.31359391106522e-18
-1.59130048711599e-18
-2.37998786540629e-18
0
-1.92799928566184e-19
1.88665970845927e-18
1.94566994982402e-18
-4.58292366686191e-18
0
1.40700045318478e-18
-1.89419956844345e-19
7.92992012711794e-18
9.85223440983597e-18
-4.92773990256752e-18
0
1.90402199835275e-19
-2.05588486476105e-18
3.53926208931395e-18
0
-1.90912477507353e-19
1.48329445559164e-18
-2.74529683961905e-18
5.2063713020796e-18
-9.47953422501063e-18
-4.51814865402638e-18
-3.83226623983402e-18
2.06987940978449e-18
3.96612923165073e-18
-1.63107447927929e-16
-1.49814624185294e-16
-2.07945294364191e-18
3.96612923165041e-18
0
-1.92776655633171e-19
0
0
2.07945294364189e-18
-1.88667628800875e-18
0
-6.04558217529244e-18
0
-6.04558217529246e-18
0
0
0
-3.77335257601777e-18
0
3.77335257601728e-18
2.0794529436418e-18
-1.92776655633174e-19
0
0
0
5.85280551965928e-18
0
5.85280551965928e-18
1.88667628800863e-18
4.15890588728362e-18
0
2.07945294364188e-18
0
2.07945294364217e-18
-3.96612923165062e-18
3.96612923165058e-18
0
-3.96612923165042e-18
0
0
0
2.07945294364205e-18
-1.92776655633162e-19
4.15890588728378e-18
0
0
0
1.92776655633162e-19
0
0
1.88667628800891e-18
0
0
0
0
0
-1.51401836888609e-16
-1.55876811726847e-16
0
1.92776655633172e-19
3.77335257601741e-18
1.53288513176619e-16
1.53802435760825e-16
2.07945294364204e-18
0
-4.15890588728381e-18
2.07945294364193e-18
1.88667628800878e-18
-2.07945294364188e-18
0
4.15890588728364e-18
-1.92776655633177e-19
3.96612923165062e-18
-1.92776655633153e-19
0
-1.92874786010279e-19
1.7221984355247e-18
0
-4.54512445041939e-18
-1.93964066461425e-19
-1.94153474713851e-19
1.94311115431032e-19
0
-1.68036074981797e-18
-3.73264006795634e-18
-4.31351362096936e-18
1.97766943668725e-18
8.8384336363715e-18
1.95251675629395e-19
4.92335021611041e-18
5.67566845379315e-18
3.91591938531366e-19
-1.60272587842852e-18
-5.37471254286605e-18
-2.87813374255118e-18
-1.93424601571537e-19
1.92801007981889e-19
-9.64041658722543e-20
0
4.79970153206182e-18
3.79724115332661e-19
5.41294128720023e-18
-2.66683841666487e-18
1.05452153648769e-17
-2.5585368431496e-18
-4.18504627052769e-18
-2.03344948795373e-18
0
-1.90549086083951e-19
1.51314868229056e-18
1.90780224611739e-19
-4.77299726144464e-18
6.09799906091435e-18
6.50860657432853e-16
7.25425016657194e-16
4.57857115360844e-18
4.18136164612553e-18
0
-5.82195755658552e-18
2.0140637583206e-18
0
0
-1.92777761680839e-19
-3.83534975496035e-18
2.0140637583206e-18
0
-1.92777761680842e-19
1.92777761680835e-19
-2.20684152000121e-18
0
1.9277776168084e-19
0
2.01406375832073e-18
0
2.01406375832059e-18
2.01406375832061e-18
1.92777761680836e-19
0
0
1.92777761680843e-19
0
-1.92777761680832e-19
-7.12137565937845e-16
-7.11056396096258e-16
-2.01406375832051e-18
0
2.01406375832072e-18
0
-3.83534975496052e-18
2.01406375832067e-18
2.01406375832073e-18
-7.13573296411178e-16
-7.08047097311326e-16
0
5.65663575159969e-18
-1.92777761680838e-19
2.0140637583206e-18
1.92777761680841e-19
2.20684152000152e-18
1.92777761680831e-19
2.0140637583206e-18
0
2.01406375832052e-18
0
2.01406375832059e-18
2.01406375832062e-18
7.19229932162828e-16
7.1388629046071e-16
0
-2.0140637583206e-18
4.02812751664165e-18
1.82128599663981e-18
1.92777761680835e-19
2.01406375832052e-18
0
0
0
2.01406375832059e-18
0
0
2.01406375832058e-18
-4.02812751664121e-18
0
-3.83534975496065e-18
-2.01406375832051e-18
3.83534975495995e-18
3.83534975496052e-18
2.0140637583208e-18
0
2.01406375832059e-18
5.84941351328127e-18
-3.64257199327992e-18
-4.0281275166412e-18
-4.02812751664123e-18
0
-3.81743686137824e-18
-2.04217302720928e-18
-1.93505455910148e-19
-2.38577099472537e-18
-5.02582184847984e-18
-5.67645626547445e-18
4.67355108544584e-18
1.72112359537711e-18
-5.24335639466321e-18
-5.10959803592648e-18
1.98978115465934e-18
0
1.25848491163325e-17
-1.11269473400437e-17
4.73489874134523e-18
-7.62128708771092e-18
2.66612688367024e-18
0
-3.90892475215499e-19
4.42354519075219e-18
-2.07230441794862e-18
-4.02815429548459e-18
0
-1.92117866969861e-19
2.129444203642e-18
-1.89865071781604e-19
0
5.12770893382248e-18
-1.89548754200444e-19
2.08809848261987e-18
1.90017854909894e-19
3.91325240663671e-18
0
0
1.90669188873132e-19
6.61597040084882e-18
1.47095045757316e-18
0
-1.33160140990187e-15
-1.31825689876875e-15
-2.30740312184267e-18
1.92016129741392e-19
7.52675981550766e-18
0
1.75820833213587e-18
3.90197448405586e-18
3.90197448405589e-18
-1.95098724202801e-18
0
0
-1.95098724202808e-18
1.95098724202793e-18
3.90197448405586e-18
-3.7091955741637e-18
1.950987242028e-18
0
5.66018281619215e-18
0
-4.09475339394768e-18
1.92778909892061e-19
0
0
5.66018281619194e-18
1.95098724202793e-18
1.95098724202793e-18
1.75820833213601e-18
1.95098724202793e-18
6.94237111619453e-16
6.85231878517118e-16
0
1.95098724202794e-18
1.95098724202793e-18
0
1.92778909892063e-19
1.95098724202793e-18
0
6.94429890529396e-16
6.93119886662978e-16
0
-1.95098724202795e-18
1.95098724202795e-18
3.70919557416379e-18
-1.92778909892061e-19
0
0
1.92778909892063e-19
0
-1.95098724202801e-18
-1.95098724202781e-18
0
-3.70919557416404e-18
-6.87204278290964e-16
-6.92419981888998e-16
1.95098724202793e-18
-1.92778909892068e-19
0
-1.92778909892061e-19
-3.51641666427216e-18
-1.92778909892057e-19
1.95098724202781e-18
-1.92778909892059e-19
0
0
1.95098724202795e-18
1.75820833213587e-18
1.95098724202808e-18
0
0
-3.90197448405615e-18
-1.92778909892065e-19
0
1.95098724202793e-18
3.70919557416405e-18
0
1.9277890989206e-19
0
1.95098724202794e-18
1.95098724202792e-18
1.75820833213588e-18
3.90197448405615e-18
0
0
1.93506252045315e-19
4.42240588278246e-18
-2.71710643227592e-18
-1.9414751724344e-19
-2.55756662328635e-18
-3.13503455364856e-18
-1.36346128333991e-18
0
1.72790819415739e-18
3.89772936471113e-19
5.8512573794519e-19
0
1.0072196655123e-15
1.00839594955668e-15
-5.32210416165441e-18
2.79843719396569e-18
-4.97945169857084e-18
-4.45878378299946e-18
0
0
0
1.74926528078081e-18
4.10541368636963e-18
1.89868182076096e-19
-5.00564410175065e-18
4.92914018903065e-18
3.79109112829603e-19
2.19021656442994e-18
-2.02401692470435e-18
1.90232857757641e-19
7.24586443735622e-18
-1.85439215998818e-18
1.90670292608443e-19
-4.69271116358674e-18
-1.6074550742839e-18
-3.22523688189439e-18
6.8723141519122e-16
5.95590856546638e-16
-1.9173448238104e-19
-3.90698870561636e-18
-1.53132233064049e-18
0
1.89014174353435e-18
1.89014174353434e-18
0
1.69736164159619e-18
0
0
0
-1.92780101938091e-19
0
1.89014174353428e-18
1.89014174353434e-18
1.69736164159638e-18
3.5875033851307e-18
1.89014174353421e-18
0
0
5.28486502672663e-18
6.51237221897642e-16
6.75018802354e-16
5.4776451286645e-18
0
-1.92780101938083e-19
1.69736164159639e-18
-2.08292184547236e-18
0
3.20194318125453e-18
0
-1.69736164159625e-18
3.58750338513098e-18
-1.89014174353421e-18
7.1750067702609e-18
0
9.06514851379555e-18
0
0
0
-1.69736164159639e-18
0
0
0
1.89014174353446e-18
0
6.7746876692927e-16
6.65921142474674e-16
0
3.58750338513032e-18
0
0
7.17500677026092e-18
0
1.89014174353439e-18
3.58750338513061e-18
1.89014174353429e-18
0
1.69736164159637e-18
-2.08292184547236e-18
0
-3.58750338513097e-18
6.73302923238319e-16
6.53893540617766e-16
-9.06514851379548e-18
0
0
-6.6801805821157e-16
-6.54729387598009e-16
1.89014174353449e-18
-2.08292184547235e-18
-1.92780101938099e-19
-1.92780101938084e-19
1.92780101938088e-19
-1.69736164159638e-18
-2.08292184547256e-18
-7.17500677026115e-18
-1.69736164159639e-18
6.76697646521511e-16
6.49978703193149e-16
1.92878620515737e-19
-1.72301928115297e-18
1.93507077927437e-19
0
0
5.10485328999727e-18
0
4.44218099322241e-18
0
-5.12494711621356e-18
5.37906283545836e-18
-1.76309663615747e-18
-6.2299940330483e-18
-1.95217623312243e-19
-9.17099622055059e-16
-1.04233283920561e-15
7.58748109910501e-18
-7.70390457086103e-18
0
0
1.93427957517804e-19
0
0
0
5.93605033546588e-18
7.10400644569672e-18
-2.59593576686456e-18
1.89444521245472e-19
0
4.59097761461851e-18
-1.94661951327009e-18
-5.43331355954534e-18
-1.90409709440123e-19
-5.18529611496288e-18
-1.90671431997459e-19
1.44474352382435e-18
0
-8.4278294164511e-18
0
2.1661342490728e-18
0
5.56953964506904e-18
-5.37663199650861e-18
-1.9268421200385e-19
-3.66289700022022e-18
3.47011566065919e-18
1.92781339561277e-19
0
0
6.94023132131863e-18
0
0
0
0
-6.34260298285106e-16
-6.49993655387245e-16
0
0
-1.83144850011042e-18
0
-1.92781339561286e-19
-6.49875844532515e-16
-6.31494186976964e-16
0
5.30156416076979e-18
-5.10878282120776e-18
1.92781339561285e-19
0
1.92781339561291e-19
0
5.10878282120833e-18
0
1.63866716054919e-18
0
3.66289700022032e-18
-5.10878282120834e-18
-5.10878282120755e-18
0
6.94023132131864e-18
-1.83144850011016e-18
0
0
-1.92781339561286e-19
1.92781339561283e-19
0
1.92781339561289e-19
-6.39176299766807e-16
-6.47483087903553e-16
0
1.92781339561294e-19
6.46791291550936e-16
6.40359311372882e-16
0
3.47011566065956e-18
0
1.92781339561278e-19
1.92781339561288e-19
1.92781339561284e-19
6.94023132131878e-18
-1.9278133956129e-19
0
1.92781339561282e-19
-6.35513402766582e-16
-6.52445434980588e-16
0
0
-1.63866716054913e-18
6.338747356061e-16
1.30659899167076e-15
6.33510790578949e-16
0
0
0
-1.92781339561281e-19
0
0
5.10878282120829e-18
0
-6.26934504284735e-16
-6.5156623795958e-16
0
0
-3.77651551475256e-18
0
-4.52353253542288e-18
0
6.81694904829931e-16
6.16082661726381e-16
1.94537859696984e-19
-4.7532380322627e-18
3.59102496296616e-18
-3.39321258998821e-18
2.00525407563418e-18
0
0
0
2.36822125612437e-18
0
-2.30591736993288e-18
1.9457937182582e-19
-7.14402502585869e-18
0
-3.26045211892917e-18
0
7.62911271036878e-18
6.65325917345668e-18
7.31955043070323e-18
-4.553175853791e-18
-6.69867653220244e-18
-1.89781940325897e-19
9.74002236855077e-18
3.67467282260496e-18
-1.90411737522044e-19
1.7317310641431e-18
1.27246484188117e-18
1.96318150802452e-18
1.9091498487829e-19
0
-2.47233353657422e-18
4.17642701240926e-18
1.89852015877557e-18
1.92184290287036e-18
-3.40518230673669e-18
0
0
6.09036728931103e-16
6.3572532113904e-16
4.93892935761904e-18
0
-1.92782624578548e-19
0
0
0
-1.77483153559193e-18
6.29217799525079e-16
6.08784089537671e-16
0
0
3.35688044660532e-18
0
-3.35688044660508e-18
0
3.35688044660508e-18
0
6.08651163681971e-16
6.25509576207584e-16
0
-1.77483153559181e-18
0
0
-3.3568804466053e-18
0
-6.71376089321063e-18
-6.71376089321065e-18
0
1.92782624578549e-19
4.93892935761869e-18
0
0
0
0
0
5.13171198219706e-18
-6.71376089321063e-18
0
-1.9278262457855e-19
5.13171198219691e-18
-5.13171198219742e-18
-3.35688044660529e-18
0
-6.20111071308181e-16
-6.27778906918933e-16
4.93892935761832e-18
-3.35688044660532e-18
1.92782624578548e-19
-1.9278262457856e-19
-5.13171198219733e-18
0
0
0
0
-1.77483153559192e-18
-6.71376089321021e-18
0
-3.3568804466051e-18
-3.3568804466053e-18
0
0
-6.10233212592943e-16
-6.30547209042694e-16
1.92782624578549e-19
-1.77483153559194e-18
-3.54966307118397e-18
-1.77483153559188e-18
4.93892935761886e-18
0
-6.90654351778913e-18
-6.71376089321022e-18
0
0
-1.92881427815378e-19
3.40488225908305e-18
0
0
0
-2.27975629675453e-18
-5.69853869531752e-16
-6.83152387107878e-16