/*--------------------------------*- C++ -*----------------------------------*\
  =========                 |
  \\      /  F ield         | OpenFOAM: The Open Source CFD Toolbox
   \\    /   O peration     | Website:  https://openfoam.org
    \\  /    A nd           | Version:  7
     \\/     M anipulation  |
\*---------------------------------------------------------------------------*/
FoamFile
{
    version     2.0;
    format      ascii;
    class       volScalarField;
    location    "20000";
    object      Dk;
}
// * * * * * * * * * * * * * * * * * * * * * * * * * * * * * * * * * * * * * //

dimensions      [0 2 -3 0 0 0 0];

internalField   nonuniform List<scalar> 
15600
(
0.00320168941562732
0.00142150609684195
0.000339390056634231
0.000121103761181631
0.000170431997449281
4.16751886586823e-05
6.92762166654095e-06
3.84023936657294e-06
3.99850504967583e-06
4.67937881930853e-06
5.733758890849e-06
7.27452683017789e-06
9.31541025331324e-06
1.17361670883971e-05
1.44517692481057e-05
1.70847291904955e-05
1.86044684544543e-05
1.7900868090816e-05
1.45313863064707e-05
9.11721836479123e-06
4.56211142919465e-06
2.97339563835842e-06
4.18545093038612e-06
6.88660357134091e-06
1.07705312332375e-05
1.64090357219555e-05
2.41514158781132e-05
3.41379208981751e-05
4.63045647550746e-05
6.04084257973996e-05
7.61343712937933e-05
9.31582307637574e-05
0.000111201372742023
0.000130038209078085
0.00014949583548326
0.000169440663943189
0.000189768707522456
0.000210395601377772
0.000231250346299425
0.00025227025661177
0.000273397817075567
0.000294578453824001
0.000315759162859855
0.000336887567099045
0.000357911565807497
0.000378779579559893
0.000399441837809003
0.000419852346526715
0.000439970677444536
0.000459762547087699
0.00047920072742438
0.000498255933233992
0.000517060081662339
0.000535499644649363
0.000553393456499743
0.000570571344007704
0.000586908365655594
0.000602358675898287
0.000616880341090231
0.000630435492674106
0.000642990577890609
0.000654516639567096
0.000664989521702165
0.00067438984809764
0.000682702893560701
0.000689918377968181
0.000696030123388532
0.000701035365404124
0.000704933880926154
0.000707726933103281
0.000709415753113304
0.000709999902080491
0.000709475424038705
0.000707833317635309
0.000705058343235823
0.000701128371938724
0.000696013987214755
0.000689677333563705
0.000682069239429842
0.000673125107390108
0.000662761066445243
0.000650870545610499
0.000637323211910084
0.000621967099536205
0.000604636013667214
0.000585165719861179
0.000563420962730826
0.000539343507490232
0.000513012818647288
0.000484750019303107
0.000455202899430873
0.000425524290145977
0.00039738148438952
0.000373227845722513
0.000355835474111425
0.000348929478631069
0.000351782490700615
0.000357112377385089
0.000303499786138556
0.000205472456961048
0.000195329853625464
0.000240930111850561
0.00032191131675931
0.00044316562566059
0.000607929029285336
0.000813202013739671
0.00106227304571817
0.00132477400076408
0.0015614647858797
0.00175374406749855
0.00194122688947502
0.00213796385004847
0.00252980254434078
0.00324157122422584
0.00476281555058972
0.00813198050603293
0.0200496231047545
0.0253665978945058
0.00880184431274698
0.00394806399752611
0.0171145396325498
0.00786836277379869
0.0019949865635885
0.000688287631918253
0.000941947179410449
0.000255153841685852
4.49254052584687e-05
2.17783632776322e-05
2.18576322470879e-05
2.54091346013324e-05
3.10239323366963e-05
3.92774579331238e-05
5.02811182926895e-05
6.33965590588704e-05
7.81598519820946e-05
9.26967578818335e-05
0.000101543164052084
9.86032250998151e-05
8.10894894715143e-05
5.16439841342131e-05
2.59065599371749e-05
1.65733490732898e-05
2.31764034767022e-05
3.80487224325117e-05
5.95336877360956e-05
9.0741062657801e-05
0.000133591423999299
0.000188831186174581
0.000256063327072863
0.000333916945022273
0.000420634919374729
0.000514430395700174
0.000613774819550611
0.00071743518943529
0.000824465629827759
0.000934133443685108
0.00104586502998181
0.00115919207298703
0.00127371770183093
0.00138908953941759
0.00150498299314829
0.00162108949655524
0.00173710932449853
0.00185274674939797
0.0019677084328484
0.0020817051688254
0.00219445910023564
0.00230571428119894
0.00241524644481726
0.00252286630784508
0.00262842525008181
0.00273176108580454
0.00283360670061266
0.00293334773878928
0.00302941654542585
0.00312097609114152
0.00320783844316984
0.0032897747680238
0.00336657808618666
0.00343806420956347
0.00350407294242877
0.00356446912460645
0.00361914332827063
0.00366801137825242
0.00371101338448073
0.00374811229960087
0.00377929177020632
0.00380455224208699
0.00382390614567785
0.00383737221434623
0.00384496722902164
0.00384669765499596
0.00384254986017544
0.00383248250270233
0.00381642043779865
0.00379425137761426
0.00376582378113668
0.00373093979091536
0.00368934030153827
0.00364068315752958
0.00358452322977826
0.00352029485313192
0.0034473060889603
0.00336475026699782
0.0032717444376305
0.0031674138067741
0.00305103431315811
0.00292228253127529
0.00278156150619232
0.00263054138956305
0.0024726393708158
0.00231392959121543
0.0021632852553033
0.00203362225149103
0.00193945173651898
0.00189916988938399
0.00190730292559119
0.00191677796375751
0.00163034581887948
0.0011338938277128
0.00109266700547668
0.00135663236365616
0.00181662930139862
0.0024970625710016
0.00341040819443721
0.00454083232442701
0.00589813398192231
0.00731356527444957
0.00858408270648889
0.0096290834411814
0.010662544553459
0.0117885826323202
0.0140115841081194
0.0180564297382106
0.0266248092223715
0.0456785743038844
0.103858606616974
0.127086163024248
0.0492741385772726
0.0223865291290065
0.0429235950396191
0.0198788064798562
0.00528974108699402
0.00170465177064662
0.00225436216951787
0.000677343067158584
0.000127235858106502
5.51538893474804e-05
5.3055262738235e-05
6.118741545415e-05
7.44113389032709e-05
9.39591039276368e-05
0.000120146789014812
0.000151449358806175
0.000186395521753452
0.000220714906369378
0.000241702181035953
0.000235387851829169
0.000195582904026969
0.00012719840859779
6.47526138712084e-05
4.10249504425225e-05
5.72023147969449e-05
9.40583356999124e-05
0.00014769518362031
0.000225987852923882
0.000333557025290789
0.000471799153961834
0.00063899887146529
0.000831070862257628
0.00104313081941572
0.00127047135275491
0.00150918066287626
0.00175618120333677
0.00200914144847424
0.0022662747490191
0.00252619088688719
0.00278776464237437
0.00305005261343367
0.00331223049259221
0.00357355441275664
0.00383333441772611
0.00409091818388596
0.00434568050767209
0.00459701985268987
0.00484436223847125
0.00508717488257438
0.00532498597242321
0.00555740556681555
0.00578413321914498
0.00600498553698678
0.00621960293433291
0.00643007049278578
0.00662974717054529
0.00681912118306389
0.00699821423102454
0.00716672365015215
0.00732437995290781
0.00747095440897489
0.00760625843078758
0.00773014406231894
0.00784250395628799
0.00794327058019463
0.00803241381656703
0.00810993791069956
0.00817587767039124
0.00823029321161028
0.00827326225197974
0.00830487105475008
0.00832520324955668
0.00833432547107292
0.00833227200821625
0.00831902849853272
0.00829451864001555
0.00825859385928052
0.00821102715702574
0.00815150646500418
0.00807961878107169
0.00799481952067402
0.00789639173762791
0.00778340660769363
0.00765468869662455
0.00750880107197483
0.00734406005872341
0.00715860000651843
0.00695052112542454
0.006718155737696
0.00646053275457075
0.00617804096436017
0.00587348082092001
0.00555320075452549
0.00522886050575544
0.0049181688283532
0.00464641660358273
0.00444134907152001
0.00432994942551467
0.00428403617497501
0.00416636587834345
0.00353432885591663
0.00267542285186617
0.00268821627288347
0.003359810234309
0.00448577949559233
0.0061156329966337
0.0082623122687973
0.0108913607611345
0.0140016628052448
0.0172238848455172
0.0201484041480981
0.0226564554169274
0.025200512955106
0.0280891667415957
0.0335146162955431
0.0432167139216943
0.0629213734494129
0.103941898277393
0.198658890991909
0.22231648208743
0.115435665916212
0.0596201547694969
0.0745825310897802
0.0366822395821506
0.0103750351786865
0.0030161304850068
0.00376250288953922
0.00126325589054747
0.000255451650648938
0.00010089610958912
9.24653456592365e-05
0.000105673995616177
0.000127970252843236
0.000161065163034661
0.000205416811745245
0.000258184354273444
0.000315642781025807
0.000370435492528631
0.000401820112291444
0.000388775963401694
0.000324694613942181
0.000217107072901719
0.000114260113485175
7.35092843610417e-05
0.000103903396287869
0.000172071715247029
0.000272216367271645
0.000418605152479713
0.000616177365100506
0.000862508095957473
0.00114904593276665
0.0014646494542786
0.00179888173278737
0.00214347935452602
0.00249257761113099
0.00284223524216383
0.00318988472095278
0.00353385387549547
0.00387304030892481
0.00420669125081937
0.00453426854631481
0.00485536229462118
0.00516963952043149
0.00547681258414423
0.00577662030149388
0.00606881775779094
0.00635317328653795
0.0066294730279616
0.0068975319604056
0.00715721366045856
0.00740846391443173
0.00765133599874757
0.00788616771861461
0.00811175631906787
0.00832362869462257
0.00852414822630528
0.00871336841751084
0.00889124615926228
0.00905771193461506
0.00921271332334727
0.00935621585651446
0.00948820416360209
0.00960868191429034
0.00971767271978384
0.00981521908774901
0.00990138094229111
0.0099762332516982
0.0100398631933621
0.0100923652674597
0.0101338354594468
0.0101643640479639
0.0101840251595057
0.0101928670457397
0.0101908972335499
0.0101780718389867
0.0101542826132744
0.0101193486348671
0.0100730096053574
0.0100149146834536
0.00994460728938491
0.00986149190424263
0.00976479904313819
0.00965354423936283
0.00952649284525109
0.00938214005737111
0.00921871044983996
0.00903420413339887
0.00882650856544333
0.00859362506161335
0.00833406776263353
0.00804750154920392
0.00773572126813011
0.00740394258996523
0.00706246196654291
0.00672778904787365
0.00642265934966438
0.00616955896170358
0.00597560581450021
0.00578386203429705
0.00542973267084769
0.00469794739299299
0.00407052616559512
0.00438257653019008
0.00552465628901515
0.00733361953765193
0.00986704303354483
0.0131100542917075
0.0170203513954777
0.0215611058989865
0.0262746890493816
0.0307341708743214
0.0349138002080646
0.0393602880936892
0.0446216522268532
0.0535819967165277
0.0687309834778866
0.0965435888174929
0.145793140280983
0.215995121194321
0.207550920662956
0.14975598203613
0.099382858105276
0.0920828970950373
0.0540539896938246
0.0174794159001265
0.0045878260327012
0.00516959115838905
0.001962479253591
0.00043224044913723
0.0001587504282964
0.000137875711378791
0.000155944196383851
0.000187953973815357
0.000235481652065054
0.000298656232576604
0.000372454429136086
0.00044899572143022
0.000516963475469462
0.000548882192143977
0.000521631418652677
0.0004349514994875
0.000301421175005933
0.000168446352410436
0.000114663025855981
0.000168125647076341
0.000279443963063446
0.000443581965874971
0.000672936368853779
0.000960576285802994
0.00128929987878231
0.00163973065761441
0.00199715158139796
0.00235257176949536
0.00270144021464364
0.00304177935941337
0.0033730049692561
0.00369514060941357
0.00400846885163327
0.00431332515178452
0.00461002803068105
0.00489883955734843
0.00517996088855635
0.00545353239662751
0.00571964167227621
0.00597833073549035
0.00622960601499133
0.00647344798997773
0.00670982322916319
0.00693869661847845
0.00716005366009327
0.00737395151822288
0.00758052990905913
0.0077779022872739
0.0079646554424587
0.00814157227243662
0.00830914057659436
0.0084673321452774
0.00861611172299507
0.00875543874350803
0.00888528611939514
0.00900563689820634
0.00911648719323747
0.00921784534747315
0.00930973302924317
0.00939218410992926
0.00946524371837127
0.00952896630151895
0.00958341341469039
0.0096286496989029
0.00966473879647075
0.00969173815139629
0.00970969090919358
0.00971862028111872
0.00971851800111945
0.00970933839400694
0.00969098806421875
0.00966331991966327
0.0096261272545082
0.00957913289829482
0.00952197886209758
0.00945420098220317
0.00937520685145359
0.00928424613159857
0.00918038745366889
0.00906250638558909
0.00892928546622661
0.00877925046061716
0.00861084908505997
0.00842261331985437
0.00821343156143819
0.00798299900073207
0.00773245244010544
0.00746526077310506
0.00718807526592698
0.00691118636459671
0.00664668275414298
0.00640191479147967
0.00616176190145319
0.00586574677456484
0.00540842635040018
0.00482994250992469
0.00466529397537227
0.00532601091952025
0.00676009989032412
0.00890953314037525
0.0118051130960575
0.0153911926179531
0.0196342350228027
0.0244657706491654
0.0295242584325435
0.0345912645412308
0.0398580952268608
0.0458133293324085
0.0531786678950149
0.0644784797140099
0.0818742023482973
0.109079784129259
0.147615847530301
0.177161205164984
0.158069764810195
0.13832754497473
0.117043036969522
0.0929412619632661
0.0667895548265909
0.026377485691385
0.0064633751738773
0.00618314843289935
0.00269416892601602
0.000657111461975629
0.000229549347983365
0.00018820820669071
0.000210290867901726
0.000251930781889883
0.000313325992508605
0.000393155243125264
0.000482774818949988
0.0005682011330592
0.000633997990012493
0.000650970891083421
0.000602734812187441
0.000500741164369554
0.000363908735795955
0.00022350428198947
0.000169195142668128
0.000257150098221614
0.00042378621972744
0.000655798712622082
0.000947216551761033
0.00127130817802605
0.00160405880015589
0.00193182728388749
0.00225010888278007
0.00255813235985187
0.00285653681507883
0.00314607760823709
0.00342751664750476
0.00370143252749737
0.00396829784820314
0.00422844983218977
0.00448213876961856
0.00472953010057869
0.00497072932253999
0.00520578973175693
0.00543472596376623
0.00565752144160363
0.00587413814909923
0.00608452393915349
0.00628862100528838
0.00648637315738518
0.00667774249429305
0.00686277156827037
0.00704007844955323
0.00720875734005769
0.00736917322427977
0.00752154744593036
0.00766601183807762
0.00780250195548498
0.00793097452075483
0.00805138370017141
0.00816369808608917
0.00826789490025437
0.00836396323734438
0.0084519027470618
0.00853172431525044
0.00860344897718107
0.00866710703829483
0.00872273633080776
0.00877038024064458
0.00881008446866264
0.00884189384202576
0.00886584831638642
0.00888197691261786
0.0088902937538425
0.00889078966538399
0.00888342786921351
0.00886813614339798
0.00884480174347742
0.00881326616941451
0.00877331628756108
0.00872467678996753
0.00866699254642595
0.00859981362544524
0.00852257480517038
0.00843458075619464
0.00833499970805689
0.00822286692135075
0.00809711534290718
0.00795663687338052
0.00780040378120172
0.00762766151343608
0.00743824275204175
0.00723296753857601
0.00701418262161748
0.00678604331020479
0.0065543157331076
0.00632372551645133
0.00609206923097847
0.00583611449678618
0.00550721541385279
0.0050592906355486
0.0046419661629671
0.00474357644912748
0.00555587615218186
0.00702755523927772
0.00915045572761639
0.0119204608974644
0.0152632865547685
0.0191553977071138
0.0235206396263946
0.0281175399991352
0.0328917676674134
0.0381716588406974
0.0443811160648463
0.0523094878295567
0.0637341267688721
0.0799503286523229
0.101806081731475
0.127690703334086
0.138334920484342
0.123013985105247
0.113107808410509
0.116553575904713
0.0862959522911748
0.0737403740059674
0.0362428860915209
0.0087862205274624
0.00661039027015114
0.00333083515934217
0.000920215402663888
0.000313712126823213
0.00024238241388153
0.00026679696818766
0.000316869140050155
0.000389349849911355
0.0004796995071655
0.000574228120586294
0.000652760863037751
0.000698791938903384
0.000690515117618861
0.000625372032796623
0.000523617400058457
0.000402346356614259
0.000280397265448614
0.000243563499945782
0.000373175073293204
0.000593471273866251
0.000868081492796705
0.00117071492793722
0.00147255456888213
0.00176316960250561
0.00204257334299479
0.00231333013760445
0.00257690310208316
0.00283421159353311
0.0030856557379215
0.0033315528116792
0.00357206819346301
0.00380734112784805
0.00403744076060432
0.00426241043798546
0.00448225390026188
0.00469695315794621
0.00490646672416125
0.00511073789471464
0.0053096971559763
0.00550326817845838
0.00569137140086848
0.0058739287428201
0.00605086699685067
0.00622212215907065
0.00638709692860728
0.00654458215919923
0.00669482752184038
0.00683796093415842
0.00697404663332893
0.0071031078496319
0.00722507349422059
0.00733989936736846
0.00744753998847008
0.00754796403909272
0.00764114802551384
0.00772707928520694
0.00780575460184666
0.00787718056145435
0.00794137261431283
0.00799835422785278
0.00804815533557312
0.00809081055455694
0.00812635658161878
0.00815482957636053
0.00817626196751854
0.00819067790570414
0.00819809009888341
0.0081984937144785
0.00819186266754391
0.00817814354632005
0.00815725093435089
0.00812906270270761
0.0080934130678878
0.00805008677838741
0.00799880708843791
0.00793922464590464
0.00787090301540083
0.00779330860586362
0.00770580715977688
0.00760766898000206
0.00749809426424819
0.0073762617725749
0.00724142094837831
0.00709303141646107
0.00693098214122541
0.00675584092069988
0.00656915258615665
0.00637339886215791
0.00617142440451414
0.00596369942655229
0.0057434665230065
0.00548724690292009
0.00516061972242778
0.00475685905214373
0.00445707635986005
0.00467913064776571
0.00551617160324317
0.0069127604166854
0.008872674628906
0.0113700490584491
0.01433198450438
0.0177400807256198
0.0215232454358384
0.0255109437045824
0.0297302254678696
0.0345245502646777
0.0402553171170405
0.0476616520096696
0.0579559553851836
0.0718396752520952
0.0888824920593864
0.107092313469227
0.111470506800387
0.100768678000313
0.091413882863244
0.108518632474743
0.0779094873467247
0.0759440590560661
0.0458697255141993
0.0119945951773453
0.00655855877165892
0.00372815989824917
0.00119654881616291
0.000409875273884282
0.000298730480102391
0.000322638446289371
0.000378294507360286
0.00045625590142436
0.00054710695804481
0.000632436214172108
0.000689929493490315
0.000708505293924978
0.000680129106280516
0.000613037515870032
0.000526706470626888
0.000431677173591584
0.000341289140433212
0.000337590595628523
0.000506595191146738
0.000760097146233345
0.00103937675238336
0.00131497184380972
0.00157497320432672
0.00182370451195386
0.00206614168841054
0.0023044994583597
0.00253909708707276
0.00276992124068495
0.00299677300881573
0.00321956094859455
0.00343817078622666
0.00365253908972061
0.00386258599751424
0.00406824384550174
0.00426943316759633
0.00446607412274753
0.00465807943455076
0.0048453592465529
0.00502782078751937
0.00520537196932123
0.00537792276417562
0.00554538765129528
0.00570768731220841
0.00586464886805159
0.00601507018595296
0.00615892572505681
0.00629631890053443
0.00642728757504715
0.00655183606032698
0.00666994529309853
0.00678154762233402
0.00688660063727009
0.00698506208248558
0.00707690288033303
0.00716210125003777
0.00724064526350327
0.00731253156939795
0.00737776554816924
0.00743636052841647
0.00748833698459424
0.00753372116157625
0.00757254347552673
0.00760483638793507
0.00763063221447995
0.00764996051849691
0.00766284464851398
0.00766929910612717
0.00766932501531073
0.00766290677238021
0.00765000714050309
0.00763056285565385
0.0076044803477788
0.00757163035667142
0.00753184347625965
0.00748490201943641
0.00743053144370834
0.00736838977939612
0.00729806041507401
0.00721904998996296
0.00713079403102516
0.0070326774929456
0.00692407315029378
0.0068044113310363
0.00667328038442623
0.00653057692393306
0.0063766525934847
0.00621244846877052
0.00603927425930941
0.00585805439474067
0.00566682028547809
0.00545696231015908
0.00520764829800394
0.00489677148264557
0.00454152026510534
0.00432414855340653
0.0045986915627327
0.00541384001513882
0.00671245116040412
0.00849662423764258
0.0107298905269274
0.0133472371213829
0.0163321485336834
0.0196213324338819
0.02307964913211
0.0267857499020321
0.0310451424105575
0.0361675674466032
0.0427990215643925
0.0517941147474464
0.0635412684693479
0.0772412524798472
0.0910789691576742
0.0933993849690531
0.0858284415701176
0.0758358328025406
0.0982568593310712
0.0701980369035113
0.0746037058515036
0.0544732507236085
0.016159184836595
0.00641339653578897
0.0038172255248009
0.00144575807679045
0.000513439118498623
0.000354638575323594
0.000373919292705331
0.000430566291708755
0.000506354778441976
0.000586922286913085
0.000652543679508272
0.000685236486880829
0.000683098721380724
0.000648926940253542
0.000593244808974176
0.000529672790657339
0.000463735262962575
0.000408838257975249
0.000443405220355361
0.000640354482421716
0.00089984166092749
0.00115698388435055
0.00139511869967792
0.00162020436258413
0.00184063897838274
0.00205973843801253
0.00227755193430815
0.00249339913004295
0.00270669420117208
0.0029169705510304
0.00312394714965135
0.00332738972862026
0.00352714092504645
0.00372305263671342
0.00391500428667318
0.00410287725831496
0.00428656251107237
0.00446595181164767
0.00464094065239778
0.00481142673592927
0.00497731211197142
0.00513850325882301
0.00529491212852354
0.00544647146006616
0.00559254638575795
0.00573248934957507
0.00586642989732117
0.00599440695036409
0.00611641652491419
0.00623243512485327
0.00634242525727122
0.00644632483893466
0.00654409362235514
0.0066356930456821
0.00672109657723171
0.00680028467339051
0.00687324682816386
0.00693998046327246
0.00700049096384633
0.00705479102647241
0.00710289991049209
0.00714484221189971
0.00718064643644621
0.00721034322992697
0.00723396352297929
0.00725153637709059
0.00726308630150482
0.00726863105443491
0.00726817817314727
0.00726172194487477
0.00724923926641925
0.00723068549778004
0.00720599054036323
0.00717505464787832
0.00713774517055969
0.00709389112722474
0.007043276525788
0.00698563237876565
0.00692063129010255
0.00684788604237696
0.00676695484233021
0.00667735769012005
0.00657860604332978
0.00647025486243835
0.00635197304628051
0.00622364206233874
0.00608542954368273
0.00593781184810119
0.0057812543989891
0.0056153972825566
0.00543689352623541
0.0052366846330598
0.00499739699470115
0.00470665095702915
0.00439567806848543
0.00423670666154073
0.00453201338754368
0.00531100662355413
0.00651641798550704
0.00814468278627736
0.0101549876208812
0.012490770466473
0.0151358214617061
0.0180313865440643
0.0210693428208103
0.0243577645505415
0.0281573787842286
0.0327393504298565
0.0386587153709418
0.0465450455927232
0.0566191029645798
0.068043687857259
0.0791873962619141
0.0807904903499466
0.0751030084257587
0.0649802774150463
0.0878288518999335
0.0639626977649307
0.0705813257839195
0.0615001027132945
0.0211326990898679
0.00654548616911849
0.00367593056421665
0.00162608261864166
0.00061600801808729
0.000406636912924582
0.000416378727946452
0.000468636417087853
0.000535143980616508
0.000598671684669448
0.000642705494452023
0.000656964060340815
0.000646271523463517
0.000617635537263325
0.000579264158407768
0.000539566633997749
0.000501944855301508
0.000482024146321977
0.000550870895550654
0.000759719585207005
0.0010037663106236
0.00122974642741216
0.00143669238199008
0.00163910658815804
0.00184205615776038
0.00204631640374452
0.00225045217673997
0.00245342900901569
0.00265442808264853
0.00285291304620609
0.00304852514850947
0.00324098369294754
0.00343008575617547
0.00361564999538129
0.00379752775619933
0.00397557990273315
0.00414968176094427
0.00431971423790426
0.00448556539737896
0.00464712845955546
0.00480430291643255
0.00495699372032103
0.00510510900627328
0.0052485281744602
0.00538636338208595
0.00551851593493222
0.00564504498425867
0.0057659533462007
0.00588121459450944
0.00599079061578289
0.00609463546023892
0.00619269220276857
0.006284922472042
0.00637129102496178
0.0064517735934814
0.00652635274766825
0.00659501946214717
0.00665777218063669
0.00671461678286611
0.00676556604147572
0.00681063892930336
0.00684985951755357
0.0068832557048708
0.00691085771763327
0.00693269652441038
0.00694880204160868
0.00695920102435664
0.00696391524139239
0.00696295874330248
0.00695633514100339
0.00694403397715941
0.00692602679692831
0.00690226351761441
0.00687266915267814
0.00683714164146115
0.00679554836336447
0.00674772095690709
0.00669344908755341
0.00663247618917239
0.00656449834588257
0.00648916870112716
0.00640611021042043
0.00631493774954636
0.00621529588394473
0.00610690547764869
0.00598962291458187
0.00586346031202047
0.00572853203428833
0.00558468612275407
0.00543070059335765
0.0052624950965746
0.00507129550933947
0.0048431927486533
0.00457322510083682
0.00430048813640937
0.00418354331509074
0.00448382629415301
0.00522374287278381
0.00634661319416068
0.00784254577411937
0.00966961383432883
0.0117786074110223
0.0141527779901858
0.0167338821691641
0.0194424308001521
0.0223983502636869
0.0258242374233788
0.0299632080519546
0.0352933803197005
0.0422978652621133
0.0511011832866354
0.0609277447443607
0.0702687160755693
0.0716060886921691
0.0669869238369605
0.0572998968044241
0.0779994148336902
0.0592589260073838
0.0644580119848224
0.0668010671670631
0.026733519473085
0.00716178419036934
0.00346947461913783
0.00171913842359804
0.000707461391483812
0.000451272840976279
0.00044694816304022
0.000490388545233945
0.000543717444010857
0.000589549038160106
0.000616853868420036
0.000621863702887766
0.0006117434113314
0.000593861112762791
0.000573640721087137
0.000556303920055943
0.000544856430857226
0.000557079380582529
0.000651090966024447
0.000856830429261185
0.00107470559699507
0.00127269401385836
0.00145871191662842
0.00164759137727596
0.00183943153402721
0.00203365876965332
0.00222813263384781
0.00242182711877761
0.00261384837076845
0.00280366525702292
0.00299088476899073
0.00317520647012843
0.00335640036498145
0.00353426510045081
0.00370863355215747
0.00387935322370726
0.00404628895248623
0.00420931445302139
0.0043683127626383
0.00452317403107651
0.00467379583750822
0.00482008196729443
0.00496194049124672
0.00509906518046663
0.0052307457618663
0.00535704611190477
0.00547798751702141
0.00559355065423513
0.0057036957201894
0.00580837613052785
0.00590754192053002
0.00600114024537032
0.00608913418493817
0.006171491214117
0.00624818891708088
0.00631921167710977
0.0063845518183912
0.00644420883351016
0.00649818931416243
0.00654650649907593
0.00658917963512603
0.00662623297864092
0.00665769466220412
0.00668359540374312
0.00670396713798196
0.00671884151228783
0.00672824821436653
0.0067322134706494
0.0067307578514305
0.00672389384006428
0.00671162256067021
0.00669393002933136
0.00667078375024592
0.00664213014313747
0.00660789335115899
0.00656797320967688
0.00652224127552688
0.00647053580085745
0.00641265820564308
0.00634837200028407
0.00627740612553527
0.0061994645466406
0.0061142417435096
0.0060214487995111
0.00592084072201893
0.00581224526231148
0.00569554376734636
0.00557056701323231
0.005436709450662
0.00529217781146084
0.00513256356072991
0.00494975249622974
0.00473300409204542
0.00448290477391426
0.00424250750695941
0.0041561460722472
0.00445315173529635
0.00515501452403107
0.00620595638158883
0.00759022611592806
0.0092663927743598
0.011191222295567
0.0133467494385662
0.0156722544825301
0.0181209540047946
0.0208107117065325
0.0239351748821202
0.0277168558992813
0.0325713389220911
0.0388825473830646
0.0467165778010005
0.0553787600479338
0.0634335380651547
0.0646549394080809
0.0605995864933944
0.0516954158285506
0.0690484586814442
0.0558201422821565
0.0567999335324651
0.0706897020338994
0.0327245697836498
0.00837950693265104
0.00333960983704269
0.00174142561237356
0.000780685342643322
0.000486568475743994
0.000465153223849759
0.000497518002479787
0.000537496632642055
0.000569109551140443
0.000586293879194689
0.000589070491685733
0.000584154516812718
0.000578297564083249
0.000574955508400543
0.000577596687477429
0.000589339187410176
0.000628898549069856
0.000738194105157764
0.000930399120615002
0.00112070804787415
0.00129853428013919
0.00147195592942787
0.00165268076600028
0.00183698902864538
0.00202403615392054
0.00221141398040262
0.0023982325353732
0.00258358262898746
0.00276695538905816
0.0029479376543696
0.00312621594499608
0.00330153911154485
0.00347368972036661
0.00364248528216266
0.00380776213949711
0.00396937616089171
0.00412719476134571
0.00428109630315146
0.00443096776505446
0.00457670436471754
0.00471820822400243
0.00485541073153552
0.00498772325892049
0.00511482445230817
0.0052367566441389
0.00535351599918981
0.0054650684408672
0.00557136538140886
0.00567235480586866
0.00576798469526833
0.00585820514479475
0.00594298026090241
0.00602227962286432
0.00609608226770748
0.00616437407287843
0.00622714854324784
0.00628440618240771
0.00633615441005973
0.00638240718738882
0.00642318442687178
0.00645851107911701
0.00648841611979711
0.00651293142229959
0.00653209056267526
0.00654592755110127
0.0065544755033005
0.00655776541705732
0.00655582438770945
0.0065486734481438
0.00653632455686883
0.00651877698876476
0.00649601409206735
0.00646800126037298
0.00643468561780027
0.00639599512980131
0.00635183562051349
0.00630208657324995
0.00624659804878737
0.00618518947362733
0.00611765179577174
0.0060437543149744
0.00596325430534541
0.00587591349000771
0.00578150951743222
0.00567984127337413
0.00557068069318415
0.00545363627739811
0.00532777069633446
0.00519092476439071
0.0050386205817671
0.00486358001221085
0.00465783738850078
0.00442605959643656
0.00421275969151559
0.00414876619405911
0.00443809081425876
0.00510424194554002
0.00609249657940086
0.00738205613838111
0.00893273042917106
0.0107059133688864
0.0126803683960656
0.0147973178181827
0.017037292196986
0.0195113098363357
0.0223912928347662
0.0258842296091391
0.0303552627945675
0.0361187367700566
0.0432039245534078
0.0509893115853648
0.0580786429831843
0.0592229177563938
0.0554047715510424
0.0474449228584876
0.0610714922588747
0.0532700279143438
0.0484124639806673
0.0733415807119157
0.0387994896243194
0.0102979895771456
0.00337143864506306
0.00172997700037904
0.000835235516023092
0.000513027765944151
0.000473156696011082
0.000494209428328456
0.000522931991260752
0.000544876964454681
0.00055724831008126
0.00056169306527338
0.000563784337894609
0.00056943934019945
0.000581026149902225
0.000600958925562054
0.000632256352991861
0.000692458077479698
0.000809659305152214
0.000983316511262011
0.00115026876916441
0.00131559430923625
0.00148173782168262
0.00165723142919111
0.00183613549508745
0.00201786535179792