/*--------------------------------*- C++ -*----------------------------------*\
  =========                 |
  \\      /  F ield         | OpenFOAM: The Open Source CFD Toolbox
   \\    /   O peration     | Website:  https://openfoam.org
    \\  /    A nd           | Version:  7
     \\/     M anipulation  |
\*---------------------------------------------------------------------------*/
FoamFile
{
    version     2.0;
    format      ascii;
    class       volTensorField;
    location    "20000";
    object      gradU;
}
// * * * * * * * * * * * * * * * * * * * * * * * * * * * * * * * * * * * * * //

dimensions      [0 0 -1 0 0 0 0];

internalField   nonuniform List<tensor> 
15600
(
(0.0369266543229563 -0.0462577840225914 -1.84445998924328e-23 11.4131630750202 -0.297711131599654 -2.02966093590256e-21 0 0 0)
(2.83476522001314 -0.571457073847923 1.67919031307983e-18 12.0314981147829 -2.69315648002943 2.49200954114161e-20 0 0 0)
(-5.91649642898922 4.5492334399132 4.11537608103215e-17 -7.31814760130849 5.66502443857415 5.43117785580445e-17 0 0 0)
(-9.25841541012723 10.8303732100307 3.46814146318334e-14 -7.70707141611223 8.91682662485797 2.84905668274021e-14 -9.83521924715298e-17 1.13779600695524e-16 3.63311453124175e-31)
(-4.48308732267345 6.3148113989119 4.32084778137643e-14 -3.13445596293544 4.36327311822004 2.91450546436412e-14 0 0 0)
(-2.54192653163824 3.98985181916812 -2.12826485563384e-16 -1.59279577736086 2.48570392599297 -1.1830459279369e-16 5.22874670919159e-21 -8.14140638373856e-21 1.86048971849636e-36)
(-1.68006458868798 2.77970550869658 -1.73032436435579e-16 -1.0018427419902 1.65331036688092 -1.23043720735974e-16 -4.98263413717974e-21 7.75819744738422e-21 -1.77291808129775e-36)
(-1.25507615169255 2.09262453792697 2.09539891916156e-16 -0.744351693957612 1.2406042202642 1.25278185740102e-16 0 0 0)
(-1.07683117241622 1.76958703638641 3.81218809625558e-16 -0.651416709195848 1.0714312271324 2.59754693437415e-16 -1.01727854070002e-17 1.67298610534978e-17 3.99234103631147e-33)
(-1.05027136399778 1.68991501202685 -2.19989060150784e-16 -0.649097589957652 1.04568560903164 -1.32715101076683e-16 -9.95193151005285e-18 1.6029573701361e-17 -2.04668798656085e-33)
(-1.06420617456666 1.68173109434856 -1.97430500351652e-16 -0.67042131823716 1.06079712431728 -1.39119151532327e-16 -1.01385836209824e-17 1.60385581897046e-17 -2.07547696368413e-33)
(-1.10730569487144 1.72116705437183 -3.02240400647709e-16 -0.708354092794393 1.10244380047283 -2.11271504998928e-16 2.12353819682276e-20 -3.25765751547086e-20 3.78632441207388e-36)
(-1.12715641347758 1.7274803384839 -3.54674348264402e-16 -0.729975694914847 1.12012218798633 -2.10643429129529e-16 -2.15870112417882e-20 3.25586543210356e-20 -4.34829879722389e-36)
(-1.07552112980699 1.61621887963372 1.076359651598e-16 -0.7089403357461 1.06708209273577 7.23677602784147e-17 -1.041152247837e-17 1.56666664382331e-17 1.06100951394638e-33)
(-0.927967328947538 1.3376894877658 -4.84191650501758e-18 -0.637616475079704 0.921374097497945 3.86331287241277e-19 0 0 0)
(-0.681476111414192 0.91352844448908 -2.26501134023229e-16 -0.505752749653239 0.6800544309506 -1.61484215761427e-16 0 0 0)
(-0.346104530420238 0.408428451276084 2.69199524804363e-17 -0.297639427642486 0.352466378517864 -4.25799248804084e-18 0 0 0)
(0.0180368452892668 -0.0354296473141293 -3.33391797117717e-17 -0.0145655371392578 -0.00329326025155021 4.23893954583851e-18 0 0 0)
(0.312494460875032 -0.27383575651663 8.29342656529996e-17 0.324045796519595 -0.294401532284745 9.92658330232188e-17 3.52472226699523e-18 -3.18653616893732e-18 1.05958521610823e-33)
(0.413405069430324 -0.249205869047615 4.71383036620551e-17 0.624027885422651 -0.395361237482273 -5.31471298385765e-18 -1.61027532262195e-20 6.95755334785458e-21 -4.53508515155594e-36)
(0.300343993835401 -0.0921421902738822 4.40158974323765e-17 0.820006614837833 -0.289740865698696 1.31022669431421e-16 -3.51883548480336e-18 1.23295587825547e-18 -5.57729188800362e-34)
(0.0515661020602638 0.00638441281127403 -1.422252169601e-17 0.776608308858988 -0.043384607870017 1.99110272583218e-17 7.86807951050125e-19 -4.24669659442718e-20 1.76893037279041e-35)
(-0.0100121240197643 0.00159592603363902 3.91183106555868e-18 0.549580808573877 0.0104179376723125 -2.73063265142545e-18 -9.99296318343107e-21 -8.86229748298128e-23 2.97229441037075e-41)
(-0.0138142758989176 -5.92355093823811e-05 -1.26784607700083e-19 0.357818997078309 0.017047442542275 2.16827868368773e-18 9.9929631834303e-21 8.86229748298059e-23 -2.97229441037052e-41)
(-0.0241570278027172 -2.1611800844428e-06 1.26894402993823e-19 -0.0267753256804722 0.0260208033245297 -3.26873938072401e-18 0 0 0)
(-0.033174910920224 9.83417338574162e-05 -2.17306537182658e-15 -0.552236903627024 0.0359610915628135 3.07273971231643e-16 3.19557403118419e-32 -2.06432035259133e-33 -1.82966849149853e-49)
(-0.040990125347344 0.000169355485197737 -2.22602570185268e-15 -1.2182262525441 0.0441453472027097 8.89074513938565e-15 -6.68312793045487e-16 2.42859412258725e-17 5.06527610682126e-30)
(-0.0457935751494107 0.000217825148038508 2.17306537182644e-15 -1.96578750200641 0.0498810009706158 6.23806480160192e-15 -1.09150139108748e-15 2.75278266115798e-17 3.27329996494168e-30)
(-0.0477382463083319 0.000228800308392048 2.2260257018528e-15 -2.74802093583017 0.0525513501907785 -2.93173134658552e-16 0 0 0)
(-0.0472173216118177 0.000219878488864053 -4.75445536305668e-46 -3.51929605998238 0.0528073461661485 6.57940742164295e-31 -2.02246193133899e-31 3.03162637315865e-33 3.78086679877982e-62)
(-0.0451230660651146 0.000198143025206262 -2.23127252198455e-15 -4.25277296403112 0.0513704781173646 2.66314389519045e-16 0 0 0)
(-0.042160390229711 0.000173026769472068 -2.31099752416295e-15 -4.93334484210368 0.0490267893861301 6.75925404171603e-15 -2.80628410894292e-15 2.79702070877463e-17 4.02203854670131e-30)
(-0.0388776052440999 0.000147327567822868 2.23127252198431e-15 -5.55635123770038 0.0462887396491055 4.73968024010198e-15 -3.20255899237989e-15 2.66077911611456e-17 2.56606941622056e-30)
(-0.0355865009102911 0.00012300166746997 2.31093210333156e-15 -6.1223100294401 0.0434857210553854 -2.56800238760319e-16 1.75730366337417e-31 -1.24786834000926e-33 7.80966550351977e-63)
(-0.032456509124476 0.00010017568398479 1.32043576504109e-19 -6.63469429433654 0.0407752680469015 -1.30424738270035e-18 -5.55198548493554e-20 2.62841231089123e-22 9.01780059664491e-39)
(-0.0295538553713216 7.89403108244711e-05 -1.21714741709811e-21 -7.09790183700107 0.0382256844254983 1.8644896124711e-18 1.15040006812188e-19 -5.36367521489819e-22 -1.7870852762396e-38)
(-0.026893758664787 5.90959104782501e-05 -1.32043576503714e-19 -7.51647790630297 0.0358488652269787 1.71543010620872e-19 -5.952015196283e-20 2.73526290400682e-22 8.85305216575066e-39)
(-0.0244630872895555 4.05211148898583e-05 2.46296451598774e-15 -7.89461242199124 0.033632905414291 -2.22988526992648e-16 9.06083651847107e-31 -3.85942406835429e-33 -2.52630076161863e-51)
(-0.0222378880706677 2.30600377379761e-05 2.58987209310592e-15 -8.23600897295884 0.0315545601595815 -5.55019611279567e-15 4.51168404154736e-15 -1.72736634831631e-17 3.17983894553563e-30)
(-0.0201905640266554 6.60012341362214e-06 -2.46289787800881e-15 -8.54383855454698 0.0295882992769744 -4.10275085485991e-15 4.72992864965892e-15 -1.63940083105565e-17 2.14216941024123e-30)
(-0.0182945590020829 -8.95617126308856e-06 -2.589872093106e-15 -8.82078181173025 0.0277097421162208 2.12367536917845e-16 0 0 0)
(-0.016525863074831 -2.36864947147823e-05 -1.31921194543915e-33 -9.06908555221507 0.0258974512897913 8.10257329838593e-19 0 0 0)
(-0.0148636257243315 -3.7657719845492e-05 0 -9.29062812312243 0.0241331303636079 8.65236866168502e-19 0 0 0)
(-0.0132901510070328 -5.09255672304856e-05 0 -9.48697919732532 0.0224017157796228 -8.60893630169515e-19 0 0 0)
(-0.0117910014703029 -6.35178160865843e-05 0 -9.65945639402499 0.0206911975096539 0 0 0 0)
(-0.0103551807528494 -7.54169610860756e-05 -3.37048642483825e-15 -9.80918044484023 0.0189931357035849 1.94683542827653e-16 0 0 0)
(-0.00897458639879989 -8.66042743429162e-05 -3.53832931541085e-15 -9.93712747928904 0.0173023128923236 6.07803245275165e-15 -5.6682019197971e-15 9.84255649837967e-18 3.59046557876473e-30)
(-0.00764275947162512 -9.70811333028608e-05 3.3704882675067e-15 -10.0441624541673 0.0156151519447422 4.99589140888748e-15 -5.76777401000277e-15 8.98711989727809e-18 2.7602753289253e-30)
(-0.0063542709719431 -0.000106839767167949 3.53827818283646e-15 -10.1310566071851 0.0139293051400093 -1.74734129212308e-16 4.30044938434279e-22 7.23071164212937e-24 -2.39463918051321e-34)
(-0.00510511829086032 -0.000115855693290976 -1.84266871959758e-21 -10.1985051356807 0.0122438949139756 -4.46761417248707e-19 -4.34227462831522e-20 1.08243006979614e-22 -3.335846797827e-39)
(-0.00389351133727952 -0.000124086622852912 5.11325744489051e-20 -10.2471541255252 0.0105595448278141 5.63053980794511e-19 1.17575772003311e-30 -1.21067088049258e-33 -6.48621739218723e-50)
(-0.00272041799627111 -0.0001316370181777 -4.02963438773089e-15 -10.2776348426147 0.00887920229960126 1.32113729103213e-16 5.89623911802911e-31 -5.08954908129472e-34 3.23929980901396e-50)
(-0.00158676293989974 -0.000138592653792113 -4.19941545869652e-15 -10.2906171134142 0.00720371233427063 6.58013428905435e-15 -5.65595180450442e-15 3.94533692658801e-18 3.6973978166625e-30)
(-0.00049147544329888 -0.000144764618357535 4.02966591620997e-15 -10.2867732654399 0.00553558592868945 5.99522170956064e-15 -5.6746205964887e-15 3.06172595046456e-18 3.24475035367905e-30)
(0.000565344317318929 -0.000150054567465553 4.19938392935597e-15 -10.266724211659 0.00388019983505319 -1.03748541966998e-16 2.21591294282281e-20 -2.68813699351977e-23 2.91488659551205e-44)
(0.0015826068497031 -0.000154510397312521 -3.15284790831673e-20 -10.2311244823333 0.0022421602896236 3.82706279532713e-19 -2.21591294282298e-20 2.68813699351997e-23 -2.91488659551227e-44)
(0.00255957479426054 -0.000158168870097257 3.15293404805522e-20 -10.1806375853249 0.000625486894279243 -5.07430046306455e-19 0 0 0)
(0.00349542539348786 -0.000161077818998692 -5.66905602897354e-34 -10.1159280319476 -0.000966234589441006 1.72725306127802e-19 0 0 0)
(0.00438956131464806 -0.000163261551085785 0 -10.0376647204756 -0.00252949115455448 9.20164370890658e-20 0 0 0)
(0.00524133204084271 -0.000164738561507362 -9.52419294743134e-21 -9.94652154671398 -0.00406079826567332 -9.21319729611668e-20 0 0 0)
(0.00605002678546728 -0.000165529342346842 9.530077518686e-21 -9.84317851640856 -0.00555665507745482 1.47496443658474e-20 -5.34251317721948e-21 -1.46267101529433e-24 4.97820696879164e-44)
(0.00681495712080774 -0.000165659984569285 9.52419294743183e-21 -9.7283221352002 -0.00701366823672678 -1.48074695057853e-20 5.34251317721944e-21 1.46267101529432e-24 -4.9782069687916e-44)
(0.00753555656914557 -0.000165161568713706 -9.53007751868473e-21 -9.6026441493881 -0.00842866804397867 2.08066101555937e-19 0 0 0)
(0.00821142447860056 -0.000164068212888333 4.16825592055724e-33 -9.46683943484013 -0.00979877374257074 -6.37503828562146e-19 0 0 0)
(0.00884234607737244 -0.000162416232721457 4.38127700282387e-20 -9.32160362209465 -0.011121411914587 4.30940932660511e-19 0 0 0)
(0.00942833851696335 -0.000160245325399624 -4.38561044245211e-20 -9.16763035965675 -0.0123943709406983 8.36235938560801e-19 1.99883156992576e-20 3.35158411244024e-23 1.46639463941545e-42)
(0.00996970656679372 -0.000157597707285304 -4.38127700282376e-20 -9.00560774076218 -0.0136158837041278 -8.4029949206056e-19 -1.99883156992563e-20 -3.35158411244003e-23 -1.46639463941536e-42)
(0.0104670520919288 -0.000154515744947219 4.3856104424523e-20 -8.83621432300559 -0.0147846383514886 9.62620318310227e-19 0 0 0)
(0.0109212594104439 -0.000151041271276071 -1.39316502352916e-30 -8.66011550097005 -0.0158997617457488 2.29836615016138e-20 0 0 0)
(0.0113334954750826 -0.000147216045426279 1.49866144259955e-34 -8.47796008517494 -0.0169608189363809 2.29209152433909e-20 -9.72788898222388e-31 -1.9451793624119e-33 2.63059041656653e-51)
(0.011705156635968 -0.000143078051397404 1.01404315057403e-19 -8.29037710912368 -0.0179677957695244 -1.01466633953931e-18 0 0 0)
(0.0120377336170931 -0.00013865964049224 7.21023861897757e-15 -8.09797445680498 -0.0189209069745761 3.55919091037694e-16 3.54804776749678e-20 1.27407881155959e-22 -4.87982058854334e-34)
(0.0123326311443605 -0.00013398566567873 1.46511483011021e-14 -7.9013398154302 -0.0198204592562494 -1.15431428495245e-14 4.36609326917877e-15 1.09677285434474e-17 6.16159865756233e-30)
(0.0125909356029582 -0.000129071458437323 2.20523197440487e-16 -7.70104462159255 -0.020666550660987 -2.74299718842643e-14 8.4823285843022e-15 2.27565985608812e-17 3.02716416380078e-29)
(0.0128132052748342 -0.000123925426103879 -1.46510289232928e-14 -7.49765136901978 -0.021458859649868 -1.61907721205682e-14 4.11295572194754e-15 1.17417488411096e-17 9.17094645868978e-30)
(0.0129993503107809 -0.000118551042023924 -7.43120809710726e-15 -7.29172283882192 -0.0221965089300105 -4.54480394278395e-16 6.40935073912105e-20 3.23242860716989e-22 3.05226254689951e-38)
(0.0131487588463585 -0.000112960459048055 4.72721036820662e-21 -7.0838317399918 -0.0228780931087469 -6.27296655194014e-18 -1.26407248949903e-19 -6.61775618225507e-22 -6.0405393776139e-38)
(0.0132605545020767 -0.000107173107053315 4.4628068949733e-19 -6.87456629877353 -0.0235021653711264 2.00193894368047e-18 6.23137415578409e-20 3.38532757505892e-22 2.9882768307629e-38)
(0.0133335244020891 -0.000101203226961327 8.32602059894759e-15 -6.66453452275938 -0.0240670684219687 6.51082045029335e-16 0 0 0)
(0.0133657625755772 -9.50581152204108e-05 8.31432471232259e-15 -6.45437347000823 -0.0245706351630501 -1.53166417610325e-14 3.57361826087243e-15 1.3649779237555e-17 8.07621882998268e-30)
(0.0133540999416254 -8.8730471422182e-05 -8.32600340241579e-15 -6.24476480199896 -0.0250096518012939 -2.05914892376853e-14 3.41999613207137e-15 1.36363644613328e-17 1.17393891486163e-29)
(0.0132933578394107 -8.220310481879e-05 -8.31432471232247e-15 -6.03646088480042 -0.0253789979339555 -7.21848488729456e-16 5.5097369842676e-20 3.91614705035346e-22 -1.12542812519343e-33)
(0.013175579862203 -7.54534948125162e-05 -4.97337751341489e-19 -5.83032136092662 -0.0256710213793151 -8.72035256185875e-20 0 0 0)
(0.0129891575737446 -6.8457018717654e-05 2.54999620401535e-19 -5.62736083945733 -0.0258745787918726 5.76872886556689e-19 -4.97564726010102e-20 -4.22220581779173e-22 4.97752273686243e-41)
(0.0127181126472733 -6.12104294806776e-05 2.54631885248597e-19 -5.428808837938 -0.0259742578647062 2.25357981761338e-18 4.97564726010016e-20 4.222205817791e-22 -4.97752273686158e-41)
(0.0123412293026471 -5.37143764488088e-05 -2.54999620401528e-19 -5.23617667106545 -0.0259500155726034 -2.95771467670074e-18 0 0 0)
(0.011832005577634 -4.60580368955311e-05 9.66726321311537e-33 -5.05133680338454 -0.0257756387983069 5.93761366775547e-18 0 0 0)
(0.0111583056278698 -3.8318309073441e-05 2.73644133578985e-19 -4.87658725158905 -0.0254216699091902 -2.97484542618704e-18 0 0 0)
(0.0102853764721622 -3.08723603359915e-05 -2.73966816373128e-19 -4.71472284370564 -0.0248507732788882 2.35866206822179e-18 4.18604655419693e-20 4.53375990270593e-22 4.36771119560651e-41)
(0.00917565033355647 -2.39032916706235e-05 -8.34896407067588e-19 -4.56900792154094 -0.0240335062617497 -2.49614071981695e-18 -4.18604655419625e-20 -4.5337599027052e-22 -4.3677111956058e-41)
(0.00780225104567506 -1.86708549267144e-05 8.35730552663523e-19 -4.44318723943126 -0.0229276621086913 -1.12151232615816e-17 -7.91248031658107e-20 -9.18277328662599e-22 1.38459307150142e-40)
(0.0061522476139351 -1.54885865535368e-05 5.61252273488664e-19 -4.34106618138422 -0.0215481854791293 4.91001878635905e-18 7.91248031657969e-20 9.18277328662439e-22 -1.38459307150118e-40)
(0.00427038044529014 -1.90440918553806e-05 1.89340699207117e-20 -4.26624975492822 -0.0198921947321039 -6.49789699804758e-20 0 0 0)
(0.00238439866203273 -3.0316979283152e-05 -5.80868419544498e-19 -4.22023567279567 -0.018288387259812 4.92417441071884e-18 7.56577826108544e-20 9.35832933182948e-22 4.61871398077315e-41)
(0.00145891004344069 -7.64446190627113e-05 -5.80697806211022e-19 -4.19812443058161 -0.0172119307514372 1.56574397799251e-18 -7.56577826103634e-20 -9.35832933180861e-22 -4.61871399970237e-41)
(0.00190884243466 -0.000153721641038464 5.80868419544492e-19 -4.17507398732633 -0.0192843882077295 8.3673864556021e-20 0 0 0)
(0.0130450534739773 -0.000402565489306913 2.18607785619569e-14 -4.11293150337207 -0.0275098569226645 3.33592075128231e-15 0 0 0)
(0.0464237333938266 -0.00672095383385831 2.14742428279929e-14 -3.74457284984141 -0.0606483184014409 -4.93345125077981e-14 4.25099888772604e-15 6.88204016506879e-17 5.16803337068377e-29)
(0.278282977517937 0.00189796972270545 -1.64626619048835e-14 -2.79440243292581 -0.295204950529482 -7.52230831577986e-14 3.11059439309762e-15 3.25870976380227e-16 8.828486879175e-29)
(0.749960065610893 0.236939834202129 -2.15730850090221e-14 -1.98491512095934 -0.741657481741673 -3.4602122285846e-15 0 0 0)
(1.1791881591705 0.703914594141122 4.10317459487069e-18 -1.86245457515405 -1.1675221493645 -6.4946620011773e-18 0 0 0)
(1.59838255940423 1.33979975721568 1.34333162625426e-16 -1.83539070482865 -1.57638856117611 3.57038213155141e-17 0 0 0)
(1.9626219601596 2.0542558226674 -1.05002441480902e-15 -1.81090420678736 -1.92298790317539 9.52577120825625e-16 0 0 0)
(2.23939998838494 2.72706332842788 1.30444036350426e-15 -1.77292046626749 -2.17771339066227 -1.32319863997563e-15 0 0 0)
(2.36650239007006 3.17122057398885 2.87734922843346e-15 -1.69618601057782 -2.28465157440613 -2.06843818515492e-15 0 0 0)
(2.30725463810633 3.27755562279049 -1.24385974477247e-16 -1.54955647393232 -2.20847439747464 -1.6782515245064e-17 0 0 0)
(2.0123532617709 2.95740532065605 6.97058486179908e-16 -1.29551437687522 -1.90906410947238 -4.43938326811431e-16 -1.91057642108339e-17 -2.8141710376326e-17 -6.54539313366305e-33)
(1.452690969221 2.16876958958106 2.49386592228611e-17 -0.905695738349937 -1.35734089572516 5.02679052202966e-18 -1.35521676952411e-17 -2.02894614658943e-17 -5.91129776979143e-35)
(0.62757278498943 0.959319781987491 2.62347299293866e-15 -0.358513003654277 -0.554920012908841 -1.67870422509385e-15 -5.46222066035087e-18 -8.43360558866287e-18 -2.51006354229267e-32)
(-0.400332174759339 -0.591307572626313 2.22930326125971e-15 0.303432218983639 0.444792234081701 -1.20658222340267e-15 -4.4659284915937e-18 -6.5547183346901e-18 1.86766274005336e-32)
(-1.67807235064774 -2.5798968719533 -1.93602489753207e-18 1.09261942251386 1.6762919279136 1.18717571944155e-18 0 0 0)
(-3.16610790785532 -5.02022111962169 1.96890338268948e-15 1.96942055415616 3.11957680837172 -1.19485746949068e-15 0 0 0)
(-5.19006931301195 -8.41202316132557 2.05829160498508e-15 3.12163279439908 5.0513717118011 -1.1467011680385e-15 0 0 0)
(-8.09629976596547 -13.1021436707759 5.87494974674149e-16 4.85898336438124 7.83387640435866 -3.51860597532929e-16 -7.74598765214153e-17 -1.24909808599292e-16 5.57461112814746e-33)
(-12.974622738434 -19.9923624621267 -1.77559849355664e-15 8.11874330649808 12.4325680387634 1.06634106746033e-15 -2.27614257395524e-20 -3.03737307105221e-20 -2.34927870901005e-36)
(-20.7296863780887 -28.9022867583852 -1.01880406946152e-15 14.3802441228378 19.8108590229346 6.85387986494101e-16 -2.08271987385845e-16 -2.86954911622545e-16 -9.94017872136954e-33)
(-35.7093264253971 -40.4999799392254 -3.30112789328045e-17 30.3419720876974 33.6830326119872 -3.00802670815964e-17 -3.87730840279228e-16 -4.30343344814787e-16 3.75335304239228e-34)
(-49.5797765019107 -36.2518498018171 -9.54652899227704e-17 66.0149156993271 46.9988709652094 1.27812720667558e-16 0 0 0)
(-20.8943735902259 -6.25606293228181 -8.69319421509284e-18 76.3383278601911 20.6191085994014 1.34992215163769e-19 0 0 0)
(-1.48459839532897 -0.330643648367656 0 25.8500724652095 1.24328836757746 0 0 0 0)
(-0.534797572294268 -0.19121723801981 1.07800396388084e-22 23.219470679707 0.109173001574783 -1.73666093919781e-21 -9.36265671386636e-21 1.08307483500802e-21 -2.40868722445411e-44)
(2.66165132207687 -0.333776479622262 2.08039886772544e-18 14.3305666615278 -2.50243720969183 2.90432401662851e-20 9.67097110232438e-21 -1.11874073258549e-21 2.48800583575109e-44)
(-3.180579354452 3.27922550550086 2.58531375267812e-15 -2.83226681810855 3.45548149194533 -3.05625144007461e-17 1.00750033003735e-16 -9.09147218965797e-17 1.51903263347299e-36)
(-7.27959083209749 8.98672662795155 -2.97584563550499e-14 -6.20307307885097 7.47927294750776 -2.70720167933373e-14 3.43225040918147e-14 -4.04649054499342e-14 -1.33702262958876e-30)
(-3.95602930493505 5.54019729969598 -4.39030872007292e-14 -2.98306283221648 4.07192121942251 -2.75960117859143e-14 1.49742260432044e-14 -2.06475218089673e-14 -1.36897108942667e-30)
(-2.33651238750274 3.65156501316462 -3.58889763241539e-15 -1.55045010109496 2.38787015537518 2.96153096263984e-17 1.46074368409551e-20 -2.35414203290633e-20 7.51773682459673e-40)
(-1.58292768818428 2.6112076589654 1.98400241809835e-16 -0.980940654426698 1.60932322189847 1.16797748451228e-16 -2.4091646294147e-20 3.94102190674806e-20 1.3306445487509e-40)
(-1.20414576723978 2.00162974496528 -4.53859157500469e-16 -0.730627617107469 1.215150547582 -3.11163884967114e-16 2.57036636796873e-20 -4.28197140806948e-20 -6.13477537283594e-36)
(-1.04159874074495 1.71428004511454 -4.01836132819472e-16 -0.635033576950766 1.04840561348585 -2.47954373144422e-16 2.94621168866467e-17 -4.85091454125679e-17 -3.83466147315629e-33)
(-1.01262956678473 1.64082898011659 4.67062372057021e-16 -0.624973625249885 1.01623522821796 3.33678337575108e-16 -9.56723758937408e-18 1.55493428155063e-17 5.01636207497716e-33)
(-1.02224674813886 1.63124560363888 4.91230727544886e-16 -0.640775531967535 1.02585268039817 3.41051486139707e-16 -9.64171491944172e-18 1.54291850731289e-17 5.0757361334817e-33)
(-1.05171866647416 1.65514242893548 2.68549102354361e-16 -0.669549591427233 1.05682465050604 2.04782188467476e-16 -2.02233477714066e-17 3.16849019884302e-17 -3.24607920512723e-35)
(-1.05905856490375 1.64057902636316 6.35156479655506e-17 -0.686138595317618 1.06660273825102 -1.62477307052763e-17 -2.06336759911879e-17 3.18524607919914e-17 -3.1537382906289e-33)
(-1.00905018842972 1.51867242801304 2.63716537274612e-16 -0.671310573680913 1.01720446244186 1.4446120261751e-16 1.00986698044325e-17 -1.51958210705072e-17 -1.02479565410355e-33)
(-0.885556220130298 1.25231530932929 -3.80241625789993e-17 -0.622020653505515 0.891741178822357 5.46093017810626e-18 -2.68596174119593e-20 3.97848581276317e-20 5.8970491153194e-36)
(-0.688713767504062 0.866721942853735 2.16203019313622e-16 -0.533473393824208 0.68934907673715 1.56127797700876e-16 0 0 0)
(-0.426568397501121 0.423436887606811 -1.87099055625865e-19 -0.395430463548302 0.418241900223244 3.05039049392893e-20 0 0 0)
(-0.134466110599267 0.0382408246063483 -2.4982997086111e-16 -0.202151596997905 0.11930505805744 -2.85338285950371e-16 7.37157793279743e-21 -8.8038708671164e-21 1.34590520000815e-35)
(0.121672773332423 -0.17273716785761 -7.41887696943989e-17 0.0492153878702148 -0.140858154105957 -9.21238034562819e-17 -3.38114299369772e-18 3.06170962274225e-18 -1.02088924259171e-33)
(0.249946111682391 -0.166313091882285 -4.59513773554618e-17 0.310213894053726 -0.263674934758367 5.26271291250695e-18 -2.30351842782108e-20 1.80680126949058e-20 -1.20839334751125e-35)
(0.200950351036564 -0.0417791570013635 -3.94825824601124e-17 0.520795986071404 -0.21259399994916 -1.26687450264616e-16 -2.25218177540836e-18 8.9273846042566e-19 5.41552657134786e-34)
(0.0117372370785134 0.0263794809714007 -1.45772135169114e-18 0.510026887884605 -0.0137569402872261 -1.41652114825842e-17 -7.87788395911657e-19 4.16158220428867e-20 -1.86027683079131e-35)
(-0.0403346879356854 0.00536927698596964 -5.88550304698621e-18 0.235176346863556 0.0337656960469187 2.91442322609269e-18 4.65610617501866e-20 1.38281164276598e-22 1.53893508920973e-36)
(-0.0543185831944884 0.00188410714999732 -2.80898371333101e-21 -0.0703638797157762 0.053524574847791 -4.05010955235194e-19 -2.18427543893582e-20 -2.03247220847622e-21 -1.22693741094916e-39)
(-0.0832783058707376 0.00225031316706271 -8.2429872805703e-21 -0.542298220618699 0.0806417771998215 -1.11557037018024e-19 -1.40900998606913e-20 3.11215884726088e-21 -1.65923876368921e-39)
(-0.107263542597038 0.00205242963021817 3.27444024617789e-15 -1.13669689793099 0.105654814455067 -4.58094604957989e-16 6.38493096511655e-20 -4.23580220038679e-21 -8.55102614713744e-34)
(-0.125435185489247 0.00147855065971627 3.08463302433801e-15 -1.82209967573527 0.123299602950263 1.88722492739469e-14 6.73012959406282e-16 -2.42716111767217e-17 -5.04622542364451e-30)
(-0.134145379255832 0.000772600600885519 -3.27405442418117e-15 -2.53621316811459 0.131783185784533 2.01235498522448e-14 1.02539564605596e-15 -2.57331740258259e-17 -3.00075343018673e-30)
(-0.134854712739358 0.000109745957237727 -3.08501154799763e-15 -3.23389312733699 0.131670649066498 4.07605371551412e-16 0 0 0)
(-0.129546159669098 -0.00036907398230003 5.94316332824901e-45 -3.88348825685971 0.125539586828598 -1.25640836806691e-18 1.95194451311917e-31 -2.92592229955925e-33 -3.64903887106874e-62)
(-0.120919508004193 -0.000655343876556597 3.0856740447884e-15 -4.47169745466025 0.115989345495943 -3.69521111307792e-16 0 0 0)
(-0.110868327391874 -0.000783756354327056 2.99077052935595e-15 -4.99562884539267 0.105106495211798 1.93799900735233e-14 2.78926497365572e-15 -2.77347424001313e-17 -3.99357895442536e-30)
(-0.100670814476107 -0.000811552935205451 -3.08567404478856e-15 -5.45876604854251 0.0941582836102012 2.0724212507124e-14 3.01006708796427e-15 -2.49402783595486e-17 -2.36482067268016e-30)
(-0.0909623940398121 -0.000782942405818977 -2.99085588097292e-15 -5.86683840783409 0.0838200575356528 3.33522981821812e-16 -1.69603154969458e-31 1.20435876771405e-33 -7.5373649771483e-63)
(-0.0820238575163837 -0.000729079474842916 8.4373978480597e-20 -6.22611556089614 0.074360806815859 5.17540496922438e-19 -1.57380383703968e-19 9.61721125682424e-22 -1.27653132106987e-40)
(-0.0739114565966614 -0.000667352236739651 1.73302415628719e-19 -6.54238988374235 0.0658372114438521 -1.10562912201485e-18 1.57380383703968e-19 -9.6172112568242e-22 1.27653132106987e-40)
(-0.0665836532790168 -0.00060707795910207 -8.17607602544314e-20 -6.82071705053145 0.0581975195922527 5.95926893690835e-19 1.75725239972433e-19 -7.95315057959619e-22 -1.18252078035728e-38)
(-0.0599537247657267 -0.000552301204952604 -3.18757111838776e-15 -7.0653494482726 0.051348864957776 2.88621242381029e-16 7.82833270486025e-21 7.21155791948318e-23 4.16210457906122e-34)
(-0.0539254903814523 -0.000504477111219522 -3.19922512378219e-15 -7.27982115115324 0.045187430226933 -2.14309854522851e-14 -4.4477742141511e-15 1.70107388464355e-17 -3.14176222760048e-30)
(-0.0484062268239151 -0.00046362258356481 3.18738637247025e-15 -7.46704943760629 0.039614466939588 -2.30568852995451e-14 -4.4717936331114e-15 1.54837614713754e-17 -1.99509923502501e-30)
(-0.0433139198681293 -0.000429149761361622 3.19931870165991e-15 -7.62944660936689 0.034542247356654 -2.64025943096489e-16 -2.02570948306682e-19 5.40756542019631e-22 -7.88690962401226e-41)
(-0.0385783930924172 -0.000400255134801882 1.99513205562479e-19 -7.7690159505707 0.0298957076967419 6.5457303713611e-19 2.02570948306683e-19 -5.40756542019635e-22 7.88690962401232e-41)
(-0.0341410411415174 -0.000376112148743706 -1.98393567419008e-19 -7.88743381507675 0.0256117588910373 4.47168335181082e-20 2.12066136930583e-19 -4.3938400142789e-22 -6.73253217274519e-41)
(-0.0299537891179389 -0.00035591612961295 -1.02718086306675e-19 -7.9861168646964 0.0216383503539302 -2.31002760556905e-20 -2.12066136930602e-19 4.39384001427929e-22 6.7325321727458e-41)
(-0.0259784373218987 -0.000338851207733113 1.58789015024103e-19 -8.06627890352494 0.0179334594076085 7.09059827799512e-19 0 0 0)
(-0.0221859521745537 -0.000324128802619247 4.19583108627697e-15 -8.12897803467922 0.0144645313775068 -2.42459660993377e-16 1.11133127677188e-19 -1.53171880342744e-22 -2.73934645654357e-34)
(-0.0185544456115096 -0.000311191247102984 4.28532007226801e-15 -8.17515283464891 0.0112064148009425 2.94282488556895e-14 5.54175201394025e-15 -9.61488095032291e-18 -3.5209057003236e-30)
(-0.0150663420205407 -0.000299696536802898 -4.19583108627703e-15 -8.20564576206854 0.00813828370521863 3.13235229625248e-14 5.49541475755123e-15 -8.55821717764594e-18 -2.60789812423818e-30)
(-0.0117071593748271 -0.000289332130854671 -4.28537665881133e-15 -8.22121879575808 0.0052423252020774 2.11632512001952e-16 0 0 0)
(-0.00846623038558195 -0.000279770595016197 6.70937592540251e-20 -8.22256814104808 0.00250287352533802 1.08843318447851e-20 0 0 0)
(-0.00533785625452645 -0.000270602350632476 -6.70149606158352e-20 -8.21034268670267 -9.26806696711877e-05 4.37691581702716e-19 1.14993648725963e-19 -5.84678100255614e-23 -5.14448394509018e-42)
(-0.00232386436049062 -0.000261693142092518 4.94732290692594e-15 -8.18515131967438 -0.00254900297265406 -1.62913273646256e-16 -1.14993648727666e-19 5.84678100272206e-23 5.14448397642722e-42)
(0.000571840074575284 -0.000253004500296777 5.08230427848164e-15 -8.1475553831767 -0.00485410948543321 3.52906273089475e-14 5.49681789543402e-15 -3.83052955419122e-18 -3.60177047891317e-30)
(0.00335395622301219 -0.000244193994490862 -4.94742839818015e-15 -8.09834359697507 -0.0070091887618357 3.70506093782779e-14 5.43869010395415e-15 -2.93221723673946e-18 -3.09832499402638e-30)
(0.00602469363123862 -0.000235116073810061 -5.08215919650815e-15 -8.03816164694503 -0.00902677378448604 1.25215051730029e-16 -5.72478666774131e-20 -3.21371647200809e-24 1.29494118134061e-39)
(0.00858012683312846 -0.00022588258048995 -2.17813169223139e-20 -7.96762615492351 -0.0109086991129912 5.31348697076366e-19 1.14215650308402e-19 1.38009697818619e-23 -1.87886984301228e-39)