/*--------------------------------*- C++ -*----------------------------------*\
  =========                 |
  \\      /  F ield         | OpenFOAM: The Open Source CFD Toolbox
   \\    /   O peration     | Website:  https://openfoam.org
    \\  /    A nd           | Version:  7
     \\/     M anipulation  |
\*---------------------------------------------------------------------------*/
FoamFile
{
    version     2.0;
    format      ascii;
    class       volScalarField;
    location    "20000";
    object      k;
}
// * * * * * * * * * * * * * * * * * * * * * * * * * * * * * * * * * * * * * //

dimensions      [0 2 -2 0 0 0 0];

internalField   nonuniform List<scalar> 
15600
(
9.52440078761128e-06
4.01127658111311e-06
6.75315823880617e-07
1.69634061802289e-07
2.1402737017766e-07
5.35864184186378e-08
9.80784188041739e-09
6.28605507207977e-09
7.72353185131777e-09
1.05154712737679e-08
1.47527563589823e-08
2.11202413656272e-08
3.01160754669006e-08
4.21399740989319e-08
5.85028921733589e-08
7.94135334441491e-08
1.01562666945696e-07
1.18057307348014e-07
1.17516627620814e-07
9.00330188034968e-08
5.28570252059886e-08
3.59337800541696e-08
4.97809656687009e-08
8.19079668262291e-08
1.28102671485871e-07
1.9516598271427e-07
2.87252395184115e-07
4.06030006443325e-07
5.50737778728221e-07
7.18486447634262e-07
9.05527883762571e-07
1.10800646442647e-06
1.32260819941626e-06
1.54664998572526e-06
1.77807533228449e-06
2.01529536839167e-06
2.2570732930078e-06
2.50240568656401e-06
2.75044809782192e-06
3.0004549551526e-06
3.25174218312516e-06
3.50366069043821e-06
3.7555800575247e-06
4.00687732120256e-06
4.25693280514732e-06
4.50513303338079e-06
4.75088604438104e-06
4.99364479383391e-06
5.23292843552238e-06
5.46832920825028e-06
5.69952326692999e-06
5.92616229866087e-06
6.14981530114721e-06
6.36913199300934e-06
6.58195762356187e-06
6.7862681847215e-06
6.98057764559194e-06
7.16434072788676e-06
7.33705868071835e-06
7.49828110259198e-06
7.6476089233032e-06
7.78469773169206e-06
7.90926022082106e-06
8.02106593383743e-06
8.11993973207026e-06
8.20575934566567e-06
8.27845129547181e-06
8.33798270202418e-06
8.38435091194692e-06
8.41757094889137e-06
8.43765745625714e-06
8.44460521413606e-06
8.43836717101369e-06
8.41883626649433e-06
8.38583124323371e-06
8.33908890424264e-06
8.27825937485782e-06
8.20289240888359e-06
8.1124031690899e-06
8.00602334588539e-06
7.88275539338851e-06
7.74133177636317e-06
7.58020233892343e-06
7.39755962835218e-06
7.19142695471808e-06
6.95985094447693e-06
6.70122289550854e-06
6.41485017422767e-06
6.10167791653687e-06
5.76552550016524e-06
5.41409761714066e-06
5.06110582378814e-06
4.72638058856591e-06
4.43910175594929e-06
4.2322401612323e-06
4.15010155068954e-06
4.18403473931109e-06
4.24742740845742e-06
3.66718607781527e-06
2.38242704391514e-06
1.93127842113147e-06
1.95105552321563e-06
2.1258597315229e-06
2.42210163159832e-06
2.8286597258948e-06
3.29491325359214e-06
3.81722616711552e-06
4.28606063259451e-06
4.53712422201099e-06
4.51643355806715e-06
4.36674561607613e-06
4.13437518719096e-06
4.14585078384769e-06
4.5934931644918e-06
6.12748137408262e-06
1.02116594085114e-05
2.80497619105847e-05
5.03314830563311e-05
2.48105976089794e-05
1.1744956919014e-05
0.000301690406210726
0.000130653619899708
2.36451621693474e-05
5.78779756619797e-06
7.0676215734643e-06
1.95026465789027e-06
3.76834839432201e-07
2.10690277397293e-07
2.49256180473843e-07
3.37171661858088e-07
4.71527042101282e-07
6.73898796697426e-07
9.60939019602622e-07
1.34525523439499e-06
1.86823367302801e-06
2.54161234375482e-06
3.26568014215932e-06
3.82534741928059e-06
3.85265767393527e-06
2.9918431320083e-06
1.75986903186683e-06
1.17700765331999e-06
1.6284588548599e-06
2.67438786851673e-06
4.17867401238533e-06
6.35935503312281e-06
9.3498215076144e-06
1.32018281170696e-05
1.78892659236734e-05
2.33177463437807e-05
2.93657320799093e-05
3.59085865379483e-05
4.28393948151514e-05
5.00716719918904e-05
5.75391776629383e-05
6.51907470436246e-05
7.29865698286175e-05
8.08943613206164e-05
8.88869713755464e-05
9.69404496268878e-05
0.000105032844359768
0.000113143349488579
0.000121251780104481
0.000129338210952178
0.000137382841504584
0.000145366087341572
0.000153269070153463
0.00016107436741909
0.000168766693718694
0.00017633311509752
0.000183763411432242
0.000191046224769975
0.000198232795151668
0.000205279727535083
0.000212077141235236
0.000218566024738369
0.000224732645613598
0.000230560326377776
0.000236033840928293
0.000241139490711349
0.000245865197441609
0.000250200595048448
0.000254137094473098
0.000257667866074491
0.000260787785350058
0.000263493347480443
0.000265782529446936
0.000267654527333409
0.000269109427238004
0.000270147807624837
0.000270770167677443
0.00027097632534432
0.000270764730216699
0.000270131909670147
0.000269072032480559
0.00026757667068169
0.000265634645190532
0.000263231552711315
0.000260348690590013
0.000256961514811221
0.000253038207471583
0.000248538411196548
0.000243412820850515
0.000237603983468587
0.000231049042569435
0.000223685750908603
0.000215462601913179
0.000206356670690148
0.000196396662909105
0.000185701537543385
0.000174513991896932
0.000163265890359304
0.000152586516035955
0.00014339551376215
0.000136728193568936
0.000133928074633809
0.000134664145658558
0.000135761205071771
0.000117109191952619
7.72076901609194e-05
6.3129248281116e-05
6.42044799733408e-05
7.02415085885097e-05
8.01513309576544e-05
9.34911887679072e-05
0.000108681775218058
0.000125481161352801
0.000140254807061819
0.000147856519425488
0.000146917531234487
0.000142019208822734
0.000134896639830937
0.000136017124888652
0.000151949939981993
0.000204237000317974
0.00034415662265906
0.000884793234039178
0.00152193733801761
0.000772330158669499
0.000375508051972761
0.00212650995749041
0.000940527640965404
0.000185109269024267
4.39112123104354e-05
5.19249377810145e-05
1.57737715648452e-05
3.23847878750489e-06
1.61514042646846e-06
1.82886101399149e-06
2.45388356372034e-06
3.41820404048863e-06
4.87355744459413e-06
6.94578004370914e-06
9.7285676542955e-06
1.34987012387699e-05
1.83600211511157e-05
2.36207635248047e-05
2.77790555624553e-05
2.82545169736832e-05
2.23205239744025e-05
1.32505877704358e-05
8.73630315465609e-06
1.20890305485071e-05
1.9815040866536e-05
3.08702510031304e-05
4.68504138776239e-05
6.86697478763803e-05
9.66288410839788e-05
0.000130458698711145
0.000169407096678637
0.000212542488032404
0.000258933328968452
0.000307792521152281
0.000358492283253016
0.000410557514987851
0.000463625935167177
0.000517419547403843
0.000571716457313414
0.000626333344632558
0.000681111513971453
0.000735908281560373
0.000790590884793834
0.000845032731478475
0.000899110770858426
0.000952704397799934
0.00100569582591038
0.00105797303951206
0.00110943441008248
0.00115999313070838
0.00120957827189933
0.00125813947189369
0.00130558175119796
0.00135231175706759
0.0013969388789142
0.00143954194181598
0.00148010348259532
0.00151853762192038
0.00155476481183624
0.00158871371878626
0.00162032127826702
0.00164953313031671
0.00167630387146811
0.00170059721550382
0.0017223857023073
0.00174165025877857
0.00175837955656723
0.00177256909689488
0.00178421960932846
0.00179333509864867
0.0017999205457565
0.00180397849097368
0.00180550572586783
0.00180448924344732
0.00180090321235934
0.00179470642187899
0.00178584077744563
0.00177423017365525
0.001759776883374
0.00174235499265373
0.00172180067070244
0.00169790318290168
0.00167039667370631
0.00163895641141742
0.00160320222593833
0.00156271287904724
0.00151705999383746
0.00146586808558755
0.00140892119108879
0.00134631036309749
0.00127867556125527
0.00120744883438592
0.00113526975593867
0.00106611980794361
0.00100579045580383
0.000960747668968414
0.000938291565284543
0.000934094605307558
0.000921053731538457
0.000791235768019973
0.000551413868727075
0.000464644631475586
0.000476178146489696
0.000521383254700065
0.00059315325340372
0.000687980880313382
0.000795228235326346
0.000912120412695134
0.0010135422496953
0.00106514737251668
0.00105972364034243
0.00102746454013261
0.000982179823833873
0.000994722583538919
0.00111461151590839
0.0014882805458456
0.00244334362275116
0.00548435721761556
0.00870704382755105
0.0049662809513486
0.00258022202167084
0.00668023911279252
0.00323428040135001
0.000734705113321056
0.000170640035915691
0.000193498720696661
6.48734148786444e-05
1.42451152612435e-05
6.45008706483784e-06
6.9396090713172e-06
9.21631624784341e-06
1.27758099391766e-05
1.8155084562899e-05
2.58340762193883e-05
3.61576523739598e-05
4.99886479365692e-05
6.76789443053397e-05
8.66867718624661e-05
0.000101690614759563
0.000103982694777302
8.38117903493828e-05
5.07030898027155e-05
3.33598807434145e-05
4.65949292929975e-05
7.59735486455788e-05
0.000117307886386173
0.000176381477090623
0.000255387912117239
0.000354249411754837
0.000470802203029774
0.000601464664186772
0.000742414793258664
0.000890218066628827
0.00104220516962954
0.00119641633920973
0.00135149030507262
0.00150648150940166
0.00166073637973175
0.00181378747215211
0.00196528981535542
0.00211497360826511
0.0022626160592232
0.00240802217998353
0.0025510132668541
0.00269141898104528
0.00282907374590089
0.00296381676731073
0.003095497877561
0.00322398746953988
0.00334918923330898
0.00347104197682815
0.00358958069524448
0.00370418355226669
0.00381278783922203
0.00391642246921468
0.00401503427471691
0.00410853397305796
0.00419682658093934
0.00427982611204347
0.00435745772760197
0.00442965753435337
0.00449637355267779
0.00455756608182136
0.00461320791336465
0.00466328370567089
0.00470778912337585
0.00474672954677169
0.00478011822600522
0.00480797318131916
0.00483031342651133
0.00484715446341329
0.00485850161872684
0.00486434356932969
0.00486464434904726
0.00485933719740757
0.00484831913039552
0.00483144725202448
0.00480853533183173
0.00477934490599114
0.0047435703183053
0.00470081691460193
0.00465057952152685
0.00459222140748623
0.00452496023268268
0.00444786662487739
0.00435988290394343
0.00425987973937357
0.00414676857579441
0.0040197129553406
0.00387844991885595
0.00372382972520123
0.00355845492166607
0.00338769914727701
0.00322028711341735
0.00306918727550523
0.00294872596584759
0.00287181037445772
0.00282111081750165
0.00271953510710779
0.00236471666427465
0.00181930508332898
0.00162649598825835
0.00169093328065305
0.00185640964065222
0.00210411240115404
0.00242116268075729
0.00277578736281041
0.00315567739773525
0.00348520501550836
0.00366471771052952
0.00367809616690056
0.00360695836156132
0.00349773735241531
0.00356783438233097
0.0039914116822795
0.00519735209611312
0.00796294650387952
0.0147207842467084
0.0205845243886283
0.0138400403412303
0.0077745068788697
0.0125498055191018
0.00694238136021133
0.00196314103298759
0.000470619229649321
0.000501755782418981
0.000186333452166664
4.4086150273034e-05
1.84601285630601e-05
1.8741540185433e-05
2.45751325664417e-05
3.38602078906727e-05
4.78897050197195e-05
6.79054630067473e-05
9.47161295965847e-05
0.000129930228695192
0.000174009077007629
0.000220161887472745
0.000255385391727671
0.00026060835409008
0.000214897681687902
0.000134522790005817
9.04374366192953e-05
0.00012844059531782
0.000204853153358526
0.000309897958953625
0.000453686187016981
0.000636475340157451
0.000853623203029444
0.00109709537799593
0.00135780048829631
0.00162784343237282
0.00190124211014253
0.00217403861601886
0.00244378139750903
0.00270908586305361
0.00296920668791367
0.00322378737940844
0.00347267756737401
0.00371583659019581
0.00395326914742098
0.00418499309086518
0.00441102023131693
0.00463134777100991
0.00484595383021535
0.00505479788238888
0.00525782472684279
0.00545497416834747
0.00564619584877908
0.00583147876870612
0.00601083064980303
0.00618276570005989
0.00634623258680346
0.0065019115092167
0.00665008601795126
0.00679071032301723
0.00692372196914407
0.00704906434126171
0.00716668786181567
0.00727655269644439
0.00737862872310003
0.00747289688976899
0.00755934983383198
0.00763799212141234
0.00770883953505093
0.00777191801232365
0.00782726203730006
0.00787491223867418
0.00791491162502674
0.00794730094331662
0.0079721130136483
0.00798936482147145
0.00799904927225504
0.00800112565163359
0.00799551153801334
0.00798207584423662
0.00796063365544783
0.00793094100351472
0.00789268346931298
0.00784545648492859
0.00778873785675613
0.00772185903133461
0.00764397688747866
0.00755405306965378
0.0074508471256776
0.0073329337093816
0.00719876339525756
0.00704679230957372
0.00687572984983879
0.00668493310639972
0.00647506642179898
0.00624893714853571
0.00601275462234234
0.00577693036993256
0.00555677968332185
0.00536821453318305
0.00522097784738896
0.00508327366713346
0.00484502171895405
0.00430599503667496
0.00363332683990319
0.00345875006116532
0.00366774426015475
0.00405312638115241
0.00458421486449291
0.00523284120308622
0.00594564374282348
0.0066944281820597
0.00735264729743017
0.00776459600771126
0.00791865906915253
0.00792904428633288
0.00787966088474173
0.00814853438825957
0.00908348833243159
0.0113746696112821
0.0159334193403451
0.0246461406054561
0.0311399257342587
0.0243502209439668
0.0146465449381628
0.0183206293587883
0.0112026712648975
0.00397732003498318
0.00105390931410957
0.00103275751792887
0.000427095733203043
0.000109939189073103
4.34226795236059e-05
4.13507876063753e-05
5.33611344915135e-05
7.2935942030104e-05
0.000102415550388088
0.000144204301656788
0.000199489010135357
0.000269772556312306
0.000354152611997249
0.000437969448574477
0.000497144279274591
0.000501673142987605
0.000423976310969659
0.000280549154640309
0.000199517960443104
0.000283154452136301
0.000434348247423413
0.000631646766672556
0.000884970526994864
0.00118805860188557
0.00152980280791839
0.00189666229671117
0.00227589918463035
0.00265776138159896
0.00303571265803244
0.00340601582479082
0.00376678620629143
0.00411730630668519
0.00445746957837449
0.00478748436852841
0.00510767908690342
0.00541841221699689
0.00572001826227542
0.0060127875095559
0.00629695730678223
0.00657271261012098
0.00684018897313126
0.00709947894793775
0.00735064042174721
0.00759370824970624
0.00782870864135735
0.00805571702356839
0.00827322571173636
0.00848043376577935
0.00867790496405713
0.00886592469908993
0.00904459709767187
0.00921390172220536
0.00937380855623174
0.00952429438200028
0.00966534137218436
0.00979693974064691
0.00991908805758344
0.0100317947563424
0.0101350789839358
0.0102289708543282
0.0103135107437156
0.0103887481269209
0.0104547398215305
0.0105115472910933
0.0105592326351352
0.0105978536022666
0.010627457414391
0.0106480725675301
0.0106596997217479
0.0106623016948541
0.0106557942293856
0.0106400381796081
0.0106148334335348
0.0105799126777858
0.010534929464547
0.0104794367461695
0.0104128577808132
0.0103344545095768
0.0102432969243945
0.0101382403080442
0.0100179165722397
0.00988075172031709
0.0097250278412023
0.00954901853212378
0.00935124435326547
0.00913088546672662
0.00888845356030812
0.00862665593240315
0.00835160006707794
0.00807348710843819
0.00780671154768177
0.00756458613158939
0.00734992503162199
0.00712126665172685
0.00675955496304754
0.00611545440367284
0.00546424473656618
0.00541134340078013
0.00581232743985797
0.00644718357861832
0.00727185889423595
0.00824142638969008
0.00929047729888719
0.0103752162024688
0.0113403027572322
0.0120151327861589
0.0124152829522939
0.0126611338059418
0.0128705307045137
0.013501712103619
0.0150107239132349
0.0181560561167914
0.0237107891093642
0.03271773577104
0.0389464529775472
0.0334203133562612
0.0217545452499482
0.0237576988600011
0.0155158673536342
0.0066176548240172
0.00203225800006576
0.00179500434194997
0.000830725845837321
0.000235668789233969
8.97221552988252e-05
7.9791442654942e-05
0.000100894896896968
0.000136395716877041
0.000189407218405621
0.0002633781161761
0.00035872924261873
0.000474038740536023
0.000603589310230552
0.000722326653281751
0.000796656072390722
0.000792451213914947
0.000682981795033594
0.000487998983894441
0.000377750855970729
0.000520706924110598
0.000759331037580246
0.00105384785448583
0.00141281405355582
0.00182465576553688
0.00227388961860294
0.00274320007288323
0.00321767881615512
0.00368696775235305
0.00414502845102742
0.00458905119063815
0.00501812180622791
0.00543235710087079
0.00583231877855601
0.00621873252138725
0.00659232556665789
0.006953764869018
0.0073036263412993
0.00764239158083382
0.00797045187130643
0.00828811799572254
0.00859563016805411
0.00889316928370417
0.00918086839423979
0.009458824816133
0.00972710132601372
0.00998492904981335
0.010230829133121
0.0104654608602581
0.0106891236606419
0.0109019636950242
0.0111040356454584
0.0112953372525203
0.0114758614301846
0.0116456073196778
0.0118045788484216
0.0119527869596682
0.0120902502304601
0.0122169963891759
0.0123330633075828
0.0124384992539764
0.0125333621846143
0.0126177184944635
0.0126916411596298
0.0127552068698373
0.0128084919059532
0.0128515670114096
0.0128844910201794
0.0129073026421284
0.0129200109611537
0.0129225852200049
0.0129149448318715
0.0128969508681905
0.0128683992790062
0.0128290141426788
0.012778435945741
0.0127161998276929
0.012641706245967
0.012554188264565
0.0124526801708994
0.0123359941120982
0.012202710921284
0.0120511979356033
0.0118796705624091
0.0116863281320009
0.0114696054205359
0.0112285802874406
0.0109636176768682
0.0106771927686098
0.0103749457142903
0.0100661590849324
0.0097632570905392
0.00947599064035056
0.00920081332232744
0.00889149397801136
0.0084327200963453
0.00773098040188811
0.00714569949884683
0.00723005901099959
0.00780912751689134
0.00866282279155178
0.00973389090562456
0.0109637492515826
0.0122808406720651
0.0136280101061357
0.0148320445324707
0.0157365081029275
0.016384569668429
0.0168983824394655
0.017429098957467
0.0184584342665851
0.0204797073117448
0.0242012986036021
0.0302353224587143
0.038986227503306
0.0448013535124135
0.0403479056436888
0.0284046921792355
0.0287751094307805
0.0197772610835807
0.00959624502601764
0.00352354101643792
0.00273648830929844
0.00141329486207551
0.000448552911893254
0.000168562687413028
0.000139726283704196
0.000172171177250299
0.000229227777363877
0.00031312643153407
0.000426988164991788
0.000567728173817079
0.000727018224715803
0.000891801506762282
0.00102990589019194
0.00110556686956664
0.00108812835266437
0.000955950471856292
0.000735455997777885
0.000622650126611084
0.000825157488366796
0.00114613111288444
0.00152898174106855
0.00198161401232499
0.00248795028350262
0.00302790062306191
0.00358063793444132
0.00413036700957617
0.00466749486714185
0.00518736632254172
0.00568842885077857
0.00617073844408666
0.00663509318036534
0.00708252954391882
0.00751410314598792
0.00793077772974305
0.00833339396202886
0.00872266004115899
0.00909916107101398
0.00946337185439624
0.009815672421264
0.0101563620328894
0.0104856729326918
0.0108037833083927
0.0111108303210193
0.0114067159722223
0.0116895099257465
0.0119596320377097
0.0122174789293908
0.0124632326355125
0.012696983873357
0.0129187729506068
0.0131286111051877
0.0133265083704872
0.0135124804621152
0.013686547799541
0.0138487372196742
0.013999082809249
0.0141376273856728
0.0142644235766668
0.014379534077692
0.0144830309289594
0.0145749941967602
0.0146555100454008
0.0147246677764854
0.0147825556580816
0.0148292557646433
0.0148648375930445
0.0148893499426698
0.0149028112980618
0.0149051994911149
0.0148964411793125
0.0148764026839974
0.0148448826146885
0.0148016049190323
0.0147462077420421
0.0146782221857504
0.014597043295159
0.0145018970720758
0.014391808949888
0.0142655802338872
0.014121778650529
0.0139587559011104
0.0137747071453044
0.013567803558332
0.0133364331304051
0.0130795908573639
0.0127974770169364
0.0124922498900929
0.0121689084839641
0.0118355427783716
0.0115023615700017
0.0111756966454316
0.0108471909582819
0.0104693347545064
0.00993608573867162
0.00920257456325428
0.0086888042324499
0.00889656636548293
0.00962568373773015
0.0106591182714264
0.0119282136673704
0.0133644083399566
0.0148919933636936
0.0164418878230502
0.0178247621739981
0.018918402422769
0.0197799091768559
0.0205354366202219
0.0213655082223249
0.0227535057563383
0.0251989999037144
0.0293290796843405
0.0356157120971205
0.0439897344694741
0.0493959917894725
0.0456154312266538
0.0343076970019076
0.0332908283864021
0.0240009098612075
0.0127343893558453
0.0054871325600296
0.0037882062894319
0.00214424562162456
0.000770523742540707
0.000293070785753915
0.000226782055141172
0.000270546337921698
0.00035295069666918
0.000471528708764229
0.00062633910778592
0.000807741052368
0.000998975639397345
0.0011818906087564
0.00132449451491764
0.00139449338232355
0.00136648135666313
0.00122419966630423
0.00100356641942671
0.000913010985842439
0.00116978628505511
0.00156385221296034
0.00202713266572429
0.00256457051510247
0.00315370133590291
0.00376960417458521
0.00438967988894233
0.004999193232552
0.00559031457474116
0.00615996655489533
0.00670766617293165
0.00723415245731281
0.00774063527631621
0.00822840679149467
0.00869868382060646
0.00915253933281646
0.009590892001907
0.0100145100835814
0.0104240271519835
0.0108199591583082
0.0112027224059886
0.0115726492433693
0.011930002568237
0.0122749891555519
0.0126078042071612
0.0129273368348873
0.0132326724825706
0.0135244853812057
0.0138030440517143
0.0140684743217575
0.0143208432055593
0.0145601885008786
0.0147865328565323
0.0149999004427165
0.0152003208182721
0.0153878283497216
0.0155624634425708
0.0157242735055113
0.0158733143913235
0.0160096515435414
0.0161333602701832
0.0162445250055704
0.0163432379417331
0.0164295970610864
0.0165037031343912
0.0165656555440311
0.0166155471657479
0.0166534580917621
0.0166794476771911
0.0166935449782462
0.0166957383599162
0.0166859645775472
0.0166640990002894
0.016629947699206
0.0165832404981483
0.0165236206586519
0.0164506246303619
0.0163636536764918
0.0162619410167956
0.0161445204108607
0.0160102024770751
0.0158575648340029
0.0156849687098152
0.0154906148135196
0.0152726699067858
0.0150294923028439
0.0147599972231204
0.0144642005724403
0.0141438889883305
0.0138033339769485
0.0134493389194329
0.013089938785694
0.0127284950425996
0.0123533313659571
0.0119179133800998
0.0113274573727083
0.0105769992114183
0.0101299176765506
0.0104437101392345
0.0112983469829673
0.0124800114305404
0.0139105209053527
0.0155139602447176
0.0172107351418204
0.0189179945268056
0.0204393578652622
0.0216893358712661
0.0227307190073658
0.0236954918088254
0.0247883670609599
0.0264865405784921
0.0292833913358146
0.0337230699365132
0.0401482431349838
0.0481230089589446
0.0531340922890253
0.0497509990587365
0.0394190667782272
0.037295301166954
0.02819693994966
0.0159569012704069
0.00778127099167264
0.00492507635222847
0.00296125578950965
0.00120646483882436
0.000475555184658481
0.000345435308531902
0.000396348410127704
0.000504173853125723
0.00065576732612963
0.000845228577797514
0.00105550732297878
0.0012640580841342
0.00145212558406776
0.00159256866419677
0.00165738401968595
0.00162508537076825
0.00148448363242682
0.00128245614158698
0.00122800328313189
0.00153498751610217
0.00199662073710682
0.00253603921093705
0.0031509132812798
0.00381153213912756
0.0044902043548032
0.00516499008531063
0.00582338177689116
0.0064594340876827
0.00707134150125915
0.00765933336229846
0.0082245340907867
0.00876834683903814
0.00929216324369013
0.00979725106025821
0.0102847137733628
0.01075549136174
0.01121037058461
0.0116500025384844
0.0120749208430629
0.0124855599909711
0.0128822712551569
0.0132653368695187
0.0136349776051716
0.0139912721173105
0.0143323834048191
0.0146586347447414
0.014970492537337
0.0152681549076521
0.0155517191200679
0.0158212424074096
0.0160767649382353
0.0163183198567415
0.016545943896102
0.0167596791351496
0.0169595726184249
0.0171456771736717
0.0173180524383961
0.0174767662738303
0.0176218959764667
0.0177535285798701
0.0178717601038852
0.0179766941546584
0.0180684399483716
0.0181471093023816
0.0182128124818755
0.018265653176446
0.0183057224125929
0.0183330908244849
0.018347799261461
0.0183498484154255
0.0183391875981307
0.0183157043814514
0.0182792161796466
0.018229463424873
0.0181661002709913
0.0180886756350348
0.0179966056862942
0.0178891413192848
0.0177653369489556
0.0176240266652946
0.0174638136978687
0.0172830855020278
0.0170800646462096
0.0168529274895089
0.0166000111091672
0.0163201494394571
0.0160131583696722
0.0156804197986017
0.0153254406492377
0.0149537324202469
0.0145713102043
0.0141790712655069
0.0137632436091248
0.0132796497050779
0.0126450357457908
0.0118866059776046
0.0114992668658491
0.0119039699150941
0.0128651624728033
0.0141715701307503
0.0157369906822165
0.0174797676265099
0.019315858975173
0.0211451737007213
0.0227790983323403
0.0241608800955478
0.0253561871423034
0.0265040132292614
0.0278284865582406
0.0297972930441736
0.0328907846112911
0.0375734320939116
0.0440614231365132
0.0516294566952929
0.0562529995415324
0.0531143392587503
0.0438076510783005
0.0408371710072925
0.0323279448420619
0.0192003132064168
0.0102920534347982
0.00617745663252697
0.00381318618461233
0.00173969559170348
0.000723462561761057
0.000497878773552296
0.000546406518753981
0.000675308586659575
0.00085350936130436
0.00106738387784948
0.00129422549132594
0.00150976080099976
0.00169706414376978
0.001834825999797
0.00189815936714574
0.00186820674147961
0.0017388982302697
0.00156860027905602
0.00155509663891033
0.0019113716209601
0.002438812514964
0.00305079632274517
0.00373491120402704
0.00445609475988785
0.00518673125393978
0.00590708599057385
0.00660704788750417
0.00728221721695064
0.00793165026680713
0.00855597601933025
0.00915648375006437
0.00973462314903647
0.0102917857427594
0.0108292225214423
0.0113480201656564
0.0118491064984331
0.0123332625261658
0.01280113894929
0.0132532734788406
0.013690108331208
0.0141120054878429
0.0145192606934232
0.0149121150864685
0.0152901096728083
0.0156517857396505
0.0159978465350909
0.0163286448656832
0.0166443391347581
0.016945012035322
0.0172307178968763
0.0175015016407345
0.0177574065210771
0.0179984810120435
0.0182247790972564
0.018436359896417
0.0186332881314942
0.0188156351597147
0.0189834803790404
0.0191369125133317
0.0192760299515368
0.0194009399858451
0.0195117573965059
0.0196086024958609
0.0196915981349537
0.0197608655916046
0.0198165196815427
0.0198586629218278
0.0198873780742595
0.0199027190055109
0.0199047004155265
0.0198932863813328
0.0198683794420424
0.0198298116815955
0.0197773380994329
0.0197106284929954
0.0196292499928629
0.0195326405897065
0.019420077022468
0.0192906438176271
0.0191432091889371
0.0189764135007312
0.0187886823895076
0.0185782714226781
0.0183433756067065
0.0180823153228934
0.0177938409028025
0.0174775575673854
0.0171344252900151
0.0167671802034883
0.0163800848186976
0.0159773321164978
0.0155578368959481
0.0151066837466775
0.014582847501096
0.0139140458047723
0.0131533313758949
0.0128189842466522
0.013302319545489
0.0143555938691636
0.0157692079683951
0.0174500613894625
0.0193116345491748
0.0212642428714143
0.023187160990746
0.0249171248138146
0.0264124269700343
0.0277424334609103
0.0290538619415913
0.0305861416192775
0.0327954013006728
0.0361435500791533
0.0410172724042142
0.0475062335458575
0.0546585474633404
0.0589018913765412
0.055932248030048
0.0475710696778589
0.0439842481364751
0.0362985253107998
0.0224149731069004
0.0129350572099732
0.00760968240683769
0.00468644526518446
0.00234223696873649
0.00103677075471585
0.00068374426154138
0.000715247477115176
0.00085738965088597
0.0010536513755327
0.00128195100894428
0.00151643539955168
0.00173395050661287
0.00191920487456942
0.00205632649697729
0.00212241090205652
0.0021005726703268
0.00198986942768755
0.00185943634411795
0.00188892585028366
0.00229608378718456
0.00288861654606943
0.00356814046794349
0.00431258269320852
0.00508477900404989
0.00585918405775295
0.00661876106644054
0.00735545147216982
0.0080659732163691
0.00874989513932434
0.00940801793545717
0.010041646064071
0.0106521803911766
0.0112409487180869
0.0118091425092265
0.0123578018389159
0.0128878214162829
0.013399961328638
0.0138948606791417
0.0143730527267844
0.0148349807773142
0.0152810121861324
0.0157114522553122
0.0161266362225813
0.0165251646734073
0.0169066944787655
0.0172718168261083
0.0176208151197097
0.0179538249153411
0.0182709220891787
0.018572161836558
0.0188575952001831
0.0191272754425014
0.019381262413423
0.0196196217978659
0.0198424245926233
0.0200497472636893
0.020241672741355
0.0204182918375737
0.0205797046219218
0.0207260208043865
0.0208573589602099
0.0209738451131695
0.021075610829297
0.0211627902520228
0.0212355160389018
0.0212939146373774
0.0213381007495119
0.0213681701864656
0.0213841910484562
0.0213861936417708
0.0213741588509489
0.0213480066915869
0.0213075868779934
0.021252672420537
0.0211829528218717
0.0210980182518277
0.0209973342561381
0.0208802100685267
0.0207457678898383
0.0205929184236747
0.0204203479875269
0.0202265293856562
0.0200097591656772
0.0197682572454389
0.0195003299937669
0.0192046424187778
0.0188805831315123
0.0185286849256476
0.0181509274277223
0.0177503941317517
0.0173296666075931
0.0168861078452624
0.0164043802311469
0.0158470184909354
0.0151517742423811
0.0143925265241193
0.0141052276994886
0.0146573288511734
0.0157914804241291
0.0172989231244607
0.0190804562787012
0.0210449300970398
0.0230929578003923
0.0250910749125682
0.0269042754153244
0.0284991440548609
0.0299495827248471
0.0314103101271317
0.0331324385414989
0.0355586207195805
0.0391270964801562
0.0441464174153435
0.0505798741183355
0.0573073181983207
0.0611893965991434
0.0583482437866071
0.0508024428186288
0.0467990187125723
0.0399798346480775
0.025582587209342
0.0156293008421658
0.00928957196745153
0.00560146578404078
0.00299113654990572
0.00140948349910596
0.000901178939210712
0.000897371064777466
0.00104301543149037
0.00124900111361784
0.00148411813128007
0.001721064552541
0.00193868654588528
0.00212311883208796
0.0022622475058762
0.00233490384445962
0.00232594053942409
0.00223919631922827
0.00215092475770028
0.00222835514598266
0.00268888496292752
0.00334458248417429
0.00408502360235374
0.00488121679280468
0.00569673791133559
0.00650895341888834
0.00730340116175264
0.00807359550364244
0.00881699874632098
0.00953343112152856
0.0102237066233839
0.010889044037402
0.0115307318416214
0.0121499915254204
0.012747926178146
0.0133255089831185
0.0138835872261508