/*--------------------------------*- C++ -*----------------------------------*\
  =========                 |
  \\      /  F ield         | OpenFOAM: The Open Source CFD Toolbox
   \\    /   O peration     | Website:  https://openfoam.org
    \\  /    A nd           | Version:  7
     \\/     M anipulation  |
\*---------------------------------------------------------------------------*/
FoamFile
{
    version     2.0;
    format      ascii;
    class       volScalarField;
    location    "20000";
    object      k_diff;
}
// * * * * * * * * * * * * * * * * * * * * * * * * * * * * * * * * * * * * * //

dimensions      [0 2 -3 0 0 0 0];

internalField   nonuniform List<scalar> 
15600
(
0.00313854508288539
0.00141929188313185
0.00033957230077284
0.000120127573812895
0.000169369417453799
4.15756289900599e-05
6.92057135399785e-06
3.8387669339931e-06
3.99832479930881e-06
4.67909276905623e-06
5.73329100245803e-06
7.27380385830444e-06
9.31439616880442e-06
1.17348442106323e-05
1.4435385612422e-05
1.70371392574052e-05
1.8512071717697e-05
1.77768941114731e-05
1.44223267344792e-05
9.07299165542831e-06
4.55792489698885e-06
2.9723950208001e-06
4.1860607686873e-06
6.88779680521478e-06
1.07715362689865e-05
1.64058383570049e-05
2.41420589815731e-05
3.41187511084046e-05
4.62718132324765e-05
6.03584909344161e-05
7.60639430129624e-05
9.30642396166625e-05
0.000111080955985128
0.000129888677367517
0.000149314685948651
0.000169225597889854
0.000189517662160194
0.000210106777646028
0.000230922238196298
0.000251901676642193
0.000272987919366548
0.000294126753500591
0.000315265552416332
0.000336352327420896
0.000357335369900318
0.000378163483261383
0.000398787257163153
0.000419161028102407
0.000439244671210461
0.000459004172128102
0.000478412608871923
0.000497439707211856
0.000516219295344546
0.000534638684088073
0.00055239929980542
0.000569347490075836
0.000585455829456774
0.000600680348109407
0.00061498088291835
0.000628321267861501
0.000640669583890369
0.000651998403361336
0.000662284963011142
0.000671511121571062
0.000679663221318151
0.00068673186629066
0.00069271156141998
0.000697600025331108
0.000701397328827181
0.000704104851909753
0.000705723785167175
0.000706253555050394
0.000705690026292229
0.000704024058491532
0.000701240370275146
0.000697316922081017
0.000692224510990148
0.000685925515467855
0.000678371076792451
0.000669497069923659
0.000659220376033092
0.000647435614538972
0.000634014134873168
0.000618806201504672
0.000601648300936406
0.000582379029439725
0.000560865842557306
0.000537051877454637
0.000511016614610596
0.000483076607589314
0.000453873592914161
0.000424543439031845
0.000396739102326037
0.00037286477792777
0.000355624327557091
0.000348461697831007
0.000350381359604546
0.000351594707959981
0.0002956504371508
0.000203893873829905
0.000195315170485254
0.000240886205174755
0.000321836818131708
0.000442652184878553
0.000606232275050761
0.000809835411806108
0.00105640696588572
0.00131631683201812
0.00155112782517568
0.00174318260293162
0.00193060754732622
0.00212823598688076
0.00251655402078517
0.00322004387353594
0.00470755559061842
0.00794234503073449
0.018807383166029
0.0237325174925231
0.00868672979900926
0.00392862471912093
0.0167363546581329
0.00763784643532158
0.00199683937017969
0.000670530885530162
0.000919075516178461
0.000252709676282661
4.47404554799738e-05
2.17360489383961e-05
2.18411100319403e-05
2.53837994907615e-05
3.09832425914711e-05
3.92143863131726e-05
5.01897037072672e-05
6.32681067260925e-05
7.77152214645219e-05
9.1605219783885e-05
9.95215565783391e-05
9.58195403368549e-05
7.84788314886816e-05
5.03409069706693e-05
2.56230718238224e-05
1.65027230327362e-05
2.3235633630937e-05
3.81577725514089e-05
5.94874323832215e-05
9.03569418977681e-05
0.000132586232752024
0.000186812058712731
0.000252577104845074
0.000328489120411053
0.000412797533190796
0.000503741490002086
0.000599829124356186
0.000699869622200664
0.00080296209019078
0.000908419894162134
0.00101571616417354
0.00112442957887466
0.00123421056957403
0.00134475424020731
0.00145578357020283
0.00156703743206255
0.00167826315369653
0.00178921119815317
0.001899632867415
0.0020092809614605
0.00211791584390417
0.00222531523640836
0.00233128417334044
0.00243565779113317
0.00253831420196533
0.00263900287890469
0.00273861597516492
0.00283322842330992
0.00292361564247562
0.00300999186297021
0.00309211397639914
0.00316977815202521
0.00324279728511678
0.00331100163620724
0.00337424034095412
0.00343238232696832
0.00348531706731717
0.00353295433528019
0.00357522363037068
0.003612073066224
0.00364346763157571
0.00366938592413971
0.00368981607227982
0.00370475091246273
0.0037141805662944
0.00371808554364884
0.00371642796485572
0.00370914533085324
0.0036961451763826
0.00367730202463608
0.00365245524334011
0.00362140107350491
0.00358387919784376
0.00353955245226358
0.00348798894049544
0.00342864641396985
0.00336086665369057
0.00328388640301235
0.00319687193261289
0.00309899563786978
0.00298956815849019
0.00286826460632432
0.00273543584854689
0.00259259790609649
0.00244292653197871
0.00229204590112544
0.00214827527511877
0.00202336136824243
0.00193010947193913
0.00188163456413209
0.00186620546691206
0.00181451488226675
0.00150427680337028
0.00110296786377777
0.00109058534340455
0.00135206764248274
0.00180310950450598
0.00246628697017118
0.00335134655356056
0.00444440725195478
0.00575157244973573
0.00711764442831522
0.00835366290533417
0.00939388935192609
0.0104264743164761
0.0115613328644646
0.0137082216506368
0.0175602662556891
0.0254177934996684
0.0417368883838015
0.0838839950963008
0.0995709652575284
0.0419729608297121
0.0202542825076878
0.0328584953652181
0.0165802242994195
0.00513120904425462
0.00161397840520654
0.00211634503503216
0.000660360668232301
0.000125874590540939
5.48010687156404e-05
5.2857406088281e-05
6.08986859263291e-05
7.39540004197007e-05
9.32429114435499e-05
0.000119069415129967
0.000149849215961293
0.000182784281191464
0.000213255825540055
0.000228957201654042
0.000218166297193772
0.000178871085728497
0.000117893846362956
6.20962143884597e-05
4.05075899830304e-05
5.80861360226239e-05
9.48802187402347e-05
0.000146321216452111
0.000220048022844807
0.000318571242069567
0.000441946352833329
0.000587800185527838
0.000752225612780451
0.000931079131888201
0.0011206648006807
0.00131812257947102
0.00152134949542335
0.00172887756424307
0.00193966966469977
0.00215298956315546
0.00236828518659091
0.00258512155132973
0.00280312779710559
0.00302196645682025
0.00324131121745975
0.00346083361453664
0.00368019274423216
0.00389903022475977
0.00411696950014761
0.00433362418115153
0.00454861455563169
0.00476159652715782
0.00497226483149949
0.00518056939975827
0.00538412296878701
0.00557144316450993
0.00575460781995969
0.0059320276274885
0.00610276303493637
0.00626641146058
0.00642257407166546
0.00657087210844441
0.00671094764125232
0.00684246797381241
0.00696512776938076
0.00707865132623725
0.00718279308475939
0.00727733772749912
0.0073620990765701
0.00743691804527371
0.00750165802239114
0.00755619886386439
0.00760042991831212
0.00763423781542264
0.00765749626267257
0.00767005095572028
0.00767170941750962
0.00766223107696734
0.00764132083555978
0.00760862452082992
0.00756371273926347
0.00750605806131786
0.00743499827596272
0.00734970329584485
0.00724914425211197
0.00713207594015919
0.00699704588696122
0.00684243870964575
0.00666658841393509
0.0064679873742656
0.00624565149042202
0.00599966900864733
0.00573205011847093
0.00544773519860716
0.00515596731190223
0.0048709592844903
0.00461212883400368
0.00439857222174636
0.00423971178982551
0.00409301177043984
0.0037948271206517
0.00310265885382924
0.0025273869034544
0.00264268962599726
0.00327878293752355
0.00433103285463545
0.00584612366535937
0.0078276192750531
0.0102491866282874
0.0131011871117303
0.0160736686878981
0.018811134865973
0.0212603649258454
0.0237522331672598
0.0265932889863043
0.0315096711657621
0.0399592128818762
0.0556496528639643
0.083436925490792
0.129859532810158
0.147357322235432
0.077764977945295
0.0367155928454787
0.0309352910466816
0.0199989994290673
0.00876283771624429
0.00281780131008576
0.00330838118284273
0.00119675733991898
0.000249791860353797
9.93132912214611e-05
9.14099693041743e-05
0.000104189484692797
0.000125644922933194
0.000157407288209464
0.000199808821203263
0.000249683248587889
0.000299874988381549
0.000341929745886663
0.000357203981667863
0.000331309345955813
0.000268217388962314
0.000183589967733459
0.000103820739863637
7.25682776126975e-05
0.000108374689860703
0.000170364741723696
0.000256068343945565
0.000370508537146606
0.000512798430280938
0.000679998735940511
0.000868182112781715
0.00107346390589398
0.00129251643996055
0.00152258189329004
0.0017615398097596
0.00200772908633608
0.00225988622208514
0.00251699146628146
0.00277820947563891
0.00304280634092261
0.0033101163754474
0.00357950418494817
0.00385034893527489
0.00412203001954874
0.00439392144512367
0.00466538656092229
0.00493577708943547
0.00520443287479538
0.0054706838791081
0.00573385573042916
0.00599333896798646
0.00624843890430462
0.00648804878949203
0.00670902714149691
0.00693486240987696
0.00715286982458787
0.00736282840846992
0.00756437834106305
0.00775709626004217
0.00794058814866508
0.00811449814543191
0.00827850596290887
0.00843232908993822
0.00857572258997048
0.00870847890959373
0.00883042624555439
0.00894142660848272
0.00904137297208989
0.00913018578516352
0.00920780792230704
0.00927419854995233
0.00932932684986812
0.00937316181321069
0.009405663131416
0.00942676853895619
0.00943638329985983
0.00943437046444075
0.00942054351773227
0.00939466229522833
0.0093564215372365
0.00930543297527137
0.00924119595077538
0.00916306647363133
0.00907022668848671
0.00896166034277385
0.00883614317706327
0.00869225451421455
0.00852842806140014
0.00834306895297946
0.0081347720378818
0.00790269052469257
0.00764711904457497
0.00737029314609971
0.00707738120959327
0.00677705826637868
0.00648079493270662
0.00619684427034828
0.00591680300409437
0.00558584289870979
0.0050299180380459
0.00417455035412114
0.0037813900760417
0.00418253153489097
0.00519247625867071
0.00678007776023993
0.00900024526408127
0.0118332188453062
0.0152472437820826
0.0191986836582586
0.0233255520622909
0.0272579074190068
0.0311234086443602
0.0351937974872705
0.0399586955424419
0.0472550304186001
0.0587504938610713
0.077006779230836
0.102381475736137
0.129097440271679
0.144357314130554
0.111689910154965
0.0402728010563405
0.0281528774470799
0.0173830393624268
0.0113384725618755
0.0043952821478215
0.00415793625399804
0.00177867169054707
0.000415240934660848
0.000153803580521122
0.000134184868635837
0.000150862451216372
0.000180086815541024
0.000223160035378831
0.000279749489783363
0.000343910246078152
0.000401954044150375
0.000440700232035727
0.000439987373768527
0.000390547284248333
0.000306343846903515
0.000220940724589386
0.000143074125757219
0.000116534021822732
0.000170152879176837
0.000251450530531118
0.000351847658540008
0.000472661207211154
0.000615282634821786
0.000783726517311729
0.00098046297499128
0.0012043429908692
0.00145114739401515
0.00171536875300709
0.00199183998755004
0.00227629214171112
0.00256548870692527
0.00285699326357685
0.00314899283216748
0.00344009341336244
0.00372920398633868
0.00401543478040881
0.00429804136447744
0.00457638078623053
0.00484988691420856
0.00511805141760402
0.00538041181543034
0.00563653938626835
0.00588601921363534
0.00612840008832032
0.00636340050602278
0.00657486681157562
0.00677510461437444
0.00698195043764521
0.00717826562363148
0.00736547865858173
0.00754351842130421
0.007712259589517
0.00787157944575836
0.00802137421735212
0.00816156353879794
0.00829208719807515
0.00841290569473547
0.00852399965768289
0.00862536915806983
0.00871703234272311
0.00879902383645116
0.00887139284707074
0.008934200845196
0.00898751885785582
0.0090314242454401
0.00906599749099095
0.00909131765956063
0.00910745686319769
0.00911447368857232
0.00911240508237088
0.00910125926071952
0.00908101001768866
0.00905159453881157
0.00901291133135928
0.00896481248335767
0.00890709045567938
0.00883945918635623
0.00876153574793284
0.00867282365908115
0.00857270080518435
0.0084604174225473
0.00833510322957091
0.00819580285339491
0.00804153265080685
0.00787140085420264
0.00768474292399406
0.00748136140946334
0.00726155838901006
0.00702605610403564
0.00677432762744088
0.00650136852994312
0.00618710749851592
0.00579259676397202
0.00519105277073043
0.00443007061247089
0.00430464508824713
0.00493073432539057
0.00610731930025634
0.00788194839484231
0.0102874279701211
0.0132731876202109
0.016814190216977
0.0208411726976864
0.0250484178107029
0.0292825326532626
0.0339099495054176
0.0390184468452881
0.0451506168014476
0.0535790143164137
0.0654979159801163
0.0814859779243507
0.0993742127501604
0.111452995448485
0.110848709436312
0.12476799900892
0.0470862470663824
0.0359477765021041
0.0165365233472467
0.0121789191296558
0.00658914631326654
0.00456644511443368
0.00230955063289769
0.000616780567202158
0.000217413059111351
0.000178313687955542
0.00019682910359238
0.000231420909707339
0.000281694596259717
0.000345386238615287
0.000412317422422296
0.000462241361920921
0.000478703787611572
0.000449047201466055
0.000376197457142094
0.000285016072092462
0.000207102155717373
0.000174243008675413
0.000173270304897795
0.000224820854234435
0.000301521564592344
0.000389219897197094
0.000501488750145244
0.000653522238653271
0.000853085427362196
0.00109485885113486
0.00136549343196696
0.00165116617934926
0.00194181497512728
0.00223150500483085
0.00251716361659573
0.00279739150930502
0.00307160334437749
0.00333960432105851
0.00360134302174202
0.00385681969491579
0.00410603203344955
0.00434896324651279
0.00458557560944003
0.00481581470199913
0.00503961297688672
0.0052568938961919
0.00546757266255726
0.00567154438331155
0.00586853351439877
0.00604566515114988
0.00621419074377621
0.0063897326682161
0.00655603413382159
0.00671394725680273
0.00686402373723386
0.00700624095998895
0.00714055044030244
0.00726690928953583
0.00738528496451907
0.00749565723918656
0.00759801679547116
0.00769236571735944
0.00777871781024611
0.00785709855543989
0.00792754470019194
0.00799010350423755
0.00804483195160433
0.00809179552550329
0.0081310670642289
0.00816272550569244
0.0081868544688305
0.00820354097570935
0.00821287216831137
0.00821493198016349
0.0082097946588539
0.00819751863911997
0.00817814152223791
0.00815167849210727
0.00811812509673622
0.00807745616037215
0.00802962149271626
0.0079745344898633
0.00791206054450409
0.00784200480027769
0.00776409961476476
0.00767799574139508
0.00758324747778152
0.00747930673979171
0.00736549535607574
0.00724099542730019
0.00710474491236428
0.006955379714442
0.00679076529731293
0.00660768447989682
0.00639995443065863
0.00615804011882069
0.00586159545118018
0.00548869229758771
0.00494326656955478
0.00429950740349258
0.00430282673195532
0.00495422662722779
0.006054644033771
0.00768669909705907
0.00985595286000795
0.0125018357060407
0.0156158023760901
0.019124586592631
0.0227118140206458
0.0266548440666711
0.0311994387846798
0.0364343270057306
0.0428792241319218
0.0512549974837592
0.062209205159092
0.0750904702238044
0.0868979967404987
0.0873810097329109
0.0742183737099838
0.0977605672474813
0.0545183930471672
0.0419956936515102
0.019358336077843
0.0110633662555786
0.0105954435392886
0.00479353865077841
0.00272532805760532
0.000843754586898494
0.000289060087029194
0.000220528677866015
0.00023729957805388
0.000273002680960869
0.000323677911416474
0.00038389068886107
0.000438865783170371
0.000465872989583473
0.000450322223337995
0.000393277502357701
0.000308210462265663
0.0002239609157622
0.00017151594569082
0.000177955177490186
0.000215346602312362
0.000248765212947905
0.000307381567916878
0.000394165232298375
0.000531762179887179
0.000730108761142654
0.000976936559496058
0.00124774125804851
0.00152254234847045
0.00179093201481785
0.00204988889798356
0.00229964962689921
0.00254141087499617
0.00277632637256244
0.00300524272572545
0.00322870918624079
0.00344704120845064
0.00366039868643421
0.00386883555731244
0.00407233984875534
0.00427085731167029
0.00446431028003387
0.00465260975168153
0.00483566334138986
0.00501338113520542
0.00518570697293937
0.00534912075199594
0.00549150973989201
0.00564784995440275
0.005796320807594
0.00593759282476629
0.00607206305610393
0.00619996159298244
0.00632124321542614
0.00643585799739246
0.00654376324810597
0.00664492739046036
0.00673932906754913
0.00682695654767511
0.00690780768506736
0.00698189037231049
0.00704922257084211
0.00710983216527443
0.0071637564875095
0.00721104192980604
0.00725174317004115
0.00728592267162204
0.00731365037777155
0.00733500327570787
0.00735006570757251
0.00735892773876326
0.00736168357688361
0.00735842652648301
0.00734924328595766
0.00733420901861132
0.00731338578673044
0.00728682719643164
0.00725458168290442
0.00721669295708823
0.00717319308849613
0.00712409442509722
0.0070693789916074
0.00700898519688233
0.00694279387956447
0.00687060003285716
0.00679208339752713
0.00670673462417717
0.00661377835726106
0.00651195311075584
0.00639932149865634
0.00627261697646063
0.00612695606890551
0.00595412044045232
0.00574401404876002
0.00547932657041755
0.00514759676021475
0.00466377311549876
0.00409605121349192
0.00412903409324657
0.00470487865078493
0.00564006655342567
0.00702892699220994
0.00886294038173049
0.011089388086741
0.0137105181703688
0.0166531063556525
0.0194952232422775
0.0230381568436474
0.0271426507398678
0.031988566319202
0.0380465260577097
0.0457048871696948
0.0552120357400233
0.0651322420292969
0.0717911664802165
0.0638309844147294
0.0464234819727889
0.064821694641053
0.0542778878396933
0.0405483879948501
0.0247858666462358
0.0103659942940157
0.0134380659732678
0.00527369510266412
0.00305911309145055
0.00108793673038525
0.000368053175559769
0.0002576804374303
0.000267610588686308
0.000299318927024717
0.000343377201303262
0.000391001980512277
0.000424653630032111
0.000425245247583867
0.000384472401662085
0.000313741260339333
0.000229894266713608
0.000160636460462187
0.000134911819151089
0.000169214102583755
0.000220810904611461
0.000243144995647471
0.000303178823623215
0.00041974629930325
0.000603087325735181
0.000837003192615204
0.0010896442294069
0.00133610218695151
0.00156845838586511
0.00178762935490748
0.00199734568099605
0.00220065409188372
0.00239954305635712
0.0025950516089889
0.00278763402709278
0.00297739560764253
0.00316425865971285
0.0033480565906416
0.00352858563167277
0.00370563207282656
0.00387898582006766
0.00404844892670898
0.00421384069970455
0.0043749996557233
0.00453178395776238
0.00468477515628224
0.00481317969054348
0.00495829453590333
0.00509626998543308
0.0052279195695826
0.00535359647728079
0.00547348986909747
0.0055876878226444
0.00569612966236663
0.00579876226795433
0.00589554057964758
0.00598643201670656
0.00607141352091772
0.00615047130390892
0.00622360041870823
0.00629080518473658
0.00635209919879951
0.00640750527901233
0.00645705515539154
0.00650078928488068
0.00653875631206201
0.00657101288507489
0.00659762387745272
0.00661866264831294
0.00663421222074208
0.00664436506735914
0.00664922278269748
0.00664889244737089
0.0066434813447132
0.00663309187869088
0.00661781968210537
0.00659775857179587
0.0065730067982883
0.00654367048914209
0.00650985972884667
0.00647168279329905
0.00642923627992067
0.00638259129373366
0.00633177623239322
0.00627674015112925
0.00621731029746662
0.00615309282850205
0.0060833610348649
0.00600678123839787
0.00592116663671366
0.00582277301893343
0.0057060852980692
0.00556231149487593
0.00538178091739546
0.00515010527374809
0.00485931905041967
0.00442750276201615
0.00391085310368378
0.00393412460568373
0.00441310548525206
0.00518478932584389
0.00634448494008441
0.00787730806157761
0.00974124032477553
0.0119414662165659
0.0142684006264536
0.0166764597162687
0.0197562991673459
0.0233727241063272
0.02770213677323
0.0331429643797456
0.0398599201079216
0.0477824225850326
0.0549382878059112
0.057193562894501
0.0436254878170494
0.0262452100305789
0.0404057418818348
0.0483081888791063
0.0336440319231688
0.0318442469299912
0.0111896023754676
0.0137984122490945
0.0062465443539857
0.00340555627399659
0.00135841629759251
0.000456769316437008
0.000288594063388667
0.000285661220701244
0.000309623062575914
0.00034351450880783
0.000375732332801693
0.000388449602484571
0.000369556841888145
0.000316349820655577
0.000243765696314012
0.000167972686444874
0.000114871799849119
0.00010982227086352
0.00015646863157892
0.00020519064005102
0.000234120717786013
0.000319730939985054
0.000476674625893392
0.000688711979574627
0.00091762107592289
0.0011350760563972
0.00133240802671461
0.00151489056268246
0.00168882178467102
0.00185895518968901
0.00202765530945039
0.00219593471894689
0.00236395330717809
0.00253149122214335
0.00269814926352452
0.00286348363905086
0.00302705888231886
0.00318847531266784
0.0033473739820652
0.00350343664176003
0.00365638382173801
0.00380597374815768
0.00395199926636615
0.00409417699422018
0.00422775061280924
0.00435330085762428
0.00448446743749736
0.00460978197180317
0.00472973340906623
0.00484451304108236
0.0049542043246608
0.00505882642610216
0.00515831297184447
0.00525261159119654
0.00534167865543411
0.00542548384661447
0.00550400595602987
0.0055772326743772
0.00564515995711423
0.00570779240087278
0.00576514319649911
0.0058172340844915
0.00586409517677946
0.00590576491018163
0.00594228961519869
0.00597372347080816
0.00600012903593995
0.00602157802207441
0.00603815296930514
0.00604994823512659
0.00605707075551179
0.00605963778447734
0.00605777215064386
0.00605159695300957
0.00604123306821672
0.00602680351038215
0.00600844156432435
0.00598629642915706
0.00596053143125866
0.00593132008376998
0.00589883675110877
0.00586324261270674
0.00582466694658751
0.00578316541618828
0.00573867144094338
0.00569088384009851
0.00563913891717133
0.00558211537495062
0.00551756717880091
0.00544162423388047
0.00534863389488925
0.00522983129709983
0.00507606845465444
0.00487519162025251
0.0046214176363486
0.00423401444225919
0.00375789697082141
0.00375930743760181
0.00414625444556547
0.00477733611407404
0.00574320330165337
0.00702581123828728
0.00859191672503613
0.0104452234248121
0.0121769152892308
0.0143257397593966
0.0169807543376904
0.0201491038319262
0.0239749801957547
0.0287743767222393
0.0345313211083615
0.0408895835770507
0.0454795610454714
0.0438755981494574
0.0266306401710602
0.0114524844025964
0.0237519693127011
0.0406467977350539
0.024927896540807
0.0393083460139185
0.012231753294082
0.012742129646665
0.00778886581454879
0.00379841037325765
0.00168107739852092
0.000564990718258237
0.000316699420475673
0.000294349211605488
0.000309431390599165
0.000333596482651129
0.000352177847008362
0.000348899216986267
0.000319044853573706
0.000261513526888221
0.000191911471404432
0.000125375547633641
8.64785837826514e-05
9.57156436415118e-05
0.000147319812668572
0.000190225762578293
0.000240809278255989
0.000360973339313788
0.000544710034615423
0.000752693468478743
0.000946003381719526
0.00111528280161289
0.00126613728086189
0.00140885124963037
0.00154957271818325
0.00169161529895958
0.0018359763903587
0.00198266365996385
0.00213114135353695
0.00228071667147942
0.0024306607236761
0.00258029901707913
0.00272903020141761
0.00287633514338239
0.00302176671647414
0.0031649407822771
0.00330552775180982
0.00344324814059984
0.00357788486434981
0.00370957526557902
0.00382386148298317
0.00395048654111958
0.00407122629206761
0.00418695805413695
0.00429798410926785
0.00440440578300909
0.00450624921191487
0.00460349829089994
0.00469608674039947
0.00478396548379082
0.00486709506275855
0.00494544976796046
0.00501901276337483
0.00508777569326718
0.0051517379682913
0.00521090710642633
0.00526529857862297
0.00531493570531352
0.00535984958447735
0.00540007917024185
0.00543567085079944
0.00546667841041405
0.00549316374220403
0.00551519798899866
0.00553286348052395
0.00554625571096311
0.00555548512935931
0.00556067622185045
0.00556196346478936
0.00555948585277778
0.00555338360541661
0.00554380130715487
0.00553089702625552
0.0055148497390882
0.00549585911575302
0.00547414318348708
0.00544992959036096
0.00542344158718597
0.00539487933047771
0.005364375244491
0.00533194407554355
0.00529736523306102
0.00526005022356611
0.00521874513493586
0.00517125912983399
0.00511379409352161
0.00504080585967943
0.00494381761084724
0.0048141089627039
0.00464119193463813
0.00442064558302485
0.00407314699513518
0.00363392102812854
0.00361140662631552
0.00391677070005909
0.00442996146584874
0.00523374434492607
0.00630832690537248
0.00762670791435294
0.00917840013937226
0.0103692436670809
0.0123420656363055
0.014630785096781
0.0174009814640045
0.0207645565058751
0.0249513093487544
0.0297801747480309
0.0346194750343907
0.0367767741292643
0.0316780502176789
0.0122055585933435
0.000578140143813049
0.0124502313415148
0.0330901295609376
0.0167837162996153
0.0451307722626057
0.0120770506943371
0.0107282632140479
0.0100748687724664
0.00421699062859619
0.00206419415094459
0.000710467853565219
0.000351089097995031
0.000300876058093422
0.000306651738182977
0.000322009018145999
0.000328742924982993
0.000313889649424759
0.000279375753131005
0.000220904843329461
0.000155541453051372
9.78514682266707e-05
7.07956622603375e-05
8.87326400323033e-05
0.000137086513520084
0.000188521626435427
0.000267053917972775
0.000414815294436747
0.000600801237997095
0.00077932887124018
0.000927741747396749
0.00105379479543196
0.00116889435627405
0.00128278704316514
0.00139976296193764
0.00152152344137507
0.00164801878420566
0.00177858295553297
0.00191225291497652
0.00204805164931387
0.00218505365520215
0.00232244491477306
0.00245952235090364
0.00259569229242675
0.00273045164457775
0.0028633734026231
0.00299409439488103
0.00312230668292415
0.00324775472480887
0.00337243385020202
0.00347923485487384
0.00359662539298956
0.00370901921023099
0.00381699453174851
0.00392074309001676
0.00402031388437737
0.0041157012057386
0.00420687102597344
0.00429376052554138
0.00437632550511297
0.00445453247022801
0.00452836190858966
0.00459780308321647
0.00466285328973206
0.00472351714810352
0.00477980694740535
0.00483174232670591
0.00487935003618681
0.00492266395226174
0.00496172530056874
0.00499658216358974
0.00502728933568802
0.0050539091351491
0.00507651280330412
0.00509518251281753
0.00511001412430674
0.00512111997262763
0.00512862926963977
0.00513268492784695
0.00513343806934224
0.0051310438208965
0.00512566272534687
0.00511747006042634
0.00510666479165181
0.00509347053682079
0.0050781347352237
0.00506092067696535
0.00504209366069369
0.00502190363329923
0.00500053900178074
0.00497807895932518
0.00495437548461312
0.00492892345114673
0.004900571380933
0.00486725279323949
0.0048253560332379
0.00476957174954386
0.00469183765891284
0.00458378110914549
0.00443622941135046
0.00424601647651877
0.00393613662132965
0.00353325503002731
0.00348834963606458
0.00372253801026212
0.0041363980687966
0.00480289041110302
0.00570113474557145
0.0068081944614549
0.00789150337586779
0.00898475629072218
0.0106372019673557
0.0126036847682533
0.0150165952417569
0.0179540599566003
0.0215565419237424
0.0254807924093844
0.0288216930707992
0.0286181029815892
0.0202977986326476
0.000401320113851878
-0.00737978606059947
0.00478697732939636
0.0260315705280282
0.0102084463077387
0.0468493607511522
0.0107297092580493
0.00789587705284642
0.0127385105851249
0.00469628803989358
0.00247581685360303
0.000908861466457744
0.000403529686831482
0.00031253902156851
0.00030623062314114
0.00031186576412796
0.000307707372448708
0.000284577415026355
0.000243683801056848
0.000191923985741802
0.00013114616166174
8.18460893475358e-05
6.47535368407546e-05
8.74623407654502e-05
0.000119562172948104
0.000202493343764144
0.000306972262807769
0.000465973004417536
0.000632207163072591
0.000770920722294803
0.000878583108350503
0.000971142554970109
0.00106018766322055
0.00115311894962963
0.00125248451873501
0.00135880386333673
0.00147138321857798
0.00158915796661127
0.00171092249040056
0.0018355338038544
0.00196194832468342
0.00208926404612238
0.00221671143123944
0.00234364633507146
0.00246952668509911
0.00259389452036336
0.00271636168057127
0.00283659614679505
0.00295405342241421
0.00306095152202317
0.00317290511785196
0.00328264422353214
0.00338800820132992
0.00348938737947449
0.0035869049163163
0.00368057910538659
0.00377038709486704
0.00385628685778825
0.0039382211364047
0.00401615172571348
0.00409005233889322
0.00415991083335144
0.00422572384348804
0.00428749556525914
0.00434523711160306
0.00439896692961414
0.00444871025620275
0.00449449865552713
0.00453637010586285
0.00457436941528064
0.0046085475952954
0.00463896150012399
0.0046656746815882
0.00468875897130025
0.00470829637995926
0.00472438242544612
0.00473712987826984
0.0047466704704771
0.00475315277701317
0.00475673693438126
0.00475758950788076
0.00475588270604385
0.0047518031682689
0.00474556228867867
0.00473739805082432
0.00472757567709537
0.00471638063440874
0.00470410501776701
0.00469103272685573
0.00467739248342848
0.00466331523000097
0.00464871888630936
0.00463318594825059
0.0046156887681993
0.00459432624063872
0.00456574083841118
0.00452492611935818
0.00446431253959162
0.00437586216237899
0.00425154960783814
0.0040896233774475
0.00381648216625284
0.00345081285407522
0.00338628327422695
0.00355838736685501
0.00388744000121411
0.00443548323257219
0.00518086764766476
0.00610289623243726
0.00672402931899338
0.0077720701438547
0.0091410450657325
0.0108174460429244
0.0129028806713824
0.015438503060589
0.0184709055600209
0.0214920250836632
0.0233262027606025
0.0207814553977805
0.00957416193229732
-0.012961795631217
-0.0155659229371622
-0.000469564702563508
0.0194489975979962
0.00534863131235787
0.0429585536120848
0.00974389730539771
0.00506568474696171
0.0124243542542501
0.00535798810598483
0.0028760939807114
0.00116048324544734
0.000483163928726964
0.000333465266456715
0.000309289626590243
0.000303361902539863
0.000289521898533293
0.000261114572602032
0.000218755470979952
0.00017228419066493
0.000116297663186096
7.50811763107049e-05
6.68560792144302e-05
9.44319050199607e-05
0.000130601322169396
0.000228325996507619
0.000351047755828353
0.00050309426513346