/*--------------------------------*- C++ -*----------------------------------*\
  =========                 |
  \\      /  F ield         | OpenFOAM: The Open Source CFD Toolbox
   \\    /   O peration     | Website:  https://openfoam.org
    \\  /    A nd           | Version:  7
     \\/     M anipulation  |
\*---------------------------------------------------------------------------*/
FoamFile
{
    version     2.0;
    format      ascii;
    class       volScalarField;
    location    "20000";
    object      nut;
}
// * * * * * * * * * * * * * * * * * * * * * * * * * * * * * * * * * * * * * //

dimensions      [0 2 -1 0 0 0 0];

internalField   nonuniform List<scalar> 
15600
(
2.54999091817745e-09
1.01872977269249e-09
1.20936458732952e-10
2.13850859614069e-11
2.41896734672239e-11
6.20118084217762e-12
1.24969852978952e-12
9.26063094968857e-13
1.34269306066878e-12
2.12672720763395e-12
3.41624825699182e-12
5.51868382892884e-12
8.76268655033113e-12
1.36177310983655e-11
2.13145498000992e-11
3.32218222565334e-11
4.98991831351542e-11
7.00735571749876e-11
8.55330780456758e-11
8.00172786861926e-11
5.511655384331e-11
3.90836953916057e-11
5.32876893245953e-11
8.76778148196833e-11
1.37126615928262e-10
2.08914072154014e-10
3.07487333495877e-10
4.34632003400832e-10
5.8953343427492e-10
7.69098833081478e-10
9.69316040709894e-10
1.18605783260497e-09
1.41577677093895e-09
1.65560074671344e-09
1.90332840333159e-09
2.15725894517291e-09
2.41606844714669e-09
2.67868280573689e-09
2.94419808397405e-09
3.21181618988046e-09
3.48080485965756e-09
3.75046927802486e-09
4.02013461673115e-09
4.28913402915891e-09
4.55680418708722e-09
4.82248839941082e-09
5.08555300502556e-09
5.34541242414088e-09
5.60155193825971e-09
5.85353506223928e-09
6.10101513835082e-09
6.34361931746812e-09
6.58302712229682e-09
6.81779315350309e-09
7.04561087316468e-09
7.26431369587101e-09
7.4723109101599e-09
7.66901882667193e-09
7.85390356098046e-09
8.02648298392951e-09
8.18632991358749e-09
8.3330756774197e-09
8.46641272970495e-09
8.58609437950601e-09
8.691933150849e-09
8.78379816081323e-09
8.86161075415393e-09
8.92533573527487e-09
8.97497026388866e-09
9.01053042195751e-09
9.03203188440968e-09
9.03946906362763e-09
9.0327915936467e-09
9.01188487240744e-09
8.97655487424341e-09
8.92651986176451e-09
8.8614053140643e-09
8.78072926822586e-09
8.68386568929359e-09
8.5699921455973e-09
8.43804082106812e-09
8.28665489140658e-09
8.11417500299897e-09
7.91866638062524e-09
7.69801309026212e-09
7.45012415675087e-09
7.17327755606914e-09
6.8667318633998e-09
6.53149879291335e-09
6.17166677100085e-09
5.7954832317894e-09
5.41762561561775e-09
5.05932130986462e-09
4.75180567660285e-09
4.5303721177234e-09
4.44244741193728e-09
4.47877095827222e-09
4.54662920114785e-09
3.98795284516752e-09
2.48615451101012e-09
1.71855589078148e-09
1.42197082086948e-09
1.26350066821064e-09
1.19140979730587e-09
1.18454357556751e-09
1.20152285025641e-09
1.23453137615426e-09
1.24800789886524e-09
1.18651068873931e-09
1.04680923609207e-09
8.84060520746716e-10
7.19551566284225e-10
6.11481353923948e-10
5.85831999157903e-10
7.09484229062208e-10
1.15408772830026e-09
3.53178822971751e-09
8.98793120570017e-09
6.29423969179844e-09
3.1445693839902e-09
4.78630409221411e-07
1.95254489342649e-07
2.52224417846782e-08
4.38025313872546e-09
4.77268239852532e-09
1.34161374550218e-09
2.84480564735277e-10
1.83445161518662e-10
2.55818098327727e-10
4.02675093856857e-10
6.44998751666355e-10
1.04061120774959e-09
1.65283400145894e-09
2.56913073087761e-09
4.01902929914938e-09
6.27186334040442e-09
9.45233507484674e-09
1.33565150399951e-08
1.647398956923e-08
1.55991311068383e-08
1.07595339371618e-08
7.52299555667867e-09
1.02979326372776e-08
1.6918085582401e-08
2.63971298422992e-08
4.0111120288324e-08
5.88939346901764e-08
8.30686086589331e-08
1.12481258074552e-07
1.46547089745615e-07
1.84509550392011e-07
2.25586189723198e-07
2.69103964630694e-07
3.14516925805274e-07
3.61407578644237e-07
4.09454363929678e-07
4.58408618738909e-07
5.08070065467857e-07
5.58271609326298e-07
6.08866848138741e-07
6.5972230916065e-07
7.10711888802411e-07
7.61713415157367e-07
8.12606231044323e-07
8.63270205194821e-07
9.13586116752012e-07
9.63438647677055e-07
1.012721170438e-06
1.06134002486048e-06
1.10921576165082e-06
1.15628520317053e-06
1.20247682601787e-06
1.24811311882598e-06
1.29291830565045e-06
1.33619929263867e-06
1.37758173075958e-06
1.41697553069794e-06
1.45427152504496e-06
1.48936918655647e-06
1.52217717275038e-06
1.55261396310979e-06
1.5806085567527e-06
1.60610098125848e-06
1.62904228271812e-06
1.64939426909596e-06
1.66712907071804e-06
1.68222835200203e-06
1.69468172071927e-06
1.70448470654021e-06
1.71163625781466e-06
1.71613518148121e-06
1.71797624701724e-06
1.71714584370747e-06
1.71361835868863e-06
1.70735336577544e-06
1.69829409838166e-06
1.68636643517561e-06
1.67147605706145e-06
1.65350148364751e-06
1.63228425856739e-06
1.60761968335615e-06
1.57924861341184e-06
1.54685484383684e-06
1.51007009829177e-06
1.4684916557793e-06
1.42172088620951e-06
1.36942804480063e-06
1.31146689528903e-06
1.24802145141741e-06
1.17985427123558e-06
1.1085166868462e-06
1.03677207597028e-06
9.68636953310801e-07
9.10004108030942e-07
8.67520377442367e-07
8.50005907730733e-07
8.55710369567835e-07
8.65410320649121e-07
7.57085178670815e-07
4.73141712818719e-07
3.2825845126715e-07
2.73470825492021e-07
2.44435261089976e-07
2.31544549023293e-07
2.30662773809426e-07
2.34110283722821e-07
2.40261915250429e-07
2.42074407613539e-07
2.29207895307029e-07
2.01745939832143e-07
1.70245573335335e-07
1.38925887909618e-07
1.1883447516137e-07
1.15083137340845e-07
1.41001863169977e-07
2.33368498147317e-07
6.78396507763477e-07
1.6403547681026e-06
1.08950557451049e-06
5.66884069680579e-07
9.48159196735214e-06
4.00493369601791e-06
5.82994457075654e-07
1.01802323489016e-07
1.07639281745265e-07
3.30601571492131e-08
7.41848289615526e-09
4.25683621820353e-09
5.67381856631314e-09
8.85703383554106e-09
1.41318609921012e-08
2.27507554410546e-08
3.61386889571195e-08
5.62435697418819e-08
8.79814279213891e-08
1.3745394182609e-07
2.07754195842601e-07
2.95048503884481e-07
3.67356216561478e-07
3.52508507288413e-07
2.44036895483664e-07
1.67436383927597e-07
2.29938585718718e-07
3.75694782879908e-07
5.8070624665834e-07
8.74146608720416e-07
1.27234041686433e-06
1.7811434305771e-06
2.39711297569901e-06
3.10790440834511e-06
3.89758192744004e-06
4.74956179332733e-06
5.64959613960681e-06
6.58616805697495e-06
7.55057469532089e-06
8.53621596708022e-06
9.53810301837251e-06
1.05523160863447e-05
1.15756728649109e-05
1.26054514005538e-05
1.36392186234053e-05
1.46747059115409e-05
1.57097320614831e-05
1.67421456584716e-05
1.77697971469629e-05
1.87905371237364e-05
1.98022729777116e-05
2.08030639889828e-05
2.17912053097735e-05
2.2765237009194e-05
2.37240111385532e-05
2.46653902886094e-05
2.55964904478028e-05
2.64911219553402e-05
2.73503410770096e-05
2.81734114187452e-05
2.8958293351032e-05
2.97030502527118e-05
3.04058896344597e-05
3.10651677408194e-05
3.16794043354034e-05
3.22472926586334e-05
3.27677091465471e-05
3.32397124666875e-05
3.36625396097223e-05
3.40355972856069e-05
3.43584488454305e-05
3.46307848780616e-05
3.4852385778888e-05
3.50230797558968e-05
3.51426707112875e-05
3.52108744245788e-05
3.52272298052864e-05
3.51910372251824e-05
3.51013026679202e-05
3.49567051631645e-05
3.47555810740121e-05
3.44958504460784e-05
3.41748906440917e-05
3.37893291432595e-05
3.33348600096546e-05
3.28060701395153e-05
3.2196355763062e-05
3.14979945838073e-05
3.07024332426003e-05
2.98009873653235e-05
2.87860596779338e-05
2.76533391021843e-05
2.64047526362472e-05
2.50534583617802e-05
2.36285248255182e-05
2.21836798973193e-05
2.07994140929739e-05
1.95947344925001e-05
1.87045076103668e-05
1.82993351069343e-05
1.83303647874261e-05
1.83254663905416e-05
1.59421677920973e-05
1.02283468563194e-05
7.22803340501904e-06
6.07388662582894e-06
5.45404536031845e-06
5.17767668523229e-06
5.15577127383382e-06
5.22569368618495e-06
5.34770257607653e-06
5.36778497428405e-06
5.06782088127635e-06
4.46103662691832e-06
3.77022104589507e-06
3.09090509411951e-06
2.65712639682088e-06
2.58724656919079e-06
3.16820974423093e-06
5.16917176037713e-06
1.36265517975097e-05
3.06910897261193e-05
1.92293704573655e-05
1.00499422320675e-05
5.38504587559889e-05
2.56650434933698e-05
4.6825136958003e-06
8.6886889681493e-07
8.95616040955304e-07
2.99836635677473e-07
7.14933637976319e-08
3.71107082146876e-08
4.68741627984252e-08
7.23417679216944e-08
1.14791667889974e-07
1.84177869595286e-07
2.92410119500431e-07
4.55735687775382e-07
7.12507481705959e-07
1.11285112663391e-06
1.68312550005868e-06
2.39389362853794e-06
2.99701944965661e-06
2.91191553408021e-06
2.02496121648629e-06
1.36254010306238e-06
1.88057249526657e-06
3.01896338800611e-06
4.54969931150142e-06
6.68873346368087e-06
9.52658932553736e-06
1.30947618561661e-05
1.73612940310918e-05
2.22294670637855e-05
2.75761181895891e-05
3.32748427938484e-05
3.9219338634704e-05
4.53259755541707e-05
5.1533945080741e-05
5.77991608118152e-05
6.40902390028869e-05
7.0384117069339e-05
7.66634710096949e-05
8.29145547336797e-05
8.91259104256591e-05
9.52874259833522e-05
0.000101389766216492
0.000107423929644425
0.000113381016208617
0.000119252145891962
0.000125028726919869
0.000130702898183087
0.000136267946838422
0.000141717984495618
0.000147049632022559
0.000152234334024149
0.000157186444473191
0.000161946133445125
0.000166507939401248
0.000170865208260692
0.000175011284636364
0.000178939904193248
0.000182645359246986
0.000186122463007625
0.000189366635039059
0.000192373917811542
0.00019514101881479
0.00019766529074771
0.000199944709429913
0.000201977824404848
0.000203763703395019
0.000205301789083831
0.000206591724965898
0.000207633184539334
0.000208425500753822
0.000208967415099848
0.000209256610833335
0.000209289449660541
0.000209060674896108
0.00020856323102295
0.000207788198816193
0.000206724341737708
0.000205357501936637
0.000203669441739533
0.000201636833216866
0.000199230168102195
0.00019641295572161
0.000193141609754513
0.000189366111169021
0.000185032595090588
0.00018008838584553
0.000174492017981919
0.000168227819690269
0.000161332299956042
0.000153922604721737
0.000146250061382932
0.000138726468935697
0.000132000142267454
0.000126840287742977
0.00012421444075423
0.000123841121688043
0.00012258953584677
0.00010712543140808
7.3181789439953e-05
5.43274090808679e-05
4.65790030915535e-05
4.22933186347015e-05
4.03825146345766e-05
4.0242593483078e-05
4.07423781921839e-05
4.1567765107729e-05
4.16065384430094e-05
3.93280181772553e-05
3.48731796570783e-05
2.9748597703254e-05
2.4675800599797e-05
2.13812449401216e-05
2.08613783335527e-05
2.51816016243529e-05
3.91429015187528e-05
9.02943264995624e-05
0.000183738226097638
0.000115115297992306
5.47364631343251e-05
0.000153935053286014
8.02475327006332e-05
1.9843514586975e-05
4.34485117707885e-06
4.38299609639542e-06
1.59227873617176e-06
4.04689053233777e-07
1.93195517769316e-07
2.29279539165161e-07
3.48549955173999e-07
5.48997336748675e-07
8.76536003585516e-07
1.38956976713359e-06
2.16779021903677e-06
3.38392487293842e-06
5.27140587024934e-06
7.94781314649798e-06
1.12530661264081e-05
1.40533008557069e-05
1.37889822221459e-05
9.6688011908801e-06
6.41971280026028e-06
8.83106660478434e-06
1.35155301201706e-05
1.94852534856258e-05
2.75283145977891e-05
3.79554209440959e-05
5.08652274205285e-05
6.60630717946096e-05
8.30813226632742e-05
0.000101373605141872
0.000120426481682122
0.000139845761671796
0.000159349328445119
0.000178754539819947
0.000197945145981692
0.000216851830820128
0.000235433287303569
0.000253666144054335
0.000271536862137883
0.00028903744045379
0.000306162353104363
0.000322906925236401
0.000339266104810809
0.000355233926405607
0.000370803341945603
0.000385966851300051
0.000400717315379999
0.000415049245865656
0.00042895519153207
0.000442329194440313
0.000455100682045776
0.000467322117561075
0.000479005972695301
0.000490146970851583
0.000500737858357411
0.000510772544798876
0.000520245187343199
0.000529150772658956
0.000537484939224931
0.000545244221811387
0.00055242607664133
0.0005590289826897
0.000565052394537296
0.000570496703536323
0.000575363135393697
0.000579653640286631
0.00058337058679096
0.000586516393316793
0.000589093183779761
0.000591101962663534
0.000592542096720243
0.000593410263252021
0.0005936998776367
0.000593400423266017
0.00059249704339731
0.000590970427930748
0.000588795752690205
0.000585941306044755
0.000582365749643958
0.000578015656297379
0.000572822712070403
0.000566701349671852
0.000559547690463862
0.000551239827644289
0.000541641997416161
0.000530613860231367
0.00051803067393816
0.000503814388172251
0.000487993129506054
0.000470771149272217
0.000452664936438352
0.000434594445361869
0.000418103607950277
0.00040512808107612
0.000398145029084097
0.000396466212253093
0.000390627708369545
0.000345499638887888
0.000254666856916701
0.000202152360363913
0.000179096660678601
0.000165946406871006
0.000160214672892633
0.000160119913789518
0.000162041513346298
0.000164858211068268
0.000164797636369202
0.00015686057380757
0.000141588916848421
0.000123507218946296
0.000105080011035617
9.26801495228175e-05
9.06986353784283e-05
0.000106751951169297
0.000154784510274788
0.000308582808273633
0.000552114111328988
0.000385779950128868
0.000164955691309802
0.000325023469351299
0.000169113058794419
5.397469402954e-05
1.54664139282903e-05
1.5524927020143e-05
6.09351875463077e-06
1.65542124800887e-06
7.39264215828562e-07
8.1765768834392e-07
1.21863095262741e-06
1.90039757743041e-06
3.01285264895674e-06
4.76030598140256e-06
7.41883736318412e-06
1.15275217021653e-05
1.78047355203448e-05
2.65196979559022e-05
3.69046530043021e-05
4.52346170582433e-05
4.44562894823739e-05
3.16938202355292e-05
2.11747656111567e-05
2.80609651278302e-05
4.00656161366016e-05
5.47545866059106e-05
7.44133481382021e-05
9.99234441593307e-05
0.000131308588425735
0.0001675923674954
0.000207178658082594
0.000248514349966435
0.000290351455095657
0.000331868781352266
0.000372567424313259
0.000412191495790368
0.000450624731861237
0.000487838492583722
0.000523846946651089
0.000558687042815056
0.0005924029678132
0.000625039695189203
0.000656638521040789
0.000687235503232989
0.000716860339346787
0.000745536407656919
0.000773281186892127
0.000800107598256225
0.00082602483008708
0.000851042738439107
0.000875013506611015
0.00089787987189586
0.000919715537224471
0.000940553246542595
0.000960398503790407
0.000979254947806851
0.000997121576384393
0.00101399918532964
0.00102988793277447
0.00104478862510725
0.00105870237101616
0.00107163106510576
0.00108357748086521
0.00109454546094933
0.00110453987762794
0.00111356660566567
0.0011216323986322
0.00112874472612971
0.00113491132388017
0.00114013963774612
0.00114443627792842
0.00114780576759843
0.0011502496650013
0.00115176496275123
0.00115234310728511
0.00115196896631747
0.0011506201899523
0.0011482670148966
0.00114487066220656
0.0011403809860899
0.00113473210812805
0.00112783820860273
0.00111958876703889
0.00110984436867907
0.00109843425738772
0.00108515595223258
0.00106978050168048
0.00105206578705489
0.00103178665860303
0.00100878345823326
0.000983056340916156
0.000954883511473426
0.000925050113045627
0.000895029734145749
0.000867372730317639
0.000845372320231158
0.000833075810973049
0.000828752671226403
0.000812810093962026
0.000725100165003075
0.000566496055775066
0.000474351352319118
0.000432651671969472
0.00040882727156268
0.000399245792669258
0.000400496956036735
0.000405534109940071
0.000411896111934196
0.000411637077662834
0.000395013960927522
0.000363424933367221
0.00032507942818735
0.000285006622584455
0.000257423479498023
0.000253644547280461
0.000291414944273166
0.000396255447701651
0.000696429511226906
0.00110974665068454
0.000888732285130394
0.000365440709838932
0.000588654990324731
0.000293825368643343
0.000108749672234506
4.23056228708355e-05
4.38678566672737e-05
1.86468215368119e-05
5.43196736898807e-06
2.30946081354473e-06
2.36403573885598e-06
3.43399786740475e-06
5.28401485279113e-06
8.2926922799868e-06
1.30146535361949e-05
2.01693366114804e-05
3.09824724838604e-05
4.69221282656309e-05
6.8004335119609e-05
9.13368008087864e-05
0.00010793778696595
0.000104342368760424
7.64375170032049e-05
5.27279901530994e-05
6.53907905963803e-05
8.74389856797639e-05
0.000115143080305023
0.000153448047177261
0.000203485280597171
0.000263929039567049
0.000331573502567597
0.000402800755329689
0.000474769814833625
0.000545588579523374
0.000614243887104359
0.000680265122512137
0.000743531530356775
0.000804087342668212
0.000862065174922687
0.000917623520967538
0.000970925838576154
0.00102212349890628
0.00107135209759943
0.00111872872190647
0.00116435284544115
0.00120830695563147
0.00125065838976693
0.00129146118971637
0.00133075855499673
0.00136858210123285
0.00140484680786567
0.00143940248566658
0.00147237973785375
0.00150383468345892
0.00153379432044038
0.00156226892795667
0.00158927351223771
0.00161481581798327
0.00163890563929412
0.0016615510217086
0.00168276028763684
0.00170254155180579
0.00172090345581765
0.00173785537129653
0.00175340768006645
0.00176757176361769
0.00178035999593155
0.00179178561671647
0.0018018625024936
0.00181060458752441
0.00181802512901859
0.00182413592237735
0.0018289456878056
0.00183245874357856
0.00183467294302823
0.00183557819887869
0.00183515511207918
0.00183337409802354
0.00183019502703331
0.00182556519877545
0.00181941585342642
0.00181165629571374
0.00180216778692837
0.00179079677391235
0.00177734885938043
0.0017615847744935
0.00174321940893718
0.00172192798087064
0.00169736353630213
0.0016691969441689
0.00163718375595593
0.00160129320062314
0.0015618787892439
0.00151999821150725
0.00147769456244405
0.00143852102492636
0.00140707634371492
0.00138848261361342
0.00137876461494895
0.00134541912424614
0.00120687302244535
0.000982125156453612
0.000852880971734497
0.000793955265469464
0.000761214083361172
0.000749985936806259
0.000754839065401994
0.0007651438849168
0.000776604039599529
0.000776100613151012
0.00074965431657092
0.000699817112881653
0.000638424473011049
0.000573618684821902
0.000529095610586469
0.000525443035610396
0.000593066819434406
0.000768269192354879
0.00122717064873059
0.00179266532491794
0.00160277421214095
0.000669142125603557
0.000956502546553313
0.000463533362249469
0.000180683720711988
9.31570178055926e-05
0.000102759335928458
4.82184825628414e-05
1.51335023565367e-05
6.23898128490948e-06
5.88192102660041e-06
8.26889143405144e-06
1.25010634845473e-05
1.93407571578258e-05
2.9991759623227e-05
4.58676693254896e-05
6.89490670641555e-05
0.000101026617705544
0.000140360928472471
0.000179442573137441
0.000202317806997238
0.000190525982028455
0.000142637404630805
0.000103357103743455
0.000120963720788561
0.000155539970250936
0.000202429642883997
0.000268759722962543
0.000353714395683587
0.000452450707378279
0.000558474342806613
0.000666259148585104
0.000772201961127851
0.000874317004833947
0.000971792005122258
0.00106443742479099
0.00115241556701149
0.00123601695033161
0.00131558420996693
0.00139144834991443
0.00146391586377563
0.00153325530414936
0.0015996991898404
0.001663444588272
0.00172465738613147
0.00178347525049034
0.00184001160867201
0.00189435918646187
0.00194659394081708
0.00199674106631999
0.00204453438234037
0.00209012942153128
0.00213362941701849
0.0021750847355416
0.00221452518341886
0.00225197087073287
0.00228744816426934
0.00232097447249618
0.00235256914648158
0.00238224876691079
0.00241002974260829
0.0024359277541081
0.00245995871032284
0.00248213908101964
0.00250248625723883
0.00252101857580205
0.0025377553290283
0.00255271663802912
0.00256592314496941
0.00257739530720202
0.00258715248792909
0.00259521191049326
0.00260158672628049
0.00260628420008323
0.00260930323990922
0.00261063238451713
0.00261024808919857
0.00260811359605162
0.00260417833508568
0.00259837553862052
0.0025906175575486
0.00258078856293711
0.00256873648771176
0.00255426425328074
0.00253712194434418
0.00251700116772662
0.0024935336484861
0.00246629834113991
0.00243484345665661
0.00239873637186238
0.00235764970062867
0.00231152433095879
0.00226079423098489
0.00220678999826089
0.00215211496987779
0.00210124696954811
0.00205987451572417
0.00203345906745429
0.0020145165754892
0.0019564642375002
0.00176262771252354
0.00147750259316108
0.0013157759295935
0.00124229445673765
0.00120347939642677
0.00119343298837613
0.00120434414843704
0.00122209468826604
0.00123998769444963
0.00123897001322174
0.00120256239375405
0.00113422036105866
0.00104937591400132
0.000959920186073167
0.000899619240632586
0.000899400736402267
0.00100228232811132
0.00125345188238803
0.00186466652366331
0.00255855467512489
0.00246940099447485
0.0010781092266016
0.00142091057412133
0.000694924334966907
0.000267926373221539
0.000167692625786643
0.000201382467622102
0.000108403612267219
3.69588911599414e-05
1.50556188905546e-05
1.30519051511564e-05
1.76176490894444e-05
2.60393758197802e-05
3.95188115901044e-05
6.01562792929247e-05
8.99864737568214e-05
0.000131072573118046
0.000184040583097393
0.000243302758770554
0.000295013220096452
0.000317279686240161
0.000290855246173138
0.000221708948391939
0.000169197411262056
0.000192324718767512
0.00024460640856683
0.000319653558707763
0.000424287892894434
0.000552476533897956
0.000694808934285531
0.000841969070178647
0.000987584051978468
0.00112803662282591
0.0012617113949148
0.00138820417382816
0.00150769726060625
0.00162066050060258
0.00172763186355764
0.00182915464364503
0.0019257214831543
0.0020177715110839
0.00210568190151408
0.00218977525918893
0.00227032346372009
0.00234755503043654
0.00242166026054792
0.00249279719596143
0.0025610967585564
0.0026266740821545
0.00268937302444898
0.00274912432134854
0.00280614508696292
0.00286052688788162
0.00291232246924608
0.00296156945734333
0.00300830001968514
0.0030525517010418
0.00309435230679643
0.00313373111518274
0.00317071377772434
0.00320532524784055
0.00323758923710816
0.00326752935385484
0.00329516957428244
0.00332053467448927
0.00334365028909001
0.00336454293389043
0.00338323987653299
0.00339976874354405
0.00341415668545454
0.00342642929628606
0.00343660930644531
0.00344471435486836
0.00345075469494239
0.00345473034287086
0.00345662852729398
0.00345642160786875
0.00345406565601664
0.00344949956514507
0.0034426423167564
0.00343338713955492
0.00342159284244181
0.00340707383620466
0.00338958941075956
0.00336883417150399
0.00334443086279281
0.00331592868557434
0.00328281145197499
0.00324452445748582
0.00320053428299988
0.00315043449253553
0.00309414129320203
0.00303217145892507
0.00296611797642474
0.00289910468380391
0.00283639631579603
0.00278445500658944
0.00274831710186434
0.00271600750871686
0.00262712964139481
0.00237650678062033
0.00203780750458854
0.00184831201094273
0.00176304497882564
0.00172106907603515
0.00171494382045652
0.00173419779675427
0.00176130819449857
0.00178633775299245
0.00178453888261983
0.00173819137057681
0.00165149260339923
0.00154349030210162
0.00143051009866115
0.00135649915172327
0.00136308289411901
0.00150421138768344
0.00183197497660486
0.00257981054838068
0.00338323143147128
0.00342818745198578
0.00159227464876011
0.00195714937606459
0.00101381020025453
0.000372617960341429
0.000257862756619614
0.000333523573401609
0.00021469753380654
8.05618147300434e-05
3.30413654228059e-05
2.64100463408729e-05
3.3955350381844e-05
4.88165533911521e-05
7.23221640223649e-05
0.000107399469578732
0.000156010201660178
0.000218894554949094
0.000293653947576547
0.000369578386839184
0.0004267879470801
0.000440503927836721
0.000395127566006722
0.000307085109922275
0.000246372220425219
0.00027912509410334
0.000357438269554147
0.000470694223007422
0.000621944486345346
0.000797690621055659
0.000985080805308686
0.00117329902058582
0.00135619846104429
0.00153058677148646
0.00169541167300278
0.00185069954619018
0.00199698745930395
0.00213501585371362
0.00226553717593619
0.00238926653891585
0.00250683628327907
0.00261880121985829
0.00272563474250912
0.00282774036671659
0.00292545822888436
0.00301907486914503
0.00310883023032202
0.00319492529083484
0.00327752752504537
0.00335675298023313
0.00343228778940762
0.00350434822698653
0.00357311735675931
0.00363868533542507
0.00370111253947015
0.00376044757079486
0.00381673580493729
0.00387002613411156
0.00392035756316348
0.00396776978561214
0.00401229815815626
0.00405397672174431
0.00409283775100876
0.00412891303566347
0.00416223449621166
0.00419283468069971
0.00422074685317585
0.00424600502699059
0.00426864383002948
0.00428869802474864
0.0043062015421965
0.0043211862356706
0.00433368032747836
0.00434370590071185
0.00435127616196793
0.00435639222434693
0.00435904004184192
0.00435918793187092
0.00435678482805832
0.00435175906825602
0.0043440153023752
0.00433342758906883
0.00431982941302259
0.00430300187033297
0.00428266109243851
0.00425844702184218
0.00422991484161603
0.00419653317212787
0.00415769335977524
0.00411274142443149
0.00406104749532679
0.00400213090827481
0.00393588605693928
0.00386290950683028
0.00378503309474685
0.00370583313344254
0.0036311819670355
0.00356795330549883
0.00352007851075323
0.00347050895508238
0.00334630003726153
0.00303958276328699
0.00265420238875009
0.00244143046224544
0.00234709695312009
0.00230473707364484
0.00230503091413705
0.00233463973331662
0.00237262371660707
0.00240474104981945
0.00240195577163805
0.00234558933183597
0.00224069580165846
0.00210997582246517
0.00197482414944797
0.00188919890054139
0.00190528531531351
0.00208539890113331
0.00248655191885718
0.00335033062495476
0.00425151626399405
0.00443110698797667
0.00221437464291371
0.00253279494485598
0.00145922343394912
0.00049667892830557
0.000356607470296788
0.000479557502560057
0.000377185350153058
0.000158444872107061
6.65843077959205e-05
4.94368208279282e-05
6.01197404046564e-05
8.36963918679492e-05
0.000120582926678672
0.000173925736801088
0.000244388134262549
0.000329885777073909
0.000423710985561882
0.000510208151276646
0.000565285546435647
0.000564651204633428
0.000499469253841786
0.000397511778230516
0.000334284011649682
0.000383740727894736
0.000498092300793617
0.000658180386752425
0.000860663808162206
0.00108468050419983
0.0013162742153021
0.00154422653783672
0.00176326009556931
0.00197072773961905
0.00216615351497232
0.00234993292847586
0.00252290144979863
0.00268601742503162
0.00284020849812731
0.00298633100169989
0.00312513500948903
0.0032572747322383
0.00338330825338797
0.00350371168999423
0.00361888767366941
0.00372917686450471
0.00383486646039665
0.00393619941035405
0.00403338288860835
0.00412641731335157
0.00421508838688553
0.00429972002429505
0.00438048057044711
0.00445746607337461
0.00453074817218519
0.00460038863380696
0.00466644684745356
0.00472898359504679
0.00478804995935167
0.00484369669271552
0.00489596959481996
0.00494491243368306
0.00499056665025911
0.00503297275042846
0.00507217107033611
0.00510820233158697
0.00514110775330906
0.00517092909552914
0.00519770851945394
0.00522148802128589
0.00524230833479756
0.00526020752854057
0.00527521923136895
0.00528736986064922
0.00529667549034356
0.00530313828936457
0.00530674297496821
0.00530745391617372
0.00530521302210913
0.00529993818975469
0.00529151984525694
0.0052798130973366
0.0052646265150356
0.00524570859120741
0.00522273344794795
0.00519528805544961
0.00516286242971137
0.00512484787920238
0.00508054743630275
0.00502921299950989
0.00497012381364223
0.00490273007773069
0.00482690552296874
0.00474331744667192
0.00465400075311762
0.00456289394279249
0.00447627437412803
0.00440106167245259
0.00433954208459506
0.00426940804609339
0.00410701933480962
0.00374647837080233
0.00332110222591559
0.00308935181499228
0.00298865728984139
0.00294854362093113
0.00295750660391515
0.00299918362087891
0.00304906617358931
0.00308749447546987
0.00308359481482403
0.00301697835930124
0.00289397656925904
0.00274098262483172
0.00258497464673765
0.00248950898789765
0.00251670958455063
0.00273421609769295
0.00320202540343238
0.00415869406782856
0.00515265814115882
0.00544646887465471
0.00294967627396652
0.00311921934364988
0.00208772188982777
0.000639680044524608
0.000460156193093754
0.00062195234300204
0.000591880287390597
0.000283530147992631
0.000123917305117466
8.64740760338673e-05
9.89826651865526e-05
0.000132981180340024
0.000185891973710493
0.000259889953952807
0.000353000220939516
0.000459355198000363
0.000567488998219406
0.000658074844563233
0.000705126774892499
0.000687532507559036
0.000604681036226555
0.000494794139793508
0.000435012520236336
0.000509974759956593
0.000670084863711694
0.000882415191830756
0.0011371626148951
0.00140798394019792
0.00168193895328528
0.00194794930776291
0.00220186722861521
0.00244154520759821
0.00266701740757791
0.00287896659416727
0.00307846368371965
0.00326663462071485
0.00344454605661726
0.00361316848154336
0.00377335058384416
0.00392583205819528
0.00407124597664213
0.00421013419552867
0.00434295720190561
0.00447010675092373
0.00459191556504271
0.00470866795669731
0.00482063349964839
0.00492755808565249
0.00502955064787021
0.0051269155523518
0.005219818395555
0.0053083662047536
0.00539264460364613
0.00547273022191411
0.00554869723082166
0.0056206191338409
0.00568856002582168
0.0057525824976123
0.00581274360780248
0.00586909756816714
0.00592169564079446
0.00597058761825834
0.00601582274396309
0.00605745031920546
0.00609551983090456
0.00613008100625924
0.00616118367355398
0.00618887711216956
0.00621320882496143
0.00623422299345289
0.00625195851339045
0.00626644598077716
0.00627770421808049
0.00628573639981489
0.00629052606475841
0.00629203378855513
0.00629019467808566
0.00628491647031229
0.0062760757124034
0.00626350909606546
0.006247001103053
0.00622626888244846
0.00620094639962205
0.00617057022927193
0.00613456867548281
0.00609226025249989
0.00604286514091047
0.00598554753516635
0.00591950219656863
0.00584411509782595
0.00575923832503799
0.00566559507914123
0.00556537746719839
0.00546278082461393
0.00536427789850576
0.00527649537380578
0.00519969465420078
0.00510646525701574
0.00490459108880576
0.00449363326474485
0.00403465614163836
0.00378809551367845
0.00368377340326975
0.00364840719293779
0.00366805461354878
0.00372317765683381
0.00378503380171942
0.00382911175662566
0.00382370639963853