/*--------------------------------*- C++ -*----------------------------------*\
  =========                 |
  \\      /  F ield         | OpenFOAM: The Open Source CFD Toolbox
   \\    /   O peration     | Website:  https://openfoam.org
    \\  /    A nd           | Version:  7
     \\/     M anipulation  |
\*---------------------------------------------------------------------------*/
FoamFile
{
    version     2.0;
    format      ascii;
    class       volScalarField;
    location    "20000";
    object      omega;
}
// * * * * * * * * * * * * * * * * * * * * * * * * * * * * * * * * * * * * * //

dimensions      [0 0 -1 0 0 0 0];

internalField   nonuniform List<scalar> 
15600
(
3735.07243485347
3937.5275844853
5584.05489093926
7932.35351536222
8847.88174043187
8641.32489963319
7848.16629500979
6787.93389589849
5752.26913548714
4944.43821286639
4318.40874818998
3827.0431900656
3436.85413074173
3094.49303959232
2744.73975392559
2390.40269467855
2035.35730576208
1684.76258531019
1373.93193727997
1125.16971686307
959.004537117017
919.405897884657
934.19261183322
934.192611833217
934.192611833192
934.192611833211
934.192611833121
934.192611833212
934.192611833093
934.192611833213
934.192611833178
934.192611833207
934.192611833218
934.192611833225
934.192611833117
934.192611833225
934.192611833219
934.192611833192
934.192611833167
934.192611833205
934.192611833191
934.192611833199
934.192611833093
934.192611833187
934.192611833165
934.192611833178
934.192611833207
934.192611833218
934.192611833238
934.192611833159
934.192611833223
934.192611833167
934.192611833192
934.192611833168
934.192611833166
934.19261183321
934.192611833193
934.192611833218
934.192611833193
934.192611833218
934.192611833278
934.192611833157
934.192611833217
934.192611833241
934.192611833092
934.192611833189
934.192611833152
934.192611833151
934.192611833141
934.192611833242
934.19261183317
934.192611833239
934.19261183319
934.19261183319
934.192611833224
934.19261183319
934.192611833142
934.192611833137
934.1926118332
934.19261183318
934.192611833167
934.192611833164
934.19261183322
934.192611833216
934.192611833193
934.192611833229
934.192611833177
934.192611833193
934.192611833162
934.192611833165
934.192611833167
934.192611833154
934.192611833221
934.192611833169
934.192611833194
934.192611833249
934.192611833218
934.192611833202
919.566058124044
958.277948278914
1123.77981507093
1372.07845237122
1682.5157160649
2032.97105418758
2387.97439303963
2742.28097525485
3092.04467447941
3434.3217190305
3823.92191243704
4314.47622197891
4939.41931983094
5745.76636465533
6780.01178162389
7840.97347207844
8636.5293590555
8848.25231055104
7942.08488339299
5599.89633926111
3941.79421563946
3734.99690571643
630.320181079773
669.14527978113
937.46522922737
1321.33860370501
1480.84891960296
1453.67074869993
1324.6417722169
1148.51913047518
974.34928217832
837.329318355969
731.051092553421
647.599018421868
581.388704948234
523.622725082369
464.846990148447
405.240389627324
345.489248561395
286.403107983323
233.863063816141
191.795498833697
163.563686135931
156.454652199692
158.134541389893
158.078634576643
158.300316638567
158.543441006158
158.756951064673
158.926799548001
159.042192716376
159.114359652293
159.15562103706
159.179010833994
159.19273011805
159.201835842982
159.208553065731
159.213706792537
159.217272200084
159.218908608845
159.218147386739
159.214530932711
159.207658891207
159.197209546096
159.182939005256
159.164680273198
159.142341155605
159.115911106858
159.085449315335
159.051051879784
159.012842035123
158.970978590394
158.925679346552
158.877261196496
158.825984729759
158.772388508963
158.716699225633
158.659206824596
158.600230381469
158.540081688424
158.479068224864
158.417492410322
158.355652649906
158.293838141985
158.232326260062
158.17138008509
158.111247405387
158.052158113322
157.994322905464
157.937932569314
157.883157417263
157.830150180243
157.779043632063
157.72996036167
157.683012895454
157.638314447605
157.595983276932
157.556144684639
157.518935179038
157.484488993573
157.452952516076
157.424488695828
157.399296669053
157.377634582564
157.359833613574
157.346326993277
157.337661170993
157.334504316792
157.337658397779
157.347982958173
157.366416006754
157.393622306348
157.430189340166
157.475200329359
157.527044074061
157.576776298766
157.608048322784
157.561345651535
157.371174228692
156.874954957714
154.684301386303
163.18089922987
192.315683076622
234.776341709672
287.362421752458
346.159437981808
405.315462152336
464.233238667695
522.268213928162
579.387174565473
645.076031204908
728.23042365425
834.202064937081
970.997139990913
1144.5931385143
1320.34930132256
1448.47022391305
1474.73470237532
1304.24202352713
927.809866263279
708.881328135016
662.407134115355
224.277733613997
234.842250172723
317.514629474849
431.338016712094
482.397661328679
477.12330869004
436.541922767427
379.422731737159
322.333362023575
277.054780334418
241.879257261248
214.215191984333
192.197897714294
172.972087279359
153.426712406065
133.572169027682
113.695723106841
94.1508097710318
76.9131314508592
63.3191072354472
54.2974772080021
52.1768503937223
52.5750408993797
52.7423902845888
53.1598397309698
53.595602168158
53.9712068925832
54.2510161872087
54.4232583251952
54.5084643606663
54.5318846375099
54.5173092246591
54.4804466631666
54.4310865061152
54.3743399084939
54.3128169384589
54.247636705871
54.1792391959569
54.1077267768296
54.0330919003446
53.955310922103
53.8743937738522
53.7903974537105
53.7034373729434
53.6136901237934
53.5213985256427
53.4268485593985
53.330336851823
53.2321693186981
53.1326896096373
53.0323251218311
52.9317288687252
52.8319208379471
52.7323410940927
52.6334182730189
52.5354725629902
52.4387816475471
52.3436077644684
52.2501968495516
52.1587809145459
52.0695753257352
51.9827784990604
51.8985690424142
51.817105940175
51.7385283157767
51.662955752236
51.5904866622238
51.5212004466798
51.4551603447185
51.3924120409043
51.3329936075195
51.2769351904393
51.2242731949514
51.1750534897741
51.1293395250317
51.0872168618298
51.0487846506442
51.0141614315253
50.9834840672696
50.9569356468244
50.9347626601678
50.9173048342141
50.9050286150008
50.8985491654924
50.8986654803288
50.9063668005415
50.9228460577127
50.9494056353396
50.9874256973473
51.0378863784304
51.1013211066779
51.1758987324667
51.257203841321
51.3296292016001
51.3644993485917
51.274626088955
50.9588661295115
50.2608616833808
49.6316296716058
53.9103607330636
64.2836862310215
78.397602033724
95.5956946184295
114.559731992441
133.438983960551
152.176588043932
170.563040804774
188.819458035478
210.178575263382
237.550983990572
272.521034609174
317.764471546694
374.360280613318
430.809930982729
469.754424736445
472.676037093591
402.475791316323
283.699402831598
258.26539471792
256.739985374029
124.051665800332
126.018894228079
156.903996667432
196.393306908806
216.050977035055
216.362535992523
199.250874550616
173.806628198085
148.047637696696
127.399654620267
111.295620788627
98.5736484127716
88.3487762445589
79.3390847893852
70.1587691639127
60.815811464424
51.503451085165
42.4791701466162
34.6953686901218
28.7823562766413
25.039042422104
24.4835955055095
24.7769917991876
25.1654422002633
25.7836569747861
26.369936557998
26.8079061026212
27.0527570982918
27.1179211749211
27.0570887939384
26.9223821915207
26.7534867751022
26.5737568737919
26.3958210404064
26.2252444084218
26.064072354035
25.9124697546679
25.7698405219072
25.6352835251471
25.5078690955812
25.3867371274762
25.2711431244269
25.1604610805302
25.0541847608249
24.9519173535673
24.8533621356872
24.7582931844528
24.6665339051913
24.5779679742312
24.4926004923212
24.4106744496565
24.3321165097954
24.2564672290958
24.1834885828981
24.1131701536559
24.0454684419399
23.9803198385718
23.9176729826648
23.8574784794258
23.799693292109
23.7442754989566
23.6911850300109
23.6403803843162
23.5918187155218
23.5454548249804
23.501241092969
23.4591251845203
23.4190515473585
23.3809627530274
23.3447966141224
23.3104951225012
23.2780003858756
23.2472672173868
23.2182616242205
23.1909666072057
23.1653836025049
23.1415227583993
23.1194104468605
23.0990846381104
23.0806196278265
23.06413688081
23.0498295074
23.0379926622368
23.02904397727
23.0235646548815
23.0223206743007
23.0262965394741
23.0366580765725
23.0547475797804
23.0817370496537
23.1184687141897
23.1637451310661
23.2132132975289
23.2513936938534
23.2475502722191
23.1197786426449
22.7800812771064
22.1840721422345
22.0742790315268
24.8600792253346
29.9387733701283
36.3024789802699
43.8936858250949
52.1045412895721
60.1641810629176
68.1302242524204
75.9164556852371
83.7658009036782
93.1833812223202
105.470628232605
121.248013016989
141.747674539244
166.8674762542
191.330199685792
206.394818472818
203.43270925035
163.031109676418
112.03180103464
120.227637704204
142.03524366912
81.526626010153
86.5120848775523
98.9311154726677
108.316536164014
114.477807276996
117.023136674334
108.938331592495
95.5515364756148
81.741005995012
70.5067729937696
61.6764520046724
54.6351830658686
48.8679767024747
43.6924794497276
38.3963100759881
33.0099941629799
27.7009390400369
22.6947383814218
18.5442805762072
15.58473846915
13.9130785037449
14.0874583385769
14.5441769455386
15.1568715053805
15.9042303033027
16.4807106299715
16.7690233522876
16.7820581233641
16.6067872442687
16.3430292726492
16.0578626960603
15.7875749883739
15.5459742936015
15.3360006054289
15.1553401988132
15.0001490220341
14.8663138660908
14.7501553715992
14.6485318490113
14.5588673165618
14.4790691624404
14.4074546938609
14.3426709341067
14.2836368310878
14.2294907852278
14.1795505381775
14.133271160395
14.0902217899539
14.0500888190836
14.0127238659464
13.9777472926766
13.9446782594915
13.9131260107049
13.8830962389302
13.8544369890097
13.8270391455046
13.8007894375713
13.7755966535985
13.7513787608777
13.7280660063521
13.7055957510982
13.6839120263687
13.6629626690607
13.6426986410056
13.6230726034841
13.6040381383562
13.5855478019256
13.5675534629978
13.5500065025873
13.5328556383853
13.5160519269315
13.4995459673334
13.4832950272643
13.4672615561932
13.4514158252602
13.4357356617384
13.4201994358406
13.4047900876515
13.389492094161
13.3743062010737
13.359255838845
13.3444025985813
13.3298660291315
13.3158392978101
13.3026195525797
13.2906300279491
13.2804527693661
13.2728237839051
13.2686427052063
13.2687655425662
13.2738320056278
13.2830138549095
13.2926926047625
13.2904370535417
13.2506601836233
13.11325639152
12.8214549185554
12.4031696040633
12.4630956215622
14.266979550824
17.1096199665386
20.4791325882771
24.4243093753937
28.6129527447526
32.6807645547757
36.6921020424998
40.6071868588184
44.6162181656402
49.4999847267966
55.9271110014203
64.1990351169727
74.9872483556448
87.9210319600686
100.150220502568
106.552334516519
102.939365909797
79.8688065072029
56.4012494795724
63.1194569231314
88.7907826754235
56.3670967987442
66.2436794932313
73.688607346369
68.1418019067639
66.5225360859285
70.0901647145128
66.4116092537394
58.7376997207122
50.5722482596929
43.7877721524019
38.3793069914997
33.9928839279781
30.2930740629198
26.8895246477998
23.4024765498062
19.8909223668373
16.5148731822944
13.4710460281699
11.0904695477285
9.53692527888001
8.85185668863642
9.42244009246462
10.090688286964
10.8409226989678
11.535960835916
11.8926314852985
11.8896882696635
11.6504398246853
11.3171161972112
10.9852009164141
10.6945992533546
10.4553037525929
10.2631401812256
10.1103477128593
9.98881915016306
9.89175529705969
9.81366669770691
9.75032711282636
9.69847481999071
9.65562053713257
9.61984903652527
9.58968611345158
9.56398873341191
9.54187112564231
9.52264554087986
9.50577945816834
9.49085881230995
9.47757059619146
9.46570208488394
9.45496915102386
9.44495364159688
9.43542281589089
9.42628684944784
9.41754601030253
9.40909386553614
9.40086823737341
9.39280279490954
9.38484767575281
9.37695865481042
9.36909969141084
9.3612392202837
9.35334958774076
9.34540521090495
9.33738197471376
9.32925617027704
9.32100377474809
9.3125992509713
9.3040155763307
9.29522424395049
9.28619410215492
9.27689411232802
9.26729217672573
9.25735895749508
9.24706726843737
9.23639307196045
9.22531477044118
9.21380875748528
9.2018511892362
9.18941728597301
9.17648994527099
9.16306472927538
9.14916014340354
9.13483060702523
9.12017856768613
9.10537485417525
9.09067591522339
9.07644621621518
9.06315687966584
9.05138302199966
9.04165223330389
9.03424954850446
9.02826771144453
9.02035630821119
9.00041155873426
8.94823020645027
8.8226364693474
8.59275257742297
8.3162783204355
8.4339443001601
9.64568893439184
11.4078802017195
13.4341961823462
15.7699449793917
18.2139900476298
20.5780000708274
22.9092376477533
25.1889151217001
27.5492742821404
30.4169826249849
34.1618909777688
38.9478161584711
45.1587074988048
52.449419648695
59.1801561444061
62.303105841313
59.8371309388699
46.9792495056691
35.0949047276
37.6044776536478
59.5296163351274
40.3592923707233
52.8064252085325
60.852181786323
48.0375387988143
40.9184418460334
44.5505334084595
43.3855311023108
38.8498279653045
33.7522150547331
29.3811763410381
25.8128943004378
22.8402564584155
20.2370439938046
17.7858721647068
15.3002230788057
12.8636388105325
10.6217736268032
8.72218060339689
7.34174042464786
6.5455845324133
6.38428618598351
7.16414289400948
7.96300089602253
8.68412449752352
9.15250705204434
9.20711654234191
8.96701599340273
8.61553401752625
8.27327893103875
7.98826410720475
7.76580068310594
7.59735193623098
7.47105715983866
7.3767148133313
7.30615566264437
7.25333986629184
7.21376144436523
7.18412880230769
7.16199383386024
7.14554195174508
7.13340795986496
7.12456175946179
7.1182185264316
7.11378025922394
7.11079008981938
7.10889995560465
7.10784445504183
7.10742988473348
7.10748602189803
7.10769172277978
7.10785444216537
7.1079113802963
7.10783939524175
7.10763393341098
7.10723306312227
7.10660702129905
7.10572167211141
7.10455393436116
7.10308357493625
7.10129524747085
7.09917592871084
7.09671443969569
7.09390029220418
7.0907232411103
7.08717255122411
7.08323643254144
7.07890133247421
7.07415191268563
7.06897105341288
7.06333933898266
7.05723670647368
7.05064220759624
7.04353616218669
7.03590009935884
7.02771704871234
7.01897081063754
7.00964320915799
6.999714912572
6.98916622263409
6.97798267578482
6.96615950835659
6.95370929426795
6.94067124019673
6.9271210207823
6.91318480841763
6.89905193154622
6.88498832575417
6.87133142712927
6.85847281747817
6.84672717813434
6.83612124201941
6.82563021176345
6.81207019418367
6.7870103539425
6.73452487683244
6.62652397092897
6.44888466211512
6.26772724155404
6.40579436121929
7.27575243531025
8.47721927280882
9.83572734702354
11.3802713072527
12.9787645713403
14.5246182320251
16.0503676682987
17.5482091403532
19.1109815932908
20.9916861079512
23.4126450565946
26.4688826225072
30.3844686699464
34.88676507092
38.9760752808417
40.8070352455096
39.3551150554895
31.7691981499347
24.9914765961484
25.1737926265939
42.4494155910672
30.0836725782587
42.6663163738726
53.1107339842428
37.823677694268
26.6300700036015
29.3102309935534
29.6397292130798
27.0176619732356
23.755212467542
20.8215549355619
18.3366621285643
16.189977929968
14.2368493998301
12.377523910978
10.5442793597095
8.82739150351009
7.33755398600074
6.16111801250111
5.37831231375114
5.01742839311818
5.15612296565195
6.02426058838277
6.82152866154911
7.36872400731056
7.55315140255789
7.3731807373576
7.03378294427178
6.69222209996543
6.41146362507331
6.19934002909767
6.04439654662968
5.93304979070711
5.85354563609826
5.79718290654648
5.75755254467085
5.73012331426253
5.71160940444611
5.69965657024262
5.69253614107025
5.6889808354508
5.68804505797231
5.68902139639463
5.69137528427095
5.69470309727991
5.69869933606536
5.70313348471739
5.70783155543758
5.71266658688249
5.7174435542461
5.72195765224326
5.72614852042273
5.72999866711358
5.73350168624181
5.73665188946365
5.73941360082412
5.74177291840468
5.74371235052706
5.7452219053047
5.74629307465981
5.74692036150911
5.74709946404644
5.74682687434546
5.74609911886507
5.74491242070746
5.74326217742233
5.74114252521028
5.7385459129412
5.73546309205059
5.73188315487098
5.72779337708079
5.72318031617467
5.71803002051191
5.71232935411275
5.70606618827638
5.69922941254405
5.69180830051341
5.68379082170087
5.67516416424967
5.66591627659616
5.65603998126315
5.64553707297324
5.6344244458665
5.62274125833346
5.61055705162185
5.59798176759525
5.58517471934793
5.57235148782935
5.55977442408591
5.5477244367033
5.53637997469322
5.52560233871916
5.51430289857852
5.49949372781125
5.47406456104269
5.42542594712506
5.33435422029993
5.19694644456525
5.07859308042712
5.22094058652864
5.88073704416344
6.76146003691635
7.74831094634991
8.85691795229256
9.99487510698088
11.0968350344879
12.1856297279411
13.2597185412779
14.3867583426396
15.7317429191439
17.4392118639042
19.5691899787554
22.2575882165024
25.2923734049293
28.0175442200704
29.262293529217
28.4141039616669
23.591207280888
19.3062091929153
18.4722656744352
31.8220975717386
23.4292213688314
34.5374433640326
47.5294358025579
32.7213706284909
18.8110034312447
19.7802045225109
20.8481293230965
19.4658743612179
17.3753986498345
15.3565516345649
13.5544991213295
11.9317532534886
10.4118658126449
8.97624963670465
7.62154595452747
6.42190210911771
5.4438121524413
4.72688438120717
4.30686683051238
4.20896539571267
4.52650389939424
5.39612857568106
6.08235016565488
6.39334113166977
6.3416552405023
6.04441125483766
5.70829916277569
5.4253824160472
5.21358805735101
5.06204329903557
4.95579173727227
4.88223105515451
4.83190174715752
4.79814658176399
4.77622257927442
4.76282416703653
4.7555759436896
4.75278456042603
4.753210137631
4.75594631666851
4.76031826016907
4.76582272579735
4.77208085039244
4.77880792442408
4.78578946878018
4.79286427369145
4.79991190868254
4.80682178238772
4.81341363131934
4.81959590900668
4.82535022138395
4.83067190200249
4.83555878456613
4.84000545344626
4.84399096385031
4.84750893095485
4.85055043319686
4.85311176865847
4.85519010997569
4.85678458690341
4.85789496354398
4.85852129386321
4.85866339361889
4.85832057813422
4.85749127381035
4.8561726808218
4.85436051076435
4.85204900366946
4.84923100084325
4.84589797872245
4.84204086577404
4.83765044287651
4.83271824510684
4.82723684242976
4.82119975247018
4.81460092405547
4.80743371175086
4.79969138188604
4.79136897812649
4.78246665515407
4.77299342444271
4.76297228201541
4.75244599823311
4.74148382327773
4.73018879388189
4.71870378184534
4.70721367858655
4.69593229564054
4.68506717346192
4.67470590441967
4.66460725586562
4.65366991018561
4.6391353146262
4.61498934856017
4.57126978617986
4.49487119138369
4.38802666850147
4.31172378942604
4.45064970892169
4.9709885029577
5.65040430263054
6.40842809948788
7.25131350293668
8.11135661671391
8.94590010075754
9.7715636568194
10.5903793922031
11.4535794452715
12.478105827938
13.7637425445198
15.3518890119112
17.3283411869374
19.5256595220455
21.4832065328948
22.4191029350259
21.9152792192551
18.6536988110041
15.7051308387492
14.512333341025
24.7564494033253
19.0559298248082
27.8128390724228
42.8237577592493
30.1760172491725
14.7668013447972
13.7926865623803
14.9756412869686
14.3927219281998
13.0796933891516
11.6726349653465
10.3279280920538
9.06730785775216
7.86995113768132
6.7656301430716
5.77473516610849
4.94502320180534
4.30914988784165
3.88338993878591
3.68915069327283
3.75697308955044
4.17622378991798
4.984341501702
5.49928167882274
5.58591764557645
5.3878698462315
5.06622914176009
4.77820854165666
4.55820916477622
4.40210892082036
4.29390088852267
4.22023383973814
4.17086989187408
4.13861524852365
4.11847057550044
4.10692352648651
4.1015275945981
4.10052662634442
4.10266671260633
4.10702854427491
4.11293942279668
4.11989823238676
4.12753144920745
4.13555825281899
4.14376800942988
4.15200221037171
4.1601412958333
4.16809702700818
4.17575223413672
4.18298462232069
4.18975674253104
4.19606355048245
4.20190387463719
4.20727642376501
4.21217651938039
4.216591643376
4.22051908008883
4.22395452375368
4.22689739144865
4.22934771226176
4.23130685650262
4.2327765498752
4.23375857186941
4.23425437248752
4.23426486486339
4.2337901251614
4.23282912977231
4.23137959298154
4.22943801013678
4.22699975892416
4.22405923586996
4.22061052095643
4.21664784732095
4.21216627668927
4.20716199486468
4.20163220024112
4.19557469579995
4.1889872897257
4.18186838823025
4.17421896714368
4.16604545356387
4.15736312889414
4.14820051493736
4.13860418478815
4.12864427577854
4.11841984636675
4.10806261266293
4.0977357315476
4.08761806609489
4.07786497081182
4.06850151097228
4.05922524741417
4.04895816380244
4.03518773829829
4.01282842242028
3.97400695901892
3.90992518123686
3.8264271543315
3.77881110629248
3.91060448202782
4.33247551678391
4.87581772210123
5.48130849716331
6.14888799803031
6.82723627943536
7.48713704177296
8.14113879077095
8.7931187860368
9.48356277051921
10.3005584855028
11.3162112963018
12.5612876446592
14.0916276348047
15.7724488594793
17.2629182343112
18.0173836638603
17.7198886547938
15.4102572178201
13.2312793950566
11.986697545979
19.7833059633747
16.1233624894235
22.154211678586
38.657394369274
28.86101467878
12.8815764523532
10.1095818887584
10.979816314459
10.8653613097316
10.071011145422
9.08863736064404
8.06855076530699
7.0781941093434
6.13700937814744
5.29577876287373
4.57661683504926
4.00523989605629
3.59623027426333
3.35787705720481
3.30860312729245
3.481492037587
3.9460472996259
4.6520221868703
4.98089330117809
4.89630638955513
4.63519786391436
4.33957042065272
4.10820950743933
3.94046407172791
3.82527164625015
3.74706369418003
3.69519191847288
3.66162887901713
3.64094477576411
3.62934658061861
3.62418466027705
3.62360219312958
3.62626330278797
3.63120957373033
3.63773628953022
3.64532629086206
3.65359369774832
3.66225057916823
3.67108046322879
3.67992096558774
3.68864967949305
3.69717319141346
3.70542010458689
3.71327580896005
3.72067168203907
3.72759212216219
3.73403607807095
3.74000306160238
3.74549179829126
3.75049844407528
3.75501546245085
3.75904202438201
3.76257644799783
3.7656197693554
3.76817352812368
3.77024023088396
3.77182260273996
3.772923319809
3.77354472283565
3.77368865170307
3.77335620660047
3.77254754137712
3.77126176574169
3.76949700963511
3.76725054553898
3.76451898031817
3.76129883068509
3.75758700750987
3.75338136202206
3.74868096592749
3.74348600211041
3.73779744544772
3.731616745581
3.72494653131897
3.71779258678019
3.71016643515393
3.70208841852537
3.69359148995179
3.68472527117275
3.67556055561839
3.66619318902239
3.65674598172792
3.64736502679328
3.6382021858812
3.62937396525788
3.62086174759766
3.61232944719676
3.60274548564617
3.58984561641444
3.56933708283023
3.53501905990746
3.48117000646329
3.41566028443678
3.38786956439233
3.51085207868905
3.85985837672255
4.30586101619581
4.80335899266841
5.34813453545424
5.90026117485656
6.43896372824133
6.97401816188933
7.51002509477115
8.08054440033055
8.75459609731892
9.58626747555643
10.5997979258898
11.8322791513172
13.1734416144318
14.3614306160028
15.0014742575846
14.836307511781
13.1431999016653
11.4313602344467
10.2694515138662
16.1275561314017
14.1010436556885
17.3866670113778
35.0409134984952
28.1101447815085
12.2351535329978
7.91789381235425
8.26098030604269
8.36663413340899
7.90692763544064
7.22598725511331
6.44745105054478
5.66808428842469
4.93266857547354
4.29584830149867
3.77474885265475
3.38192437314424
3.12476082920641
3.00997065723407
3.05523396673202
3.2907753153714
3.75799993284873
4.3422332976932
4.50234789537426
4.31082196077222
4.04360725084598
3.79240632493561
3.61138991637585
3.48358901273341
3.39780970688695
3.34055177195937
3.303634596348
3.28077916344411
3.26784546736931
3.26190174572333
3.26090353773496
3.26340496928243
3.26836198465404
3.2750208506537
3.28282545591303
3.29136618261765
3.30033676691319
3.30950825867631
3.31870838973781
3.3278077459576
3.3367084703786
3.34533546758067
3.35362148678134
3.36147215972957
3.36885143703712
3.37575252325155
3.38217527254686
3.38811908294961
3.39358255997905
3.39856265637161
3.40305489253648
3.40705948877168
3.41057634653816
3.41360739978083
3.41615504442033
3.41822240945827
3.41981277942118
3.42092935543582
3.42157503771407
3.42175229329288
3.42146296137909
3.42070808889551
3.41948787614624
3.41780175705485
3.41564853546946
3.41302660659214
3.40993447514177
3.40637123151921
3.4023370185235
3.39783328626424
3.39286269098201
3.38742884258046
3.38153617807445
3.37519077088376
3.36840226911793
3.36118625717489
3.35356703392412
3.34558090860176
3.33727964491614
3.32873410793135
3.32003698912181
3.31130328065907
3.30266481542353
3.29425166951888
3.28615061430293
3.2783125243194
3.27038637015621
3.26140096241477
3.24933302316886
3.23056838878917
3.20025066810263
3.15487376126866
3.10332445112856
3.08930428001704
3.20287074538035
3.49601730713064
3.8693134315772
4.28676758730938
4.74150011488471
5.20179176401116
5.65241093408807
6.10112326867514
6.55271418212126
7.03617710237058
7.60697693578148
8.30703201758158
9.15631046139305
10.1797728318418
11.286132288705
12.2688277263925
12.8333835376446
12.7583997907734
11.4825198631397
10.0607067074425
9.03481879363357
13.3570769152245
12.6474702959799
13.4546896250789
31.8539499420543
27.5831558061222
12.3172635739986
6.68761192763484
6.42630864561639
6.58425205287283
6.32539028872903
5.85855375629822
5.26475036181368
4.65200182377948
4.07931711522119
3.59756865635885
3.21920739164319
2.9505039126287
2.79682208226961
2.76493018131924
2.87080485590885
3.13731785304989
3.57705615276359
4.03715472280525
4.06329730154278
3.82133320445888
3.57836721889365
3.3728789916728
3.23232046710936
3.13437571111948
3.06990204077844
3.02763559840061
3.00133805662675
2.98605371287421
2.97857383006057
2.97658734965929
2.978481556271
2.98310421104697
2.9896197209433
2.99742081972304
3.00605794077259
3.01519865574542
3.02459389782731
3.03405706176924
3.04344757206381
3.05265957289442
3.0616126118248
3.07024516766891
3.07848993965891
3.08627934192169
3.09359407773265
3.10043086450503
3.10678951544713
3.11266916950102
3.11806837342075
3.12298480136583
3.12741593377486
3.13136264881015
3.1348258749025
3.13780810042355
3.14031226146142
3.14234187905801
3.1439006062968
3.14499201434482
3.14561942647328
3.14578581294834
3.1454936291157
3.14474468251252
3.14354010859267
3.1418804621219
3.13976586138799
3.13719622464462
3.13417174791369
3.13069336492976
3.12676316136499
3.12238460350349
3.11756244266197
3.11230250840733
3.10661170990893
3.10049893358697
3.09397693053984
3.08706449418979
3.07978896207585
3.07218908275078
3.06431794143854
3.056245881122
3.0480623022765
3.03987500998504
3.03180349095333
3.02395978246538
3.01640753450951
3.00907665794554
3.00161400920632
2.99311642127128
2.98178852888144
2.96459701217457
2.93776803686904
2.89939368476609
2.85872824740628
2.85423395790066
2.95835383823901
3.2074966048333
3.52464137080277
3.88063433618669
4.26697275911865
4.65801008510378
5.04227841726423
5.42595835542511
5.8139590514866
6.23196218293384
6.72537472194889
7.32766919321836
8.05587258677779
8.92695098921436
9.86476985666009
10.7033022781034
11.2165343281132
11.2039240326738
10.1617044450947
8.94473636664637
8.10148031924258
11.2151386855757
11.5399566681494
10.3402844851533
28.9018924867482
27.1060632496623
12.8315000139267
6.0948187219857
5.20462090263577
5.31033641255925
5.1591460228156
4.8408728269991
4.38968883447749
3.90785302560578
3.46156114311591
3.09598150975076
2.82067809206022
2.63947290840004
2.55746329566074
2.5812485978787
2.72353342028708
2.99746617058733
3.3913625322966
3.73660010227607
3.66909964914323
3.41727849325002
3.21001358728565
3.0446905946455
2.93545513582802
2.85989775711186
2.81115587955242
2.77994383018205
2.76147148814384
2.75177971974241
2.74833566321951
2.74928376239212
2.75332587016007
2.75952508493523
2.76719890230023
2.7758481035401
2.78510197668555
2.79468540335997
2.80439187146373
2.8140663131364
2.82359176622149
2.8328799108389
2.84186304740468
2.85048944926764
2.85869460494764
2.86643381103501
2.87369621818818
2.88047993962752
2.88678455126867
2.89260899445654
2.89795185844783
2.90281146553358
2.90718662492011
2.91107869906263
2.91448934641224
2.91742145703874
2.91987836438779
2.92186389303515
2.9233819977026
2.92443657170148
2.92503132119537
2.92516968284214
2.9248546865081
2.92408884583549
2.92287415490142
2.92121218684487
2.91910424090299
2.9165515852252
2.91355590394261
2.91011973959722
2.90624687089573
2.90194251607081
2.89721323936471
2.89206676907209
2.88651208280191
2.88056037570424
2.87422689626246
2.86753296283717
2.86050821203691
2.8531930882323
2.8456413204911
2.83792222816643
2.83012177002024
2.82234101643567
2.81468855755985
2.8072612668977
2.80010468408724
2.79313484084799
2.78600528993145
2.77788420503758
2.76718789194036
2.75137946062855
2.72755634657682
2.69495821332409
2.66279077804153
2.66478435527162
2.75973178301516
2.97345831874073
3.24608505542979
3.55356160126472
3.88648425494159
4.22379432507144
4.55662963665206
4.88987325329016
5.22868392796872
5.5960628827756
6.02977407583615
6.55731530341036
7.1936157887478
7.95036536821102
8.76384641482849
9.49867597178831
9.97555230490379
9.99225498574482
9.04672955453185
7.99139634866708
7.36429157875987
9.53858270154894
10.6353517643377
7.98444935713976
26.1184516378865
26.6145910499951
13.592124346115
5.95004664848536
4.41371432421996
4.39917735662799
4.2939057247618
4.07395284762939
3.73279136814093
3.35323507333484
3.00407812136823
2.72539020946946
2.52520712821845
2.40660067027029
2.37464425031853
2.43504340251247
2.59607820029582
2.86100772748039
3.20105843553455
3.44940079018629
3.32307817373563
3.08586363684853
2.91505804399801
2.7828053400218
2.69760891317968
2.63908479073098
2.60224043196966
2.57944076230503
2.56695306596597
2.5615752517233
2.56127075183255
2.56452484576328
2.57027341469204
2.57774129315527
2.58636123525259
2.59571590274112
2.60549459881412
2.61546603665479
2.62545635091312
2.63533473053118
2.64500241766224
2.65438466092585
2.66342356110024
2.67207423785403
2.68027892042398
2.68800927060557
2.6952588081349
2.70202624557851
2.70831098177512
2.71411187733527
2.71942766026948
2.72425724447041
2.72860040677454