/*--------------------------------*- C++ -*----------------------------------*\
  =========                 |
  \\      /  F ield         | OpenFOAM: The Open Source CFD Toolbox
   \\    /   O peration     | Website:  https://openfoam.org
    \\  /    A nd           | Version:  7
     \\/     M anipulation  |
\*---------------------------------------------------------------------------*/
FoamFile
{
    version     2.0;
    format      ascii;
    class       surfaceScalarField;
    location    "20000";
    object      phi;
}
// * * * * * * * * * * * * * * * * * * * * * * * * * * * * * * * * * * * * * //

dimensions      [0 3 -1 0 0 0 0];

internalField   nonuniform List<scalar> 
30950
(
1.96671254338085e-05
-1.1227236043274e-05
-1.27332035528375e-06
2.0940445768276e-05
-1.68576100337882e-05
1.55842896590648e-05
-1.07301269449261e-05
-6.12748309116681e-06
-5.32225024257571e-06
-5.40787670170805e-06
-3.43288176709801e-06
-1.88936849400129e-06
-2.71213809625621e-06
-7.20743694815576e-07
-2.44993676361627e-06
-2.62201354665988e-07
-2.61477232058228e-06
1.6483553827082e-07
-2.95810774971691e-06
3.4333541242454e-07
-3.44622334258793e-06
4.8811557588015e-07
-3.98430494544665e-06
5.38081582650168e-07
-4.37927334279246e-06
3.94968372019224e-07
-4.40777337661886e-06
2.85000031138522e-08
-3.90070599974337e-06
-5.07067412249339e-07
-2.65686606358265e-06
-1.24383997559497e-06
-5.81932090894308e-07
-2.07493401648862e-06
2.03336680842443e-06
-2.61529894892868e-06
4.55990959982161e-06
-2.52654284889453e-06
5.97135010728689e-06
-1.4114405747108e-06
6.09194457967589e-06
-1.20594549651388e-07
4.74878835433406e-06
1.34315614106419e-06
3.93811629959366e-06
8.10671969677058e-07
2.40118778678665e-06
1.53692842862805e-06
-7.92138312400781e-08
2.48040153395661e-06
-3.57332396984485e-06
3.49411005487473e-06
-7.86917405276082e-06
4.29584999986802e-06
-1.26929322318159e-05
4.82375809668458e-06
-1.7716941771151e-05
5.02400945752779e-06
-2.26892379478372e-05
4.97229609550108e-06
-2.74371782442869e-05
4.74794021620097e-06
-3.18719808325578e-05
4.43480250934931e-06
-3.59592076590262e-05
4.0872267491676e-06
-3.96992685002054e-05
3.74006076560039e-06
-4.31093119828249e-05
3.41004340867543e-06
-4.62137539002234e-05
3.1044418449293e-06
-4.90382535898368e-05
2.82449961848516e-06
-5.16071113799175e-05
2.5688577202397e-06
-5.39420023750038e-05
2.33489092655058e-06
-5.60616878273916e-05
2.11968538517608e-06
-5.79821069046508e-05
1.9204190113163e-06
-5.9716670311648e-05
1.73456334216501e-06
-6.12765873847639e-05
1.55991700912145e-06
-6.26712080737732e-05
1.39462062554582e-06
-6.39083509518411e-05
1.23714281487367e-06
-6.49946747136488e-05
1.08632369872381e-06
-6.59359988772664e-05
9.41324100636303e-07
-6.67374643647295e-05
8.01465424700699e-07
-6.74036408838343e-05
6.66176456753054e-07
-6.7938663893068e-05
5.35022947447018e-07
-6.83464784293594e-05
4.07814475125541e-07
-6.86311720271098e-05
2.84693537029348e-07
-6.8796878262001e-05
1.65706174182503e-07
-6.88476153432966e-05
5.07370199358e-08
-6.87874590902053e-05
-6.0156315900548e-08
-6.8620566944248e-05
-1.66892210958068e-07
-6.8351179537334e-05
-2.69387474658398e-07
-6.79836209254245e-05
-3.67558682663118e-07
-6.75222770088828e-05
-4.61343990227047e-07
-6.69715994624943e-05
-5.50677622656988e-07
-6.63361144190874e-05
-6.35485121754365e-07
-6.562041970765e-05
-7.1569479131161e-07
-6.48291719171433e-05
-7.91247871472805e-07
-6.39670684072338e-05
-8.62103591740321e-07
-6.3038828381635e-05
-9.28240108272665e-07
-6.2049169198966e-05
-9.8965926634451e-07
-6.1002775431097e-05
-1.04639385279256e-06
-5.9904267666166e-05
-1.09850785131478e-06
-5.87581732744432e-05
-1.14609447968818e-06
-5.75688975124389e-05
-1.18927585150067e-06
-5.63406970849138e-05
-1.22820051835844e-06
-5.50776725299384e-05
-1.26302464688762e-06
-5.37837743053917e-05
-1.29389831726815e-06
-5.24628377087307e-05
-1.32093669003541e-06
-5.11186376763823e-05
-1.34420012635221e-06
-4.97549562179441e-05
-1.36368155323625e-06
-4.83756463775815e-05
-1.37930993622722e-06
-4.69846507970537e-05
-1.39099567778882e-06
-4.55860398651908e-05
-1.39861103080748e-06
-4.41840828564669e-05
-1.40195710949481e-06
-4.27833757643729e-05
-1.40070719467363e-06
-4.13890581954514e-05
-1.39431767303281e-06
-4.00070977234078e-05
-1.38196057728682e-06
-3.86446756731957e-05
-1.36242215605164e-06
-3.73106547536979e-05
-1.33402102540362e-06
-3.60160908111377e-05
-1.29456404810379e-06
-3.47748846293813e-05
-1.2412062866751e-06
-3.36041546016168e-05
-1.17073013201389e-06
-3.25249925504311e-05
-1.07916215494416e-06
-3.15617093843594e-05
-9.63283269696294e-07
-3.07428979374201e-05
-8.18811550840742e-07
-3.00957876208652e-05
-6.47110421113678e-07
-2.96472645500138e-05
-4.48523176355359e-07
-2.93930392035405e-05
-2.54225452981814e-07
-2.92708058145476e-05
-1.22233496444019e-07
-2.8962455047144e-05
-3.08350875661572e-07
-2.79090991144881e-05
-1.05335604161613e-06
-2.34499134159555e-05
-4.4591858081861e-06
-1.59927775075614e-05
-7.45713601906385e-06
-1.37459626062211e-05
-2.24681501189748e-06
-1.40818055328123e-05
3.35842821853025e-07
-1.44822096149229e-05
4.00403990277866e-07
-1.46211073812401e-05
1.38897687097739e-07
-1.42474584848235e-05
-3.73648966370996e-07
-1.31054610213451e-05
-1.14199752858273e-06
-1.12182392954026e-05
-1.88722178981828e-06
-8.47658980157705e-06
-2.74164955834451e-06
-5.08183590478583e-06
-3.39475396154689e-06
-1.33634676581328e-06
-3.74548920116321e-06
2.28991641504369e-06
-3.62626323622325e-06
5.80905165834568e-06
-3.51913528724547e-06
8.9396055474854e-06
-3.13055391834339e-06
1.28355599495734e-05
-3.89595441530994e-06
1.81274029701774e-05
-5.29184301849402e-06
2.78104738181088e-05
-9.68307083485645e-06
4.73220044571511e-05
-1.95115306419856e-05
9.97745782690676e-05
-5.24525738546406e-05
0.000146030175196192
-4.62555969765203e-05
6.98118805040902e-05
7.62182946784145e-05
6.13726937853039e-05
7.31202992551136e-05
7.16445506607803e-06
8.70833290238555e-06
8.53524121091438e-05
-3.95102952958081e-05
6.38029178299994e-05
-3.02018885721755e-05
-1.54358898342745e-05
-1.59694772615118e-05
-1.96402880332811e-05
-1.0418335513764e-05
-7.4405102680173e-06
-8.27200583629208e-06
-2.86707340624154e-06
-7.56099089322788e-06
-9.73216338096419e-07
-8.0110995816731e-06
6.14944180216712e-07
-9.04721674151081e-06
1.37945251952816e-06
-1.04677897934846e-05
1.90868856838912e-06
-1.20081102534983e-05
2.07840197556009e-06
-1.31560265133548e-05
1.5428845559293e-06
-1.33704746146733e-05
2.42948018284577e-07
-1.22317947589248e-05
-1.64574736594332e-06
-9.25052276922522e-06
-4.22511207687176e-06
-4.13010944712037e-06
-7.19534746608653e-06
2.67573791072207e-06
-9.42114645293786e-06
9.74841964829602e-06
-9.59922475382058e-06
1.45581929716966e-05
-6.22121408770401e-06
1.5479553047162e-05
-1.04195483367135e-06
1.16012137207713e-05
5.22149524988201e-06
7.56625767887614e-06
4.84562779347311e-06
1.48313045458014e-06
7.62005543547945e-06
-7.51927009393599e-06
1.14828018657093e-05
-1.92361989818071e-05
1.52110387286068e-05
-3.28885209538216e-05
1.79481717618092e-05
-4.75130115431176e-05
1.94482484803066e-05
-6.21976338335151e-05
1.97086315468726e-05
-7.63021761268816e-05
1.90768381927785e-05
-8.94580147997026e-05
1.79037786983442e-05
-0.000101516473248118
1.64932607728378e-05
-0.000112461991633769
1.50327449557299e-05
-0.000122350409397124
1.36284783554885e-05
-0.000131266069125651
1.23257029688964e-05
-0.00013929961288605
1.1137985441561e-05
-0.000146536534787705
1.00614213602487e-05
-0.000153052878712257
9.08520148810022e-06
-0.000158914066246365
8.19607830654276e-06
-0.000164175422423718
7.38104141042704e-06
-0.000168883322680221
6.62831911727293e-06
-0.000173076517519793
5.92775803245692e-06
-0.000176787383461262
5.27078280243819e-06
-0.000180043081230254
4.65031824760785e-06
-0.000182866609335522
4.06067077469017e-06
-0.000185277812516942
3.49752673649696e-06
-0.000187294178385214
2.95768982735535e-06
-0.000188931288599432
2.43857549956557e-06
-0.000190203152947296
1.93804066721545e-06
-0.000191122607226186
1.45447709026935e-06
-0.000191701867040273
9.87074153444948e-07
-0.00019195340930447
5.36235664406215e-07
-0.000191890080343523
1.02377073815821e-07
-0.000191524170954514
-3.15172512570806e-07
-0.000190867836060521
-7.16491358679417e-07
-0.000189933608105185
-1.10112032114087e-06
-0.000188734070971346
-1.46892476961115e-06
-0.000187281782272024
-1.81984754903612e-06
-0.00018558935321075
-2.15377322374171e-06
-0.000183669463020567
-2.47056798933725e-06
-0.000181534874407085
-2.77007391504444e-06
-0.00017919842425864
-3.05214512217831e-06
-0.00017667299374766
-3.31667856714981e-06
-0.000173971468418483
-3.56362910788638e-06
-0.000171106694021682
-3.79301469467344e-06
-0.000168091422252866
-4.00493122782314e-06
-0.000164938244886999
-4.19957141482386e-06
-0.000161659529223081
-4.37722371516701e-06
-0.000158267359653032
-4.5382642533785e-06
-0.00015477348537382
-4.68315033777902e-06
-0.000151189284116994
-4.8124019851629e-06
-0.00014752577020126
-4.92653877497564e-06
-0.000143793643578241
-5.02602515460088e-06
-0.000140003400377749
-5.11118010662623e-06
-0.000136165485110665
-5.18211561150132e-06
-0.000132290459569464
-5.2387073148742e-06
-0.000128389153279963
-5.28061644920475e-06
-0.000124472748390633
-5.30740079436063e-06
-0.00012055291912291
-5.31844053008421e-06
-0.00011664206971352
-5.31280675507459e-06
-0.000112753719319871
-5.2890578290531e-06
-0.00010890308785808
-5.24494937967033e-06
-0.000105107854292558
-5.17719439086228e-06
-0.00010138912989923
-5.08114679962499e-06
-9.77726077374882e-05
-4.95054343848933e-06
-9.42897954184775e-05
-4.77737661860719e-06
-9.09794086637818e-05
-4.55159329237536e-06
-8.78881638225784e-05
-4.26197522353378e-06
-8.50717612119451e-05
-3.8955650154661e-06
-8.25928285359385e-05
-3.44221619577405e-06
-8.0520148110272e-05
-2.89149222765736e-06
-7.89153727148056e-05
-2.25188606966044e-06
-7.78226694356557e-05
-1.54122671122362e-06
-7.71937006012623e-05
-8.83194545987585e-07
-7.6818057707445e-05
-4.9787665173549e-07
-7.58096876878216e-05
-1.31672115920036e-06
-7.23149282007562e-05
-4.54811579463846e-06
-6.19637067142306e-05
-1.48104075631262e-05
-4.68396413702471e-05
-2.25812016338382e-05
-4.13670914372053e-05
-7.71936521138575e-06
-4.1248881765208e-05
2.17632900954001e-07
-4.09646435436855e-05
1.16165548689168e-07
-3.9691740764095e-05
-1.13400528391212e-06
-3.70106297728143e-05
-3.05476012442305e-06
-3.25604316996906e-05
-5.59219574802912e-06
-2.64092050790207e-05
-8.03844853922364e-06
-1.84727969330652e-05
-1.06780578169726e-05
-9.23407822027086e-06
-1.26334727715906e-05
5.6154228652023e-07
-1.35411097897074e-05
9.98521209810282e-06
-1.30499331137186e-05
1.89222600269244e-05
-1.24561832666857e-05
2.71089927459954e-05
-1.13172866745449e-05
3.69415210304509e-05
-1.37284827262444e-05
5.05598441300747e-05
-1.89101661374965e-05
7.44932681215121e-05
-3.36164948443584e-05
0.000121936669611167
-6.69549321541733e-05
0.000233078007852471
-0.000163593912116752
0.000342061703871488
-0.000155239293006278
0.000233069750514109
0.000185210248022426
0.000202930453934093
0.000151742229267289
7.50836316285501e-05
3.30620368612928e-05
0.000204032604502197
-5.46182351696561e-05
0.000151483189830055
-4.9692221333817e-05
-2.03619036961342e-05
-2.78402629166207e-05
-4.14922464802025e-05
-1.82761157488429e-05
-1.70046574681447e-05
-1.44677108084257e-05
-6.67547838836739e-06
-1.32074811813644e-05
-2.23344601659831e-06
-1.38724397697682e-05
1.27990270755335e-06
-1.56010187557395e-05
3.10803143518203e-06
-1.79626337761619e-05
4.27030350925981e-06
-2.05189645591316e-05
4.6347326693076e-06
-2.24633384508432e-05
3.48725834757521e-06
-2.2986110360069e-05
7.65719814763413e-07
-2.14692931614971e-05
-3.16256469228961e-06
-1.72292124618275e-05
-8.46519292194413e-06
-9.83220360219921e-06
-1.45923564918166e-05
2.39674320884641e-07
-1.94930245661752e-05
1.11452542034551e-05
-2.05048048530455e-05
1.93623669512166e-05
-1.44383270791418e-05
2.14442868112169e-05
-3.12387495969419e-06
1.48775714559251e-05
1.17882103297239e-05
6.05506184302928e-06
1.36681371302969e-05
-6.46052783333744e-06
2.01356448368193e-05
-2.38379314697262e-05
2.88602052318559e-05
-4.52051638157513e-05
3.65782708132889e-05
-6.8971206552972e-05
4.17142142477623e-05
-9.34001359594452e-05
4.38771776452792e-05
-0.000117097067574504
4.34055629298466e-05
-0.000139207632342966
4.11874027383216e-05
-0.000159344770611553
3.80409167530257e-05
-0.000177437191116651
3.45856810728304e-05
-0.000193581545548329
3.1177099190711e-05
-0.000207945979958596
2.7992912576877e-05
-0.000220714455570958
2.5094178399445e-05
-0.000232060935001167
2.24844646961749e-05
-0.000242139063386609
2.01395495753991e-05
-0.000251080129625137
1.802626756072e-05
-0.000258994409977521
1.61103584965143e-05
-0.000265973866526175
1.43604977993864e-05
-0.000272095096723951
1.27495491574788e-05
-0.000277422076361356
1.12547375140722e-05
-0.000282008531865265
9.85723815226416e-06
-0.000285899985428096
8.54177165825709e-06
-0.000289135507667733
7.29619286441911e-06
-0.000291749235449164
6.1112543706843e-06
-0.000293771511220162
4.97996545403539e-06
-0.000295229572542462
3.89663668041158e-06
-0.000296148072073291
2.85654005898512e-06
-0.000296549676837418
1.85608171681723e-06
-0.000296455670401764
8.9306758036338e-07
-0.000295886335449797
-3.30994264023313e-08
-0.000294864387077122
-9.19571440688849e-07
-0.000293413651386526
-1.76590834934107e-06
-0.000291555660564956
-2.57448233178263e-06
-0.00028931126853286
-3.34551251062963e-06
-0.000286700870887345
-4.07932257837475e-06
-0.000283744599136214
-4.77611946878202e-06
-0.000280462375589597
-5.43599694355418e-06
-0.000276873948883177
-6.05899487265913e-06
-0.000272998919809138
-6.64510316895071e-06
-0.00026885673730117
-7.19432781249123e-06
-0.000264466672226816
-7.70674382617636e-06
-0.000259847780920918
-8.18252060094682e-06
-0.000255018863018931
-8.62193278671091e-06
-0.000249998408699621
-9.02538574054421e-06
-0.000244804536987672
-9.39344332392172e-06
-0.000239454939419598
-9.72682148429868e-06
-0.000233966835143958
-1.00263687338939e-05
-0.000228356940713898
-1.02930449762262e-05
-0.00022264147010593
-1.05278728045741e-05
-0.000216836193575032
-1.07318155199176e-05
-0.000210956553456679
-1.09056654892973e-05
-0.000205017851459597
-1.10498823223147e-05
-0.000199035480266422
-1.11644870258071e-05
-0.000193025165649257
-1.12490221562201e-05
-0.00018700318436027
-1.13025979661407e-05
-0.000180986538877246
-1.13240465098299e-05
-0.000174993224969327
-1.13117546755266e-05
-0.000169042648618694
-1.12633833486217e-05
-0.000163156245117266
-1.11754615787151e-05
-0.000157358349481768
-1.10428452682559e-05
-0.000151677289638919
-1.08582544908422e-05
-0.000146146727602395
-1.06117090963504e-05
-0.000140807186081091
-1.02900852220421e-05
-0.000135707621659007
-9.87694130413614e-06
-0.000130906990379893
-9.35222483566918e-06
-0.000126474930231888
-8.69403563633007e-06
-0.000122491877762018
-7.87861775121676e-06
-0.000119045149399818
-6.88894482568959e-06
-0.00011622363347967
-5.71300841834783e-06
-0.000114096934906728
-4.37858491691163e-06
-0.000112688263075135
-2.9498988215572e-06
-0.000111873374328155
-1.69808357625773e-06
-0.000111270198765706
-1.10105250163108e-06
-0.000109638553053936
-2.94836716161583e-06
-0.000104544114776482
-9.64255436484378e-06
-9.20181756471193e-05
-2.73363469881486e-05
-7.50913400425961e-05
-3.95080375399694e-05
-6.80320190496297e-05
-1.47786865066414e-05
-6.66695951526466e-05
-1.14479128409031e-06
-6.47364205387078e-05
-1.81700932407411e-06
-6.11614930554719e-05
-4.70893299463023e-06
-5.54680711782707e-05
-8.74818220073157e-06
-4.73043975273965e-05
-1.37558695727883e-05
-3.67438472601248e-05
-1.85989989571896e-05
-2.37983747594739e-05
-2.36235304462386e-05
-9.19250817892437e-06
-2.72393394595899e-05
5.97512463537892e-06
-2.87087426912184e-05
2.05703746347187e-05
-2.76451831814896e-05
3.43572566746813e-05
-2.62430653591888e-05
4.73741908009585e-05
-2.43342208410051e-05
6.28812154964666e-05
-2.92355074535666e-05
8.4591359430316e-05
-4.06203100992904e-05
0.000121300890086096
-7.03260255299272e-05
0.000190371980472763
-0.000136026022568536
0.000329612292960143
-0.000302834224614141
0.000473879488589555
-0.000299506488632043
0.000391283205653663
0.000267806530950541
0.000374552253735541
0.000249552978239344
0.000179247510014342
7.43969499335399e-05
0.000379188632797324
-6.05066817781989e-05
0.000286386821510967
-6.78792573697963e-05
-1.29893281320233e-05
-4.05762948659378e-05
-6.87952090164656e-05
-2.69021366080379e-05
-3.06788157608891e-05
-2.12701634272231e-05
-1.23074516146879e-05
-1.93675675172921e-05
-4.13604198310093e-06
-2.01980115094213e-05
2.11034663239535e-06
-2.26066840370239e-05
5.51670388544266e-06
-2.5908925891639e-05
7.57254527667866e-06
-2.94794392007757e-05
8.20524588102912e-06
-3.22559262520958e-05
6.2637452900338e-06
-3.32165215154945e-05
1.72631495590246e-06
-3.16199664056342e-05
-4.75911994013008e-06
-2.66900393574906e-05
-1.33951201262393e-05
-1.79216782674587e-05
-2.33607177592433e-05
-5.75925335890554e-06
-3.16554496767187e-05
7.94855040655807e-06
-3.4212608847443e-05
1.92532707544796e-05
-2.57430476844312e-05
2.28253905249144e-05
-6.6959950122338e-06
1.32170457752085e-05
2.13965547869382e-05
-2.04743171308238e-06
2.89326143267089e-05
-2.30310281329944e-05
4.11192409709766e-05
-5.03880707664518e-05
5.62172475933244e-05
-8.21342937721139e-05
6.83244935639267e-05
-0.000115619777127922
7.51996973644951e-05
-0.000148407660971998
7.66650612646034e-05
-0.000178872072526385
7.38699742723348e-05
-0.00020624612687936
6.85614568911255e-05
-0.000230374974822948
6.21697645073359e-05
-0.000251439753145387
5.56504592161636e-05
-0.000269756626505773
4.94939723814216e-05
-0.000285666380581284
4.39026664913122e-05
-0.000299483555541047
3.8911353205828e-05
-0.000311479620860059
3.44805298685469e-05
-0.000321881408704297
3.05413372787552e-05
-0.000330875814924908
2.70206736452333e-05
-0.000338616104253442
2.38506476928328e-05
-0.000345228098538285
2.09724919551316e-05
-0.000350815585556974
1.83370360496371e-05
-0.000355464790247585
1.59039420804392e-05
-0.000359247986770583
1.36404345532883e-05
-0.000362226434689291
1.15202194574482e-05
-0.000364452762663159
9.52252072152525e-06
-0.000365972898088469
7.63138968224931e-06
-0.000366827476432533
5.83454368745784e-06
-0.000367052746649362
4.12190678950768e-06
-0.000366681223141632
2.48501644586933e-06
-0.000365742369811785
9.17228283053099e-07
-0.000364265416826776
-5.83885508230202e-07
-0.000362281966239031
-2.01655011859765e-06
-0.000359821064515464
-3.38047327066811e-06
-0.000356908229641352
-4.67874333276347e-06
-0.00035356869479131
-5.91401729466219e-06
-0.000349826810091841
-7.0873973267084e-06
-0.000345706261551371
-8.19987123910322e-06
-0.000341230177024595
-9.25220411907652e-06
-0.000336421212027537
-1.02449620668417e-05
-0.0003313016167472
-1.11785902813759e-05
-0.000325893284937098
-1.20534351091342e-05
-0.000320217771148136
-1.28698417329955e-05
-0.000314296285627797
-1.36282294794949e-05
-0.000308149679490794
-1.43291268725364e-05
-0.000301798422899496
-1.49731895145023e-05
-0.000295262572630575
-1.55612361481646e-05
-0.000288561733658218
-1.60942824374254e-05
-0.000281715028838147
-1.65735264480705e-05
-0.000274741082334196
-1.70003153840239e-05
-0.000267658023259083
-1.73761041997915e-05
-0.000260483525940567
-1.77023702735394e-05
-0.000253234912691277
-1.79804289213919e-05
-0.000245929317637774
-1.82112606965751e-05
-0.000238583919309149
-1.8395280806324e-05
-0.000231216215217716
-1.85321912744811e-05
-0.000223844303377747
-1.86209341557098e-05
-0.00021648714430802
-1.86597571982144e-05
-0.000209164809126114
-1.86463818574803e-05
-0.000201898847655474
-1.8577716315755e-05
-0.00019471283301432
-1.8449398163467e-05
-0.000187633128930642
-1.82551658401971e-05
-0.000180689918996683
-1.7986055383865e-05
-0.000173918468806785
-1.76297048657476e-05
-0.000167360629695621
-1.71695483952674e-05
-0.000161066499177295
-1.65842159302574e-05
-0.000155096077635509
-1.58473630374913e-05
-0.000149520710728874
-1.49275919353908e-05
-0.000144423464120156
-1.37912824397999e-05
-0.000139898041621933
-1.2404040446396e-05
-0.000136043115085222
-1.07438715623562e-05
-0.000132951906141073
-8.80421756643263e-06
-0.000130685339118436
-6.64515214830306e-06
-0.000129230948581843
-4.40428957228381e-06
-0.000128397659346519
-2.53137303107779e-06
-0.000127698411638701
-1.80030043354379e-06
-0.000125952188244102
-4.6945907833676e-06
-0.000121028361043665
-1.45663817936776e-05
-0.000110145895979919
-3.8218812282896e-05
-9.61455438247579e-05
-5.3508389936966e-05
-8.934548808141e-05
-2.15787425031453e-05
-8.63622214299107e-05
-4.12805818622108e-06
-8.2125010445266e-05
-6.05422053987396e-06
-7.57187863554266e-05
-1.11151572908943e-05
-6.67295155855892e-05
-1.7737453152706e-05
-5.49071099649472e-05
-2.55782753524396e-05
-4.03404318357228e-05
-3.31656772230481e-05
-2.31608704183779e-05
-4.08030919784588e-05
-4.26672169694621e-06
-4.61334882751358e-05
1.50780684990119e-05
-4.80535329621391e-05
3.37526274922919e-05
-4.63197422331098e-05
5.14954944104008e-05
-4.39859323227449e-05
6.86883711877541e-05
-4.15270976546603e-05
8.91416510971085e-05
-4.96887873935981e-05
0.000117678996631282
-6.9157655662577e-05
0.000164032352601109
-0.000116679381531504
0.000245223979467618
-0.000217217649460244
0.000389742023725857
-0.000447352268876459
0.000546302581248424
-0.000456067046148702
0.000510632394497778
0.000303476717699064
0.000531467791587842
0.000346509916896454
0.000294518735352264
0.000130030564682825
0.000595667985002982
-5.54366786602427e-05
0.000471854064824923
-8.35881920965008e-05
1.51621852752233e-05
-5.38540590331175e-05
-9.85293421151457e-05
-3.62389536283785e-05
-4.8293921202717e-05
-2.86722339667116e-05
-1.98741713254453e-05
-2.6043819912827e-05
-6.76445609878231e-06
-2.69885452321455e-05
3.05507187786358e-06
-3.00570636380822e-05
8.58522220652374e-06
-3.42858406418748e-05
1.18013221851136e-05
-3.88502766885258e-05
1.27696818216322e-05
-4.24761288600313e-05
9.889597343618e-06
-4.39949211999384e-05
3.24510716410034e-06
-4.26235394664211e-05
-6.13050182116005e-06
-3.75990896867724e-05
-1.84195700709653e-05
-2.84270508292066e-05
-3.25327568017069e-05
-1.54926290180039e-05
-4.45898716955746e-05
-3.36922297518606e-07
-4.93683158016434e-05
1.32862449549833e-05
-3.9366215200783e-05
1.83450092411608e-05
-1.17547595909853e-05
5.1780768685708e-06
3.45634868540667e-05
-1.8230406768012e-05
5.23410976643041e-05
-4.92064858662489e-05
7.20953197889888e-05
-8.68745712459841e-05
9.38853327174837e-05
-0.000127734697687016
0.000109184619772972
-0.000168123377143918
0.000115588376609937
-0.000205371820761438
0.000113913504688133
-0.000238209233994523
0.0001067073873265
-0.000266441922850809
9.67941455817975e-05
-0.000290448603361873
8.6176444864758e-05
-0.000310804034935477
7.60058906469579e-05
-0.000328081231793566
6.67711691064435e-05
-0.000342776507662126
5.85979422354682e-05
-0.000355294704233223
5.14295496601105e-05
-0.000365958170053596
4.51439955786504e-05
-0.000375021733103418
3.96049002238519e-05
-0.000382687200585369
3.46861410270841e-05
-0.000389115380661442
3.02788276726143e-05
-0.0003944355318034
2.62926430039595e-05
-0.000398752634830342
2.26541389861576e-05
-0.000402152922058214
1.93042292203709e-05
-0.000404708097338272
1.61956097478518e-05
-0.000406478612808752
1.3290734844979e-05
-0.000407516232616433
1.05601404489479e-05
-0.000407866032704995
7.98118969332971e-06
-0.000407567830709373
5.53634161707476e-06
-0.000406657145784243
3.21122179207621e-06
-0.00040516614828761
9.94018878913088e-07
-0.000403126348512317
-1.1225715612615e-06
-0.000400569072583731
-3.14116150529529e-06
-0.000397522402014728
-5.06322075631472e-06
-0.000394011554048611
-6.89132130646471e-06
-0.000390061341081583
-8.6289563710108e-06
-0.00038569633164302
-1.02790268063204e-05
-0.000380940348642859
-1.18433804019486e-05
-0.000375816640667879
-1.33235792910464e-05
-0.000370347972972783
-1.47208718927806e-05
-0.000364556706322508
-1.60362287970539e-05
-0.000358464859716518
-1.7270436968322e-05
-0.000352094153380473
-1.84241415269127e-05
-0.00034546602207193
-1.94979731239352e-05
-0.000338601607389556
-2.04926442449274e-05
-0.000331521742543734
-2.14089918021805e-05
-0.000324246931357099
-2.22480007858895e-05
-0.000316797317883653
-2.30108497074769e-05
-0.00030919265214293
-2.36989482652506e-05
-0.000301452265824076
-2.43139128553186e-05
-0.000293595063246861
-2.48575180509037e-05
-0.000285639534381888
-2.53316331555826e-05
-0.000277603806596959
-2.57380981502853e-05
-0.000269505759201322
-2.607847640971e-05
-0.000261363201163575
-2.63538188277956e-05
-0.000253194117011287
-2.65643650529125e-05
-0.000245016956581613
-2.67093517994429e-05
-0.000236850933808408
-2.67869570254687e-05
-0.00022871630724044
-2.67943838643452e-05
-0.000220634656809019
-2.67280323890369e-05
-0.000212629285371283
-2.6583087855899e-05
-0.000204725802899076
-2.63528807405467e-05
-0.000196952934690291
-2.60280341563545e-05
-0.000189343585020141
-2.55954051637593e-05
-0.000181936128126418
-2.50371618713257e-05
-0.000174775924741289
-2.43297518940359e-05
-0.000167916968568637
-2.3443172218032e-05
-0.000161423509300692
-2.2340822421839e-05
-0.000155371353279367
-2.09797480744033e-05
-0.000149848099914703
-1.93145359236721e-05
-0.000144951470711474
-1.73006697708353e-05
-0.000140783213489842
-1.49121289078846e-05
-0.000137436463563456
-1.21509676201694e-05
-0.000134968219131146
-9.11339671212802e-06
-0.00013335415692095
-6.018351918615e-06
-0.000132396493647463
-3.48903644523316e-06
-0.000131617435329847
-2.57935889562978e-06
-0.00013007990404021
-6.23212221978112e-06
-0.000126160745193535
-1.84855407879196e-05
-0.000117998713589126
-4.63808440378822e-05
-0.000107822735376592
-6.3684368313395e-05
-0.000101761103657087
-2.76403744033378e-05
-9.72220879735367e-05
-8.66707405484148e-06
-9.07567011822003e-05
-1.25196075057029e-05
-8.17696154950805e-05
-2.01022431360877e-05
-6.99767020749963e-05
-2.95303667130054e-05
-5.5267362670717e-05
-4.02876148785891e-05
-3.77393499662743e-05
-5.06936900309482e-05
-1.76338840659825e-05
-6.09085579642582e-05
4.09283843973091e-06
-6.78602108495174e-05
2.61850742503803e-05
-7.0145768826601e-05
4.76781911116862e-05
-6.781285913628e-05
6.83359324946749e-05
-6.46436737392011e-05
8.88748637811666e-05
-6.20660289695955e-05
0.000113215309883071
-7.40292335219006e-05
0.000146760939457439
-0.000102703285264179
0.000199004520561318
-0.00016892296266468
0.000285580498799633
-0.000303793627717859
0.000428171419064705
-0.000589943189142689
0.000583542146858885
-0.000611437773939312
0.000585544400019314
0.00030147446453847
0.00065523104936065
0.000430750228758691
0.000402844510154993
0.000194067661677707
0.000832350552077218
-3.88209702347222e-05
0.000704742696711157
-9.54457713216344e-05
7.17869863320749e-05
-6.72510877803425e-05
-0.00012672402569409
-4.62178738086099e-05
-6.93271352132469e-05
-3.66745119179234e-05
-2.94175332685098e-05
-3.32412446851696e-05
-1.0197723398724e-05
-3.42383109059115e-05
4.05213801780982e-06
-3.79305350823321e-05
1.22774462901838e-05
-4.30493408735649e-05
1.69201278725639e-05
-4.85597955780917e-05
1.82801364114939e-05
-5.30207492180463e-05
1.43505508571142e-05
-5.51832813312424e-05
5.40763913752833e-06
-5.42942929212282e-05
-7.01949038534892e-06
-4.96890722844043e-05
-2.30247908765763e-05
-4.09537286355474e-05
-4.12681006344519e-05
-2.84190501719129e-05
-5.71245503604245e-05
-1.32434016137008e-05
-6.45439645829722e-05
1.3682938819333e-06
-5.39779109499925e-05
7.07866505141313e-06
-1.7465131049135e-05
-1.03666131477074e-05
5.20087647496106e-05
-4.29251473210221e-05
8.48996315516786e-05
-8.37884804651705e-05
0.000112958652678939
-0.000129759524527221
0.000139856376556385
-0.000175974683518177
0.00015539977856729
-0.000218533014368983
0.000158146707286064
-0.000255491631292039
0.000150872121454718
-0.000286612049151423
0.000137827805044841
-0.00031253899846509
0.000122721094767747
-0.000334153840116542
0.000107791286400127
-0.000352266119803186
9.4118170227677e-05
-0.000367527728184917
8.20327773910667e-05
-0.000380439042773685
7.15092567347116e-05
-0.000391379830879114
6.23703376824778e-05
-0.000400639730239504
5.44038948614417e-05
-0.000408442200592426
4.74073705037565e-05
-0.000414961991051677
4.12059314171453e-05
-0.000420337652745886
3.56544893008332e-05
-0.000424680530656694
3.06355208514851e-05
-0.00042808132648141
2.60549347499615e-05
-0.000430614924422038
2.1837827102267e-05
-0.000432344008522061
1.79246937912498e-05
-0.000433321848493056
1.42685747614452e-05
-0.000433594477446814
1.08327693502764e-05
-0.00043320238976516
7.58910196130254e-06
-0.000432181750238008
4.51570204148322e-06
-0.00043056531194155
1.59478344886839e-06
-0.000428384035719726
-1.18725738830747e-06
-0.000425667686055258
-3.83892127018458e-06
-0.000422443723841158
-6.36512376337132e-06
-0.000418737438879768
-8.76950576168286e-06
-0.000414573163902131
-1.10555963285061e-05
-0.00040997499119094
-1.32271291273441e-05
-0.000404966686804144
-1.5287331239192e-05
-0.000399571460514632
-1.723860673854e-05
-0.000393812085877506
-1.90829539762249e-05
-0.000387710973695292
-2.08219841239159e-05
-0.000381290234465886
-2.24569680761043e-05
-0.000374571728699275
-2.39889427851454e-05
-0.000367577099145611
-2.54187711312408e-05
-0.000360327775583341
-2.67472967372411e-05
-0.000352844959794476
-2.79754600851895e-05
-0.000345149605134969
-2.91043465134807e-05
-0.000337262392348808
-3.01352136243104e-05
-0.000329203697262877
-3.10695448462193e-05
-0.000320993555494448
-3.19090900871154e-05
-0.000312651638154597
-3.26558302492657e-05
-0.000304197243896458
-3.33119123637871e-05
-0.000295649312732015
-3.3879564375365e-05
-0.000287026478699275
-3.43609322388858e-05
-0.00027834718483957
-3.47577703257185e-05
-0.000269629862840677
-3.5071140883394e-05
-0.000260893182531108
-3.53010454196088e-05
-0.000252156348918474
-3.54461854697105e-05
-0.00024343941240027
-3.55038936019787e-05
-0.00023476355889076
-3.5470237433039e-05
-0.000226151393866865
-3.53401974732213e-05
-0.00021762734551303
-3.5107136271308e-05
-0.00020921824722294
-3.47619790936217e-05