/*--------------------------------*- C++ -*----------------------------------*\
  =========                 |
  \\      /  F ield         | OpenFOAM: The Open Source CFD Toolbox
   \\    /   O peration     | Website:  https://openfoam.org
    \\  /    A nd           | Version:  7
     \\/     M anipulation  |
\*---------------------------------------------------------------------------*/
FoamFile
{
    version     2.0;
    format      ascii;
    class       volScalarField;
    location    "20000";
    object      Pk_bouss;
}
// * * * * * * * * * * * * * * * * * * * * * * * * * * * * * * * * * * * * * //

dimensions      [0 2 -3 0 0 0 0];

internalField   nonuniform List<scalar> 
15600
(
3.29733899601576e-07
1.64929441115872e-07
1.71511592740129e-08
7.27378053811157e-09
2.13782380507647e-09
1.92385449548038e-10
1.78362306226425e-11
7.45141162400607e-12
7.8753615620824e-12
1.16466913877369e-11
1.89205198241077e-11
3.26087537538661e-11
5.29730179967217e-11
7.37254124480126e-11
8.33437578999433e-11
6.71096777841751e-11
2.49640547752434e-11
2.12159053972487e-13
3.17287964657762e-11
6.35900144355355e-11
4.83936964913487e-11
2.4314593843745e-11
1.62108472360808e-11
1.13059206207433e-11
4.43810964124602e-13
6.46881245605949e-11
4.58437313019933e-10
1.68316625648128e-09
4.4571249833531e-09
9.53214402777523e-09
1.75385302193414e-08
2.88740032246244e-08
4.37173093155083e-08
6.20642463493122e-08
8.37906555349284e-08
1.08690707870414e-07
1.36509112802941e-07
1.66956055499917e-07
1.9971787201257e-07
2.3446120796938e-07
2.7083619136969e-07
3.08478242565422e-07
3.47010061934035e-07
3.86043690633487e-07
4.25183581991103e-07
4.64031345704911e-07
5.02192956906279e-07
5.39286429709982e-07
5.74948353116265e-07
6.08838992095795e-07
6.40648898984893e-07
6.70093200879647e-07
6.97140868241838e-07
7.21463832998861e-07
7.42668860020752e-07
7.60421641998568e-07
7.74494637177939e-07
7.84811199190362e-07
7.91343929626452e-07
7.94113381890427e-07
7.93186253602424e-07
7.88672835322092e-07
7.80723495916127e-07
7.69524252744631e-07
7.55291814076664e-07
7.38268259094877e-07
7.1871536224566e-07
6.96908588159462e-07
6.73131248744366e-07
6.476689530008e-07
6.20804238972784e-07
5.92812094803971e-07
5.63956393155437e-07
5.3448772375713e-07
5.04642475524711e-07
4.7464286329739e-07
4.44697242535472e-07
4.14999413576541e-07
3.85726955404774e-07
3.57039975547764e-07
3.29081172933565e-07
3.01977283252896e-07
2.7584209929028e-07
2.50780417550144e-07
2.2689267199816e-07
2.0427970167924e-07
1.83047327811275e-07
1.63310683769789e-07
1.45196579881513e-07
1.28847299651301e-07
1.1442080478592e-07
1.02099689338219e-07
9.20883259320774e-08
8.46351585186258e-08
7.98492698244587e-08
7.74455271484805e-08
7.57863235901315e-08
6.40335331890791e-08
3.24103546783165e-08
1.31278012039629e-08
1.1770922642131e-08
1.46817694797168e-08
1.9151775164404e-08
2.43316249026716e-08
2.82053979774537e-08
2.80928588659418e-08
2.23980462498503e-08
1.18494205192915e-08
2.0894696814331e-09
8.35112628968235e-10
1.190277703945e-08
3.51270257628781e-08
8.12547175215351e-08
1.88487438456953e-07
5.58084632340435e-07
2.14049454074313e-06
1.73758797818332e-05
9.18161716877498e-05
4.176176623265e-05
2.07133421693298e-06
0.000254045313922228
4.34609930020038e-05
1.11640243764821e-06
9.88124128785616e-07
3.38819423681915e-07
3.58685186869623e-08
3.65513983553193e-09
1.3700569233667e-09
1.41541781627538e-09
2.07307584217524e-09
3.33835044256796e-09
5.63736281517647e-09
8.97391676361963e-09
1.23928512694646e-08
1.42919520350724e-08
1.26071501144886e-08
6.75380973905488e-09
1.22003097342297e-09
1.3888084176106e-09
4.43915536500545e-09
4.30942420446469e-09
2.16950638067134e-09
6.52555885936554e-10
2.76103946696873e-10
8.40812105588178e-09
5.34582306124305e-08
1.98857255121582e-07
5.39877751415814e-07
1.18424703653386e-06
2.22010371222796e-06
3.70090615043213e-06
5.64209000407478e-06
8.03139713460955e-06
1.08381105948058e-05
1.40219165625298e-05
1.75374011053554e-05
2.13371136079001e-05
2.5372704388027e-05
2.95956473687454e-05
3.39574325573958e-05
3.84097529108891e-05
4.29046406193762e-05
4.73946772265582e-05
5.18332524404374e-05
5.61749535771793e-05
6.03760898122137e-05
6.43953874185635e-05
6.819471484867e-05
7.17396840487158e-05
7.50000231366772e-05
7.79500512593774e-05
8.05671429528883e-05
8.28582574787518e-05
8.47989382947679e-05
8.63399232630542e-05
8.74585972770339e-05
8.81556396594465e-05
8.84349016550017e-05
8.8304996371408e-05
8.77789851813151e-05
8.68740123907158e-05
8.56108859885243e-05
8.40136001173565e-05
8.21088030084761e-05
7.99252438668405e-05
7.74932124171596e-05
7.48439768116674e-05
7.20092206667118e-05
6.90205178959128e-05
6.59088545624839e-05
6.27041915198789e-05
5.94351205128755e-05
5.61286078640424e-05
5.28098614723127e-05
4.95022915568244e-05
4.62275375156918e-05
4.3005498169947e-05
3.98542917208409e-05
3.6790158991201e-05
3.38274018349336e-05
3.0978433428215e-05
2.82539204714439e-05
2.56630323082351e-05
2.32137399619862e-05
2.09131359332604e-05
1.87677587587986e-05
1.67838564468541e-05
1.49676923631733e-05
1.33256093796728e-05
1.18644864782239e-05
1.0591486014203e-05
9.51536891370752e-06
8.64521258847152e-06
7.99145721047823e-06
7.5490467188911e-06
7.29091952244377e-06
6.96024914201906e-06
6.0164705492005e-06
4.01130797475207e-06
2.20366176079005e-06
1.84154566283606e-06
2.08843946521744e-06
2.48611648176858e-06
2.88298646994132e-06
3.05092252837278e-06
2.74641468497442e-06
1.90197617437707e-06
7.62339608178103e-07
5.45849427065214e-08
5.49654993334445e-07
2.63353674225823e-06
6.3092148258598e-06
1.32337708989482e-05
2.88012438086368e-05
7.86294041221884e-05
0.000273277628886608
0.00160615350536408
0.00567912238648984
0.00351321314919347
0.000842875951580365
0.00852931402453528
0.00126826377378263
7.14454224726777e-06
1.39640904562731e-05
5.93122554084743e-06
7.43796112260151e-07
8.44210957671355e-08
2.91466629383485e-08
2.93433848738979e-08
4.25947346254715e-08
6.79424913533291e-08
1.12305699536637e-07
1.74941885602149e-07
2.39760551519761e-07
2.8269876712913e-07
2.73835660592425e-07
1.96923254164274e-07
9.22511117779065e-08
2.33109136910313e-08
1.22009608740879e-08
2.02560629688814e-08
1.15720504708945e-08
8.0427381406362e-09
1.17898204033962e-07
7.13818191832934e-07
2.65472715915367e-06
7.3264067717287e-06
1.6220537216345e-05
3.04279502385871e-05
5.03086206728522e-05
7.55804041173321e-05
0.000105544972966279
0.000139342472351787
0.000176093472614863
0.000214978097008685
0.000255254654998389
0.000296262631041617
0.000337412962427309
0.000378179580402379
0.000418090652625928
0.000456722608026868
0.000493695694263699
0.000528671355660822
0.000561350645534292
0.000591473865289062
0.000618820792741029
0.000643211852072151
0.000664509619617095
0.000682619449957892
0.000697486290006118
0.000709093414145592
0.000717457181043073
0.00072291357315187
0.000724827473128068
0.000723417188926582
0.000718859414601475
0.000711312925451615
0.00070095808982048
0.000687993347942549
0.000672631942359195
0.000655098737026201
0.000635626945078993
0.000614454965008522
0.000591823230572329
0.000567971262920612
0.000543134913222521
0.000517543871256855
0.000491419350919983
0.000464972120914943
0.000438400955998347
0.000411891254954809
0.000385614336020095
0.000359726937233204
0.000334371373168356
0.000309675885547024
0.000285755143462488
0.00026271072079501
0.000240631131349731
0.000219591934368532
0.000199655835036328
0.000180873326976553
0.000163283531522643
0.000146915243512081
0.000131788078548698
0.000117913431141924
0.000105295376154226
9.39312687287668e-05
8.38123689188809e-05
7.49237638543464e-05
6.72450692405802e-05
6.07484274185683e-05
5.53992562055521e-05
5.11455770653314e-05
4.79028772015997e-05
4.55244631959132e-05
4.37630505220784e-05
4.17517308036204e-05
4.14785975850908e-05
4.21164247239979e-05
3.24531727101215e-05
2.59433841448256e-05
2.64003206477172e-05
2.79007709165235e-05
2.84261909760009e-05
2.60179240367129e-05
1.95027292835546e-05
1.00024697696815e-05
2.19323429904646e-06
4.08320526546193e-06
2.23251826716814e-05
6.12772622734511e-05
0.000122798386372568
0.000232539799081599
0.000466464078779958
0.00112890946868346
0.00327564986588316
0.0116402875769464
0.0206285312744673
0.0194171974270381
0.0142806661908665
0.042874327283633
0.00975480367358727
0.000174397368072708
6.32047010418391e-05
3.65894457606216e-05
5.52111400978119e-06
7.0815421101146e-07
2.30001970102491e-07
2.24311310100599e-07
3.22450566998468e-07
5.08404957190056e-07
8.2095905694464e-07
1.24949403606174e-06
1.69976355825286e-06
2.05341943209141e-06
2.18352187224233e-06
1.993827769786e-06
1.53969964588648e-06
9.21991047149408e-07
2.93245350616521e-07
1.66695227419784e-08
4.18846924031376e-08
5.47974327227146e-07
3.2375158077138e-06
1.20224605924099e-05
3.31082462804247e-05
7.2209775398715e-05
0.000131207628684222
0.0002072616124637
0.000294678361337721
0.000387447576165917
0.000480676946532157
0.000570955863411101
0.000656099939004697
0.000734799754013372
0.000806309792015817
0.000870247629005334
0.000926461502189363
0.000974953549011321
0.00101583129637654
0.00104927890304419
0.00107553849770604
0.00109489818769236
0.00110768324995434
0.00111424951336926
0.00111497728977476
0.00111026671792552
0.00110053427882366
0.00108621064780988
0.00106773805243281
0.00104566426320047
0.00102035663799271
0.000991780964652188
0.00096055500642616
0.000927076162834445
0.000891716084410897
0.000854833575772911
0.000816768235499317
0.000777840136613883
0.000738349175671429
0.000698574890698004
0.000658776226863704
0.000619191571454383
0.000580038874789255
0.000541515994988836
0.00050380115106298
0.000467053525337279
0.000431413889309369
0.000397005342213064
0.000363934192497838
0.000332290645767646
0.000302149770061587
0.000273572198622589
0.000246605001470989
0.000221282376493716
0.000197626251579399
0.000175646866425563
0.000155343013764231
0.000136702409578665
0.000119701984526444
0.000104308304128773
9.04779488402128e-05
7.81579016645537e-05
6.72861112302692e-05
5.7792326471094e-05
4.95993358973377e-05
4.26250520286141e-05
3.67846219721182e-05
3.19934125915089e-05
2.81663172835087e-05
2.52161207789158e-05
2.30363409913002e-05
2.1487183372246e-05
2.03528573991976e-05
1.95016452803431e-05
1.90647541598519e-05
2.12006144418074e-05
3.90236496241504e-05
8.54204522598652e-05
9.86364031259121e-05
7.6723430061446e-05
6.73827170651864e-05
5.89339587877267e-05
4.74727777774809e-05
3.2060249283776e-05
1.6156787226005e-05
9.02428432907455e-06
2.66213237412475e-05
8.65125566123066e-05
0.000205724437679113
0.00040540374528838
0.00071265198509286
0.00123480368360861
0.00225662522651127
0.00461126751148351
0.0100439780272225
0.017834307338398
0.010107086144218
0.0149298196795879
0.0393939251540136
0.0653157875453609
0.027511148375155
0.00183711030858706
0.000130380953701114
0.000123613874002935
2.31924267499712e-05
3.42522525279586e-06
1.06939346131718e-06
1.00287945482669e-06
1.42413559225861e-06
2.21138751514947e-06
3.47522999295477e-06
5.15091565484411e-06
6.94043007367791e-06
8.57418698252925e-06
9.90279393335289e-06
1.07970207886116e-05
1.10279217837115e-05
9.74813896344467e-06
5.83637375907524e-06
2.00561880753491e-06
1.51923645995162e-06
7.65310155402595e-06
2.90719224379319e-05
7.79819899592069e-05
0.000163910220730815
0.000280442237566624
0.00040876843757212
0.000528423474676661
0.000626794375031041
0.000700166399721903
0.00075043857758535
0.00078162201925606
0.000797837751754148
0.000802554507447799
0.00079846502009728
0.000787601609124504
0.000771493431262262
0.000751305442562699
0.000727942246289051
0.000702122558734125
0.000674430645844604
0.000645351641786757
0.000615295614592768
0.000584613968683564
0.000553610822298908
0.000522551742418686
0.00049167072852305
0.000461181008784815
0.000431319824654199
0.000402220941674384
0.000373912315412288
0.000346401216130905
0.000319812046678414
0.00029421464272007
0.000269667004661576
0.000246216584469367
0.000223900026925065
0.000202744411019499
0.000182768151677954
0.000163981901126481
0.000146389368265576
0.000129988041445411
0.000114769825041376
0.000100721664175172
8.78261120632046e-05
7.60617883986256e-05
6.54037092786659e-05
5.58235340392544e-05
4.72897018228035e-05
3.97673653114227e-05
3.32182286218687e-05
2.7600275797528e-05
2.28674853869064e-05
1.896959176067e-05
1.58519442782807e-05
1.34554627561962e-05
1.171647821504e-05
1.05663406722054e-05
9.93101224342841e-06
9.73079992500032e-06
9.88042690259872e-06
1.02898023343165e-05
1.08657489783268e-05
1.15151571439458e-05
1.21499155887266e-05
1.26938471589617e-05
1.30919484864467e-05
1.33201116922424e-05
1.33958117161329e-05
1.33801874504876e-05
1.33764917382876e-05
1.34830971162147e-05
1.37505425395544e-05
1.38399382748648e-05
1.30258362961387e-05
1.02367991235123e-05
9.24342247396635e-06
4.88852596648619e-05
8.51432848317525e-05
5.77231443742354e-05
3.49120056689782e-05
1.62214719655245e-05
5.31551131845171e-06
1.0004074317792e-05
4.01054888314507e-05
0.000108282922117993
0.000224677646361488
0.000395959515534181
0.000654771682630373
0.00105019435662109
0.00168074605943148
0.00270864749365062
0.00448917894313689
0.00751680541778714
0.0116598491412049
0.0113723332110441
0.00688474818191548
0.000374335800631544
0.0364210435700379
0.0545769800638176
0.0415552618382068
0.00760480005972521
0.000124070672588808
0.000265560598775291
6.65211194575164e-05
1.16833319453654e-05
3.59615952445297e-06
3.21557714069632e-06
4.48695709860924e-06
6.81767293160255e-06
1.03505344682684e-05
1.48214276044396e-05
1.96094081504071e-05
2.44851413465341e-05
2.9919601929861e-05
3.63856499087065e-05
4.28055358289439e-05
4.46131297516164e-05
3.44639525938031e-05
1.83250328043104e-05
1.44046734237522e-05
4.51503330477159e-05
0.000122377727019001
0.000245338883468049
0.000395921031448339
0.000530664689233926
0.000617780713160806
0.000650584763604079
0.000641568442577893
0.000607631658850464
0.000562124640265205
0.000513224906967601
0.000465199727811486
0.000419953244536809
0.000378143441587092
0.000339833538763406
0.000304835345745911
0.00027287739237375
0.000243681472153571
0.000216993989844165
0.000192595664721116
0.000170301210429985
0.000149955152935388
0.000131426501614168
0.000114603939956599
9.93920897666192e-05
8.57084092992229e-05
7.34846022173024e-05
6.26494799349584e-05
5.30868602454273e-05
4.4706370871611e-05
3.74601787665085e-05
3.13001741321616e-05
2.61678234072198e-05
2.20072829909379e-05
1.87637894513429e-05
1.63834778655162e-05
1.48133430821445e-05
1.40012044904351e-05
1.38957480912285e-05
1.44466197875829e-05
1.56045048209168e-05
1.7321157089374e-05
1.95494039126847e-05
2.22431214590465e-05
2.53571407561194e-05
2.88470428109819e-05
3.26688639460415e-05
3.6778728864732e-05
4.11323939850383e-05
4.56846963580672e-05
5.03890085276431e-05
5.51967242143377e-05
6.00568567798723e-05
6.49158150090457e-05
6.97173788701758e-05
7.44028987164242e-05
7.89112936920024e-05
8.31790351443657e-05
8.71406270066478e-05
9.07299096147025e-05
9.38828476409438e-05
9.654218275264e-05
9.86644539802424e-05
0.00010023002578615
0.000101255393256868
0.000101809021353146
0.000102023703318058
0.000102109542811392
0.00010233440607354
0.000102989626361923
0.000104185445486018
0.000105643781147181
0.000105428319497761
9.95919930142511e-05
8.15184575425965e-05
3.88303682677378e-05
1.67181165177624e-05
3.18149104067329e-05
1.2217570420497e-05
8.22200758332466e-07
6.98850151024785e-06
4.13372825728584e-05
0.000112789094680335
0.000225477573524494
0.000382631504513254
0.000577178140962468
0.000800866058957822
0.00109600177865356
0.00151560117462426
0.00220055383545846
0.0032733685918121
0.00492995945120587
0.00705743069633323
0.00910601661686451
0.011253396156665
0.0175509746535518
0.00481915329735549
0.0185224913623141
0.035440802385485
0.0457888942885289
0.0173574791801364
0.000280992382325051
0.000363022026884087
0.000139139761087941
3.06850532423946e-05
9.64781609661152e-06
8.1594567432028e-06
1.10869239042225e-05
1.6315227060741e-05
2.36312263618691e-05
3.22114859753678e-05
4.11377608028664e-05
5.08687947439295e-05
6.36616770324515e-05
8.15172540164801e-05
0.000101584731290156
0.000113073732131222
9.94015448387817e-05
6.92078861382819e-05
6.27568694047567e-05
0.000142695809312087
0.000289352318891601
0.000448486410105059
0.000570491726163671
0.000613285949127513
0.000583705406402455
0.000513028107831254
0.000430497436967373
0.000352389757367727
0.000284844949925802
0.000228701904673933
0.000182752084987435
0.000145290372067781
0.000114715967017133
8.97052390876616e-05
6.9217830627969e-05
5.24526397765605e-05
3.87957681069397e-05
2.77752747606729e-05
1.90251032979225e-05
1.22574601678982e-05
7.24223192077822e-06
3.79171872082056e-06
1.74933009338196e-06
9.80999843729837e-07
1.3682608586238e-06
2.80251635889118e-06
5.18808511985009e-06
8.44584203965772e-06
1.25010460991962e-05
1.72785851576173e-05
2.27039927870584e-05
2.87082725719136e-05
3.52254459932928e-05
4.21919474903351e-05
4.95464700936588e-05
5.72298497288576e-05
6.51849883228753e-05
7.33568403764842e-05
8.16924487254339e-05
9.01410516041792e-05
9.86541083016741e-05
0.000107185210140451
0.000115689942759386
0.000124125729031814
0.000132451552649327
0.000140627546072278
0.000148614560846905
0.000156373742763572
0.000163865997442038
0.000171051477015518
0.000177889067463103
0.000184335921349761
0.00019034717628261
0.000195876058670887
0.000200874784764783
0.000205295397500782
0.0002090904530606
0.000212214500903596
0.000214626755420592
0.000216295946085699
0.000217207833910421
0.000217375927652881
0.000216856143721353
0.000215763823704338
0.00021429442437934
0.000212736278566124
0.000211478660501892
0.000210960982335995
0.000211578781860438
0.000213294264775082
0.000215229271077969
0.000213718632111868
0.000201707816278909
0.000169500767313147
9.44079052198199e-05
1.53543101392774e-05
4.57571895094136e-06
1.66806539522818e-06
1.80104515009557e-05
6.61606419227769e-05
0.000157357650738717
0.000295847364645234
0.000478919346453534
0.000701909631952647
0.000946010500177984
0.00119192002594262
0.00147842856839353
0.0018497075162236
0.00244443594917168
0.00335504155862322
0.00473424663796822
0.00659615629217756
0.0095117383371358
0.0180128852918966
0.0293472247321771
0.0122336969849037
0.00801986720681847
0.0218104764361516
0.0438005800786854
0.0274784272542768
0.00195703995343097
0.000280411425275474
0.000214805950352785
6.36226166400303e-05
2.15645753374283e-05
1.71781119259866e-05
2.24347577503718e-05
3.15228250695797e-05
4.28210233303586e-05
5.4506649263552e-05
6.59712013570644e-05
7.96447825468408e-05
0.000100550976199429
0.000132308141690812
0.000169247716604059
0.000194487493093295
0.000185306520941028
0.000153903927170408
0.000158966017365409
0.000285838748340553
0.000456305031542823
0.000569902882980155
0.000592390958368652
0.00053007679592552
0.000429517222404591
0.0003280751978052
0.000242444450839361
0.000175586124324724
0.000125162394605875
8.77316058198635e-05
6.02081384093839e-05
4.01956942415319e-05
2.59226921065107e-05
1.61041276060127e-05
9.80711460898125e-06
6.34946653782627e-06
5.22570190771632e-06
6.05540068749198e-06
8.54662018115541e-06
1.24703952274726e-05
1.76428313375743e-05
2.39122142281602e-05
3.11489630918879e-05
3.92375595426435e-05
4.80731098088087e-05
5.75676530785144e-05
6.76610963355821e-05
7.8283023172875e-05
8.93584717719169e-05
0.00010080829783471
0.000112556395598448
0.000124534614329366
0.00013667708171312
0.000148920226386057
0.000161202656357125
0.00017346515998652
0.000185650733300563
0.000197704612751467
0.000209574349550097
0.000221210073720145
0.000232564627979596
0.000243593462901129
0.00025425446285581
0.000264507827127697
0.000274315813843115
0.000283642282170074
0.000292452284168712
0.00030071175985915
0.000308387074866107
0.00031544454267694
0.00032184986984952
0.000327567507839758
0.000332560181931487
0.00033678908799292
0.000340215693981725
0.000342803610230972
0.000344519977427569
0.000345337845700187
0.000345239957634667
0.000344225308275741
0.000342318990501051
0.000339585892212863
0.000336148834934908
0.000332208836777135
0.00032806815025645
0.000324140963434094
0.000320951722524957
0.000319051672774294
0.000318862556690678
0.000320129600683902
0.000321354477216849
0.000317490143633506
0.000299082411704107
0.00025477850747502
0.000156152159448087
3.22282994299695e-05
8.28933059683863e-07
1.53150257217483e-05
6.05602216612144e-05
0.000149898553438157
0.000293386821163565
0.000491951116209764
0.000739458293972723
0.00102740847202825
0.00132856640553634
0.0016139001831715
0.00191712425627931
0.00228337579841725
0.00285471081151979
0.00375291399752097
0.00524435970183137
0.00780974117636837
0.0131424522271195
0.0271992677301939
0.039300762797951
0.0168654812637676
0.00452466200698891
0.0141745230367802
0.0399038906330041
0.0355094179860842
0.00645145622224731
7.11532297424554e-05
0.000249095370855165
0.000102877874003289
4.04916126026481e-05
3.05502634944602e-05
3.7767088085562e-05
4.98880895514164e-05
6.25154267154894e-05
7.32785620552766e-05
8.37008122487296e-05
9.96258726836732e-05
0.000128621591918376
0.000174779851481574
0.000229006348494316
0.000269681112838077
0.000271725601602192
0.000252530177615485
0.000278638947846601
0.000421053287903971
0.000553093000843359
0.000576947091901848
0.00050914667152907
0.000397149609742681
0.000288524937432849
0.000201927921339314
0.000138748496439777
9.46908455959595e-05
6.49387846537878e-05
4.56380735062435e-05
3.39628750172517e-05
2.79276650514187e-05
2.61392763738507e-05
2.76178879147531e-05
3.16631216623803e-05
3.77667575502817e-05
4.55528027058954e-05
5.47374118580073e-05
6.51007013033399e-05
7.64678966639276e-05
8.86963061051875e-05
0.000101665704214588
0.000115269668224478
0.000129408590073961
0.000143993778024069
0.000158967566439732
0.000174270702616995
0.000189836376462559
0.000205589334474011
0.000221449373527439
0.000237339743439564
0.000253191172879676
0.000268936553792726
0.000284511079120776
0.000299852072277237
0.000314899083262781
0.000329594001551569
0.000343881099219846
0.000357707128155105
0.000371021773948793
0.000383777924226925
0.0003959315437184
0.000407441466339594
0.000418269349069898
0.000428379467271982
0.000437738221199706
0.000446313775228606
0.000454075920912751
0.000460995702293264
0.000467044960629617
0.000472195681405844
0.000476419045761386
0.000479684620134277
0.000481960579924073
0.000483216621659937
0.000483427071545713
0.000482572974229804
0.00048064526838827
0.000477649434130315
0.000473613435973765
0.000468599379971162
0.000462719499561922
0.000456156614173657
0.000449186131294425
0.000442198922736624
0.000435707566985287
0.00043033099805741
0.000426679050104909
0.000425136622874808
0.000425195331037472
0.000424763271945011
0.000417740432718573
0.000392856067452711
0.000337563492344061
0.000220561386478057
6.04803329230431e-05
1.2072513218141e-05
4.16842477607339e-05
0.000113458780159731
0.000241187966031999
0.000433913903052804
0.000691415219825672
0.00100633705940763
0.00136831968287172
0.00174296747934728
0.0020920716780199
0.00244801388592283
0.00286919132159849
0.00352081439039776
0.00459952064994253
0.00656943032295331
0.0104252695376246
0.0187083248651016
0.0368752579530352
0.0470864765619837
0.0194313744815248
0.00371123988183986
0.0100600643993967
0.0365382172935151
0.0412695681035204
0.0131130963464021
2.514456014271e-05
0.00023256560007759
0.00012724198145221
6.28953818539712e-05
4.59318959769529e-05
5.30500977291188e-05
6.51588458924718e-05
7.47833598977659e-05
8.0944419243775e-05
8.90279814911859e-05
0.000107931204391891
0.000146055518371674
0.000206672721991739
0.000277539643446177
0.000333913191170877
0.000350373055263405
0.0003485898189269
0.00038684190032519
0.000507209409949998
0.000565636524484709
0.000509127452251063
0.000398275218464594
0.000285894603557409
0.000198231506050683
0.000137249815650452
9.75456145243799e-05
7.33985263592065e-05
6.02986077596204e-05
5.50779876007388e-05
5.55327921932914e-05
6.01609830885629e-05
6.79201396064798e-05
7.80805401612237e-05
9.0118605601053e-05
0.000103652176181743
0.000118396191443595
0.000134133235568896
0.00015069216350206
0.000167934535036748
0.000185745357300042
0.000204025760259892
0.000222684710248651
0.000241632324027128
0.000260797612704365
0.000280129815239132
0.00029957118674341
0.000319056165384302
0.000338508161881767
0.000357845070962238
0.000376987696295227
0.000395863524303099
0.000414402523565531
0.000432537146848713
0.000450202038846022
0.000467334204683428
0.000483873186100512
0.000499761074009153
0.000514942604864637
0.00052936583675969
0.000542982578845173
0.000555748232354381
0.000567621538985069
0.000578564635423795
0.000588542927397706
0.000597524559495354
0.000605480119517757
0.000612382724336242
0.000618207756187924
0.000622932436657853
0.000626535036392306
0.000628993516654323
0.000630284210106104
0.000630381971268402
0.000629264431865332
0.000626916597501816
0.000623333667170557
0.000618524927086692
0.000612519050170006
0.000605373136498648
0.000597185712060302
0.000588114379110506
0.000578397510748946
0.000568376605319706
0.000558516668792783
0.000549405926919569
0.000541723535617293
0.000536093873836234
0.000532814428441116
0.00053110094310631
0.000528294965172648
0.000517482062776929
0.000485995000922406
0.000420134256473445
0.000287641620642127
9.75201442910462e-05
3.4246068287465e-05
7.66875402636873e-05
0.000173052877287864
0.000337868018521793
0.000579567636072611
0.000898260624735279
0.00128650256589593
0.00173277005340526
0.00219598462587658
0.00262962572003128
0.00306921390821992
0.0035966049098587
0.00441783588650094
0.00583382794988687
0.00855150207000285
0.0140502496677544
0.0254592276752515
0.0463589762247646
0.0528079984132272
0.0207437573433338
0.00364628850932012
0.00775549446711827
0.0346023667668154
0.0451175867805531
0.0205718887559688
0.000501242999049322
0.000192352901004512
0.000122110541229235
7.88047415603124e-05
5.79992623157375e-05
6.2287325849707e-05
7.11396696405691e-05
7.54568352033273e-05
7.71766268120123e-05
8.48944773349704e-05
0.000108591833849461
0.00015622086863643
0.000230034549132378
0.000315671884984128
0.000386725980998881
0.000417750341453075
0.000430895290925268
0.000461689578632884
0.000533295912774393
0.000517695129804122
0.000416572824110818
0.000303282497804793
0.000212595320117192
0.00015121891267586
0.000113639220504936
9.31918151099152e-05
8.48051497542853e-05
8.48256531029279e-05
9.07991144613434e-05
0.000101036750622986
0.000114399930104483
0.000130096554049108
0.00014756996188836
0.000166416296043676
0.000186337808300003
0.000207110175027032
0.000228560457068765
0.000250550098390704
0.000272965108302681
0.000295709583107095
0.000318699710653578
0.000341854157104023
0.000365089312172322
0.000388346415984059
0.000411572483059612
0.000434714470596477
0.000457706491188848
0.000480469630704425
0.000502918448681079
0.000524969582383348
0.000546545806961056
0.000567572978887499
0.000587979746400124
0.000607697083636269
0.000626658520509426
0.00064480037126104
0.000662061678474892
0.00067838428180698
0.000693713756266196
0.000708000038255492
0.000721197215312597
0.000733263213740913
0.000744159982145914
0.000753853474820718
0.000762313078532938
0.000769511397971907
0.000775424630195421
0.000780032450155455
0.000783317642038809
0.000785265153083854
0.000785860222714089
0.000785086354904296
0.000782925250888992
0.000779362659645629
0.000774394764232337
0.00076803178363423
0.00076030251968536
0.000751260115580315
0.000740991926830731
0.000729633417929451
0.000717386900736025
0.00070454343682924
0.000691504288257489
0.000678796654007393
0.000667065153776318
0.000657019862185157
0.000649262875896001
0.000643962385578917
0.000640042469623923
0.000634295550524311
0.00061914701312517
0.00058082876984439
0.000504393867127399
0.000357974383353679
0.000142395951532014
6.57991069555135e-05
0.000119418879771038
0.000239378409220794
0.000441331900709102
0.000733433164285623
0.00111704111219259
0.00158523537399506
0.00212528147172288
0.00268974458487377
0.00322498727436378
0.00377436047100712
0.00445197550952641
0.00551942561222141
0.00740308488051196
0.0110796000875787
0.0184632535835075
0.033033587529274
0.0547459342786283
0.0565491748861493
0.0212533466075837
0.00373607428021294
0.00641108347495923
0.033970420155595
0.0473308944681588
0.0277936801930854
0.00184059652971745
0.000142723022082832
0.000100330319921697
7.81529230032223e-05
6.11597025697902e-05
6.15663452221877e-05
6.63208248760935e-05
6.6670127120962e-05
6.68199105646944e-05
7.6497949100511e-05
0.000105565730511406
0.000161499849337249
0.000246002673997026
0.000343646794530453
0.000427184847016907
0.000470143419434331
0.000490533742142471
0.000495926120735434
0.000510001820357247
0.000442027904667292
0.000330916225294785
0.000235899058825917
0.000171214224258608
0.000133204160808776
0.000114699992990194
0.00010970346539928
0.000114111286378105
0.000125016255753775
0.000140499058632208
0.000159234646912078
0.000180335026857972
0.000203178182393542
0.000227323990163175
0.000252448643123933
0.000278311041136852
0.000304728226984519
0.000331558118628777
0.000358684950231661
0.000386012153419458
0.000413458138629
0.000440950715481744
0.000468414820646122
0.000495768135873544
0.0005229571431559
0.000549932471632539
0.00057664362214355
0.000603023721678439
0.000628990631593144
0.000654454168823203
0.00067932541298266
0.000703521401250417
0.00072696308275172
0.000749574588396321
0.000771282553046416
0.000792016402577702
0.000811708634827506
0.000830294656717195
0.000847712791809143
0.000863905527979863
0.000878820385320919
0.000892409633511158
0.000904629893523677
0.00091544247982367
0.000924813527951834
0.000932713366351959
0.000939116396867015
0.000944001833825905
0.000947353792824696
0.00094916102807097
0.00094941583391774
0.000948111564629955
0.000945239660219722
0.000940789160403359
0.000934754422314094
0.000927143654876559
0.000917983366440789
0.000907323500966314
0.000895243468747875
0.000881862585122723
0.000867354434714994
0.000851966160187035
0.000836039587014837
0.000820030654013046
0.000804518519928341
0.000790187491851396
0.000777753045723196
0.000767763727835694
0.000760222625050589
0.000753748559113966