/*--------------------------------*- C++ -*----------------------------------*\
  =========                 |
  \\      /  F ield         | OpenFOAM: The Open Source CFD Toolbox
   \\    /   O peration     | Website:  https://openfoam.org
    \\  /    A nd           | Version:  7
     \\/     M anipulation  |
\*---------------------------------------------------------------------------*/
FoamFile
{
    version     2.0;
    format      ascii;
    class       volSymmTensorField;
    location    "20000";
    object      tauij_B;
}
// * * * * * * * * * * * * * * * * * * * * * * * * * * * * * * * * * * * * * //

dimensions      [0 2 -2 0 0 0 0];

internalField   nonuniform List<symmTensor> 
15600
(
(6.34941219980786e-06 -2.89855052598271e-08 4.70335622151204e-32 6.35111884643783e-06 5.17561695353106e-30 6.34960052507419e-06)
(2.6684086679523e-06 -1.16746850046783e-08 -1.71064116595124e-27 2.67967158478619e-06 -2.53868431339471e-29 2.67418438740874e-06)
(4.51641589506201e-07 3.34862673214669e-10 -4.97699009594323e-27 4.48840333265271e-07 -6.5682741662982e-27 4.50210549253745e-07)
(1.13485358553684e-07 -6.67920773463624e-11 -7.39561763074456e-25 1.12708000327108e-07 -6.1170640723473e-25 1.1308937453486e-07)
(1.42901802288694e-07 -7.69317595059812e-11 -1.04519896933075e-24 1.42473821147817e-07 -7.0500935501408e-25 1.42684913451773e-07)
(3.57558048379789e-08 -1.48645780040813e-11 1.31974310057973e-27 3.56934503466281e-08 7.33678660707147e-28 3.57242789457585e-08)
(6.54276040210447e-09 -2.2217924857205e-12 2.16244608209997e-28 6.53442897454204e-09 1.53757861495635e-28 6.5385612536116e-09)
(4.19302794079743e-09 -1.24858572274873e-12 -1.94047160827316e-28 4.18840562581881e-09 -1.16015504418562e-28 4.19070338138651e-09)
(5.15191294169727e-09 -1.5013595389645e-12 -4.98200921906996e-28 5.14614402766453e-09 -3.71233892697047e-28 5.14902123421184e-09)
(7.01478146388239e-09 -2.213534729694e-12 4.89021763115433e-28 7.00586640644124e-09 2.48158285806214e-28 7.01031418251196e-09)
(9.84244209096606e-09 -3.45488525991937e-12 7.09107521326902e-28 9.82792301333423e-09 4.20473862476254e-28 9.83517090598817e-09)
(1.40923826504821e-08 -5.58939451278693e-12 1.66785202014442e-27 1.40679928328702e-08 1.16612041796955e-27 1.40801609104182e-08)
(2.00971374812894e-08 -8.74082052409539e-12 3.108089301497e-27 2.00577530853376e-08 1.84551704206664e-27 2.00773836446004e-08)
(2.81226083810272e-08 -1.23550752419783e-11 -1.32397631662416e-27 2.80642535919571e-08 -1.19882915042607e-27 2.80933160659546e-08)
(3.90414865272641e-08 -1.49217410926032e-11 1.03203270474119e-28 3.89626507674013e-08 -8.23447746124062e-30 3.90019281155726e-08)
(5.29876353859237e-08 -1.35470516543707e-11 7.52478041542297e-27 5.28971703345731e-08 5.36479991326181e-27 5.29423556294327e-08)
(6.77429852971587e-08 -5.52828177965781e-12 -1.34328363881094e-27 6.76732690617227e-08 2.1247034694886e-28 6.7708444630464e-08)
(7.87023437535233e-08 3.50334041626848e-12 2.33619491570002e-27 7.87053331062636e-08 -2.97037572626631e-28 7.87048715653426e-08)
(7.82909611876545e-08 -4.29461927025007e-12 -7.39510336151106e-27 7.83947805523516e-08 -8.21795799641091e-27 7.83444184138763e-08)
(5.99558534383628e-08 -2.99922377420019e-11 -3.77059028242852e-27 6.00852839963072e-08 4.24712145481255e-28 6.00220125356646e-08)
(3.52049089521769e-08 -4.01173787471088e-11 -2.23205849532927e-27 3.52699558400422e-08 -7.28947429346144e-27 3.52380168039924e-08)
(2.39518225817955e-08 -3.06022490276048e-11 5.25117343376822e-28 2.39592446310438e-08 -7.76536758337034e-28 2.39558533694464e-08)
(3.31883774917091e-08 -2.93709345967103e-11 -2.07919936594241e-28 3.31862001501484e-08 1.45513826902305e-28 3.31873104458006e-08)
(5.46077336285343e-08 -3.13675941247744e-11 1.02400361804174e-29 5.46023218524653e-08 -1.90117707174616e-28 5.4605311217486e-08)
(8.54084061335273e-08 3.67190615625165e-12 -1.74006000627801e-29 8.53946447011731e-08 4.48231169630128e-28 8.54017809905803e-08)
(1.30124516554314e-07 1.15349515358362e-10 4.53983935885167e-25 1.30095629586692e-07 -6.41938565969377e-26 1.30110655142847e-07)
(1.91526804678096e-07 3.74537067322903e-10 8.89972426030709e-25 1.91474448519215e-07 -2.74125913501011e-24 1.9150159678941e-07)
(2.70726477668837e-07 8.54299486476878e-10 -4.70082319754751e-25 2.7064331120345e-07 -2.72322707649392e-24 2.70686670962217e-07)
(3.67214805736732e-07 1.61991533432777e-09 -1.31231657679752e-24 3.6709655759624e-07 1.728353649124e-25 3.67158519152147e-07)
(4.79063594663414e-07 2.70651738471149e-09 1.55547311134453e-40 4.78909736952879e-07 -5.08353077341257e-40 4.78990965089508e-07)
(6.037727328652e-07 4.12208898832004e-09 2.16280824675484e-24 6.03585667384798e-07 -2.58142809632673e-25 6.03685255841714e-07)
(7.38770985606426e-07 5.8510270711632e-09 6.06939196259075e-24 7.38554679069193e-07 -8.05004048194009e-24 7.38670976284311e-07)
(8.81848883631668e-07 7.86634443056585e-09 1.37512482271334e-24 8.81607730566137e-07 -6.74799987826667e-24 8.81738799610839e-07)
(1.03121782455847e-06 1.01358974146997e-08 -3.82598091587978e-24 1.03095600049901e-06 4.25158667047773e-25 1.03109999048351e-06)
(1.18550710564771e-06 1.26278114306081e-08 -1.45649772954132e-28 1.18522833740468e-06 2.48191081528377e-27 1.18538355485633e-06)
(1.34365775623217e-06 1.53118419351381e-08 -2.45545381595217e-28 1.34336532019512e-06 -4.02102981105161e-27 1.34353024559444e-06)
(1.50484548299534e-06 1.81601823233292e-08 4.62831079965794e-28 1.50454230204758e-06 -4.1512051352934e-28 1.50471552867187e-06)
(1.66840151541194e-06 2.11470540095311e-08 -6.59750070011644e-24 1.66809027393846e-06 5.97315533131803e-25 1.66827045770934e-06)
(1.83376301070951e-06 2.42483739444596e-08 -2.09083879648804e-23 1.83344625946349e-06 1.63917338479036e-23 1.83363206521462e-06)
(2.00043300019592e-06 2.74412177948356e-08 -7.28128613534303e-24 2.00011323907777e-06 1.32299361599939e-23 2.00030330343507e-06)
(2.1679554816632e-06 3.07034513709341e-08 9.01483936757486e-24 2.1676352176734e-06 -7.39209954537139e-25 2.16782812208344e-06)
(2.33589775310899e-06 3.40134155788324e-08 4.94766387257293e-42 2.33557953843459e-06 -3.0388452228541e-27 2.33577379362548e-06)
(2.50383954590241e-06 3.73497271180436e-08 0 2.50352600148423e-06 -3.47836867735597e-27 2.5037200383498e-06)
(2.67136555394625e-06 4.06911437357541e-08 0 2.67105937954545e-06 3.69248816464622e-27 2.67125154746838e-06)
(2.83806266200128e-06 4.40165407795298e-08 0 2.83776663196065e-06 0 2.83795520343154e-06)
(3.00352189773197e-06 4.73050226003894e-08 1.62541316841541e-23 3.00323883390066e-06 -9.38859126842554e-25 3.00342202225386e-06)
(3.16734864439035e-06 5.0536228944248e-08 4.68203025890734e-23 3.16708137926205e-06 -3.09602110475115e-23 3.16725736292069e-06)
(3.32917823662547e-06 5.36907097112914e-08 1.28144809921543e-23 3.32892959036818e-06 -2.6753139869082e-23 3.3290965292226e-06)
(3.48869014457268e-06 5.67502382431016e-08 -1.98198514220887e-23 3.48846290556251e-06 9.7878225966612e-25 3.48861895701492e-06)
(3.64561257147801e-06 5.9697985559497e-08 2.64962693825407e-28 3.64540946536383e-06 2.61450001608442e-27 3.64555280550019e-06)
(3.79972968669654e-06 6.25187994992076e-08 -3.11960610782794e-28 3.79955333006763e-06 -3.43520086053599e-27 3.79968217795332e-06)
(3.95080938036622e-06 6.51982379806257e-08 2.55624665443435e-23 3.95066221321545e-06 -8.38079204041892e-25 3.95077486577391e-06)
(4.09989775883841e-06 6.77443239219762e-08 6.4878149993848e-23 4.09978202296412e-06 -4.33431747531944e-23 4.09987686743147e-06)
(4.24609469689539e-06 7.01340793159788e-08 1.12149607570272e-23 4.24601251437987e-06 -4.08950557393986e-23 4.24608799533956e-06)
(4.38796378264911e-06 7.23364009635402e-08 -2.95873811978667e-23 4.38791707228495e-06 7.30972044753333e-25 4.38797174904125e-06)
(4.52415579670911e-06 7.43232201131701e-08 3.90003629807903e-28 4.52414621430294e-06 -2.78029374260911e-27 4.52417878981434e-06)
(4.65368017851731e-06 7.60740711881807e-08 -2.35597034862976e-28 4.65370908272954e-06 3.79167507115867e-27 4.65371843039463e-06)
(4.77617353895821e-06 7.75804778350906e-08 4.34760974156561e-42 4.77624197206702e-06 -1.32463362453679e-27 4.77622715192451e-06)
(4.89130350342975e-06 7.88361329325485e-08 0 4.8914121865714e-06 -7.22688222922548e-28 4.89137245381223e-06)
(4.99876992946978e-06 7.98369082152487e-08 7.64457726282191e-29 4.99891925625102e-06 7.39495713248659e-28 4.99885406839465e-06)
(5.09830689383829e-06 8.05808618114639e-08 -3.42807832336197e-29 5.09849692609216e-06 -1.20733480979427e-28 5.0984059488688e-06)
(5.18968490868786e-06 8.10682250241285e-08 -1.23885387210678e-28 5.18991537865109e-06 1.23379575434532e-28 5.18979848779471e-06)
(5.27271254894991e-06 8.1301346991214e-08 8.06855696192673e-29 5.27298286837888e-06 -1.76157349083326e-27 5.27284014721404e-06)
(5.34723628109383e-06 8.12845855683273e-08 -3.57890387318392e-41 5.34754555561727e-06 5.47366803933101e-27 5.34737728922496e-06)
(5.4131394405515e-06 8.10241672529961e-08 -3.80817668238971e-28 5.41348648785132e-06 -3.74570977864968e-27 5.41329315471351e-06)
(5.47034059719873e-06 8.05280222547631e-08 2.09649838707649e-28 5.47072396974913e-06 -7.34562209551992e-27 5.47050623044378e-06)
(5.51879083499668e-06 7.98055869727678e-08 5.65380387409457e-28 5.51920884763746e-06 7.44670401989208e-27 5.51896753031454e-06)
(5.55846829077463e-06 7.88675585665694e-08 -3.91430456030141e-28 5.55891905040481e-06 -8.59170952651593e-27 5.55865513468279e-06)
(5.58937123867437e-06 7.77256346939658e-08 1.25036146588639e-38 5.58985267440902e-06 -2.06277678532267e-28 5.58956727463128e-06)
(5.61150972431605e-06 7.63922437582662e-08 8.76399358812328e-39 5.61201961787759e-06 -2.06529604099666e-28 5.61171396592758e-06)
(5.6248935281422e-06 7.48802426689074e-08 -9.15887006815186e-28 5.62542954224666e-06 9.16449873075631e-27 5.6251049708381e-06)
(5.62951917998278e-06 7.3202642989866e-08 -6.51770496623013e-23 5.63007887933054e-06 -3.21732076428931e-24 5.62973680942404e-06)
(5.62535531783527e-06 7.13723661279585e-08 -1.71778779790381e-22 5.62593618216463e-06 1.04167734489259e-22 5.62557811400913e-06)
(5.61233057487204e-06 6.94020907041883e-08 -7.84290983186911e-23 5.61293000014675e-06 2.46990668828045e-22 5.61255751099622e-06)
(5.59032412527527e-06 6.730419136534e-08 9.45955923606692e-23 5.59093941541817e-06 1.45231953943859e-22 5.5905541621558e-06)
(5.55916052491094e-06 6.50907669954571e-08 6.63342545437665e-23 5.55978887798407e-06 4.05692538087484e-24 5.55939260282842e-06)
(5.51860655027551e-06 6.27737052131128e-08 1.0782561405034e-27 5.51924504735024e-06 5.559316340029e-26 5.51883958323854e-06)
(5.46836206457767e-06 6.03646465640377e-08 -4.46583000642282e-27 5.46900767155841e-06 -1.75814564404684e-26 5.46859493925572e-06)
(5.40803720632312e-06 5.78748015125331e-08 -7.23020446075527e-23 5.40868676977269e-06 -5.65390903174535e-24 5.40826877939326e-06)
(5.33711980829634e-06 5.5314744590023e-08 -1.0187957790759e-22 5.33777003755764e-06 1.31146521088122e-22 5.33734889725692e-06)
(5.25494489737813e-06 5.26943290285765e-08 4.13970896156232e-23 5.25559232718464e-06 1.73636762554198e-22 5.255170262259e-06)
(5.16066753597125e-06 5.00227493065765e-08 6.88974829732202e-23 5.16130846490352e-06 5.98170606480848e-24 5.16088785090878e-06)
(5.05325440802742e-06 4.73088600891432e-08 4.03548554998283e-27 5.05388482426891e-06 7.07584667747722e-28 5.05346822594895e-06)
(4.93150070529067e-06 4.45617351793505e-08 -1.62525201434171e-27 4.93211620321583e-06 -4.56472050874455e-27 4.93170641890145e-06)
(4.79408882808344e-06 4.17915126976648e-08 -2.3431855632496e-27 4.79468453683283e-06 -1.73513371955039e-26 4.79428463647872e-06)
(4.63971674227018e-06 3.90105664848936e-08 1.89977883191573e-27 4.64028729132706e-06 2.20353415616648e-26 4.63990062965129e-06)
(4.46731218181892e-06 3.62349713069467e-08 -6.93459622352533e-41 4.46785172196159e-06 -4.25921508595197e-26 4.46748193033902e-06)
(4.27641354063285e-06 3.34864801866896e-08 -1.87904089127925e-27 4.27691591040002e-06 2.04274658766877e-26 4.27656678281845e-06)
(4.06765091984322e-06 3.07944082053687e-08 1.51600235028123e-27 4.06810990328259e-06 -1.54085596762143e-26 4.06778527769125e-06)
(3.8435704086643e-06 2.81985418889648e-08 5.41105125693099e-27 3.8439803203608e-06 1.54081468217703e-26 3.84368366677683e-06)
(3.6093079757969e-06 2.57505253484512e-08 -4.38489593428944e-27 3.6096641651897e-06 6.50023806658079e-26 3.60939841142711e-06)
(3.37400388804356e-06 2.35183552547223e-08 -3.46932325413762e-27 3.37430402919534e-06 -2.66056184329211e-26 3.3740705491921e-06)
(3.1508771819237e-06 2.15844246484928e-08 -9.57935434323237e-29 3.15112167438669e-06 3.28749487515275e-28 3.15092039237727e-06)
(2.95937851023467e-06 2.00538838869865e-08 2.40066277246143e-27 2.95957497635766e-06 -2.34031668136805e-26 2.95940117063286e-06)
(2.82148022201077e-06 1.90194121896111e-08 2.97353505890833e-27 2.82164939372387e-06 -7.08916318996325e-27 2.82149344082153e-06)
(2.7667174072621e-06 1.85482295299509e-08 -2.58047740708153e-27 2.76690570688733e-06 -3.71716743043686e-28 2.76673436712636e-06)
(2.78923964126076e-06 1.8422681169288e-08 -9.79094201485126e-23 2.78960291357056e-06 -1.49408249799409e-23 2.78935649287406e-06)
(2.8311961293012e-06 1.7055741949875e-08 -1.16963135191275e-22 2.83216976313583e-06 2.23992834344569e-22 2.83161827230494e-06)
(2.4425711597596e-06 1.11363761191738e-08 5.32474156224955e-23 2.44714524538825e-06 2.98686550414003e-22 2.44479071854351e-06)
(1.58455566274304e-06 4.34573664430564e-09 5.36340226115851e-23 1.59197244613114e-06 8.60262224114797e-24 1.58828469594343e-06)
(1.28346594590641e-06 1.99101570907562e-09 -7.05153487091993e-27 1.2915318515558e-06 1.11614396407579e-26 1.28751894742098e-06)
(1.29615797542363e-06 7.04715866592704e-10 -1.91017837528471e-25 1.30518683921644e-06 -5.07697921041989e-26 1.30070368214375e-06)
(1.41228027269905e-06 -3.07474929274577e-10 1.32670654974869e-24 1.42209921401651e-06 -1.20358182868534e-24 1.41723982101527e-06)
(1.60939833489305e-06 -1.13677515400736e-09 -1.55412302908021e-24 1.61992351920427e-06 1.57647182344877e-24 1.61473442106555e-06)
(1.88016670019109e-06 -1.74724271582856e-09 -3.40834554320497e-24 1.89118568928628e-06 2.45015516368377e-24 1.88577315059654e-06)
(2.19106439739e-06 -2.07623046257673e-09 1.49452590585823e-25 2.20191590063364e-06 2.0164575551721e-26 2.19660883572809e-06)
(2.53984881826055e-06 -2.05165651384404e-09 -8.36953906820006e-25 2.54953104382814e-06 5.82797617964355e-25 2.54481744474368e-06)
(2.85374781545461e-06 -1.57632614318658e-09 -1.42104313668318e-26 2.86076169938164e-06 1.90479338957241e-26 2.857373755063e-06)
(3.02326023770596e-06 -7.12863664359385e-10 -3.10629776454286e-24 3.02606631839408e-06 2.00180706948124e-24 3.02474948134066e-06)
(3.01179384821419e-06 3.01350579036423e-10 -2.32898026874412e-24 3.01002448014055e-06 1.26992295525516e-24 3.0109557053781e-06)
(2.91413077908308e-06 1.31484327644628e-09 1.71156317909081e-27 2.90819985702133e-06 -1.04953518474736e-27 2.91116374405076e-06)
(2.76080648060222e-06 2.19520832530152e-09 -1.41672751287653e-24 2.75176073203676e-06 8.59761563658423e-25 2.75625012479397e-06)
(2.77024778378609e-06 3.23497506435442e-09 -1.25860693738657e-24 2.75772288333812e-06 7.01186382778355e-25 2.76390052256513e-06)
(3.07181491928322e-06 4.82910708167426e-09 -2.98794881191513e-25 3.05315010537762e-06 2.79307360163764e-25 3.06232877632786e-06)
(4.10339816314364e-06 8.42414553280946e-09 1.25977527719764e-24 4.06734616082125e-06 -7.56530620481548e-25 4.08498758272174e-06)
(6.85562069232855e-06 1.67597111955385e-08 1.41615341889863e-24 6.76204600043671e-06 -4.59826722258204e-25 6.80777293900762e-06)
(1.89520768312439e-05 3.58759325674047e-08 1.48597206437946e-24 1.84619185974827e-05 1.62611869317967e-24 1.86998412737232e-05)
(3.44455612783404e-05 -2.67508388757541e-07 8.58035458358082e-25 3.27094767995923e-05 -1.14877194057338e-24 3.35543220375541e-05)
(1.680342679716e-05 -4.41114573600381e-07 5.471704807715e-26 1.62808351824745e-05 -8.49673358767592e-28 1.65403984059863e-05)
(7.83930812466562e-06 -8.0247614554358e-08 0 7.82215206627036e-06 0 7.82997127934267e-06)
(0.000201638878235573 -1.10220223684491e-05 4.42965566651999e-27 0.000201022430436978 3.1282618450979e-28 0.000201126937473817)
(8.60630145270715e-05 -2.73293611940416e-06 -4.08095519070788e-25 8.8079637465453e-05 -5.4523838770761e-27 8.71024132664721e-05)
(1.592388540145e-05 -1.12733894729089e-08 -6.77490874642931e-23 1.55891300846943e-05 3.0639525206729e-24 1.57634414462316e-05)
(3.92230461198051e-06 -1.2193107195572e-08 -1.99916844242569e-23 3.79300949319123e-06 2.95828815635947e-22 3.85853171079864e-06)
(4.74950945850629e-06 -1.22043906636018e-08 1.38068266455902e-22 4.67287974217863e-06 2.30251063630957e-22 4.71174771564287e-06)
(1.30644583286473e-06 -2.81888464691225e-09 4.81489479731066e-24 1.29376923974766e-06 -3.9700722978977e-26 1.30017643859351e-06)
(2.52123850613474e-07 -4.6377927812046e-10 -5.64341592285342e-26 2.5030758393012e-07 -3.32379008805908e-26 2.51223226288134e-07)
(1.40901974361055e-07 -2.33159190635439e-10 8.32535512416623e-26 1.40014357954587e-07 5.70893642059324e-26 1.40460184931529e-07)
(1.66703706600718e-07 -2.76090779112571e-10 9.52600126225941e-26 1.65634384721926e-07 7.58407335407959e-26 1.66170786982562e-07)
(2.25596629317087e-07 -4.09059650365942e-10 -1.84221896210815e-25 2.23962682673585e-07 -1.40625288978703e-25 2.24781107905392e-07)
(3.15670057153744e-07 -6.38851959790903e-10 -3.10624311959644e-25 3.13028014004354e-07 -2.29929587925463e-25 3.14351361400855e-07)
(4.51454724928416e-07 -1.0256189529888e-09 -2.58410563391895e-25 4.47066377313066e-07 -2.46070304592351e-25 4.49265864464951e-07)
(6.44126909079633e-07 -1.5775315967992e-09 -7.08767813288361e-26 6.37100178524754e-07 -2.57920284709121e-26 6.40626013068415e-07)
(9.0202158662618e-07 -2.17698338013811e-09 -7.0346706308839e-25 8.91610160441904e-07 -3.32099664171025e-25 8.96836822929995e-07)
(1.2526072681415e-06 -2.53317268885302e-09 1.5292817306996e-25 1.23832124750212e-06 -2.21075348968956e-26 1.24548911535201e-06)
(1.70304726643076e-06 -2.09008935790126e-09 -1.35599579091785e-24 1.68576122276362e-06 -9.79212210818203e-25 1.69440822916988e-06)
(2.18518422962392e-06 -2.64726104449281e-10 1.76852296596307e-27 2.16921336960638e-06 -2.88333130577435e-28 2.17712009477288e-06)
(2.55382361011091e-06 2.18927669666504e-09 3.33675930465642e-24 2.54704461324914e-06 3.8112426968162e-24 2.55023161285373e-06)
(2.56442957729271e-06 2.03489651508508e-09 1.27788593250979e-24 2.57307944081315e-06 1.46720800482751e-24 2.56843844929018e-06)
(1.98676420367398e-06 -2.24472747945151e-09 7.17160888767277e-25 2.0027882877593e-06 -8.23755939987148e-26 1.99456208800553e-06)
(1.16892175700123e-06 -5.15399782885072e-09 4.49046612151531e-25 1.17782084595913e-06 1.35349247077268e-24 1.17324602124455e-06)
(7.84495170515212e-07 -4.03538272947787e-09 1.68929598536945e-26 7.848787556813e-07 1.06251747398579e-25 7.84671768879991e-07)
(1.08646996437188e-06 -2.47712263059433e-09 6.01290312369324e-26 1.08494380284658e-06 -3.00139580689344e-26 1.08563923657326e-06)
(1.78476317855622e-06 1.1585466529312e-09 4.17060214976231e-28 1.78111417900175e-06 6.88639554124583e-27 1.78292524567782e-06)
(2.79017929142979e-06 1.42557147340628e-08 5.89529401047264e-28 2.78152525199664e-06 2.86263352980594e-27 2.78578267492356e-06)
(4.2481749438012e-06 4.55118607524938e-08 -1.3134402765871e-22 4.23109415613858e-06 1.83748577056737e-23 4.23957002208188e-06)
(6.24798908165371e-06 1.07223541635755e-07 -2.2130255715544e-22 6.21869114088264e-06 -1.11003156551309e-21 6.2332143384096e-06)
(8.82350528473866e-06 2.10615520280779e-07 1.86792956047558e-22 8.77932465293753e-06 -1.66949766854195e-21 8.80121874471305e-06)
(1.19565145379413e-05 3.63740023078174e-07 3.47005980093295e-22 1.18965563219319e-05 -4.58479649900482e-23 1.19261772824489e-05)
(1.55831334545616e-05 5.69167988822069e-07 -2.86051787742545e-38 1.55083693069919e-05 1.84122989872244e-25 1.55451642291871e-05)
(1.96217763280505e-05 8.25191804052478e-07 -5.69336330660205e-22 1.95343524359641e-05 6.81801741077569e-23 1.95771547199395e-05)
(2.39890784190402e-05 1.12712168111307e-06 -1.30389618558921e-21 2.38916365444256e-05 -4.36560154269852e-21 2.39390576919656e-05)
(2.86137783740305e-05 1.46919397776659e-06 2.034613183508e-23 2.85089198085896e-05 -5.57025622173052e-21 2.85595965434343e-05)
(3.34383330863349e-05 1.84546622886685e-06 9.40674797210228e-22 3.33283890076264e-05 -1.04898622928005e-22 3.33811146612603e-05)
(3.84187398627643e-05 2.25042884407032e-06 2.63850681372987e-26 3.83057026570175e-05 -1.87390631146437e-25 3.83594517752922e-05)
(4.35210247659788e-05 2.6790833387133e-06 -1.35399515263251e-25 4.34065833620137e-05 4.53098449808514e-25 4.3460498029083e-05)
(4.87187582601388e-05 3.12695377171175e-06 -4.30741273580494e-26 4.86043567299377e-05 -2.72813444929003e-25 4.86577132190783e-05)
(5.39904955994778e-05 3.5899731644465e-06 1.61950548946121e-21 5.38773965713826e-05 -1.4663985015171e-22 5.39295742137442e-05)
(5.93181910576289e-05 4.06439910491069e-06 4.26910262690515e-21 5.92075271982427e-05 1.1954814125344e-20 5.92579809170309e-05)
(6.46859123114383e-05 4.54672114039268e-06 7.82033000513095e-22 6.45787265466728e-05 1.40291455311861e-20 6.46269664179252e-05)
(7.00790465583138e-05 5.03359925442096e-06 -2.11052828102615e-21 6.99763196574659e-05 1.74183448108779e-22 7.00218962398454e-05)
(7.54837359042958e-05 5.52181646644902e-06 -2.85765988453871e-25 7.5386405189284e-05 -4.64828517478774e-25 7.54288996590525e-05)
(8.08865314477437e-05 6.00825063777911e-06 -1.04145796166384e-26 8.07955024289877e-05 -3.37267272858085e-26 8.08345200696538e-05)
(8.62741552394797e-05 6.4898575457651e-06 2.55795621237058e-25 8.61903070514642e-05 1.84143820843166e-26 8.62254739681185e-05)
(9.16334138248909e-05 6.96367076435627e-06 -1.37077825582541e-25 9.15575981606905e-05 -6.1211022303989e-25 9.15885610030558e-05)
(9.69512624501688e-05 7.4268175954391e-06 -3.83335455834171e-21 9.6884295704278e-05 2.21507920091652e-22 9.69107248943816e-05)
(0.000102215132242285 7.87655800524166e-06 -9.46778104136142e-21 0.000102157786716066 -2.83430489331289e-20 0.000102179380102308)
(0.000107413427619777 8.31033468938918e-06 -1.31611589665492e-21 0.000107366427988328 -3.17133277491327e-20 0.000107382911612727)
(0.00011253597969944 8.72581564084432e-06 4.54824176959936e-21 0.000112500001366675 -2.24614055549439e-22 0.000112511129145796)
(0.000117574191817384 9.12091250925201e-06 -7.44214552729698e-26 0.000117549857611486 -1.20730724372736e-26 0.000117555410065013)
(0.000122521285123236 9.49381065508765e-06 -5.54770471292747e-26 0.000122509155285402 -5.06028694011561e-25 0.000122508940954828)
(0.00012736973863273 9.84276945929692e-06 -5.94890286920807e-21 0.000127370280080658 1.95899365904144e-22 0.00012736414984665)
(0.00013215376932558 1.016938653834e-05 -1.3203941170927e-20 0.000132167313723236 -4.40419139817072e-20 0.000132155196767778)
(0.000136844478907261 1.04708124048618e-05 -6.35161252260275e-22 0.000136871276306971 -4.78996199833384e-20 0.000136853151690056)
(0.000141368660440754 1.07409000686947e-05 6.79085401801026e-21 0.000141408883960982 -1.67312259255214e-22 0.00014138476082349)
(0.000145687043506967 1.0976367400261e-05 -1.27335848967616e-25 0.000145740738408121 -7.31995269719145e-25 0.000145710683158913)
(0.000149790534053925 1.11764599262179e-05 2.02391495654486e-25 0.000149857636871578 2.38350293827876e-26 0.000149821763742399)
(0.000153668072503618 1.13404913743343e-05 -1.44564379318797e-25 0.000153748414933603 1.85546501503641e-25 0.000153706884251851)
(0.000157309567811934 1.146806712325e-05 2.61038620249258e-26 0.000157402877281786 -2.02734226241272e-25 0.000157355893952196)
(0.00016070594633749 1.15590814094957e-05 2.01121524295126e-26 0.000160811849466021 4.87714664993503e-27 0.000160759660474232)
(0.000163849213131707 1.16137126045004e-05 -2.00288801178328e-26 0.000163967239891197 -1.73372724785361e-26 0.000163910131627739)
(0.000166732512194747 1.16324157827865e-05 8.36467059819229e-28 0.000166862101965793 -2.18495044624976e-25 0.000166800396698965)
(0.000169350168598089 1.16159107786367e-05 6.02896236441482e-26 0.000169490678057297 2.29575958808469e-25 0.000169424729648732)
(0.000171697676030607 1.1565164184465e-05 8.52501241208474e-26 0.000171848388204175 3.58029065939065e-26 0.000171778577382994)
(0.000173771660049132 1.14813680612964e-05 -2.99878605463166e-25 0.000173931794171175 -2.89366669497982e-26 0.000173858523566705)
(0.000175569820478315 1.13659160773029e-05 9.13056735966736e-26 0.000175738542835343 1.15066849970019e-24 0.000175662231653629)
(0.000177090838954766 1.12203764661416e-05 -1.64260072456963e-26 0.000177267274592657 -1.16244942768651e-24 0.000177188352964624)
(0.000178334203699028 1.10464599702896e-05 -2.60690787838559e-25 0.000178517448088117 -1.2585057556532e-24 0.000178436351555606)
(0.0001792999903187 1.08459867327257e-05 1.93363091625141e-25 0.000179489120459386 1.21433888528541e-24 0.000179406284825336)
(0.000179988597038724 1.06208526921967e-05 2.15372025582126e-25 0.000180182681792597 7.30656463850257e-27 0.000180098538416558)
(0.000180400364558387 1.03729933559955e-05 3.81880252246747e-25 0.000180598473151814 1.38726768021915e-24 0.000180513445118295)
(0.000180535176373411 1.01043519116103e-05 1.53651004529722e-20 0.000180736383538822 7.59061882683565e-22 0.00018065088356288)
(0.000180392002715842 9.81685167604076e-06 3.88446770513144e-20 0.000180595390118283 1.10640717176121e-19 0.000180509820144466)
(0.000179968533517795 9.51238033027871e-06 1.50306811367977e-20 0.000180173186787808 2.21189724472001e-19 0.000180087939780098)
(0.000179260889201761 9.19278463787305e-06 -2.46476759352439e-20 0.000179465891806119 1.0998297608835e-19 0.000179381354987039)
(0.000178263462526773 8.85987520094393e-06 -1.61862448992547e-20 0.000178467888534566 -9.99136891089894e-22 0.000178384447121127)
(0.000176968814540165 8.5154335390839e-06 7.40423960663193e-25 0.000177171723297762 -6.17193884629514e-24 0.000177089763460355)
(0.000175367357804467 8.16120795399657e-06 -4.71114233654783e-25 0.00017556779204528 3.14468932847752e-24 0.000175487701807543)
(0.000173446640874905 7.79889345712467e-06 1.74241513873029e-20 0.00017364362209186 1.36565093027305e-21 0.000173565793726675)
(0.000171190323469394 7.43010907034066e-06 2.3457659926001e-20 0.000171382841518321 1.21165911338558e-19 0.000171307676540814)
(0.000168577225444069 7.05639029942353e-06 -1.15258396913731e-20 0.000168764220743671 1.16543767488276e-19 0.000168692138314389)
(0.000165580487068525 6.67919740147357e-06 -1.73538787094965e-20 0.000165760824859555 -1.4995966432953e-21 0.000165692274131032)
(0.000162167299201225 6.29995193964804e-06 -1.50209054930474e-24 0.000162339739764369 3.02843506106255e-24 0.000162275213900344)
(0.000158299436898405 5.92009814839591e-06 -1.97740952832886e-25 0.000158462604624777 -3.3903458394629e-24 0.000158402655645725)
(0.000153935085074054 5.54119198999806e-06 9.95167050793747e-25 0.000154087444322651 5.48238558563409e-26 0.00015403269504629)
(0.000149032838769557 5.16502437559254e-06 -8.41386689665427e-25 0.000149172686141564 -2.71244595535768e-27 0.000149123833939069)
(0.00014355844010824 4.79376740329721e-06 -2.92109393146266e-25 0.000143683923881338 2.81402960925548e-24 0.000143641734608786)
(0.000137496648723728 4.43018287360894e-06 1.06754514007533e-24 0.000137605840891719 2.41896341750809e-25 0.000137571113793432)
(0.00013086656877705 4.07780017134072e-06 -4.45428335369455e-25 0.000130957585582891 2.82772296654282e-24 0.00013093110860607)
(0.000123747367639871 3.74125488353835e-06 8.98660891809872e-25 0.000123818586511422 -2.61405040880187e-24 0.000123801025028923)
(0.000116300538069011 3.42638443590545e-06 2.23442873759663e-25 0.00011635082948596 -4.99304813736401e-24 0.000116342661264621)
(0.000108813511654554 3.14085539109152e-06 -7.85051884811666e-25 0.000108842646976681 4.81282819234983e-24 0.000108843926906203)
(0.000101705033602408 2.89378278136813e-06 -2.70349360312134e-27 0.000101714035981984 2.28658253290779e-27 0.00010172434402397)
(9.55867157199549e-05 2.69669813618681e-06 -7.35214978620116e-25 9.55794498584898e-05 4.3543419121237e-24 9.55970091747664e-05)
(9.1145444354422e-05 2.55906959182328e-06 -1.67839774614977e-25 9.11311808617787e-05 -4.45447501676795e-24 9.11521290459574e-05)
(8.92719157945751e-05 2.48943206479147e-06 -2.18149352710467e-26 8.92740226903362e-05 4.76326126304854e-24 8.92853830892058e-05)
(8.97132115097061e-05 2.44005641185508e-06 2.47600081182355e-20 8.98019230239643e-05 3.77034040176212e-21 8.97760971057056e-05)
(9.03284124797457e-05 2.27617163452182e-06 3.01647153744843e-20 9.06486540788363e-05 1.71136084286488e-19 9.05074700478475e-05)
(7.76175296616888e-05 1.68065475801955e-06 -3.0519842935328e-20 7.85390310923841e-05 1.39097379119906e-19 7.80727946350794e-05)
(5.07951258166496e-05 7.66212680924622e-07 -1.4682527589729e-20 5.21450315717272e-05 -2.36017985472921e-21 5.14717934406129e-05)
(4.13966944385146e-05 3.53920737536893e-07 3.06305293194301e-22 4.27812382467071e-05 -4.87303104596339e-22 4.2086165520744e-05)
(4.20630312100491e-05 1.23656761591504e-07 3.23172618825328e-22 4.35541057963421e-05 -3.72965879598247e-22 4.28029866488939e-05)
(4.60583700228548e-05 -5.20961185955432e-08 -1.92987148746421e-22 4.76139489997699e-05 2.35080517947469e-22 4.68276723923398e-05)
(5.26522163869778e-05 -1.90474624305121e-07 3.96193630575245e-23 5.42411874554598e-05 3.0418190155088e-23 5.34342206384362e-05)
(6.15568686988957e-05 -2.88521354352676e-07 2.01870023624447e-22 6.31321688485492e-05 -1.75607978397826e-22 6.23274591786048e-05)
(7.17481272035224e-05 -3.38602217315584e-07 -4.82797456878508e-22 7.32016390377569e-05 2.4652233527442e-22 7.24545168120386e-05)
(8.30874689165327e-05 -3.31453318893535e-07 5.89837774887027e-22 8.42655081834405e-05 -3.97532645658365e-22 8.36541075685342e-05)
(9.31765093929751e-05 -2.52751342746567e-07 4.75706191150749e-22 9.38708292867164e-05 -2.66437811558862e-22 9.35032047078794e-05)