/*--------------------------------*- C++ -*----------------------------------*\
  =========                 |
  \\      /  F ield         | OpenFOAM: The Open Source CFD Toolbox
   \\    /   O peration     | Website:  https://openfoam.org
    \\  /    A nd           | Version:  7
     \\/     M anipulation  |
\*---------------------------------------------------------------------------*/
FoamFile
{
    version     2.0;
    format      ascii;
    class       volVectorField;
    location    "20000";
    object      U;
}
// * * * * * * * * * * * * * * * * * * * * * * * * * * * * * * * * * * * * * //

dimensions      [0 1 -1 0 0 0 0];

internalField   nonuniform List<vector> 
15600
(
(0.0101148451997806 -0.000712708895554769 0)
(0.0219910882568919 -0.00548391840055231 0)
(-0.0196970183711469 0.0131040396075662 1.95656600959437e-19)
(-0.0183383635830023 0.0200455650400508 1.14110471271638e-20)
(-0.00747891858195634 0.0101199277330654 0)
(-0.00407542827963563 0.00618993744041237 -1.15747767640405e-18)
(-0.00275086609548981 0.00443864101349936 -1.27091424261938e-18)
(-0.00217843416277397 0.00357414352689503 1.40316756268088e-18)
(-0.00202564154752951 0.00329446098845033 -1.54826722104006e-18)
(-0.00214553755139255 0.0034174023869828 -1.69425125444533e-18)
(-0.0023422774865546 0.00366368901748109 -1.84006182241894e-18)
(-0.00261785115658477 0.00401543477170427 7.72810890598078e-21)
(-0.00284054629189411 0.00428652796612142 -8.27963977577235e-21)
(-0.00287371630630575 0.00426118787982488 -2.26586547614842e-18)
(-0.00263729414009049 0.00379200807764996 0)
(-0.00204793668041613 0.00282355799616594 -2.66287030978843e-18)
(-0.00101376029130282 0.00138290598407929 0)
(0.00041835333409947 -0.000224681866422113 0)
(0.00205112305914384 -0.00150181998400912 -3.54771068183605e-18)
(0.00332641635997988 -0.0018470268703159 1.52710824806483e-20)
(0.00396379348520901 -0.00127342111442571 2.10413159479427e-18)
(0.00356507690486469 -0.000194609435403153 -5.44025649018016e-19)
(0.00273864451861037 2.36044812406348e-05 1.70247154169276e-20)
(0.00221813402794236 2.03548982051395e-05 -1.70394587967424e-20)
(0.000883655019992817 1.56503004602873e-05 0)
(-0.00102568658341228 2.00646936087786e-05 3.11041884130522e-32)
(-0.00357109250531231 2.88556892129347e-05 -2.91800560090396e-16)
(-0.00652986592822237 4.28058527454243e-05 -2.98912105911606e-16)
(-0.00972028205588202 5.81053846079822e-05 0)
(-0.0129401871229298 7.35292994503603e-05 -3.03362217991812e-32)
(-0.0160606531606474 8.76308038770723e-05 0)
(-0.018999340299592 0.000100136067236924 -2.99616652159031e-16)
(-0.0217219763965493 0.000110864945333245 -3.10322174685202e-16)
(-0.024219849140368 0.000119919304025317 1.55408937433463e-32)
(-0.0265005537149821 0.00012738168519995 -8.78474965170778e-21)
(-0.0285781292288945 0.000133370956733588 1.77308929955873e-20)
(-0.0304690636650235 0.000137981838886508 -8.9481889585176e-21)
(-0.0321894397504556 0.000141306392086871 6.76940626932909e-32)
(-0.0337539821332791 0.000143423039217467 3.3071944800461e-16)
(-0.0351755570934375 0.000144402908194888 3.47769624019918e-16)
(-0.0364651835393247 0.00014430930786532 0)
(-0.0376321617739138 0.000143200267986851 0)
(-0.0386842866384467 0.000141128670727589 0)
(-0.0396280586151066 0.000138143566110733 0)
(-0.0404688963229121 0.000134290354111147 0)
(-0.0412113615739885 0.000129614354541636 0)
(-0.0418593963891761 0.000124163318003285 -4.52590998547916e-16)
(-0.0424164745778101 0.000117985079100996 -4.75129045544252e-16)
(-0.0428856708507614 0.000111127203471593 2.47434693700284e-22)
(-0.0432697300079589 0.000103638569187523 -6.86611367351357e-21)
(-0.0435711892874855 9.55700294305942e-05 1.0545029969024e-31)
(-0.0437925531147452 8.69761408419974e-05 5.4624322075558e-32)
(-0.0439364886959981 7.78937293381617e-05 -5.41101794057429e-16)
(-0.0440056246222094 6.83658337038556e-05 -5.63900101113805e-16)
(-0.0440024843220336 5.84546469867194e-05 4.23366364148284e-21)
(-0.0439297098381578 4.82164137194211e-05 -4.23377931045532e-21)
(-0.043789970896925 3.77068954187613e-05 0)
(-0.0435860085541327 2.69774001666713e-05 0)
(-0.0433206030165136 1.60772664111195e-05 0)
(-0.0429965755500585 5.0545382658277e-06 0)
(-0.0426167937133189 -6.0439293612494e-06 -1.27891451058075e-21)
(-0.0421841742171546 -1.71728440460109e-05 1.27970469444273e-21)
(-0.041701677062608 -2.82888543913947e-05 0)
(-0.0411722950275168 -3.93508414872734e-05 0)
(-0.0405990419127167 -5.03200353372375e-05 0)
(-0.0399849393357174 -6.11601935161343e-05 5.88320581566573e-21)
(-0.0393329987942534 -7.18378765902944e-05 -5.88902478515979e-21)
(-0.038646200981204 -8.23225109737812e-05 0)
(-0.0379274765754943 -9.25863462419397e-05 0)
(-0.0371796875232211 -0.000102604426155228 -1.87075059698952e-31)
(-0.036405607804175 -0.00011235460773403 0)
(-0.0356079118617062 -0.000121817035253736 1.36166340472555e-20)
(-0.0347891735002524 -0.000130973909887633 9.68195294389408e-16)
(-0.0339518785357102 -0.000139808713182999 1.96737885822151e-15)
(-0.0330984548920418 -0.000148305705033785 9.97807285524283e-16)
(-0.0322313134186976 -0.000156449495929518 2.96467600204274e-20)
(-0.0313528941046538 -0.000164224812167138 -5.99268465832589e-20)
(-0.0304656899608833 -0.000171617896128443 3.02815327479336e-20)
(-0.029572258657151 -0.00017861608316627 0)
(-0.0286752560701441 -0.000185207527942164 1.11805346923599e-15)
(-0.0277774958045675 -0.000191380545580549 1.11645265682449e-15)
(-0.0268820592832515 -0.000197122310439626 3.25906935802884e-20)
(-0.0259924555046689 -0.000202418829259576 0)
(-0.0251128342828653 -0.000207254252318836 -3.4192126797344e-20)
(-0.0242482634043029 -0.000211611280008142 3.42415065007758e-20)
(-0.0234050382626068 -0.00021547362658958 0)
(-0.0225910755123029 -0.00021882407964863 0)
(-0.0218162292468682 -0.000221658328226735 0)
(-0.0210927313418579 -0.000223969485854219 3.67451032440331e-20)
(-0.0204351025425239 -0.000225803887837663 -3.67884332889018e-20)
(-0.0198606193487076 -0.000227179234621065 -7.53653018815184e-20)
(-0.0193874114538851 -0.000228311021767277 7.54339814223942e-20)
(-0.0190344917398299 -0.000229259051588346 0)
(-0.0188139821305472 -0.000230868274182167 7.79764600239472e-20)
(-0.018714313215024 -0.000233330034288524 -7.79993700877212e-20)
(-0.0186180787889726 -0.000241133304837766 0)
(-0.0184579926741054 -0.000253971871176907 0)
(-0.016866380952605 -0.000295190047343435 2.93547884527239e-15)
(-0.0122101945796013 -0.0011590613882854 2.88341816077571e-15)
(-0.00844164011529219 -0.00305494377393163 0)
(-0.00820843062027654 -0.00506141796759822 0)
(-0.0084255005860261 -0.0070339942080293 0)
(-0.0086057552454281 -0.00874138910187997 1.62383418571415e-17)
(-0.00865457626397994 -0.00998546640970073 0)
(-0.0084082454455925 -0.0104420436945741 -1.39532421379224e-17)
(-0.00774382212980864 -0.00997764336606313 0)
(-0.00653730366179328 -0.00850455138412089 -2.53275648489672e-17)
(-0.00473772593657488 -0.00603627651019302 -2.93565145550664e-20)
(-0.0023595831672979 -0.002753424282371 -2.35726953972606e-17)
(0.000292252879323673 0.000963768217639412 2.09662206956967e-21)
(0.00318395443266854 0.00510964339192414 0)
(0.00604465335095033 0.0094352987285981 0)
(0.00944146095188979 0.0146517060612335 0)
(0.0140856243754577 0.0214273934504377 8.04572859863069e-18)
(0.022377832912095 0.0319055642806186 1.67151641044944e-21)
(0.0373477760392992 0.0477141412670033 6.25367088178769e-18)
(0.0765754274168809 0.0785416276225747 -6.85000429124773e-20)
(0.166031325325485 0.108707286758335 1.01153284927132e-18)
(0.173333604427589 0.0412729967431518 0)
(0.0312014195609605 0.000270735440891001 0)
(0.0804511943776289 -0.00163067568772529 -1.61742140657506e-23)
(0.0736572584673446 -0.0159129654610408 1.59653047228142e-23)
(-0.039544909327029 0.0328400627866399 2.4245466303334e-19)
(-0.0475471859002314 0.0562181722076458 2.45885989714495e-16)
(-0.021352120009017 0.0300304689982417 2.70544131262831e-16)
(-0.0117834775675477 0.0185713393340178 8.88817666660406e-22)
(-0.00803210723464039 0.0133628377529013 -1.90605524022548e-21)
(-0.00642502439675316 0.0107674891187056 3.17918960386193e-21)
(-0.00599397392064443 0.00989573533012305 4.78300513612887e-18)
(-0.00631608935282741 0.010213168433097 7.12001167553255e-22)
(-0.006871474473156 0.0109137266731333 6.16850007623695e-21)
(-0.00761079082322709 0.0119026474770087 -3.04532968537917e-18)
(-0.00820485306812489 0.0126612376590967 -3.25733417959055e-18)
(-0.00832572077636304 0.0125933243292096 3.49639046470707e-18)
(-0.00780505950483456 0.0112916218189845 -7.26558644980615e-21)
(-0.00645953326103385 0.00860741026295415 0)
(-0.00405826103012952 0.00461372604658567 0)
(-0.000605843773027368 9.72281848141811e-05 -1.91954345484888e-20)
(0.00360533569684499 -0.00362484170004496 5.40078820396674e-18)
(0.00732855820480382 -0.00488051121684135 2.31068405103312e-20)
(0.00961666616279606 -0.0034939352137476 1.63664870378317e-21)
(0.00878957274261808 -0.000472137384331442 8.44542509123639e-19)
(0.00589090742678957 0.000145485263616589 -5.1406110687809e-20)
(0.00336728447127174 0.000250368202794018 5.19099048745719e-20)
(-0.00139946393193163 0.000398360798936074 -5.17831185773105e-20)
(-0.00780991751407811 0.000552394096999774 5.08035719246571e-20)
(-0.0157958456634743 0.000673827744352499 4.39427378204635e-16)
(-0.0246452072047602 0.000750837847703224 4.14054979127811e-16)
(-0.0338001744459447 0.000777522372621079 0)
(-0.0427447392161798 0.000765567406839857 4.19405677901082e-32)
(-0.051187218741675 0.000727987089637421 0)
(-0.0589739570274778 0.000677610395688545 4.14143896167707e-16)
(-0.0660674168446505 0.000622795191363043 4.01406416099882e-16)
(-0.0724854954247139 0.000568687777922119 -2.04445281354635e-32)
(-0.0782759391077254 0.000517712537228392 -1.14554715619351e-20)
(-0.0834943315614767 0.000470834339760905 1.13242577394327e-20)
(-0.0881959689495264 0.00042814382341483 1.18043208147006e-20)
(-0.0924308599146984 0.000389355341133474 3.50733214833612e-22)
(-0.0962426611159235 0.000354016689583743 -4.27808212673651e-16)
(-0.0996684723018665 0.000321646920433378 -4.29383809177814e-16)
(-0.102739505268821 0.00029179156135505 -1.29913617695054e-20)
(-0.10548185222214 0.000264048563759925 1.29102927395162e-20)
(-0.107917306226174 0.000238071298429696 1.37863130883129e-20)
(-0.110064093765588 0.000213568652915225 -1.37171098289072e-20)
(-0.111937555529964 0.000190301997302183 0)
(-0.113550791029354 0.000168089721130865 7.59476576008458e-21)
(-0.114915244210104 0.000146799033856123 5.63143678985524e-16)
(-0.116041076874596 0.000126323172345129 5.75162042479423e-16)
(-0.116937374057529 0.000106575248187917 0)
(-0.117612353855305 8.74904459393577e-05 0)
(-0.118073669591937 6.90258237926687e-05 9.00499225215574e-21)
(-0.118328774499339 5.11715379223716e-05 -8.99441628899212e-21)
(-0.118385567163245 3.39026656452276e-05 6.64014196251686e-16)
(-0.118252024955144 1.72145262678712e-05 6.82112728373937e-16)
(-0.117935415761116 1.1281564678883e-06 -5.15352165501656e-21)
(-0.117443420398266 -1.43415893315093e-05 1.04777680566574e-20)
(-0.116783833609305 -2.91886853639699e-05 -8.07690219454739e-21)
(-0.115964391964508 -4.34093920614863e-05 2.75213093854577e-21)
(-0.114992861071014 -5.69990704140842e-05 1.46615043877935e-21)
(-0.113877043412144 -6.99521855648698e-05 -1.46799133780709e-21)
(-0.11262479062658 -8.22617040166472e-05 1.5605631937536e-21)
(-0.111244006744814 -9.39206780943409e-05 -1.56355347588238e-21)
(-0.109742634229255 -0.000104923702382863 3.31648593760228e-21)
(-0.108128631293329 -0.000115267650478373 -1.01577125515658e-20)
(-0.10640994631504 -0.000124951846508016 6.8520622367998e-21)
(-0.104594488010636 -0.000133978746367313 7.2408754713905e-21)
(-0.102690087207559 -0.000142354969091878 -7.26509357959495e-21)
(-0.100704454980334 -0.000150091403419269 1.53178473211452e-20)
(-0.0986451448714279 -0.000157202988723168 3.66211803689001e-22)
(-0.0965195178943792 -0.000163708736512095 3.65212031918238e-22)
(-0.0943347116662679 -0.000169631436275946 -1.624040686103e-20)
(-0.0920976305149376 -0.000174995145752278 -1.70405818339291e-20)
(-0.0898149616855688 -0.000179823252057854 -1.20038634186937e-15)
(-0.0874932248582367 -0.000184134491168686 -2.47781120066621e-15)
(-0.0851388570609106 -0.000187940108623255 -1.27920467025255e-15)
(-0.0827583171006991 -0.000191242133855345 3.76304914460416e-20)
(-0.080358191157852 -0.000194034050938043 -3.78292109856229e-20)
(-0.077945257189579 -0.000196307099997287 0)
(-0.0755265406174677 -0.000198048034726463 0)
(-0.0731094266461107 -0.000199234641090579 -1.41432189361272e-15)
(-0.0707018453279799 -0.000199827878863016 -1.47488436304079e-15)
(-0.0683125717699329 -0.000199759527742633 -8.54737892230802e-20)
(-0.0659516413211582 -0.000198922251017881 -6.55249928903092e-22)
(-0.063630885962631 -0.000197155020119882 4.42459220184793e-20)
(-0.0613645995186219 -0.000194230262465528 0)
(-0.0591702793083861 -0.000189845565172629 -4.67088988298086e-20)
(-0.0570694803629596 -0.000183601007265627 9.46073892847591e-20)
(-0.0550885111581812 -0.000175031592461846 -4.79023707723515e-20)
(-0.0532591161484757 -0.000163548873077651 0)
(-0.0516181315552217 -0.000148635260458486 0)
(-0.0502072014631157 -0.000129597218435439 -1.02227723759597e-19)
(-0.0490680721508106 -0.000106448401878757 -1.12830249983433e-21)
(-0.048238502356005 -7.90702309201169e-05 -1.11316092193339e-21)
(-0.047730239030572 -5.18203167329354e-05 -1.103073979083e-21)
(-0.0474794197651289 -3.200714477289e-05 1.07124288756672e-19)
(-0.0472131409704525 -5.67485206169788e-05 0)
(-0.0464161838478152 -0.000173878945527548 1.10568844378293e-19)
(-0.0422814528019111 -0.000643373855493476 -3.88354011627025e-15)
(-0.032502038978778 -0.00349967674746637 -4.14625555747936e-15)
(-0.0245344615510775 -0.00915918670093329 1.17381793236234e-19)
(-0.023518599808286 -0.0147395846673705 -1.11673973665663e-19)
(-0.0232999523706791 -0.0201381919600638 2.04493248982412e-19)
(-0.0228179192626013 -0.0245684356882641 -9.33508743005926e-20)
(-0.0218858364057032 -0.0274957517892935 -2.21694549615887e-17)
(-0.0202546010370969 -0.0281602743069831 -2.0838923547484e-17)
(-0.0176998678938778 -0.0263003890931329 0)
(-0.0139771326442459 -0.0217496332862887 1.9113246083533e-17)
(-0.00901947810535233 -0.0146040109222744 1.94698603078212e-20)
(-0.00288325637337604 -0.00537450142510921 -4.70787925463999e-20)
(0.00379999683688523 0.00502261081569392 -1.7161509337927e-17)
(0.0109795560752791 0.016618591991598 1.56335326794401e-20)
(0.0181317596918134 0.0288697177487366 -1.48345350649464e-17)
(0.0265932819734181 0.0436891276980657 -1.34527983179006e-17)
(0.0381883463154069 0.0629164527439224 -1.21470087310504e-17)
(0.05845135830786 0.091984731284789 1.0750560287098e-17)
(0.0949092531821487 0.134647420982747 -1.0772100069223e-19)
(0.182843853217735 0.20962813754994 -1.82834900542978e-19)
(0.369350755443722 0.272705117830311 -1.17694830494735e-22)
(0.43206471806338 0.122386075380951 1.34066891685156e-22)
(0.173560137879226 0.00960657961148069 0)
(0.199331278724613 0.000230456646686779 -1.37648756077626e-23)
(0.139269371771938 -0.0259316845716889 4.65992788980339e-24)
(-0.0429274500768754 0.0416867050773062 -2.35766905257004e-19)
(-0.072769982593803 0.085636836862582 -2.5108924665847e-16)
(-0.0356390588870341 0.0485386513467988 -2.75852773014696e-16)
(-0.0198995651273242 0.0305582095013741 -1.82392046797959e-18)
(-0.0135696986227584 0.0221855631107537 0)
(-0.0108364588613277 0.0179681814270618 -2.24812342580223e-18)
(-0.0100509138222999 0.0165368256922469 -4.96440288760554e-18)
(-0.0105173118225359 0.0170231431258474 2.71361367747387e-18)
(-0.0113960429027581 0.0181512160355572 2.92504338399564e-18)
(-0.0125578668535175 0.0196971138895244 3.13157230860734e-18)
(-0.0135056563612322 0.0208542380083143 8.01447294343305e-21)
(-0.0137514435467369 0.0207213591454228 -6.94528581235411e-21)
(-0.0130633976956227 0.01869976852241 0)
(-0.011202024948395 0.0145970595791218 0)
(-0.00785828362566041 0.00855532996228523 0)
(-0.00300113113516673 0.00169972094628627 -5.02973690048317e-18)
(0.00309150458685991 -0.00410357562515415 -5.526057342193e-18)
(0.00885226760234322 -0.00643433401605498 -2.35201212248499e-20)
(0.0128213721568822 -0.00478519885780445 1.37111287509866e-21)
(0.0118163979640946 -0.000341631143835445 -8.32409368580631e-19)
(0.00640366043756565 0.000590635049505188 5.2437511681461e-20)
(0.000879204734685726 0.000900598605196298 -2.62332253941216e-20)
(-0.0081898184665807 0.00133891747657711 4.66053703032104e-32)
(-0.0198012310327483 0.00175034154214514 0)
(-0.0335007817204302 0.00204496928284361 2.33784364681897e-20)
(-0.0480478697366951 0.00219505538311023 -2.23995924648747e-20)
(-0.0625340991869997 0.0022066002176838 2.14999779612486e-20)
(-0.0762518226801197 0.0021207639979434 -2.0752550193243e-20)
(-0.0888650946387542 0.00197847948521225 -2.0304785196878e-20)
(-0.100250797005236 0.00181334758522708 -2.10519119175451e-22)
(-0.110435014000793 0.00164566451009454 -2.84200247637039e-22)
(-0.11950386405253 0.00148640026201392 1.92844861984361e-20)
(-0.12756740814022 0.00133992796141702 0)
(-0.134733762696172 0.00120723713928529 0)
(-0.141101253528037 0.00108755124853074 3.5778801666733e-32)
(-0.146754654718847 0.000979436466470174 0)
(-0.151765711838802 0.000881275008176052 0)
(-0.156194328738472 0.000791528731903189 0)
(-0.160090409805912 0.000708833255648064 -1.07156128660087e-20)
(-0.163495547865277 0.000632026076993531 1.05916943797858e-20)
(-0.166444566424739 0.000560134906679624 0)
(-0.168966816986107 0.000492363506881525 0)
(-0.171087308704416 0.000428075339777899 1.18806631762906e-20)
(-0.172827692785424 0.000366787816935641 -1.17820177710249e-20)
(-0.174207079184817 0.000308140924266047 0)
(-0.175242561788841 0.000251844878947413 0)
(-0.175949538325615 0.000197658534400709 0)
(-0.176342016702806 0.000145376679870683 -6.89460778672853e-21)
(-0.176433035023458 9.48457890691441e-05 6.86009575001657e-21)
(-0.176234949866382 4.60459067038902e-05 0)
(-0.175759485664392 -7.85852192494672e-07 0)
(-0.175022074797256 -4.56241211982338e-05 -3.89489587510345e-21)
(-0.17403570601065 -8.86121595933688e-05 -1.32822142470995e-22)
(-0.172812998557835 -0.000129722582544924 4.00071087775087e-21)
(-0.171366195443907 -0.00016895366919098 0)
(-0.169707363451142 -0.000206304409966648 -2.19416258966097e-21)
(-0.167848432479635 -0.000241767556396922 2.19122790818751e-21)
(-0.165801219717221 -0.000275333613126629 0)
(-0.163577450411572 -0.000306990622189512 -1.19806198791202e-21)
(-0.16118876493637 -0.000336727965836854 3.66492778715003e-21)
(-0.158646707497825 -0.00036453949416347 -2.46853416443296e-21)
(-0.155962706301654 -0.000390425053653648 0)
(-0.153148050619846 -0.000414391094801804 0)
(-0.150213862613408 -0.000436452209239609 -5.52544790178914e-21)
(-0.14717106153941 -0.000456632935216826 5.5407703370727e-21)
(-0.144030326775497 -0.000474967558031125 1.16777800259907e-20)
(-0.140802067540322 -0.000491499182848136 -1.17206492797713e-20)
(-0.137496399023538 -0.000506278873337079 0)
(-0.134123129011055 -0.000519363325314724 -1.26603363431415e-20)
(-0.130691774698057 -0.000530808187205431 1.27228121184292e-20)
(-0.127211613326941 -0.000540662044566181 0)
(-0.123691774277127 -0.00054895713812598 0)
(-0.120141369249444 -0.000555703184420079 -2.81000727152018e-20)
(-0.116569639798594 -0.000560884778950059 2.82835899099135e-20)
(-0.112986100245949 -0.000564464129694798 0)
(-0.109400641312862 -0.000566391424579385 0)
(-0.105823647292774 -0.000566596610876304 -3.10762805225864e-20)
(-0.102266195958788 -0.000564974989519651 3.13299621441294e-20)
(-0.0987403606720623 -0.000561365505686871 0)
(-0.0952596580736099 -0.000555520874875365 3.34617761126958e-20)
(-0.0918396355803465 -0.000547082557830145 -3.3781752723128e-20)
(-0.0884986041865635 -0.000535549041843235 0)
(-0.0852585102454609 -0.000520250624062055 3.60203048258246e-20)
(-0.0821458759750391 -0.000500338157124957 4.95093657470384e-22)
(-0.079192803223343 -0.000474758957255401 -3.73635477467176e-20)
(-0.0764376834218735 -0.000442348888918843 0)
(-0.0739256474507734 -0.000401794780704296 0)
(-0.0717074514981094 -0.000352091583262336 0)
(-0.0698375807487425 -0.000292295193305708 0)
(-0.0683660904679264 -0.000223428691184467 0)
(-0.0673285640866907 -0.000147824504468065 0)
(-0.0667107659809487 -7.89271503749286e-05 0)
(-0.0663831265140079 -4.1252891767866e-05 0)
(-0.065937302793201 -0.000134998894865948 -9.26770176033375e-20)
(-0.0645432416819919 -0.000495251569493267 -9.49604756831293e-22)
(-0.0592269059424432 -0.00156603612922914 9.29977705133565e-20)
(-0.0481957483662738 -0.0060449577675614 3.12582276764853e-18)
(-0.0389974396098101 -0.0149257601969589 0)
(-0.0370525811738245 -0.0233134794094318 2.6453193615035e-17)
(-0.0359130974622946 -0.0311398726265718 2.46491734826426e-17)
(-0.034328466702134 -0.0371617517190257 0)
(-0.0320572804008809 -0.0406444630855682 -9.60221779149645e-20)
(-0.0288009422209121 -0.0406494055085591 6.13533655182127e-20)
(-0.0242631893969344 -0.0369317729079835 -1.91458696332871e-17)
(-0.0180941809514474 -0.02934640941276 -3.63673676781506e-20)
(-0.0102476848593047 -0.0181167013978482 1.80059948210783e-17)
(-0.000852416234807511 -0.00400679795083158 1.75356327416855e-17)
(0.00926776487773088 0.0118283678140443 0)
(0.0201147616991411 0.0294949402377913 -1.57361442176763e-17)
(0.0310687024286783 0.0484046258380356 1.03309039576777e-20)
(0.0441565383286837 0.0712422033625469 2.77364106720271e-20)
(0.0621887794077987 0.100666637331013 -1.15432887379636e-20)
(0.093074987209538 0.143690531503809 -1.0405940151338e-17)
(0.147356529387506 0.204235777364239 -1.66638135780347e-17)
(0.266409962678188 0.296354116080317 -5.37949534656143e-18)
(0.489487992156528 0.353216090515963 1.79299614517629e-22)
(0.606770193935476 0.178543202529349 -2.1463023834427e-22)
(0.348320925928002 0.0254044317900132 -5.41270367354446e-20)
(0.335470501112411 0.00609159572362319 9.85475838596562e-24)
(0.221010743154349 -0.0347360936576345 -1.8658835662216e-23)
(-0.0283287698563472 0.0406959781387054 5.57069464320576e-23)
(-0.0923680989126444 0.108455022220755 -4.71087320359967e-23)
(-0.0497624085042281 0.0654292050279739 -4.12420315759788e-22)
(-0.0282509681908773 0.042050354542106 9.76205020973711e-21)
(-0.0192877711545949 0.0308598972093178 -3.07216058253119e-21)
(-0.0153716231510239 0.0251475664039196 2.333524770649e-18)
(-0.0141725516724444 0.0231970587686136 2.57059577078893e-18)
(-0.0147261716518838 0.0238339138815874 -2.79372290459571e-21)
(-0.0158896968854416 0.0253610844739895 5.85163860660785e-21)
(-0.0174234152732058 0.0273861880652209 -6.3543923841208e-21)
(-0.0186939415774453 0.0288551804952371 6.89053582862241e-18)
(-0.0190923724429782 0.028634703968337 -1.44970260006402e-20)
(-0.0183572786921261 0.0260018066510388 -3.91033035795219e-18)
(-0.0162393027905797 0.0207686714137798 2.15281188140345e-22)
(-0.0124120705102508 0.0131667123765194 -3.57596644228767e-20)
(-0.00682024633026568 0.00453519077377944 1.59963843695827e-20)
(0.000342836417398022 -0.00294199355075588 1.10168563425556e-17)
(0.00756661253801158 -0.00646067608193022 6.03493034957801e-18)
(0.0131375299884638 -0.00510050373462019 2.73386075130845e-20)
(0.0122042188264407 0.000225805346630265 -5.27260483653666e-20)
(0.00377615048625758 0.00145877181737305 2.62730964868668e-20)
(-0.00574901027857962 0.00211504258356956 -2.56724852350429e-20)
(-0.0198855292834079 0.00298861329257798 4.80075344192312e-20)
(-0.0370489023829907 0.00373768504095299 -4.46658840520507e-20)
(-0.0561486122242126 0.00421399484944683 2.08143890742102e-20)
(-0.0754361218299761 0.00438532044265847 0)
(-0.0937757402407902 0.00429762186715452 0)
(-0.11046234503157 0.00404458189856619 0)
(-0.125280414498914 0.00370941532511892 0)
(-0.138258172487127 0.00335211553006396 0)
(-0.14955838110755 0.00300580527729345 0)
(-0.159376247585255 0.00268596658705078 0)
(-0.167903888426201 0.00239709878463479 0)
(-0.175310111100414 0.00213847985317607 -7.65074427342982e-21)
(-0.181738075468725 0.00190704437840088 -2.05721176084097e-22)
(-0.187306100716963 0.0016990979479136 1.51067388702752e-20)
(-0.192111441109821 0.00151101162990949 -7.47756968936213e-21)
(-0.196233800954221 0.00133955005477828 0)
(-0.199738771625751 0.00118195548594401 0)
(-0.20268063379377 0.00103593809260294 -8.00996306089739e-21)
(-0.205104678288773 0.000899621153594166 -2.87736764832551e-22)
(-0.207049062202745 0.000771490984037629 1.63012940052583e-20)
(-0.208546331925571 0.00065034962974575 -8.16114920835784e-21)
(-0.209624670915642 0.000535282826596978 0)
(-0.21030887488398 0.000425593521141022 0)
(-0.210620994054891 0.000320709932751118 -4.5243439886973e-21)
(-0.210580759708378 0.000220138745929979 4.46634145777457e-21)
(-0.210205912749236 0.000123482873241546 0)
(-0.209512641676315 3.06197207783553e-05 0)
(-0.208518405944571 -5.82925015141678e-05 -4.60178189723857e-16)
(-0.207242105241883 -0.000143152307844663 -4.75554187542707e-16)
(-0.205698309389228 -0.000224112374742167 -2.61445608480408e-21)
(-0.203901822423333 -0.000301324856442634 5.27054367164639e-21)
(-0.201866878465599 -0.000374834430394376 8.90892321629486e-23)
(-0.19960728795836 -0.000444683473796154 -1.31865446193197e-21)
(-0.197136514347556 -0.000510901355809935 -1.39895004210733e-21)
(-0.194467727072872 -0.000573506430846074 0)
(-0.191613846038796 -0.000632511116477396 0)
(-0.188587576255913 -0.000687922834191237 -7.78439047378358e-22)
(-0.185401427369772 -0.000739750154439155 7.75720735713664e-22)
(-0.18206771429508 -0.000788007592452401 -1.63707866479677e-21)
(-0.178598550640741 -0.000832717856086628 -1.72355809680571e-21)
(-0.175005838557634 -0.000873912927708373 6.79476532424614e-21)
(-0.171301253008763 -0.000911636385283087 8.9425311006799e-23)
(-0.167496219131166 -0.000945945703303744 -3.52889700912082e-21)
(-0.163601890926684 -0.00097691143360087 6.94980438442777e-16)
(-0.15962913744786 -0.00100461520855638 7.06560249568098e-16)
(-0.155588536993913 -0.00102914734539419 -7.61731287187985e-21)
(-0.151490386140007 -0.00105060169149496 0)
(-0.147344739746207 -0.0010690640099928 8.18553009903068e-21)
(-0.143161487868423 -0.00108460114795585 -8.21551636943668e-21)
(-0.138950471504281 -0.00109724620801793 0)
(-0.134721634955457 -0.00110698899816018 0)
(-0.130485191480462 -0.00111377286257754 -1.8053745323754e-20)
(-0.126251783831871 -0.00111749904978717 3.6667049781071e-20)
(-0.122032616222375 -0.00111803879716786 -1.86286115415814e-20)
(-0.117839617131306 -0.00111521610124034 0)
(-0.113685701688153 -0.0011087797478411 0)
(-0.109585143374686 -0.00109836415091261 0)
(-0.105554099345682 -0.00108343853110384 -2.09638568848652e-20)
(-0.101611275007844 -0.00106326322352228 2.11947775836447e-20)
(-0.0977787313176234 -0.00103683814851965 2.20942749313508e-20)
(-0.0940828213082014 -0.00100286398363592 -2.23896239125604e-20)
(-0.0905551646225619 -0.000959730034514931 -4.67081541314879e-20)
(-0.0872336355667726 -0.000905502097606006 9.55669233059783e-20)
(-0.0841629161903635 -0.000838097529516246 -9.85493522370665e-20)
(-0.0813946121231207 -0.000755342077831368 5.0573271631845e-20)
(-0.078985240463158 -0.000655788592881767 0)
(-0.0769928491497254 -0.000538759621784362 -5.47721014521774e-20)
(-0.0754653975297867 -0.000407571239849731 -6.16850972366348e-22)
(-0.0744261081490206 -0.000269837263362063 5.80864078683069e-20)
(-0.0738293254972432 -0.000152775495609424 -6.06045384246303e-20)
(-0.0734991995815478 -0.000104613217724898 1.23845913086271e-19)
(-0.0729719780078956 -0.000290620358158814 6.32198868611093e-22)
(-0.0714813385228068 -0.000931892673821962 -1.26943016356714e-19)
(-0.0667001571751456 -0.00253390566969048 -6.30287460175058e-22)
(-0.0574651032064804 -0.00800485566908711 -2.11695041185962e-18)
(-0.049467248683872 -0.0192115988577424 0)
(-0.0467491768187148 -0.029465461356997 -2.08342761728096e-17)
(-0.0444283948775993 -0.0386009520710281 -1.99987581616855e-17)
(-0.0415011501934083 -0.0451321924888051 7.2936026051119e-20)
(-0.0377262646299317 -0.0482654089536087 1.76415075357265e-17)
(-0.0328038053980567 -0.0470746225912815 -7.72567324709076e-20)
(-0.0264195128384009 -0.0414347793001262 1.59101894311876e-17)
(-0.0181549180801603 -0.0312710969688258 -8.92517793409524e-20)
(-0.00801296919330592 -0.0169280261726834 -1.48695479763629e-17)
(0.00381558342163599 0.000717703516793089 1.45438247070579e-17)
(0.0164967087924904 0.0205642809166297 0)
(0.0301283873475733 0.0428173813635434 1.35433572941281e-17)
(0.0441651813282191 0.0670402882282041 1.28677273988517e-17)
(0.0611036286804479 0.0962019613970095 2.19914340199279e-20)
(0.0845118341013909 0.13333005714756 0)
(0.123562537377186 0.185333517123408 0)
(0.189861840973612 0.254296673532046 6.75789211998686e-18)
(0.321013907232413 0.342080139813886 -3.64881622750935e-18)
(0.542279176876923 0.374769240244926 0)
(0.692053593363005 0.202774309948946 -1.58216223777084e-18)
(0.495873214634435 0.0402402242282566 4.13173143521531e-20)
(0.44793797347685 0.0139114416821038 3.26247863906401e-22)
(0.308491506461148 -0.0407147884613703 0)
(0.0040318510397554 0.0314303752221333 0)
(-0.104929299904002 0.124511344830762 -9.04163341408245e-23)
(-0.0631577383409223 0.0804375591470394 8.28425963304337e-23)
(-0.0366969877909789 0.0529239078517783 1.8938173561648e-18)
(-0.0251353024905193 0.0393275984826447 -1.02345465310746e-21)
(-0.0200030575307591 0.0322685510775726 -2.37386282985059e-21)
(-0.0183397505890463 0.0298460413883734 -4.44740645182984e-23)
(-0.0189244052035086 0.0306190548951495 2.79777822654408e-21)
(-0.0203296405193879 0.0325111194323791 6.09815679885085e-21)
(-0.022178254729896 0.0349334988306518 3.29755477639726e-18)
(-0.0237302430060174 0.0366266060763147 -3.51040958874375e-18)
(-0.0242967666987427 0.0362972376591201 0)
(-0.0236217871253984 0.0331632646110956 3.97320115742406e-18)
(-0.0214895046286833 0.0270846473594517 4.20712650713457e-18)
(-0.0176130656370497 0.0183926286261781 0)
(-0.0119362082421555 0.0085318961212236 -2.84453454847409e-21)
(-0.00454305370495915 -0.000201226390013169 4.77048304746637e-21)
(0.00338482570604927 -0.00494653899902411 -5.77274289211011e-18)