2 	0.00391112967796261 	1.10588621593521e-17 	-0.024167324751137 	0.000107891226198571 	-3.79891705063853e-16
2 	0.0118766651674913 	1.95156391047391e-17 	-0.071724003430204 	0.000552540896387814 	5.05326218560451e-16
2 	0.0201340015485761 	2.16840434497101e-17 	-0.117431678170232 	0.00141935707712762 	1.51257609326207e-17
2 	0.028693828342395 	1.69135538907739e-17 	-0.155966546317735 	0.0025440635443286 	-1.12781153481063e-22
2 	0.0375672266585909 	8.23993651088983e-18 	-0.181484537061522 	0.00366037214570153 	-6.10176757749364e-21
2 	0.0467656835403032 	2.60208521396521e-18 	-0.195108563957234 	0.00463617329928159 	8.34793843292416e-21
2 	0.0563011068347007 	-2.60208521396521e-18 	-0.201508074551227 	0.0054905521282289 	2.51770571270646e-18
2 	0.0661858406082648 	-6.07153216591882e-18 	-0.204047106922633 	0.00627024305222893 	3.46570229328633e-18
2 	0.0764326811267815 	-6.07153216591882e-18 	-0.204464609144738 	0.00700408906301273 	-1.64382218037426e-18
2 	0.0870548934207258 	-8.67361737988404e-19 	-0.203611972774401 	0.00770770795284785 	-2.62016741815464e-18
2 	0.0980662284574839 	-2.60208521396521e-18 	-0.201922852427952 	0.00839026529999187 	3.53380912786952e-22
2 	0.109480940942647 	-1.21430643318376e-17 	-0.199631644480655 	0.00905740152701298 	3.15632321646902e-23
2 	0.121313807773417 	-1.04083408558608e-17 	-0.196871746260621 	0.009712546068222 	-1.62062433152585e-21
2 	0.13358014716801 	-3.46944695195361e-18 	-0.19372170372866 	0.0103576588176496 	-7.25558227359224e-18
2 	0.146295838495838 	1.73472347597681e-18 	-0.190228243492972 	0.0109936716876011 	-9.73953499619573e-17
2 	0.159477342834115 	1.73472347597681e-18 	-0.186418465937263 	0.0116207439617486 	8.80445638688193e-17
2 	0.173141724277517 	3.46944695195361e-18 	-0.182306638738462 	0.012238405556425 	8.67024881721569e-18
2 	0.18730667202848 	1.38777878078145e-17 	-0.177898141241286 	0.0128456327121252 	1.35156852807201e-21
2 	0.201990523296728 	1.73472347597681e-17 	-0.173191823470472 	0.0134408802968663 	2.86129614287138e-21
2 	0.217212287037676 	3.46944695195361e-18 	-0.16818143762879 	0.0140220837153855 	5.48041481480378e-24
2 	0.232991668560441 	-1.04083408558608e-17 	-0.162856498892108 	0.0145866374898658 	-1.4536160295014e-23
2 	0.249349095037321 	-1.04083408558608e-17 	-0.157202774896671 	0.0151313541880243 	6.17364606397994e-22
2 	0.266305741947753 	-1.38777878078145e-17 	-0.151202516600325 	0.0156524052790549 	1.36190678914983e-21
2 	0.283883560490999 	-1.38777878078145e-17 	-0.144834492471852 	0.0161452441425117 	2.25806717373375e-22
2 	0.30210530600303 	-1.73472347597681e-17 	-0.138073855783496 	0.0166045105706461 	0
2 	0.320994567414414 	-3.12250225675825e-17 	-0.130891851822346 	0.0170239155829544 	4.70391911327573e-22
2 	0.340575797787321 	-3.46944695195361e-17 	-0.123255352637058 	0.0173961052330248 	1.51716874430983e-21
2 	0.360874345971201 	-3.46944695195361e-17 	-0.115126187844539 	0.0177125024932055 	-2.03996303146059e-23
2 	0.379381853751547 	-3.81639164714898e-17 	-0.107518560935525 	0.0179376243785982 	-1.47348269889499e-21
2 	0.390092168053834 	-4.16333634234434e-17 	-0.103048291315147 	0.0180456497371539 	-2.194898697779e-21
2 	0.403729468200046 	-3.46944695195361e-17 	-0.0972190757971577 	0.0181383177792779 	-1.09844040461025e-17
2 	0.426341520272734 	-2.77555756156289e-17 	-0.0873380921970672 	0.0182242502191642 	-9.71115354385819e-18
2 	0.449781918030829 	-3.12250225675825e-17 	-0.0767429698028725 	0.0182051671409115 	1.10098882912495e-17
2 	0.474081006202548 	-3.46944695195361e-17 	-0.0653496076857145 	0.0180637436241568 	9.67626581907372e-18
2 	0.499270241132364 	-3.46944695195361e-17 	-0.0530559190106667 	0.0177804417764593 	2.17624792040199e-21
2 	0.525382231502763 	-3.12250225675825e-17 	-0.0397363385649455 	0.0173336306832045 	2.30154399796415e-21
2 	0.552450780547767 	-2.42861286636753e-17 	-0.0252345000815233 	0.0167000012426377 	2.91896471472535e-21
2 	0.58051092981285 	-1.73472347597681e-17 	-0.00935370248250638 	0.0158555231634386 	6.90372880911614e-21
2 	0.609599004517911 	-3.46944695195361e-18 	0.00815507207292308 	0.0147781675069883 	5.74256691760155e-22
2 	0.639752660582033 	1.04083408558608e-17 	0.0276075497731858 	0.0134561276501012 	1.08867470576622e-21
2 	0.671010933370887 	1.04083408558608e-17 	0.0494176506150277 	0.0118945483745331 	9.95810041189628e-21
2 	0.703414288229901 	1.73472347597681e-17 	0.0742324201113318 	0.0100456149513233 	1.16827961624924e-17
2 	0.737004672868606 	2.08166817117217e-17 	0.103376498242689 	0.00782590285132153 	2.58322414721896e-16
2 	0.771825571663976 	1.75640751942652e-17 	0.138642165429797 	0.00507432502730212 	-3.03888571049065e-16
2 	0.807922061953053 	1.84314369322536e-17 	0.181321219615104 	0.0017563933634226 	-3.11529174790915e-18
2 	0.845340872387742 	1.38777878078145e-17 	0.231243290660821 	-0.00196324795739071 	-5.9859041730009e-18
2 	0.884130443427309 	6.07153216591882e-18 	0.287084949194046 	-0.00584785959491145 	-1.37479235997791e-16
2 	0.924340990046898 	1.73472347597681e-18 	0.347461945352919 	-0.00968907325003918 	1.04091948066159e-16
2 	0.966024566743242 	0 	0.411282031674083 	-0.013294480286027 	1.72366192902753e-17
2 	1.00923513492173 	-1.73472347597681e-18 	0.477613074867568 	-0.0164401714408969 	1.42823531299265e-23
2 	1.05402863275206 	0 	0.545234975909234 	-0.0188822506136882 	7.2514605824273e-21
2 	1.10046304758287 	0 	0.612312597314043 	-0.0204086932920759 	4.22037239877987e-21
2 	1.14859849100923 	0 	0.676548187412118 	-0.0209093599336911 	-5.88203286106537e-21
2 	1.1731499461078 	0 	0.7077220420498 	-0.0209009717453161 	-9.869451938937e-21
2 	1.19854810382362 	-3.46944695195361e-18 	0.736055331069292 	-0.0205400824706088 	-1.62066583316768e-20
2 	1.25022400101563 	-1.04083408558608e-17 	0.789150700526821 	-0.0196190218232476 	-2.6519425258679e-20
2 	1.30384562673186 	-1.04083408558608e-17 	0.835071177340046 	-0.0185346548325048 	-1.25469242935492e-20
2 	1.35943156962566 	-6.93889390390723e-18 	0.874297356360068 	-0.0175976018913374 	5.89864218377673e-21
2 	1.41705378838763 	-1.04083408558608e-17 	0.908214382532772 	-0.0169138088359334 	5.44787499653815e-21
2 	1.47678687776592 	-1.04083408558608e-17 	0.938356464168145 	-0.0164516859881111 	2.55721450747654e-20
2 	1.53870816513278 	-1.21430643318376e-17 	0.965980564361063 	-0.0161225926638064 	-2.72617147158992e-20
2 	1.60289781058851 	-1.38777878078145e-17 	0.991800932932656 	-0.0158227105222007 	-1.0740466478229e-21
2 	1.66943891073267 	-6.93889390390723e-18 	1.01634929724808 	-0.0154630146344141 	1.69086144796786e-20
2 	1.73841760623657 	-5.20417042793042e-18 	1.03973984755864 	-0.014994363618217 	-1.50186451097756e-20
2 	1.8099231933566 	-1.04083408558608e-17 	1.06193834034832 	-0.0143980968536776 	-2.6675716170562e-20
2 	1.87639343533151 	-1.38777878078145e-17 	1.0807862928646 	-0.0137596937756867 	-3.61082918038685e-21
2 	1.91412260223978 	-1.73472347597681e-17 	1.09090971280759 	-0.0133783945697207 	-5.85510571481562e-22
2 	1.96088870322038 	-1.73472347597681e-17 	1.10153859037286 	-0.0129132537094572 	0
2 	2.02025965173185 	-1.38777878078145e-17 	1.11535678151302 	-0.0122614623960399 	0
2 	2.06006301192217 	-1.38777878078145e-17 	1.12449482769633 	-0.011776230576364 	0
2 	2.09845978584128 	-1.38777878078145e-17 	1.13211967595893 	-0.0113386507847543 	0
2 	2.13549967996946 	-1.38777878078145e-17 	1.13899540902416 	-0.0109211578166888 	0
2 	2.17123064424048 	-1.38777878078145e-17 	1.14518865850128 	-0.0105210631808849 	0
2 	2.20569893411516 	-2.08166817117217e-17 	1.15075909445547 	-0.0101394822708891 	0
2 	2.23894917046123 	-2.77555756156289e-17 	1.15575985614516 	-0.00977672411408494 	0
2 	2.27102439731726 	-2.77555756156289e-17 	1.16023802670079 	-0.00943251695742394 	0
2 	2.30196613761522 	-3.12250225675825e-17 	1.16423509707727 	-0.00910628492085662 	0
2 	2.33181444693392 	-3.46944695195361e-17 	1.16778740159793 	-0.00879724931982421 	0
2 	2.3606079653529 	-3.81639164714898e-17 	1.17092651954449 	-0.00850449427759227 	0
2 	2.38838396747391 	-3.81639164714898e-17 	1.17367964086279 	-0.00822702533449748 	0
2 	2.41517841067461 	-3.46944695195361e-17 	1.17606989522016 	-0.00796381634672889 	0
2 	2.44102598165722 	-3.81639164714898e-17 	1.1781166441373 	-0.00771384461941897 	0
2 	2.46596014135208 	-4.16333634234434e-17 	1.1798357363255 	-0.00747611626928575 	0
2 	2.49001316823444 	-4.16333634234434e-17 	1.18123972692375 	-0.00724968368023364 	0
2 	2.51321620011054 	-4.16333634234434e-17 	1.18233806208952 	-0.00703365668332814 	0
2 	2.535599274427 	-4.16333634234434e-17 	1.1831372313264 	-0.00682720891334079 	0
2 	2.55719136715571 	-3.81639164714898e-17 	1.18364089101068 	-0.00662958059158223 	0
2 	2.57802043030466 	-3.81639164714898e-17 	1.183849963802 	-0.00644007876821961 	0
2 	2.59811342810315 	-4.16333634234434e-17 	1.18376271999173 	-0.00625807584764707 	0
2 	2.61749637190832 	-3.81639164714898e-17 	1.18337484834132 	-0.00608300702740115 	0
2 	2.63619435387806 	-3.46944695195361e-17 	1.18267952552888 	-0.0059143671069849 	0
2 	2.65423157945406 	-3.81639164714898e-17 	1.18166749481691 	-0.00575170696656806 	0
2 	2.67163139869691 	-4.16333634234434e-17 	1.18032716572043 	-0.00559462987399619 	0
2 	2.68841633651388 	-4.16333634234434e-17 	1.17864474690147 	-0.00544278764906469 	-2.54097382805185e-16
2 	2.70460812181851 	-4.16333634234434e-17 	1.17660442370509 	-0.00529587659554044 	-6.07965267394165e-16
2 	2.72022771565972 	-4.16333634234434e-17 	1.17418858904866 	-0.00515363300617269 	6.5794202939744e-16
2 	2.73529533835695 	-4.16333634234434e-17 	1.17137813115256 	-0.0050158279605787 	2.65298901025052e-16
2 	2.74983049567626 	-3.81639164714898e-17 	1.16815277342782 	-0.00488226108178053 	0
2 	2.76385200408157 	-3.46944695195361e-17 	1.16449145074308 	-0.00475275290919836 	0
2 	2.77737801509344 	-3.81639164714898e-17 	1.1603726930191 	-0.00462713559937173 	0
2 	2.79042603878708 	-3.81639164714898e-17 	1.15577497325249 	-0.0045052417911443 	0
2 	2.80301296646003 	-3.46944695195361e-17 	1.15067696502864 	-0.00438689166927063 	0
2 	2.81515509249873 	-3.46944695195361e-17 	1.14505764705492 	-0.00427187851343607 	0
2 	2.82686813547238 	-3.46944695195361e-17 	1.1388961915231 	-0.00415995329597611 	0
2 	2.83816725848143 	-3.12250225675825e-17 	1.13217158021291 	-0.0040508091471996 	0
2 	2.84906708878692 	-2.77555756156289e-17 	1.12486190631194 	-0.00394406669784077 	0
2 	2.85958173674617 	-2.77555756156289e-17 	1.11694333814168 	-0.00383926140216799 	0
2 	2.86972481407933 	-2.77555756156289e-17 	1.1083887392164 	-0.0037358339338853 	0
2 	2.87950945149043 	-2.42861286636753e-17 	1.09916595297537 	-0.00363312465520091 	0
2 	2.88894831566567 	-2.08166817117217e-17 	1.08923576672955 	-0.00353037307152908 	0
2 	2.89805362567107 	-2.08166817117217e-17 	1.07854956620744 	-0.003426723197331 	0
2 	2.90683716877067 	-2.08166817117217e-17 	1.06704667980217 	-0.00332123550732328 	0
2 	2.9153103156857 	-2.08166817117217e-17 	1.05465139171981 	-0.00321290446196734 	0
2 	2.92348403531449 	-2.08166817117217e-17 	1.04126957710543 	-0.0031006814445103 	0
2 	2.9313689089323 	-1.73472347597681e-17 	1.02678487836945 	-0.00298352628187632 	0
2 	2.93897514388925 	-1.73472347597681e-17 	1.01105426374332 	-0.00286056423949186 	0
2 	2.94631258682425 	-2.08166817117217e-17 	0.993895008635204 	-0.00273082055982137 	0
2 	2.95339073641193 	-1.73472347597681e-17 	0.97504340759229 	-0.00259212182135262 	0
2 	2.96021875565916 	-1.38777878078145e-17 	0.95411193678203 	-0.00244194160174894 	0
2 	2.96680548376697 	-1.38777878078145e-17 	0.930630219016609 	-0.00227760350319312 	0
2 	2.97315944757337 	-1.38777878078145e-17 	0.904099646553169 	-0.00209832456861705 	0
2 	2.97928887259171 	-1.38777878078145e-17 	0.873962915634091 	-0.001904918450284 	0
2 	2.98520169365903 	-1.38777878078145e-17 	0.839557309239419 	-0.00169938222166849 	0
2 	2.99090556520807 	-1.38777878078145e-17 	0.800065083972723 	-0.00148482651181992 	0
2 	2.99640787117633 	-1.38777878078145e-17 	0.754449798841107 	-0.00126529494975555 	0
2 	3.00171573456492 	-1.38777878078145e-17 	0.701397333397663 	-0.00104558638233993 	0
2 	3.00683602665963 	-1.73472347597681e-17 	0.639288445211759 	-0.000831395447985161 	0
2 	3.01177537592613 	-2.42861286636753e-17 	0.566109358891608 	-0.000628981300281163 	0
2 	3.01654017659085 	-2.77555756156289e-17 	0.479612940239565 	-0.000443212672897247 	0
2 	3.02113659691864 	-2.77555756156289e-17 	0.379696303496453 	-0.00028015672128422 	0
2 	3.02557058719784 	-3.12250225675825e-17 	0.271242281947675 	-0.000149163294742901 	0
2 	3.02984788744324 	-3.46944695195361e-17 	0.161177627995991 	-5.87596706970502e-05 	0
