2 	0.00391112967796261 	1.10588621593521e-17 	0.072708706230853 	2.10663041393334e-06 	920.062279963176 	2.04612344180865e-07 	4.38539589048977e-39
2 	0.0118766651674913 	1.95156391047391e-17 	0.0727186164987684 	5.05704403261145e-05 	174.47134517368 	1.229987656974e-05 	0
2 	0.0201340015485761 	2.16840434497101e-17 	0.0727273090214823 	0.000338628953389839 	56.4488154214516 	0.00016063179905385 	0
2 	0.028693828342395 	1.69135538907739e-17 	0.0727325919319017 	0.00110646318407261 	26.8220524849612 	0.000568050543231185 	0
2 	0.0375672266585909 	8.23993651088983e-18 	0.0727377667487056 	0.00226086424661243 	15.4258049447047 	0.00069745589056022 	0
2 	0.0467656835403032 	2.60208521396521e-18 	0.0727472724983409 	0.00350345502841937 	10.0869510376731 	0.000418063762998815 	0
2 	0.0563011068347007 	-2.60208521396521e-18 	0.0727617484281609 	0.00468597226625099 	7.30674725486935 	0.000166207419708606 	0
2 	0.0661858406082648 	-6.07153216591882e-18 	0.07277852395188 	0.00577546478809873 	5.71096724653051 	5.36924143881397e-05 	0
2 	0.0764326811267815 	-6.07153216591882e-18 	0.0727949280999565 	0.00677845046816291 	4.70904495769165 	3.05903000066773e-05 	0
2 	0.0870548934207258 	-8.67361737988404e-19 	0.0728093310220957 	0.0077097775112192 	4.03189474308717 	5.25227516226654e-05 	0
2 	0.0980662284574839 	-2.60208521396521e-18 	0.0728207588285567 	0.00858341540767881 	3.54731265667245 	9.67597235580736e-05 	0
2 	0.109480940942647 	-1.21430643318376e-17 	0.0728285249670224 	0.00941064278746565 	3.18501759304699 	0.000152593303015201 	0
2 	0.121313807773417 	-1.04083408558608e-17 	0.0728320939123922 	0.0102002224972301 	2.90488285982568 	0.00021491926956828 	0
2 	0.13358014716801 	-3.46944695195361e-18 	0.0728310332026386 	0.0109589400213916 	2.68256034042881 	0.000281258137045019 	0
2 	0.146295838495838 	1.73472347597681e-18 	0.0728249858626952 	0.0116920971737691 	2.50250511253313 	0.000350422146489501 	0
2 	0.159477342834115 	1.73472347597681e-18 	0.0728136535237916 	0.0124038920563177 	2.35436365505968 	0.000421899568730786 	0
2 	0.173141724277517 	3.46944695195361e-18 	0.0727967884502542 	0.0130976981089226 	2.23099301526675 	0.000495558099249531 	0
2 	0.18730667202848 	1.38777878078145e-17 	0.0727741915777079 	0.0137762678895167 	2.12731889054881 	0.00057149706825338 	0
2 	0.201990523296728 	1.73472347597681e-17 	0.0727457144153689 	0.0144418838620869 	2.0396484641978 	0.000649972952595635 	0
2 	0.217212287037676 	3.46944695195361e-18 	0.0727112637957942 	0.0150964728850088 	1.96524145078882 	0.000731363340225079 	0
2 	0.232991668560441 	-1.04083408558608e-17 	0.072670809096533 	0.0157416964956687 	1.90203393022319 	0.000816152772290826 	0
2 	0.249349095037321 	-1.04083408558608e-17 	0.0726243919039787 	0.0163790258773623 	1.84845604264401 	0.000904932575195295 	0
2 	0.266305741947753 	-1.38777878078145e-17 	0.0725721383618242 	0.0170098083423345 	1.80330942058639 	0.000998411251528401 	0
2 	0.283883560490999 	-1.38777878078145e-17 	0.0725142747325577 	0.0176353309889732 	1.76568402260618 	0.00109743456630899 	0
2 	0.30210530600303 	-1.73472347597681e-17 	0.0724511470493351 	0.0182568866839589 	1.73490200524345 	0.00120301623200391 	0
2 	0.320994567414414 	-3.12250225675825e-17 	0.0723832462020656 	0.0188758475583404 	1.71048107186673 	0.00131638162095334 	0
2 	0.340575797787321 	-3.46944695195361e-17 	0.0723112404532717 	0.019493751739207 	1.69211277500985 	0.00143902854372811 	0
2 	0.360874345971201 	-3.46944695195361e-17 	0.0722360183037829 	0.0201124100760827 	1.67965329775761 	0.00157281105393153 	0
2 	0.379381853751547 	-3.81639164714898e-17 	0.0721679818931453 	0.0206602749637383 	1.67354570373914 	0.00170177627470171 	0
2 	0.390092168053834 	-4.16333634234434e-17 	0.0721289515128918 	0.0209719542600319 	1.67175180375478 	0.00177895934776542 	0
2 	0.403729468200046 	-3.46944695195361e-17 	0.0720808857821639 	0.0213612039112594 	1.67260275622774 	0.00188329378262321 	0
2 	0.426341520272734 	-2.77555756156289e-17 	0.072004333434992 	0.0219974232490576 	1.67854521176809 	0.00206634103659412 	0
2 	0.449781918030829 	-3.12250225675825e-17 	0.0719316172814646 	0.0226473424732062 	1.69163388029168 	0.0022741138702317 	0
2 	0.474081006202548 	-3.46944695195361e-17 	0.0718660379014548 	0.0233169846141212 	1.71281076867236 	0.00251287278063552 	0
2 	0.499270241132364 	-3.46944695195361e-17 	0.0718119362658456 	0.0240143053297764 	1.74340593598413 	0.00279082600275585 	0
2 	0.525382231502763 	-3.12250225675825e-17 	0.0717750199892289 	0.0247498470751845 	1.78525139635642 	0.00311874441796754 	0
2 	0.552450780547767 	-2.42861286636753e-17 	0.0717627203377576 	0.0255376054770411 	1.8408311880753 	0.00351068961183177 	0
2 	0.58051092981285 	-1.73472347597681e-17 	0.0717847400975409 	0.0263961749677538 	1.91346980650903 	0.00398475627434155 	0
2 	0.609599004517911 	-3.46944695195361e-18 	0.0718547251402793 	0.02734964720249 	2.0075429945173 	0.00456343385075699 	0
2 	0.639752660582033 	1.04083408558608e-17 	0.0719931304247455 	0.0284262615778792 	2.12858886875945 	0.00527987755473297 	0
2 	0.671010933370887 	1.04083408558608e-17 	0.0722175648127652 	0.0296659487428144 	2.28252624283027 	0.00620890896633849 	0
2 	0.703414288229901 	1.73472347597681e-17 	0.0724888850179349 	0.031112782965488 	2.46868054272067 	0.007518098941955 	0
2 	0.737004672868606 	2.08166817117217e-17 	0.0727735685063316 	0.0328303296317561 	2.6785989449898 	0.00923579289946969 	0
2 	0.771825571663976 	1.75640751942652e-17 	0.0731243215036499 	0.0349036582438633 	2.9086950778355 	0.01154731872577 	0
2 	0.807922061953053 	1.84314369322536e-17 	0.0735892749510613 	0.0373667936983926 	3.15630540891562 	0.0142875690287221 	0
2 	0.845340872387742 	1.38777878078145e-17 	0.0741491462962033 	0.0401135896870954 	3.4056415019519 	0.0171466192591189 	0
2 	0.884130443427309 	6.07153216591882e-18 	0.0747545210430434 	0.0428554614519206 	3.62540901768447 	0.0198152160303254 	0
2 	0.924340990046898 	1.73472347597681e-18 	0.0753833982190198 	0.0452998137255058 	3.79312810230333 	0.022098595554566 	0
2 	0.966024566743242 	0 	0.0760543448936241 	0.0471933695286731 	3.89906042273876 	0.0238463351234111 	0
2 	1.00923513492173 	-1.73472347597681e-18 	0.0768047986986171 	0.0483175560024939 	3.93343316222972 	0.0248053856434628 	0
2 	1.05402863275206 	0 	0.0776634894222096 	0.0485231989505983 	3.88458845739611 	0.0246156785725788 	0
2 	1.10046304758287 	0 	0.0786672313598517 	0.0478026297809069 	3.7437926043748 	0.0230153240660335 	0
2 	1.14859849100923 	0 	0.07989446456825 	0.046342790668457 	3.51354395829197 	0.0200637107764584 	0
2 	1.1731499461078 	0 	0.0805783527958207 	0.0454653732085923 	3.3768961544432 	0.0182663170428141 	0
2 	1.19854810382362 	-3.46944695195361e-18 	0.0813380290635844 	0.0444861881834558 	3.2140131429313 	0.0162336873308952 	0
2 	1.25022400101563 	-1.04083408558608e-17 	0.0828604387951469 	0.0425860971190321 	2.87697654796147 	0.0123373648970463 	0
2 	1.30384562673186 	-1.04083408558608e-17 	0.0843563159728668 	0.0409149732632332 	2.54018499105323 	0.00907918919404793 	0
2 	1.35943156962566 	-6.93889390390723e-18 	0.0858109726909874 	0.0395707813137343 	2.2367074540074 	0.00673122459401195 	0
2 	1.41705378838763 	-1.04083408558608e-17 	0.0872419848840739 	0.0384832241031478 	1.98147687694552 	0.00519817452233404 	0
2 	1.47678687776592 	-1.04083408558608e-17 	0.0886670026426141 	0.0375098592029403 	1.77476019925042 	0.00423847464128374 	0
2 	1.53870816513278 	-1.21430643318376e-17 	0.09010336043893 	0.0365074254382512 	1.60798745418681 	0.00362072107968757 	0
2 	1.60289781058851 	-1.38777878078145e-17 	0.0915791552838639 	0.0353418246173216 	1.46879045014858 	0.00318386575118262 	0
2 	1.66943891073267 	-6.93889390390723e-18 	0.093094030935956 	0.0339464503396651 	1.34523591771565 	0.00280921702621832 	0
2 	1.73841760623657 	-5.20417042793042e-18 	0.0946437309424227 	0.0323109929627522 	1.2345674368817 	0.00244739098119264 	0
2 	1.8099231933566 	-1.04083408558608e-17 	0.09621762047631 	0.0304595309524099 	1.13550277359332 	0.00208352654227206 	0
2 	1.87639343533151 	-1.38777878078145e-17 	0.0976386690113022 	0.0286463556485642 	1.05490590295757 	0.00175847753744699 	0
2 	1.91412260223978 	-1.73472347597681e-17 	0.098426847605233 	0.0275966402262203 	1.01249796368817 	0.00158004071436128 	0
2 	1.96088870322038 	-1.73472347597681e-17 	0.099288379820584 	0.0263961829047798 	0.969105615161661 	0.00138730287655722 	0
2 	2.02025965173185 	-1.38777878078145e-17 	0.100482361712324 	0.0247199101790462 	0.913995997865735 	0.00113084763384182 	0
2 	2.06006301192217 	-1.38777878078145e-17 	0.101300481155292 	0.0235228417600552 	0.878911217600278 	0.000966422982279295 	0
2 	2.09845978584128 	-1.38777878078145e-17 	0.102005335192461 	0.0224716583492247 	0.850869759176372 	0.000831252012365498 	0
2 	2.13549967996946 	-1.38777878078145e-17 	0.102670739409587 	0.021479998952365 	0.826808113647623 	0.000710668032423665 	0
2 	2.17123064424048 	-1.38777878078145e-17 	0.103292757216066 	0.0205473647321486 	0.806451723834133 	0.000604126253915774 	0
2 	2.20569893411516 	-2.08166817117217e-17 	0.103873292805778 	0.0196720095997862 	0.789554007985207 	0.000510251483708193 	0
2 	2.23894917046123 	-2.77555756156289e-17 	0.104414858680872 	0.018851348834559 	0.775900327760978 	0.000427769630630646 	0
2 	2.27102439731726 	-2.77555756156289e-17 	0.104919680361895 	0.0180823023027114 	0.765310733120087 	0.00035548000782079 	0
2 	2.30196613761522 	-3.12250225675825e-17 	0.105389878742417 	0.0173615642029914 	0.757641416073997 	0.000292282903973558 	0
2 	2.33181444693392 	-3.46944695195361e-17 	0.105827517744679 	0.016685801577892 	0.75278519129514 	0.000237197147551319 	0
2 	2.3606079653529 	-3.81639164714898e-17 	0.1062345873657 	0.0160517915443263 	0.750671430337126 	0.000189367615123894 	0
2 	2.38838396747391 	-3.81639164714898e-17 	0.106612993208022 	0.0154565098342881 	0.751265823466238 	0.000148067327229987 	0
2 	2.41517841067461 	-3.46944695195361e-17 	0.106964552424034 	0.0148971828129909 	0.75457024782947 	0.000112696391591733 	0
2 	2.44102598165722 	-3.81639164714898e-17 	0.107290991951317 	0.0143713133886524 	0.760622934282688 	8.27791231345188e-05 	0
2 	2.46596014135208 	-4.16333634234434e-17 	0.107593948357957 	0.0138766891047991 	0.769499059488928 	5.79604369416023e-05 	0
2 	2.49001316823444 	-4.16333634234434e-17 	0.10787496904716 	0.0134113786735104 	0.781311842356695 	3.80023713718693e-05 	0
2 	2.51321620011054 	-4.16333634234434e-17 	0.108135514444202 	0.0129737214553006 	0.796214188772257 	2.27813484248731e-05 	0
2 	2.535599274427 	-4.16333634234434e-17 	0.108376960818669 	0.0125623129634288 	0.814400900238731 	1.22865470042588e-05 	0
2 	2.55719136715571 	-3.81639164714898e-17 	0.108600603474877 	0.0121759883441119 	0.836111435714547 	6.61954937345408e-06 	0
2 	2.57802043030466 	-3.81639164714898e-17 	0.108807660114121 	0.0118138049108536 	0.861633187891833 	5.99521224622446e-06 	0
2 	2.59811342810315 	-4.16333634234434e-17 	0.108999274230975 	0.0114750241389111 	0.89130520269134 	1.07435020936133e-05 	0
2 	2.61749637190832 	-3.81639164714898e-17 	0.109176518453936 	0.0111590930102408 	0.925522232585689 	2.13118125429839e-05 	0
2 	2.63619435387806 	-3.46944695195361e-17 	0.109340397779275 	0.0108656242089631 	0.964738971294936 	3.82670506180305e-05 	0
2 	2.65423157945406 	-3.81639164714898e-17 	0.109491852676903 	0.0105943743883709 	1.00947427342941 	6.22965516653486e-05 	0
2 	2.67163139869691 	-4.16333634234434e-17 	0.109631762069736 	0.0103452195676992 	1.06031512646743 	9.42066934256538e-05 	0
2 	2.68841633651388 	-4.16333634234434e-17 	0.109760946204333 	0.0101181266939588 	1.11792012899836 	0.000134917986102378 	0
2 	2.70460812181851 	-4.16333634234434e-17 	0.109880169441183 	0.00991312055984696 	1.18302226077557 	0.000185455501790144 	0
2 	2.72022771565972 	-4.16333634234434e-17 	0.109990142997925 	0.00973024564757878 	1.25643083625833 	0.00024693387590452 	0
2 	2.73529533835695 	-4.16333634234434e-17 	0.110091527678091 	0.00956952310412165 	1.33903274754283 	0.000320536864707212 	0
2 	2.74983049567626 	-3.81639164714898e-17 	0.110184936611281 	0.00943090394467192 	1.43179345564823 	0.000407492635037752 	0
2 	2.76385200408157 	-3.46944695195361e-17 	0.110270938018243 	0.00931422066486153 	1.5357586977788 	0.000509047562980812 	0
2 	2.77737801509344 	-3.81639164714898e-17 	0.110350057996759 	0.00921914057057204 	1.65205853135171 	0.000626443159717231 	0
2 	2.79042603878708 	-3.81639164714898e-17 	0.110422783303271 	0.00914512507340715 	1.78191608270642 	0.000760902506492353 	0
2 	2.80301296646003 	-3.46944695195361e-17 	0.11048956408368 	0.00909139966100353 	1.92666411732395 	0.000913633839122659 	0
2 	2.81515509249873 	-3.46944695195361e-17 	0.110550816488422 	0.0090569389611546 	2.08777318031794 	0.00108585925168834 	0
2 	2.82686813547238 	-3.46944695195361e-17 	0.110606925096009 	0.00904047011585763 	2.26689546069724 	0.00127887562701012 	0
2 	2.83816725848143 	-3.12250225675825e-17 	0.110658245069041 	0.00904049560478432 	2.46592865773525 	0.0014941528927686 	0
2 	2.84906708878692 	-2.77555756156289e-17 	0.11070510397961 	0.00905533398242886 	2.68710402387964 	0.00173347195016943 	0
2 	2.85958173674617 	-2.77555756156289e-17 	0.110747803267557 	0.00908317418293902 	2.93310260436725 	0.00199910179656114 	0
2 	2.86972481407933 	-2.77555756156289e-17 	0.110786619333732 	0.00912213662656418 	3.20720378190759 	0.00229401317222135 	0
2 	2.87950945149043 	-2.42861286636753e-17 	0.110821804311845 	0.00917033275774609 	3.51347092916435 	0.00262212496205519 	0
2 	2.88894831566567 	-2.08166817117217e-17 	0.110853586585758 	0.00922591405735732 	3.85698065893461 	0.00298857953534713 	0
2 	2.89805362567107 	-2.08166817117217e-17 	0.110882171163138 	0.00928710194007487 	4.24410524271581 	0.00340004354658565 	0
2 	2.90683716877067 	-2.08166817117217e-17 	0.110907740341924 	0.00935219103130668 	4.68286274411889 	0.00386503016139684 	0
2 	2.9153103156857 	-2.08166817117217e-17 	0.110930455571108 	0.00941951987961417 	5.18335714119519 	0.00439423541430888 	0
2 	2.92348403531449 	-2.08166817117217e-17 	0.110950458471225 	0.00948740523867906 	5.75834292424831 	0.00500087377930531 	0
2 	2.9313689089323 	-1.73472347597681e-17 	0.110967859278115 	0.00955403929936131 	6.42396880676669 	0.00570099779952686 	0
2 	2.93897514388925 	-1.73472347597681e-17 	0.110982720840206 	0.00961735478867427 	7.2007890041331 	0.00651703770624342 	0
2 	2.94631258682425 	-2.08166817117217e-17 	0.110995226853014 	0.00967474878058638 	8.11546925452053 	0.00748493238802106 	0
2 	2.95339073641193 	-1.73472347597681e-17 	0.111005906255573 	0.00972234172080139 	9.20405212308196 	0.00864867072487938 	0
2 	2.96021875565916 	-1.38777878078145e-17 	0.111014868231441 	0.00975375394380529 	10.5152944150716 	0.010048106207285 	0
2 	2.96680548376697 	-1.38777878078145e-17 	0.11102167543359 	0.00975884656470193 	12.1095264549985 	0.0117337270890774 	0
2 	2.97315944757337 	-1.38777878078145e-17 	0.111026139559069 	0.00972174713543879 	14.0577770474207 	0.0137256860807684 	0
2 	2.97928887259171 	-1.38777878078145e-17 	0.111028329535581 	0.00961979360961715 	16.4484485157237 	0.0160284872318681 	0
2 	2.98520169365903 	-1.38777878078145e-17 	0.111028421888219 	0.00942215884598632 	19.3989651979123 	0.0186211146841574 	0
2 	2.99090556520807 	-1.38777878078145e-17 	0.111026679487846 	0.00908781093329273 	23.0751268931945 	0.0214203035306471 	0
2 	2.99640787117633 	-1.38777878078145e-17 	0.111023462946614 	0.00856342621094323 	27.7269935347404 	0.0242078300898495 	0
2 	3.00171573456492 	-1.38777878078145e-17 	0.111019221064147 	0.00778401285323637 	33.7635252180761 	0.0265303565986953 	0
2 	3.00683602665963 	-1.73472347597681e-17 	0.111014423475544 	0.00668172985980268 	41.9413948143101 	0.027575513349694 	0
2 	3.01177537592613 	-2.42861286636753e-17 	0.111009557772693 	0.00521013123089689 	53.9287821532545 	0.0257085450961901 	0
2 	3.01654017659085 	-2.77555756156289e-17 	0.111005285101558 	0.00343647853067096 	74.2607016750724 	0.0187306194630309 	0
2 	3.02113659691864 	-2.77555756156289e-17 	0.111002104507599 	0.00173512535153811 	118.597775240794 	0.00903001461808745 	0
2 	3.02557058719784 	-3.12250225675825e-17 	0.110999833302104 	0.000602559246934605 	258.33739757626 	0.00244394938575816 	0
2 	3.02984788744324 	-3.46944695195361e-17 	0.110997940961458 	0.000126794134121535 	1051.88003879994 	0.000314369714527857 	0
