6 	0.00391112967796265 	0 	0.232160384557808 	1.709670125884e-05 	869.672123548572 	3.90273520898144e-07 	2.00369819072279e-38
6 	0.0118766651674913 	-3.46944695195361e-18 	0.232157153941485 	0.000227977300909833 	213.58304646395 	4.71491622196912e-06 	0
6 	0.020134001548576 	-6.93889390390723e-18 	0.232149493938806 	0.00121645907346045 	57.524547880256 	1.2001902962592e-05 	0
6 	0.0286938283423949 	-6.93889390390723e-18 	0.232131384407849 	0.00330822378507114 	24.4272415412491 	1.32508247429062e-05 	0
6 	0.0375672266585909 	-1.04083408558608e-17 	0.232093316322029 	0.00572967520262977 	13.5100196538619 	9.90228233550353e-05 	0
6 	0.0467656835403032 	-1.73472347597681e-17 	0.23203160560626 	0.00788726618963352 	8.97607113113659 	0.000227775900704589 	0
6 	0.0563011068347005 	-1.73472347597681e-17 	0.231950610257195 	0.00972755075081662 	6.69815033432184 	0.000348920608157798 	0
6 	0.0661858406082647 	-1.38777878078145e-17 	0.231856063628248 	0.0113320474459988 	5.37104666072831 	0.000461487283909466 	0
6 	0.0764326811267816 	-2.08166817117217e-17 	0.231751581879854 	0.0127719026845293 	4.51363043896318 	0.000571730790345448 	0
6 	0.0870548934207257 	-2.42861286636753e-17 	0.231639304489503 	0.0140952794132401 	3.91869051830612 	0.000683584092987476 	0
6 	0.0980662284574838 	-2.08166817117217e-17 	0.231520843528661 	0.0153344239769088 	3.48454302394475 	0.00079933071687658 	0
6 	0.109480940942647 	-2.08166817117217e-17 	0.231397587333417 	0.0165116377104412 	3.15597212330478 	0.00092046970916707 	0
6 	0.121313807773416 	-2.08166817117217e-17 	0.231270760663117 	0.0176429483482325 	2.90056112235401 	0.00104815034448372 	0
6 	0.13358014716801 	-1.73472347597681e-17 	0.231141465383477 	0.0187402981592864 	2.69808118178742 	0.00118337713191057 	0
6 	0.146295838495838 	-1.04083408558608e-17 	0.231010717279543 	0.0198128793379955 	2.5352812963446 	0.00132710948417103 	0
6 	0.159477342834115 	-1.04083408558608e-17 	0.2308794681969 	0.0208679735880285 	2.4031343316994 	0.00148031236515193 	0
6 	0.173141724277517 	-1.38777878078145e-17 	0.230748617566635 	0.0219115561299933 	2.29529047458655 	0.00164399508017993 	0
6 	0.18730667202848 	-1.38777878078145e-17 	0.230619018107449 	0.0229484508131017 	2.20716326041673 	0.00181922624695869 	0
6 	0.201990523296728 	-1.38777878078145e-17 	0.230491476350401 	0.0239826486303783 	2.13536602245588 	0.00200715234360216 	0
6 	0.217212287037676 	-1.38777878078145e-17 	0.230366750635878 	0.0250174857187294 	2.07735174012548 	0.00220900372571288 	0
6 	0.232991668560441 	-1.04083408558608e-17 	0.230245547976255 	0.026055743159792 	2.03117519756712 	0.00242609787807321 	0
6 	0.249349095037321 	0 	0.230128519570755 	0.0270997051690908 	1.9953312948808 	0.00265983888208826 	0
6 	0.266305741947753 	3.46944695195361e-18 	0.230016255419127 	0.0281511857783099 	1.96864216574115 	0.00291171170634084 	0
6 	0.283883560490999 	-3.46944695195361e-18 	0.22990927840929 	0.0292115293378837 	1.95017632213455 	0.00318327010789793 	0
6 	0.30210530600303 	-6.93889390390723e-18 	0.229808038125065 	0.0302815879316426 	1.93918921078432 	0.00347611654275122 	0
6 	0.320994567414414 	-1.04083408558608e-17 	0.229712904556242 	0.0313616773196815 	1.93507827112886 	0.00379187203711527 	0
6 	0.340575797787321 	-1.04083408558608e-17 	0.229624161872462 	0.0324515120689957 	1.93734787110773 	0.0041321334950219 	0
6 	0.360874345971201 	-3.46944695195361e-18 	0.229542002263612 	0.0335501199636053 	1.94558094087809 	0.00449841545063108 	0
6 	0.38191648941809 	-6.93889390390723e-18 	0.229466519093708 	0.0346557355502418 	1.95941505574248 	0.00489207286210717 	0
6 	0.403729468200046 	-1.04083408558608e-17 	0.229397698398414 	0.0357656727659127 	1.97852133259039 	0.00531420067406843 	0
6 	0.426341520272733 	-1.04083408558608e-17 	0.229335415903604 	0.0368761770603061 	2.00258491859673 	0.00576550291527541 	0
6 	0.449781918030829 	-2.08166817117217e-17 	0.229279463384018 	0.0379822584369046 	2.03128614731717 	0.00624612232497082 	0
6 	0.474081006202548 	-2.08166817117217e-17 	0.229229554599476 	0.0390775086049946 	2.06428167218165 	0.00675544705423048 	0
6 	0.499270241132364 	-1.38777878078145e-17 	0.229184917958833 	0.0401539072737815 	2.1011850585378 	0.00729197254894063 	0
6 	0.525382231502763 	-1.38777878078145e-17 	0.229143404929912 	0.0412016222523184 	2.14154634150864 	0.00785327597599267 	0
6 	0.552450780547767 	-1.04083408558608e-17 	0.229105048084815 	0.0422088055992237 	2.18482998593579 	0.00845442671787074 	0
6 	0.58051092981285 	-3.46944695195361e-18 	0.229088110976552 	0.0431623426708249 	2.23044567208136 	0.00916217815150447 	0
6 	0.609599004517911 	3.46944695195361e-18 	0.229125096404184 	0.0440505598242875 	2.27781166531616 	0.00993876294315677 	0
6 	0.639752660582033 	6.93889390390723e-18 	0.229204072098139 	0.0448544781979282 	2.3254791290936 	0.0107711166064854 	0
6 	0.671010933370887 	1.04083408558608e-17 	0.229272407110167 	0.0455325593186459 	2.37017782794593 	0.0115620392852981 	0
6 	0.703414288229901 	1.04083408558608e-17 	0.229300429108859 	0.0460300144704723 	2.40751308560965 	0.0122049395396616 	0
6 	0.737004672868606 	3.46944695195361e-18 	0.229286979942195 	0.0462956913021907 	2.43327748150115 	0.0126490075905503 	0
6 	0.771825571663976 	0 	0.229239822870989 	0.0462910285425771 	2.44426298867484 	0.0128896020665795 	0
6 	0.807922061953054 	-3.46944695195361e-18 	0.229164165011707 	0.0459909288207098 	2.43843979777073 	0.0129365794076164 	0
6 	0.845340872387742 	-1.04083408558608e-17 	0.229059928163377 	0.0453819946186256 	2.41482344743373 	0.0127949639055943 	0
6 	0.884130443427309 	-1.38777878078145e-17 	0.22892274564865 	0.0444620336108701 	2.373280283054 	0.0124623727236583 	0
6 	0.924340990046898 	-1.38777878078145e-17 	0.228745941155534 	0.0432416585642551 	2.31436743283081 	0.0119372529103059 	0
6 	0.966024566743242 	-6.93889390390723e-18 	0.228522264389131 	0.0417466659420929 	2.23923893753788 	0.0112291589415572 	0
6 	1.00923513492173 	-6.93889390390723e-18 	0.228244963019906 	0.040019229837933 	2.14962044434691 	0.0103647370494995 	0
6 	1.05402863275205 	-3.46944695195361e-18 	0.227908265446843 	0.0381164323068246 	2.04782202386356 	0.00938706971652031 	0
6 	1.10046304758287 	6.93889390390723e-18 	0.227507482659244 	0.0361071022409896 	1.93702696035448 	0.008349851655336 	0
6 	1.14068170193516 	1.21430643318376e-17 	0.227120352452413 	0.0343973015909352 	1.84069074491173 	0.00747604132513189 	0
6 	1.16518232990006 	1.56125112837913e-17 	0.22686899816222 	0.033381153340781 	1.78283543032531 	0.00696264463829091 	0
6 	1.19849727668994 	2.08166817117217e-17 	0.226502013572968 	0.0320758338718122 	1.70785609656007 	0.00631951440371612 	0
6 	1.25022400101563 	2.77555756156289e-17 	0.225895710095137 	0.0301808374700904 	1.59752808092505 	0.00541751632117008 	0
6 	1.30384562673185 	3.12250225675825e-17 	0.225221700054185 	0.0284110785635184 	1.4917371608465 	0.00462639015348731 	0
6 	1.35943156962565 	4.5102810375397e-17 	0.224482865161902 	0.0267755934168158 	1.39092350141722 	0.00395042250156926 	0
6 	1.41705378838763 	5.20417042793042e-17 	0.223683109309467 	0.0252712457151459 	1.29569128429133 	0.00338067486107031 	0
6 	1.47678687776592 	5.20417042793042e-17 	0.222827075964464 	0.0238855615449919 	1.20647534581498 	0.00290174546730475 	0
6 	1.53870816513278 	5.55111512312578e-17 	0.221922868319924 	0.0225967680361281 	1.12268805036218 	0.00249681473513118 	0
6 	1.60289781058851 	5.55111512312578e-17 	0.220985298646234 	0.0213742458155611 	1.04234398795705 	0.00214740742326992 	0
6 	1.66943891073267 	5.55111512312578e-17 	0.220025610922431 	0.0201904944856258 	0.964689257191148 	0.00183199319472478 	0
6 	1.73841760623657 	4.85722573273506e-17 	0.219036906327201 	0.0190327203577842 	0.892141448968314 	0.00154702787848191 	0
6 	1.8099231933566 	4.5102810375397e-17 	0.218011350052933 	0.0178967557012584 	0.828332383119672 	0.00129016042622208 	0
6 	1.88404823953249 	4.68375338513738e-17 	0.216952151747886 	0.0167752455763881 	0.774593306603578 	0.00105917063357237 	0
6 	1.96088870322038 	5.20417042793042e-17 	0.2158970564321 	0.0156869127846986 	0.731079664618737 	0.000857290696925618 	0
6 	2.02025965173185 	5.89805981832114e-17 	0.215077160851664 	0.0148287942353946 	0.703287056834227 	0.000713913165349629 	0
6 	2.06006301192217 	5.89805981832114e-17 	0.214501794333259 	0.014229474542261 	0.686702185152064 	0.000619698714515244 	0
6 	2.09845978584128 	5.89805981832114e-17 	0.213982229733479 	0.0136868424201008 	0.673887934633569 	0.000539509886509944 	0
6 	2.13549967996946 	5.89805981832114e-17 	0.213487023687117 	0.0131700334353108 	0.663732104972153 	0.000466783098122561 	0
6 	2.17123064424048 	5.89805981832114e-17 	0.213015947040057 	0.0126780687259641 	0.656112464292138 	0.000400732994832245 	0
6 	2.20569893411516 	5.89805981832114e-17 	0.212568302824443 	0.0122101160770869 	0.650953122769163 	0.000340872966153481 	0
6 	2.23894917046123 	6.24500451351651e-17 	0.212143179110343 	0.0117654381732666 	0.64821541823454 	0.000286793388356477 	0
6 	2.27102439731726 	6.41847686111419e-17 	0.211739684512458 	0.0113433646744102 	0.647892558365222 	0.000238156346970504 	0
6 	2.30196613761522 	6.41847686111419e-17 	0.211356957647214 	0.010943279377314 	0.650006784376346 	0.000194688794490802 	0
6 	2.33181444693392 	6.24500451351651e-17 	0.210994160968217 	0.0105646167684543 	0.654608273573846 	0.000156177327839473 	0
6 	2.3606079653529 	5.89805981832114e-17 	0.210650483635554 	0.0102068641958084 	0.66177529130749 	0.000122466513593523 	0
6 	2.38838396747391 	5.89805981832114e-17 	0.210325144079853 	0.00986956706897696 	0.671615287927303 	9.34595035982393e-05 	0
6 	2.41517841067461 	5.89805981832114e-17 	0.210017390597305 	0.00955233533418193 	0.684266757192467 	6.91200893293649e-05 	0
6 	2.44102598165722 	6.07153216591882e-17 	0.209726500735466 	0.00925485004666162 	0.69990174970566 	4.9475805621963e-05 	0
6 	2.46596014135208 	6.24500451351651e-17 	0.209451779922089 	0.00897686923451196 	0.718728981348737 	3.46218574050171e-05 	0
6 	2.49001316823444 	6.24500451351651e-17 	0.209192559574361 	0.00871823247119206 	0.740997501083717 	2.47257077368001e-05 	0
6 	2.51321620011054 	6.24500451351651e-17 	0.208948194882549 	0.00847886369381863 	0.76700089015577 	2.00321934670424e-05 	0
6 	2.535599274427 	6.24500451351651e-17 	0.208718062433993 	0.00825877185596778 	0.797081958623749 	2.08690362187835e-05 	0
6 	2.55719136715571 	6.24500451351651e-17 	0.20850155781256 	0.00805804901524534 	0.831637886744514 	2.76525999227441e-05 	0
6 	2.57802043030466 	6.24500451351651e-17 	0.208298093282638 	0.00787686545154609 	0.871125728873044 	4.08937206771402e-05 	0
6 	2.59811342810315 	6.41847686111419e-17 	0.208107095646693 	0.00771546141332217 	0.916068157046412 	6.1203407111522e-05 	0
6 	2.61749637190832 	6.41847686111419e-17 	0.207928004350376 	0.00757413511592966 	0.967059271819664 	8.92981842094358e-05 	0
6 	2.63619435387806 	6.41847686111419e-17 	0.207760269897425 	0.00745322668521075 	1.02477025211621 	0.000126004831887597 	0
6 	2.65423157945406 	6.07153216591882e-17 	0.207603352626626 	0.00735309786363669 	1.08995455881438 	0.000172264248029643 	0
6 	2.67163139869691 	5.3776427755281e-17 	0.207456721892631 	0.00727410748178005 	1.16345235622678 	0.000229134135067365 	0
6 	2.68841633651388 	5.20417042793042e-17 	0.207319855679659 	0.0072165829421154 	1.24619378262355 	0.000297790156066133 	0
6 	2.70460812181851 	5.20417042793042e-17 	0.207192240660681 	0.00718078825305791 	1.33920070053151 	0.000379525116997104 	0
6 	2.72022771565972 	5.03069808033274e-17 	0.207073372694003 	0.00716688946825703 	1.44358660914294 	0.000475745600941476 	0
6 	2.73529533835695 	4.85722573273506e-17 	0.20696275772491 	0.00717491870437506 	1.56055452865926 	0.000587965320341857 	0
6 	2.74983049567626 	4.85722573273506e-17 	0.206859913036806 	0.00720473820556276 	1.69139289680705 	0.000717794304712255 	0
6 	2.76385200408157 	5.03069808033274e-17 	0.206764368787288 	0.00725600617583211 	1.83746987688582 	0.000866922966321298 	0
6 	2.77737801509344 	4.85722573273506e-17 	0.206675669750092 	0.00732814630014014 	2.00022697908045 	0.00103710013952324 	0
6 	2.79042603878708 	4.5102810375397e-17 	0.206593377007567 	0.00742032301565287 	2.18117352917965 	0.0012301043367145 	0
6 	2.80301296646003 	4.5102810375397e-17 	0.206517069098097 	0.00753142467641665 	2.38188422345683 	0.00144770749569658 	0
6 	2.81515509249873 	4.68375338513738e-17 	0.206446343939612 	0.00766005679551615 	2.60400268789692 	0.00169163008675822 	0
6 	2.82686813547238 	5.03069808033274e-17 	0.206380827869899 	0.00780454762312243 	2.84925454805838 	0.00196348554122627 	0
6 	2.83816725848143 	5.20417042793042e-17 	0.206320180693934 	0.00796296863511961 	3.11947416765373 	0.00226482739196541 	0
6 	2.84906708878692 	5.20417042793042e-17 	0.206263996591924 	0.00813317428893638 	3.4166599707322 	0.00260165937489206 	0
6 	2.85958173674617 	5.20417042793042e-17 	0.206211654940272 	0.00831289825241723 	3.74346450677443 	0.00299461627933833 	0
6 	2.86972481407933 	5.03069808033274e-17 	0.206162621493078 	0.00849994154486756 	4.10486292840177 	0.00343516909112291 	0
6 	2.87950945149043 	4.33680868994202e-17 	0.20611711471638 	0.0086915083934569 	4.50554750959628 	0.00393967702163248 	0
6 	2.88894831566567 	3.81639164714898e-17 	0.206075495398056 	0.00888141359899086 	4.94612132927208 	0.00448970133729097 	0
6 	2.89805362567107 	3.81639164714898e-17 	0.206037543741692 	0.00906183685118097 	5.42506889680479 	0.00506890944445883 	0
6 	2.90683716877067 	3.81639164714898e-17 	0.206002840903025 	0.00922491466587827 	5.94090299094083 	0.00566798739946235 	0
6 	2.9153103156857 	3.81639164714898e-17 	0.205971035340947 	0.00936346361063614 	6.49355143909684 	0.00628185555173661 	0
6 	2.92348403531449 	3.64291929955129e-17 	0.205941871516808 	0.0094711554377726 	7.08524067121528 	0.00690796271108611 	0
6 	2.9313689089323 	3.81639164714898e-17 	0.205915159973901 	0.00954240744659649 	7.72114334865118 	0.00754550338701743 	0
6 	2.93897514388925 	4.16333634234434e-17 	0.205890756545109 	0.00957214532154441 	8.41002267270584 	0.00819525702396223 	0
6 	2.94631258682425 	4.16333634234434e-17 	0.205868552781449 	0.00955550266439139 	9.16507469116187 	0.00885976757577199 	0
6 	2.95339073641193 	4.16333634234434e-17 	0.205848470886288 	0.00948745241673341 	10.0053498771294 	0.00954358464924237 	0
6 	2.96021875565916 	4.16333634234434e-17 	0.205830460160216 	0.00936231974091098 	10.9583385841994 	0.0102532029278003 	0
6 	2.96680548376697 	4.16333634234434e-17 	0.205814493967271 	0.00917324694532694 	12.060845055968 	0.0109963642812947 	0
6 	2.97315944757337 	4.16333634234434e-17 	0.205800565096004 	0.00891145355589942 	13.3638925634298 	0.0117800291830148 	0
6 	2.97928887259171 	3.81639164714898e-17 	0.205788675201624 	0.00856506615040908 	14.9416379066421 	0.0126055506580995 	0
6 	2.98520169365903 	3.64291929955129e-17 	0.205778816146942 	0.00811782305592058 	16.9031654266858 	0.0134589655510085 	0
6 	2.99090556520807 	4.16333634234434e-17 	0.205770952531433 	0.00754781315879428 	19.4138446211096 	0.0142928797654247 	0
6 	2.99640787117633 	4.5102810375397e-17 	0.205765027861287 	0.006826492214949 	22.7364690278951 	0.0149993698501723 	0
6 	3.00171573456492 	4.33680868994202e-17 	0.205760967712581 	0.00591841240665769 	27.3180216973301 	0.0153219026514951 	0
6 	3.00683602665963 	4.16333634234434e-17 	0.205758497302377 	0.00478648705924216 	33.9898854475649 	0.0145232605480646 	0
6 	3.01177537592613 	4.16333634234434e-17 	0.205757163595708 	0.00344419763436879 	44.5040270679349 	0.0117673501970686 	0
6 	3.01654017659085 	4.16333634234434e-17 	0.205756532323423 	0.00204925975785724 	63.4293734716555 	0.00703414785285091 	0
6 	3.02113659691864 	3.81639164714898e-17 	0.205756272726454 	0.00092353073440451 	105.716235061623 	0.00261239571200225 	0
6 	3.02557058719784 	3.46944695195361e-17 	0.20575624574112 	0.000288138223253387 	234.009011351563 	0.000529907245517546 	0
6 	3.02984788744324 	3.46944695195361e-17 	0.205756429549634 	5.37484309476377e-05 	893.914408146351 	5.19455279891927e-05 	0
