2 	0.0664216437126051 	2.77555756156289e-17 	-0.0112132891040418 	0.00339386615853369 	1.73689486314519e-17
2 	0.0743099414758449 	2.42861286636753e-17 	-0.0340362417594652 	0.0103281476749295 	4.29728341668847e-17
2 	0.0824857562919155 	1.73472347597681e-17 	-0.0574671201966158 	0.0175596957334044 	3.06435914443507e-17
2 	0.0909595122039638 	1.38777878078145e-17 	-0.0806969784763761 	0.0248895500370214 	4.34550514841083e-18
2 	0.0997420070153233 	1.38777878078145e-17 	-0.101675577070181 	0.0317138356464879 	-3.30205148612726e-18
2 	0.108844425376383 	2.08166817117217e-17 	-0.118130665636694 	0.0373255481444661 	2.3940328389462e-18
2 	0.118278352305667 	2.77555756156289e-17 	-0.129516040521203 	0.0415069084169478 	1.68169009841931e-19
2 	0.128055787157649 	2.77555756156289e-17 	-0.136822893862453 	0.0445161041929742 	2.30305070471349e-20
2 	0.138189158050046 	2.77555756156289e-17 	-0.141285310253109 	0.0467097273608442 	-1.30652757706315e-18
2 	0.148691336763498 	3.46944695195361e-17 	-0.143813904629966 	0.0483573243741646 	1.03947235394984e-18
2 	0.15957565412677 	4.16333634234434e-17 	-0.144989199539659 	0.0496309648610801 	3.11153970006741e-20
2 	0.170855915900726 	4.16333634234434e-17 	-0.145171714867245 	0.0506370495805762 	4.08880069053993e-20
2 	0.18254641917452 	4.16333634234434e-17 	-0.144588821683107 	0.0514425641591463 	-1.08678180087305e-20
2 	0.194661969287546 	4.16333634234434e-17 	-0.143387701449509 	0.0520909885372702 	-2.90072309255562e-20
2 	0.207217897290811 	4.5102810375397e-17 	-0.141665949754227 	0.0526113637237952 	2.16263521954273e-20
2 	0.220230077961468 	3.81639164714898e-17 	-0.139489359907517 	0.0530234992210409 	-4.39714366695995e-21
2 	0.233714948384304 	2.77555756156289e-17 	-0.136902523771245 	0.0533410406997908 	-5.45971936982472e-19
2 	0.247689527113999 	2.77555756156289e-17 	-0.13393534898314 	0.0535733261882205 	1.06118936399683e-18
2 	0.262171433931949 	3.12250225675825e-17 	-0.130607186994458 	0.0537265350547854 	1.92990055525467e-20
2 	0.277178910211394 	3.81639164714898e-17 	-0.126929514668341 	0.0538044090256248 	-5.06544659741756e-19
2 	0.292730839904512 	4.5102810375397e-17 	-0.122907706217104 	0.0538087029777785 	-1.45737171438439e-20
2 	0.308846771164956 	4.85722573273506e-17 	-0.118542206539353 	0.0537394561129393 	1.9607599070415e-23
2 	0.325546938619131 	4.85722573273506e-17 	-0.113829285799725 	0.0535951357501734 	-4.29736480678327e-21
2 	0.34285228629926 	4.5102810375397e-17 	-0.108761473313197 	0.053372682990115 	2.35132533460133e-19
2 	0.360784491250926 	4.44522890719057e-17 	-0.103325167281778 	0.0530630000062526 	-1.99058202567833e-19
2 	0.379365987827405 	4.18502038579405e-17 	-0.097501075210352 	0.0526524392410141 	-2.14419270057847e-19
2 	0.398619992682607 	3.68628738645072e-17 	-0.0912759578237352 	0.0521435617740036 	2.25526463594745e-21
2 	0.418570530473901 	3.51281503885303e-17 	-0.084625259879419 	0.0515257876912146 	-2.26202137726181e-18
2 	0.439242460285389 	3.64291929955129e-17 	-0.0775173883347162 	0.0507859006912221 	-3.16358637878993e-18
2 	0.460661502781484 	4.25007251614318e-17 	-0.0699108594431922 	0.0499074939854865 	3.66939554373437e-18
2 	0.482854268099713 	4.33680868994202e-17 	-0.0617496850996259 	0.0488702397493545 	4.30091771195795e-18
2 	0.505848284490675 	4.85722573273506e-17 	-0.0529559056156017 	0.0476489423183545 	-2.81608263981321e-20
2 	0.529672027711962 	5.46437894932694e-17 	-0.0434173552813892 	0.0462125242629213 	-1.68403975011893e-19
2 	0.554354951181479 	5.29090660172926e-17 	-0.0329676039191956 	0.044523490062116 	3.35272378520624e-19
2 	0.579927516894232 	5.20417042793042e-17 	-0.0213572393846313 	0.0425378976760148 	1.42365273977819e-21
2 	0.606421227104929 	4.85722573273506e-17 	-0.00823792858681289 	0.0402046998613946 	-1.84001423165486e-19
2 	0.633868656776939 	4.16333634234434e-17 	0.00680923595796019 	0.0374728318754908 	-4.85006618345697e-20
2 	0.662303486796109 	3.64291929955129e-17 	0.0242477834718916 	0.0343010537264189 	-1.37977640596765e-19
2 	0.691760537945634 	4.16333634234434e-17 	0.044621356545553 	0.0306562927527737 	3.19325400934872e-19
2 	0.722275805635659 	5.20417042793042e-17 	0.0687156661606646 	0.0264995790302449 	-1.43248500483989e-19
2 	0.753886495378464 	5.89805981832114e-17 	0.0981287906084284 	0.0217335085833865 	-4.39119570256133e-17
2 	0.786631058997021 	6.59194920871187e-17 	0.13520877509088 	0.0162174924259226 	-1.18677488053971e-16
2 	0.82054923155121 	5.89805981832114e-17 	0.181730670734846 	0.0100207951441536 	1.05498995211162e-16
2 	0.855682068962276 	5.20417042793042e-17 	0.237823793786133 	0.00349287248051841 	5.52604127194246e-17
2 	0.892071986311896 	5.20417042793042e-17 	0.302020474619388 	-0.00281106489912524 	5.69860566551894e-20
2 	0.928081053775882 	4.85722573273506e-17 	0.36889023398377 	-0.00807224517045668 	4.49822694418487e-20
2 	0.947260911195196 	4.5102810375397e-17 	0.40509276646536 	-0.0105287546728547 	1.82595062374915e-21
2 	0.968848502846582 	4.5102810375397e-17 	0.445816855092892 	-0.012502929610145 	4.27373058621828e-20
2 	1.00935908655054 	3.81639164714898e-17 	0.52130693613563 	-0.0152335320531835 	-1.62503238484912e-20
2 	1.05130628800602 	2.42861286636753e-17 	0.595369005207789 	-0.0164880232719545 	-1.48536669188192e-19
2 	1.09473925151454 	2.77555756156289e-17 	0.663534679096646 	-0.0166147614498198 	6.26416732790429e-20
2 	1.1397086678108 	2.77555756156289e-17 	0.722127486988365 	-0.0161397025236235 	1.21351678082154e-20
2 	1.18626681244448 	1.38777878078145e-17 	0.769928293671134 	-0.0155468864937126 	5.55026794740275e-21
2 	1.23446758427968 	3.46944695195361e-18 	0.80811366987582 	-0.0151365268007602 	1.40521530716223e-20
2 	1.28436654402848 	-6.93889390390723e-18 	0.839110860055145 	-0.0150053427973655 	6.71029805822315e-20
2 	1.33602095272612 	-1.04083408558608e-17 	0.865420884039766 	-0.0151138194409321 	-1.09646457738293e-19
2 	1.38948981004627 	-1.04083408558608e-17 	0.888984903195958 	-0.0153628182403162 	5.08604800441249e-20
2 	1.44483389234439 	-1.73472347597681e-17 	0.911061804385223 	-0.0156464913597461 	1.8365097945513e-20
2 	1.50211579030683 	-2.90566182226115e-17 	0.932340614207685 	-0.0158779843521974 	3.18971788458025e-20
2 	1.56139994607132 	-4.11996825544492e-17 	0.953098001117327 	-0.015997684809411 	-2.81280545862192e-20
2 	1.62275268967252 	-4.59701721133854e-17 	0.973358110211827 	-0.0159757786935067 	-6.53973413347868e-22
2 	1.68624227465269 	-4.9439619065339e-17 	0.993015005963881 	-0.0158059148354899 	-2.05299062271612e-20
2 	1.7519389126638 	-5.20417042793042e-17 	1.01191192834119 	-0.0154917747306595 	6.17034673818108e-20
2 	1.81991480687205 	-5.03069808033274e-17 	1.02988853930297 	-0.0150427057071055 	2.40697858935269e-20
2 	1.89024418395974 	-5.20417042793042e-17 	1.04679076079095 	-0.0144727916509239 	-4.72435774703524e-21
2 	1.96300332450249 	-4.85722573273506e-17 	1.06186237007018 	-0.0138318071207922 	-8.55203187498819e-21
2 	2.02025965173184 	-4.16333634234434e-17 	1.07293120322514 	-0.013273105565989 	-7.19813748230557e-22
2 	2.06006301192217 	-4.16333634234434e-17 	1.0805933413528 	-0.0128285115595713 	0
2 	2.09845978584128 	-4.16333634234434e-17 	1.08691565273053 	-0.0124193323312689 	0
2 	2.13549967996945 	-4.16333634234434e-17 	1.09254992071581 	-0.012023343659004 	0
2 	2.17123064424048 	-4.16333634234434e-17 	1.09755747280392 	-0.0116397187961351 	0
2 	2.20569893411515 	-4.16333634234434e-17 	1.10199311851322 	-0.0112696069001502 	0
2 	2.23894917046122 	-4.16333634234434e-17 	1.10590546253675 	-0.0109136882254446 	0
2 	2.27102439731725 	-4.16333634234434e-17 	1.10933726191212 	-0.0105720986568982 	0
2 	2.30196613761521 	-4.5102810375397e-17 	1.11232579745993 	-0.0102446344901796 	0
2 	2.33181444693391 	-4.5102810375397e-17 	1.1149032467263 	-0.00993087070582884 	0
2 	2.3606079653529 	-3.81639164714898e-17 	1.1170970475725 	-0.00963023463004398 	0
2 	2.3883839674739 	-3.12250225675825e-17 	1.11893024407295 	-0.00934206472686537 	0
2 	2.41517841067461 	-2.77555756156289e-17 	1.12042180918416 	-0.00906565645769218 	0
2 	2.44102598165722 	-2.42861286636753e-17 	1.12158694119336 	-0.00880029608367927 	0
2 	2.46596014135207 	-2.42861286636753e-17 	1.12243733343131 	-0.00854528463036145 	0
2 	2.49001316823443 	-2.42861286636753e-17 	1.12298141919317 	-0.00829995420707796 	0
2 	2.51321620011054 	-2.42861286636753e-17 	1.12322459619021 	-0.00806367852761716 	0
2 	2.535599274427 	-2.77555756156289e-17 	1.12316943705714 	-0.00783587915460386 	0
2 	2.55719136715571 	-2.42861286636753e-17 	1.12281589434553 	-0.0076160286820145 	0
2 	2.57802043030465 	-2.08166817117217e-17 	1.1221615098782 	-0.00740365177414959 	0
2 	2.59811342810315 	-2.08166817117217e-17 	1.12120163908081 	-0.00719832470534246 	0
2 	2.61749637190832 	-2.08166817117217e-17 	1.11992970061735 	-0.00699967379864691 	0
2 	2.63619435387806 	-2.42861286636753e-17 	1.1183374599386 	-0.00680737294648193 	0
2 	2.65423157945406 	-3.12250225675825e-17 	1.1164153518083 	-0.00662114021512637 	0
2 	2.67163139869691 	-3.12250225675825e-17 	1.11415284121778 	-0.00644073339434053 	0
2 	2.68841633651388 	-3.12250225675825e-17 	1.11153881433687 	-0.00626594426287782 	1.8261468792578e-16
2 	2.7046081218185 	-3.81639164714898e-17 	1.10856198173748 	-0.00609659131176306 	1.75331182466989e-16
2 	2.72022771565972 	-4.16333634234434e-17 	1.10521126610203 	-0.00593251070988392 	-1.97112315609753e-16
2 	2.73529533835694 	-4.16333634234434e-17 	1.10147613758247 	-0.00577354541401018 	-1.89828810150946e-16
2 	2.74983049567626 	-4.16333634234434e-17 	1.09734685381016 	-0.0056195325095609 	0
2 	2.76385200408157 	-4.5102810375397e-17 	1.0928145600347 	-0.00547028909657435 	0
2 	2.77737801509343 	-4.85722573273506e-17 	1.0878712090547 	-0.00532559727172554 	0
2 	2.79042603878708 	-5.20417042793042e-17 	1.08250927037548 	-0.00518518895987188 	0
2 	2.80301296646003 	-5.55111512312578e-17 	1.07672121192663 	-0.00504873147960792 	0
2 	2.81515509249872 	-5.55111512312578e-17 	1.0704987531488 	-0.00491581476380088 	0
2 	2.82686813547237 	-5.55111512312578e-17 	1.06383190233051 	-0.00478594109752374 	0
2 	2.83816725848142 	-5.55111512312578e-17 	1.05670780112149 	-0.00465851810494497 	0
2 	2.84906708878691 	-5.55111512312578e-17 	1.04910940358228 	-0.00453285555321682 	0
2 	2.85958173674616 	-5.55111512312578e-17 	1.04101401571975 	-0.00440816638997564 	0
2 	2.86972481407933 	-5.55111512312578e-17 	1.03239171523225 	-0.00428357233621918 	0
2 	2.87950945149043 	-5.55111512312578e-17 	1.02320366201773 	-0.0041581143805059 	0
2 	2.88894831566566 	-5.55111512312578e-17 	1.01340029999972 	-0.00403076868538228 	0
2 	2.89805362567106 	-5.55111512312578e-17 	1.00291944172907 	-0.00390046821553647 	0
2 	2.90683716877067 	-5.55111512312578e-17 	0.991684219717531 	-0.00376612874682686 	0
2 	2.91531031568569 	-5.55111512312578e-17 	0.97960088157282 	-0.00362668027156266 	0
2 	2.92348403531448 	-5.55111512312578e-17 	0.966556397301503 	-0.00348113185696705 	0
2 	2.93136890893229 	-5.55111512312578e-17 	0.952415771711125 	-0.00332873633407059 	0
2 	2.93897514388925 	-5.89805981832114e-17 	0.937003790245652 	-0.00316850071599474 	0
2 	2.94631258682425 	-5.89805981832114e-17 	0.920052879678789 	-0.00299808835329177 	0
2 	2.95339073641193 	-5.20417042793042e-17 	0.901201588564307 	-0.00281474908660186 	0
2 	2.96021875565915 	-4.85722573273506e-17 	0.880061204789431 	-0.00261641472047381 	0
2 	2.96680548376697 	-5.20417042793042e-17 	0.856239611040421 	-0.00240322247838136 	0
2 	2.97315944757337 	-5.55111512312578e-17 	0.829323777863985 	-0.00217715924833645 	0
2 	2.97928887259171 	-5.55111512312578e-17 	0.798852153679735 	-0.00194132696722961 	0
2 	2.98520169365902 	-5.89805981832114e-17 	0.764282527001844 	-0.0016997192653789 	0
2 	2.99090556520806 	-6.24500451351651e-17 	0.724945133039033 	-0.00145699322149653 	0
2 	2.99640787117633 	-6.24500451351651e-17 	0.679986768315952 	-0.00121811320332941 	0
2 	3.00171573456492 	-6.59194920871187e-17 	0.628346763638608 	-0.000988237157656481 	0
2 	3.00683602665962 	-6.93889390390723e-17 	0.568739052568159 	-0.000772455153488185 	0
2 	3.01177537592612 	-6.93889390390723e-17 	0.499578516454321 	-0.000574888964732555 	0
2 	3.01654017659085 	-6.59194920871187e-17 	0.419483422762368 	-0.000398679608930596 	0
2 	3.02113659691864 	-5.89805981832114e-17 	0.329450296587755 	-0.000248299718561413 	0
2 	3.02557058719784 	-5.55111512312578e-17 	0.234117369488375 	-0.000130820054509649 	0
2 	3.02984788744324 	-5.55111512312578e-17 	0.138737561158533 	-5.14453152553657e-05 	0
