3 	0.00391112967796268 	1.04083408558608e-17 	0.105696973182071 	3.011474231592e-05 	783.248199726974 	1.10602935725954e-05 	4.70295684873143e-38
3 	0.0118766651674915 	1.04083408558608e-17 	0.105695376968142 	0.000287286089739811 	290.781655426046 	0.00014185705680196 	0
3 	0.0201340015485761 	0 	0.105694410674034 	0.00122864684181125 	68.4795001564445 	0.000524984438746759 	0
3 	0.0286938283423949 	0 	0.105687178251135 	0.00304488916231423 	28.0981057077929 	0.000741253764245592 	0
3 	0.0375672266585908 	6.93889390390723e-18 	0.105671645778477 	0.0052349674703764 	15.1067567730939 	0.000439660977337368 	0
3 	0.0467656835403032 	3.46944695195361e-18 	0.105646997114789 	0.00730592231500408 	9.76059195216712 	0.000121155226705886 	0
3 	0.0563011068347005 	-3.46944695195361e-18 	0.105613731704651 	0.00912695021157582 	7.1530822002846 	2.87289886686411e-05 	0
3 	0.0661858406082648 	3.46944695195361e-18 	0.105573259668592 	0.0107354806690724 	5.67766712171431 	7.08280068658551e-05 	0
3 	0.0764326811267817 	1.38777878078145e-17 	0.105526962236627 	0.0121875058503192 	4.74396321262383 	0.000164943165408391 	0
3 	0.0870548934207257 	1.38777878078145e-17 	0.105475822390779 	0.0135257398903226 	4.10463989218631 	0.000279975320500184 	0
3 	0.0980662284574838 	2.77555756156289e-17 	0.105420533240873 	0.0147800839723845 	3.6418160962324 	0.000405324562812411 	0
3 	0.109480940942647 	3.81639164714898e-17 	0.105361638286379 	0.0159716535610856 	3.29301932145555 	0.000537429808010021 	0
3 	0.121313807773417 	3.12250225675825e-17 	0.105299595594573 	0.0171158040140513 	3.02226995083976 	0.000675316711039601 	0
3 	0.13358014716801 	3.12250225675825e-17 	0.105234805678197 	0.0182240693741281 	2.80745086980882 	0.000819063012910783 	0
3 	0.146295838495838 	2.77555756156289e-17 	0.10516762936493 	0.0193053840955155 	2.63424534153509 	0.00096922573578466 	0
3 	0.159477342834115 	2.42861286636753e-17 	0.105098400882731 	0.0203668661977057 	2.49299323988558 	0.00112661403970495 	0
3 	0.173141724277517 	2.42861286636753e-17 	0.105027437274363 	0.0214143323071805 	2.3769535274766 	0.00129219768829397 	0
3 	0.183614095490672 	2.3635607360184e-17 	0.104973747089876 	0.022187643084282 	2.30343990653116 	0.00142102779860701 	0
3 	0.190823961865322 	2.71050543121376e-17 	0.104937232354337 	0.0227050787831942 	2.26015763438334 	0.00151090883831361 	0
3 	0.201990523296728 	3.12250225675825e-17 	0.104881528057574 	0.0234859660058459 	2.20233632360443 	0.00165234778933121 	0
3 	0.217212287037675 	3.12250225675825e-17 	0.104807183956495 	0.0245178318357487 	2.13760307618643 	0.00184943853634472 	0
3 	0.232991668560441 	2.77555756156289e-17 	0.104732325559513 	0.0255514345438579 	2.08508078757467 	0.0020598135361958 	0
3 	0.249349095037321 	3.12250225675825e-17 	0.104657280216224 	0.026589631190851 	2.04323847769436 	0.00228509418201308 	0
3 	0.266305741947753 	3.12250225675825e-17 	0.104582398875665 	0.0276350107392622 	2.01090554000166 	0.00252707406831454 	0
3 	0.283883560490998 	2.77555756156289e-17 	0.104508066558498 	0.0286899427584826 	1.9871894171094 	0.00278774241034891 	0
3 	0.30210530600303 	3.46944695195361e-17 	0.104434715298531 	0.0297566133421997 	1.97141751995043 	0.00306931077471641 	0
3 	0.320994567414414 	3.46944695195361e-17 	0.104362840147429 	0.030837051422124 	1.96309600386118 	0.00337424343966072 	0
3 	0.340575797787321 	3.46944695195361e-17 	0.104293018907071 	0.031933147798355 	1.96188060881248 	0.00370529182202166 	0
3 	0.360874345971201 	4.85722573273506e-17 	0.104225936317965 	0.0330466686338598 	1.96755641008611 	0.00406553343522004 	0
3 	0.38191648941809 	5.55111512312578e-17 	0.104162413340939 	0.0341792647661648 	1.98002438598085 	0.00445841575085989 	0
3 	0.403729468200046 	4.85722573273506e-17 	0.10410344188775 	0.0353324778875173 	1.99929340500266 	0.00488780497741197 	0
3 	0.426341520272733 	4.16333634234434e-17 	0.104050226565695 	0.0365077443576615 	2.02547668762735 	0.00535803874348357 	0
3 	0.449781918030829 	3.81639164714898e-17 	0.104004241368096 	0.0377063970643109 	2.05879207016894 	0.00587398003220131 	0
3 	0.474081006202548 	4.16333634234434e-17 	0.103967306740832 	0.0389296652390239 	2.09956551111169 	0.0064410708851507 	0
3 	0.499270241132363 	4.16333634234434e-17 	0.103941606404114 	0.0401786711946121 	2.14823720838495 	0.00706539108440085 	0
3 	0.525382231502763 	3.46944695195361e-17 	0.103929420484919 	0.0414544203445855 	2.20536935342561 	0.00775371146994889 	0
3 	0.552450780547768 	3.81639164714898e-17 	0.103933152253019 	0.0427575859724796 	2.27165396858822 	0.00851345929316342 	0
3 	0.58051092981285 	4.5102810375397e-17 	0.103959702877187 	0.0440878473029014 	2.34791835423161 	0.00937566340059506 	0
3 	0.609599004517911 	4.85722573273506e-17 	0.104028128794253 	0.0454474918913503 	2.43525550501454 	0.0104724324558497 	0
3 	0.639752660582033 	5.20417042793042e-17 	0.104147396414009 	0.0468488633612782 	2.53567022068804 	0.0118416160188391 	0
3 	0.671010933370887 	5.55111512312578e-17 	0.10431373939141 	0.0483063429283228 	2.65093961994656 	0.0135255417862393 	0
3 	0.703414288229901 	5.89805981832114e-17 	0.104530971794986 	0.0497934364274064 	2.7784286594933 	0.0154336405157138 	0
3 	0.737004672868606 	6.24500451351651e-17 	0.104801485087536 	0.0512294870520149 	2.90879104510077 	0.0173338880250528 	0
3 	0.771825571663976 	5.89805981832114e-17 	0.105130616139606 	0.0525084695445217 	3.02861822339501 	0.0190422815618806 	0
3 	0.807922061953054 	5.55111512312578e-17 	0.105522042661925 	0.053530160187227 	3.12620721862476 	0.0204413233928155 	0
3 	0.845340872387743 	5.20417042793042e-17 	0.105973900654078 	0.0542160415532913 	3.19522412595684 	0.0214526314013588 	0
3 	0.884130443427309 	5.55111512312578e-17 	0.106479612417913 	0.0545103274248341 	3.23353682921954 	0.0220149424416128 	0
3 	0.924340990046898 	5.89805981832114e-17 	0.107031582898517 	0.054377284333281 	3.2405918768045 	0.0220831436410892 	0
3 	0.966024566743242 	5.6920614055489e-17 	0.107624918642816 	0.053800998549293 	3.21597769540633 	0.0216372416374308 	0
3 	1.00923513492173 	5.908901840046e-17 	0.108261824128727 	0.0527789495605816 	3.15850873124261 	0.020677077973843 	0
3 	1.05402863275206 	6.07153216591882e-17 	0.108944597926999 	0.0513488212068783 	3.06808727437206 	0.0192464751873992 	0
3 	1.10046304758287 	6.54858112181245e-17 	0.109676563122042 	0.049578441894985 	2.94575034248075 	0.0174212575407812 	0
3 	1.14859849100923 	7.02563007770607e-17 	0.110459270750925 	0.0475665219854057 	2.79473725509361 	0.01532215267841 	0
3 	1.19849727668995 	6.85215773010839e-17 	0.111287934281246 	0.0454396691178654 	2.62169354834177 	0.0131283398461743 	0
3 	1.25022400101563 	6.24500451351651e-17 	0.112160280149921 	0.043325466867412 	2.43587163518691 	0.0110498564719836 	0
3 	1.30384562673186 	5.72458747072346e-17 	0.113101979075635 	0.0413129199356249 	2.24626015586157 	0.00924159998715937 	0
3 	1.35943156962566 	5.72458747072346e-17 	0.11411294227839 	0.0394274599554537 	2.05850576748579 	0.00759339904565823 	0
3 	1.41705378838763 	6.07153216591882e-17 	0.115143131051711 	0.0376865608464123 	1.87839074217042 	0.00621615900418688 	0
3 	1.47678687776592 	5.89805981832114e-17 	0.116168635323986 	0.0360898443267392 	1.71242626187737 	0.00507244091265691 	0
3 	1.53870816513278 	6.24500451351651e-17 	0.117189855944557 	0.0346013087132301 	1.56257377436697 	0.00415633776236614 	0
3 	1.60289781058851 	7.28583859910259e-17 	0.118209990939561 	0.033157664500286 	1.42609996610033 	0.00344091975579669 	0
3 	1.66943891073267 	7.97972798949331e-17 	0.119230162579891 	0.0316960657413027 	1.30160264992977 	0.0028803117904523 	0
3 	1.71135564625027 	8.32667268468867e-17 	0.11985648149865 	0.0307746243572362 	1.23062908464317 	0.00258551848252561 	0
3 	1.74646535410267 	7.97972798949331e-17 	0.120363139671792 	0.0299942242236032 	1.1785663423482 	0.00237968103291123 	0
3 	1.8099231933566 	7.63278329429795e-17 	0.121254595606564 	0.0285645905208888 	1.09340992290444 	0.00204317045129642 	0
3 	1.88404823953249 	7.63278329429795e-17 	0.122245799839653 	0.0268557321526719 	1.00949671034744 	0.00170572534069483 	0
3 	1.96088870322038 	7.97972798949331e-17 	0.123170010465874 	0.0251170964233747 	0.938994793526028 	0.00140832958129943 	0
3 	2.02025965173185 	8.32667268468867e-17 	0.123876681074483 	0.0236850241389259 	0.890652788954809 	0.00118442548202334 	0
3 	2.06006301192217 	7.97972798949331e-17 	0.124349299662175 	0.0226590436401804 	0.860167862470781 	0.00104076992319414 	0
3 	2.09845978584128 	7.63278329429795e-17 	0.124755710461381 	0.0217343622463438 	0.835484266193174 	0.000916866966077818 	0
3 	2.13549967996946 	7.63278329429795e-17 	0.125133619894969 	0.0208507598648441 	0.814320883053657 	0.000803481848593632 	0
3 	2.17123064424048 	7.28583859910259e-17 	0.125481325108648 	0.0200088283903109 	0.796453816102944 	0.000700426664120685 	0
3 	2.20569893411516 	6.93889390390723e-17 	0.125800449595696 	0.0192084770671684 	0.78170182793437 	0.000606968675586384 	0
3 	2.23894917046123 	6.93889390390723e-17 	0.126093031176778 	0.018449071327988 	0.769918932927835 	0.000522469506803188 	0
3 	2.27102439731726 	6.93889390390723e-17 	0.126360890726662 	0.0177295657564034 	0.760990502506139 	0.00044630950445701 	0
3 	2.30196613761522 	6.93889390390723e-17 	0.126605742129194 	0.0170486251247134 	0.754831446970351 	0.00037790018845982 	0
3 	2.33181444693392 	6.59194920871187e-17 	0.126829229241752 	0.0164047284824527 	0.751385555216146 	0.000316699118300752 	0
3 	2.3606079653529 	6.59194920871187e-17 	0.12703292071474 	0.0157962550193382 	0.750625503636164 	0.000262219151300575 	0
3 	2.38838396747391 	6.59194920871187e-17 	0.12721830738189 	0.0152215527221977 	0.752553305083819 	0.000214035196704474 	0
3 	2.41517841067461 	6.59194920871187e-17 	0.127386802743894 	0.0146789918409252 	0.757201108837798 	0.000171789486210723 	0
3 	2.44102598165722 	6.93889390390723e-17 	0.127539744015675 	0.0141670054912059 	0.764632335022349 	0.000135195778636659 	0
3 	2.46596014135208 	6.93889390390723e-17 	0.127678393418837 	0.0136841196779915 	0.774943161639708 	0.000104042985388703 	0
3 	2.49001316823444 	6.93889390390723e-17 	0.127803939728115 	0.013228974792826 	0.78826439572678 	7.81986523989279e-05 	0
3 	2.51321620011054 	6.93889390390723e-17 	0.127917499995685 	0.0128003403208726 	0.804763761521111 	5.76126156855638e-05 	0
3 	2.535599274427 	7.28583859910259e-17 	0.128020121368976 	0.0123971241479027 	0.824648632973474 	4.23210260752714e-05 	0
3 	2.55719136715571 	7.63278329429795e-17 	0.12811278293875 	0.0120183775147007 	0.8481692280177 	3.24508198201849e-05 	0
3 	2.57802043030466 	7.63278329429795e-17 	0.128196397573448 	0.0116632963421942 	0.875622268988275 	2.82245911631139e-05 	0
3 	2.59811342810315 	7.97972798949331e-17 	0.128271813713254 	0.0113312193538374 	0.907355098429894 	2.99656978375608e-05 	0
3 	2.61749637190832 	8.32667268468867e-17 	0.12833981711447 	0.0110216231591415 	0.943770223708981 	3.81033029461368e-05 	0
3 	2.63619435387806 	7.63278329429795e-17 	0.128401132551226 	0.0107341142425095 	0.985330249984845 	5.31769357490574e-05 	0
3 	2.65423157945406 	7.28583859910259e-17 	0.128456425496886 	0.0104684176378979 	1.03256315389749 	7.58400590297679e-05 	0
3 	2.67163139869691 	7.63278329429795e-17 	0.128506303820917 	0.010224361981229 	1.08606785715534 	0.000106862093848751 	0
3 	2.68841633651388 	7.63278329429795e-17 	0.128551319548015 	0.0100018606428398 	1.14652009056806 	0.000147128418176839 	0
3 	2.70460812181851 	7.97972798949331e-17 	0.12859197073373 	0.00980088877699872 	1.21467860838909 	0.000197638076899383 	0
3 	2.72022771565972 	8.32667268468867e-17 	0.128628703513652 	0.00962145640444632 	1.29139193507917 	0.000259499367205288 	0
3 	2.73529533835695 	8.32667268468867e-17 	0.128661914379953 	0.00946357807029133 	1.37760601530983 	0.000333924124511711 	0
3 	2.74983049567626 	8.32667268468867e-17 	0.128691952728521 	0.00932724016706351 	1.47437340054175 	0.000422222413421283 	0
3 	2.76385200408157 	7.63278329429795e-17 	0.128719123701616 	0.00921236761353347 	1.58286493708886 	0.000525800340151803 	0
3 	2.77737801509344 	6.93889390390723e-17 	0.128743691325257 	0.00911879212084466 	1.70438529906336 	0.000646164681142304 	0
3 	2.79042603878708 	6.93889390390723e-17 	0.12876588190998 	0.00904622461015969 	1.84039409364043 	0.000784938734144282 	0
3 	2.80301296646003 	6.93889390390723e-17 	0.128785887651923 	0.00899423431589304 	1.99253460019968 	0.00094389399086989 	0
3 	2.81515509249873 	7.28583859910259e-17 	0.1288038703441 	0.0089622366002523 	2.16267243359595 	0.00112500170786812 	0
3 	2.82686813547238 	7.63278329429795e-17 	0.128819965091089 	0.00894949049121431 	2.35294651197076 	0.00133050715307943 	0
3 	2.83816725848143 	7.97972798949331e-17 	0.128834283918969 	0.00895510553283132 	2.56583467638745 	0.00156302734899841 	0
3 	2.84906708878692 	8.32667268468867e-17 	0.128846919187081 	0.00897805592282189 	2.8042362389979 	0.00182567080307175 	0
3 	2.85958173674616 	7.97972798949331e-17 	0.128857946735538 	0.00901719841032002 	3.07157379647005 	0.00212217536904373 	0
3 	2.86972481407933 	7.28583859910259e-17 	0.128867428748114 	0.00907128935437588 	3.3719170847326 	0.00245705829359488 	0
3 	2.87950945149043 	6.93889390390723e-17 	0.128875416421901 	0.00913899596645006 	3.7101327890794 	0.00283577062056422 	0
3 	2.88894831566567 	6.93889390390723e-17 	0.128881952682085 	0.00921889725960046 	4.09206644941448 	0.0032648457217308 	0
3 	2.89805362567107 	6.93889390390723e-17 	0.128887074484232 	0.00930947175092692 	4.52476642848235 	0.00375202732241048 	0
3 	2.90683716877067 	6.93889390390723e-17 	0.128890811020507 	0.00940907179481668 	5.01676620118139 	0.0043063585444055 	0
3 	2.9153103156857 	6.93889390390723e-17 	0.128893175688095 	0.00951588914987998 	5.578451666191 	0.00493902749621444 	0
3 	2.92348403531449 	6.59194920871187e-17 	0.128894215243394 	0.00962790410026528 	6.22262636541883 	0.00566969482633555 	0
3 	2.9313689089323 	6.59194920871187e-17 	0.128894102573362 	0.00974265066582589 	6.96588718275686 	0.00653562503660472 	0
3 	2.93897514388925 	6.93889390390723e-17 	0.128892962987047 	0.00985645814206171 	7.83132646877792 	0.00754662775559878 	0
3 	2.94631258682425 	6.93889390390723e-17 	0.128890761272799 	0.00996406707332201 	8.84629094998441 	0.00874575351982141 	0
3 	2.95339073641193 	6.93889390390723e-17 	0.128887417596601 	0.0100565749282195 	10.0382035334604 	0.0101382029495117 	0
3 	2.96021875565916 	6.93889390390723e-17 	0.128882866544899 	0.0101216478992854 	11.4380339837815 	0.0117267533773883 	0
3 	2.96680548376697 	6.93889390390723e-17 	0.128877111967502 	0.0101436645797869 	13.0842902394802 	0.0135163575488546 	0
3 	2.97315944757337 	6.93889390390723e-17 	0.128870249432486 	0.0101033076079488 	15.0270799720072 	0.0155072825777336 	0
3 	2.97928887259171 	6.93889390390723e-17 	0.128862448308195 	0.00997666989253071 	17.336338175691 	0.0176872873800944 	0
3 	2.98520169365903 	6.93889390390723e-17 	0.128853935841592 	0.00973381578490782 	20.1147060615225 	0.0200189124172145 	0
3 	2.99090556520807 	6.93889390390723e-17 	0.12884498984711 	0.00933679007432062 	23.5179834262939 	0.0224121673995819 	0
3 	2.99640787117633 	6.93889390390723e-17 	0.128835944110518 	0.00873748837865314 	27.792439225709 	0.0246597007112892 	0
3 	3.00171573456492 	6.93889390390723e-17 	0.128827187204855 	0.00787815075326294 	33.3516507895704 	0.0263577440566903 	0
3 	3.00683602665963 	6.93889390390723e-17 	0.12881913561526 	0.00669877533634916 	40.9667406179778 	0.0267596362869434 	0
3 	3.01177537592613 	6.93889390390723e-17 	0.128812233765846 	0.00516121566013603 	52.3169197116955 	0.0243304230859999 	0
3 	3.01654017659085 	6.93889390390723e-17 	0.128806855893725 	0.00334383113241257 	71.8617236240037 	0.0170558388500881 	0
3 	3.02113659691864 	7.28583859910259e-17 	0.128803113394722 	0.00164166089952523 	114.629663431063 	0.0077074450348318 	0
3 	3.02557058719784 	7.97972798949331e-17 	0.128800604402411 	0.00054811160074082 	247.221257556416 	0.0018891794878519 	0
3 	3.02984788744324 	8.32667268468867e-17 	0.128798654970819 	0.000109069186629347 	968.209113730499 	0.000217683786823206 	0
