3 	0.00391112967796268 	1.04083408558608e-17 	-0.0387081554448879 	5.74269571827922e-05 	-1.1432497881901e-16
3 	0.0118766651674915 	1.04083408558608e-17 	-0.108541111679075 	0.000100570395671486 	2.44822153094289e-16
3 	0.0201340015485761 	0 	-0.163043185632102 	0.000132370288735782 	7.38131700327889e-17
3 	0.0286938283423949 	0 	-0.197189365619954 	0.000114065317262235 	4.84229051687465e-23
3 	0.0375672266585908 	6.93889390390723e-18 	-0.213166322319718 	8.32568917379892e-06 	4.5100320331901e-22
3 	0.0467656835403032 	3.46944695195361e-18 	-0.218775097263292 	-0.000163234919819799 	5.00969927510644e-22
3 	0.0563011068347005 	-3.46944695195361e-18 	-0.219765546688017 	-0.000377544896065859 	8.79783005578798e-18
3 	0.0661858406082648 	3.46944695195361e-18 	-0.218667969837043 	-0.000623046948967441 	2.29304184511336e-17
3 	0.0764326811267817 	1.38777878078145e-17 	-0.216477958113488 	-0.000893864158457233 	-1.45853171366241e-17
3 	0.0870548934207257 	1.38777878078145e-17 	-0.213618902087429 	-0.00118673407350128 	-7.41154629615996e-18
3 	0.0980662284574838 	2.77555756156289e-17 	-0.210289636577167 	-0.0014999477231717 	-4.43214659390353e-17
3 	0.109480940942647 	3.81639164714898e-17 	-0.206590159572321 	-0.00183270931096014 	-6.87313244338892e-17
3 	0.121313807773417 	3.12250225675825e-17 	-0.202571889897821 	-0.0021847611612679 	5.03471875559003e-17
3 	0.13358014716801 	3.12250225675825e-17 	-0.198259945858715 	-0.00255619529187031 	4.15868718037802e-17
3 	0.146295838495838 	2.77555756156289e-17 	-0.193663912258516 	-0.00294736120046881 	4.80660357005051e-22
3 	0.159477342834115 	2.42861286636753e-17 	-0.188783405381758 	-0.00335881901657043 	9.55781588567924e-22
3 	0.173141724277517 	2.42861286636753e-17 	-0.183611090761001 	-0.00379131660994997 	1.13177058695081e-21
3 	0.183614095490672 	2.3635607360184e-17 	-0.17957676714894 	-0.00412652542599766 	1.03054795689409e-21
3 	0.190823961865322 	2.71050543121376e-17 	-0.176761151293563 	-0.00435932240882943 	8.1912939324413e-22
3 	0.201990523296728 	3.12250225675825e-17 	-0.172339369014379 	-0.00472309285844085 	5.08303365944611e-22
3 	0.217212287037675 	3.12250225675825e-17 	-0.166202764081097 	-0.00522474533920879 	1.59730911732893e-22
3 	0.232991668560441 	2.77555756156289e-17 	-0.159700300524111 	-0.00575223367267541 	-1.51236736734145e-22
3 	0.249349095037321 	3.12250225675825e-17 	-0.152804104011437 	-0.00630728027227013 	-1.51452174964567e-22
3 	0.266305741947753 	3.12250225675825e-17 	-0.145482602757658 	-0.00689185759786966 	5.46693016289859e-24
3 	0.283883560490998 	2.77555756156289e-17 	-0.137700311920057 	-0.00750821766699944 	-2.60712656972367e-22
3 	0.30210530600303 	3.46944695195361e-17 	-0.129417523118682 	-0.0081589258205139 	-1.22257146072615e-22
3 	0.320994567414414 	3.46944695195361e-17 	-0.120589904416477 	-0.00884689837509288 	-2.10041354628586e-17
3 	0.340575797787321 	3.46944695195361e-17 	-0.11116800954738 	-0.00957544353508456 	-3.89006053673602e-17
3 	0.360874345971201 	4.85722573273506e-17 	-0.101096690059246 	-0.0103483044878317 	4.13432826594274e-17
3 	0.38191648941809 	5.55111512312578e-17 	-0.0903143996408078 	-0.0111697029803678 	1.9133699874633e-17
3 	0.403729468200046 	4.85722573273506e-17 	-0.0787523758888964 	-0.0120443809855107 	-1.72992008089297e-21
3 	0.426341520272733 	4.16333634234434e-17 	-0.066333681125311 	-0.0129776367270926 	-2.0187566910862e-21
3 	0.449781918030829 	3.81639164714898e-17 	-0.0529720808667552 	-0.0139753456154913 	-2.62716065054927e-21
3 	0.474081006202548 	4.16333634234434e-17 	-0.0385707365243678 	-0.0150439449059856 	-1.08364016541223e-21
3 	0.499270241132363 	4.16333634234434e-17 	-0.0230206887686929 	-0.0161903870996891 	7.95879408108908e-22
3 	0.525382231502763 	3.46944695195361e-17 	-0.00619911710363816 	-0.0174222405130319 	2.68046470547539e-21
3 	0.552450780547768 	3.81639164714898e-17 	0.0120326334951382 	-0.0187481111605136 	3.43409214571796e-22
3 	0.58051092981285 	4.5102810375397e-17 	0.0318316819432906 	-0.020175572551806 	1.33888286272774e-21
3 	0.609599004517911 	4.85722573273506e-17 	0.0534235273397412 	-0.0217054368707579 	1.3509652945849e-21
3 	0.639752660582033 	5.20417042793042e-17 	0.0773790154667575 	-0.0233609968592142 	3.72129114130484e-21
3 	0.671010933370887 	5.55111512312578e-17 	0.104656911772881 	-0.0251741412282795 	3.46056889425589e-21
3 	0.703414288229901 	5.89805981832114e-17 	0.136052826473601 	-0.0271650729925487 	-1.55957549651966e-22
3 	0.737004672868606 	6.24500451351651e-17 	0.171861858522753 	-0.0293061712700461 	5.31624573609927e-21
3 	0.771825571663976 	5.89805981832114e-17 	0.211991291430391 	-0.0315385117418544 	-2.44484129172367e-24
3 	0.807922061953054 	5.55111512312578e-17 	0.256138256813563 	-0.0337858178928201 	-6.2934862299275e-21
3 	0.845340872387743 	5.20417042793042e-17 	0.303889221965291 	-0.0359668962418488 	1.1580328642907e-20
3 	0.884130443427309 	5.55111512312578e-17 	0.354730784632724 	-0.0380057682334006 	7.51368116160495e-18
3 	0.924340990046898 	5.89805981832114e-17 	0.408029898282363 	-0.0398378495672934 	8.14008319468233e-18
3 	0.966024566743242 	5.6920614055489e-17 	0.463031255097281 	-0.0414108909648442 	3.13754194823207e-20
3 	1.00923513492173 	5.908901840046e-17 	0.518867408045744 	-0.0426729171091594 	5.56402334952724e-22
3 	1.05402863275206 	6.07153216591882e-17 	0.57454302461781 	-0.0435866764716493 	-5.33568944597226e-22
3 	1.10046304758287 	6.54858112181245e-17 	0.629016792213442 	-0.0441211513691861 	-2.91410689166907e-22
3 	1.14859849100923 	7.02563007770607e-17 	0.681218302334273 	-0.0442573176298108 	7.84057590564035e-24
3 	1.19849727668995 	6.85215773010839e-17 	0.730179384095123 	-0.044008970639505 	-1.72882179519735e-20
3 	1.25022400101563 	6.24500451351651e-17 	0.775270744766102 	-0.0434233123848031 	9.92280569341373e-22
3 	1.30384562673186 	5.72458747072346e-17 	0.816438442728931 	-0.0425327237633628 	2.68798033821542e-21
3 	1.35943156962566 	5.72458747072346e-17 	0.854244027375504 	-0.0413712387765736 	1.66651348310735e-22
3 	1.41705378838763 	6.07153216591882e-17 	0.889028729396118 	-0.0400054499714847 	-2.82745337712115e-21
3 	1.47678687776592 	5.89805981832114e-17 	0.920857143394907 	-0.0385398001172901 	-1.6062574773241e-21
3 	1.53870816513278 	6.24500451351651e-17 	0.949976388364613 	-0.0370470945819938 	-1.33837643596506e-23
3 	1.60289781058851 	7.28583859910259e-17 	0.976737266891837 	-0.0355533175994997 	2.8294007301492e-21
3 	1.66943891073267 	7.97972798949331e-17 	1.00147866856348 	-0.0340529959854157 	1.84647592301591e-23
3 	1.71135564625027 	8.32667268468867e-17 	1.01593220438845 	-0.0331215471415521 	-8.45053237800833e-22
3 	1.74646535410267 	7.97972798949331e-17 	1.02707353896769 	-0.0323470721415942 	-4.61904678467305e-21
3 	1.8099231933566 	7.63278329429795e-17 	1.0461158232577 	-0.0309442787401161 	-1.45556951711455e-20
3 	1.88404823953249 	7.63278329429795e-17 	1.06636546345298 	-0.0292879388321151 	-2.90326078715024e-21
3 	1.96088870322038 	7.97972798949331e-17 	1.08464685617942 	-0.0276124357719457 	0
3 	2.02025965173185 	8.32667268468867e-17 	1.09800765142379 	-0.0262552300202446 	0
3 	2.06006301192217 	7.97972798949331e-17 	1.10687026717987 	-0.0252678779320701 	0
3 	2.09845978584128 	7.63278329429795e-17 	1.11442299752881 	-0.024370768912114 	0
3 	2.13549967996946 	7.63278329429795e-17 	1.12128112139561 	-0.023505138205919 	0
3 	2.17123064424048 	7.28583859910259e-17 	1.12750022411828 	-0.0226688990823285 	0
3 	2.20569893411516 	6.93889390390723e-17 	1.13313000732469 	-0.0218622462661757 	0
3 	2.23894917046123 	6.93889390390723e-17 	1.13821485689861 	-0.0210850310160002 	0
3 	2.27102439731726 	6.93889390390723e-17 	1.14279429249078 	-0.020336775967364 	0
3 	2.30196613761522 	6.93889390390723e-17 	1.14690335312251 	-0.0196168255505127 	0
3 	2.33181444693392 	6.59194920871187e-17 	1.1505729347283 	-0.0189243933530365 	0
3 	2.3606079653529 	6.59194920871187e-17 	1.15383008823703 	-0.018258591525925 	0
3 	2.38838396747391 	6.59194920871187e-17 	1.15669828231329 	-0.0176184599043232 	0
3 	2.41517841067461 	6.59194920871187e-17 	1.15919763254089 	-0.017002991155262 	0
3 	2.44102598165722 	6.93889390390723e-17 	1.16134509828338 	-0.0164111511804426 	0
3 	2.46596014135208 	6.93889390390723e-17 	1.16315464867606 	-0.0158418954538653 	0
3 	2.49001316823444 	6.93889390390723e-17 	1.16463739967027 	-0.0152941819465895 	0
3 	2.51321620011054 	6.93889390390723e-17 	1.16580172459229 	-0.0147669811796658 	0
3 	2.535599274427 	7.28583859910259e-17 	1.1666533412573 	-0.0142592838849007 	0
3 	2.55719136715571 	7.63278329429795e-17 	1.16719537930814 	-0.0137701066917388 	0
3 	2.57802043030466 	7.63278329429795e-17 	1.16742843215028 	-0.0132984961936066 	0
3 	2.59811342810315 	7.97972798949331e-17 	1.16735059863411 	-0.0128435316837326 	0
3 	2.61749637190832 	8.32667268468867e-17 	1.1669575204624 	-0.0124043267895611 	0
3 	2.63619435387806 	7.63278329429795e-17 	1.1662424220885 	-0.0119800301756392 	0
3 	2.65423157945406 	7.28583859910259e-17 	1.16519616046751 	-0.0115698254267806 	0
3 	2.67163139869691 	7.63278329429795e-17 	1.16380729219228 	-0.0111729301669091 	0
3 	2.68841633651388 	7.63278329429795e-17 	1.16206216497843 	-0.0107885944162205 	-1.26650448646945e-16
3 	2.70460812181851 	7.97972798949331e-17 	1.15994503879127 	-0.0104160981441174 	-1.20925682306285e-16
3 	2.72022771565972 	8.32667268468867e-17 	1.15743823877 	-0.0100547479438795 	1.38049140230124e-16
3 	2.73529533835695 	8.32667268468867e-17 	1.15452233724589 	-0.00970387274541138 	-1.26528890963327e-17
3 	2.74983049567626 	8.32667268468867e-17 	1.1511763555527 	-0.00936281850391318 	-1.38110836554733e-16
3 	2.76385200408157 	7.63278329429795e-17 	1.1473779683641 	-0.00903094186338226 	1.5866311788943e-16
3 	2.77737801509344 	6.93889390390723e-17 	1.14310368482502 	-0.00870760289921213 	1.51796691458416e-16
3 	2.79042603878708 	6.93889390390723e-17 	1.13832897311987 	-0.00839215719159895 	0
3 	2.80301296646003 	6.93889390390723e-17 	1.13302828998374 	-0.00808394765925509 	0
3 	2.81515509249873 	7.28583859910259e-17 	1.12717497558982 	-0.00778229676930497 	0
3 	2.82686813547238 	7.63278329429795e-17 	1.12074097825618 	-0.00748649990490566 	0
3 	2.83816725848143 	7.97972798949331e-17 	1.1136963825287 	-0.00719582078600443 	0
3 	2.84906708878692 	8.32667268468867e-17 	1.10600872721465 	-0.00690948987674358 	0
3 	2.85958173674616 	7.97972798949331e-17 	1.09764211457562 	-0.00662670667121763 	0
3 	2.86972481407933 	7.28583859910259e-17 	1.08855612525526 	-0.00634664664773317 	0
3 	2.87950945149043 	6.93889390390723e-17 	1.07870456287758 	-0.00606847349649932 	0
3 	2.88894831566567 	6.93889390390723e-17 	1.06803405593527 	-0.00579135675455671 	0
3 	2.89805362567107 	6.93889390390723e-17 	1.05648254296499 	-0.00551449491838081 	0
3 	2.90683716877067 	6.93889390390723e-17 	1.04397766277371 	-0.00523714982461619 	0
3 	2.9153103156857 	6.93889390390723e-17 	1.03043505707627 	-0.00495872860409651 	0
3 	2.92348403531449 	6.59194920871187e-17 	1.01575440691374 	-0.00467875880585147 	0
3 	2.9313689089323 	6.59194920871187e-17 	0.999796399144792 	-0.00439637684996711 	0
3 	2.93897514388925 	6.93889390390723e-17 	0.982319052491357 	-0.00410946980347439 	0
3 	2.94631258682425 	6.93889390390723e-17 	0.963021964672789 	-0.00381552487814368 	0
3 	2.95339073641193 	6.93889390390723e-17 	0.941646866027911 	-0.00351389771086489 	0
3 	2.96021875565916 	6.93889390390723e-17 	0.917950252607138 	-0.00320557033835697 	0
3 	2.96680548376697 	6.93889390390723e-17 	0.891667027674448 	-0.00289261789144991 	0
3 	2.97315944757337 	6.93889390390723e-17 	0.862484389215215 	-0.00257787108180654 	0
3 	2.97928887259171 	6.93889390390723e-17 	0.83001486488951 	-0.00226466221007607 	0
3 	2.98520169365903 	6.93889390390723e-17 	0.793761940703115 	-0.00195666629539856 	0
3 	2.99090556520807 	6.93889390390723e-17 	0.7530719666127 	-0.00165778717642771 	0
3 	2.99640787117633 	6.93889390390723e-17 	0.707067496684013 	-0.00137200098769489 	0
3 	3.00171573456492 	6.93889390390723e-17 	0.654584625695442 	-0.00110330570477566 	0
3 	3.00683602665963 	6.93889390390723e-17 	0.594121171235049 	-0.000855679423322193 	0
3 	3.01177537592613 	6.93889390390723e-17 	0.523713071562931 	-0.000632192714218643 	0
3 	3.01654017659085 	6.93889390390723e-17 	0.441164064165888 	-0.000434822994276114 	0
3 	3.02113659691864 	7.28583859910259e-17 	0.346657793773594 	-0.000267224473330187 	0
3 	3.02557058719784 	7.97972798949331e-17 	0.245534521327962 	-0.000137670258568157 	0
3 	3.02984788744324 	8.32667268468867e-17 	0.144673988929662 	-5.18463385115809e-05 	0
