/*--------------------------------*- C++ -*----------------------------------*\
  =========                 |
  \\      /  F ield         | OpenFOAM: The Open Source CFD Toolbox
   \\    /   O peration     | Website:  https://openfoam.org
    \\  /    A nd           | Version:  7
     \\/     M anipulation  |
\*---------------------------------------------------------------------------*/
FoamFile
{
    version     2.0;
    format      ascii;
    class       volScalarField;
    location    "1109";
    object      nut;
}
// * * * * * * * * * * * * * * * * * * * * * * * * * * * * * * * * * * * * * //

dimensions      [0 2 -1 0 0 0 0];

internalField   nonuniform List<scalar> 
6627
(
0.000332835
0.000326797
0.000316779
0.000304386
0.000290617
0.000276004
0.000260844
0.000245352
0.000229687
0.000213781
0.000195738
0.000178755
0.000163237
0.000148851
0.000135267
0.000122311
0.00010993
9.81393e-05
8.69767e-05
7.64823e-05
6.669e-05
5.76248e-05
4.93025e-05
4.17299e-05
3.4905e-05
2.88147e-05
2.34445e-05
1.87679e-05
1.47464e-05
1.13155e-05
8.27874e-06
5.70664e-06
3.70582e-06
2.2483e-06
1.26718e-06
6.61918e-07
3.20315e-07
1.43453e-07
5.91856e-08
2.2252e-08
7.46996e-09
2.16221e-09
5.08558e-10
8.74539e-11
8.95192e-12
3.46815e-13
1.69402e-15
0.000332867
0.000326819
0.000316785
0.000304374
0.000290587
0.000275958
0.000260787
0.000245287
0.000229617
0.00021374
0.000195695
0.000178703
0.000163179
0.00014879
0.000135207
0.000122253
0.000109876
9.80894e-05
8.69313e-05
7.64414e-05
6.66535e-05
5.75925e-05
4.92741e-05
4.17053e-05
3.48837e-05
2.87966e-05
2.34292e-05
1.87552e-05
1.4736e-05
1.13071e-05
8.2716e-06
5.70119e-06
3.70191e-06
2.24569e-06
1.26559e-06
6.61033e-07
3.19867e-07
1.43246e-07
5.90988e-08
2.22191e-08
7.45884e-09
2.15899e-09
5.07798e-10
8.73231e-11
8.93853e-12
3.46297e-13
1.69148e-15
0.000332934
0.000326866
0.000316802
0.000304355
0.000290532
0.000275873
0.000260679
0.000245165
0.000229485
0.000213663
0.000195613
0.000178605
0.000163069
0.000148675
0.000135092
0.000122143
0.000109773
9.79945e-05
8.68449e-05
7.63636e-05
6.6584e-05
5.75309e-05
4.922e-05
4.16582e-05
3.48431e-05
2.87619e-05
2.33999e-05
1.87308e-05
1.4716e-05
1.12908e-05
8.25783e-06
5.69068e-06
3.69435e-06
2.24065e-06
1.26251e-06
6.5932e-07
3.19e-07
1.42846e-07
5.89309e-08
2.21553e-08
7.4373e-09
2.15274e-09
5.06327e-10
8.707e-11
8.91262e-12
3.45293e-13
1.68658e-15
0.000333042
0.000326946
0.000316837
0.000304337
0.000290461
0.000275758
0.000260531
0.000244993
0.000229299
0.00021355
0.000195496
0.000178467
0.000162914
0.000148512
0.000134929
0.000121986
0.000109625
9.78584e-05
8.67209e-05
7.62517e-05
6.6484e-05
5.74422e-05
4.91421e-05
4.15903e-05
3.47846e-05
2.87119e-05
2.33577e-05
1.86956e-05
1.46871e-05
1.12674e-05
8.23796e-06
5.6755e-06
3.68343e-06
2.23337e-06
1.25806e-06
6.56849e-07
3.1775e-07
1.4227e-07
5.86886e-08
2.20633e-08
7.40624e-09
2.14372e-09
5.04204e-10
8.67049e-11
8.87524e-12
3.43845e-13
1.67951e-15
0.000333201
0.000327068
0.000316899
0.00030433
0.000290385
0.000275622
0.000260351
0.000244781
0.000229067
0.000213344
0.000195344
0.000178301
0.000162724
0.000148308
0.000134723
0.000121786
0.000109437
9.76845e-05
8.65623e-05
7.61085e-05
6.63559e-05
5.73287e-05
4.90423e-05
4.15033e-05
3.47095e-05
2.86477e-05
2.33036e-05
1.86505e-05
1.465e-05
1.12373e-05
8.21246e-06
5.65604e-06
3.66944e-06
2.22404e-06
1.25237e-06
6.53684e-07
3.16149e-07
1.41532e-07
5.83786e-08
2.19455e-08
7.3665e-09
2.13219e-09
5.01489e-10
8.62377e-11
8.82742e-12
3.41992e-13
1.67046e-15
0.000333423
0.000327244
0.000317001
0.000304345
0.000290314
0.000275476
0.000260148
0.000244537
0.000228796
0.000213059
0.000195165
0.000178113
0.000162505
0.00014807
0.000134479
0.000121548
0.000109212
9.7476e-05
8.63719e-05
7.59366e-05
6.62021e-05
5.71922e-05
4.89223e-05
4.13987e-05
3.46193e-05
2.85706e-05
2.32385e-05
1.85963e-05
1.46055e-05
1.12011e-05
8.1818e-06
5.63264e-06
3.65262e-06
2.21284e-06
1.24553e-06
6.49887e-07
3.14229e-07
1.40647e-07
5.8007e-08
2.18044e-08
7.31886e-09
2.11836e-09
4.98233e-10
8.56777e-11
8.77009e-12
3.39771e-13
1.65961e-15
0.00033372
0.000327485
0.000317153
0.000304394
0.00029026
0.000275332
0.000259934
0.000244272
0.000228497
0.00021274
0.00019497
0.000177908
0.000162263
0.0001478
0.000134202
0.000121276
0.000108954
9.72363e-05
8.61527e-05
7.57384e-05
6.60246e-05
5.70347e-05
4.87837e-05
4.1278e-05
3.4515e-05
2.84815e-05
2.31633e-05
1.85336e-05
1.45541e-05
1.11593e-05
8.1464e-06
5.60563e-06
3.63322e-06
2.19992e-06
1.23766e-06
6.45514e-07
3.1202e-07
1.39628e-07
5.75794e-08
2.1642e-08
7.26406e-09
2.10246e-09
4.94489e-10
8.50336e-11
8.70415e-12
3.37217e-13
1.64713e-15
0.000334102
0.000327804
0.000317368
0.000304489
0.000290234
0.000275201
0.000259719
0.000243994
0.000228177
0.000212395
0.000194769
0.000177692
0.000162002
0.000147506
0.000133895
0.000120973
0.000108666
9.69683e-05
8.59072e-05
7.55162e-05
6.58255e-05
5.68579e-05
4.86281e-05
4.11423e-05
3.43979e-05
2.83814e-05
2.30788e-05
1.84633e-05
1.44963e-05
1.11123e-05
8.10664e-06
5.57531e-06
3.61146e-06
2.18544e-06
1.22883e-06
6.4062e-07
3.09547e-07
1.38489e-07
5.71012e-08
2.14604e-08
7.2028e-09
2.08468e-09
4.90303e-10
8.43135e-11
8.63043e-12
3.34361e-13
1.63318e-15
0.000334581
0.000328211
0.000317658
0.00030464
0.000290248
0.000275093
0.000259513
0.000243714
0.000227845
0.000212031
0.00019457
0.000177475
0.000161728
0.000147192
0.000133564
0.000120645
0.000108351
9.6675e-05
8.56381e-05
7.52724e-05
6.56067e-05
5.66635e-05
4.8457e-05
4.09931e-05
3.4269e-05
2.82712e-05
2.29858e-05
1.83858e-05
1.44327e-05
1.10607e-05
8.06289e-06
5.54197e-06
3.58754e-06
2.16954e-06
1.21915e-06
6.35252e-07
3.06837e-07
1.37241e-07
5.65775e-08
2.12616e-08
7.13571e-09
2.06522e-09
4.8572e-10
8.3525e-11
8.54972e-12
3.31233e-13
1.61791e-15
0.000335165
0.000328716
0.000318032
0.00030486
0.000290314
0.00027502
0.000259327
0.000243441
0.000227511
0.000211657
0.00019438
0.000177262
0.000161449
0.000146863
0.000133213
0.000120293
0.000108014
9.63593e-05
8.53479e-05
7.50089e-05
6.53702e-05
5.64531e-05
4.82717e-05
4.08314e-05
3.41294e-05
2.81518e-05
2.2885e-05
1.83019e-05
1.43637e-05
1.10047e-05
8.01549e-06
5.50586e-06
3.56165e-06
2.15235e-06
1.20869e-06
6.29458e-07
3.03914e-07
1.35896e-07
5.6013e-08
2.10473e-08
7.06341e-09
2.04424e-09
4.8078e-10
8.26753e-11
8.46274e-12
3.27864e-13
1.60145e-15
0.000335861
0.000329327
0.0003185
0.000305158
0.00029044
0.000274991
0.000259169
0.000243184
0.000227181
0.000211279
0.000194208
0.00017706
0.000161171
0.000146526
0.000132847
0.000119924
0.000107657
9.60241e-05
8.50389e-05
7.4728e-05
6.51176e-05
5.62283e-05
4.80735e-05
4.06584e-05
3.39799e-05
2.8024e-05
2.27771e-05
1.8212e-05
1.42899e-05
1.09448e-05
7.96476e-06
5.46724e-06
3.53399e-06
2.13399e-06
1.19754e-06
6.23282e-07
3.008e-07
1.34463e-07
5.5412e-08
2.08192e-08
6.98646e-09
2.02191e-09
4.75524e-10
8.17711e-11
8.37017e-12
3.24277e-13
1.58393e-15
0.000336673
0.000330047
0.000319067
0.000305541
0.000290635
0.000275015
0.000259048
0.00024295
0.000226863
0.000210904
0.000194059
0.000176876
0.000160898
0.000146184
0.000132471
0.00011954
0.000107284
9.56721e-05
8.47134e-05
7.44314e-05
6.48505e-05
5.59904e-05
4.78636e-05
4.04751e-05
3.38215e-05
2.78885e-05
2.26627e-05
1.81167e-05
1.42117e-05
1.08813e-05
7.91098e-06
5.42632e-06
3.5047e-06
2.11457e-06
1.18575e-06
6.16764e-07
2.97516e-07
1.32953e-07
5.47787e-08
2.05789e-08
6.9054e-09
1.9984e-09
4.69987e-10
8.08186e-11
8.27266e-12
3.205e-13
1.56548e-15
0.0003376
0.000330879
0.000319738
0.000306015
0.000290906
0.000275099
0.000258973
0.000242747
0.000226565
0.00021054
0.000193939
0.000176714
0.000160636
0.000145844
0.000132088
0.000119146
0.000106898
9.53061e-05
8.43738e-05
7.41212e-05
6.45707e-05
5.57407e-05
4.76432e-05
4.02825e-05
3.3655e-05
2.7746e-05
2.25424e-05
1.80164e-05
1.41294e-05
1.08145e-05
7.85444e-06
5.38333e-06
3.47396e-06
2.09421e-06
1.1734e-06
6.09942e-07
2.94081e-07
1.31374e-07
5.4117e-08
2.03279e-08
6.82072e-09
1.97383e-09
4.64203e-10
7.98236e-11
8.1708e-12
3.16554e-13
1.54621e-15
0.000338639
0.000331821
0.000320513
0.000306584
0.000291259
0.000275249
0.000258949
0.000242582
0.000226292
0.00021019
0.000193847
0.000176576
0.000160389
0.00014551
0.000131706
0.000118746
0.000106503
9.49287e-05
8.40221e-05
7.37991e-05
6.42796e-05
5.54807e-05
4.74133e-05
4.00815e-05
3.34811e-05
2.75972e-05
2.24167e-05
1.79117e-05
1.40434e-05
1.07448e-05
7.79538e-06
5.33845e-06
3.4419e-06
2.073e-06
1.16056e-06
6.02851e-07
2.90514e-07
1.29735e-07
5.34303e-08
2.00674e-08
6.73287e-09
1.94834e-09
4.58203e-10
7.87915e-11
8.06515e-12
3.1246e-13
1.52622e-15
0.000339782
0.000332867
0.000321388
0.000307246
0.000291695
0.000275471
0.000258982
0.00024246
0.000226051
0.000209862
0.000193778
0.000176457
0.000160162
0.000145191
0.000131329
0.000118345
0.000106101
9.45427e-05
8.36606e-05
7.34668e-05
6.39786e-05
5.52113e-05
4.7175e-05
3.98729e-05
3.33007e-05
2.74427e-05
2.22861e-05
1.78029e-05
1.39542e-05
1.06723e-05
7.73405e-06
5.29188e-06
3.40867e-06
2.05104e-06
1.14727e-06
5.95524e-07
2.86831e-07
1.28044e-07
5.27219e-08
1.97988e-08
6.64229e-09
1.92207e-09
4.52017e-10
7.77274e-11
7.95621e-12
3.0824e-13
1.5056e-15
0.000341018
0.000334007
0.000322359
0.000308001
0.000292216
0.000275766
0.000259076
0.000242387
0.000225847
0.000209559
0.000193611
0.000176353
0.00015997
0.000144898
0.000130966
0.000117947
0.000105697
9.41505e-05
8.32912e-05
7.31261e-05
6.36692e-05
5.4934e-05
4.69293e-05
3.96577e-05
3.31143e-05
2.7283e-05
2.21512e-05
1.76905e-05
1.38619e-05
1.05975e-05
7.67067e-06
5.2438e-06
3.37439e-06
2.02842e-06
1.13359e-06
5.87992e-07
2.83048e-07
1.26309e-07
5.19951e-08
1.95232e-08
6.54938e-09
1.89511e-09
4.45672e-10
7.66359e-11
7.84448e-12
3.03911e-13
1.48446e-15
0.000342332
0.000335229
0.000323416
0.000308842
0.00029282
0.000276136
0.000259235
0.000242368
0.000225684
0.000209288
0.000193263
0.000176268
0.000159826
0.000144639
0.00013062
0.000117556
0.000105293
9.37548e-05
8.29163e-05
7.27787e-05
6.33528e-05
5.46498e-05
4.66772e-05
3.94367e-05
3.29227e-05
2.71189e-05
2.20124e-05
1.75748e-05
1.37669e-05
1.05205e-05
7.60547e-06
5.19437e-06
3.33918e-06
2.00521e-06
1.11959e-06
5.80286e-07
2.7918e-07
1.24535e-07
5.12528e-08
1.92418e-08
6.45451e-09
1.8676e-09
4.39194e-10
7.55216e-11
7.73041e-12
2.99492e-13
1.46287e-15
0.000343705
0.000336516
0.000324546
0.000309761
0.000293502
0.00027658
0.000259461
0.000242404
0.000225567
0.000209053
0.000192941
0.000176218
0.000159718
0.000144409
0.000130294
0.000117175
0.000104893
9.33584e-05
8.2538e-05
7.24266e-05
6.30311e-05
5.43601e-05
4.64197e-05
3.92106e-05
3.27264e-05
2.69507e-05
2.18702e-05
1.74563e-05
1.36696e-05
1.04416e-05
7.53866e-06
5.14375e-06
3.30317e-06
1.9815e-06
1.1053e-06
5.72432e-07
2.75242e-07
1.2273e-07
5.04977e-08
1.89557e-08
6.35804e-09
1.83962e-09
4.32608e-10
7.43886e-11
7.61443e-12
2.94999e-13
1.44093e-15
0.000345115
0.000337849
0.000325733
0.000310748
0.000294256
0.000277096
0.000259752
0.000242499
0.000225499
0.000208856
0.00019265
0.000176207
0.000159647
0.000144209
0.000129989
0.000116809
0.0001045
9.29643e-05
8.21587e-05
7.20716e-05
6.27053e-05
5.4066e-05
4.61578e-05
3.89802e-05
3.25262e-05
2.67791e-05
2.1725e-05
1.73353e-05
1.35703e-05
1.03611e-05
7.47044e-06
5.0921e-06
3.26647e-06
1.95737e-06
1.09077e-06
5.64457e-07
2.71247e-07
1.209e-07
4.97324e-08
1.86657e-08
6.2603e-09
1.81127e-09
4.25935e-10
7.32408e-11
7.49693e-12
2.90446e-13
1.41869e-15
0.000346538
0.000339206
0.000326959
0.000311787
0.000295073
0.000277678
0.000260108
0.000242652
0.000225481
0.000208702
0.000192392
0.000176231
0.000159609
0.00014404
0.000129711
0.00011646
0.000104118
9.25754e-05
8.17807e-05
7.17154e-05
6.2377e-05
5.37687e-05
4.58924e-05
3.87465e-05
3.23228e-05
2.66046e-05
2.15774e-05
1.72121e-05
1.34692e-05
1.02791e-05
7.40098e-06
5.03956e-06
3.22917e-06
1.93288e-06
1.07605e-06
5.56384e-07
2.67207e-07
1.19051e-07
4.89591e-08
1.83728e-08
6.16159e-09
1.78265e-09
4.19197e-10
7.20818e-11
7.37828e-12
2.8585e-13
1.39624e-15
0.000347947
0.000340562
0.000328204
0.000312864
0.000295941
0.000278319
0.000260525
0.000242864
0.000225517
0.000208593
0.00019217
0.000176273
0.000159593
0.000143906
0.000129465
0.000116136
0.000103751
9.21943e-05
8.14059e-05
7.13595e-05
6.20474e-05
5.34691e-05
4.56244e-05
3.851e-05
3.21167e-05
2.64276e-05
2.14275e-05
1.70871e-05
1.33665e-05
1.01959e-05
7.33046e-06
4.98626e-06
3.19138e-06
1.9081e-06
1.06116e-06
5.48235e-07
2.63132e-07
1.17187e-07
4.81801e-08
1.80778e-08
6.06218e-09
1.75382e-09
4.12411e-10
7.09145e-11
7.25879e-12
2.8122e-13
1.37363e-15
0.000349314
0.00034189
0.000329444
0.00031396
0.000296847
0.00027901
0.000260998
0.000243133
0.000225605
0.000208531
0.000191989
0.000176037
0.000159594
0.000143831
0.000129265
0.000115841
0.000103401
9.18233e-05
8.10363e-05
7.10057e-05
6.17178e-05
5.31683e-05
4.53545e-05
3.82714e-05
3.19085e-05
2.62487e-05
2.12759e-05
1.69605e-05
1.32626e-05
1.01116e-05
7.25902e-06
4.93231e-06
3.15317e-06
1.88307e-06
1.04616e-06
5.40028e-07
2.59032e-07
1.15313e-07
4.73972e-08
1.77814e-08
5.9623e-09
1.72486e-09
4.05594e-10
6.9742e-11
7.13876e-12
2.7657e-13
1.35091e-15
0.00035061
0.000343164
0.000330655
0.000315054
0.000297776
0.000279742
0.000261521
0.000243454
0.000225744
0.000208515
0.000191849
0.0001758
0.000159628
0.0001438
0.000129104
0.000115575
0.000103072
9.14652e-05
8.06741e-05
7.06555e-05
6.13895e-05
5.28674e-05
4.50836e-05
3.80313e-05
3.16987e-05
2.60682e-05
2.11228e-05
1.68327e-05
1.31576e-05
1.00265e-05
7.18681e-06
4.87782e-06
3.11462e-06
1.85787e-06
1.03107e-06
5.31782e-07
2.54916e-07
1.13432e-07
4.66121e-08
1.74842e-08
5.86218e-09
1.69583e-09
3.98762e-10
6.85667e-11
7.01844e-12
2.71909e-13
1.32815e-15
0.000351804
0.000344355
0.000331812
0.000316126
0.00029871
0.0002805
0.000262086
0.000243824
0.000225934
0.000208547
0.000191749
0.000175598
0.000159695
0.000143804
0.000128979
0.00011534
0.000102766
9.11228e-05
8.03217e-05
7.03108e-05
6.10638e-05
5.25672e-05
4.48124e-05
3.77904e-05
3.14878e-05
2.58865e-05
2.09686e-05
1.67038e-05
1.30517e-05
9.94062e-06
7.11395e-06
4.82288e-06
3.0758e-06
1.83252e-06
1.01591e-06
5.23512e-07
2.50792e-07
1.1155e-07
4.58263e-08
1.71868e-08
5.76201e-09
1.66678e-09
3.91926e-10
6.73908e-11
6.89807e-12
2.67245e-13
1.30537e-15
0.000352869
0.000345435
0.000332888
0.000317151
0.000299631
0.000281272
0.000262682
0.000244237
0.00022617
0.000208624
0.000191692
0.000175433
0.000159783
0.000143833
0.00012889
0.000115141
0.000102487
9.07991e-05
7.9981e-05
6.9973e-05
6.07417e-05
5.22687e-05
4.45416e-05
3.75491e-05
3.12761e-05
2.57038e-05
2.08134e-05
1.65741e-05
1.2945e-05
9.85416e-06
7.04055e-06
4.76758e-06
3.03677e-06
1.80706e-06
1.00072e-06
5.1523e-07
2.46666e-07
1.09667e-07
4.50409e-08
1.68897e-08
5.66193e-09
1.63777e-09
3.85097e-10
6.62163e-11
6.77783e-12
2.62587e-13
1.28261e-15
0.000353774
0.000346376
0.000333858
0.000318108
0.000300519
0.000282042
0.000263299
0.000244684
0.000226448
0.000208746
0.000191678
0.000175307
0.000159673
0.000143879
0.000128853
0.000114985
0.000102239
9.04963e-05
7.9654e-05
6.96437e-05
6.04247e-05
5.19727e-05
4.42718e-05
3.73079e-05
3.10639e-05
2.55204e-05
2.06574e-05
1.64435e-05
1.28376e-05
9.76708e-06
6.96663e-06
4.71193e-06
2.99755e-06
1.78152e-06
9.85489e-07
5.06942e-07
2.42542e-07
1.07787e-07
4.42566e-08
1.6593e-08
5.56203e-09
1.60881e-09
3.78281e-10
6.50438e-11
6.65782e-12
2.57937e-13
1.2599e-15
0.000354492
0.000347151
0.000334696
0.000318973
0.000301355
0.000282794
0.000263923
0.000245158
0.000226763
0.000208909
0.000191705
0.000175219
0.000159493
0.00014395
0.00012886
0.000114869
0.000102023
9.02166e-05
7.93428e-05
6.93247e-05
6.01139e-05
5.16804e-05
4.40038e-05
3.70673e-05
3.08516e-05
2.53365e-05
2.05006e-05
1.63121e-05
1.27289e-05
9.67608e-06
6.89181e-06
4.65572e-06
2.958e-06
1.75582e-06
9.70192e-07
4.98628e-07
2.38408e-07
1.05903e-07
4.34716e-08
1.62962e-08
5.46208e-09
1.57983e-09
3.71462e-10
6.3871e-11
6.53775e-12
2.53286e-13
1.23718e-15
0.000354997
0.000347734
0.000335377
0.000319723
0.000302117
0.000283509
0.000264543
0.000245648
0.000227109
0.00020911
0.000191771
0.000175168
0.000159346
0.000144048
0.000128899
0.000114789
0.000101839
8.99621e-05
7.90495e-05
6.90176e-05
5.98107e-05
5.13925e-05
4.37383e-05
3.68279e-05
3.06397e-05
2.51525e-05
2.03435e-05
1.61799e-05
1.26187e-05
9.58009e-06
6.81605e-06
4.59892e-06
2.91812e-06
1.72996e-06
9.54828e-07
4.9029e-07
2.34268e-07
1.04018e-07
4.26862e-08
1.59993e-08
5.36212e-09
1.55086e-09
3.64643e-10
6.26982e-11
6.4177e-12
2.48635e-13
1.21446e-15
0.000355265
0.000348101
0.000335877
0.000320334
0.000302786
0.000284172
0.000265143
0.000246144
0.000227477
0.000209343
0.000191874
0.000175153
0.000159233
0.000144141
0.000128955
0.000114744
0.000101691
8.97359e-05
7.87763e-05
6.87241e-05
5.95162e-05
5.11101e-05
4.34761e-05
3.65902e-05
3.04286e-05
2.49687e-05
2.01862e-05
1.60475e-05
1.25082e-05
9.48373e-06
6.74003e-06
4.54197e-06
2.87819e-06
1.7041e-06
9.39489e-07
4.81976e-07
2.30143e-07
1.02142e-07
4.19047e-08
1.57039e-08
5.26269e-09
1.52204e-09
3.57862e-10
6.15317e-11
6.29829e-12
2.44009e-13
1.19187e-15
0.000355273
0.00034823
0.000336173
0.000320785
0.00030334
0.000284762
0.000265707
0.000246634
0.00022786
0.000209603
0.00019201
0.000175174
0.000159154
0.000143982
0.000129025
0.00011475
0.000101585
8.954e-05
7.85246e-05
6.84453e-05
5.92316e-05
5.08341e-05
4.32178e-05
3.6355e-05
3.02189e-05
2.47856e-05
2.00292e-05
1.59151e-05
1.23978e-05
9.38721e-06
6.66391e-06
4.48498e-06
2.83828e-06
1.67829e-06
9.24202e-07
4.73701e-07
2.26041e-07
1.00277e-07
4.11285e-08
1.54106e-08
5.16397e-09
1.49343e-09
3.51129e-10
6.03736e-11
6.17974e-12
2.39416e-13
1.16943e-15
0.000355002
0.000348099
0.000336246
0.000321055
0.000303759
0.000285263
0.000266222
0.000247105
0.000228247
0.000209883
0.000192174
0.000175227
0.000159107
0.000143852
0.000129118
0.000114787
0.000101512
8.93739e-05
7.82959e-05
6.8183e-05
5.89583e-05
5.05655e-05
4.29643e-05
3.61227e-05
3.0011e-05
2.46036e-05
1.98729e-05
1.57832e-05
1.22875e-05
9.29066e-06
6.58776e-06
4.42802e-06
2.79844e-06
1.65256e-06
9.08984e-07
4.65473e-07
2.21968e-07
9.8426e-08
4.03582e-08
1.51196e-08
5.06605e-09
1.46505e-09
3.44451e-10
5.92251e-11
6.06216e-12
2.34861e-13
1.14719e-15
0.000354435
0.000347693
0.000336076
0.000321126
0.000304025
0.000285656
0.000266669
0.000247543
0.000228627
0.000210175
0.000192363
0.00017531
0.000159091
0.000143749
0.000129224
0.000114844
0.000101471
8.92388e-05
7.80921e-05
6.79388e-05
5.86974e-05
5.03053e-05
4.27162e-05
3.5894e-05
2.98054e-05
2.4423e-05
1.97174e-05
1.56517e-05
1.21775e-05
9.19416e-06
6.51166e-06
4.37114e-06
2.75869e-06
1.62693e-06
8.93847e-07
4.573e-07
2.17924e-07
9.659e-08
3.95946e-08
1.48312e-08
4.969e-09
1.43693e-09
3.37833e-10
5.80868e-11
5.94565e-12
2.30347e-13
1.12514e-15
0.000353558
0.000346994
0.000335646
0.000320978
0.000304119
0.000285923
0.000267034
0.000247935
0.000228991
0.000210471
0.000192569
0.000175418
0.000159104
0.000143677
0.000129161
0.000114911
0.00010147
8.91393e-05
7.7915e-05
6.77138e-05
5.84499e-05
5.00542e-05
4.24743e-05
3.56693e-05
2.96025e-05
2.42441e-05
1.9563e-05
1.55209e-05
1.20679e-05
9.0978e-06
6.43568e-06
4.31437e-06
2.71908e-06
1.60141e-06
8.78801e-07
4.49185e-07
2.13914e-07
9.47703e-08
3.88379e-08
1.45455e-08
4.87288e-09
1.40908e-09
3.31279e-10
5.69596e-11
5.83026e-12
2.25876e-13
1.1033e-15
0.00035236
0.000345991
0.000334943
0.000320597
0.000304025
0.000286048
0.000267299
0.000248266
0.000229324
0.000210761
0.000192785
0.000175546
0.000159142
0.000143631
0.000129043
0.000114996
0.000101501
8.90715e-05
7.77644e-05
6.75089e-05
5.8217e-05
4.98132e-05
4.22392e-05
3.54492e-05
2.94025e-05
2.40672e-05
1.94099e-05
1.5391e-05
1.19589e-05
9.00165e-06
6.35985e-06
4.25776e-06
2.67961e-06
1.57603e-06
8.63854e-07
4.41134e-07
2.09938e-07
9.29677e-08
3.80888e-08
1.42627e-08
4.77774e-09
1.38151e-09
3.24792e-10
5.5844e-11
5.71606e-12
2.21452e-13
1.08169e-15
0.000350832
0.000344673
0.000333953
0.000319968
0.000303727
0.000286015
0.00026745
0.000248522
0.000229616
0.000211035
0.000193005
0.00017569
0.000159202
0.00014361
0.000128949
0.000115092
0.000101552
8.90311e-05
7.76404e-05
6.73254e-05
5.79996e-05
4.9583e-05
4.20116e-05
3.5234e-05
2.92058e-05
2.38925e-05
1.92582e-05
1.5262e-05
1.18505e-05
8.90577e-06
6.28423e-06
4.20133e-06
2.64031e-06
1.5508e-06
8.49014e-07
4.3315e-07
2.06e-07
9.11828e-08
3.73473e-08
1.39828e-08
4.68361e-09
1.35424e-09
3.18375e-10
5.47403e-11
5.60308e-12
2.17075e-13
1.06031e-15
0.00034897
0.000343032
0.000332668
0.00031908
0.000303211
0.000285808
0.000267471
0.000248688
0.000229854
0.000211282
0.000193219
0.000175843
0.00015928
0.00014361
0.000128878
0.000115098
0.000101612
8.90219e-05
7.75455e-05
6.71644e-05
5.77985e-05
4.93644e-05
4.17918e-05
3.50243e-05
2.90128e-05
2.37201e-05
1.91081e-05
1.51341e-05
1.17428e-05
8.81021e-06
6.20884e-06
4.14511e-06
2.6012e-06
1.52572e-06
8.34286e-07
4.25236e-07
2.021e-07
8.94164e-08
3.66137e-08
1.3706e-08
4.59052e-09
1.32727e-09
3.1203e-10
5.36489e-11
5.49136e-12
2.12746e-13
1.03917e-15
0.000346766
0.000341062
0.00033108
0.000317922
0.000302465
0.000285414
0.000267348
0.000248751
0.000230023
0.000211492
0.000193418
0.000175997
0.000159371
0.00014363
0.000128829
0.000114988
0.000101683
8.90438e-05
7.74791e-05
6.7026e-05
5.76143e-05
4.91578e-05
4.15804e-05
3.48202e-05
2.88236e-05
2.35504e-05
1.89598e-05
1.50074e-05
1.16359e-05
8.71501e-06
6.13373e-06
4.08911e-06
2.56229e-06
1.5008e-06
8.19674e-07
4.17394e-07
1.98238e-07
8.76687e-08
3.58882e-08
1.34324e-08
4.49849e-09
1.30061e-09
3.05757e-10
5.25701e-11
5.38092e-12
2.08468e-13
1.01827e-15
0.000344215
0.000338761
0.000329184
0.000316487
0.000301479
0.00028482
0.000267067
0.000248696
0.000230111
0.000211653
0.000193593
0.000176147
0.000159469
0.000143665
0.000128797
0.000114897
0.000101767
8.90848e-05
7.74357e-05
6.69091e-05
5.74474e-05
4.89639e-05
4.1378e-05
3.46223e-05
2.86386e-05
2.33835e-05
1.88134e-05
1.48819e-05
1.15299e-05
8.6202e-06
6.0589e-06
4.03336e-06
2.5236e-06
1.47606e-06
8.05181e-07
4.09625e-07
1.94416e-07
8.594e-08
3.51709e-08
1.31618e-08
4.40752e-09
1.27426e-09
2.99557e-10
5.15038e-11
5.27177e-12
2.04239e-13
9.97615e-16
0.000341319
0.000336131
0.000326977
0.00031477
0.000300245
0.000284016
0.000266616
0.00024851
0.000230106
0.000211752
0.000193734
0.000176283
0.000159568
0.00014371
0.000128782
0.000114822
0.000101839
8.91338e-05
7.7414e-05
6.68148e-05
5.72987e-05
4.87833e-05
4.11849e-05
3.44308e-05
2.8458e-05
2.32196e-05
1.8669e-05
1.47578e-05
1.14247e-05
8.52582e-06
5.98439e-06
3.97787e-06
2.48512e-06
1.45148e-06
7.9081e-07
4.01931e-07
1.90635e-07
8.42305e-08
3.44618e-08
1.28945e-08
4.31763e-09
1.24822e-09
2.93431e-10
5.04502e-11
5.16392e-12
2.00061e-13
9.77206e-16
0.000338084
0.000333174
0.000324458
0.000312766
0.000298755
0.000282992
0.000265982
0.000248181
0.000229994
0.000211777
0.00019383
0.000176396
0.000159662
0.00014376
0.000128779
0.000114764
0.000101732
8.91864e-05
7.74213e-05
6.67453e-05
5.71685e-05
4.86162e-05
4.10013e-05
3.42459e-05
2.82819e-05
2.30587e-05
1.85266e-05
1.46351e-05
1.13205e-05
8.43188e-06
5.9102e-06
3.92264e-06
2.44686e-06
1.42708e-06
7.7656e-07
3.94311e-07
1.86893e-07
8.25401e-08
3.37609e-08
1.26302e-08
4.22881e-09
1.2225e-09
2.87378e-10
4.94093e-11
5.05737e-12
1.95933e-13
9.57041e-16
0.000334518
0.000329891
0.000321632
0.000310475
0.000297005
0.00028174
0.000265157
0.000247696
0.000229763
0.000211718
0.000193871
0.000176478
0.000159742
0.000143811
0.000128783
0.000114718
0.000101637
8.92492e-05
7.74458e-05
6.6695e-05
5.70555e-05
4.84625e-05
4.08275e-05
3.40679e-05
2.81105e-05
2.2901e-05
1.83865e-05
1.45139e-05
1.12173e-05
8.33839e-06
5.83633e-06
3.86768e-06
2.40882e-06
1.40286e-06
7.62433e-07
3.86765e-07
1.83191e-07
8.08687e-08
3.30682e-08
1.23691e-08
4.14105e-09
1.19708e-09
2.81399e-10
4.83809e-11
4.9521e-12
1.91854e-13
9.3712e-16
0.000330629
0.000326291
0.000318502
0.000307898
0.000294993
0.000280255
0.000264131
0.000247046
0.000229402
0.000211561
0.000193844
0.000176519
0.000159802
0.000143855
0.000128792
0.000114681
0.000101553
8.93149e-05
7.74791e-05
6.6661e-05
5.69591e-05
4.83225e-05
4.06638e-05
3.38969e-05
2.7944e-05
2.27467e-05
1.82485e-05
1.43942e-05
1.1115e-05
8.24536e-06
5.7628e-06
3.81299e-06
2.37101e-06
1.37881e-06
7.48427e-07
3.79293e-07
1.79528e-07
7.92161e-08
3.23835e-08
1.21112e-08
4.05435e-09
1.17197e-09
2.75491e-10
4.73649e-11
4.8481e-12
1.87825e-13
9.1744e-16
0.000326429
0.000322384
0.000315075
0.000305036
0.000292717
0.000278532
0.000262897
0.000246221
0.000228899
0.000211297
0.00019374
0.000176509
0.000159832
0.000143887
0.000128799
0.00011465
0.00010148
8.92998e-05
7.75141e-05
6.66455e-05
5.68807e-05
4.81963e-05
4.05101e-05
3.37331e-05
2.77824e-05
2.25956e-05
1.81128e-05
1.4276e-05
1.10138e-05
8.15277e-06
5.68958e-06
3.75855e-06
2.33342e-06
1.35493e-06
7.34541e-07
3.71893e-07
1.75904e-07
7.75821e-08
3.17068e-08
1.18562e-08
3.96868e-09
1.14716e-09
2.69655e-10
4.63612e-11
4.74535e-12
1.83844e-13
8.97996e-16
0.000321931
0.000318181
0.000311355
0.000301895
0.000290178
0.000276569
0.000261449
0.000245212
0.000228244
0.000210912
0.000193547
0.000176438
0.000159825
0.000143898
0.000128799
0.00011462
0.000101413
8.91964e-05
7.75513e-05
6.66477e-05
5.68189e-05
4.80833e-05
4.03663e-05
3.35762e-05
2.76257e-05
2.24479e-05
1.79794e-05
1.41593e-05
1.09136e-05
8.06061e-06
5.61667e-06
3.70437e-06
2.29605e-06
1.33122e-06
7.20772e-07
3.64565e-07
1.72319e-07
7.59663e-08
3.10379e-08
1.16043e-08
3.88402e-09
1.12264e-09
2.63888e-10
4.53694e-11
4.64383e-12
1.79911e-13
8.78785e-16
0.000317148
0.000313694
0.000307355
0.000298482
0.000287379
0.000274364
0.000259784
0.000244012
0.000227428
0.000210397
0.000193255
0.000176296
0.000159771
0.000143883
0.000128787
0.000114588
0.00010135
8.90985e-05
7.75924e-05
6.66595e-05
5.67696e-05
4.79823e-05
4.02321e-05
3.34264e-05
2.74739e-05
2.23036e-05
1.78482e-05
1.40442e-05
1.08144e-05
7.96885e-06
5.54405e-06
3.65043e-06
2.25888e-06
1.30768e-06
7.07118e-07
3.57307e-07
1.68771e-07
7.43683e-08
3.03766e-08
1.13552e-08
3.80036e-09
1.09842e-09
2.58189e-10
4.43893e-11
4.54351e-12
1.76024e-13
8.598e-16
0.000312098
0.000308938
0.000303086
0.000294803
0.000284323
0.000271917
0.000257898
0.000242616
0.000226443
0.000209742
0.000192852
0.000176072
0.000159661
0.000143833
0.000128756
0.000114549
0.000101287
8.90044e-05
7.76301e-05
6.66741e-05
5.67305e-05
4.78927e-05
4.01073e-05
3.32834e-05
2.73269e-05
2.21626e-05
1.77193e-05
1.39305e-05
1.07162e-05
7.87747e-06
5.4717e-06
3.59671e-06
2.2219e-06
1.28429e-06
6.93574e-07
3.50116e-07
1.65259e-07
7.27875e-08
2.97227e-08
1.11091e-08
3.71766e-09
1.07447e-09
2.52556e-10
4.34207e-11
4.44435e-12
1.72183e-13
8.41036e-16
0.000306796
0.000303928
0.000298559
0.000290868
0.000281017
0.000269232
0.000255789
0.00024102
0.000225282
0.000208937
0.000192328
0.000175756
0.000159485
0.00014374
0.000128699
0.000114497
0.00010122
8.89121e-05
7.75866e-05
6.66854e-05
5.67034e-05
4.78151e-05
3.99918e-05
3.3147e-05
2.71847e-05
2.20248e-05
1.75925e-05
1.38183e-05
1.06189e-05
7.78643e-06
5.39959e-06
3.5432e-06
2.18511e-06
1.26106e-06
6.80138e-07
3.42991e-07
1.61782e-07
7.12237e-08
2.9076e-08
1.08657e-08
3.6359e-09
1.0508e-09
2.46988e-10
4.24631e-11
4.34633e-12
1.68385e-13
8.22487e-16
0.000301263
0.000298681
0.000293791
0.000286686
0.000277468
0.000266311
0.00025346
0.000239221
0.000223938
0.000207974
0.000191673
0.000175338
0.000159235
0.000143595
0.000128611
0.000114427
0.000101145
8.88189e-05
7.74706e-05
6.66942e-05
5.66867e-05
4.77479e-05
3.98848e-05
3.3017e-05
2.7047e-05
2.18901e-05
1.74679e-05
1.37075e-05
1.05226e-05
7.69569e-06
5.32769e-06
3.48988e-06
2.1485e-06
1.23797e-06
6.66806e-07
3.3593e-07
1.5834e-07
6.96762e-08
2.84364e-08
1.0625e-08
3.55506e-09
1.0274e-09
2.41483e-10
4.15164e-11
4.24942e-12
1.64631e-13
8.04148e-16
0.000295516
0.000293214
0.000288794
0.000282271
0.000273685
0.000263158
0.000250911
0.000237218
0.000221989
0.000206489
0.000190875
0.000174807
0.000158901
0.000143392
0.000128483
0.000114334
0.000101057
8.87206e-05
7.73534e-05
6.67016e-05
5.66743e-05
4.76879e-05
3.9785e-05
3.28929e-05
2.69136e-05
2.17584e-05
1.73452e-05
1.3598e-05
1.04271e-05
7.6052e-06
5.25598e-06
3.43674e-06
2.11205e-06
1.21502e-06
6.53575e-07
3.28931e-07
1.54931e-07
6.81448e-08
2.78036e-08
1.03869e-08
3.47512e-09
1.00425e-09
2.36039e-10
4.05802e-11
4.15359e-12
1.60918e-13
7.86013e-16
0.000289576
0.000287547
0.000283586
0.000277634
0.000269674
0.000259782
0.000248145
0.000234394
0.000219329
0.000204286
0.000189418
0.000174154
0.000158474
0.000143122
0.00012831
0.000114212
0.000100954
8.86141e-05
7.72332e-05
6.6703e-05
5.66615e-05
4.76328e-05
3.96915e-05
3.27743e-05
2.67843e-05
2.16296e-05
1.72245e-05
1.34898e-05
1.03323e-05
7.51491e-06
5.18442e-06
3.38374e-06
2.07576e-06
1.19221e-06
6.4044e-07
3.21992e-07
1.51554e-07
6.66288e-08
2.71774e-08
1.01514e-08
3.39604e-09
9.81362e-10
2.30654e-10
3.96542e-11
4.05881e-12
1.57246e-13
7.68077e-16
0.000283463
0.000281697
0.000278182
0.00027279
0.000265447
0.00025619
0.000245167
0.0002311
0.000216447
0.00020193
0.000187583
0.000173264
0.000157947
0.000142777
0.000128085
0.000114056
0.000100829
8.84962e-05
7.71077e-05
6.66777e-05
5.6642e-05
4.75816e-05
3.96041e-05
3.2661e-05
2.66588e-05
2.15033e-05
1.71054e-05
1.33827e-05
1.02383e-05
7.42474e-06
5.11297e-06
3.33087e-06
2.0396e-06
1.16951e-06
6.27396e-07
3.1511e-07
1.48209e-07
6.51276e-08
2.65577e-08
9.91829e-09
3.31779e-09
9.58713e-10
2.25327e-10
3.87381e-11
3.96503e-12
1.53613e-13
7.5033e-16
0.000277199
0.000275685
0.000272601
0.000267754
0.000261017
0.000252388
0.000241405
0.000227581
0.000213453
0.00019948
0.000185635
0.000171753
0.000157311
0.000142351
0.000127801
0.00011386
0.000100679
8.83637e-05
7.69754e-05
6.65378e-05
5.66136e-05
4.75367e-05
3.9523e-05
3.25525e-05
2.65367e-05
2.13793e-05
1.69879e-05
1.32765e-05
1.01448e-05
7.33462e-06
5.04156e-06
3.27808e-06
2.00355e-06
1.14693e-06
6.14437e-07
3.08281e-07
1.44892e-07
6.36406e-08
2.5944e-08
9.68754e-09
3.24033e-09
9.36293e-10
2.20054e-10
3.78313e-11
3.87221e-12
1.50017e-13
7.32765e-16
0.000270804
0.000269531
0.000266859
0.00026254
0.000256395
0.000248385
0.000237344
0.000223945
0.000210378
0.000196943
0.00018357
0.000170141
0.000156561
0.000141838
0.000127453
0.000113618
0.000100499
8.82127e-05
7.68326e-05
6.63915e-05
5.65797e-05
4.74926e-05