/*--------------------------------*- C++ -*----------------------------------*\
  =========                 |
  \\      /  F ield         | OpenFOAM: The Open Source CFD Toolbox
   \\    /   O peration     | Website:  https://openfoam.org
    \\  /    A nd           | Version:  7
     \\/     M anipulation  |
\*---------------------------------------------------------------------------*/
FoamFile
{
    version     2.0;
    format      ascii;
    class       volScalarField;
    location    "1109";
    object      omega;
}
// * * * * * * * * * * * * * * * * * * * * * * * * * * * * * * * * * * * * * //

dimensions      [0 0 -1 0 0 0 0];

internalField   nonuniform List<scalar> 
6627
(
21216.7
22702.4
25358.1
28971.4
33400.5
38564.2
44430.5
51005.8
58335.6
66502.2
75648.9
85918.6
97412
110267
124686
140935
159347
180315
204307
231873
263657
300409
343001
392450
449932
516822
594758
685782
792627
919256
1.07179e+06
1.25945e+06
1.49632e+06
1.80524e+06
2.22339e+06
2.80968e+06
3.65673e+06
4.91366e+06
6.83252e+06
9.86731e+06
1.49e+07
2.38094e+07
4.11057e+07
7.95376e+07
1.84802e+08
5.94344e+08
3.64963e+09
21220.2
22703.9
25356.3
28965.6
33390.8
38550.9
44413.8
50986.1
58313.1
66476.7
75620.5
85887.8
97379.6
110234
124652
140900
159310
180277
204266
231829
263611
300357
342944
392386
449859
516737
594659
685665
792488
919093
1.0716e+06
1.25924e+06
1.49608e+06
1.80499e+06
2.22314e+06
2.80944e+06
3.65652e+06
4.91349e+06
6.83238e+06
9.86721e+06
1.48999e+07
2.38094e+07
4.11057e+07
7.95376e+07
1.84802e+08
5.94344e+08
3.64963e+09
21227.7
22707.3
25353.1
28954.8
33372.6
38525.6
44382
50948.5
58270.1
66428
75565.9
85828.7
97317.3
110169
124585
140831
159239
180202
204187
231745
263519
300256
342832
392259
449714
516570
594463
685433
792215
918773
1.07123e+06
1.25882e+06
1.49562e+06
1.8045e+06
2.22264e+06
2.80898e+06
3.65611e+06
4.91314e+06
6.83211e+06
9.86701e+06
1.48998e+07
2.38093e+07
4.11056e+07
7.95376e+07
1.84802e+08
5.94344e+08
3.64963e+09
21239.5
22713.2
25349.5
28940.1
33346.8
38489.5
44336.3
50894.2
58208.1
66357.8
75487.3
85743.2
97226.9
110075
124488
140731
159135
180093
204071
231621
263385
300109
342668
392075
449504
516326
594178
685097
791818
918307
1.07069e+06
1.25821e+06
1.49495e+06
1.80378e+06
2.22193e+06
2.80831e+06
3.65551e+06
4.91265e+06
6.83172e+06
9.86671e+06
1.48996e+07
2.38092e+07
4.11055e+07
7.95375e+07
1.84802e+08
5.94344e+08
3.64963e+09
21256.4
22722.5
25346.3
28922.3
33314.5
38443.5
44277.8
50824.4
58128.1
66268
75387
85633.2
97109.7
109953
124362
140601
159000
179952
203922
231461
263212
299920
342458
391837
449232
516012
593810
684664
791307
917709
1.07e+06
1.25742e+06
1.49408e+06
1.80287e+06
2.22102e+06
2.80744e+06
3.65475e+06
4.91201e+06
6.83121e+06
9.86634e+06
1.48993e+07
2.3809e+07
4.11054e+07
7.95375e+07
1.84802e+08
5.94344e+08
3.64963e+09
21279.5
22736.2
25344.7
28902.8
33276.9
38389
44207.5
50740.1
58031.3
66159.5
75266.1
85499.8
96967
109804
124208
140443
158835
179780
203741
231267
263002
299690
342203
391551
448905
515634
593368
684142
790691
916987
1.06917e+06
1.25648e+06
1.49305e+06
1.80177e+06
2.21991e+06
2.8064e+06
3.65383e+06
4.91124e+06
6.83061e+06
9.86589e+06
1.4899e+07
2.38088e+07
4.11053e+07
7.95374e+07
1.84802e+08
5.94344e+08
3.64963e+09
21309.7
22755.3
25345.8
28882.6
33235.2
38326.9
44126.8
50642.7
57918.9
66033.4
75125.1
85343.8
96799.7
109629
124028
140257
158644
179580
203529
231042
262759
299424
341908
391218
448526
515195
592854
683537
789978
916151
1.0682e+06
1.25539e+06
1.49184e+06
1.8005e+06
2.21864e+06
2.80521e+06
3.65277e+06
4.91035e+06
6.82991e+06
9.86537e+06
1.48986e+07
2.38086e+07
4.11051e+07
7.95373e+07
1.84802e+08
5.94344e+08
3.64963e+09
21348.2
22781.1
25350.9
28863.1
33190.6
38258.6
44036.7
50533.2
57792
65890.5
74964.8
85165.9
96608.7
109429
123822
140045
158425
179352
203290
230787
262483
299123
341574
390843
448097
514700
592275
682856
789174
915210
1.06712e+06
1.25416e+06
1.49049e+06
1.79907e+06
2.21721e+06
2.80386e+06
3.65158e+06
4.90936e+06
6.82912e+06
9.86478e+06
1.48982e+07
2.38083e+07
4.1105e+07
7.95372e+07
1.84802e+08
5.94344e+08
3.64963e+09
21396.1
22814.8
25361.1
28845.5
33144.4
38185.3
43938.5
50412.7
57651.5
65731.6
74786
84966.9
96394.7
109205
123591
139808
158180
179098
203022
230502
262177
298789
341204
390427
447624
514152
591635
682102
788286
914170
1.06592e+06
1.25281e+06
1.489e+06
1.79749e+06
2.21564e+06
2.80238e+06
3.65027e+06
4.90827e+06
6.82826e+06
9.86414e+06
1.48978e+07
2.3808e+07
4.11048e+07
7.95371e+07
1.84802e+08
5.94344e+08
3.64963e+09
21454.6
22857.4
25377.8
28831.2
33098.1
38108.3
43833.4
50282.4
57498.5
65557.8
74589.6
84747.6
96158.2
108958
123335
139546
157911
178818
202729
230191
261842
298423
340799
389974
447107
513555
590938
681281
787319
913038
1.06462e+06
1.25134e+06
1.48738e+06
1.79578e+06
2.21393e+06
2.80078e+06
3.64885e+06
4.90709e+06
6.82733e+06
9.86345e+06
1.48973e+07
2.38077e+07
4.11046e+07
7.9537e+07
1.84802e+08
5.94344e+08
3.64963e+09
21524.6
22910.1
25402.1
28821.4
33052.8
38028.9
43722.7
50143.4
57334.2
65370.2
74376.6
84508.7
95900.1
108687
123056
139260
157617
178514
202410
229853
261479
298028
340363
389484
446549
512912
590187
680398
786278
911821
1.06321e+06
1.24976e+06
1.48564e+06
1.79395e+06
2.2121e+06
2.79906e+06
3.64734e+06
4.90582e+06
6.82634e+06
9.86271e+06
1.48968e+07
2.38073e+07
4.11044e+07
7.95369e+07
1.84802e+08
5.94344e+08
3.64963e+09
21607
22974
25435.3
28817.6
33010.2
37948.7
43607.8
49997.3
57159.8
65169.8
74148
84251.3
95621.1
108394
122754
138950
157299
178185
202066
229489
261089
297604
339895
388960
445954
512225
589385
679455
785168
910523
1.06172e+06
1.24807e+06
1.48379e+06
1.792e+06
2.21016e+06
2.79724e+06
3.64573e+06
4.90449e+06
6.82528e+06
9.86192e+06
1.48962e+07
2.3807e+07
4.11042e+07
7.95368e+07
1.84802e+08
5.94344e+08
3.64963e+09
21702.6
23049.9
25478.4
28820.9
32971.5
37869.2
43490.3
49845.3
56976.8
64958.2
73905.3
83976.6
95322.2
108079
122429
138617
156957
177832
201697
229100
260673
297152
339398
388404
445322
511497
588536
678457
783994
909152
1.06015e+06
1.2463e+06
1.48184e+06
1.78995e+06
2.20812e+06
2.79533e+06
3.64404e+06
4.90308e+06
6.82418e+06
9.8611e+06
1.48956e+07
2.38066e+07
4.1104e+07
7.95367e+07
1.84802e+08
5.94344e+08
3.64963e+09
21812.2
23138.7
25532.6
28832.7
32938.3
37791.7
43371.5
49689
56786.5
64736.6
73649.8
83686.1
95004.8
107744
122082
138261
156591
177454
201304
228686
260231
296674
338871
387816
444655
510729
587641
677407
782760
907710
1.05849e+06
1.24443e+06
1.47979e+06
1.7878e+06
2.20598e+06
2.79333e+06
3.64228e+06
4.90162e+06
6.82303e+06
9.86024e+06
1.4895e+07
2.38062e+07
4.11037e+07
7.95366e+07
1.84802e+08
5.94344e+08
3.64963e+09
21936.2
23241.2
25598.8
28854.3
32912
37718
43253.2
49529.9
56590.3
64506.6
73383.5
83382
94670.3
107388
121712
137881
156202
177053
200887
228247
259763
296169
338317
387198
443955
509924
586704
676307
781468
906203
1.05676e+06
1.24249e+06
1.47766e+06
1.78557e+06
2.20376e+06
2.79125e+06
3.64045e+06
4.9001e+06
6.82183e+06
9.85935e+06
1.48944e+07
2.38058e+07
4.11035e+07
7.95364e+07
1.84802e+08
5.94344e+08
3.64963e+09
22075.1
23357.8
25678
28886.9
32894.1
37649.7
43137
49369.4
56389.6
64269
73108.5
83067.5
94320.6
107013
121320
137477
155788
176627
200446
227784
259271
295638
337736
386551
443223
509083
585727
675161
780123
904635
1.05496e+06
1.24046e+06
1.47545e+06
1.78325e+06
2.20146e+06
2.7891e+06
3.63857e+06
4.89853e+06
6.8206e+06
9.85844e+06
1.48938e+07
2.38054e+07
4.11032e+07
7.95363e+07
1.84802e+08
5.94344e+08
3.64963e+09
22229.1
23489.2
25771
28931.7
32886.2
37588.5
43024.7
49209.5
56186
64025.1
72826.8
82744.9
93957
106619
120906
137050
155349
176176
199980
227297
258755
295082
337128
385876
442460
508208
584710
673971
778727
903010
1.0531e+06
1.23837e+06
1.47317e+06
1.78086e+06
2.19909e+06
2.78689e+06
3.63662e+06
4.89692e+06
6.81934e+06
9.8575e+06
1.48931e+07
2.38049e+07
4.1103e+07
7.95362e+07
1.84802e+08
5.94344e+08
3.64963e+09
22398.4
23635.8
25878.5
28989.9
32889.8
37536.3
42918.3
49052.4
55982.1
63777.9
72539.3
82413.3
93580.1
106208
120472
136600
154887
175702
199489
226785
258213
294501
336494
385172
441667
507300
583657
672739
777284
901330
1.05118e+06
1.23622e+06
1.47081e+06
1.7784e+06
2.19666e+06
2.78463e+06
3.63464e+06
4.89527e+06
6.81804e+06
9.85654e+06
1.48925e+07
2.38045e+07
4.11027e+07
7.9536e+07
1.84802e+08
5.94344e+08
3.64963e+09
22583.2
23797.8
26001.2
29062.5
32906.3
37494.8
42819.9
48900.2
55779.8
63529.4
72247.3
82073.9
93191.5
105780
120018
136128
154402
175203
198974
226248
257646
293894
335834
384442
440845
506360
582567
671466
775795
899600
1.0492e+06
1.234e+06
1.4684e+06
1.77588e+06
2.19417e+06
2.78231e+06
3.6326e+06
4.89359e+06
6.81673e+06
9.85556e+06
1.48918e+07
2.38041e+07
4.11025e+07
7.95359e+07
1.84801e+08
5.94344e+08
3.64963e+09
22783.4
23975.5
26139.8
29150.6
32937.1
37465.7
42731.4
48754.8
55581.1
63281.3
71952.7
81728.7
92793.5
105340
119547
135636
153894
174680
198434
225686
257054
293261
335147
383684
439993
505389
581443
670155
774262
897822
1.04717e+06
1.23173e+06
1.46593e+06
1.77331e+06
2.19163e+06
2.77995e+06
3.63054e+06
4.89188e+06
6.81538e+06
9.85456e+06
1.48911e+07
2.38036e+07
4.11022e+07
7.95357e+07
1.84801e+08
5.94344e+08
3.64963e+09
22999.1
24169.1
26294.8
29255.1
32983.7
37450.9
42654.7
48618.2
55388
63035.2
71657.1
81380.4
92389.3
104888
119058
135122
153362
174132
197869
225098
256436
292603
334434
382898
439113
504386
580286
668806
772689
895998
1.04509e+06
1.22941e+06
1.4634e+06
1.77068e+06
2.18905e+06
2.77755e+06
3.62844e+06
4.89015e+06
6.81402e+06
9.85355e+06
1.48904e+07
2.38031e+07
4.11019e+07
7.95356e+07
1.84801e+08
5.94344e+08
3.64963e+09
23230.2
24378.8
26466.7
29377
33047.4
37451.9
42591.8
48492.5
55202.2
62792.7
71360.8
81031.7
91984.2
104427
118554
134588
152806
173558
197277
224484
255792
291918
333694
382085
438204
503353
579095
667422
771075
894131
1.04297e+06
1.22704e+06
1.46083e+06
1.76801e+06
2.18642e+06
2.77512e+06
3.62631e+06
4.88839e+06
6.81265e+06
9.85253e+06
1.48896e+07
2.38027e+07
4.11016e+07
7.95355e+07
1.84801e+08
5.94344e+08
3.64963e+09
23476.8
24604.7
26655.9
29517
33129.4
37470.4
42544.6
48380
55026.4
62556.6
71067.6
80684
91576.8
103958
118036
134035
152228
172960
196659
223843
255121
291206
332927
381245
437267
502289
577872
666001
769423
892222
1.0408e+06
1.22462e+06
1.45822e+06
1.7653e+06
2.18376e+06
2.77265e+06
3.62416e+06
4.88661e+06
6.81126e+06
9.8515e+06
1.48889e+07
2.38022e+07
4.11013e+07
7.95353e+07
1.84801e+08
5.94344e+08
3.64963e+09
23738.9
24847.1
26862.9
29676
33230.9
37508
42515.1
48282.8
54863
62329.6
70780.1
80338.5
91168.2
103483
117507
133464
151627
172337
196015
223175
254422
290466
332132
380376
436300
501195
576616
664547
767734
890273
1.03859e+06
1.22217e+06
1.45556e+06
1.76255e+06
2.18106e+06
2.77016e+06
3.62199e+06
4.88482e+06
6.80986e+06
9.85047e+06
1.48882e+07
2.38017e+07
4.11011e+07
7.95352e+07
1.84801e+08
5.94344e+08
3.64963e+09
24016.7
25106.2
27088.2
29854.8
33353
37566.2
42505.2
48203.1
54714.1
62113.7
70500
79997.1
90760.7
103005
116968
132878
151006
171689
195343
222479
253695
289697
331308
379478
435304
500072
575329
663059
766010
888287
1.03633e+06
1.21967e+06
1.45286e+06
1.75976e+06
2.17833e+06
2.76764e+06
3.6198e+06
4.88302e+06
6.80845e+06
9.84942e+06
1.48875e+07
2.38013e+07
4.11008e+07
7.9535e+07
1.84801e+08
5.94344e+08
3.64963e+09
24310.1
25382.2
27332.2
30054
33496.8
37646.5
42516.6
48142.9
54582
61911
70229
79660.1
90357.4
102530
116423
132278
150364
171016
194644
221753
252937
288899
330455
378550
434278
498918
574011
661539
764252
886266
1.03405e+06
1.21713e+06
1.45013e+06
1.75694e+06
2.17558e+06
2.76511e+06
3.61759e+06
4.8812e+06
6.80703e+06
9.84837e+06
1.48867e+07
2.38008e+07
4.11005e+07
7.95349e+07
1.84801e+08
5.94344e+08
3.64963e+09
24619.6
25675.5
27595.3
30274.4
33663.4
37750.3
42551
48104.2
54468.9
61724
69969.9
79330.9
89960
102058
115874
131665
149704
170318
193917
220997
252149
288069
329569
377591
433221
497732
572663
659990
762467
884223
1.03174e+06
1.21457e+06
1.44737e+06
1.7541e+06
2.1728e+06
2.76255e+06
3.61537e+06
4.87937e+06
6.8056e+06
9.84732e+06
1.4886e+07
2.38003e+07
4.11002e+07
7.95347e+07
1.84801e+08
5.94344e+08
3.64963e+09
24945.5
25986.5
27878.2
30516.7
33853.7
37878.8
42610.2
48089.2
54377.1
61555.2
69725.3
79012.6
89569.9
101590
115323
131043
149026
169598
193163
220211
251328
287206
328651
376599
432131
496514
571282
658410
760657
882162
1.02941e+06
1.21199e+06
1.44458e+06
1.75122e+06
2.17e+06
2.75997e+06
3.61313e+06
4.87753e+06
6.80417e+06
9.84626e+06
1.48853e+07
2.37998e+07
4.10999e+07
7.95346e+07
1.84801e+08
5.94343e+08
3.64963e+09
25288.3
26315.6
28181.2
30781.6
34068.6
38033.2
42695.7
48099.6
54308.9
61407
69497.5
78707
89188.6
101128
114775
130416
148334
168856
192381
219395
250475
286309
327699
375573
431007
495263
569868
656798
758814
880067
1.02706e+06
1.20937e+06
1.44176e+06
1.74832e+06
2.16718e+06
2.75738e+06
3.61088e+06
4.87569e+06
6.80273e+06
9.84519e+06
1.48845e+07
2.37993e+07
4.10996e+07
7.95344e+07
1.84801e+08
5.94343e+08
3.64963e+09
25648.5
26663.4
28505.2
31069.7
34309
38214.8
42808.9
48137.2
54266.1
61281.5
69288.8
78415.9
88816.2
100675
114234
129786
147629
168094
191573
218548
249589
285379
326712
374512
429848
493976
568420
655150
756934
877937
1.02466e+06
1.20672e+06
1.43892e+06
1.7454e+06
2.16434e+06
2.75478e+06
3.60863e+06
4.87384e+06
6.80129e+06
9.84413e+06
1.48838e+07
2.37988e+07
4.10993e+07
7.95342e+07
1.84801e+08
5.94343e+08
3.64963e+09
26026.9
27030.7
28850.6
31381.8
34575.7
38424.4
42951.2
48203.8
54251.1
61181.2
69101.9
78142.6
88457.7
100233
113700
129155
146916
167313
190741
217671
248670
284413
325689
373415
428653
492653
566934
653465
755017
875769
1.02223e+06
1.20403e+06
1.43604e+06
1.74245e+06
2.16148e+06
2.75216e+06
3.60636e+06
4.87198e+06
6.79985e+06
9.84306e+06
1.4883e+07
2.37984e+07
4.1099e+07
7.95341e+07
1.84801e+08
5.94343e+08
3.64963e+09
26424.1
27418.1
29218.4
31718.6
34869.5
38663.2
43123.9
48300.9
54265.5
61108.3
68939.2
77889.7
88115.3
99802
113174
128527
146196
166518
189885
216764
247718
283412
324629
372279
427420
491291
565409
651740
753061
873563
1.01976e+06
1.20131e+06
1.43313e+06
1.73948e+06
2.1586e+06
2.74953e+06
3.6041e+06
4.87012e+06
6.7984e+06
9.842e+06
1.48823e+07
2.37979e+07
4.10988e+07
7.95339e+07
1.84801e+08
5.94343e+08
3.64963e+09
26841.3
27826.6
29609.2
32081
35191.3
38932.1
43328
48430.1
54311.4
61064.9
68803.1
77659.3
87790.7
99383.7
112660
127910
145475
165709
189006
215829
246732
282374
323530
371105
426146
489889
563843
649974
751064
871318
1.01726e+06
1.19856e+06
1.43019e+06
1.73649e+06
2.15571e+06
2.7469e+06
3.60182e+06
4.86826e+06
6.79696e+06
9.84093e+06
1.48816e+07
2.37974e+07
4.10985e+07
7.95338e+07
1.84801e+08
5.94343e+08
3.64963e+09
27279.4
28257.3
30024.1
32469.6
35541.8
39231.9
43564.7
48592.5
54390.3
61053.1
68696
77454.3
87486.9
98981.3
112160
127302
144754
164891
188108
214866
245712
281298
322392
369889
424830
488444
562235
648167
749026
869033
1.01472e+06
1.19577e+06
1.42723e+06
1.73348e+06
2.15281e+06
2.74425e+06
3.59954e+06
4.8664e+06
6.79551e+06
9.83987e+06
1.48808e+07
2.37969e+07
4.10982e+07
7.95336e+07
1.848e+08
5.94343e+08
3.64963e+09
27739.4
28711.2
30463.9
32885.5
35921.9
39563.4
43835
48789.6
54503.8
61074.9
68620.1
77277.1
87206.8
98598
111674
126704
144037
164067
187194
213877
244660
280185
321213
368630
423471
486956
560582
646315
746944
866706
1.01214e+06
1.19295e+06
1.42424e+06
1.73044e+06
2.14989e+06
2.7416e+06
3.59726e+06
4.86454e+06
6.79407e+06
9.8388e+06
1.48801e+07
2.37964e+07
4.10979e+07
7.95335e+07
1.848e+08
5.94343e+08
3.64963e+09
28222.7
29189.6
30929.9
33329.5
36332.3
39927.5
44139.7
49022.4
54653.5
61132.2
68577.7
77130.2
86952.9
98235.9
111203
126120
143331
163240
186265
212864
243575
279034
319992
367328
422066
485421
558884
644417
744817
864335
1.00952e+06
1.19009e+06
1.42121e+06
1.72738e+06
2.14695e+06
2.73893e+06
3.59497e+06
4.86267e+06
6.79262e+06
9.83774e+06
1.48793e+07
2.37959e+07
4.10976e+07
7.95333e+07
1.848e+08
5.94343e+08
3.64963e+09
28731
29694
31423.2
33802.6
36773.9
40324.9
44479.7
49292
54840.7
61226.5
68570.9
77016.1
86727.7
97897.6
110750
125552
142637
162415
185325
211829
242459
277846
318730
365981
420615
483839
557137
642471
742643
861920
1.00686e+06
1.18719e+06
1.41816e+06
1.72429e+06
2.144e+06
2.73626e+06
3.59268e+06
4.86081e+06
6.79118e+06
9.83668e+06
1.48786e+07
2.37955e+07
4.10973e+07
7.95332e+07
1.848e+08
5.94343e+08
3.64963e+09
29266.5
30225.9
31945.1
34305.9
37247.6
40756.4
44855.7
49599.3
55066.6
61359.6
68601.6
76937.2
86534.1
97586.3
110320
125002
141956
161594
184378
210775
241315
276621
317425
364588
419116
482207
555341
640476
740421
859459
1.00415e+06
1.18426e+06
1.41507e+06
1.72119e+06
2.14103e+06
2.73357e+06
3.59038e+06
4.85894e+06
6.78973e+06
9.83561e+06
1.48779e+07
2.3795e+07
4.1097e+07
7.9533e+07
1.848e+08
5.94343e+08
3.64963e+09
29830.9
30786.7
32497.1
34840.5
37754.2
41222.7
45268.5
49945.2
55332.3
61533
68671.9
76895.8
86374.6
97304.8
109914
124470
141290
160783
183429
209706
240144
275360
316078
363149
417568
480525
553493
638430
738149
856949
1.0014e+06
1.18129e+06
1.41195e+06
1.71806e+06
2.13804e+06
2.73088e+06
3.58808e+06
4.85707e+06
6.78828e+06
9.83455e+06
1.48771e+07
2.37945e+07
4.10967e+07
7.95329e+07
1.848e+08
5.94343e+08
3.64963e+09
30426.1
31378.4
33080.8
35407.8
38294.9
41724.7
45718.9
50330.4
55639
61748
68783.6
76894.1
86251.9
97055.6
109535
123959
140642
159988
182481
208624
238948
274065
314690
361663
415970
478791
551592
636330
735824
854390
998604
1.17828e+06
1.4088e+06
1.7149e+06
2.13504e+06
2.72818e+06
3.58577e+06
4.85519e+06
6.78684e+06
9.83349e+06
1.48764e+07
2.3794e+07
4.10965e+07
7.95327e+07
1.848e+08
5.94343e+08
3.64963e+09
31053.9
32003.1
33697.7
36009.1
38870.6
42263.2
46207.4
50755.7
55987.4
62006
68938.3
76934.4
86168.5
96841.8
109186
123472
140015
159208
181538
207533
237730
272737
313261
360130
414321
477003
549637
634176
733446
851779
995761
1.17522e+06
1.40561e+06
1.71171e+06
2.13202e+06
2.72546e+06
3.58345e+06
4.85332e+06
6.78539e+06
9.83242e+06
1.48756e+07
2.37935e+07
4.10962e+07
7.95326e+07
1.848e+08
5.94343e+08
3.64963e+09
31716.5
32662.7
34349.5
36645.9
39482.6
42839.1
46735
51221.9
56378.6
62308.2
69137.8
77018.6
86126.8
96666.1
108871
123013
139411
158444
180603
206438
236495
271381
311793
358551
412621
475161
547625
631965
731011
849114
992868
1.17212e+06
1.40239e+06
1.7085e+06
2.12898e+06
2.72274e+06
3.58113e+06
4.85144e+06
6.78394e+06
9.83136e+06
1.48749e+07
2.37931e+07
4.10959e+07
7.95324e+07
1.848e+08
5.94343e+08
3.64963e+09
32416.3
33359.4
35038.1
37319.9
40132.1
43453.4
47302.2
51729.6
56813.4
62655.8
69383.6
77148.7
86129.3
96531.3
108592
122584
138829
157700
179684
205345
235246
269996
310287
356927
410869
473264
545556
629696
728519
846395
989925
1.16898e+06
1.39913e+06
1.70526e+06
2.12592e+06
2.72e+06
3.5788e+06
4.84955e+06
6.78249e+06
9.8303e+06
1.48742e+07
2.37926e+07
4.10956e+07
7.95323e+07
1.848e+08
5.94343e+08
3.64963e+09
33155.9
34095.5
35766
38032.6
40820.6
44107.2
47910
52279.5
57292.5
63049.9
69677.2
77326.8
86178.2
96439.8
108351
122189
138273
156980
178784
204256
233986
268587
308745
355257
409067
471312
543430
627367
725968
843619
986928
1.16579e+06
1.39583e+06
1.70199e+06
2.12284e+06
2.71724e+06
3.57647e+06
4.84766e+06
6.78103e+06
9.82923e+06
1.48734e+07
2.37921e+07
4.10953e+07
7.95321e+07
1.848e+08
5.94343e+08
3.64963e+09
33937.8
34873.5
36535.1
38785.9
41549.6
44801.7
48559.3
52872.5
57816.9
63491.5
70020.1
77554.4
86275.6
96394.2
108153
121829
137748
156284
177901
203174
232720
267158
307171
353546
407215
469305
541244
624979
723357
840785
983878
1.16255e+06
1.39249e+06
1.69869e+06
2.11974e+06
2.71448e+06
3.57412e+06
4.84577e+06
6.77958e+06
9.82817e+06
1.48727e+07
2.37916e+07
4.1095e+07
7.9532e+07
1.848e+08
5.94343e+08
3.64963e+09
34764.9
35696
37347.8
39581.9
42321
45538.4
49251.2
53509.2
58387.3
63981.9
70413.7
77833.5
86423.5
96396.7
107998
121510
137256
155615
177039
202104
231453
265713
305566
351793
405313
467242
538999
622529
720685
837891
980772
1.15926e+06
1.38911e+06
1.69536e+06
2.11661e+06
2.71169e+06
3.57177e+06
4.84387e+06
6.77812e+06
9.8271e+06
1.48719e+07
2.37911e+07
4.10947e+07
7.95318e+07
1.848e+08
5.94343e+08
3.64963e+09
35640.1
36565.9
38206.7
40423
43136.4
46318.7
49986.8
54190.6
59004.6
64522
70859.4
78165.6
86623.8
96449.5
107891
121232
136799
154974
176203
201055
230190
264255
303935
350001
403363
465124
536695
620017
717950
834936
977610
1.15592e+06
1.38568e+06
1.69199e+06
2.11346e+06
2.70889e+06
3.5694e+06
4.84197e+06
6.77665e+06
9.82603e+06
1.48712e+07
2.37907e+07
4.10945e+07
7.95317e+07
1.848e+08
5.94343e+08
3.64963e+09
36566.7
37486
39114.3
41311.6
43997.9
47144.6
50767.6
54917.8
59669.6
65112.9
71358.6
78552.2
86878.1
96554.5
107832
120998
136381
154364
175393
200028
228934
262788
302279
348173
401367
462952
534332
617443
715152
831920
974389
1.15253e+06
1.38221e+06
1.68859e+06
2.11029e+06
2.70608e+06
3.56702e+06
4.84006e+06
6.77519e+06
9.82496e+06
1.48705e+07
2.37902e+07
4.10942e+07
7.95315e+07
1.848e+08
5.94343e+08
3.64963e+09
37547.9
38459.5
40073.6
42250.1
44907.9
48018.1
51595.3
55692.2
60383.9
65756
71912.4
78994.6
87187.8
96713.4
107825
120811
136005
153790
174614
199023
227689
261318
300605
346313
399327
460729
531912
614808
712291
828842
971110
1.14908e+06
1.3787e+06
1.68515e+06
2.10709e+06
2.70324e+06
3.56464e+06
4.83814e+06
6.77372e+06
9.82388e+06
1.48697e+07
2.37897e+07
4.10939e+07
7.95314e+07
1.84799e+08
5.94343e+08
3.64963e+09
38587.2
39489.8
41087.6
43241.1
45869
48941.4
52471.9
56516.5
61150.2
66451.9
72521.2
79494
87554.1
96927.7
107870
120674
135673
153254
173866
198043
226459
259849
298917
344424
397246
458455
529434
612111
709367
825701
967772
1.14558e+06
1.37514e+06
1.68168e+06
2.10386e+06
2.70039e+06
3.56224e+06
4.83621e+06
6.77224e+06
9.82281e+06
1.4869e+07
2.37892e+07
4.10936e+07
7.95312e+07
1.84799e+08
5.94343e+08
3.64963e+09
39688.3
40580.3
42159.5
44287.8
46884
49916.7
53400.3
57394.5
61970.5
67201.2
73183.6
80049.4
87978.3
97198.8
107971
120589
135389
152760
173152
197092
225252
258388
297219
342509
395128
456133
526901
609354
706380
822498
964375
1.14203e+06
1.37154e+06
1.67817e+06
2.1006e+06
2.69752e+06
3.55982e+06
4.83428e+06
6.77076e+06
9.82173e+06
1.48682e+07
2.37887e+07
4.10933e+07
7.95311e+07
1.84799e+08
5.94343e+08
3.64963e+09
40855
41734.6
43292.6
45393.1
47955.3
50947
54383.9
58328.8
62846
68004
73898.6
80659.8
88460.9
97528.1
108129
120558
135154
152308
172473
196174
224074
256938
295515
340572
392973
453766
524314
606540
703332
819234
960919
1.13843e+06
1.36789e+06
1.67463e+06
2.09732e+06
2.69463e+06
3.5574e+06
4.83233e+06
6.76927e+06
9.82064e+06
1.48675e+07
2.37883e+07
4.1093e+07
7.95309e+07
1.84799e+08
5.94343e+08
3.64963e+09
42091.3
42956.7
44490.7
46560.3
49086.3
52035.9
55426
59320.9
63777.3
68861
74667.1
81324.8
89000.8
97917.1
108345
120583
134972
151905
171836
195292
222924
255502
293809
338618
390788
451357
521679
603671
700228
815913
957408
1.13477e+06
1.36419e+06
1.67104e+06
2.09401e+06
2.69172e+06
3.55496e+06
4.83038e+06
6.76778e+06
9.81956e+06
1.48667e+07
2.37878e+07
4.10927e+07
7.95308e+07
1.84799e+08
5.94343e+08
3.64963e+09
43401.5
44250.6
45757.4
47793
50280
53186
56528.5
60372.2
64765.5
69773.2
75490
82043.6
89598.1
98367.8
108622
120667
134846
151553
171244
194448
221803
254085
292107
336652
388576
448909
518997
600753
697075
812542
953845
1.13106e+06
1.36045e+06
1.66743e+06
2.09068e+06
2.68879e+06
3.55251e+06
4.82842e+06
6.76629e+06
9.81847e+06
1.4866e+07
2.37873e+07
4.10925e+07
7.95306e+07
1.84799e+08
5.94343e+08
3.64963e+09
44789.9
45620.6
47096.8
49094.7
51539.8
54400.2
57694.3
61484.4
65812
70742
76368.4
82818.2
90253.4
98879.3
108961
120813
134778
151255
170701
193646
220717
252693
290416
334679
386339
446422
516266
597784
693884
809139
950235
1.12731e+06
1.35666e+06
1.66377e+06
2.08731e+06
2.68584e+06
3.55004e+06
4.82645e+06
6.76478e+06
9.81737e+06
1.48652e+07
2.37868e+07
4.10922e+07
7.95305e+07
1.84799e+08
5.94343e+08
3.64963e+09
46261.2
47071.1
48513.2
50469.6
52869.3
55681.7
58926.1
62659.2
66918.8
71769.1
77304.2
83650.1
90966.5
99452.2
109365
121022
134772
151014
170209
192888
219671
251334
288741
332704
384084
443903
513494
594769
690645
805684
946573
1.1235e+06
1.35283e+06
1.66007e+06
2.08391e+06
2.68286e+06
3.54755e+06
4.82447e+06
6.76327e+06
9.81627e+06
1.48645e+07
2.37863e+07
4.10919e+07
7.95303e+07
1.84799e+08
5.94343e+08
3.64963e+09
47820.2
48606.9
50011
51921.6
54272.2
57033.8
60226.4
63898.7
68087.9
72856.6
78299.4
84540.9
91738.6
100088
109836
121297
134830
150835
169772
192177
218669
250016
287089
330732
381816
441356
510683
591706
687354
802175
942855
1.11964e+06
1.34895e+06
1.65633e+06
2.08048e+06
2.67987e+06
3.54506e+06
4.82248e+06
6.76175e+06
9.81517e+06
1.48637e+07
2.37858e+07
4.10916e+07
7.95302e+07
1.84799e+08
5.94343e+08
3.64963e+09
49472
50232.9
51595
53455.3
55752.7
58460.7
61598
65205.9
69321.9
74006.9
79356.1
85492.8
92572.2
100786
110374
121641
134956
150719
169395
191520
217715
248736
285462
328771
379540
438787
507836
588598
684010
798609
939082
1.11572e+06
1.34503e+06
1.65257e+06
2.07703e+06
2.67685e+06
3.54255e+06
4.82048e+06
6.76023e+06
9.81406e+06
1.48629e+07
2.37853e+07
4.10913e+07
7.953e+07
1.84799e+08
5.94343e+08
3.64963e+09
51221.7
51954.3
53270.3
55075.4
57315.1
59966.3
63043.9
66584.3
70623.3
75222.9
80477.2
86508.3
93469.4
101549
110979
122058
135152
150671
169082
190921
216811
247499
283867
326826
377264
436200
504957
585445
680614
794989
935253
1.11176e+06
1.34106e+06
1.64876e+06
2.07355e+06
2.67382e+06
3.54003e+06
4.81847e+06
6.7587e+06
9.81295e+06
1.48622e+07
2.37848e+07
4.1091e+07
7.95299e+07
1.84799e+08
5.94343e+08
3.64963e+09
53075
53776.7
55042.2
56787.1
58963.9
61554
64567.7
68036.7
71995.2
76507.7
81665.5
87590.3
94432.5
102378
111653
122547
135421
150695
168836
190384
215963
246309
282310
324904
374994
433601
502050
582253
677170
791315
931370
1.10774e+06
1.33705e+06
1.64492e+06
2.07005e+06
2.67078e+06
3.53749e+06
4.81646e+06
6.75717e+06
9.81184e+06
1.48614e+07
2.37843e+07
4.10907e+07
7.95297e+07
1.84799e+08
5.94343e+08
3.64963e+09
55037.6
55705.7
56916.3
58595.6
60704.1
63227.9
66173.4
69566.9
73442
77864.9
82924.4
88741.6
95464.5
103275
112398
123110
135766
150793
168661
189912
215174
245172
280798
323012
372735
430995
499119
579023
673679
787589
927434
1.10368e+06
1.33299e+06
1.64105e+06
2.06652e+06
2.66771e+06
3.53495e+06
4.81444e+06
6.75564e+06
9.81073e+06
1.48606e+07
2.37838e+07
4.10904e+07
7.95295e+07
1.84799e+08
5.94343e+08
3.64963e+09
57115.5
57747.4
58898.7
60506.9
62541.1
64992.2
67865.4
71179.2
74968
79297.7
84257.6
89965.9
96568.6
104245
113215
123749
136192
150969
168561
189510
214446
244093
279337
321155
370492
428387
496170
575760
670145
783815
923447
1.09957e+06
1.32889e+06
1.63714e+06
2.06297e+06
2.66463e+06
3.5324e+06
4.81242e+06
6.7541e+06
9.80961e+06
1.48599e+07
2.37833e+07
4.10901e+07
7.95294e+07
1.84799e+08
5.94343e+08
3.64963e+09
59315.2
59908.2
60995.7
62527.2
64480.7
66852.1
69648.7
72878.3
76577.3
80810.5
85669.4
91266.9
97748.2
105289
114106
124465
136698
151226
168539
189182
213785
243077
277933
319339
368272
425784
493209
572471
666574
779996
919412
1.09541e+06
1.32476e+06
1.63321e+06
2.05939e+06
2.66153e+06
3.52983e+06
4.81038e+06
6.75256e+06
9.8085e+06
1.48591e+07
2.37828e+07
4.10898e+07
7.95292e+07
1.84799e+08
5.94343e+08
3.64963e+09
61643.1
62194.8
63214
64663
66529.3
68814.4
71528.9
74669.1
78274.6
82409
87163.9
92648.8
99007.2
106412
115076
125260
137287
151568
168600
188932
213198
242126
276585
317567
366081
423193
490243
569163
662971
776137
915333
1.0912e+06
1.32058e+06
1.62924e+06
2.0558e+06
2.65842e+06
3.52726e+06
4.80835e+06
6.75101e+06
9.80738e+06
1.48583e+07
2.37824e+07
4.10895e+07
7.95291e+07
1.84798e+08
5.94343e+08
3.64963e+09
64106.4
64614.2
65560.8
66921.6
68693.9
70885.8
73511.6
76557.4
80065.3
84098.5
88745.4
94116.2
100350
107617
116127
126136
137960
152000
168748
188766
212688
241245
275298
315846
363925
420620
487280
565844
659344
772243
911212
1.08696e+06
1.31637e+06
1.62524e+06
2.05218e+06
2.65529e+06
3.52468e+06
4.8063e+06
6.74946e+06
9.80625e+06
1.48576e+07
2.37819e+07
4.10892e+07
7.95289e+07
1.84798e+08
5.94343e+08
3.64963e+09
66712.3
67173.9
68043.6
69310.4
70981.9
73073.4
75602.9
78549
81955.5
85884.1
90419.5
95674.5
101781
108909
117264
127097
138721
152521
168986
188686
212259
240439
274079
314181
361811
418070
484324
562525
655707
768320
907053
1.08267e+06
1.31212e+06
1.62121e+06
2.04853e+06
2.65215e+06
3.52208e+06
4.80425e+06
6.74791e+06
9.80513e+06
1.48568e+07
2.37814e+07
4.10889e+07
7.95288e+07
1.84798e+08
5.94343e+08
3.64963e+09
69468.6
69881.7
70670.4
71837.6
73401.4
75384.5
77809.4
80650.8
83951.7
87771.8
92193.6
97328.7
103305
110292
118490
128148
139570
153135
169320
188699
211918
239712
272931
312579
359744
415549
481380
559213
652067
764371
902856
1.07834e+06
1.30783e+06
1.61715e+06
2.04487e+06
2.64899e+06
3.51948e+06
4.80219e+06
6.74635e+06
9.804e+06
1.4856e+07
2.37809e+07
4.10886e+07
7.95286e+07
1.84798e+08
5.94343e+08
3.64963e+09
72383.3
72745.9
73449.7
74511.7
75961
77827.6
80138.2
82870.3
86060.9
89768.4
94073.7
99083.6
104929
111772
119811
129291
140511
153844
169753
188808
211667
239070
271863
311049
357733
413067
478459
555907
648418
760397
898624
1.07398e+06
1.3035e+06
1.61306e+06
2.04118e+06
2.64582e+06
3.51686e+06
4.80013e+06
6.74479e+06
9.80287e+06
1.48552e+07
2.37804e+07
4.10883e+07
7.95285e+07
1.84798e+08
5.94343e+08
3.64963e+09
75465.2
75775.2
76390.4
77341.9
78669.8
80411.7
82597.3
85215.8
88290.9
91881.2
96066
100947
106659
113354
121232
130532
141550
154652
170287
189018
211514
238517
270878
309596
355786
410632
475565
552611
644759
756401
894360
1.06958e+06
1.29915e+06
1.60895e+06
2.03748e+06
2.64264e+06
3.51424e+06
4.79806e+06
6.74322e+06
9.80174e+06
1.48545e+07
2.37799e+07
4.1088e+07
7.95283e+07
1.84798e+08
5.94343e+08
3.64963e+09
78723.4
78979
79502.1
80338.1
81537.9
83146.8
85197
87696
90649.9
94118.2
98178
102928
108501
115045
122759
131877
142690
155559
170925
189337
211463
238060
269982
308223
353906
408249
472707
549331
641097
752383
890067
1.06515e+06
1.29477e+06
1.60481e+06
2.03376e+06
2.63944e+06
3.51162e+06