/*--------------------------------*- C++ -*----------------------------------*\
  =========                 |
  \\      /  F ield         | OpenFOAM: The Open Source CFD Toolbox
   \\    /   O peration     | Website:  https://openfoam.org
    \\  /    A nd           | Version:  7
     \\/     M anipulation  |
\*---------------------------------------------------------------------------*/
FoamFile
{
    version     2.0;
    format      ascii;
    class       surfaceScalarField;
    location    "1109";
    object      phi;
}
// * * * * * * * * * * * * * * * * * * * * * * * * * * * * * * * * * * * * * //

dimensions      [0 3 -1 0 0 0 0];

internalField   nonuniform List<scalar> 
13066
(
-1.80725e-23
-9.98208e-24
9.48465e-24
-1.32473e-23
1.02835e-23
-5.38763e-24
1.93413e-23
1.96561e-24
3.23629e-23
4.83888e-24
4.49543e-23
4.7832e-24
4.12318e-23
1.07682e-23
3.74098e-23
6.36201e-24
3.27667e-23
2.93483e-24
2.9377e-23
9.5053e-25
1.46477e-24
3.04394e-25
-3.01238e-24
-7.0254e-25
-7.45464e-24
-8.58676e-25
-9.01885e-24
-7.58323e-25
-8.94418e-24
-5.95254e-25
-7.15942e-24
-1.12442e-24
-4.66211e-24
-9.60449e-25
-2.28115e-24
-3.74406e-25
6.76865e-25
-3.8337e-25
-1.91277e-24
-5.68519e-25
-2.50975e-24
-7.2158e-25
-2.88469e-24
-7.58737e-25
2.13789e-24
-6.43381e-25
7.67643e-26
-4.99631e-25
-2.0177e-25
-4.05171e-25
7.26343e-25
-2.98807e-25
6.87661e-25
-2.16612e-25
-3.75925e-26
-1.44571e-25
5.05014e-25
-9.49649e-26
7.42489e-25
-6.84802e-26
8.95429e-25
-5.63118e-26
1.09404e-24
-5.18697e-26
7.33891e-25
-5.06292e-26
6.02575e-25
-4.82685e-26
7.21543e-25
-4.51911e-26
5.80351e-25
-4.14474e-26
5.60131e-25
-3.71155e-26
6.27002e-25
-3.24554e-26
3.74219e-25
-2.76685e-26
3.10856e-25
-2.31665e-26
2.82761e-25
-1.90166e-26
1.09259e-25
-1.53153e-26
5.56968e-26
-1.19871e-26
5.51055e-26
-9.07563e-27
3.80187e-26
-6.53865e-27
1.57463e-27
-4.19502e-27
-1.6455e-27
-2.71858e-23
-8.18335e-24
3.34154e-23
1.92769e-23
3.2063e-23
9.42354e-24
4.33168e-23
1.10437e-23
3.93632e-23
1.93582e-23
7.59058e-23
1.53537e-23
2.75896e-23
-4.4699e-25
2.62566e-23
-2.9649e-24
2.20039e-23
-4.23353e-24
1.96214e-23
-2.50329e-24
-7.25764e-24
-2.05453e-24
-8.55465e-24
-5.23693e-25
-8.27059e-24
8.1638e-25
-4.97318e-24
1.60934e-24
-1.38841e-23
1.86639e-24
3.40356e-25
2.73231e-24
1.50936e-23
2.85994e-24
5.67374e-24
2.26741e-24
2.71475e-24
2.1746e-24
-1.89278e-24
2.23141e-24
-1.3311e-24
2.40342e-24
4.98688e-24
2.49557e-24
1.14564e-23
2.42979e-24
8.00587e-24
2.2675e-24
1.00834e-23
2.12327e-24
1.14115e-23
1.91927e-24
1.29079e-23
1.7153e-24
1.12879e-23
1.50178e-24
9.36977e-24
1.30628e-24
7.22674e-24
1.13285e-24
5.4784e-24
9.76592e-25
4.20041e-24
8.37724e-25
3.28133e-24
7.14603e-25
2.58865e-24
6.03971e-25
2.05158e-24
5.06851e-25
1.68336e-24
4.21298e-25
1.30222e-24
3.4669e-25
1.27522e-24
2.81485e-25
8.18956e-25
2.24735e-25
6.19335e-25
1.76123e-25
3.7743e-25
1.34773e-25
2.65918e-25
9.99398e-26
1.81234e-25
7.08994e-26
7.20761e-26
4.70998e-26
2.97239e-26
2.79971e-26
5.17035e-27
1.31899e-26
2.9907e-27
-4.88218e-24
-2.70295e-23
2.85654e-23
7.19686e-24
3.91238e-23
9.78714e-24
5.49622e-23
3.28149e-24
3.27651e-23
-7.95823e-24
3.2734e-23
1.95716e-24
7.46231e-24
8.04606e-24
1.07438e-23
-4.03388e-25
1.91085e-23
-6.78523e-25
1.02701e-23
-1.67153e-24
1.69179e-24
-1.78048e-25
-1.14015e-24
2.61242e-24
-5.51219e-25
3.57064e-24
-6.68856e-26
3.49719e-24
-1.7352e-25
4.54545e-24
1.81211e-26
4.93378e-24
9.54138e-25
4.51648e-24
1.7788e-24
3.95481e-24
2.94907e-24
3.61574e-24
4.25751e-24
3.2472e-24
5.97928e-24
2.90437e-24
7.20498e-24
2.70924e-24
7.55237e-24
2.51092e-24
7.57354e-24
2.30592e-24
4.00407e-24
2.05819e-24
5.60205e-24
1.85733e-24
3.94546e-24
1.6704e-24
2.5124e-24
1.51696e-24
2.4101e-24
1.35165e-24
2.18518e-24
1.19161e-24
1.73913e-24
1.05895e-24
1.39117e-24
9.29889e-25
5.40465e-25
8.01388e-25
6.50369e-25
6.80513e-25
1.18546e-25
5.6868e-25
3.25814e-25
4.68705e-25
1.18245e-25
3.81081e-25
1.52128e-25
3.05498e-25
2.40235e-25
2.41907e-25
2.25225e-25
1.8854e-25
1.77187e-25
1.44247e-25
6.74437e-26
1.07777e-25
7.86612e-26
7.80183e-26
5.41018e-26
5.40784e-26
3.10637e-26
3.51696e-26
7.15456e-27
2.09599e-26
8.229e-27
2.59774e-23
3.45283e-23
3.02133e-23
2.4823e-23
3.56371e-23
1.47965e-23
3.18793e-23
1.11364e-23
5.37852e-23
1.36976e-23
4.33044e-23
6.79924e-24
-1.01391e-23
1.08212e-24
1.21879e-23
9.66344e-24
9.26237e-24
9.63526e-24
7.85395e-24
8.06957e-24
7.80734e-24
8.7964e-24
-4.61332e-24
8.40771e-24
-1.6091e-23
8.76412e-24
-2.64263e-24
7.59988e-24
-4.42347e-24
5.39547e-24
-1.4229e-23
3.96029e-24
-1.72373e-23
3.50008e-24
-1.45733e-23
3.31367e-24
-1.42955e-23
2.92908e-24
-1.27395e-23
2.65107e-24
-5.18928e-24
2.38781e-24
-3.83528e-24
2.01268e-24
-3.50694e-24
1.675e-24
-7.55568e-24
1.39075e-24
-8.98334e-24
1.19566e-24
-7.792e-24
1.02446e-24
-5.61279e-24
8.66241e-25
-8.3304e-24
6.93455e-25
-8.19825e-24
5.72816e-25
-3.47266e-24
4.86713e-25
-2.59545e-24
3.91082e-25
-2.91326e-24
3.0752e-25
-2.30651e-24
2.43406e-25
-1.73748e-24
1.90408e-25
-1.11172e-24
1.46014e-25
-6.41049e-26
1.10578e-25
-4.60625e-26
8.26971e-26
6.20941e-25
6.14639e-26
8.04218e-25
4.45566e-26
9.67094e-25
3.12531e-26
9.80379e-25
2.06677e-26
9.00298e-25
1.23245e-26
9.57393e-25
6.028e-27
5.78045e-25
1.51555e-27
2.54347e-25
-9.86548e-28
-8.68883e-27
-1.48619e-27
-6.1019e-28
2.06408e-23
4.02344e-23
2.66509e-23
2.49841e-23
2.96409e-23
1.46647e-23
3.41753e-23
1.16471e-23
4.48168e-23
6.36819e-24
2.9085e-23
-5.01722e-24
1.83707e-23
2.21612e-24
1.37133e-23
4.29442e-24
5.57511e-24
7.40192e-24
1.89245e-23
6.1094e-24
9.3157e-24
2.61603e-24
6.20744e-24
1.23251e-24
-1.63047e-23
-1.87486e-25
-1.51057e-23
7.20352e-25
-1.59302e-23
1.24874e-24
-1.60878e-23
1.38503e-24
-1.57447e-23
1.28146e-24
-1.48538e-23
1.30555e-24
-1.38648e-23
1.2921e-24
-1.28525e-23
1.23258e-24
-1.17346e-23
1.12106e-24
-1.06845e-23
9.88391e-25
-9.70574e-24
8.41987e-25
-8.62234e-24
7.27477e-25
-7.19562e-24
6.24946e-25
-4.99827e-24
5.36705e-25
-5.41773e-24
4.62478e-25
-2.76081e-24
4.52199e-25
1.25892e-24
4.20903e-25
1.69434e-24
3.64356e-25
1.15162e-24
3.21264e-25
1.43153e-24
2.87697e-25
1.22812e-24
2.52847e-25
1.08414e-25
2.16721e-25
-3.75818e-25
1.84307e-25
-5.70439e-25
1.54265e-25
-7.17953e-25
1.27109e-25
-7.35502e-25
1.0337e-25
-6.77805e-25
8.32953e-26
-6.54725e-25
6.66294e-26
-7.3377e-25
5.29558e-26
-6.82948e-25
4.18975e-26
-7.89769e-25
3.30109e-26
-4.57153e-25
2.61133e-26
-1.92754e-25
2.09823e-26
7.25279e-27
1.79233e-26
1.05164e-26
1.42741e-23
3.71592e-23
2.20176e-23
2.10162e-23
2.64384e-23
1.50727e-23
2.96562e-23
1.64093e-23
2.25959e-23
2.01404e-23
4.10139e-23
2.86537e-23
2.84861e-23
1.28934e-23
2.8158e-23
4.95963e-24
1.07492e-23
-1.54464e-24
1.12526e-23
7.90706e-25
6.26172e-24
1.69404e-24
1.68788e-24
2.32442e-24
-2.66654e-24
2.99064e-24
-4.54186e-24
3.42518e-24
-4.43596e-24
3.86136e-24
-1.9748e-24
4.12603e-24
7.00067e-25
4.20539e-24
1.60177e-24
4.23927e-24
2.20635e-24
3.91317e-24
1.88598e-24
3.58688e-24
8.61082e-25
3.1284e-24
3.9987e-26
2.77881e-24
-4.25714e-25
2.52542e-24
-8.27486e-25
2.21377e-24
-7.12115e-25
1.93333e-24
-2.51563e-25
1.66045e-24
3.43152e-24
1.4274e-24
2.44198e-24
1.17424e-24
-7.67131e-26
9.61503e-25
-9.41328e-26
7.95713e-25
-2.48666e-25
6.52735e-25
4.0861e-26
5.24306e-25
-4.05807e-25
4.14136e-25
-1.35987e-27
3.22363e-25
3.49322e-25
2.44683e-25
2.96787e-25
1.8222e-25
1.4723e-25
1.33987e-25
5.38373e-26
9.69295e-26
1.0338e-25
6.8734e-26
2.63944e-25
4.73272e-26
3.49181e-25
3.13542e-26
4.73106e-25
1.94568e-26
4.88428e-25
1.07779e-26
2.41279e-25
4.76486e-27
6.49345e-26
1.13395e-27
-1.03793e-26
-3.57468e-28
-3.36713e-28
1.30501e-23
3.24404e-23
2.30343e-23
1.87969e-23
3.01995e-23
1.49886e-23
3.27715e-23
1.53445e-23
3.93774e-23
1.40757e-23
1.15241e-23
7.99316e-24
1.32369e-23
1.20948e-23
6.59284e-24
1.27316e-23
2.08426e-23
1.36844e-23
1.80368e-23
1.04863e-23
1.65342e-23
8.98844e-24
1.27899e-23
8.26458e-24
8.91735e-24
7.95196e-24
6.11422e-24
7.79903e-24
5.85706e-24
7.62081e-24
7.7121e-24
7.31508e-24
1.00159e-23
6.71019e-24
5.56214e-24
5.65179e-24
7.62669e-24
5.19634e-24
3.8478e-24
4.61372e-24
6.756e-24
4.20899e-24
1.0457e-23
3.78542e-24
8.17103e-24
3.36331e-24
7.8349e-24
3.05657e-24
6.09721e-24
2.7092e-24
7.21274e-24
2.42324e-24
5.34604e-24
2.15764e-24
4.66378e-24
1.92882e-24
4.52774e-24
1.71522e-24
4.13457e-24
1.50792e-24
2.26649e-24
1.31235e-24
1.93099e-24
1.13645e-24
1.75991e-24
9.69421e-25
1.01595e-24
8.17514e-25
1.05337e-24
6.80628e-25
1.07648e-24
5.58204e-25
7.25096e-25
4.51785e-25
4.11153e-25
3.61455e-25
1.58393e-26
2.85653e-25
6.26143e-26
2.22754e-25
-1.35758e-25
1.70639e-25
-2.18963e-25
1.27902e-25
-2.93285e-25
9.31555e-26
-1.93634e-25
6.52312e-26
-1.08288e-25
4.32464e-26
1.0883e-26
2.67028e-26
1.10172e-26
1.28673e-23
2.98848e-23
2.37753e-23
1.85596e-23
3.09435e-23
1.5753e-23
3.34545e-23
1.60923e-23
3.06624e-23
1.53955e-23
2.03894e-23
1.55267e-23
1.55061e-23
1.56412e-23
1.43648e-23
1.65388e-23
1.70504e-23
1.60466e-23
1.81032e-23
1.4997e-23
1.79068e-23
1.32735e-23
1.6844e-23
1.16784e-23
1.51442e-23
1.03297e-23
1.26609e-23
9.2077e-24
8.27914e-24
8.2142e-24
4.40785e-24
7.36448e-24
-4.61982e-24
6.61627e-24
-2.20206e-24
6.27197e-24
-5.40915e-24
5.68713e-24
-5.64776e-24
5.1924e-24
-3.84724e-24
4.73842e-24
-1.82483e-24
4.30877e-24
-2.7097e-25
3.85782e-24
-4.88484e-24
3.36719e-24
-3.9734e-24
3.03188e-24
-3.86815e-24
2.71686e-24
-3.58714e-24
2.3967e-24
-3.2095e-24
2.10217e-24
-2.787e-24
1.83075e-24
-2.28869e-24
1.57359e-24
-1.59038e-24
1.34184e-24
-1.77677e-24
1.12509e-24
-4.89149e-25
9.35954e-25
-6.02423e-25
7.6971e-25
-6.26576e-25
6.27085e-25
-4.0095e-25
5.05621e-25
-2.72964e-25
4.03523e-25
-2.48127e-25
3.18575e-25
-1.17003e-25
2.48541e-25
-7.3679e-26
1.90836e-25
-9.48891e-26
1.43666e-25
-5.83512e-26
1.05403e-25
-5.2257e-26
7.45964e-26
-1.35025e-26
5.01329e-26
-1.44553e-26
3.1121e-26
-6.27725e-27
1.706e-26
5.90121e-27
1.2818e-23
3.17523e-23
2.43058e-23
2.12918e-23
3.14503e-23
1.846e-23
3.34347e-23
1.87263e-23
3.09138e-23
1.83237e-23
2.5569e-23
1.80708e-23
2.10435e-23
1.86813e-23
1.81102e-23
1.90179e-23
1.64852e-23
1.82069e-23
1.52111e-23
1.62961e-23
1.37899e-23
1.40988e-23
1.20199e-23
1.20429e-23
9.33802e-24
1.02355e-23
5.78931e-24
8.6868e-24
2.12231e-24
7.45478e-24
-1.19037e-24
6.49468e-24
-3.79794e-24
5.89234e-24
-5.30897e-24
5.39627e-24
-6.83956e-24
5.08567e-24
-8.11142e-24
4.78999e-24
-8.56523e-24
4.31842e-24
-7.20407e-24
3.6841e-24
-7.86653e-24
3.1978e-24
-5.08332e-24
2.83374e-24
-2.13618e-24
2.43602e-24
-2.28695e-24
2.07861e-24
-5.00974e-25
1.7915e-24
2.65782e-25
1.5336e-24
-1.31647e-24
1.29991e-24
-1.55335e-24
1.10585e-24
-3.14721e-24
9.36512e-25
-2.87362e-24
7.99372e-25
-1.83688e-24
6.72062e-25
-1.24962e-24
5.5445e-25
-1.18749e-24
4.51418e-25
-8.91393e-25
3.63227e-25
-6.84004e-25
2.89083e-25
-4.4033e-25
2.27499e-25
-4.15054e-25
1.76757e-25
-3.60776e-25
1.35265e-25
-2.46068e-25
1.01645e-25
-1.57231e-25
7.45138e-26
-1.00214e-25
5.28246e-26
-4.86754e-26
3.56283e-26
-2.83538e-26
2.22803e-26
1.28827e-27
1.23431e-26
4.29852e-27
1.22177e-23
3.94463e-23
2.44702e-23
3.13249e-23
3.21521e-23
2.39168e-23
3.4396e-23
2.15263e-23
3.29059e-23
2.0723e-23
2.94526e-23
2.0258e-23
2.49214e-23
2.0343e-23
1.99691e-23
2.01578e-23
1.52444e-23
1.83355e-23
1.19305e-23
1.6121e-23
9.51012e-24
1.33725e-23
7.4969e-24
1.11432e-23
5.53656e-24
9.35371e-24
3.73119e-24
7.88088e-24
2.17145e-24
6.67665e-24
1.43081e-24
5.67527e-24
1.38126e-24
4.88012e-24
1.01672e-24
4.23048e-24
-1.26695e-26
3.66838e-24
-6.39419e-24
3.19526e-24
-1.25774e-23
2.54027e-24
-9.87046e-24
2.20713e-24
-9.31465e-24
1.90873e-24
-1.06434e-23
1.65741e-24
-9.49961e-24
1.4799e-24
-8.68013e-24
1.31323e-24
-7.72834e-24
1.15229e-24
-6.71173e-24
9.91132e-25
-5.63591e-24
8.76549e-25
-4.57403e-24
7.61935e-25
-2.10684e-24
6.52224e-25
-1.87226e-24
5.44606e-25
-1.75241e-24
4.49525e-25
-1.12064e-24
3.66326e-25
-1.12066e-24
2.9205e-25
-7.72851e-25
2.29787e-25
-5.64106e-25
1.78181e-25
-3.84465e-25
1.36273e-25
-4.13523e-25
1.03157e-25
-2.78489e-25
7.74837e-26
-2.16284e-25
5.76017e-26
-6.59105e-26
4.21842e-26
-7.48782e-26
3.02779e-26
-4.77287e-26
2.12453e-26
-2.99329e-26
1.45245e-26
-6.88069e-27
9.74332e-27
4.5098e-27
1.06941e-23
5.46412e-23
2.27862e-23
4.4773e-23
3.09421e-23
3.24151e-23
3.51491e-23
2.55388e-23
3.48243e-23
2.20352e-23
3.25635e-23
2.07691e-23
2.80926e-23
1.99145e-23
2.12806e-23
1.95194e-23
1.23828e-23
1.98012e-23
7.92075e-24
1.5127e-23
5.77215e-24
1.20067e-23
4.43732e-24
9.8512e-24
3.23892e-24
8.24641e-24
2.07982e-24
6.89272e-24
1.41459e-24
5.62258e-24
1.36685e-24
4.45095e-24
1.70551e-24
3.38953e-24
1.00412e-24
2.41065e-24
1.90508e-25
1.63161e-24
-1.31172e-23
1.03683e-24
-1.42244e-23
1.03251e-24
-1.14957e-23
1.02292e-24
-1.07038e-23
1.08608e-24
-9.64369e-24
1.03815e-24
-8.51354e-24
9.18842e-25
-6.81436e-24
7.57053e-25
-6.78685e-24
6.2495e-25
-2.22075e-24
5.01841e-25
-2.23241e-24
3.62748e-25
-2.21845e-24
2.59665e-25
-1.89912e-24
1.85799e-25
-1.61572e-24
1.21862e-25
-1.38487e-24
7.37359e-26
-1.14524e-24
4.11001e-26
-6.99293e-25
2.07186e-26
-3.88653e-25
7.65643e-27
-3.55918e-25
-4.66754e-28
-2.20257e-25
-4.63394e-27
-8.17913e-26
-6.49979e-27
5.1681e-26
-7.21862e-27
4.65978e-26
-7.2279e-27
5.27758e-26
-6.71911e-27
5.86256e-26
-5.91164e-27
3.4849e-26
-4.86142e-27
6.05592e-27
-3.53801e-27
-4.38089e-27
-1.89054e-27
-3.85999e-28
8.4058e-24
7.2598e-23
1.56092e-23
5.63597e-23
2.32147e-23
4.33801e-23
3.51059e-23
2.37312e-23
3.6033e-23
2.4429e-23
3.47052e-23
2.13609e-23
2.99874e-23
1.76794e-23
2.69222e-23
1.37965e-23
5.79396e-24
9.48779e-24
4.92335e-24
1.03026e-23
3.56145e-24
9.8411e-24
3.31308e-24
8.74864e-24
1.95756e-24
7.50735e-24
-2.85236e-25
6.2772e-24
-2.41378e-24
5.07449e-24
-3.75543e-24
3.95789e-24
-4.13373e-24
2.84326e-24
-4.29016e-24
2.37413e-24
-4.21055e-24
1.95423e-24
-3.34345e-24
1.67209e-24
-2.21464e-24
1.45832e-24
5.33731e-24
1.32761e-24
4.3003e-24
1.05599e-24
3.62901e-24
8.92463e-25
2.26296e-24
7.58712e-25
3.90016e-24
6.76478e-25
3.56351e-24
5.88591e-25
2.89233e-24
5.54772e-25
3.28732e-24
5.01128e-25
3.31113e-24
4.44015e-25
1.47631e-24
3.82707e-25
9.86119e-25
3.32584e-25
1.16223e-24
2.84956e-25
1.34618e-24
2.38032e-25
1.08796e-24
1.94333e-25
7.94601e-25
1.53774e-25
5.83868e-25
1.20819e-25
4.43227e-25
9.34783e-26
2.73185e-25
7.16175e-26
1.68336e-25
5.4277e-26
8.86158e-26
4.09731e-26
1.91632e-26
3.06097e-26
-4.07934e-27
2.2849e-26
-4.81531e-27
1.71749e-26
1.13299e-26
1.33163e-26
8.42131e-27
1.13788e-26
6.80472e-27
3.34358e-24
8.68986e-23
1.00216e-23
7.00505e-23
9.2583e-24
5.77043e-23
3.58723e-23
5.19028e-23
3.26609e-23
3.30938e-23
3.27172e-23
2.42716e-23
2.89498e-23
1.84084e-23
2.23434e-23
1.41512e-23
1.33132e-23
1.19952e-23
8.4943e-24
1.05533e-23
6.04137e-24
9.79107e-24
4.26476e-24
8.73081e-24
1.36267e-24
7.45895e-24
-2.56098e-24
6.27814e-24
-5.88452e-24
5.39613e-24
-8.59858e-24
4.82175e-24
-3.89018e-24
4.46613e-24
-2.7252e-24
3.38746e-24
-1.323e-24
2.52006e-24
-8.69131e-25
1.83896e-24
-7.86895e-25
1.31837e-24
-1.23961e-24
9.16759e-25
-1.8823e-24
6.46052e-25
-5.32501e-24
4.4782e-25
-5.58394e-24
3.14201e-25
-5.8192e-24
2.20335e-25
-2.18545e-24
1.61103e-25
-3.74325e-24
8.67314e-26
-1.87194e-24
6.68308e-26
-1.85259e-24
6.07218e-26
-1.16462e-24
6.23266e-26
-6.06659e-25
6.67095e-26
1.189e-25
6.92369e-26
7.17831e-25
6.90314e-26
2.02699e-25
6.56289e-26
7.66388e-25
6.28382e-26
6.8986e-25
5.74463e-26
8.3851e-25
5.14111e-26
7.33732e-25
4.49377e-26
9.32795e-25
3.86736e-26
7.70326e-25
3.22711e-26
8.45996e-25
2.62598e-26
7.58034e-25
2.05281e-26
4.4647e-25
1.55386e-26
2.02354e-25
1.16325e-26
-2.633e-27
9.16469e-27
5.15392e-27
-9.11686e-26
8.87967e-23
1.7294e-24
7.49463e-23
7.56127e-24
5.90162e-23
2.05421e-23
4.42442e-23
2.61419e-23
3.28736e-23
2.75547e-23
2.48991e-23
2.5853e-23
1.95689e-23
2.17803e-23
1.56051e-23
1.6678e-23
1.30605e-23
1.23511e-23
1.15612e-23
8.84262e-24
1.03186e-23
5.80139e-24
8.96399e-24
2.94596e-24
7.45934e-24
3.26771e-25
5.99697e-24
-2.22437e-24
4.77998e-24
-3.18158e-24
3.76682e-24
-8.20596e-24
2.90621e-24
-7.53085e-24
2.49088e-24
-6.63763e-24
1.98926e-24
-4.71154e-24
1.395e-24
-2.56726e-24
8.28602e-25
-1.12659e-24
3.55427e-25
-8.08354e-26
1.08383e-25
-2.81702e-24
-6.09318e-26
-3.52902e-24
-1.53584e-25
-3.0968e-24
-1.82532e-25
-3.72078e-24
-1.98542e-25
-3.00227e-24
-2.02599e-25
-1.99435e-24
-2.10063e-25
-2.20037e-24
-2.1633e-25
-2.08409e-24
-2.21581e-25
-1.9766e-24
-2.28522e-25
-1.79685e-24
-2.28839e-25
-1.73481e-24
-2.22399e-25
-1.62577e-24
-2.11169e-25
-1.52114e-24
-1.95257e-25
-1.49886e-24
-1.76258e-25
-1.4736e-24
-1.54679e-25
-1.36252e-24
-1.33262e-25
-1.28999e-24
-1.12418e-25
-1.23078e-24
-9.3139e-26
-1.25801e-24
-7.5439e-26
-1.08583e-24
-5.95638e-26
-8.61226e-25
-4.57086e-26
-3.85369e-25
-3.38509e-26
-1.41642e-26
-2.35547e-26
-1.07321e-26
-1.88704e-24
7.79348e-23
-6.61378e-24
7.47167e-23
3.24721e-25
5.27331e-23
1.03161e-23
3.9903e-23
2.11051e-23
2.65834e-23
2.40536e-23
2.41969e-23
2.40205e-23
2.04733e-23
2.18543e-23
1.69124e-23
1.85718e-23
1.44284e-23
1.48664e-23
1.26745e-23
1.09945e-23
1.11688e-23
7.20656e-24
9.41285e-24
4.0342e-24
7.81352e-24
1.50369e-24
6.13335e-24
-4.89472e-25
4.74144e-24
-2.17287e-24
3.68727e-24
-3.99433e-24
2.98254e-24
-6.12802e-24
2.38083e-24
-7.89297e-24
1.56209e-24
-8.42865e-24
9.53432e-25
-7.53057e-24
4.46656e-25
-2.66836e-24
7.57297e-26
-9.82516e-26
-3.31894e-25
-6.74248e-25
-5.56846e-25
9.16572e-25
-7.26464e-25
1.71588e-24
-7.78519e-25
1.4872e-24
-7.89269e-25
2.77435e-24
-7.69806e-25
3.92697e-24
-7.54572e-25
3.65896e-24
-7.06028e-25
2.87518e-24
-6.298e-25
3.24697e-24
-5.36151e-25
3.48887e-24
-4.50864e-25
3.42102e-24
-3.7215e-25
3.25222e-24
-2.99068e-25
2.99544e-24
-2.3606e-25
3.10831e-24
-1.82067e-25
2.88808e-24
-1.38018e-25
2.95701e-24
-1.01534e-25
2.76536e-24
-7.25587e-26
2.75372e-24
-4.89669e-26
2.59224e-24
-3.05899e-26
2.39258e-24
-1.63119e-26
1.76066e-24
-5.25644e-27
7.8343e-25
4.19031e-27
2.32865e-26
1.31236e-26
1.2202e-26
1.79898e-24
5.75542e-23
-1.52922e-23
3.2788e-23
-4.56613e-24
3.91455e-23
1.14933e-24
3.65418e-23
2.16204e-23
3.54872e-23
2.08623e-23
2.93914e-23
2.26474e-23
2.0987e-23
2.19367e-23
1.74146e-23
1.98021e-23
1.51686e-23
1.66439e-23
1.34209e-23
1.26435e-23
1.1991e-23
7.77597e-24
1.09579e-23
4.59842e-24
7.92042e-24
2.82388e-24
5.6065e-24
1.97595e-24
3.72991e-24
8.68193e-25
2.18445e-24
1.4101e-25
1.02427e-24
-6.1226e-24
7.75505e-26
-6.85769e-24
-1.47045e-25
-7.41737e-24
-2.79144e-25
-6.5072e-24
-2.03771e-25
-5.24727e-24
-2.85885e-25
-6.08912e-25
-3.34789e-25
-2.30557e-24
-3.74961e-25
1.89569e-24
-3.96522e-25
2.20109e-24
-4.77651e-25
1.91424e-24
-5.57584e-25
-7.08454e-25
-6.07423e-25
-1.72628e-25
-5.8166e-25
-3.48562e-25
-5.59521e-25
-1.64213e-25
-5.28201e-25
-1.22689e-24
-4.9344e-25
-1.32397e-24
-4.46782e-25
-8.37424e-25
-3.97174e-25
-9.78692e-25
-3.48242e-25
-7.06999e-25
-3.00201e-25
-8.71213e-25
-2.55179e-25
-7.72016e-25
-2.12947e-25
-1.00987e-24
-1.74672e-25
-6.91422e-25
-1.40837e-25
-6.63386e-25
-1.11897e-25
-5.9219e-25
-8.71501e-26
-7.22012e-25
-6.61317e-26
-3.74017e-25
-4.80031e-26
-1.90943e-25
-3.26856e-26
-1.98442e-26
-1.8925e-26
-6.27866e-27
-5.63128e-24
4.57732e-23
-1.17899e-23
2.73732e-23
-6.42962e-24
3.13031e-23
2.17153e-24
3.19102e-23
1.91364e-23
2.6367e-23
1.56915e-23
1.71856e-23
2.20358e-23
1.7846e-23
2.21959e-23
1.72972e-23
2.08075e-23
1.57712e-23
1.77253e-23
1.36121e-23
1.5757e-23
1.08833e-23
3.98028e-24
7.66514e-24
2.04008e-24
6.55625e-24
-3.57449e-25
5.05771e-24
-1.41414e-24
3.53826e-24
-1.86875e-24
2.14603e-24
-1.96017e-24
1.01801e-24
-2.28503e-24
7.37569e-25
-2.61449e-24
5.35765e-25
6.30634e-25
4.37242e-25
-1.24918e-24
2.26853e-25
5.31709e-27
1.93333e-25
4.37797e-24
1.66063e-25
2.43582e-24
1.33992e-25
3.40865e-24
9.23177e-26
2.15882e-24
5.59455e-26
2.11649e-24
4.90499e-26
3.71258e-24
4.66701e-26
3.78445e-24
2.54919e-26
3.56131e-24
2.78243e-26
2.97985e-24
2.38801e-26
2.40081e-24
1.80819e-26
1.97597e-24
9.49314e-27
1.80909e-24
5.14756e-28
1.31881e-24
-6.74303e-27
9.71149e-25
-1.33763e-26
7.88929e-25
-1.64251e-26
7.86877e-25
-1.77783e-26
5.78809e-25
-1.77374e-26
5.38718e-25
-1.64603e-26
4.30464e-25
-1.44398e-26
2.8634e-25
-1.19638e-26
3.38413e-25
-9.29829e-27
4.97857e-26
-7.10458e-27
2.1611e-26
-4.75186e-27
7.31525e-27
-2.40498e-27
-4.01724e-28
-8.27452e-24
4.23711e-23
-8.26553e-24
2.16549e-23
-4.87639e-24
2.79155e-23
1.51219e-24
3.09752e-23
1.15183e-23
2.80005e-23
1.984e-23
2.09797e-23
2.37691e-23
2.18544e-23
2.38453e-23
2.08598e-23
2.13985e-23
1.86488e-23
1.71797e-23
1.59762e-23
1.17579e-23
1.29605e-23
5.61801e-24
1.05952e-23
1.3357e-24
8.30222e-24
-1.42552e-24
6.67236e-24
-2.26257e-24
5.46323e-24
-2.74293e-24
4.60524e-24
2.53904e-24
3.99611e-24
2.58782e-24
3.07828e-24
2.79024e-24
2.4336e-24
2.52479e-24
1.97825e-24
2.60748e-24
1.66632e-24
2.41262e-24
1.39723e-24
5.32034e-24
1.16754e-24
2.40837e-24
8.80732e-25
2.28343e-24
7.11628e-25
1.76785e-24
5.78562e-25
1.93001e-24
4.67041e-25
2.16427e-24
3.76002e-25
3.84933e-24
3.17709e-25
3.30757e-24
2.41345e-25
2.87228e-24
1.90837e-25
2.32189e-24
1.59811e-25
1.83198e-24
1.36426e-25
1.90406e-24
1.18604e-25
1.332e-24
1.02593e-25
1.50701e-24
8.98253e-26
1.42098e-24
7.60398e-26
1.38005e-24
6.39606e-26
1.23921e-24
5.29822e-26
1.13523e-24
4.30858e-26
1.09606e-24
3.409e-26
1.14772e-24
2.60289e-26
8.58951e-25
1.86836e-26
9.36092e-25
1.31794e-26
3.93482e-25
9.11324e-27
5.96044e-27
7.89722e-27
5.26741e-27
-1.21572e-23
4.81214e-23
-5.07598e-24
1.5458e-23
-2.59069e-24
2.70977e-23
1.80623e-24
3.35086e-23
6.23199e-24
3.60264e-23
2.43547e-23
3.98854e-23
2.49676e-23
3.26028e-23
2.45891e-23
2.7402e-23
2.12616e-23
2.26947e-23
1.63606e-23
1.88511e-23
9.81258e-24
1.64434e-23
4.90513e-24
1.22416e-23
1.54277e-24
9.65842e-24
-3.27294e-25
7.90342e-24
-8.16722e-25
6.63681e-24
-2.52661e-25
5.63942e-24
1.09571e-24
4.73788e-24
2.17769e-24
4.06222e-24
2.93594e-24
3.48522e-24
3.42742e-24
3.04068e-24
3.83338e-24
2.63819e-24
4.12482e-24
2.31513e-24
4.34736e-24
1.9884e-24
4.28789e-24
1.74871e-24
4.00679e-24
1.53175e-24
3.38477e-24
1.31417e-24
2.30593e-24
1.14689e-24
2.49836e-24
9.79059e-25
1.0809e-24
7.95018e-25
6.57379e-25
6.52593e-25
6.66577e-25
5.23605e-25
2.38675e-25
4.06181e-25
1.03921e-26
3.11803e-25
-1.14491e-25
2.33537e-25
-4.14448e-25
1.72001e-25
-8.99512e-25
1.24397e-25
-8.65785e-25
9.07533e-26
-8.99733e-25
6.51793e-26
-8.71459e-25
4.59136e-26
-8.20296e-25
3.15641e-26
-7.41657e-25
2.11043e-26
-9.64972e-25
1.34363e-26
-6.74254e-25
8.30554e-27
-8.30584e-25
4.41088e-27
-3.61111e-25
2.33161e-27
-3.00574e-27
1.62863e-27
1.15837e-27
-1.83697e-23
1.02799e-23
-3.10554e-25
2.1778e-23
3.0256e-25
2.85882e-23
4.4613e-24
3.55537e-23
1.12623e-23
4.00911e-23
1.97698e-23
4.04163e-23
2.18768e-23
3.79789e-23
2.14705e-23
3.15922e-23
1.82811e-23
2.47359e-23
1.62861e-23
1.86873e-23
5.15833e-24
1.35311e-23
3.28123e-24
1.15188e-23
8.89185e-25
9.91074e-24
-5.65598e-26
8.62246e-24
-7.17905e-26
7.59538e-24
6.0565e-25
6.78005e-24
1.50311e-24
6.15785e-24
2.90531e-24
4.87374e-24
3.61229e-24
4.47759e-24
3.75829e-24
4.06563e-24
3.64482e-24
3.6339e-24
3.72524e-24
3.0781e-24
3.83837e-24
2.70931e-24
4.22152e-24
2.38733e-24
3.18365e-24
2.10867e-24
3.86073e-24
1.87057e-24
3.098e-24
1.61265e-24
2.0923e-24
1.3962e-24
2.20042e-24
1.22401e-24
1.60775e-24
1.04393e-24
9.21907e-25
8.90447e-25
8.61195e-25
7.59696e-25
3.6867e-25
6.35783e-25
3.88078e-25
5.27161e-25
6.6876e-26
4.31468e-25
1.98985e-25
3.48501e-25
-3.49166e-26
2.7747e-25
-2.94412e-25
2.18304e-25
-5.29167e-25
1.69729e-25
-6.11099e-25
1.29923e-25
-6.90481e-25
9.73964e-26
-5.84353e-25
7.12465e-26
-6.91486e-25
4.99273e-26
-3.6097e-25
3.31804e-26
-1.68821e-25
1.96598e-26
8.13223e-28
9.50437e-27
2.4126e-27
-1.03968e-23
1.63668e-23
1.60251e-24
1.49672e-23
4.22141e-24
2.81409e-23
7.04245e-24
3.59069e-23
1.32401e-23
3.97822e-23
1.90971e-23
4.06656e-23
1.68385e-23
4.11316e-23
1.52327e-23
3.12171e-23
1.25806e-23
2.50117e-23
9.53254e-24
1.98458e-23
5.53628e-24
1.62674e-23
3.38767e-24
1.30921e-23
2.13562e-24
1.12373e-23
1.67509e-24
9.86534e-24
2.09198e-24
8.76241e-24
3.83223e-24
7.81925e-24
-1.28303e-25
6.94856e-24
7.38059e-24
6.91428e-24
7.41424e-24
6.06195e-24
7.19412e-24
5.28518e-24
3.59345e-24
4.5766e-24
5.96323e-24
4.13339e-24
5.52278e-24
3.70666e-24
5.23124e-24
3.30373e-24
4.6161e-24
2.84336e-24
2.64355e-24
2.43549e-24
2.0729e-24
2.08673e-24
1.81198e-24
1.77873e-24
3.38746e-25
1.4807e-24
5.26426e-25
1.24279e-24
7.63337e-25
1.03293e-24
4.48831e-25
8.47769e-25
5.75055e-25
6.94785e-25
8.02174e-25
5.63372e-25
5.94792e-25
4.54115e-25
6.66526e-25
3.64074e-25
5.94868e-25
2.89184e-25
5.52675e-25
2.27409e-25
4.015e-25
1.76775e-25
2.61598e-25
1.35824e-25
2.90193e-25
1.02718e-25
1.12665e-25
7.55947e-26
2.47322e-25
5.39857e-26
2.46173e-26
3.63434e-26
1.75226e-26
2.28187e-26
1.79365e-27
1.27883e-26
4.65617e-27
-6.83756e-24
2.41143e-23
6.09283e-24
8.76782e-24
7.44639e-24
2.99608e-23
9.5564e-24
3.55866e-23
1.40391e-23
3.6196e-23
1.99804e-23
3.42652e-23
9.2143e-24
2.3727e-23
1.08828e-23
2.35512e-23
8.55608e-24
2.31797e-23
6.1897e-24
2.00684e-23
3.47154e-24
1.68592e-23
2.84968e-24
1.47153e-23
3.12267e-24
1.27801e-23
3.27132e-24
1.12046e-23
3.73344e-24
9.90343e-24
4.54926e-24
8.89053e-24
5.07681e-24
8.09069e-24
5.72796e-24
7.44911e-24
5.44797e-24
6.71052e-24
5.02116e-24
6.06778e-24
4.26017e-24
5.51728e-24
6.70237e-24
4.79179e-24
6.8317e-24
4.00872e-24
4.10084e-24
3.3012e-24
3.75211e-24
2.78184e-24
1.5954e-24
2.38093e-24
1.17067e-24
2.05195e-24
-7.15585e-25
1.7581e-24
-1.09951e-24
1.5199e-24
-1.39437e-24
1.30019e-24
-1.4431e-24
1.10116e-24
-1.25825e-24
9.31396e-25
-1.32977e-24
7.74095e-25
-8.5626e-25
6.37428e-25
-6.86896e-25
5.17692e-25
-6.34899e-25
4.16392e-25
-6.90276e-25
3.31322e-25
-7.80811e-25
2.60824e-25
-8.01348e-25
2.02808e-25
-8.17131e-25
1.5497e-25
-8.65377e-25
1.15794e-25
-6.87335e-25
8.42515e-26
-7.19333e-25
5.8374e-26
-3.8655e-25
3.80197e-26
-1.78424e-25
2.18921e-26
-1.13068e-27
1.00019e-26
2.21394e-27
-8.10794e-24
3.95267e-23
1.23444e-23
4.43558e-23
8.79467e-24
3.73666e-23
1.01812e-23
3.61947e-23
1.3693e-23
3.26714e-23
1.24245e-23
3.20683e-23
1.03879e-23
3.22016e-23
1.17139e-23
2.8845e-23
7.11549e-24
2.34178e-23
3.66617e-24
2.15146e-23
2.74089e-24
1.71954e-23
2.5006e-24
1.52075e-23
2.60578e-24
1.34126e-23
3.03916e-24
1.1748e-23
4.0027e-24
1.02554e-23
5.23185e-24
9.1249e-24
6.23849e-24
8.09085e-24
6.55318e-24
7.25854e-24
5.88885e-24
6.40966e-24
4.85549e-24
5.61629e-24
8.30578e-25
4.91643e-24
-4.48773e-25
4.427e-24
-1.47241e-24
4.00188e-24
-2.0988e-24
3.56674e-24
-9.21484e-25
3.1436e-24
-1.0413e-24
2.73504e-24
-1.01268e-24
2.37212e-24
-1.14127e-24
2.05684e-24
-1.05656e-24
1.78035e-24
-8.64787e-25
1.52347e-24
2.17457e-25
1.2927e-24
-2.00507e-25
1.0809e-24
-1.29542e-25
8.94839e-25
-1.49362e-25
7.3374e-25
-9.88661e-26
5.9642e-25
-1.98871e-25
4.80102e-25
-2.02086e-25
3.82236e-25
-1.95398e-25
3.01001e-25
-2.0971e-25
2.33361e-25
-2.45569e-25
1.78573e-25
-1.55979e-25
1.34528e-25
-3.48197e-25
9.87985e-26
-2.04938e-25
7.04639e-26
-2.68271e-25
4.72891e-26
-1.23025e-25
2.89637e-26
2.16485e-27
1.4698e-26
4.15301e-27
-3.56122e-24
4.98282e-23
8.94833e-24
4.10483e-23
8.13058e-24
4.06409e-23
8.64484e-24
3.65976e-23
1.32458e-23
3.13158e-23
1.30753e-23
3.0194e-23
1.03446e-23
2.90155e-23
8.03304e-24
2.54885e-23
7.69291e-24
2.04073e-23
7.23839e-25
1.52148e-23
1.982e-24
1.55979e-23
1.54461e-24
1.44757e-23
1.37387e-24
1.33204e-23
1.70142e-24
1.19475e-23
2.89576e-24
1.04443e-23
5.01733e-24
8.90402e-24
5.69314e-24
8.26146e-24
4.71892e-24
7.4297e-24
4.34454e-24
6.30499e-24
4.04926e-24
5.49976e-24
3.1959e-24
4.99581e-24
2.2109e-24
4.63885e-24
1.66049e-24
4.08591e-24
1.43621e-24
3.5306e-24
1.43914e-24
3.08634e-24
1.16544e-24
2.67057e-24
8.69441e-25
2.2841e-24
7.01418e-25
1.97355e-24
-2.03552e-25
1.68949e-24
-3.03826e-25
1.44733e-24
5.46307e-26
1.22897e-24
-2.44608e-25
1.0327e-24
-1.65729e-26
8.6446e-25
1.01525e-25
7.1581e-25
3.0998e-25
5.8482e-25
1.81266e-25
4.7347e-25
1.70474e-25
3.79598e-25
-1.66124e-25
3.00451e-25
-1.1843e-25
2.3494e-25
-4.14809e-26
1.80397e-25
-8.70924e-26
1.34685e-25
8.26402e-26
9.74751e-26
-3.6141e-26
6.6927e-26
7.85433e-26
4.30429e-26
2.40221e-26
2.44572e-26
-1.73356e-27
1.11309e-26
2.55927e-27
-3.22988e-24
5.67051e-23
7.81051e-24
3.90229e-23
6.00243e-24
4.24257e-23
5.68967e-24
3.84311e-23
1.33905e-23
2.99933e-23
1.31589e-23
3.15712e-23
9.12568e-24
2.97582e-23
5.48148e-24
2.55837e-23
3.46569e-24
2.0682e-23
3.14955e-24
1.54441e-23
2.81074e-24
1.59224e-23
1.83077e-24
1.48095e-23
7.74496e-25
1.37146e-23
5.79334e-25
1.26799e-23
4.29567e-25
1.18017e-23
5.07456e-24
1.09454e-23
4.63061e-24
9.10378e-24
9.48302e-25
7.64088e-24
1.69419e-24
6.79857e-24
1.52666e-24
6.15815e-24
2.35324e-24
5.34834e-24
-2.16169e-24
4.43529e-24
-3.41484e-24
3.85796e-24
-3.00133e-24
3.50673e-24
-3.38508e-24
3.12974e-24
-3.48946e-24
2.73149e-24
-1.73454e-24
2.34707e-24
-1.57467e-24
1.98734e-24
-1.4534e-24
1.68857e-24
-1.52003e-24
1.4315e-24
-1.41173e-24
1.20009e-24
-1.26089e-24
9.97433e-25
-1.26996e-24
8.21741e-25
-1.55647e-24
6.70745e-25
-1.30574e-24
5.45721e-25
-1.25115e-24
4.37953e-25
-1.21098e-24
3.49285e-25
-1.20512e-24
2.75832e-25
-1.03569e-24
2.15764e-25
-1.12479e-24
1.65845e-25
-9.43063e-25
1.25419e-25
-9.87056e-25
9.19626e-26
-6.934e-25
6.50428e-26
-5.97179e-25
4.29558e-26
-2.46343e-25
2.55093e-26
-8.00001e-29
1.20311e-26
2.7871e-27
-5.91466e-24
6.18994e-23
8.5495e-24
5.18878e-23
4.40828e-24
4.53835e-23
1.46435e-24
4.35781e-23
1.49104e-23
4.64451e-23
1.21642e-23
3.692e-23
7.08394e-24
3.12786e-23
2.51252e-24
2.6656e-23
-5.80839e-25
2.3331e-23
5.9635e-24
2.23707e-23
3.13029e-24
1.76348e-23
1.72729e-24
1.56442e-23
9.73839e-25
1.38103e-23
2.93912e-25
1.23486e-23
2.79847e-25
1.11967e-23
8.28739e-25
9.97415e-24
3.16223e-25
8.89395e-24
-6.24556e-25
7.10052e-24
1.01995e-24
6.12498e-24
-5.18522e-25
5.17711e-24
-2.34396e-24
4.50999e-24
-4.39908e-24
3.83219e-24
-2.80617e-24
3.09085e-24
-3.18996e-24
2.47797e-24
-4.33437e-24
1.98086e-24
-5.30822e-24
1.68903e-24
-4.87903e-24
1.47683e-24
-3.6494e-24
1.24435e-24
-3.27227e-24
1.04573e-24
-3.49561e-24
8.69935e-25
-2.95e-24
7.26036e-25
-2.36887e-24
5.99932e-25
-2.17724e-24
4.86397e-25
-1.81032e-24
3.91132e-25
-1.9002e-24
3.12786e-25
-1.53801e-24
2.49448e-25
-1.45684e-24
1.96821e-25
-1.15003e-24
1.53374e-25
-1.05869e-24
1.17369e-25
-8.4485e-25
8.86611e-26
-7.9512e-25
6.53133e-26
-5.87729e-25
4.68077e-26
-5.15952e-25
3.15844e-26
-2.90809e-25