/*--------------------------------*- C++ -*----------------------------------*\
  =========                 |
  \\      /  F ield         | OpenFOAM: The Open Source CFD Toolbox
   \\    /   O peration     | Website:  https://openfoam.org
    \\  /    A nd           | Version:  7
     \\/     M anipulation  |
\*---------------------------------------------------------------------------*/
FoamFile
{
    version     2.0;
    format      ascii;
    class       volVectorField;
    location    "1109";
    object      U;
}
// * * * * * * * * * * * * * * * * * * * * * * * * * * * * * * * * * * * * * //

dimensions      [0 1 -1 0 0 0 0];

internalField   nonuniform List<vector> 
6627
(
(50.5756 -3.37362e-16 -4.19497e-16)
(50.3968 -5.50851e-16 -3.13235e-16)
(50.0781 -2.65811e-16 -1.92539e-16)
(49.6474 -1.14416e-16 -6.34383e-17)
(49.1262 1.02947e-16 1.78604e-17)
(48.5312 2.99961e-16 6.9591e-17)
(47.8754 3.52087e-16 1.37043e-16)
(47.1693 2.98305e-16 1.24253e-16)
(46.4208 2.40439e-16 8.72015e-17)
(45.6355 1.70802e-16 5.46296e-17)
(44.8132 7.39533e-17 3.52807e-17)
(43.9529 -2.9883e-17 2.40306e-18)
(43.0592 -1.01491e-16 -1.63021e-17)
(42.1367 -1.33049e-16 -2.86906e-17)
(41.1881 -1.45526e-16 -3.76831e-17)
(40.2141 -1.38036e-16 -4.63429e-17)
(39.214 -1.19929e-16 -4.69223e-17)
(38.1858 -9.79156e-17 -4.44954e-17)
(37.1271 -7.35803e-17 -4.20602e-17)
(36.0343 -5.52775e-17 -4.42982e-17)
(34.9037 -3.54899e-17 -4.90805e-17)
(33.7309 7.15925e-18 -5.48213e-17)
(32.5113 6.84748e-17 -6.05584e-17)
(31.2401 1.12028e-16 -6.86357e-17)
(29.9125 1.25629e-16 -7.89089e-17)
(28.5244 1.27196e-16 -8.93273e-17)
(27.0726 1.23923e-16 -9.87004e-17)
(25.5561 1.13264e-16 -1.0638e-16)
(23.9763 1.01431e-16 -1.12583e-16)
(22.3378 8.84132e-17 -1.17599e-16)
(20.6432 7.29055e-17 -1.20967e-16)
(18.8963 5.86048e-17 -1.22251e-16)
(17.1152 4.63794e-17 -1.21243e-16)
(15.3327 3.61555e-17 -1.17836e-16)
(13.5879 2.92117e-17 -1.12311e-16)
(11.9171 2.37365e-17 -1.05103e-16)
(10.3469 2.00838e-17 -9.66753e-17)
(8.89085 1.7499e-17 -8.74515e-17)
(7.55205 1.43333e-17 -7.77954e-17)
(6.32694 1.17018e-17 -6.79403e-17)
(5.20866 9.6244e-18 -5.81093e-17)
(4.18917 7.52196e-18 -4.8437e-17)
(3.26034 5.68739e-18 -3.90105e-17)
(2.41439 4.45981e-18 -2.98989e-17)
(1.64408 3.36396e-18 -2.11252e-17)
(0.942776 2.00581e-18 -1.26423e-17)
(0.304371 7.24901e-19 -4.32245e-18)
(50.5572 -2.18167e-16 -8.05925e-16)
(50.3787 -2.35819e-16 -4.65357e-16)
(50.0602 6.28777e-17 -2.4594e-16)
(49.63 1.99813e-16 -3.09079e-17)
(49.1093 3.56097e-16 1.28004e-16)
(48.5147 5.63775e-16 2.11466e-16)
(47.8595 4.79845e-16 2.15858e-16)
(47.1538 2.17092e-16 1.74281e-16)
(46.4057 1.01912e-16 1.19939e-16)
(45.6209 6.36404e-17 7.51766e-17)
(44.799 -5.04403e-17 4.36956e-17)
(43.9392 -1.48686e-16 2.03122e-17)
(43.0459 -1.53519e-16 1.96088e-17)
(42.1237 -1.42608e-16 2.47084e-17)
(41.1754 -1.28625e-16 3.54197e-17)
(40.2017 -6.77785e-17 4.78425e-17)
(39.2018 1.52367e-17 5.96645e-17)
(38.1739 6.74549e-17 7.09326e-17)
(37.1153 7.77628e-17 8.20047e-17)
(36.0227 6.82274e-17 9.31921e-17)
(34.8923 7.87312e-17 1.05785e-16)
(33.7196 1.23721e-16 1.1845e-16)
(32.5002 1.67126e-16 1.28538e-16)
(31.2292 1.70965e-16 1.34965e-16)
(29.9018 1.59605e-16 1.38783e-16)
(28.5139 1.58695e-16 1.4065e-16)
(27.0623 1.62173e-16 1.40536e-16)
(25.5461 1.53666e-16 1.389e-16)
(23.9666 1.29212e-16 1.35649e-16)
(22.3284 1.0067e-16 1.30993e-16)
(20.6342 7.82349e-17 1.25132e-16)
(18.8877 6.1827e-17 1.18176e-16)
(17.1071 5.05343e-17 1.10148e-16)
(15.3253 4.21712e-17 1.01438e-16)
(13.5811 3.48676e-17 9.22341e-17)
(11.9111 2.83103e-17 8.2873e-17)
(10.3416 2.39791e-17 7.35709e-17)
(8.88632 2.05257e-17 6.44772e-17)
(7.5482 1.67432e-17 5.56956e-17)
(6.32371 1.35532e-17 4.73126e-17)
(5.206 1.03368e-17 3.93551e-17)
(4.18704 8.16257e-18 3.18188e-17)
(3.25868 6.27182e-18 2.47077e-17)
(2.41316 4.26544e-18 1.80239e-17)
(1.64325 2.67463e-18 1.1806e-17)
(0.942298 1.41967e-18 6.20034e-18)
(0.304217 4.6305e-19 1.63531e-18)
(50.5214 -1.30836e-17 -5.78243e-16)
(50.3432 8.50921e-17 -1.8836e-16)
(50.0254 2.6176e-16 -7.49231e-17)
(49.596 3.74901e-16 -4.85892e-17)
(49.0762 4.62055e-16 -6.84058e-18)
(48.4826 4.52401e-16 6.45097e-17)
(47.8283 2.79644e-16 2.61868e-17)
(47.1235 8.24679e-17 -1.90427e-18)
(46.3762 -9.64375e-18 3.63462e-17)
(45.5922 -4.03404e-17 9.1271e-17)
(44.7713 -8.58366e-17 1.14085e-16)
(43.9123 -9.90886e-17 1.47485e-16)
(43.0198 -8.29007e-17 1.61981e-16)
(42.0983 -7.19392e-17 1.72693e-16)
(41.1505 -5.50553e-17 1.99221e-16)
(40.1773 -3.80772e-17 2.2863e-16)
(39.1778 -1.78351e-17 2.44398e-16)
(38.1503 6.74432e-18 2.44201e-16)
(37.0921 3.31897e-17 2.43391e-16)
(35.9999 6.02407e-17 2.44802e-16)
(34.8699 8.97074e-17 2.50541e-16)
(33.6976 1.1727e-16 2.60473e-16)
(32.4785 1.36838e-16 2.70283e-16)
(31.2078 1.43174e-16 2.78521e-16)
(29.8808 1.38547e-16 2.85011e-16)
(28.4933 1.31891e-16 2.89037e-16)
(27.0422 1.24303e-16 2.90835e-16)
(25.5264 1.12031e-16 2.90007e-16)
(23.9475 9.79317e-17 2.86102e-16)
(22.31 8.71059e-17 2.80031e-16)
(20.6165 7.50072e-17 2.72251e-16)
(18.8709 5.94569e-17 2.62199e-16)
(17.0914 4.27919e-17 2.49619e-16)
(15.3107 2.878e-17 2.34732e-16)
(13.5679 1.83402e-17 2.18057e-16)
(11.8994 1.20855e-17 2.00086e-16)
(10.3314 7.74287e-18 1.81292e-16)
(8.87747 5.22923e-18 1.61953e-16)
(7.54067 3.86923e-18 1.42394e-16)
(6.31741 3.35635e-18 1.22853e-16)
(5.20082 2.60235e-18 1.03577e-16)
(4.18287 1.59725e-18 8.47699e-17)
(3.25544 1.06243e-18 6.66335e-17)
(2.41076 6.76502e-19 4.93895e-17)
(1.64162 4.85147e-19 3.32809e-17)
(0.941363 2.93596e-19 1.86781e-17)
(0.303916 1.0226e-19 5.83598e-18)
(50.4693 1.98633e-16 -9.9442e-17)
(50.2916 3.49294e-16 -2.04174e-17)
(49.9748 2.66993e-16 -6.78913e-17)
(49.5467 2.87699e-16 -1.16438e-16)
(49.0282 4.85443e-16 -1.33077e-16)
(48.436 5.37352e-16 -1.20493e-16)
(47.783 2.97301e-16 -1.28815e-16)
(47.0794 1.56717e-16 -1.07769e-16)
(46.3334 1.64163e-16 -5.15962e-17)
(45.5507 5.58276e-17 2.22509e-18)
(44.7311 -1.0805e-16 7.28158e-17)
(43.8733 -2.32677e-16 1.16573e-16)
(42.9819 -2.89284e-16 1.35809e-16)
(42.0613 -2.33122e-16 1.46172e-16)
(41.1144 -1.636e-16 1.48201e-16)
(40.1419 -1.57514e-16 1.47528e-16)
(39.1431 -2.01855e-16 1.4427e-16)
(38.1162 -2.20736e-16 1.39293e-16)
(37.0586 -2.00579e-16 1.32737e-16)
(35.9669 -1.7701e-16 1.24521e-16)
(34.8374 -1.2212e-16 1.14404e-16)
(33.6656 -6.28484e-17 1.02371e-16)
(32.4471 -3.67338e-17 8.87867e-17)
(31.1769 -5.21592e-17 7.44209e-17)
(29.8504 -8.14909e-17 6.03999e-17)
(28.4635 -9.05093e-17 4.72896e-17)
(27.013 -8.44726e-17 3.54138e-17)
(25.498 -8.79994e-17 2.46503e-17)
(23.9199 -9.06751e-17 1.6471e-17)
(22.2834 -7.34256e-17 1.06383e-17)
(20.591 -5.14795e-17 6.03142e-18)
(18.8466 -3.93784e-17 2.43533e-18)
(17.0685 -3.29706e-17 1.66276e-19)
(15.2897 -2.59365e-17 -9.57978e-19)
(13.5488 -1.75051e-17 -1.15543e-18)
(11.8824 -7.51696e-18 -8.03421e-19)
(10.3165 1.80002e-19 -2.43907e-19)
(8.86466 4.85374e-18 2.39238e-19)
(7.52978 6.65694e-18 4.78653e-19)
(6.30829 5.82399e-18 3.95962e-19)
(5.19331 3.46249e-18 9.32095e-23)
(4.17685 9.13068e-19 -6.41054e-19)
(3.25076 -3.97226e-19 -1.4175e-18)
(2.4073 -7.00693e-19 -2.17294e-18)
(1.63926 -4.74176e-19 -2.63231e-18)
(0.940011 -1.11883e-19 -2.33983e-18)
(0.30348 -1.21781e-19 -1.05485e-18)
(50.402 1.34141e-16 2.45143e-16)
(50.2251 2.32381e-16 -1.35044e-17)
(49.9096 2.25127e-16 -1.19931e-16)
(49.4831 3.08001e-16 -1.17634e-16)
(48.9664 4.45266e-16 -1.32467e-16)
(48.3759 4.31341e-16 -2.3191e-16)
(47.7246 2.74439e-16 -2.51423e-16)
(47.0228 1.79814e-16 -1.89237e-16)
(46.2783 1.28891e-16 -1.66698e-16)
(45.4971 1.02043e-16 -1.73501e-16)
(44.6791 7.3427e-19 -1.60943e-16)
(43.823 -1.47123e-16 -1.37829e-16)
(42.9331 -2.15131e-16 -1.03363e-16)
(42.0138 -2.45715e-16 -7.63334e-17)
(41.068 -2.54022e-16 -7.29477e-17)
(40.0964 -2.50268e-16 -7.6232e-17)
(39.0985 -2.43164e-16 -7.59451e-17)
(38.0724 -2.29426e-16 -6.01902e-17)
(37.0155 -2.12044e-16 -4.37535e-17)
(35.9245 -1.95703e-16 -2.70151e-17)
(34.7956 -1.79808e-16 -1.63664e-17)
(33.6245 -1.62519e-16 -1.27395e-17)
(32.4066 -1.47114e-16 -1.3897e-17)
(31.1371 -1.3262e-16 -1.59456e-17)
(29.8113 -1.16099e-16 -1.67279e-17)
(28.4252 -9.55347e-17 -1.65699e-17)
(26.9755 -7.2125e-17 -1.60503e-17)
(25.4614 -3.654e-17 -1.36623e-17)
(23.8844 1.02678e-17 -1.0527e-17)
(22.2492 4.14398e-17 -7.50439e-18)
(20.5581 5.14127e-17 -5.29813e-18)
(18.8153 5.61472e-17 -3.19111e-18)
(17.0392 5.76342e-17 -8.67797e-19)
(15.2626 5.23696e-17 1.59493e-18)
(13.5243 4.41387e-17 4.08124e-18)
(11.8606 3.76338e-17 6.29306e-18)
(10.2975 3.26642e-17 7.89124e-18)
(8.84822 2.90808e-17 8.75933e-18)
(7.51581 2.62058e-17 8.85037e-18)
(6.29658 2.40207e-17 8.21735e-18)
(5.18368 2.16692e-17 6.99752e-18)
(4.16911 1.91521e-17 5.35233e-18)
(3.24474 1.56405e-17 3.48635e-18)
(2.40285 1.18571e-17 1.64279e-18)
(1.63623 8.19912e-18 1.84805e-19)
(0.938276 4.50121e-18 -3.27542e-19)
(0.30292 1.65547e-18 -5.66162e-20)
(50.3206 7.34027e-17 1.41289e-16)
(50.1446 1.69541e-16 -9.88806e-17)
(49.8307 2.31821e-16 -1.36425e-16)
(49.406 2.77715e-16 -9.67225e-17)
(48.8915 3.0422e-16 -7.24571e-17)
(48.3032 3.50975e-16 -1.12594e-16)
(47.654 3.56738e-16 -1.61257e-16)
(46.9543 2.77951e-16 -2.06483e-16)
(46.2117 1.77416e-16 -2.44301e-16)
(45.4324 8.09584e-17 -2.50268e-16)
(44.6163 -6.65724e-18 -2.55885e-16)
(43.7622 -7.09006e-17 -2.30054e-16)
(42.8741 -1.17313e-16 -1.97712e-16)
(41.9564 -1.48956e-16 -1.70292e-16)
(41.0119 -1.57414e-16 -1.49623e-16)
(40.0416 -1.39741e-16 -1.36444e-16)
(39.0447 -9.03051e-17 -1.23846e-16)
(38.0195 -3.70423e-17 -1.0463e-16)
(36.9635 -1.34607e-17 -9.24539e-17)
(35.8734 -2.42173e-17 -8.94352e-17)
(34.7453 -4.28794e-17 -9.31152e-17)
(33.575 -4.95611e-17 -9.36024e-17)
(32.3579 -5.08541e-17 -9.00739e-17)
(31.0892 -5.3037e-17 -8.69173e-17)
(29.7643 -5.83753e-17 -8.58434e-17)
(28.379 -5.71776e-17 -8.52701e-17)
(26.9304 -3.35795e-17 -8.42335e-17)
(25.4174 -1.85644e-17 -8.2665e-17)
(23.8417 -2.55021e-17 -8.21551e-17)
(22.208 -3.35008e-17 -8.25834e-17)
(20.5186 -3.62894e-17 -8.27657e-17)
(18.7777 -3.42828e-17 -8.20314e-17)
(17.004 -3.29434e-17 -8.02626e-17)
(15.2301 -3.06433e-17 -7.70731e-17)
(13.4949 -2.68431e-17 -7.24467e-17)
(11.8344 -2.49074e-17 -6.66405e-17)
(10.2745 -2.43184e-17 -6.00781e-17)
(8.82844 -2.36143e-17 -5.33155e-17)
(7.49899 -2.27797e-17 -4.67181e-17)
(6.28249 -2.1499e-17 -4.0445e-17)
(5.17209 -1.92826e-17 -3.45697e-17)
(4.1598 -1.65427e-17 -2.90745e-17)
(3.2375 -1.35388e-17 -2.39056e-17)
(2.39749 -1.08401e-17 -1.89043e-17)
(1.63259 -8.1009e-18 -1.38326e-17)
(0.936187 -4.58892e-18 -8.27952e-18)
(0.302246 -1.69757e-18 -2.56296e-18)
(50.2259 7.28412e-17 7.49044e-17)
(50.0509 1.9233e-16 -1.05433e-16)
(49.7388 2.90277e-16 -1.13818e-16)
(49.3164 3.5953e-16 -5.75067e-17)
(48.8043 3.66867e-16 1.06677e-19)
(48.2186 2.64675e-16 3.05157e-17)
(47.572 1.17691e-16 -1.40076e-17)
(46.8746 5.32486e-17 -6.79343e-17)
(46.1344 9.30414e-17 -1.01901e-16)
(45.3572 1.43562e-16 -1.0427e-16)
(44.5433 1.3447e-16 -8.31007e-17)
(43.6916 8.33088e-17 -4.63182e-17)
(42.8057 2.42271e-17 -1.48524e-18)
(41.8899 -3.07177e-17 4.91172e-17)
(40.947 -6.78658e-17 1.00597e-16)
(39.978 -6.83226e-17 1.45905e-16)
(38.9824 -1.26564e-17 1.75465e-16)
(37.9584 1.37594e-17 1.87952e-16)
(36.9034 -2.46192e-17 1.88809e-16)
(35.8143 -6.53781e-17 1.83902e-16)
(34.6871 -4.30155e-17 1.80291e-16)
(33.5178 3.12031e-17 1.78382e-16)
(32.3016 7.11451e-17 1.7892e-16)
(31.0338 6.36672e-17 1.80139e-16)
(29.7099 5.35457e-17 1.80725e-16)
(28.3257 6.40836e-17 1.80504e-16)
(26.8782 7.78639e-17 1.78757e-16)
(25.3665 8.0123e-17 1.73945e-16)
(23.7923 7.4101e-17 1.68033e-16)
(22.1603 6.49524e-17 1.611e-16)
(20.4729 5.42118e-17 1.53238e-16)
(18.7343 4.58844e-17 1.44254e-16)
(16.9632 4.03817e-17 1.34381e-16)
(15.1925 3.85197e-17 1.23992e-16)
(13.4608 3.93401e-17 1.133e-16)
(11.8041 4.22952e-17 1.02472e-16)
(10.248 4.32439e-17 9.17356e-17)
(8.80558 4.05555e-17 8.11623e-17)
(7.47955 3.71329e-17 7.07818e-17)
(6.26621 3.43195e-17 6.06427e-17)
(5.1587 3.15164e-17 5.07733e-17)
(4.14904 2.78686e-17 4.12211e-17)
(3.22913 2.30545e-17 3.20549e-17)
(2.3913 1.77505e-17 2.33924e-17)
(1.62837 1.22786e-17 1.54371e-17)
(0.933774 6.92668e-18 8.54651e-18)
(0.301468 2.48227e-18 2.73555e-18)
(50.1185 7.55617e-17 5.72342e-17)
(49.9448 2.16865e-16 -1.01811e-16)
(49.6346 3.24398e-16 -9.90241e-17)
(49.2149 3.76176e-16 -5.60062e-17)
(48.7056 3.59599e-16 -3.3395e-17)
(48.1228 2.65816e-16 -1.93243e-17)
(47.4791 1.58077e-16 2.09799e-17)
(46.7846 1.06394e-16 7.91581e-17)
(46.0469 1.15356e-16 1.21778e-16)
(45.2721 1.39115e-16 1.3573e-16)
(44.4609 1.42275e-16 1.38979e-16)
(43.6119 1.30539e-16 1.48728e-16)
(42.7285 1.1209e-16 1.67484e-16)
(41.8148 8.79135e-17 1.94086e-16)
(40.8738 5.16184e-17 2.24645e-16)
(39.9064 -1.47701e-17 2.47168e-16)
(38.9122 -9.21392e-17 2.62668e-16)
(37.8895 -1.49334e-16 2.65999e-16)
(36.8357 -1.87716e-16 2.70419e-16)
(35.7477 -1.99174e-16 2.78359e-16)
(34.6216 -1.80702e-16 2.87633e-16)
(33.4533 -1.39864e-16 2.8872e-16)
(32.2382 -1.022e-16 2.8248e-16)
(30.9715 -9.03569e-17 2.74791e-16)
(29.6486 -9.00149e-17 2.6991e-16)
(28.2656 -8.85749e-17 2.66349e-16)
(26.8194 -8.40029e-17 2.61609e-16)
(25.3092 -7.86112e-17 2.55193e-16)
(23.7367 -7.30603e-17 2.46921e-16)
(22.1067 -6.72476e-17 2.36308e-16)
(20.4215 -6.05412e-17 2.23435e-16)
(18.6854 -5.29417e-17 2.08655e-16)
(16.9173 -4.50185e-17 1.92754e-16)
(15.1502 -3.71205e-17 1.76404e-16)
(13.4225 -3.00765e-17 1.59979e-16)
(11.77 -2.40331e-17 1.43514e-16)
(10.2182 -1.76465e-17 1.27206e-16)
(8.7799 -1.30191e-17 1.11277e-16)
(7.45771 -9.46261e-18 9.59259e-17)
(6.24792 -6.77266e-18 8.11983e-17)
(5.14366 -5.13201e-18 6.71453e-17)
(4.13695 -3.96702e-18 5.38193e-17)
(3.21973 -2.95678e-18 4.13128e-17)
(2.38434 -2.05158e-18 2.97478e-17)
(1.62364 -1.25232e-18 1.93492e-17)
(0.931063 -6.25497e-19 1.05612e-17)
(0.300593 -2.14408e-19 3.33219e-18)
(49.9992 7.53156e-17 6.39393e-17)
(49.8268 2.36499e-16 -7.84947e-17)
(49.5189 3.57353e-16 -6.16486e-17)
(49.102 3.99327e-16 -9.1317e-18)
(48.596 3.74216e-16 1.85877e-17)
(48.0165 3.05932e-16 4.55957e-17)
(47.3761 2.27825e-16 9.75848e-17)
(46.6846 1.70309e-16 1.53742e-16)
(45.9498 1.36842e-16 1.92269e-16)
(45.1778 1.15992e-16 2.01541e-16)
(44.3695 9.73651e-17 1.96855e-16)
(43.5236 7.42975e-17 1.87266e-16)
(42.643 4.66105e-17 1.75935e-16)
(41.7318 1.04609e-17 1.63756e-16)
(40.7929 -5.81084e-17 1.51519e-16)
(39.8273 -1.2084e-16 1.42267e-16)
(38.8347 -1.48763e-16 1.43304e-16)
(37.8134 -1.67983e-16 1.53247e-16)
(36.7609 -1.8826e-16 1.72027e-16)
(35.6742 -2.0804e-16 1.94482e-16)
(34.5493 -2.20714e-16 2.10925e-16)
(33.3822 -2.18383e-16 2.18507e-16)
(32.1682 -1.99252e-16 2.21614e-16)
(30.9027 -1.58051e-16 2.22455e-16)
(29.5811 -1.0212e-16 2.21289e-16)
(28.1994 -5.93771e-17 2.18079e-16)
(26.7547 -3.36325e-17 2.13289e-16)
(25.2461 -2.18383e-17 2.0691e-16)
(23.6755 -2.39325e-17 1.98973e-16)
(22.0476 -3.58158e-17 1.89555e-16)
(20.3649 -4.81925e-17 1.79062e-16)
(18.6315 -5.10633e-17 1.67637e-16)
(16.8668 -4.34788e-17 1.55411e-16)
(15.1036 -3.26709e-17 1.42493e-16)
(13.3803 -2.60307e-17 1.29261e-16)
(11.7325 -2.32737e-17 1.16035e-16)
(10.1854 -2.19103e-17 1.03015e-16)
(8.75161 -1.96292e-17 9.03272e-17)
(7.43366 -1.65349e-17 7.80552e-17)
(6.22778 -1.37228e-17 6.62455e-17)
(5.12709 -1.11368e-17 5.49857e-17)
(4.12363 -9.02565e-18 4.43254e-17)
(3.20938 -7.0915e-18 3.42819e-17)
(2.37668 -5.31551e-18 2.49108e-17)
(1.61843 -3.67686e-18 1.63381e-17)
(0.928076 -2.05851e-18 8.86899e-18)
(0.29963 -7.02422e-19 2.67368e-18)
(49.8686 6.82641e-17 1.22086e-16)
(49.6976 2.49303e-16 -1.55283e-17)
(49.3922 3.97474e-16 6.73625e-18)
(48.9785 4.30837e-16 6.57425e-17)
(48.476 3.99405e-16 8.50726e-17)
(47.9001 3.51248e-16 1.11717e-16)
(47.2633 2.86468e-16 1.55198e-16)
(46.5752 2.13332e-16 1.99149e-16)
(45.8438 1.40277e-16 2.21933e-16)
(45.0748 8.28145e-17 2.12392e-16)
(44.2696 4.53907e-17 1.95018e-16)
(43.4273 1.40393e-17 1.78345e-16)
(42.5499 -1.53487e-17 1.6323e-16)
(41.6414 -4.55197e-17 1.50031e-16)
(40.7048 -7.58297e-17 1.39893e-16)
(39.7412 -9.96374e-17 1.41554e-16)
(38.7503 -1.09682e-16 1.48335e-16)
(37.7306 -1.04899e-16 1.58077e-16)
(36.6797 -1.02053e-16 1.70644e-16)
(35.5943 -1.37161e-16 1.81023e-16)
(34.4707 -1.94201e-16 1.82235e-16)
(33.3049 -2.12033e-16 1.79872e-16)
(32.0922 -1.89598e-16 1.78414e-16)
(30.828 -1.70732e-16 1.75687e-16)
(29.5077 -1.61561e-16 1.69438e-16)
(28.1274 -1.48871e-16 1.59656e-16)
(26.6843 -1.31917e-16 1.48147e-16)
(25.1775 -1.17174e-16 1.35883e-16)
(23.6089 -1.04115e-16 1.24649e-16)
(21.9834 -8.74618e-17 1.14495e-16)
(20.3033 -6.62516e-17 1.05057e-16)
(18.573 -4.75831e-17 9.61912e-17)
(16.812 -3.53836e-17 8.76245e-17)
(15.053 -2.73647e-17 7.91665e-17)
(13.3345 -2.09081e-17 7.09677e-17)
(11.6918 -1.58298e-17 6.32661e-17)
(10.1498 -1.12091e-17 5.60084e-17)
(8.72093 -8.34446e-18 4.91402e-17)
(7.40758 -7.1618e-18 4.25736e-17)
(6.20593 -5.39225e-18 3.6283e-17)
(5.10912 -3.43144e-18 3.02699e-17)
(4.10919 -1.95805e-18 2.45458e-17)
(3.19815 -1.52286e-18 1.91483e-17)
(2.36838 -1.19336e-18 1.41353e-17)
(1.61278 -1.0604e-18 9.59683e-18)
(0.924838 -6.31543e-19 5.65323e-18)
(0.298585 -1.77068e-19 2.0155e-18)
(49.7272 4.81357e-17 2.62487e-16)
(49.5578 2.40505e-16 1.44985e-16)
(49.2551 4.26433e-16 1.12097e-16)
(48.8448 4.4987e-16 1.25899e-16)
(48.3461 4.1207e-16 1.27476e-16)
(47.7742 3.88296e-16 1.44464e-16)
(47.1413 3.37271e-16 1.75663e-16)
(46.457 2.46476e-16 2.10238e-16)
(45.7291 1.2227e-16 2.17569e-16)
(44.9634 2.99929e-17 1.80973e-16)
(44.1618 -6.3417e-18 1.51091e-16)
(43.3233 -2.66102e-17 1.36538e-16)
(42.4494 -4.5462e-17 1.27868e-16)
(41.5439 -6.6869e-17 1.21503e-16)
(40.6099 -8.59749e-17 1.13608e-16)
(39.6485 -9.62227e-17 1.02991e-16)
(38.6596 -9.50952e-17 9.06869e-17)
(37.6417 -8.8224e-17 7.66027e-17)
(36.5923 -1.02596e-16 5.89701e-17)
(35.5084 -1.71504e-16 4.01516e-17)
(34.3863 -2.3843e-16 2.7309e-17)
(33.2219 -2.42036e-16 2.30927e-17)
(32.0105 -2.17469e-16 2.08223e-17)
(30.7477 -1.99437e-16 1.89931e-17)
(29.4289 -1.83418e-16 1.75363e-17)
(28.0502 -1.65493e-16 1.64089e-17)
(26.6087 -1.43375e-16 1.58261e-17)
(25.1038 -1.12163e-16 1.52326e-17)
(23.5375 -8.26863e-17 1.45092e-17)
(21.9146 -6.65523e-17 1.38515e-17)
(20.2373 -5.7318e-17 1.26849e-17)
(18.5103 -4.66718e-17 1.05591e-17)
(16.7532 -3.50508e-17 7.97403e-18)
(14.9988 -2.27248e-17 5.58525e-18)
(13.2855 -1.10792e-17 3.44882e-18)
(11.6482 -1.5884e-18 1.60109e-18)
(10.1117 4.54186e-18 3.09747e-20)
(8.68806 7.90727e-18 -1.21942e-18)
(7.37964 1.00481e-17 -2.11855e-18)
(6.18253 1.09775e-17 -2.66697e-18)
(5.08986 1.09123e-17 -2.93569e-18)
(4.09372 9.82151e-18 -2.98089e-18)
(3.18613 8.59289e-18 -2.83384e-18)
(2.35948 7.14677e-18 -2.51062e-18)
(1.60672 5.44505e-18 -1.98027e-18)
(0.921368 3.46307e-18 -1.1646e-18)
(0.297466 1.16787e-18 -2.70976e-19)
(49.5758 2.92794e-17 4.85099e-16)
(49.408 1.82378e-16 3.83969e-16)
(49.1082 3.62694e-16 2.78439e-16)
(48.7016 4.20364e-16 1.76092e-16)
(48.207 4.15464e-16 1.52254e-16)
(47.6393 4.18127e-16 1.49077e-16)
(47.0106 3.83718e-16 1.4611e-16)
(46.3304 2.74876e-16 1.42364e-16)
(45.6063 8.75421e-17 1.37203e-16)
(44.8442 -2.81129e-17 1.30035e-16)
(44.0465 -3.01603e-17 1.21258e-16)
(43.2121 -2.472e-17 1.11259e-16)
(42.3421 -4.11117e-17 1.03362e-16)
(41.4399 -7.40073e-17 1.02898e-16)
(40.5087 -1.15535e-16 9.5675e-17)
(39.5498 -1.45696e-16 6.75946e-17)
(38.563 -1.56892e-16 3.91867e-17)
(37.5469 -1.56286e-16 1.836e-17)
(36.4993 -1.53149e-16 4.02344e-18)
(35.417 -1.43802e-16 -3.18969e-18)
(34.2965 -1.15862e-16 1.36173e-18)
(33.1335 -7.03192e-17 8.47693e-18)
(31.9237 -3.05599e-17 1.38684e-17)
(30.6623 -4.85818e-18 1.76218e-17)
(29.3451 9.67057e-18 1.82177e-17)
(27.968 2.84292e-17 1.61931e-17)
(26.5284 4.75786e-17 1.37148e-17)
(25.0256 5.948e-17 1.12058e-17)
(23.4616 6.91516e-17 7.36848e-18)
(21.8414 7.45147e-17 3.5315e-18)
(20.1672 6.76372e-17 3.8205e-19)
(18.4437 5.74306e-17 -1.93411e-18)
(16.6907 5.18601e-17 -3.47192e-18)
(14.9412 4.80073e-17 -4.47911e-18)
(13.2334 4.13864e-17 -5.03009e-18)
(11.602 3.23948e-17 -5.37483e-18)
(10.0712 2.34337e-17 -5.50085e-18)
(8.65318 1.60263e-17 -5.42599e-18)
(7.34998 1.06522e-17 -5.27331e-18)
(6.15769 7.24385e-18 -5.09615e-18)
(5.06943 5.06167e-18 -4.87813e-18)
(4.07731 3.60087e-18 -4.61771e-18)
(3.17336 2.52228e-18 -4.26379e-18)
(2.35003 1.77858e-18 -3.7486e-18)
(1.6003 1.12697e-18 -2.95704e-18)
(0.917687 4.51673e-19 -1.68775e-18)
(0.296278 1.75595e-19 -3.30154e-19)
(49.4149 3.72236e-18 6.90674e-16)
(49.2488 8.63294e-17 5.58148e-16)
(48.9521 2.05077e-16 4.7525e-16)
(48.5492 3.07205e-16 3.39154e-16)
(48.059 3.84648e-16 2.54559e-16)
(47.4958 4.02728e-16 1.89575e-16)
(46.8716 3.65027e-16 1.36593e-16)
(46.1957 2.7725e-16 9.20633e-17)
(45.4758 1.46017e-16 7.67016e-17)
(44.7176 4.64705e-17 1.02825e-16)
(43.924 3.45738e-18 1.17425e-16)
(43.0941 -2.0973e-17 1.12898e-16)
(42.2282 -3.03372e-17 1.00782e-16)
(41.3297 -6.41583e-17 8.63639e-17)
(40.4015 -1.659e-16 7.29533e-17)
(39.4452 -2.32683e-16 6.29751e-17)
(38.4607 -2.04476e-16 5.57624e-17)
(37.4467 -1.4911e-16 4.4272e-17)
(36.401 -1.08359e-16 3.30247e-17)
(35.3205 -9.28961e-17 2.64477e-17)
(34.2016 -9.77626e-17 2.36705e-17)
(33.0402 -9.96155e-17 2.26262e-17)
(31.832 -9.96745e-17 2.27005e-17)
(30.5722 -1.19423e-16 2.2268e-17)
(29.2566 -1.44069e-16 2.04652e-17)
(27.8813 -1.47847e-16 1.80691e-17)
(26.4436 -1.2841e-16 1.49607e-17)
(24.943 -1.10919e-16 1.04143e-17)
(23.3815 -9.18278e-17 5.10038e-18)
(21.7642 -6.93701e-17 -1.8986e-19)
(20.0933 -4.63304e-17 -5.0164e-18)
(18.3734 -2.55764e-17 -8.62616e-18)
(16.6249 -1.14528e-17 -1.10539e-17)
(14.8806 -3.86505e-18 -1.2421e-17)
(13.1786 -1.9019e-18 -1.27923e-17)
(11.5532 -1.38385e-18 -1.23891e-17)
(10.0286 -2.70188e-19 -1.15568e-17)
(8.61645 -2.0681e-20 -1.06645e-17)
(7.31876 -1.29953e-18 -9.88951e-18)
(6.13155 -2.19587e-18 -9.32281e-18)
(5.04793 -3.12448e-18 -8.96239e-18)
(4.06002 -3.44401e-18 -8.71844e-18)
(3.15992 -2.92498e-18 -8.442e-18)
(2.34009 -2.03184e-18 -7.89906e-18)
(1.59353 -8.93768e-19 -6.75715e-18)
(0.91381 4.25843e-20 -4.48744e-18)
(0.295028 -7.25403e-20 -1.42479e-18)
(49.2451 -3.78413e-17 8.06599e-16)
(49.0808 8.87755e-18 6.21762e-16)
(48.7871 1.05962e-16 5.39118e-16)
(48.3883 1.72348e-16 4.25869e-16)
(47.9026 2.54753e-16 2.99655e-16)
(47.3442 3.09763e-16 2.19795e-16)
(46.7248 3.13378e-16 1.60468e-16)
(46.0535 2.66524e-16 1.17715e-16)
(45.338 1.89289e-16 9.93215e-17)
(44.5839 1.16144e-16 1.08884e-16)
(43.7947 5.87196e-17 1.15724e-16)
(42.9696 1.05056e-17 1.12549e-16)
(42.1082 -3.29022e-17 9.82703e-17)
(41.2135 -7.94242e-17 7.15992e-17)
(40.2887 -1.26168e-16 5.03642e-17)
(39.3353 -1.57702e-16 5.11028e-17)
(38.3533 -1.89093e-16 5.20305e-17)
(37.3415 -2.10333e-16 4.27476e-17)
(36.2978 -1.97187e-16 2.50876e-17)
(35.2192 -1.66073e-16 9.80932e-19)
(34.1021 -1.29293e-16 -2.92186e-17)
(32.9424 -8.84697e-17 -5.53801e-17)
(31.7358 -6.27473e-17 -7.28113e-17)
(30.4778 -6.47399e-17 -8.21579e-17)
(29.1639 -7.71767e-17 -8.45452e-17)
(27.7905 -8.05259e-17 -8.12224e-17)
(26.3548 -8.91827e-17 -7.61592e-17)
(24.8564 -1.02136e-16 -7.05518e-17)
(23.2976 -1.04094e-16 -6.36896e-17)
(21.6834 -9.90589e-17 -5.60242e-17)
(20.0158 -9.49299e-17 -4.82598e-17)
(18.2999 -9.06159e-17 -4.10749e-17)
(16.556 -8.71786e-17 -3.40946e-17)
(14.8171 -8.32592e-17 -2.704e-17)
(13.1212 -8.0312e-17 -2.03476e-17)
(11.5023 -7.91641e-17 -1.41814e-17)
(9.98404 -7.91409e-17 -8.92321e-18)
(8.57805 -7.96853e-17 -4.60068e-18)
(7.28611 -7.90812e-17 -1.21019e-18)
(6.1042 -7.75671e-17 1.33112e-18)
(5.02543 -7.4078e-17 3.03562e-18)
(4.04195 -6.82698e-17 3.96464e-18)
(3.14587 -5.93251e-17 4.11379e-18)
(2.32969 -4.77173e-17 3.53431e-18)
(1.58646 -3.41522e-17 2.35492e-18)
(0.909756 -1.93688e-17 9.09513e-19)
(0.29372 -6.8671e-18 -6.49653e-20)
(49.067 -8.71143e-17 7.87861e-16)
(48.9046 -1.03515e-16 6.50577e-16)
(48.6141 -2.44704e-17 4.9726e-16)
(48.2194 3.7579e-17 3.63176e-16)
(47.7384 1.64726e-16 2.57691e-16)
(47.185 2.68169e-16 2.16617e-16)
(46.5705 2.9103e-16 1.7948e-16)
(45.9042 2.69019e-16 1.49882e-16)
(45.1933 2.20873e-16 1.35283e-16)
(44.4436 1.63796e-16 1.33947e-16)
(43.659 1.0284e-16 1.33308e-16)
(42.8389 4.12256e-17 1.2603e-16)
(41.9822 -1.57042e-17 1.09044e-16)
(41.0918 -6.24386e-17 8.73897e-17)
(40.1705 -9.80494e-17 6.8769e-17)
(39.2202 -1.23134e-16 5.69939e-17)
(38.2409 -1.44444e-16 4.99911e-17)
(37.2315 -1.62063e-16 4.27301e-17)
(36.19 -1.85618e-16 2.57068e-17)
(35.1134 -2.28152e-16 -4.46996e-19)
(33.9981 -2.43366e-16 -2.70179e-17)
(32.8403 -1.90978e-16 -5.71194e-17)
(31.6355 -1.17017e-16 -8.83233e-17)
(30.3792 -7.26734e-17 -1.15496e-16)
(29.0672 -4.88329e-17 -1.36592e-16)
(27.6957 -3.51625e-17 -1.51384e-16)
(26.2622 -3.03381e-17 -1.6203e-16)
(24.7662 -1.94707e-17 -1.69029e-16)
(23.2101 5.71918e-18 -1.74237e-16)
(21.5991 3.09107e-17 -1.76823e-16)
(19.9352 4.57185e-17 -1.76561e-16)
(18.2233 5.99243e-17 -1.73529e-16)
(16.4842 7.86343e-17 -1.67941e-16)
(14.7511 9.3963e-17 -1.59732e-16)
(13.0615 1.01944e-16 -1.49087e-16)
(11.4492 1.0539e-16 -1.3667e-16)
(9.93769 1.07576e-16 -1.23329e-16)
(8.5381 1.09188e-16 -1.09644e-16)
(7.25215 1.08761e-16 -9.61509e-17)
(6.07576 1.06599e-16 -8.31206e-17)
(5.00204 1.01443e-16 -7.06685e-17)
(4.02315 9.27945e-17 -5.886e-17)
(3.13125 8.06339e-17 -4.76967e-17)
(2.31888 6.51161e-17 -3.71056e-17)
(1.5791 4.68254e-17 -2.68084e-17)
(0.90554 2.67647e-17 -1.62737e-17)
(0.29236 9.29301e-18 -5.4528e-18)
(48.8812 -8.76373e-17 5.347e-16)
(48.7206 -1.81566e-16 4.6677e-16)
(48.4334 -1.79641e-16 3.91645e-16)
(48.043 -8.10083e-17 3.23544e-16)
(47.5667 1.05628e-16 2.70504e-16)
(47.0185 2.44804e-16 2.29682e-16)
(46.4093 2.7917e-16 1.97351e-16)
(45.7481 2.74833e-16 1.73552e-16)
(45.0421 2.45652e-16 1.62305e-16)
(44.297 1.98785e-16 1.57755e-16)
(43.5171 1.36643e-16 1.5301e-16)
(42.7021 6.49587e-17 1.37918e-16)
(41.8504 8.10457e-20 1.13341e-16)
(40.9645 -4.34421e-17 8.03648e-17)
(40.0473 -6.44244e-17 4.69753e-17)
(39.1003 -6.52449e-17 1.46964e-17)
(38.1239 -8.26964e-17 -1.53314e-17)
(37.1171 -1.4083e-16 -4.17058e-17)
(36.0779 -1.94116e-16 -6.67e-17)
(35.0034 -2.01818e-16 -8.54871e-17)
(33.8901 -1.91886e-16 -9.52812e-17)
(32.7342 -1.79632e-16 -1.04793e-16)
(31.5313 -1.45162e-16 -1.17874e-16)
(30.2769 -1.05428e-16 -1.29635e-16)
(28.9668 -6.76659e-17 -1.41697e-16)
(27.5974 -3.98233e-17 -1.53836e-16)
(26.1661 -3.85838e-17 -1.6505e-16)
(24.6726 -6.56481e-17 -1.73654e-16)
(23.1195 -8.86823e-17 -1.79257e-16)
(21.5118 -9.64739e-17 -1.82564e-16)
(19.8515 -1.03918e-16 -1.83636e-16)
(18.1439 -1.15516e-16 -1.81933e-16)
(16.4099 -1.23524e-16 -1.77503e-16)
(14.6827 -1.21916e-16 -1.70447e-16)
(12.9996 -1.16255e-16 -1.60832e-16)
(11.3943 -1.12539e-16 -1.49306e-16)
(9.88971 -1.11503e-16 -1.36539e-16)
(8.49675 -1.1096e-16 -1.23267e-16)
(7.21701 -1.10503e-16 -1.09907e-16)
(6.04633 -1.07164e-16 -9.67824e-17)
(4.97783 -1.00768e-16 -8.39967e-17)
(4.0037 -9.11071e-17 -7.15736e-17)
(3.11613 -7.86738e-17 -5.94292e-17)
(2.30769 -6.26041e-17 -4.73644e-17)
(1.57149 -4.42539e-17 -3.50075e-17)
(0.901177 -2.51712e-17 -2.1573e-17)
(0.290953 -8.92181e-18 -7.24677e-18)
(48.6885 -8.24461e-17 3.07854e-16)
(48.5297 -1.7962e-16 2.00381e-16)
(48.2457 -1.89016e-16 2.71711e-16)
(47.8595 -1.07176e-16 2.88693e-16)
(47.3882 6.68491e-17 2.58528e-16)
(46.8452 2.1176e-16 1.87272e-16)
(46.2414 2.68752e-16 1.70989e-16)
(45.5855 2.84548e-16 1.74125e-16)
(44.8847 2.69432e-16 1.75783e-16)
(44.1445 2.27117e-16 1.70262e-16)
(43.3693 1.54367e-16 1.54659e-16)
(42.5593 6.64709e-17 1.28059e-16)
(41.7131 -1.95875e-17 9.29543e-17)
(40.8321 -7.99002e-17 5.16715e-17)
(39.9191 -1.09397e-16 6.04186e-18)
(38.9758 -1.21988e-16 -4.2115e-17)
(38.0026 -1.26458e-16 -8.70059e-17)
(36.9985 -1.33815e-16 -1.13324e-16)
(35.9618 -1.36155e-16 -1.22463e-16)
(34.8895 -1.27102e-16 -1.24022e-16)
(33.7784 -1.20995e-16 -1.27459e-16)
(32.6245 -1.02149e-16 -1.289e-16)
(31.4235 -5.66885e-17 -1.27868e-16)
(30.1711 -2.6934e-17 -1.273e-16)
(28.863 -2.58095e-17 -1.28729e-16)
(27.4957 -2.9654e-17 -1.33914e-16)
(26.0668 -3.01728e-17 -1.39802e-16)
(24.576 -2.08687e-17 -1.4371e-16)
(23.0258 -1.0647e-17 -1.43707e-16)
(21.4215 -1.34353e-17 -1.41365e-16)
(19.7652 -2.63317e-17 -1.37113e-16)
(18.0619 -3.93315e-17 -1.31057e-16)
(16.3332 -4.83089e-17 -1.22816e-16)
(14.6121 -5.2418e-17 -1.12843e-16)
(12.9359 -5.42109e-17 -1.01905e-16)
(11.3377 -5.62597e-17 -9.06036e-17)
(9.84025 -5.75094e-17 -7.91236e-17)
(8.45413 -5.73027e-17 -6.79136e-17)
(7.18079 -5.63159e-17 -5.7265e-17)
(6.01599 -5.3491e-17 -4.74211e-17)
(4.95287 -4.8199e-17 -3.84716e-17)
(3.98365 -4.10984e-17 -3.04737e-17)
(3.10054 -3.23667e-17 -2.34495e-17)
(2.29615 -2.36618e-17 -1.73802e-17)
(1.56364 -1.55823e-17 -1.21339e-17)
(0.89668 -7.99949e-18 -7.40416e-18)
(0.289502 -2.74983e-18 -2.672e-18)
(48.4893 -9.54424e-17 2.78116e-16)
(48.3323 -1.58401e-16 9.97893e-17)
(48.0515 -1.5411e-16 2.36459e-16)
(47.6695 -1.23427e-16 2.75079e-16)
(47.2032 1.03618e-17 2.45521e-16)
(46.6655 1.89242e-16 1.66477e-16)
(46.0672 3.10984e-16 1.80274e-16)
(45.4168 3.38027e-16 2.10471e-16)
(44.7213 3.07044e-16 2.19059e-16)
(43.9862 2.42853e-16 2.09206e-16)
(43.2159 1.53173e-16 1.83224e-16)
(42.4111 5.39541e-17 1.48699e-16)
(41.5705 -3.55321e-17 1.12666e-16)
(40.6948 -9.89855e-17 8.15529e-17)
(39.7864 -1.33125e-16 5.30179e-17)
(38.847 -1.32293e-16 2.81313e-17)
(37.8771 -9.13647e-17 8.25271e-18)
(36.876 -5.48401e-17 -4.73597e-18)
(35.8419 -4.75622e-17 -1.04098e-17)
(34.772 -5.84204e-17 -1.25248e-17)
(33.6631 -6.56271e-17 -1.26484e-17)
(32.5113 -5.50728e-17 -9.85157e-18)
(31.3124 -3.60229e-17 -7.63049e-18)
(30.062 -3.52523e-17 -8.93204e-18)
(28.7561 -5.05824e-17 -8.85233e-18)
(27.391 -6.35751e-17 -7.2185e-18)
(25.9645 -6.39234e-17 -3.90254e-18)
(24.4764 -5.85956e-17 -6.51692e-19)
(22.9293 -4.99536e-17 1.48668e-18)
(21.3287 -4.40064e-17 1.19887e-18)
(19.6764 -4.60653e-17 7.28319e-19)
(17.9777 -4.82891e-17 8.21254e-19)
(16.2544 -4.63335e-17 1.34048e-18)
(14.5396 -4.17802e-17 2.22552e-18)
(12.8704 -3.69818e-17 3.26262e-18)
(11.2796 -2.80714e-17 4.16242e-18)
(9.78946 -1.7324e-17 4.8599e-18)
(8.41037 -9.71471e-18 5.19294e-18)
(7.14359 -6.24196e-18 5.08948e-18)
(5.98484 -3.94579e-18 4.57988e-18)
(4.92725 -2.27412e-18 3.68614e-18)
(3.96306 -1.70482e-18 2.47594e-18)
(3.08453 -2.41974e-18 1.02229e-18)
(2.28431 -2.37411e-18 -4.92318e-19)
(1.55558 -1.83373e-18 -1.75683e-18)