/*--------------------------------*- C++ -*----------------------------------*\
  =========                 |
  \\      /  F ield         | OpenFOAM: The Open Source CFD Toolbox
   \\    /   O peration     | Website:  https://openfoam.org
    \\  /    A nd           | Version:  7
     \\/     M anipulation  |
\*---------------------------------------------------------------------------*/
FoamFile
{
    version     2.0;
    format      ascii;
    class       volVectorField;
    location    "1109";
    object      wallShearStress;
}
// * * * * * * * * * * * * * * * * * * * * * * * * * * * * * * * * * * * * * //

dimensions      [0 2 -2 0 0 0 0];

internalField   uniform (0 0 0);

boundaryField
{
    inflow
    {
        type            cyclic;
    }
    outflow
    {
        type            cyclic;
    }
    wallTop
    {
        type            calculated;
        value           nonuniform List<vector> 
141
(
(-7.96212 -2.51453e-17 1.13051e-16)
(-7.95809 -1.6709e-17 -4.28301e-17)
(-7.95021 -3.4039e-18 -1.52715e-16)
(-7.93881 4.58604e-18 2.77335e-17)
(-7.92416 -5.73054e-17 1.33067e-18)
(-7.90653 5.90275e-17 6.71336e-17)
(-7.88618 -8.69542e-17 -7.1427e-17)
(-7.86329 7.48376e-18 -8.74818e-17)
(-7.83809 2.42035e-17 -6.9936e-17)
(-7.81076 6.78513e-18 -5.2524e-17)
(-7.78149 -4.05653e-17 7.12316e-18)
(-7.75041 -6.03639e-18 8.49767e-18)
(-7.71771 2.50652e-18 3.6438e-17)
(-7.68349 2.39849e-16 2.86993e-18)
(-7.64792 -3.23541e-16 1.42319e-16)
(-7.61111 3.10938e-16 1.88076e-16)
(-7.57315 9.53708e-17 7.09731e-17)
(-7.53418 2.52769e-17 2.76696e-17)
(-7.49431 1.65395e-16 1.01198e-16)
(-7.45361 1.8624e-16 -2.65627e-17)
(-7.41217 9.82673e-18 -7.55646e-17)
(-7.37005 1.31365e-16 9.91725e-18)
(-7.32736 2.28259e-17 -1.15029e-16)
(-7.28415 7.74768e-17 -3.00926e-17)
(-7.24043 3.26242e-17 -6.87501e-17)
(-7.19628 3.04011e-17 -5.73874e-17)
(-7.15162 -6.58761e-18 2.84417e-17)
(-7.10655 1.81563e-17 -4.17059e-18)
(-7.06111 -9.02312e-17 -1.61919e-17)
(-7.01536 -1.69004e-17 6.80726e-18)
(-6.96935 -1.28322e-16 4.36856e-17)
(-6.92304 -8.36498e-17 -2.86791e-17)
(-6.87651 -1.21602e-16 -3.90154e-19)
(-6.82973 -7.05519e-17 1.39341e-17)
(-6.78273 -1.08809e-16 -1.7116e-18)
(-6.73546 3.14321e-17 4.04732e-18)
(-6.68795 -1.43136e-16 -2.31251e-18)
(-6.64018 -6.42404e-17 3.41703e-18)
(-6.59216 -7.37252e-17 -3.87072e-17)
(-6.54387 -9.65198e-17 -7.41574e-17)
(-6.49526 -1.60387e-16 -6.76215e-17)
(-6.44634 -6.0598e-17 -6.96218e-17)
(-6.39709 -1.9617e-16 -1.04666e-16)
(-6.34749 -1.58547e-16 -8.17339e-17)
(-6.2975 -1.77368e-16 -7.43892e-17)
(-6.24709 -1.62693e-16 -7.84578e-17)
(-6.19626 -1.81127e-16 -6.99785e-17)
(-6.14499 -1.33714e-16 -9.42304e-17)
(-6.09322 -1.70941e-16 -9.41144e-17)
(-6.04095 -1.42655e-16 -9.67537e-17)
(-5.98814 -1.36832e-16 -7.83799e-17)
(-5.9348 -1.09666e-16 -7.66835e-17)
(-5.88083 -1.19141e-16 -8.46594e-17)
(-5.82621 -1.02638e-16 -8.90433e-17)
(-5.77094 -1.22965e-16 -7.96806e-17)
(-5.71496 -1.13665e-16 -8.38828e-17)
(-5.65832 -1.1877e-16 -7.41835e-17)
(-5.60103 -9.59686e-17 -8.22082e-17)
(-5.54309 -1.03239e-16 -6.85366e-17)
(-5.48444 -8.53945e-17 -5.45385e-17)
(-5.42511 -1.0254e-16 -5.84293e-17)
(-5.36505 -9.47501e-17 -4.93183e-17)
(-5.30423 -1.11239e-16 -4.99535e-17)
(-5.24265 -1.01892e-16 -4.84746e-17)
(-5.18024 -1.12263e-16 -3.66246e-17)
(-5.11698 -9.89902e-17 -3.07594e-17)
(-5.05287 -1.07272e-16 -3.32912e-17)
(-4.98789 -9.35472e-17 -2.0749e-17)
(-4.92202 -9.79196e-17 -2.83718e-17)
(-4.85526 -8.58515e-17 -3.24528e-17)
(-4.78761 -9.38191e-17 -2.65464e-17)
(-4.71905 -8.77463e-17 -2.52054e-17)
(-4.6496 -9.64638e-17 -2.43691e-17)
(-4.57928 -9.67451e-17 -2.73233e-17)
(-4.5081 -1.04932e-16 -2.23748e-17)
(-4.43606 -1.03077e-16 -1.21652e-17)
(-4.36323 -1.07038e-16 6.44608e-19)
(-4.28962 -1.01912e-16 1.45014e-17)
(-4.21527 -1.01959e-16 2.8713e-17)
(-4.1402 -8.87521e-17 4.01152e-17)
(-4.06441 -8.00283e-17 4.75757e-17)
(-3.988 -6.17372e-17 5.20868e-17)
(-3.91094 -5.06368e-17 5.27252e-17)
(-3.83327 -3.31938e-17 4.66203e-17)
(-3.75505 -2.2651e-17 3.54094e-17)
(-3.67632 -8.49464e-18 2.6997e-17)
(-3.59711 9.31707e-19 1.72086e-17)
(-3.51745 9.56688e-18 9.49449e-18)
(-3.43743 1.42642e-17 2.21314e-18)
(-3.35704 1.78334e-17 -8.12321e-18)
(-3.27642 1.9964e-17 -1.58411e-17)
(-3.19559 2.11369e-17 -2.01785e-17)
(-3.1146 1.99002e-17 -2.517e-17)
(-3.03353 1.85948e-17 -3.00535e-17)
(-2.95249 1.64362e-17 -3.0704e-17)
(-2.8715 1.42101e-17 -3.3938e-17)
(-2.79069 1.17743e-17 -3.55039e-17)
(-2.71012 1.0145e-17 -3.48995e-17)
(-2.62987 8.58362e-18 -3.65291e-17)
(-2.55004 7.05078e-18 -3.71038e-17)
(-2.4707 4.89136e-18 -3.81325e-17)
(-2.39192 3.22619e-18 -3.81739e-17)
(-2.3138 1.03961e-18 -3.7154e-17)
(-2.2364 -8.5383e-19 -3.67241e-17)
(-2.15979 -3.13139e-18 -3.60705e-17)
(-2.08404 -4.70606e-18 -3.34534e-17)
(-2.00921 -6.66078e-18 -3.16426e-17)
(-1.93534 -7.88402e-18 -3.04445e-17)
(-1.86248 -8.91149e-18 -2.88657e-17)
(-1.79067 -9.38198e-18 -2.75377e-17)
(-1.71994 -9.85089e-18 -2.5699e-17)
(-1.65031 -1.04327e-17 -2.38773e-17)
(-1.58179 -1.07286e-17 -2.28678e-17)
(-1.51441 -1.03798e-17 -2.15959e-17)
(-1.44815 -1.0319e-17 -2.0388e-17)
(-1.38303 -9.83757e-18 -1.92344e-17)
(-1.31904 -9.68102e-18 -1.83106e-17)
(-1.25615 -8.64675e-18 -1.74688e-17)
(-1.19437 -7.99357e-18 -1.63583e-17)
(-1.13367 -7.20822e-18 -1.53133e-17)
(-1.07403 -6.43851e-18 -1.40721e-17)
(-1.01542 -5.63061e-18 -1.29315e-17)
(-0.957821 -4.69255e-18 -1.17216e-17)
(-0.901199 -3.71863e-18 -1.02745e-17)
(-0.845524 -2.79512e-18 -8.80395e-18)
(-0.79076 -1.64138e-18 -7.38015e-18)
(-0.736864 -5.64538e-19 -5.76599e-18)
(-0.6838 4.06323e-19 -4.03259e-18)
(-0.631523 1.13587e-18 -2.44749e-18)
(-0.579979 1.55163e-18 -9.98889e-19)
(-0.529118 1.49068e-18 3.99253e-19)
(-0.478879 1.08388e-18 1.50756e-18)
(-0.429184 3.49447e-19 2.24289e-18)
(-0.379958 -7.20378e-19 2.57083e-18)
(-0.331092 -1.94379e-18 2.58744e-18)
(-0.282462 -3.2694e-18 2.33846e-18)
(-0.233891 -4.39072e-18 1.82918e-18)
(-0.185132 -5.07383e-18 1.18095e-18)
(-0.135788 -5.1299e-18 4.21666e-19)
(-0.0851156 -4.15992e-18 -4.12619e-19)
(-0.0313924 -1.28057e-18 -1.07612e-18)
)
;
    }
    wallSide
    {
        type            calculated;
        value           nonuniform List<vector> 
47
(
(-6.2589 3.10492e-17 1.85027e-17)
(-6.22601 -8.45267e-17 -2.25491e-17)
(-6.16746 -8.58555e-17 -9.765e-18)
(-6.08776 -1.7339e-16 -6.80071e-18)
(-5.99037 -1.70636e-16 5.15233e-18)
(-5.87781 -2.23074e-16 -2.28426e-18)
(-5.75195 -2.15016e-16 3.37042e-19)
(-5.61419 -2.24103e-16 2.3718e-18)
(-5.46589 -1.9282e-16 -3.56201e-19)
(-5.30796 -9.63536e-17 1.17141e-17)
(-5.14112 -8.72824e-17 1.57041e-17)
(-4.9658 -1.48385e-16 9.89978e-18)
(-4.78246 -1.03627e-16 6.4929e-18)
(-4.5917 -4.02415e-17 -8.7599e-19)
(-4.39441 -3.38752e-17 3.9775e-19)
(-4.19183 -6.60465e-17 -3.1052e-18)
(-3.98509 -1.00652e-16 -2.9833e-18)
(-3.77526 2.20742e-17 6.16745e-18)
(-3.56356 6.17981e-17 1.57336e-17)
(-3.35125 -8.33714e-17 9.6131e-18)
(-3.1397 -7.32688e-17 -1.44762e-17)
(-2.93046 6.71732e-17 -2.51021e-17)
(-2.72508 4.58209e-19 -1.29509e-17)
(-2.52507 -5.58212e-17 -2.16502e-18)
(-2.33183 -4.37205e-17 -3.50006e-18)
(-2.14652 -3.63635e-17 -6.26499e-18)
(-1.97001 -3.53391e-17 -7.14724e-18)
(-1.80281 -3.62349e-17 -7.03754e-18)
(-1.64517 -3.68714e-17 -5.62782e-18)
(-1.49706 -3.55261e-17 -4.38791e-18)
(-1.35827 -3.29864e-17 -2.89812e-18)
(-1.22845 -2.9583e-17 -1.33059e-18)
(-1.10714 -2.59301e-17 2.73492e-20)
(-0.993882 -2.17562e-17 2.01596e-18)
(-0.888162 -1.81061e-17 3.82156e-18)
(-0.78948 -1.49028e-17 5.5764e-18)
(-0.697344 -1.22792e-17 6.75931e-18)
(-0.611268 -1.05244e-17 7.28003e-18)
(-0.530794 -9.45616e-18 7.10229e-18)
(-0.455465 -8.7402e-18 6.18514e-18)
(-0.384841 -8.17799e-18 4.73895e-18)
(-0.318481 -7.68807e-18 3.08382e-18)
(-0.255935 -6.97652e-18 1.56273e-18)
(-0.196702 -5.89482e-18 5.27794e-19)
(-0.140178 -4.29862e-18 1.15272e-19)
(-0.0854663 -2.3012e-18 -1.82302e-21)
(-0.0308315 -1.04996e-18 3.87631e-19)
)
;
    }
    symmetryBottom
    {
        type            symmetry;
    }
    symmetrySide
    {
        type            symmetry;
    }
}


// ************************************************************************* //
