0 	4.71048e-06 	4.71048e-05 	46.8993 	-5.66876e-17 	-8.67345e-16
0 	1.40876e-05 	0.000140876 	46.8906 	-2.59475e-18 	-1.54227e-15
0 	2.33775e-05 	0.000233775 	46.882 	9.24411e-17 	-8.4828e-16
0 	3.2581e-05 	0.00032581 	46.8734 	1.34794e-16 	3.4799e-17
0 	4.16988e-05 	0.000416988 	46.8649 	9.0513e-17 	4.8884e-16
0 	5.07318e-05 	0.000507318 	46.8564 	3.0824e-17 	5.58571e-16
0 	5.96807e-05 	0.000596807 	46.848 	-1.99004e-17 	4.6151e-16
0 	6.85463e-05 	0.000685463 	46.8397 	-5.91082e-17 	3.62666e-16
0 	7.73295e-05 	0.000773295 	46.8314 	-6.18212e-17 	2.8561e-16
0 	8.6031e-05 	0.00086031 	46.8232 	-2.23373e-17 	2.32906e-16
0 	9.11565e-05 	0.000911565 	46.8183 	1.14103e-17 	2.02786e-16
0 	9.54466e-05 	0.000954466 	46.8075 	3.10604e-17 	1.49317e-16
0 	0.000103192 	0.00103192 	46.7852 	4.39469e-17 	-2.70978e-18
0 	0.000111653 	0.00111653 	46.7607 	4.20313e-17 	-2.02625e-16
0 	0.000120035 	0.00120035 	46.7365 	7.79122e-17 	-3.23984e-16
0 	0.000128339 	0.00128339 	46.7125 	1.51076e-16 	-3.00954e-16
0 	0.000136566 	0.00136566 	46.6887 	2.19943e-16 	-1.61079e-16
0 	0.000144716 	0.00144716 	46.6651 	2.59229e-16 	-6.03767e-18
0 	0.00015279 	0.0015279 	46.6418 	2.73826e-16 	1.40831e-16
0 	0.00016079 	0.0016079 	46.6186 	2.67934e-16 	3.15594e-16
0 	0.000168715 	0.00168715 	46.5956 	2.5013e-16 	4.40715e-16
0 	0.000174101 	0.00174101 	46.58 	2.39064e-16 	4.8071e-16
0 	0.000178008 	0.00178008 	46.564 	2.42539e-16 	4.96765e-16
0 	0.000184344 	0.00184344 	46.5337 	2.42145e-16 	5.52276e-16
0 	0.000192049 	0.00192049 	46.4968 	2.24649e-16 	6.31811e-16
0 	0.000199684 	0.00199684 	46.4602 	1.99052e-16 	6.69991e-16
0 	0.000207247 	0.00207247 	46.424 	2.00936e-16 	6.78684e-16
0 	0.000214739 	0.00214739 	46.3881 	2.21295e-16 	7.17299e-16
0 	0.000222162 	0.00222162 	46.3524 	2.10287e-16 	8.46238e-16
0 	0.000229516 	0.00229516 	46.3171 	1.52389e-16 	1.02692e-15
0 	0.000236801 	0.00236801 	46.2822 	5.65558e-17 	1.09774e-15
0 	0.000244019 	0.00244019 	46.2475 	-3.20398e-18 	1.00042e-15
0 	0.000249574 	0.00249574 	46.2207 	1.14334e-17 	8.87244e-16
0 	0.000253133 	0.00253133 	46.2006 	5.02323e-17 	8.2393e-16
0 	0.000258253 	0.00258253 	46.1664 	1.2332e-16 	7.51729e-16
0 	0.000265271 	0.00265271 	46.1194 	2.18456e-16 	6.3661e-16
0 	0.000272224 	0.00272224 	46.0728 	2.78711e-16 	4.99781e-16
0 	0.000279112 	0.00279112 	46.0266 	3.01819e-16 	4.23029e-16
0 	0.000285936 	0.00285936 	45.9809 	2.9989e-16 	4.0932e-16
0 	0.000292697 	0.00292697 	45.9355 	3.07455e-16 	4.02535e-16
0 	0.000299394 	0.00299394 	45.8905 	3.04856e-16 	4.17435e-16
0 	0.000306029 	0.00306029 	45.8459 	2.79707e-16 	4.42237e-16
0 	0.000312603 	0.00312603 	45.8016 	2.49465e-16 	4.3534e-16
0 	0.000318248 	0.00318248 	45.7635 	2.31741e-16 	4.104e-16
0 	0.000321489 	0.00321489 	45.74 	2.23697e-16 	3.94359e-16
0 	0.000325567 	0.00325567 	45.7048 	2.02206e-16 	3.839e-16
0 	0.000331959 	0.00331959 	45.6494 	1.55598e-16 	3.80443e-16
0 	0.000338291 	0.00338291 	45.5945 	1.03922e-16 	4.05175e-16
0 	0.000344564 	0.00344564 	45.5401 	5.16594e-17 	4.53903e-16
0 	0.000350779 	0.00350779 	45.4862 	-2.04511e-18 	4.54007e-16
0 	0.000356936 	0.00356936 	45.4327 	-3.9973e-17 	3.69462e-16
0 	0.000363036 	0.00363036 	45.3796 	-5.72619e-17 	2.76887e-16
0 	0.000369079 	0.00369079 	45.3269 	-5.0346e-17 	2.48804e-16
0 	0.000375066 	0.00375066 	45.2747 	-3.97259e-17 	3.13105e-16
0 	0.000380736 	0.00380736 	45.2251 	-5.64271e-17 	4.29511e-16
0 	0.000383687 	0.00383687 	45.1988 	-7.78112e-17 	4.92288e-16
0 	0.000386873 	0.00386873 	45.1646 	-1.32057e-16 	4.83269e-16
0 	0.000392694 	0.00392694 	45.1022 	-2.22754e-16 	3.94228e-16
0 	0.000398462 	0.00398462 	45.0402 	-2.61645e-16 	2.62363e-16
0 	0.000404175 	0.00404175 	44.9788 	-2.47855e-16 	2.0519e-16
0 	0.000409835 	0.00409835 	44.9178 	-2.32316e-16 	2.45693e-16
0 	0.000415443 	0.00415443 	44.8573 	-2.10903e-16 	2.87027e-16
0 	0.000420998 	0.00420998 	44.7973 	-1.6708e-16 	2.45542e-16
0 	0.000426502 	0.00426502 	44.7378 	-9.8265e-17 	1.01285e-16
0 	0.000431955 	0.00431955 	44.6786 	-3.14397e-17 	-1.14032e-16
0 	0.000437357 	0.00437357 	44.62 	-2.51825e-17 	-2.88634e-16
0 	0.000440283 	0.00440283 	44.5881 	-4.13866e-17 	-3.47229e-16
0 	0.000442946 	0.00442946 	44.5541 	-5.27444e-17 	-3.35537e-16
0 	0.00044801 	0.0044801 	44.4885 	-5.95735e-17 	-3.1252e-16
0 	0.000453262 	0.00453262 	44.4203 	-6.36719e-17 	-2.93749e-16
0 	0.000458466 	0.00458466 	44.3527 	-1.04351e-16 	-2.71412e-16
0 	0.000463621 	0.00463621 	44.2855 	-1.62224e-16 	-2.40057e-16
0 	0.000468728 	0.00468728 	44.2189 	-2.13769e-16 	-2.30767e-16
0 	0.000473788 	0.00473788 	44.1526 	-2.62182e-16 	-3.05045e-16
0 	0.0004788 	0.004788 	44.0869 	-2.85166e-16 	-4.77973e-16
0 	0.000483766 	0.00483766 	44.0217 	-2.50326e-16 	-6.31194e-16
0 	0.000488686 	0.00488686 	43.9568 	-1.53085e-16 	-6.672e-16
0 	0.00049178 	0.0049178 	43.916 	-8.14958e-17 	-6.43706e-16
0 	0.000494205 	0.00494205 	43.8801 	-5.59573e-17 	-6.21898e-16
0 	0.000498389 	0.00498389 	43.8156 	-4.39404e-17 	-5.83171e-16
0 	0.000503172 	0.00503172 	43.7417 	-5.50294e-17 	-5.2945e-16
0 	0.000507911 	0.00507911 	43.6683 	-6.90075e-17 	-4.95755e-16
0 	0.000512607 	0.00512607 	43.5954 	-8.87119e-17 	-5.04859e-16
0 	0.000517258 	0.00517258 	43.523 	-1.15029e-16 	-5.37968e-16
0 	0.000521866 	0.00521866 	43.4511 	-1.49939e-16 	-5.66073e-16
0 	0.000526431 	0.00526431 	43.3796 	-1.88392e-16 	-5.81133e-16
0 	0.000530954 	0.00530954 	43.3086 	-2.24141e-16 	-5.92336e-16
0 	0.000535435 	0.00535435 	43.2381 	-2.57139e-16 	-6.16219e-16
0 	0.000538638 	0.00538638 	43.1875 	-2.80819e-16 	-6.40957e-16
0 	0.000540847 	0.00540847 	43.1497 	-2.96138e-16 	-6.57528e-16
0 	0.000544271 	0.00544271 	43.0873 	-3.15295e-16 	-6.763e-16
0 	0.000548628 	0.00548628 	43.0078 	-3.42235e-16 	-7.16965e-16
0 	0.000552944 	0.00552944 	42.9288 	-3.81552e-16 	-8.06559e-16
0 	0.00055722 	0.0055722 	42.8503 	-4.23272e-16 	-9.17349e-16
0 	0.000561457 	0.00561457 	42.7723 	-4.41418e-16 	-1.01381e-15
0 	0.000565654 	0.00565654 	42.6947 	-4.3879e-16 	-1.09701e-15
0 	0.000569811 	0.00569811 	42.6176 	-4.32031e-16 	-1.18243e-15
0 	0.00057393 	0.0057393 	42.5409 	-4.25939e-16 	-1.27446e-15
0 	0.000578011 	0.00578011 	42.4647 	-4.18729e-16 	-1.34053e-15
0 	0.000581275 	0.00581275 	42.4035 	-4.13075e-16 	-1.3488e-15
0 	0.000583287 	0.00583287 	42.3637 	-4.09792e-16 	-1.32852e-15
0 	0.000586059 	0.00586059 	42.3041 	-4.13009e-16 	-1.29438e-15
0 	0.000590027 	0.00590027 	42.2187 	-4.17067e-16 	-1.26459e-15
0 	0.000593958 	0.00593958 	42.1337 	-4.11888e-16 	-1.26117e-15
0 	0.000597853 	0.00597853 	42.0493 	-4.13391e-16 	-1.25504e-15
0 	0.000601711 	0.00601711 	41.9653 	-4.17998e-16 	-1.25759e-15
0 	0.000605533 	0.00605533 	41.8818 	-4.0298e-16 	-1.28183e-15
0 	0.00060932 	0.0060932 	41.7987 	-3.7083e-16 	-1.29692e-15
0 	0.000613071 	0.00613071 	41.716 	-3.23833e-16 	-1.28522e-15
0 	0.000616788 	0.00616788 	41.6338 	-2.56969e-16 	-1.24015e-15
0 	0.000620071 	0.00620071 	41.5608 	-1.93049e-16 	-1.1672e-15
0 	0.000621903 	0.00621903 	41.5188 	-1.61672e-16 	-1.11723e-15
0 	0.000624118 	0.00624118 	41.4628 	-1.43766e-16 	-1.06735e-15
0 	0.000627732 	0.00627732 	41.371 	-1.185e-16 	-9.92074e-16
0 	0.000631312 	0.00631312 	41.2797 	-9.81153e-17 	-9.14736e-16
0 	0.000634859 	0.00634859 	41.189 	-8.94271e-17 	-8.32223e-16
0 	0.000638373 	0.00638373 	41.0987 	-8.70602e-17 	-7.60324e-16
0 	0.000641854 	0.00641854 	41.0088 	-7.97862e-17 	-7.11647e-16
0 	0.000645303 	0.00645303 	40.9193 	-7.08374e-17 	-6.75594e-16
0 	0.000648719 	0.00648719 	40.8303 	-5.88977e-17 	-6.36859e-16
0 	0.000652104 	0.00652104 	40.7417 	-3.83931e-17 	-5.89446e-16
0 	0.000655372 	0.00655372 	40.6558 	-1.85195e-17 	-5.34437e-16
0 	0.000657041 	0.00657041 	40.6116 	-9.78245e-18 	-5.03422e-16
0 	0.00065878 	0.0065878 	40.5598 	-3.61646e-18 	-4.71764e-16
0 	0.000662071 	0.00662071 	40.4617 	1.87548e-18 	-4.27533e-16
0 	0.000665332 	0.00665332 	40.3641 	-5.29657e-19 	-4.19047e-16
0 	0.000668562 	0.00668562 	40.267 	-1.33191e-18 	-4.39095e-16
0 	0.000671763 	0.00671763 	40.1703 	1.22886e-17 	-4.62265e-16
0 	0.000674933 	0.00674933 	40.0741 	4.54245e-17 	-4.85336e-16
0 	0.000678074 	0.00678074 	39.9784 	7.83342e-17 	-5.09718e-16
0 	0.000681186 	0.00681186 	39.883 	9.19539e-17 	-5.15929e-16
0 	0.000684269 	0.00684269 	39.7881 	9.57104e-17 	-4.90244e-16
0 	0.000687323 	0.00687323 	39.6937 	1.0323e-16 	-4.48248e-16
0 	0.000689013 	0.00689013 	39.6412 	1.0914e-16 	-4.24499e-16
0 	0.000690519 	0.00690519 	39.5896 	1.17572e-16 	-4.10563e-16
0 	0.000693346 	0.00693346 	39.4912 	1.31933e-16 	-3.82624e-16
0 	0.000696316 	0.00696316 	39.3875 	1.43635e-16 	-3.52289e-16
0 	0.000699258 	0.00699258 	39.2842 	1.50309e-16 	-3.39713e-16
0 	0.000702173 	0.00702173 	39.1815 	1.56854e-16 	-3.55062e-16
0 	0.00070506 	0.0070506 	39.0792 	1.74639e-16 	-3.72934e-16
0 	0.000707921 	0.00707921 	38.9773 	2.06291e-16 	-3.68762e-16
0 	0.000710755 	0.00710755 	38.8759 	2.43376e-16 	-3.37892e-16
0 	0.000713563 	0.00713563 	38.775 	2.84206e-16 	-2.85827e-16
0 	0.000716344 	0.00716344 	38.6745 	3.23063e-16 	-2.18081e-16
0 	0.000718105 	0.00718105 	38.6107 	3.42127e-16 	-1.7316e-16
0 	0.000719477 	0.00719477 	38.5569 	3.46891e-16 	-1.4238e-16
0 	0.00072183 	0.0072183 	38.4619 	3.53231e-16 	-9.7786e-17
0 	0.000724535 	0.00724535 	38.3523 	3.61586e-16 	-6.07769e-17
0 	0.000727214 	0.00727214 	38.2431 	3.72499e-16 	-3.86849e-17
0 	0.000729869 	0.00729869 	38.1346 	3.80307e-16 	-1.89873e-17
0 	0.000732498 	0.00732498 	38.0265 	3.77413e-16 	7.80042e-18
0 	0.000735104 	0.00735104 	37.9189 	3.67557e-16 	2.24019e-17
0 	0.000737685 	0.00737685 	37.8117 	3.54098e-16 	2.17085e-17
0 	0.000740242 	0.00740242 	37.7051 	3.36076e-16 	3.1095e-17
0 	0.000742776 	0.00742776 	37.5989 	3.16461e-16 	5.04185e-17
0 	0.000744577 	0.00744577 	37.5231 	3.01042e-16 	6.09262e-17
0 	0.000745826 	0.00745826 	37.4674 	2.8806e-16 	6.31822e-17
0 	0.000747772 	0.00747772 	37.3766 	2.64829e-16 	6.31574e-17
0 	0.000750235 	0.00750235 	37.2613 	2.33683e-16 	5.83737e-17
0 	0.000752675 	0.00752675 	37.1465 	2.02089e-16 	4.65507e-17
0 	0.000755093 	0.00755093 	37.0324 	1.62926e-16 	3.37641e-17
0 	0.000757488 	0.00757488 	36.9187 	1.15402e-16 	3.18331e-17
0 	0.000759861 	0.00759861 	36.8056 	7.4332e-17 	2.33864e-17
0 	0.000762212 	0.00762212 	36.693 	4.54603e-17 	-2.83541e-18
0 	0.000764541 	0.00764541 	36.5809 	2.23702e-17 	-2.62465e-17
0 	0.000766848 	0.00766848 	36.4694 	1.65279e-18 	-3.65663e-17
0 	0.000768663 	0.00768663 	36.3813 	-1.21671e-17 	-4.20988e-17
0 	0.000769801 	0.00769801 	36.3236 	-1.86558e-17 	-4.56783e-17
0 	0.000771398 	0.00771398 	36.2379 	-2.16104e-17 	-4.12346e-17
0 	0.000773642 	0.00773642 	36.1171 	-1.53804e-17 	-2.27059e-17
0 	0.000775864 	0.00775864 	35.997 	6.98519e-19 	-3.43396e-18
0 	0.000778066 	0.00778066 	35.8774 	2.10216e-17 	5.84228e-18
0 	0.000780248 	0.00780248 	35.7585 	3.84104e-17 	1.80278e-17
0 	0.000782409 	0.00782409 	35.6401 	5.29679e-17 	3.80803e-17
0 	0.00078455 	0.0078455 	35.5223 	7.03137e-17 	5.35756e-17
0 	0.000786671 	0.00786671 	35.4052 	8.76321e-17 	5.00936e-17
0 	0.000788772 	0.00788772 	35.2886 	1.0018e-16 	2.64851e-17
0 	0.000790581 	0.00790581 	35.1879 	1.0477e-16 	3.01064e-18
0 	0.000791617 	0.00791617 	35.1286 	1.04841e-16 	-7.61151e-18
0 	0.000792916 	0.00792916 	35.0487 	1.05062e-16 	-1.09937e-17
0 	0.00079496 	0.0079496 	34.9226 	1.04629e-16 	-1.3666e-17
0 	0.000796984 	0.00796984 	34.7973 	1.00836e-16 	-2.82717e-17
0 	0.000798989 	0.00798989 	34.6727 	9.71369e-17 	-5.57051e-17
0 	0.000800976 	0.00800976 	34.5487 	9.85164e-17 	-7.91745e-17
0 	0.000802944 	0.00802944 	34.4254 	9.53271e-17 	-7.86802e-17
0 	0.000804894 	0.00804894 	34.3028 	8.17043e-17 	-5.99949e-17
0 	0.000806826 	0.00806826 	34.1808 	6.89873e-17 	-4.99027e-17
0 	0.00080874 	0.0080874 	34.0596 	6.60311e-17 	-6.07227e-17
0 	0.000810523 	0.00810523 	33.9461 	7.09548e-17 	-7.99008e-17
0 	0.000811467 	0.00811467 	33.8853 	7.51451e-17 	-8.97561e-17
0 	0.000812514 	0.00812514 	33.8117 	7.86805e-17 	-9.04741e-17
0 	0.000814375 	0.00814375 	33.6807 	8.20475e-17 	-8.46395e-17
0 	0.000816218 	0.00816218 	33.5505 	7.81635e-17 	-7.80676e-17
0 	0.000818045 	0.00818045 	33.421 	6.71163e-17 	-8.077e-17
0 	0.000819854 	0.00819854 	33.2923 	5.07812e-17 	-9.2329e-17
0 	0.000821647 	0.00821647 	33.1643 	2.6547e-17 	-1.04755e-16
0 	0.000823423 	0.00823423 	33.037 	-1.03585e-17 	-1.14483e-16
0 	0.000825182 	0.00825182 	32.9105 	-4.99328e-17 	-1.32695e-16
0 	0.000826925 	0.00826925 	32.7847 	-7.85974e-17 	-1.623e-16
0 	0.000828652 	0.00828652 	32.6597 	-9.47119e-17 	-1.89445e-16
0 	0.000829529 	0.00829529 	32.5961 	-1.00393e-16 	-2.00081e-16
0 	0.00083038 	0.0083038 	32.5281 	-1.05117e-16 	-2.05824e-16
0 	0.000832057 	0.00832057 	32.3937 	-1.1969e-16 	-2.23151e-16
0 	0.000833736 	0.00833736 	32.2587 	-1.37368e-16 	-2.53624e-16
0 	0.0008354 	0.008354 	32.1245 	-1.46427e-16 	-2.87771e-16
0 	0.000837048 	0.00837048 	31.9912 	-1.43417e-16 	-3.06402e-16
0 	0.00083868 	0.0083868 	31.8587 	-1.37439e-16 	-3.0167e-16
0 	0.000840298 	0.00840298 	31.7269 	-1.37207e-16 	-2.84454e-16
0 	0.0008419 	0.008419 	31.596 	-1.46115e-16 	-2.77815e-16
0 	0.000843488 	0.00843488 	31.4659 	-1.60995e-16 	-2.89608e-16
0 	0.00084506 	0.0084506 	31.3366 	-1.7391e-16 	-3.05301e-16
0 	0.000845964 	0.00845964 	31.2621 	-1.78999e-16 	-3.1114e-16
0 	0.000846739 	0.00846739 	31.1926 	-1.79926e-16 	-3.10589e-16
0 	0.000848162 	0.00848162 	31.063 	-1.78783e-16 	-3.08506e-16
0 	0.000849691 	0.00849691 	30.9232 	-1.72813e-16 	-3.08444e-16
0 	0.000851206 	0.00851206 	30.7845 	-1.65481e-16 	-3.13078e-16
0 	0.000852707 	0.00852707 	30.6466 	-1.62869e-16 	-3.16965e-16
0 	0.000854194 	0.00854194 	30.5096 	-1.67342e-16 	-3.14962e-16
0 	0.000855667 	0.00855667 	30.3734 	-1.77487e-16 	-3.09176e-16
0 	0.000857126 	0.00857126 	30.2381 	-1.88024e-16 	-3.06476e-16
0 	0.000858572 	0.00858572 	30.1037 	-1.97657e-16 	-3.14731e-16
0 	0.000860004 	0.00860004 	29.9701 	-2.0747e-16 	-3.32156e-16
0 	0.000860919 	0.00860919 	29.8847 	-2.13138e-16 	-3.41707e-16
0 	0.000861625 	0.00861625 	29.8137 	-2.15123e-16 	-3.40749e-16
0 	0.000862829 	0.00862829 	29.6891 	-2.19716e-16 	-3.3467e-16
0 	0.000864222 	0.00864222 	29.5447 	-2.30464e-16 	-3.31838e-16
0 	0.000865602 	0.00865602 	29.4012 	-2.44925e-16 	-3.41476e-16
0 	0.000866969 	0.00866969 	29.2587 	-2.56385e-16 	-3.54935e-16
0 	0.000868323 	0.00868323 	29.1171 	-2.63051e-16 	-3.65674e-16
0 	0.000869664 	0.00869664 	28.9765 	-2.6884e-16 	-3.69546e-16
0 	0.000870994 	0.00870994 	28.8368 	-2.73968e-16 	-3.66623e-16
0 	0.00087231 	0.0087231 	28.698 	-2.79129e-16 	-3.5981e-16
0 	0.000873615 	0.00873615 	28.5601 	-2.86739e-16 	-3.54264e-16
0 	0.000874526 	0.00874526 	28.4636 	-2.92261e-16 	-3.55106e-16
0 	0.000875169 	0.00875169 	28.391 	-2.94699e-16 	-3.60994e-16
0 	0.000876187 	0.00876187 	28.2715 	-2.94724e-16 	-3.7979e-16
0 	0.000877456 	0.00877456 	28.1222 	-2.8546e-16 	-4.06886e-16
0 	0.000878713 	0.00878713 	27.974 	-2.68694e-16 	-4.2025e-16
0 	0.000879957 	0.00879957 	27.8268 	-2.52759e-16 	-4.20811e-16
0 	0.000881191 	0.00881191 	27.6806 	-2.40469e-16 	-4.20869e-16
0 	0.000882413 	0.00882413 	27.5353 	-2.29594e-16 	-4.22703e-16
0 	0.000883623 	0.00883623 	27.391 	-2.16946e-16 	-4.23398e-16
0 	0.000884822 	0.00884822 	27.2477 	-2.03126e-16 	-4.21208e-16
0 	0.000886011 	0.00886011 	27.1053 	-1.9228e-16 	-4.16034e-16
0 	0.000886908 	0.00886908 	26.9976 	-1.868e-16 	-4.12887e-16
0 	0.000887493 	0.00887493 	26.9236 	-1.84395e-16 	-4.12657e-16
0 	0.000888354 	0.00888354 	26.809 	-1.79131e-16 	-4.1648e-16
0 	0.000889509 	0.00889509 	26.6547 	-1.69934e-16 	-4.25244e-16
0 	0.000890653 	0.00890653 	26.5016 	-1.61872e-16 	-4.31812e-16
0 	0.000891787 	0.00891787 	26.3495 	-1.55038e-16 	-4.34324e-16
0 	0.00089291 	0.0089291 	26.1985 	-1.4461e-16 	-4.36672e-16
0 	0.000894023 	0.00894023 	26.0484 	-1.30913e-16 	-4.39032e-16
0 	0.000895126 	0.00895126 	25.8994 	-1.1885e-16 	-4.39212e-16
0 	0.000896218 	0.00896218 	25.7515 	-1.1106e-16 	-4.37537e-16
0 	0.0008973 	0.008973 	25.6045 	-1.06188e-16 	-4.33251e-16
0 	0.000898174 	0.00898174 	25.4856 	-1.04061e-16 	-4.27488e-16
0 	0.000898707 	0.00898707 	25.41 	-1.0398e-16 	-4.23388e-16
0 	0.000899434 	0.00899434 	25.3001 	-1.08398e-16 	-4.21255e-16
0 	0.000900486 	0.00900486 	25.1408 	-1.18187e-16 	-4.18677e-16
0 	0.000901528 	0.00901528 	24.9827 	-1.26498e-16 	-4.11005e-16
0 	0.000902561 	0.00902561 	24.8256 	-1.30688e-16 	-4.03814e-16
0 	0.000903584 	0.00903584 	24.6697 	-1.32892e-16 	-4.02305e-16
0 	0.000904598 	0.00904598 	24.5148 	-1.3456e-16 	-3.98519e-16
0 	0.000905602 	0.00905602 	24.3609 	-1.36154e-16 	-3.88333e-16
0 	0.000906596 	0.00906596 	24.2082 	-1.35447e-16 	-3.76674e-16
0 	0.000907582 	0.00907582 	24.0566 	-1.33089e-16 	-3.69863e-16
0 	0.000908425 	0.00908425 	23.9265 	-1.31279e-16 	-3.67748e-16
0 	0.000908911 	0.00908911 	23.8493 	-1.3067e-16 	-3.67275e-16
0 	0.000909525 	0.00909525 	23.7441 	-1.30859e-16 	-3.65046e-16
0 	0.000910484 	0.00910484 	23.5798 	-1.31336e-16 	-3.58101e-16
0 	0.000911433 	0.00911433 	23.4167 	-1.30515e-16 	-3.47259e-16
0 	0.000912374 	0.00912374 	23.2548 	-1.27486e-16 	-3.37626e-16
0 	0.000913305 	0.00913305 	23.094 	-1.24257e-16 	-3.31771e-16
0 	0.000914228 	0.00914228 	22.9343 	-1.23253e-16 	-3.25533e-16
0 	0.000915143 	0.00915143 	22.7758 	-1.24071e-16 	-3.16177e-16
0 	0.000916049 	0.00916049 	22.6184 	-1.26967e-16 	-3.05728e-16
0 	0.000916946 	0.00916946 	22.4622 	-1.29096e-16 	-2.96853e-16
0 	0.000917753 	0.00917753 	22.3214 	-1.27092e-16 	-2.89439e-16
0 	0.000918196 	0.00918196 	22.2426 	-1.24353e-16 	-2.85038e-16
0 	0.000918716 	0.00918716 	22.1419 	-1.2057e-16 	-2.78617e-16
0 	0.000919589 	0.00919589 	21.9729 	-1.15431e-16 	-2.67677e-16
0 	0.000920454 	0.00920454 	21.8051 	-1.1329e-16 	-2.58511e-16
0 	0.00092131 	0.0092131 	21.6386 	-1.13537e-16 	-2.52425e-16
0 	0.000922159 	0.00922159 	21.4734 	-1.16051e-16 	-2.49807e-16
0 	0.000923 	0.00923 	21.3092 	-1.20517e-16 	-2.51048e-16
0 	0.000923832 	0.00923832 	21.1462 	-1.23358e-16 	-2.55206e-16
0 	0.000924657 	0.00924657 	20.9844 	-1.23306e-16 	-2.55229e-16
0 	0.000925475 	0.00925475 	20.8238 	-1.23474e-16 	-2.48444e-16
0 	0.000926241 	0.00926241 	20.673 	-1.25596e-16 	-2.44131e-16
0 	0.000926644 	0.00926644 	20.5927 	-1.27425e-16 	-2.44471e-16
0 	0.000927087 	0.00927087 	20.4963 	-1.28463e-16 	-2.49343e-16
0 	0.000927882 	0.00927882 	20.3232 	-1.28315e-16 	-2.58127e-16
0 	0.000928669 	0.00928669 	20.1514 	-1.24681e-16 	-2.63952e-16
0 	0.000929449 	0.00929449 	19.9809 	-1.17783e-16 	-2.66314e-16
0 	0.000930222 	0.00930222 	19.8118 	-1.07355e-16 	-2.66031e-16
0 	0.000930988 	0.00930988 	19.6437 	-9.34598e-17 	-2.62757e-16
0 	0.000931746 	0.00931746 	19.4769 	-7.97871e-17 	-2.54904e-16
0 	0.000932498 	0.00932498 	19.3113 	-7.08283e-17 	-2.43276e-16
0 	0.000933242 	0.00933242 	19.147 	-6.68894e-17 	-2.3192e-16
0 	0.000933964 	0.00933964 	18.9874 	-6.59157e-17 	-2.23235e-16
0 	0.000934331 	0.00934331 	18.9059 	-6.58355e-17 	-2.19377e-16
0 	0.000934711 	0.00934711 	18.8135 	-6.66581e-17 	-2.16899e-16
0 	0.000935435 	0.00935435 	18.6371 	-6.71217e-17 	-2.14399e-16
0 	0.000936152 	0.00936152 	18.4622 	-6.42391e-17 	-2.1262e-16
0 	0.000936862 	0.00936862 	18.2886 	-5.84464e-17 	-2.08734e-16
0 	0.000937566 	0.00937566 	18.1164 	-5.27537e-17 	-2.0584e-16
0 	0.000938263 	0.00938263 	17.9453 	-4.88276e-17 	-2.05596e-16
0 	0.000938954 	0.00938954 	17.7756 	-4.68502e-17 	-2.05105e-16
0 	0.000939639 	0.00939639 	17.6071 	-4.45125e-17 	-2.01661e-16
0 	0.000940317 	0.00940317 	17.4399 	-4.10386e-17 	-1.95e-16
0 	0.000940988 	0.00940988 	17.2741 	-3.74078e-17 	-1.87354e-16
0 	0.000941326 	0.00941326 	17.1906 	-3.57058e-17 	-1.83575e-16
0 	0.000941657 	0.00941657 	17.1009 	-3.45557e-17 	-1.80017e-16
0 	0.000942313 	0.00942313 	16.9231 	-3.26003e-17 	-1.73195e-16
0 	0.000942966 	0.00942966 	16.7457 	-3.12651e-17 	-1.67069e-16
0 	0.000943613 	0.00943613 	16.5698 	-3.09309e-17 	-1.62581e-16
0 	0.000944254 	0.00944254 	16.3953 	-3.15715e-17 	-1.59948e-16
0 	0.00094489 	0.0094489 	16.2221 	-3.29354e-17 	-1.56677e-16
0 	0.000945519 	0.00945519 	16.0501 	-3.53497e-17 	-1.50964e-16
0 	0.000946142 	0.00946142 	15.8795 	-3.81959e-17 	-1.44953e-16
0 	0.00094676 	0.0094676 	15.7103 	-3.91608e-17 	-1.41212e-16
0 	0.000947371 	0.00947371 	15.5424 	-3.71395e-17 	-1.39208e-16
0 	0.000947691 	0.00947691 	15.4547 	-3.53753e-17 	-1.38313e-16
0 	0.000947992 	0.00947992 	15.3647 	-3.44601e-17 	-1.36607e-16
0 	0.000948578 	0.00948578 	15.1894 	-3.40824e-17 	-1.32886e-16
0 	0.000949173 	0.00949173 	15.0112 	-3.59522e-17 	-1.30409e-16
0 	0.000949762 	0.00949762 	14.8344 	-3.88068e-17 	-1.31e-16
0 	0.000950346 	0.00950346 	14.6591 	-4.11236e-17 	-1.32565e-16
0 	0.000950924 	0.00950924 	14.4851 	-4.22821e-17 	-1.34034e-16
0 	0.000951497 	0.00951497 	14.3125 	-4.32174e-17 	-1.34173e-16
0 	0.000952065 	0.00952065 	14.1412 	-4.46364e-17 	-1.31537e-16
0 	0.000952628 	0.00952628 	13.9714 	-4.58129e-17 	-1.27144e-16
0 	0.000953185 	0.00953185 	13.803 	-4.70004e-17 	-1.22646e-16
0 	0.000953482 	0.00953482 	13.713 	-4.78591e-17 	-1.20319e-16
0 	0.000953757 	0.00953757 	13.624 	-4.94866e-17 	-1.17716e-16
0 	0.000954284 	0.00954284 	13.4527 	-5.2896e-17 	-1.13442e-16
0 	0.000954825 	0.00954825 	13.2764 	-5.61218e-17 	-1.103e-16
0 	0.000955362 	0.00955362 	13.1016 	-5.82486e-17 	-1.07432e-16
0 	0.000955894 	0.00955894 	12.9284 	-5.95224e-17 	-1.04105e-16
0 	0.000956421 	0.00956421 	12.7565 	-6.03269e-17 	-1.01116e-16
0 	0.000956943 	0.00956943 	12.5859 	-6.10418e-17 	-9.84768e-17
0 	0.00095746 	0.0095746 	12.4169 	-6.15173e-17 	-9.58651e-17
0 	0.000957972 	0.00957972 	12.2494 	-6.0719e-17 	-9.36782e-17
0 	0.000958479 	0.00958479 	12.0833 	-5.83575e-17 	-9.15241e-17
0 	0.000958752 	0.00958752 	11.9941 	-5.67862e-17 	-9.01295e-17
0 	0.000959002 	0.00959002 	11.9079 	-5.5401e-17 	-8.81429e-17
0 	0.00095948 	0.0095948 	11.7426 	-5.32604e-17 	-8.46815e-17
0 	0.000959973 	0.00959973 	11.5721 	-5.19812e-17 	-8.19013e-17
0 	0.000960462 	0.00960462 	11.4032 	-5.11371e-17 	-7.90084e-17
0 	0.000960947 	0.00960947 	11.2359 	-4.9907e-17 	-7.47231e-17
0 	0.000961426 	0.00961426 	11.0701 	-4.79786e-17 	-6.90711e-17
0 	0.000961902 	0.00961902 	10.9056 	-4.55528e-17 	-6.28452e-17
0 	0.000962373 	0.00962373 	10.7427 	-4.34375e-17 	-5.72452e-17
0 	0.000962839 	0.00962839 	10.5813 	-4.18456e-17 	-5.23226e-17
0 	0.000963301 	0.00963301 	10.4216 	-4.02851e-17 	-4.72791e-17
0 	0.000963547 	0.00963547 	10.3367 	-3.93806e-17 	-4.45082e-17
0 	0.000963775 	0.00963775 	10.2551 	-3.84061e-17 	-4.24587e-17
0 	0.000964213 	0.00964213 	10.0981 	-3.63029e-17 	-3.91676e-17
0 	0.000964662 	0.00964662 	9.93714 	-3.36524e-17 	-3.57283e-17
0 	0.000965107 	0.00965107 	9.77787 	-3.07832e-17 	-3.06544e-17
0 	0.000965548 	0.00965548 	9.62025 	-2.81354e-17 	-2.51275e-17
0 	0.000965985 	0.00965985 	9.46399 	-2.58453e-17 	-2.09295e-17
0 	0.000966418 	0.00966418 	9.30912 	-2.38763e-17 	-1.78695e-17
0 	0.000966847 	0.00966847 	9.15587 	-2.19445e-17 	-1.48276e-17
0 	0.000967272 	0.00967272 	9.0042 	-2.01626e-17 	-1.10051e-17
0 	0.000967693 	0.00967693 	8.85411 	-1.86576e-17 	-6.55848e-18
0 	0.00096791 	0.0096791 	8.77684 	-1.79532e-17 	-4.18228e-18
0 	0.000968118 	0.00968118 	8.70124 	-1.72699e-17 	-2.0298e-18
0 	0.000968523 	0.00968523 	8.55378 	-1.60379e-17 	1.88923e-18
0 	0.000968932 	0.00968932 	8.40521 	-1.51121e-17 	5.27415e-18
0 	0.000969338 	0.00969338 	8.25828 	-1.48413e-17 	7.97836e-18
0 	0.00096974 	0.0096974 	8.11299 	-1.49777e-17 	1.01162e-17
0 	0.000970138 	0.00970138 	7.96902 	-1.51419e-17 	1.19114e-17
0 	0.000970532 	0.00970532 	7.82645 	-1.52548e-17 	1.36153e-17
0 	0.000970922 	0.00970922 	7.68549 	-1.53118e-17 	1.55938e-17
0 	0.000971309 	0.00971309 	7.54611 	-1.5667e-17 	1.79507e-17
0 	0.000971689 	0.00971689 	7.40951 	-1.65171e-17 	1.9814e-17
0 	0.00097188 	0.0097188 	7.34112 	-1.70945e-17 	2.04474e-17
0 	0.000972072 	0.00972072 	7.27127 	-1.75518e-17 	2.04638e-17
0 	0.000972449 	0.00972449 	7.13508 	-1.81426e-17 	2.04012e-17
0 	0.000972821 	0.00972821 	7.00051 	-1.83258e-17 	2.00206e-17
0 	0.000973191 	0.00973191 	6.86756 	-1.83996e-17 	1.92984e-17
0 	0.000973557 	0.00973557 	6.73622 	-1.84497e-17 	1.85829e-17
0 	0.000973919 	0.00973919 	6.6061 	-1.85827e-17 	1.82937e-17
0 	0.000974278 	0.00974278 	6.47739 	-1.88493e-17 	1.85358e-17
0 	0.000974634 	0.00974634 	6.35025 	-1.91871e-17 	1.89381e-17
0 	0.000974986 	0.00974986 	6.22468 	-1.96052e-17 	1.87471e-17
0 	0.000975319 	0.00975319 	6.10653 	-2.00622e-17 	1.79337e-17
0 	0.000975493 	0.00975493 	6.04498 	-2.02893e-17 	1.74214e-17
0 	0.000975681 	0.00975681 	5.97782 	-2.04907e-17 	1.71605e-17
0 	0.000976024 	0.00976024 	5.85632 	-2.08844e-17 	1.69903e-17
0 	0.000976364 	0.00976364 	5.73638 	-2.12821e-17 	1.6984e-17
0 	0.0009767 	0.009767 	5.61799 	-2.12892e-17 	1.65525e-17
0 	0.000977033 	0.00977033 	5.50116 	-2.07757e-17 	1.58174e-17
0 	0.000977363 	0.00977363 	5.38544 	-2.02869e-17 	1.54772e-17
0 	0.00097769 	0.0097769 	5.27111 	-1.99573e-17 	1.55147e-17
0 	0.000978014 	0.00978014 	5.15829 	-1.93893e-17 	1.5359e-17
0 	0.000978335 	0.00978335 	5.04698 	-1.85838e-17 	1.46687e-17
0 	0.000978621 	0.00978621 	4.94805 	-1.76876e-17 	1.37193e-17
0 	0.00097878 	0.0097878 	4.89358 	-1.71081e-17 	1.31572e-17
0 	0.000978968 	0.00978968 	4.82874 	-1.64132e-17 	1.27488e-17
0 	0.00097928 	0.0097928 	4.7218 	-1.54222e-17 	1.24625e-17
0 	0.000979589 	0.00979589 	4.61633 	-1.47588e-17 	1.25757e-17
0 	0.000979896 	0.00979896 	4.51235 	-1.43626e-17 	1.26303e-17
0 	0.000980199 	0.00980199 	4.40982 	-1.41721e-17 	1.2589e-17
0 	0.0009805 	0.009805 	4.30828 	-1.41676e-17 	1.26863e-17
0 	0.000980798 	0.00980798 	4.20811 	-1.40697e-17 	1.28865e-17
0 	0.000981093 	0.00981093 	4.10938 	-1.37092e-17 	1.31641e-17
0 	0.000981385 	0.00981385 	4.01207 	-1.31844e-17 	1.36557e-17
0 	0.000981627 	0.00981627 	3.93205 	-1.2738e-17 	1.43512e-17
0 	0.000981771 	0.00981771 	3.88452 	-1.24938e-17 	1.48969e-17
0 	0.000981962 	0.00981962 	3.82179 	-1.2181e-17 	1.5692e-17
0 	0.000982246 	0.00982246 	3.72885 	-1.17102e-17 	1.67958e-17
0 	0.000982528 	0.00982528 	3.6373 	-1.12224e-17 	1.76141e-17
0 	0.000982806 	0.00982806 	3.54715 	-1.06851e-17 	1.81976e-17
0 	0.000983083 	0.00983083 	3.45837 	-1.01312e-17 	1.85495e-17
0 	0.000983357 	0.00983357 	3.37044 	-9.64126e-18 	1.85634e-17
0 	0.000983628 	0.00983628 	3.28387 	-9.24278e-18 	1.82843e-17
0 	0.000983897 	0.00983897 	3.19866 	-8.82774e-18 	1.79832e-17
0 	0.000984163 	0.00984163 	3.11481 	-8.3232e-18 	1.77807e-17
0 	0.000984361 	0.00984361 	3.05274 	-7.93806e-18 	1.76495e-17
0 	0.000984492 	0.00984492 	3.01187 	-7.70913e-18 	1.75477e-17
0 	0.000984688 	0.00984688 	2.95133 	-7.42335e-18 	1.74059e-17
0 	0.000984947 	0.00984947 	2.87172 	-7.1142e-18 	1.71973e-17
0 	0.000985203 	0.00985203 	2.79342 	-6.81363e-18 	1.68843e-17
0 	0.000985457 	0.00985457 	2.71644 	-6.45258e-18 	1.65479e-17
0 	0.000985709 	0.00985709 	2.64066 	-6.16162e-18 	1.63824e-17
0 	0.000985959 	0.00985959 	2.56578 	-5.99724e-18 	1.63259e-17
0 	0.000986206 	0.00986206 	2.49218 	-5.88773e-18 	1.61982e-17
0 	0.00098645 	0.0098645 	2.41987 	-5.80887e-18 	1.59944e-17
0 	0.000986693 	0.00986693 	2.34884 	-5.7326e-18 	1.58599e-17
0 	0.000986849 	0.00986849 	2.30333 	-5.68836e-18 	1.58615e-17
0 	0.000986969 	0.00986969 	2.26881 	-5.67824e-18 	1.59403e-17
0 	0.000987171 	0.00987171 	2.21092 	-5.68857e-18 	1.60915e-17
0 	0.000987407 	0.00987407 	2.14397 	-5.73374e-18 	1.62154e-17
0 	0.00098764 	0.0098764 	2.07827 	-5.74884e-18 	1.61795e-17
0 	0.000987872 	0.00987872 	2.01382 	-5.67495e-18 	1.60815e-17
0 	0.000988101 	0.00988101 	1.95039 	-5.58684e-18 	1.61153e-17
0 	0.000988328 	0.00988328 	1.88791 	-5.60453e-18 	1.62444e-17
0 	0.000988553 	0.00988553 	1.82666 	-5.70608e-18 	1.62656e-17
0 	0.000988776 	0.00988776 	1.76662 	-5.81279e-18 	1.61541e-17
0 	0.000988997 	0.00988997 	1.7078 	-5.8711e-18 	1.59735e-17
0 	0.000989113 	0.00989113 	1.67707 	-5.89023e-18 	1.58621e-17
0 	0.000989222 	0.00989222 	1.64859 	-5.90034e-18 	1.57114e-17
0 	0.000989432 	0.00989432 	1.59418 	-5.92445e-18 	1.5442e-17
0 	0.000989647 	0.00989647 	1.53924 	-5.9856e-18 	1.52001e-17
0 	0.00098986 	0.0098986 	1.48549 	-6.04819e-18 	1.49627e-17
0 	0.000990071 	0.00990071 	1.43291 	-6.04907e-18 	1.47587e-17
0 	0.000990279 	0.00990279 	1.38118 	-6.0377e-18 	1.46463e-17
0 	0.000990486 	0.00990486 	1.33045 	-6.01641e-18 	1.45391e-17
0 	0.000990691 	0.00990691 	1.28088 	-5.92548e-18 	1.43498e-17
0 	0.000990894 	0.00990894 	1.23245 	-5.76351e-18 	1.40977e-17
0 	0.000991073 	0.00991073 	1.19027 	-5.591e-18 	1.38641e-17
0 	0.000991174 	0.00991174 	1.167 	-5.49419e-18 	1.37346e-17
0 	0.000991295 	0.00991295 	1.1392 	-5.39129e-18 	1.35886e-17
0 	0.000991492 	0.00991492 	1.09445 	-5.2175e-18 	1.33667e-17
0 	0.000991688 	0.00991688 	1.0508 	-5.01625e-18 	1.31106e-17
0 	0.000991881 	0.00991881 	1.00825 	-4.77501e-18 	1.27992e-17
0 	0.000992073 	0.00992073 	0.966784 	-4.5246e-18 	1.25321e-17
0 	0.000992263 	0.00992263 	0.925963 	-4.31315e-18 	1.2345e-17
0 	0.000992452 	0.00992452 	0.886206 	-4.14512e-18 	1.21748e-17
0 	0.000992638 	0.00992638 	0.84751 	-3.98308e-18 	1.19791e-17
0 	0.000992823 	0.00992823 	0.809863 	-3.79394e-18 	1.17626e-17
0 	0.000992957 	0.00992957 	0.783077 	-3.63439e-18 	1.16155e-17
0 	0.000993048 	0.00993048 	0.765098 	-3.51625e-18 	1.15273e-17
0 	0.000993188 	0.00993188 	0.737965 	-3.34485e-18 	1.13971e-17
0 	0.000993368 	0.00993368 	0.703677 	-3.13108e-18 	1.12372e-17
0 	0.000993546 	0.00993546 	0.670389 	-2.92937e-18 	1.10713e-17
0 	0.000993722 	0.00993722 	0.63809 	-2.76704e-18 	1.08956e-17
0 	0.000993897 	0.00993897 	0.606633 	-2.64185e-18 	1.07095e-17
0 	0.00099407 	0.0099407 	0.575879 	-2.52376e-18 	1.05163e-17
0 	0.000994242 	0.00994242 	0.546081 	-2.40642e-18 	1.03296e-17
0 	0.000994412 	0.00994412 	0.517229 	-2.29263e-18 	1.0148e-17
0 	0.00099458 	0.0099458 	0.489308 	-2.18463e-18 	9.96362e-18
0 	0.000994671 	0.00994671 	0.47458 	-2.1282e-18 	9.86261e-18
0 	0.000994754 	0.00994754 	0.461349 	-2.07525e-18 	9.74933e-18