0 	4.71048e-06 	4.71048e-05 	3.55462e-14 	6.30906 	20221.7
0 	1.40876e-05 	0.000140876 	2.43632e-14 	6.32558 	20294.6
0 	2.33775e-05 	0.000233775 	6.6592e-15 	6.34194 	20366.8
0 	3.2581e-05 	0.00032581 	-8.30809e-15 	6.35814 	20438.3
0 	4.16988e-05 	0.000416988 	-1.79486e-14 	6.3742 	20509.1
0 	5.07318e-05 	0.000507318 	-2.30269e-14 	6.3901 	20579.4
0 	5.96807e-05 	0.000596807 	-2.43217e-14 	6.40585 	20648.9
0 	6.85463e-05 	0.000685463 	-2.50286e-14 	6.42146 	20717.8
0 	7.73295e-05 	0.000773295 	-2.58112e-14 	6.43691 	20786
0 	8.6031e-05 	0.00086031 	-2.65702e-14 	6.45222 	20853.6
0 	9.11565e-05 	0.000911565 	-2.71516e-14 	6.46123 	20893.4
0 	9.54466e-05 	0.000954466 	-2.81436e-14 	6.48097 	20982.7
0 	0.000103192 	0.00103192 	-3.00489e-14 	6.52161 	21166.9
0 	0.000111653 	0.00111653 	-3.15267e-14 	6.56601 	21368.1
0 	0.000120035 	0.00120035 	-3.17995e-14 	6.60998 	21567.5
0 	0.000128339 	0.00128339 	-3.18292e-14 	6.65354 	21764.9
0 	0.000136566 	0.00136566 	-3.25325e-14 	6.69668 	21960.6
0 	0.000144716 	0.00144716 	-3.39774e-14 	6.73942 	22154.3
0 	0.00015279 	0.0015279 	-3.61797e-14 	6.78175 	22346.3
0 	0.00016079 	0.0016079 	-3.94254e-14 	6.82368 	22536.5
0 	0.000168715 	0.00168715 	-4.36651e-14 	6.86522 	22724.9
0 	0.000174101 	0.00174101 	-4.64553e-14 	6.89344 	22853
0 	0.000178008 	0.00178008 	-4.80565e-14 	6.9214 	22984.6
0 	0.000184344 	0.00184344 	-5.08261e-14 	6.97383 	23234.8
0 	0.000192049 	0.00192049 	-5.49104e-14 	7.03759 	23539.2
0 	0.000199684 	0.00199684 	-5.97894e-14 	7.10074 	23840.7
0 	0.000207247 	0.00207247 	-6.43172e-14 	7.1633 	24139.4
0 	0.000214739 	0.00214739 	-6.71867e-14 	7.22527 	24435.3
0 	0.000222162 	0.00222162 	-6.89876e-14 	7.28665 	24728.4
0 	0.000229516 	0.00229516 	-7.15147e-14 	7.34744 	25018.7
0 	0.000236801 	0.00236801 	-7.57034e-14 	7.40765 	25306.4
0 	0.000244019 	0.00244019 	-7.99729e-14 	7.4673 	25591.4
0 	0.000249574 	0.00249574 	-8.29462e-14 	7.51319 	25810.7
0 	0.000253133 	0.00253133 	-8.47777e-14 	7.54667 	25976.9
0 	0.000258253 	0.00258253 	-8.77103e-14 	7.60207 	26261.5
0 	0.000265271 	0.00265271 	-9.25723e-14 	7.67798 	26651.5
0 	0.000272224 	0.00272224 	-9.66115e-14 	7.75317 	27037.8
0 	0.000279112 	0.00279112 	-9.95076e-14 	7.82763 	27420.6
0 	0.000285936 	0.00285936 	-1.03523e-13 	7.90139 	27799.7
0 	0.000292697 	0.00292697 	-1.07728e-13 	7.97444 	28175.3
0 	0.000299394 	0.00299394 	-1.11477e-13 	8.04678 	28547.4
0 	0.000306029 	0.00306029 	-1.15482e-13 	8.11843 	28916
0 	0.000312603 	0.00312603 	-1.19534e-13 	8.18939 	29281.1
0 	0.000318248 	0.00318248 	-1.2291e-13 	8.2503 	29594.6
0 	0.000321489 	0.00321489 	-1.24804e-13 	8.28708 	29789.5
0 	0.000325567 	0.00325567 	-1.26891e-13 	8.33958 	30086
0 	0.000331959 	0.00331959 	-1.30604e-13 	8.42184 	30550.8
0 	0.000338291 	0.00338291 	-1.35037e-13 	8.50331 	31011.1
0 	0.000344564 	0.00344564 	-1.40259e-13 	8.58398 	31467.2
0 	0.000350779 	0.00350779 	-1.46275e-13 	8.66387 	31918.9
0 	0.000356936 	0.00356936 	-1.51251e-13 	8.74298 	32366.4
0 	0.000363036 	0.00363036 	-1.55133e-13 	8.82131 	32809.6
0 	0.000369079 	0.00369079 	-1.58969e-13 	8.89887 	33248.6
0 	0.000375066 	0.00375066 	-1.62518e-13 	8.97566 	33683.5
0 	0.000380736 	0.00380736 	-1.66335e-13 	9.04835 	34095.4
0 	0.000383687 	0.00383687 	-1.68669e-13 	9.0866 	34314.8
0 	0.000386873 	0.00386873 	-1.71816e-13 	9.13266 	34606.9
0 	0.000392694 	0.00392694 	-1.76766e-13 	9.21678 	35140.7
0 	0.000398462 	0.00398462 	-1.80145e-13 	9.30007 	35669.5
0 	0.000404175 	0.00404175 	-1.8238e-13 	9.38252 	36193.3
0 	0.000409835 	0.00409835 	-1.84715e-13 	9.46415 	36712.1
0 	0.000415443 	0.00415443 	-1.88216e-13 	9.54495 	37225.9
0 	0.000420998 	0.00420998 	-1.92543e-13 	9.62494 	37734.9
0 	0.000426502 	0.00426502 	-1.97073e-13 	9.7041 	38239.1
0 	0.000431955 	0.00431955 	-2.01012e-13 	9.78245 	38738.4
0 	0.000437357 	0.00437357 	-2.03007e-13 	9.86 	39232.9
0 	0.000440283 	0.00440283 	-2.03438e-13 	9.90199 	39500.8
0 	0.000442946 	0.00442946 	-2.04889e-13 	9.94321 	39797.8
0 	0.00044801 	0.0044801 	-2.0811e-13 	10.0221 	40372.4
0 	0.000453262 	0.00453262 	-2.11547e-13 	10.1038 	40968.2
0 	0.000458466 	0.00458466 	-2.14971e-13 	10.1847 	41558.4
0 	0.000463621 	0.00463621 	-2.19103e-13 	10.2647 	42142.9
0 	0.000468728 	0.00468728 	-2.23522e-13 	10.3439 	42721.7
0 	0.000473788 	0.00473788 	-2.28872e-13 	10.4222 	43295.1
0 	0.0004788 	0.004788 	-2.33664e-13 	10.4997 	43862.8
0 	0.000483766 	0.00483766 	-2.36515e-13 	10.5764 	44425.1
0 	0.000488686 	0.00488686 	-2.39325e-13 	10.6522 	44982
0 	0.00049178 	0.0049178 	-2.41878e-13 	10.6998 	45332.1
0 	0.000494205 	0.00494205 	-2.44384e-13 	10.7388 	45652.8
0 	0.000498389 	0.00498389 	-2.48036e-13 	10.8068 	46234.7
0 	0.000503172 	0.00503172 	-2.51852e-13 	10.8845 	46899.9
0 	0.000507911 	0.00507911 	-2.55601e-13 	10.9613 	47558.6
0 	0.000512607 	0.00512607 	-2.59246e-13 	11.0373 	48210.9
0 	0.000517258 	0.00517258 	-2.62602e-13 	11.1123 	48856.9
0 	0.000521866 	0.00521866 	-2.6569e-13 	11.1866 	49496.6
0 	0.000526431 	0.00526431 	-2.68559e-13 	11.26 	50130.1
0 	0.000530954 	0.00530954 	-2.71232e-13 	11.3325 	50757.3
0 	0.000535435 	0.00535435 	-2.73626e-13 	11.4042 	51378.3
0 	0.000538638 	0.00538638 	-2.75037e-13 	11.4553 	51822.1
0 	0.000540847 	0.00540847 	-2.75745e-13 	11.4913 	52167.2
0 	0.000544271 	0.00544271 	-2.77036e-13 	11.5478 	52749.8
0 	0.000548628 	0.00548628 	-2.79312e-13 	11.6196 	53490.7
0 	0.000552944 	0.00552944 	-2.81751e-13 	11.6905 	54224.3
0 	0.00055722 	0.0055722 	-2.83924e-13 	11.7605 	54950.6
0 	0.000561457 	0.00561457 	-2.8661e-13 	11.8297 	55669.7
0 	0.000565654 	0.00565654 	-2.89897e-13 	11.898 	56381.7
0 	0.000569811 	0.00569811 	-2.93402e-13 	11.9655 	57086.6
0 	0.00057393 	0.0057393 	-2.96243e-13 	12.0321 	57784.5
0 	0.000578011 	0.00578011 	-2.98133e-13 	12.0978 	58475.3
0 	0.000581275 	0.00581275 	-2.99614e-13 	12.1502 	59027.4
0 	0.000583287 	0.00583287 	-3.00808e-13 	12.1827 	59398.4
0 	0.000586059 	0.00586059 	-3.03515e-13 	12.2279 	59976.4
0 	0.000590027 	0.00590027 	-3.07692e-13 	12.2924 	60803.2
0 	0.000593958 	0.00593958 	-3.11217e-13 	12.3561 	61621.6
0 	0.000597853 	0.00597853 	-3.14549e-13 	12.4189 	62431.8
0 	0.000601711 	0.00601711 	-3.18173e-13 	12.4808 	63233.7
0 	0.000605533 	0.00605533 	-3.21477e-13 	12.5418 	64027.6
0 	0.00060932 	0.0060932 	-3.24547e-13 	12.6019 	64813.4
0 	0.000613071 	0.00613071 	-3.27598e-13 	12.6612 	65591.2
0 	0.000616788 	0.00616788 	-3.3017e-13 	12.7197 	66360.9
0 	0.000620071 	0.00620071 	-3.32084e-13 	12.771 	67040.1
0 	0.000621903 	0.00621903 	-3.33233e-13 	12.7996 	67438.5
0 	0.000624118 	0.00624118 	-3.34556e-13 	12.834 	68004.7
0 	0.000627732 	0.00627732 	-3.35738e-13 	12.8901 	68927.8
0 	0.000631312 	0.00631312 	-3.35802e-13 	12.9452 	69841.5
0 	0.000634859 	0.00634859 	-3.35521e-13 	12.9995 	70745.6
0 	0.000638373 	0.00638373 	-3.35313e-13 	13.0529 	71640.4
0 	0.000641854 	0.00641854 	-3.34756e-13 	13.1054 	72526
0 	0.000645303 	0.00645303 	-3.33644e-13 	13.1571 	73402.3
0 	0.000648719 	0.00648719 	-3.32324e-13 	13.2079 	74269.5
0 	0.000652104 	0.00652104 	-3.30945e-13 	13.2579 	75127.4
0 	0.000655372 	0.00655372 	-3.29338e-13 	13.3057 	75954.6
0 	0.000657041 	0.00657041 	-3.28422e-13 	13.3299 	76381.9
0 	0.00065878 	0.0065878 	-3.27492e-13 	13.3545 	76925.5
0 	0.000662071 	0.00662071 	-3.25829e-13 	13.4007 	77953.4
0 	0.000665332 	0.00665332 	-3.24296e-13 	13.446 	78970.5
0 	0.000668562 	0.00668562 	-3.22748e-13 	13.4905 	79976.9
0 	0.000671763 	0.00671763 	-3.21132e-13 	13.5341 	80972.6
0 	0.000674933 	0.00674933 	-3.19579e-13 	13.5769 	81957.8
0 	0.000678074 	0.00678074 	-3.17638e-13 	13.6188 	82932.5
0 	0.000681186 	0.00681186 	-3.15711e-13 	13.6599 	83896.7
0 	0.000684269 	0.00684269 	-3.1447e-13 	13.7002 	84850.6
0 	0.000687323 	0.00687323 	-3.14108e-13 	13.7395 	85794.1
0 	0.000689013 	0.00689013 	-3.14123e-13 	13.7611 	86315.7
0 	0.000690519 	0.00690519 	-3.14171e-13 	13.7791 	86877.7
0 	0.000693346 	0.00693346 	-3.14119e-13 	13.8124 	87955.5
0 	0.000696316 	0.00696316 	-3.14021e-13 	13.8469 	89086.1
0 	0.000699258 	0.00699258 	-3.14123e-13 	13.8805 	90204.5
0 	0.000702173 	0.00702173 	-3.14145e-13 	13.9134 	91310.8
0 	0.00070506 	0.0070506 	-3.13653e-13 	13.9454 	92405.3
0 	0.000707921 	0.00707921 	-3.12863e-13 	13.9767 	93487.8
0 	0.000710755 	0.00710755 	-3.12274e-13 	14.0071 	94558.6
0 	0.000713563 	0.00713563 	-3.11731e-13 	14.0367 	95617.7
0 	0.000716344 	0.00716344 	-3.11251e-13 	14.0656 	96665.1
0 	0.000718105 	0.00718105 	-3.11021e-13 	14.0836 	97327.3
0 	0.000719477 	0.00719477 	-3.10816e-13 	14.0962 	97933
0 	0.00072183 	0.0072183 	-3.10545e-13 	14.1167 	99030.3
0 	0.000724535 	0.00724535 	-3.10413e-13 	14.1398 	100290
0 	0.000727214 	0.00727214 	-3.10317e-13 	14.1621 	101535
0 	0.000729869 	0.00729869 	-3.09885e-13 	14.1837 	102768
0 	0.000732498 	0.00732498 	-3.0948e-13 	14.2045 	103986
0 	0.000735104 	0.00735104 	-3.09517e-13 	14.2247 	105192
0 	0.000737685 	0.00737685 	-3.09384e-13 	14.2441 	106384
0 	0.000740242 	0.00740242 	-3.09099e-13 	14.2628 	107563
0 	0.000742776 	0.00742776 	-3.09241e-13 	14.2807 	108728
0 	0.000744577 	0.00744577 	-3.09513e-13 	14.2932 	109556
0 	0.000745826 	0.00745826 	-3.09685e-13 	14.3004 	110210
0 	0.000747772 	0.00747772 	-3.09966e-13 	14.31 	111326
0 	0.000750235 	0.00750235 	-3.10373e-13 	14.3216 	112736
0 	0.000752675 	0.00752675 	-3.10863e-13 	14.3325 	114130
0 	0.000755093 	0.00755093 	-3.11283e-13 	14.3428 	115509
0 	0.000757488 	0.00757488 	-3.11858e-13 	14.3525 	116873
0 	0.000759861 	0.00759861 	-3.12958e-13 	14.3615 	118222
0 	0.000762212 	0.00762212 	-3.13789e-13 	14.37 	119556
0 	0.000764541 	0.00764541 	-3.14132e-13 	14.3777 	120875
0 	0.000766848 	0.00766848 	-3.14559e-13 	14.3849 	122179
0 	0.000768663 	0.00768663 	-3.14986e-13 	14.3901 	123204
0 	0.000769801 	0.00769801 	-3.15206e-13 	14.3921 	123913
0 	0.000771398 	0.00771398 	-3.15334e-13 	14.3927 	125045
0 	0.000773642 	0.00773642 	-3.15797e-13 	14.3929 	126632
0 	0.000775864 	0.00775864 	-3.16957e-13 	14.3927 	128201
0 	0.000778066 	0.00778066 	-3.18067e-13 	14.3919 	129753
0 	0.000780248 	0.00780248 	-3.18463e-13 	14.3905 	131288
0 	0.000782409 	0.00782409 	-3.18678e-13 	14.3887 	132806
0 	0.00078455 	0.0078455 	-3.19104e-13 	14.3863 	134307
0 	0.000786671 	0.00786671 	-3.19774e-13 	14.3834 	135791
0 	0.000788772 	0.00788772 	-3.20557e-13 	14.38 	137258
0 	0.000790581 	0.00790581 	-3.21208e-13 	14.3767 	138519
0 	0.000791617 	0.00791617 	-3.21551e-13 	14.3738 	139291
0 	0.000792916 	0.00792916 	-3.22169e-13 	14.3672 	140435
0 	0.00079496 	0.0079496 	-3.23491e-13 	14.3564 	142232
0 	0.000796984 	0.00796984 	-3.25085e-13 	14.3453 	144009
0 	0.000798989 	0.00798989 	-3.26715e-13 	14.3337 	145766
0 	0.000800976 	0.00800976 	-3.28181e-13 	14.3218 	147503
0 	0.000802944 	0.00802944 	-3.29545e-13 	14.3094 	149222
0 	0.000804894 	0.00804894 	-3.31255e-13 	14.2967 	150921
0 	0.000806826 	0.00806826 	-3.33151e-13 	14.2836 	152600
0 	0.00080874 	0.0080874 	-3.35177e-13 	14.2701 	154262
0 	0.000810523 	0.00810523 	-3.36956e-13 	14.2571 	155807
0 	0.000811467 	0.00811467 	-3.37818e-13 	14.2497 	156650
0 	0.000812514 	0.00812514 	-3.38809e-13 	14.2378 	157802
0 	0.000814375 	0.00814375 	-3.40713e-13 	14.2163 	159846
0 	0.000816218 	0.00816218 	-3.42671e-13 	14.1946 	161868
0 	0.000818045 	0.00818045 	-3.44476e-13 	14.1726 	163867
0 	0.000819854 	0.00819854 	-3.46159e-13 	14.1504 	165844
0 	0.000821647 	0.00821647 	-3.47481e-13 	14.1279 	167799
0 	0.000823423 	0.00823423 	-3.48835e-13 	14.1051 	169732
0 	0.000825182 	0.00825182 	-3.50596e-13 	14.0821 	171643
0 	0.000826925 	0.00826925 	-3.52506e-13 	14.0588 	173533
0 	0.000828652 	0.00828652 	-3.54235e-13 	14.0353 	175401
0 	0.000829529 	0.00829529 	-3.55064e-13 	14.0233 	176348
0 	0.00083038 	0.0083038 	-3.56003e-13 	14.0074 	177518
0 	0.000832057 	0.00832057 	-3.57987e-13 	13.9756 	179829
0 	0.000833736 	0.00833736 	-3.59975e-13 	13.9434 	182139
0 	0.0008354 	0.008354 	-3.61613e-13 	13.9111 	184422
0 	0.000837048 	0.00837048 	-3.62982e-13 	13.8786 	186680
0 	0.00083868 	0.0083868 	-3.64346e-13 	13.8461 	188912
0 	0.000840298 	0.00840298 	-3.65947e-13 	13.8134 	191120
0 	0.0008419 	0.008419 	-3.67712e-13 	13.7806 	193302
0 	0.000843488 	0.00843488 	-3.69349e-13 	13.7476 	195459
0 	0.00084506 	0.0084506 	-3.70777e-13 	13.7146 	197591
0 	0.000845964 	0.00845964 	-3.71556e-13 	13.6955 	198814
0 	0.000846739 	0.00846739 	-3.72284e-13 	13.6749 	200113
0 	0.000848162 	0.00848162 	-3.73727e-13 	13.6355 	202579
0 	0.000849691 	0.00849691 	-3.75456e-13 	13.5927 	205224
0 	0.000851206 	0.00851206 	-3.773e-13 	13.55 	207838
0 	0.000852707 	0.00852707 	-3.79143e-13 	13.5073 	210423
0 	0.000854194 	0.00854194 	-3.80982e-13 	13.4646 	212979
0 	0.000855667 	0.00855667 	-3.82899e-13 	13.422 	215506
0 	0.000857126 	0.00857126 	-3.84936e-13 	13.3793 	218003
0 	0.000858572 	0.00858572 	-3.87042e-13 	13.3367 	220471
0 	0.000860004 	0.00860004 	-3.89006e-13 	13.2941 	222910
0 	0.000860919 	0.00860919 	-3.90156e-13 	13.2667 	224464
0 	0.000861625 	0.00861625 	-3.91053e-13 	13.2414 	225909
0 	0.000862829 	0.00862829 	-3.92826e-13 	13.1954 	228538
0 	0.000864222 	0.00864222 	-3.95151e-13 	13.1419 	231571
0 	0.000865602 	0.00865602 	-3.974e-13 	13.0886 	234569
0 	0.000866969 	0.00866969 	-3.99529e-13 	13.0354 	237532
0 	0.000868323 	0.00868323 	-4.01552e-13 	12.9823 	240461
0 	0.000869664 	0.00869664 	-4.03404e-13 	12.9294 	243356
0 	0.000870994 	0.00870994 	-4.05146e-13 	12.8766 	246218
0 	0.00087231 	0.0087231 	-4.0684e-13 	12.824 	249045
0 	0.000873615 	0.00873615 	-4.08519e-13 	12.7715 	251839
0 	0.000874526 	0.00874526 	-4.09699e-13 	12.7346 	253787
0 	0.000875169 	0.00875169 	-4.10572e-13 	12.7047 	255395
0 	0.000876187 	0.00876187 	-4.11885e-13 	12.653 	258194
0 	0.000877456 	0.00877456 	-4.13266e-13 	12.5883 	261673
0 	0.000878713 	0.00878713 	-4.14476e-13 	12.5239 	265112
0 	0.000879957 	0.00879957 	-4.15864e-13 	12.4597 	268510
0 	0.000881191 	0.00881191 	-4.1739e-13 	12.3959 	271867
0 	0.000882413 	0.00882413 	-4.18892e-13 	12.3323 	275186
0 	0.000883623 	0.00883623 	-4.20389e-13 	12.269 	278465
0 	0.000884822 	0.00884822 	-4.21881e-13 	12.206 	281705
0 	0.000886011 	0.00886011 	-4.23381e-13 	12.1432 	284905
0 	0.000886908 	0.00886908 	-4.24588e-13 	12.0956 	287315
0 	0.000887493 	0.00887493 	-4.2542e-13 	12.0609 	289106
0 	0.000888354 	0.00888354 	-4.2661e-13 	12.0042 	292083
0 	0.000889509 	0.00889509 	-4.28136e-13 	11.9278 	296071
0 	0.000890653 	0.00890653 	-4.29619e-13 	11.8519 	300012
0 	0.000891787 	0.00891787 	-4.31211e-13 	11.7764 	303906
0 	0.00089291 	0.0089291 	-4.32855e-13 	11.7013 	307752
0 	0.000894023 	0.00894023 	-4.34438e-13 	11.6266 	311553
0 	0.000895126 	0.00895126 	-4.35947e-13 	11.5523 	315308
0 	0.000896218 	0.00896218 	-4.37358e-13 	11.4783 	319017
0 	0.0008973 	0.008973 	-4.38631e-13 	11.4048 	322679
0 	0.000898174 	0.00898174 	-4.39614e-13 	11.3452 	325629
0 	0.000898707 	0.00898707 	-4.40234e-13 	11.3057 	327623
0 	0.000899434 	0.00899434 	-4.41077e-13 	11.2448 	330784
0 	0.000900486 	0.00900486 	-4.42192e-13 	11.1565 	335352
0 	0.000901528 	0.00901528 	-4.43233e-13 	11.0687 	339863
0 	0.000902561 	0.00902561 	-4.44328e-13 	10.9815 	344319
0 	0.000903584 	0.00903584 	-4.45358e-13 	10.8948 	348719
0 	0.000904598 	0.00904598 	-4.46247e-13 	10.8086 	353068
0 	0.000905602 	0.00905602 	-4.4703e-13 	10.723 	357363
0 	0.000906596 	0.00906596 	-4.47817e-13 	10.6379 	361604
0 	0.000907582 	0.00907582 	-4.48583e-13 	10.5533 	365791
0 	0.000908425 	0.00908425 	-4.49137e-13 	10.4807 	369363
0 	0.000908911 	0.00908911 	-4.49402e-13 	10.4364 	371583
0 	0.000909525 	0.00909525 	-4.49691e-13 	10.3722 	374940
0 	0.000910484 	0.00910484 	-4.50163e-13 	10.2718 	380166
0 	0.000911433 	0.00911433 	-4.50755e-13 	10.1722 	385326
0 	0.000912374 	0.00912374 	-4.51446e-13 	10.0732 	390421
0 	0.000913305 	0.00913305 	-4.52151e-13 	9.97497 	395453
0 	0.000914228 	0.00914228 	-4.52806e-13 	9.87734 	400423
0 	0.000915143 	0.00915143 	-4.53425e-13 	9.78039 	405331
0 	0.000916049 	0.00916049 	-4.53994e-13 	9.68412 	410176
0 	0.000916946 	0.00916946 	-4.54487e-13 	9.5885 	414959
0 	0.000917753 	0.00917753 	-4.5485e-13 	9.50233 	419245
0 	0.000918196 	0.00918196 	-4.55029e-13 	9.45332 	421720
0 	0.000918716 	0.00918716 	-4.55193e-13 	9.38682 	425298
0 	0.000919589 	0.00919589 	-4.55467e-13 	9.27525 	431284
0 	0.000920454 	0.00920454 	-4.55765e-13 	9.16457 	437195
0 	0.00092131 	0.0092131 	-4.56076e-13 	9.05478 	443030
0 	0.000922159 	0.00922159 	-4.5637e-13 	8.94586 	448791
0 	0.000923 	0.00923 	-4.56685e-13 	8.83775 	454482
0 	0.000923832 	0.00923832 	-4.57009e-13 	8.73047 	460100
0 	0.000924657 	0.00924657 	-4.57286e-13 	8.62404 	465645
0 	0.000925475 	0.00925475 	-4.5763e-13 	8.51844 	471118
0 	0.000926241 	0.00926241 	-4.58099e-13 	8.4193 	476229
0 	0.000926644 	0.00926644 	-4.5837e-13 	8.36616 	479001
0 	0.000927087 	0.00927087 	-4.58607e-13 	8.29892 	482852
0 	0.000927882 	0.00927882 	-4.59014e-13 	8.17826 	489748
0 	0.000928669 	0.00928669 	-4.59409e-13 	8.05867 	496556
0 	0.000929449 	0.00929449 	-4.59785e-13 	7.94015 	503278
0 	0.000930222 	0.00930222 	-4.60173e-13 	7.82267 	509914
0 	0.000930988 	0.00930988 	-4.60588e-13 	7.70615 	516467
0 	0.000931746 	0.00931746 	-4.60959e-13 	7.59061 	522937
0 	0.000932498 	0.00932498 	-4.61252e-13 	7.47608 	529323
0 	0.000933242 	0.00933242 	-4.61504e-13 	7.36255 	535626
0 	0.000933964 	0.00933964 	-4.61702e-13 	7.25239 	541714
0 	0.000934331 	0.00934331 	-4.61786e-13 	7.19604 	544845
0 	0.000934711 	0.00934711 	-4.61883e-13 	7.12969 	549070
0 	0.000935435 	0.00935435 	-4.62061e-13 	7.00315 	557118
0 	0.000936152 	0.00936152 	-4.62188e-13 	6.87785 	565066
0 	0.000936862 	0.00936862 	-4.62297e-13 	6.75377 	572914
0 	0.000937566 	0.00937566 	-4.62443e-13 	6.6309 	580662
0 	0.000938263 	0.00938263 	-4.62561e-13 	6.50911 	588315
0 	0.000938954 	0.00938954 	-4.62626e-13 	6.38844 	595873
0 	0.000939639 	0.00939639 	-4.62666e-13 	6.26894 	603334
0 	0.000940317 	0.00940317 	-4.62725e-13 	6.1506 	610699
0 	0.000940988 	0.00940988 	-4.6281e-13 	6.03341 	617968
0 	0.000941326 	0.00941326 	-4.62855e-13 	5.97453 	621615
0 	0.000941657 	0.00941657 	-4.62898e-13 	5.91015 	626434
0 	0.000942313 	0.00942313 	-4.62992e-13 	5.78275 	635985
0 	0.000942966 	0.00942966 	-4.63088e-13 	5.65608 	645470
0 	0.000943613 	0.00943613 	-4.6318e-13 	5.5308 	654840
0 	0.000944254 	0.00944254 	-4.63258e-13 	5.40689 	664094
0 	0.00094489 	0.0094489 	-4.63294e-13 	5.28418 	673239
0 	0.000945519 	0.00945519 	-4.63315e-13 	5.16272 	682272
0 	0.000946142 	0.00946142 	-4.63357e-13 	5.04259 	691194
0 	0.00094676 	0.0094676 	-4.63411e-13 	4.92377 	700005
0 	0.000947371 	0.00947371 	-4.63454e-13 	4.80625 	708706
0 	0.000947691 	0.00947691 	-4.63475e-13 	4.745 	713240
0 	0.000947992 	0.00947992 	-4.63491e-13 	4.68323 	719081
0 	0.000948578 	0.00948578 	-4.63545e-13 	4.56331 	730563
0 	0.000949173 	0.00949173 	-4.63639e-13 	4.44184 	742202
0 	0.000949762 	0.00949762 	-4.63732e-13 	4.32191 	753705
0 	0.000950346 	0.00950346 	-4.63819e-13 	4.2035 	765074
0 	0.000950924 	0.00950924 	-4.63914e-13 	4.0864 	776313
0 	0.000951497 	0.00951497 	-4.63992e-13 	3.97063 	787422
0 	0.000952065 	0.00952065 	-4.64063e-13 	3.85632 	798400
0 	0.000952628 	0.00952628 	-4.64163e-13 	3.74347 	809249
0 	0.000953185 	0.00953185 	-4.64267e-13 	3.63203 	819969
0 	0.000953482 	0.00953482 	-4.64314e-13 	3.57271 	825684
0 	0.000953757 	0.00953757 	-4.64347e-13 	3.51723 	833026
0 	0.000954284 	0.00954284 	-4.6441e-13 	3.41122 	847406
0 	0.000954825 	0.00954825 	-4.64464e-13 	3.3027 	862174
0 	0.000955362 	0.00955362 	-4.64509e-13 	3.19575 	876780
0 	0.000955894 	0.00955894 	-4.64568e-13 	3.09036 	891226
0 	0.000956421 	0.00956421 	-4.64641e-13 	2.98629 	905513
0 	0.000956943 	0.00956943 	-4.64711e-13 	2.88359 	919646
0 	0.00095746 	0.0095746 	-4.64784e-13 	2.78243 	933622
0 	0.000957972 	0.00957972 	-4.64874e-13 	2.68281 	947443
0 	0.000958479 	0.00958479 	-4.64955e-13 	2.58472 	961109
0 	0.000958752 	0.00958752 	-4.6499e-13 	2.53228 	968444
0 	0.000959002 	0.00959002 	-4.6502e-13 	2.48632 	978069
0 	0.00095948 	0.0095948 	-4.65083e-13 	2.39941 	996937
0 	0.000959973 	0.00959973 	-4.65149e-13 	2.31039 	1.0164e+06
0 	0.000960462 	0.00960462 	-4.65203e-13 	2.22292 	1.03567e+06
0 	0.000960947 	0.00960947 	-4.65261e-13 	2.13699 	1.05474e+06
0 	0.000961426 	0.00961426 	-4.65321e-13 	2.05233 	1.07361e+06
0 	0.000961902 	0.00961902 	-4.65382e-13 	1.96898 	1.09229e+06
0 	0.000962373 	0.00962373 	-4.65441e-13 	1.88712 	1.11078e+06
0 	0.000962839 	0.00962839 	-4.65486e-13 	1.80675 	1.12909e+06
0 	0.000963301 	0.00963301 	-4.65523e-13 	1.72785 	1.14721e+06
0 	0.000963547 	0.00963547 	-4.65543e-13 	1.68622 	1.15683e+06
0 	0.000963775 	0.00963775 	-4.6556e-13 	1.65142 	1.16999e+06
0 	0.000964213 	0.00964213 	-4.65587e-13 	1.58563 	1.19589e+06
0 	0.000964662 	0.00964662 	-4.65601e-13 	1.51882 	1.22246e+06
0 	0.000965107 	0.00965107 	-4.65615e-13 	1.45335 	1.24877e+06
0 	0.000965548 	0.00965548 	-4.6564e-13 	1.38921 	1.27484e+06
0 	0.000965985 	0.00965985 	-4.65657e-13 	1.32614 	1.30066e+06
0 	0.000966418 	0.00966418 	-4.65653e-13 	1.26419 	1.32623e+06
0 	0.000966847 	0.00966847 	-4.65628e-13 	1.20352 	1.35156e+06
0 	0.000967272 	0.00967272 	-4.6559e-13 	1.14414 	1.37665e+06
0 	0.000967693 	0.00967693 	-4.65542e-13 	1.08604 	1.4015e+06
0 	0.00096791 	0.0096791 	-4.65512e-13 	1.05637 	1.41432e+06
0 	0.000968118 	0.00968118 	-4.65482e-13 	1.03219 	1.43294e+06
0 	0.000968523 	0.00968523 	-4.65418e-13 	0.985748 	1.46979e+06
0 	0.000968932 	0.00968932 	-4.65343e-13 	0.939499 	1.507e+06
0 	0.000969338 	0.00969338 	-4.6526e-13 	0.894321 	1.54387e+06
0 	0.00096974 	0.0096974 	-4.6517e-13 	0.850201 	1.5804e+06
0 	0.000970138 	0.00970138 	-4.65073e-13 	0.806904 	1.6166e+06
0 	0.000970532 	0.00970532 	-4.64967e-13 	0.764501 	1.65246e+06
0 	0.000970922 	0.00970922 	-4.64848e-13 	0.723129 	1.688e+06
0 	0.000971309 	0.00971309 	-4.64724e-13 	0.682779 	1.72322e+06
0 	0.000971689 	0.00971689 	-4.64613e-13 	0.643778 	1.75782e+06
0 	0.00097188 	0.0097188 	-4.64561e-13 	0.62451 	1.77537e+06
0 	0.000972072 	0.00972072 	-4.64504e-13 	0.608687 	1.80269e+06
0 	0.000972449 	0.00972449 	-4.64393e-13 	0.578131 	1.85615e+06
0 	0.000972821 	0.00972821 	-4.64288e-13 	0.548368 	1.90914e+06
0 	0.000973191 	0.00973191 	-4.64186e-13 	0.519388 	1.96166e+06
0 	0.000973557 	0.00973557 	-4.64085e-13 	0.491186 	2.01371e+06
0 	0.000973919 	0.00973919 	-4.63985e-13 	0.463561 	2.06528e+06
0 	0.000974278 	0.00974278 	-4.63887e-13 	0.436605 	2.11639e+06
0 	0.000974634 	0.00974634 	-4.63793e-13 	0.410403 	2.16704e+06
0 	0.000974986 	0.00974986 	-4.63703e-13 	0.384947 	2.21725e+06
0 	0.000975319 	0.00975319 	-4.63612e-13 	0.361385 	2.26465e+06
0 	0.000975493 	0.00975493 	-4.63561e-13 	0.349502 	2.29079e+06
0 	0.000975681 	0.00975681 	-4.63498e-13 	0.339149 	2.3333e+06
0 	0.000976024 	0.00976024 	-4.63383e-13 	0.320638 	2.41051e+06
0 	0.000976364 	0.00976364 	-4.63277e-13 	0.302669 	2.48702e+06
0 	0.0009767 	0.009767 	-4.63185e-13 	0.285235 	2.56286e+06
0 	0.000977033 	0.00977033 	-4.6309e-13 	0.268328 	2.63801e+06
0 	0.000977363 	0.00977363 	-4.62986e-13 	0.251791 	2.71249e+06
0 	0.00097769 	0.0097769 	-4.62888e-13 	0.235723 	2.78629e+06
0 	0.000978014 	0.00978014 	-4.628e-13 	0.220164 	2.85943e+06
0 	0.000978335 	0.00978335 	-4.62721e-13 	0.205106 	2.93192e+06
0 	0.000978621 	0.00978621 	-4.62652e-13 	0.191969 	2.99661e+06
0 	0.00097878 	0.0097878 	-4.62613e-13 	0.185156 	3.03672e+06
0 	0.000978968 	0.00978968 	-4.62566e-13 	0.178642 	3.10514e+06
0 	0.00097928 	0.0097928 	-4.62491e-13 	0.168047 	3.21848e+06
0 	0.000979589 	0.00979589 	-4.62429e-13 	0.157798 	3.3308e+06
0 	0.000979896 	0.00979896 	-4.62376e-13 	0.147889 	3.44211e+06
0 	0.000980199 	0.00980199 	-4.62322e-13 	0.138316 	3.55241e+06
0 	0.0009805 	0.009805 	-4.62271e-13 	0.12896 	3.6617e+06
0 	0.000980798 	0.00980798 	-4.62225e-13 	0.119916 	3.77e+06
0 	0.000981093 	0.00981093 	-4.62177e-13 	0.111194 	3.87733e+06
0 	0.000981385 	0.00981385 	-4.62122e-13 	0.102789 	3.98368e+06
0 	0.000981627 	0.00981627 	-4.62072e-13 	0.0960177 	4.07156e+06
0 	0.000981771 	0.00981771 	-4.6204e-13 	0.0923707 	4.13533e+06
0 	0.000981962 	0.00981962 	-4.61997e-13 	0.0884315 	4.24967e+06
0 	0.000982246 	0.00982246 	-4.6193e-13 	0.0826924 	4.41994e+06
0 	0.000982528 	0.00982528 	-4.6186e-13 	0.0771632 	4.58864e+06
0 	0.000982806 	0.00982806 	-4.61786e-13 	0.0718405 	4.75582e+06
0 	0.000983083 	0.00983083 	-4.61711e-13 	0.0667183 	4.92146e+06
0 	0.000983357 	0.00983357 	-4.61633e-13 	0.0617189 	5.08558e+06
0 	0.000983628 	0.00983628 	-4.61551e-13 	0.056917 	5.2482e+06
0 	0.000983897 	0.00983897 	-4.61466e-13 	0.0523093 	5.40933e+06
0 	0.000984163 	0.00984163 	-4.61383e-13 	0.0478921 	5.569e+06
0 	0.000984361 	0.00984361 	-4.61322e-13 	0.044696 	5.68786e+06
0 	0.000984492 	0.00984492 	-4.61281e-13 	0.0428846 	5.79418e+06
0 	0.000984688 	0.00984688 	-4.6122e-13 	0.0406171 	5.99383e+06
0 	0.000984947 	0.00984947 	-4.6114e-13 	0.0376963 	6.25802e+06
0 	0.000985203 	0.00985203 	-4.6106e-13 	0.0348971 	6.51978e+06
0 	0.000985457 	0.00985457 	-4.60974e-13 	0.0322174 	6.77913e+06
0 	0.000985709 	0.00985709 	-4.60887e-13 	0.0296448 	7.0361e+06
0 	0.000985959 	0.00985959 	-4.60803e-13 	0.0271508 	7.29069e+06
0 	0.000986206 	0.00986206 	-4.60719e-13 	0.0247706 	7.54293e+06
0 	0.00098645 	0.0098645 	-4.60632e-13 	0.0225019 	7.79285e+06
0 	0.000986693 	0.00986693 	-4.60542e-13 	0.0203423 	8.04048e+06
0 	0.000986849 	0.00986849 	-4.60482e-13 	0.0189932 	8.20028e+06
0 	0.000986969 	0.00986969 	-4.60438e-13 	0.0181734 	8.3891e+06
0 	0.000987171 	0.00987171 	-4.60362e-13 	0.0169535 	8.75669e+06
0 	0.000987407 	0.00987407 	-4.60273e-13 	0.0155799 	9.18535e+06
0 	0.00098764 	0.0098764 	-4.60184e-13 	0.014273 	9.61005e+06
0 	0.000987872 	0.00987872 	-4.60091e-13 	0.0130315 	1.00308e+07
0 	0.000988101 	0.00988101 	-4.59995e-13 	0.0118427 	1.04477e+07
0 	0.000988328 	0.00988328 	-4.59901e-13 	0.0107022 	1.08607e+07
0 	0.000988553 	0.00988553 	-4.59808e-13 	0.00962342 	1.12699e+07
0 	0.000988776 	0.00988776 	-4.59716e-13 	0.00860479 	1.16753e+07
0 	0.000988997 	0.00988997 	-4.59624e-13 	0.00764482 	1.20769e+07
0 	0.000989113 	0.00989113 	-4.59576e-13 	0.00715785 	1.22887e+07
0 	0.000989222 	0.00989222 	-4.59531e-13 	0.00683102 	1.2653e+07
0 	0.000989432 	0.00989432 	-4.59441e-13 	0.00623536 	1.33769e+07
0 	0.000989647 	0.00989647 	-4.59351e-13 	0.00565529 	1.41163e+07
0 	0.00098986 	0.0098986 	-4.59263e-13 	0.00510907 	1.48489e+07
0 	0.000990071 	0.00990071 	-4.59176e-13 	0.00459574 	1.55748e+07
0 	0.000990279 	0.00990279 	-4.59092e-13 	0.00410558 	1.62938e+07
0 	0.000990486 	0.00990486 	-4.59014e-13 	0.00364291 	1.70062e+07
0 	0.000990691 	0.00990691 	-4.58939e-13 	0.00321079 	1.7712e+07
0 	0.000990894 	0.00990894 	-4.58865e-13 	0.00280822 	1.84112e+07
0 	0.000991073 	0.00991073 	-4.58799e-13 	0.00247335 	1.90283e+07
0 	0.000991174 	0.00991174 	-4.58762e-13 	0.00230673 	1.94534e+07
0 	0.000991295 	0.00991295 	-4.58717e-13 	0.00216138 	2.0314e+07
0 	0.000991492 	0.00991492 	-4.58644e-13 	0.0019351 	2.17166e+07
0 	0.000991688 	0.00991688 	-4.58575e-13 	0.00172453 	2.31061e+07
0 	0.000991881 	0.00991881 	-4.58505e-13 	0.00152909 	2.44828e+07
0 	0.000992073 	0.00992073 	-4.58432e-13 	0.00134818 	2.58466e+07
0 	0.000992263 	0.00992263 	-4.58361e-13 	0.00117583 	2.71978e+07
0 	0.000992452 	0.00992452 	-4.58291e-13 	0.00101713 	2.85364e+07
0 	0.000992638 	0.00992638 	-4.58221e-13 	0.000871506 	2.98626e+07
0 	0.000992823 	0.00992823 	-4.58151e-13 	0.000738369 	3.11764e+07
0 	0.000992957 	0.00992957 	-4.581e-13 	0.000648591 	3.21256e+07
0 	0.000993048 	0.00993048 	-4.58064e-13 	0.000601224 	3.32444e+07
0 	0.000993188 	0.00993188 	-4.5801e-13 	0.000544962 	3.55675e+07
0 	0.000993368 	0.00993368 	-4.57939e-13 	0.000477286 	3.85527e+07
0 	0.000993546 	0.00993546 	-4.57868e-13 	0.000415468 	4.15102e+07
0 	0.000993722 	0.00993722 	-4.57796e-13 	0.000359195 	4.44401e+07
0 	0.000993897 	0.00993897 	-4.57725e-13 	0.000307495 	4.73428e+07
0 	0.00099407 	0.0099407 	-4.57654e-13 	0.000259557 	5.02185e+07
0 	0.000994242 	0.00994242 	-4.57584e-13 	0.000216426 	5.30674e+07
0 	0.000994412 	0.00994412 	-4.57515e-13 	0.000177804 	5.58898e+07
0 	0.00099458 	0.0099458 	-4.57445e-13 	0.000143401 	5.8686e+07
0 	0.000994671 	0.00994671 	-4.57408e-13 	0.000126365 	6.0189e+07
0 	0.000994754 	0.00994754 	-4.57374e-13 	0.000116855 	6.3893e+07
0 	0.000994912 	0.00994912 	-4.57308e-13 	0.000100685 	7.13578e+07
0 	0.000995076 	0.00995076 	-4.5724e-13 	8.5559e-05 	7.90662e+07
0 	0.000995238 	0.00995238 	-4.57172e-13 	7.20835e-05 	8.67029e+07
0 	0.000995399 	0.00995399 	-4.57104e-13 	6.0138e-05 	9.42686e+07
0 	0.000995558 	0.00995558 	-4.57036e-13 	4.92255e-05 	1.01764e+08
0 	0.000995716 	0.00995716 	-4.5697e-13 	3.95357e-05 	1.09189e+08
0 	0.000995872 	0.00995872 	-4.56904e-13 	3.11002e-05 	1.16546e+08
0 	0.000996027 	0.00996027 	-4.56839e-13 	2.38128e-05 	1.23834e+08
0 	0.000996154 	0.00996154 	-4.56786e-13 	1.85568e-05 	1.2981e+08
0 	0.00099623 	0.0099623 	-4.56754e-13 	1.616e-05 	1.37061e+08
0 	0.000996332 	0.00996332 	-4.56712e-13 	1.42508e-05 	1.5599e+08
0 	0.000996483 	0.00996483 	-4.56649e-13 	1.17068e-05 	1.83913e+08
0 	0.000996632 	0.00996632 	-4.56588e-13 	9.50788e-06 	2.11576e+08
0 	0.00099678 	0.0099678 	-4.56529e-13 	7.62113e-06 	2.38982e+08
0 	0.000996926 	0.00996926 	-4.5647e-13 	5.99659e-06 	2.66133e+08
0 	0.000997071 	0.00997071 	-4.56412e-13 	4.55525e-06 	2.93032e+08
0 	0.000997215 	0.00997215 	-4.56354e-13 	3.35402e-06 	3.1968e+08
0 	0.000997357 	0.00997357 	-4.56299e-13 	2.36609e-06 	3.4608e+08
0 	0.000997498 	0.00997498 	-4.56244e-13 	1.56637e-06 	3.72235e+08
0 	0.00099758 	0.0099758 	-4.56213e-13 	1.17314e-06 	3.8741e+08
0 	0.00099765 	0.0099765 	-4.56187e-13 	1.01638e-06 	4.69049e+08
0 	0.000997776 	0.00997776 	-4.5614e-13 	8.05858e-07 	6.43105e+08
0 	0.000997913 	0.00997913 	-4.5609e-13 	6.15005e-07 	8.31378e+08
0 	0.000998049 	0.00998049 	-4.56042e-13 	4.60259e-07 	1.0179e+09