/*--------------------------------*- C++ -*----------------------------------*\
  =========                 |
  \\      /  F ield         | OpenFOAM: The Open Source CFD Toolbox
   \\    /   O peration     | Website:  https://openfoam.org
    \\  /    A nd           | Version:  7
     \\/     M anipulation  |
\*---------------------------------------------------------------------------*/
FoamFile
{
    version     2.0;
    format      ascii;
    class       volScalarField;
    location    "0";
    object      k_LES;
}
// * * * * * * * * * * * * * * * * * * * * * * * * * * * * * * * * * * * * * //

dimensions      [0 2 -2 0 0 0 0];

internalField   nonuniform List<scalar>
15600
(
0.00316065
0.00372623
0.00261383
0.00062690
0.00027124
0.00052908
0.00080476
0.00058097
0.00100106
0.00245677
0.00225371
0.00151775
0.00131500
0.00253973
0.00116234
0.00050606
0.00219845
0.00055630
0.00173578
0.00031841
0.00125138
0.00089341
0.00153309
0.00178494
0.00166608
0.00171116
0.00160365
0.00119338
0.00157719
0.00198547
0.00202992
0.00378753
0.00208374
0.00190023
0.00197844
0.00212167
0.00208320
0.00206021
0.00210144
0.00207973
0.00205487
0.00203488
0.00200433
0.00199332
0.00190643
0.00193795
0.00182890
0.00183006
0.00182298
0.00168460
0.00164686
0.00160926
0.00154535
0.00150404
0.00143724
0.00143902
0.00137747
0.00137257
0.00130550
0.00124782
0.00123156
0.00119528
0.00116543
0.00110049
0.00108080
0.00104406
0.00101585
0.00104414
0.00097318
0.00094797
0.00091985
0.00095480
0.00086110
0.00082872
0.00084012
0.00077575
0.00075463
0.00076785
0.00070963
0.00069716
0.00072489
0.00067889
0.00063546
0.00064965
0.00059064
0.00057821
0.00055922
0.00072749
0.00165411
0.00075196
0.00094155
0.00080441
0.00036403
0.00032905
0.00034152
-0.00003257
0.00019879
0.00040286
0.00012105
0.00000549
-0.00003133
-0.00001589
-0.00003506
-0.00008837
-0.00005401
-0.00008020
0.00010089
-0.00023687
-0.00001598
0.00003928
0.00002052
-0.00025479
-0.00015275
-0.00015272
0.00002371
-0.00009019
0.00005484
0.00120655
0.00238505
0.00263183
0.00662764
0.00761344
0.00653775
0.00264697
0.00129413
0.00184400
0.00252967
0.00340852
0.00366742
0.00533059
0.00610873
0.00537074
0.00368390
0.00597943
0.00531093
0.00393765
0.00582387
0.00425849
0.00564271
0.00416385
0.00543724
0.00517228
0.00548517
0.00547835
0.00559661
0.00580577
0.00626808
0.00650161
0.00711318
0.00772696
0.00831696
0.00921895
0.00838626
0.00857854
0.00916804
0.00952264
0.00959876
0.00963477
0.00983215
0.00975145
0.00968031
0.00964726
0.00955065
0.00947436
0.00932877
0.00922585
0.00906202
0.00899454
0.00877705
0.00851782
0.00832800
0.00809123
0.00788222
0.00771209
0.00751624
0.00740317
0.00721341
0.00703170
0.00683666
0.00666672
0.00647832
0.00628978
0.00615895
0.00600813
0.00585028
0.00570480
0.00558810
0.00548899
0.00536062
0.00528032
0.00519330
0.00505369
0.00488718
0.00473815
0.00455434
0.00440419
0.00429870
0.00417892
0.00407261
0.00396459
0.00387950
0.00378212
0.00366279
0.00352838
0.00339835
0.00327949
0.00314285
0.00333820
0.00440210
0.00425341
0.00449740
0.00439338
0.00398219
0.00384283
0.00361104
0.00312033
0.00373354
0.00320515
0.00288653
0.00216624
0.00116569
0.00231016
0.00067983
0.00182611
0.00137646
0.00096683
0.00162928
0.00031868
0.00108824
0.00126128
0.00161738
0.00027833
0.00060122
0.00105059
0.00130900
0.00076670
0.00176843
0.00371798
0.00537421
0.00585770
0.01075141
0.01211047
0.01169145
0.00645511
0.00389276
0.00418867
0.00538413
0.00695096
0.00766641
0.00892687
0.00929101
0.00968637
0.00849530
0.00945008
0.00910815
0.00893881
0.00929999
0.00864046
0.00934045
0.00877446
0.00914974
0.00915094
0.00928800
0.00941878
0.00951598
0.00975233
0.01045370
0.01069150
0.01149544
0.01218265
0.01281509
0.01344503
0.01375818
0.01470089
0.01562370
0.01611057
0.01636159
0.01653792
0.01686780
0.01683041
0.01683131
0.01681079
0.01674231
0.01664349
0.01649079
0.01636417
0.01617597
0.01606444
0.01576362
0.01547254
0.01519324
0.01486544
0.01453867
0.01423903
0.01395538
0.01378797
0.01351135
0.01319635
0.01292383
0.01266748
0.01233736
0.01202373
0.01182240
0.01162512
0.01135835
0.01112472
0.01093751
0.01075759
0.01057460
0.01045432
0.01031210
0.01008038
0.00981877
0.00956777
0.00925277
0.00899793
0.00879525
0.00855801
0.00836660
0.00815868
0.00798928
0.00783082
0.00761412
0.00736691
0.00710930
0.00685122
0.00656418
0.00658754
0.00745222
0.00795861
0.00848150
0.00869509
0.00871133
0.00883335
0.00867518
0.00864356
0.00858580
0.00837437
0.00783853
0.00791362
0.00659321
0.00775695
0.00559842
0.00659550
0.00532522
0.00552769
0.00567309
0.00347551
0.00493574
0.00542386
0.00504199
0.00313091
0.00346193
0.00432352
0.00521361
0.00434488
0.00549123
0.00782389
0.00923257
0.00975550
0.01479934
0.01622772
0.01639725
0.01205582
0.00776796
0.00663510
0.00803921
0.01013386
0.01157037
0.01201036
0.01235856
0.01250002
0.01263125
0.01248664
0.01239865
0.01218856
0.01231613
0.01202421
0.01243846
0.01218852
0.01244236
0.01249356
0.01246508
0.01249613
0.01271576
0.01294867
0.01354516
0.01403596
0.01467492
0.01529186
0.01598586
0.01658331
0.01758680
0.01894507
0.02000665
0.02062648
0.02096582
0.02127735
0.02170624
0.02175449
0.02185135
0.02184371
0.02181288
0.02174083
0.02157059
0.02149155
0.02131860
0.02120480
0.02088918
0.02058391
0.02030305
0.01996042
0.01957935
0.01920103
0.01888572
0.01866455
0.01835247
0.01799189
0.01768303
0.01739092
0.01699922
0.01663458
0.01637359
0.01614050
0.01585524
0.01554602
0.01531205
0.01512397
0.01488529
0.01474541
0.01456623
0.01428765
0.01397338
0.01368864
0.01331388
0.01299930
0.01272805
0.01243128
0.01217926
0.01190752
0.01170254
0.01149574
0.01122316
0.01091854
0.01059141
0.01024732
0.00986485
0.00972596
0.01031502
0.01110841
0.01180458
0.01229378
0.01273101
0.01311095
0.01319342
0.01325154
0.01336343
0.01327786
0.01312423
0.01311067
0.01233479
0.01286402
0.01179083
0.01185986
0.01086789
0.01081589
0.01064607
0.00976027
0.01080189
0.01052622
0.01019873
0.00870069
0.00960969
0.00957928
0.01053681
0.01017254
0.01103186
0.01266069
0.01347013
0.01382879
0.01887146
0.02017355
0.02030417
0.01783374
0.01206388
0.00866239
0.00987388
0.01234171
0.01397709
0.01447512
0.01500589
0.01527311
0.01530832
0.01508138
0.01504235
0.01487912
0.01467032
0.01475922
0.01479760
0.01481561
0.01479888
0.01489815
0.01490805
0.01490105
0.01506873
0.01536406
0.01589577
0.01641591
0.01702737
0.01765576
0.01833273
0.01897748
0.02032501
0.02189303
0.02302832
0.02373023
0.02414837
0.02457855
0.02504402
0.02515854
0.02534758
0.02535996
0.02535818
0.02533659
0.02514841
0.02510201
0.02497715
0.02484229
0.02450259
0.02422199
0.02397425
0.02363084
0.02323296
0.02280827
0.02245775
0.02222189
0.02189476
0.02149748
0.02115973
0.02084473
0.02045325
0.02005105
0.01975926
0.01950683
0.01918970
0.01885995
0.01860625
0.01840340
0.01815578
0.01797667
0.01777510
0.01747553
0.01712723
0.01681043
0.01642561
0.01609469
0.01579713
0.01547550
0.01518618
0.01489890
0.01465633
0.01444188
0.01414202
0.01381361
0.01348756
0.01311066
0.01269253
0.01243018
0.01279879
0.01360247
0.01434732
0.01498818
0.01558154
0.01607494
0.01632366
0.01663101
0.01669070
0.01687536
0.01698211
0.01717040
0.01681877
0.01702385
0.01639789
0.01631895
0.01587457
0.01542888
0.01543384
0.01525092
0.01519137
0.01510424
0.01517502
0.01548032
0.01570803
0.01629755
0.01657976
0.01572559
0.01653145
0.01728030
0.01778134
0.01798801
0.02280752
0.02395832
0.02405191
0.02220514
0.01658154
0.01117942
0.01166436
0.01404203
0.01585984
0.01664599
0.01698440
0.01725453
0.01733121
0.01710541
0.01697614
0.01681469
0.01656306
0.01675652
0.01671063
0.01679522
0.01668908
0.01670885
0.01672488
0.01666716
0.01684705
0.01715850
0.01768397
0.01818311
0.01881814
0.01946308
0.02012887
0.02087586
0.02242352
0.02407196
0.02525705
0.02604339
0.02653186
0.02702207
0.02750172
0.02766171
0.02791914
0.02795322
0.02798111
0.02798910
0.02777744
0.02776197
0.02767965
0.02751163
0.02714782
0.02688142
0.02667307
0.02635889
0.02595765
0.02549790
0.02512483
0.02486763
0.02452516
0.02411207
0.02376600
0.02341556
0.02303606
0.02264093
0.02231038
0.02202587
0.02170373
0.02136813
0.02108318
0.02087566
0.02060392
0.02039089
0.02016400
0.01985175
0.01949736
0.01916724
0.01875761
0.01841603
0.01811433
0.01781045
0.01751871
0.01721764
0.01695837
0.01672181
0.01641859
0.01608977
0.01577088
0.01541272
0.01499261
0.01467045
0.01487030
0.01556260
0.01626563
0.01692977
0.01760722
0.01811416
0.01853639
0.01889799
0.01924494
0.01953865
0.01968672
0.01992896
0.01986769
0.01996003
0.01979352
0.01954715
0.01920951
0.01940710
0.01895974
0.01909936
0.01928447
0.01955618
0.01949491
0.02018009
0.02028718
0.02085999
0.02097050
0.02020560
0.02025287
0.02090328
0.02158059
0.02197784
0.02593311
0.02695812
0.02728756
0.02587305
0.02126503
0.01463614
0.01353115
0.01566891
0.01743756
0.01837331
0.01870994
0.01885285
0.01899215
0.01869397
0.01862531
0.01846098
0.01808401
0.01830620
0.01824886
0.01831324
0.01817014
0.01809899
0.01814264
0.01805943
0.01825725
0.01857631
0.01909550
0.01955890
0.02023811
0.02091383
0.02158812
0.02245341
0.02409113
0.02577888
0.02700153
0.02786200
0.02840131
0.02893912
0.02940579
0.02961203
0.02990654
0.02996764
0.02999966
0.03001922
0.02980477
0.02980500
0.02976436
0.02955318
0.02913675
0.02889790
0.02872683
0.02844063
0.02805533
0.02756246
0.02717047
0.02689906
0.02654214
0.02612033
0.02576221
0.02539851
0.02500848
0.02461963
0.02427516
0.02395852
0.02363068
0.02328951
0.02299256
0.02277503
0.02247020
0.02222418
0.02197512
0.02166564
0.02131392
0.02096263
0.02054370
0.02018536
0.01988317
0.01960332
0.01931071
0.01902455
0.01874130
0.01849831
0.01819583
0.01787377
0.01756490
0.01723392
0.01682898
0.01648335
0.01656685
0.01711352
0.01773738
0.01838252
0.01904418
0.01960002
0.02005851
0.02048415
0.02093821
0.02125494
0.02154772
0.02181598
0.02199609
0.02206666
0.02213744
0.02197598
0.02186722
0.02183903
0.02169312
0.02180653
0.02244659
0.02247711
0.02281934
0.02305761
0.02325159
0.02368755
0.02365321
0.02296938
0.02260626
0.02322507
0.02426463
0.02509750
0.02805783
0.02895457
0.02947979
0.02915136
0.02564549
0.01860610
0.01567069
0.01735162
0.01904142
0.01990511
0.02022571
0.02030388
0.02035565
0.02002750
0.02000023
0.01973835
0.01936094
0.01951159
0.01949415
0.01955038
0.01933943
0.01920353
0.01928376
0.01922555
0.01939289
0.01973536
0.02023625
0.02068462
0.02143332
0.02212996
0.02283756
0.02379556
0.02547323
0.02717761
0.02843800
0.02936112
0.02993414
0.03051016
0.03095537
0.03119845
0.03150734
0.03159353
0.03160001
0.03162349
0.03143005
0.03143602
0.03141914
0.03117177
0.03069750
0.03048222
0.03032005
0.03008530
0.02971134
0.02918885
0.02878577
0.02850116
0.02812576
0.02770237
0.02735856
0.02698523
0.02655955
0.02619026
0.02583683
0.02549180
0.02514851
0.02480510
0.02450158
0.02424978
0.02392908
0.02365280
0.02338250
0.02307677
0.02273032
0.02236453
0.02195420
0.02157754
0.02127247
0.02100747
0.02072300
0.02044927
0.02014719
0.01989394
0.01959574
0.01927562
0.01898241
0.01867960
0.01829296
0.01795104
0.01795611
0.01835836
0.01889854
0.01950318
0.02012373
0.02068281
0.02118945
0.02164495
0.02211449
0.02251386
0.02285078
0.02315319
0.02345089
0.02355572
0.02372124
0.02357271
0.02363658
0.02347988
0.02364082
0.02398019
0.02424328
0.02410531
0.02465141
0.02519136
0.02540050
0.02551253
0.02530057
0.02470846
0.02405704
0.02434449
0.02571356
0.02698809
0.02925867
0.03022774
0.03086220
0.03131447
0.02925373
0.02290416
0.01824629
0.01912426
0.02067938
0.02141984
0.02161402
0.02162007
0.02154084
0.02118697
0.02118076
0.02084432
0.02048838
0.02057104
0.02056076
0.02057739
0.02032947
0.02014576
0.02020192
0.02019368
0.02036279
0.02073364
0.02120853
0.02165619
0.02248596
0.02319369
0.02394697
0.02498865
0.02666919
0.02835709
0.02966629
0.03064584
0.03122392
0.03183221
0.03227312
0.03253439
0.03284414
0.03292902
0.03291155
0.03294334
0.03277621
0.03278593
0.03276515
0.03248990
0.03196709
0.03177249
0.03158123
0.03138945
0.03104786
0.03049659
0.03009291
0.02979323
0.02939986
0.02898016
0.02866545
0.02828891
0.02783040
0.02747307
0.02711022
0.02673574
0.02638287
0.02602684
0.02571902
0.02542054
0.02508572
0.02478676
0.02449877
0.02420766
0.02386371
0.02348482
0.02310008
0.02270586
0.02239943
0.02213736
0.02184990
0.02159129
0.02128055
0.02101271
0.02072004
0.02040662
0.02013454
0.01984695
0.01947570
0.01915036
0.01910065
0.01937439
0.01982722
0.02037613
0.02095161
0.02149948
0.02201997
0.02250514
0.02299162
0.02343242
0.02378326
0.02418497
0.02449834
0.02468140
0.02486375
0.02479535
0.02496057
0.02499815
0.02505858
0.02541146
0.02538267
0.02571616
0.02615847
0.02639082
0.02700520
0.02677592
0.02661115
0.02587027
0.02497600
0.02486004
0.02620542
0.02792388
0.02968375
0.03085735
0.03169322
0.03246821
0.03195055
0.02723700
0.02131023
0.02109675
0.02233594
0.02292518
0.02295783
0.02283316
0.02263723
0.02226931
0.02222568
0.02184469
0.02151257
0.02152663
0.02152221
0.02148108
0.02120071
0.02098260
0.02101305
0.02103389
0.02122532
0.02162177
0.02207532
0.02252857
0.02343663
0.02415495
0.02495676
0.02608885
0.02774990
0.02939413
0.03074733
0.03177919
0.03233632
0.03296163
0.03342871
0.03369231
0.03399361
0.03403648
0.03402476
0.03406789
0.03392021
0.03393495
0.03389111
0.03358407
0.03303795
0.03285233
0.03260904
0.03244238
0.03214385
0.03156606
0.03116426
0.03085284
0.03044514
0.03004737
0.02974648
0.02936797
0.02890115
0.02854279
0.02817263
0.02777205
0.02740779
0.02703299
0.02671691
0.02637454
0.02602393
0.02571040
0.02540602
0.02513675
0.02479640
0.02440297
0.02404600
0.02364881
0.02333768
0.02306865
0.02277833
0.02252296
0.02221568
0.02192817
0.02164254
0.02133865
0.02108110
0.02080240
0.02044632
0.02013848
0.02005290
0.02022066
0.02058817
0.02108106
0.02160670
0.02213360
0.02265834
0.02312281
0.02364178
0.02408586
0.02448281
0.02489205
0.02528044
0.02546679
0.02571664
0.02579508
0.02593167
0.02611415
0.02616343
0.02645020
0.02671560
0.02738065
0.02738001
0.02757150
0.02840222
0.02783979
0.02768503
0.02679054
0.02565686
0.02519048
0.02618665
0.02808256
0.02951207
0.03081895
0.03193553
0.03319726
0.03377674
0.03111370
0.02483582
0.02333282
0.02414923
0.02451392
0.02433764
0.02406301
0.02372829
0.02330251
0.02326372
0.02280897
0.02247488
0.02243356
0.02242366
0.02232480
0.02199057
0.02175892
0.02173554
0.02180761
0.02201642
0.02244493
0.02287881
0.02335101
0.02430443
0.02505578
0.02589705
0.02711811
0.02875738
0.03035137
0.03172569
0.03279622
0.03333098
0.03394886
0.03445840
0.03471422
0.03500101
0.03498460
0.03500177
0.03504475
0.03491238
0.03493826
0.03486177
0.03451448
0.03397395
0.03376475
0.03347591
0.03332117
0.03305296
0.03245863
0.03205642
0.03173516
0.03131797
0.03095195
0.03064332
0.03026926
0.02981725
0.02944642
0.02907286
0.02865604
0.02827665
0.02787714
0.02754628
0.02717379
0.02680952
0.02648447
0.02616231
0.02591416
0.02557290
0.02516644
0.02483511
0.02445125
0.02413412
0.02385401
0.02356039
0.02329841
0.02299791
0.02269364
0.02241878
0.02212442
0.02186629
0.02159529
0.02125610
0.02096770
0.02085293
0.02094332
0.02123510
0.02166793
0.02213536
0.02263327
0.02314499
0.02361331
0.02412467
0.02459352
0.02502167
0.02545660
0.02585487
0.02610285
0.02636438
0.02653536
0.02667481
0.02685188
0.02711739
0.02731256
0.02775859
0.02830140
0.02840054
0.02875739
0.02906789
0.02882331
0.02844086
0.02755753
0.02630883
0.02552312
0.02600876
0.02776511
0.02899058
0.03040576
0.03170956
0.03337275
0.03483579
0.03424455
0.02870443
0.02588936
0.02613920
0.02618287
0.02577985
0.02532409
0.02485450
0.02436542
0.02427214
0.02377541
0.02343680
0.02333832
0.02330230
0.02313458
0.02274013
0.02250681
0.02243259
0.02253029
0.02278721
0.02323690
0.02364304
0.02414648
0.02510022
0.02592717
0.02679613
0.02808880
0.02970515
0.03125914
0.03264370
0.03373065
0.03425125
0.03483778
0.03538418
0.03563771
0.03590382
0.03583329
0.03588942
0.03591526
0.03579087
0.03582252
0.03571559
0.03532818
0.03480539
0.03455352
0.03423288
0.03408009
0.03381598
0.03323671
0.03280449
0.03247847
0.03205802
0.03172077
0.03139871
0.03102888
0.03060638
0.03021646
0.02984123
0.02941877
0.02902547
0.02859995
0.02824902
0.02785594
0.02748556
0.02714164
0.02680354
0.02656761
0.02622392
0.02581454
0.02549845
0.02514138
0.02482039
0.02452870
0.02423285
0.02395457
0.02365678
0.02334613
0.02308187
0.02279868
0.02252843
0.02226422
0.02194226
0.02166858
0.02153321
0.02157704
0.02179917
0.02216491
0.02256925
0.02303368
0.02351261
0.02399266
0.02449915
0.02497728
0.02543069
0.02589406
0.02629085
0.02658969
0.02684958
0.02703400
0.02725662
0.02747656
0.02767763
0.02796572
0.02831787
0.02858610
0.02937831
0.02964292
0.02950924
0.02957615
0.02898750
0.02812058
0.02689490
0.02590134
0.02589039
0.02726932
0.02834995
0.02978421
0.03120798
0.03310089
0.03525787
0.03655846
0.03259809
0.02879139
0.02831766
0.02803888
0.02736577
0.02672909
0.02606124
0.02550439
0.02533407
0.02478476
0.02443714
0.02425892
0.02416991
0.02394188
0.02349622
0.02324055
0.02314112
0.02323682
0.02357393
0.02402588
0.02439582
0.02492347
0.02585194
0.02678302
0.02767521
0.02902891
0.03061669
0.03212686
0.03352339
0.03461309
0.03511962
0.03565212
0.03623211
0.03648587
0.03673856
0.03663018
0.03672742
0.03671210
0.03658598
0.03661667
0.03647037
0.03606146
0.03555483
0.03526692
0.03491997
0.03475490
0.03448670
0.03393523
0.03344137
0.03311354
0.03269744
0.03238471
0.03205043
0.03168337
0.03128915
0.03088404
0.03050368
0.03008200
0.02967081
0.02923521
0.02885778
0.02845193
0.02808129
0.02771351
0.02735739
0.02712098
0.02677649
0.02637813
0.02606528
0.02573967
0.02541813
0.02511914
0.02482318
0.02451840
0.02422204
0.02390896
0.02365260
0.02337896
0.02310285
0.02284063
0.02253165
0.02226694
0.02212130
0.02213873
0.02229176
0.02259073
0.02293413
0.02335442
0.02379979
0.02427711
0.02478250
0.02526503
0.02572647
0.02620800
0.02662793
0.02693359
0.02722935
0.02744506
0.02767262
0.02793598
0.02809678
0.02850256
0.02876565
0.02910248
0.02964986
0.03012101
0.02990869
0.03005329
0.02943184
0.02857284
0.02738578
0.02631252
0.02590885
0.02680683
0.02771941
0.02906417
0.03052807
0.03257220
0.03520643
0.03796237
0.03628357
0.03202183
0.03074299
0.03005741
0.02906504
0.02824640
0.02739614
0.02672930
0.02644271
0.02585136
0.02546497
0.02521570
0.02504298
0.02475700
0.02427808
0.02399258
0.02387809
0.02395209
0.02438040
0.02482721
0.02516752
0.02569294
0.02660170
0.02763357
0.02855800
0.02995307
0.03151818
0.03297786
0.03436910
0.03547382
0.03596929
0.03641837
0.03701703
0.03728654
0.03752726
0.03741978
0.03753685
0.03746418
0.03732700
0.03733889
0.03714789
0.03674055
0.03623769
0.03593311
0.03556567
0.03537264
0.03509836
0.03455991
0.03400549
0.03367543
0.03326993
0.03298137
0.03263673
0.03226987
0.03188083
0.03148250
0.03108751
0.03066071
0.03022451
0.02979698
0.02939294
0.02898888
0.02861707
0.02822390
0.02785196
0.02759435
0.02725647
0.02687883
0.02656219
0.02626063
0.02594282
0.02563948
0.02534684
0.02501485
0.02472029
0.02440556
0.02414943
0.02387975
0.02360859
0.02334916
0.02304740
0.02278679
0.02263826
0.02263587
0.02272367
0.02295681
0.02324727
0.02362070
0.02403141
0.02449872
0.02500470
0.02548832
0.02595173
0.02645034
0.02686752
0.02722048
0.02752551
0.02778816
0.02806792
0.02830813
0.02856215
0.02888651
0.02921037
0.02968910
0.02978174
0.03034246
0.03028822
0.03030306
0.02973620
0.02892428
0.02779133
0.02671142
0.02605657
0.02648014
0.02718879
0.02836112
0.02975607
0.03184662
0.03477159
0.03858922
0.03938761
0.03547051
0.03339112
0.03227355
0.03097206
0.02992201
0.02886824
0.02807522
0.02763627
0.02699547
0.02656084
0.02622045
0.02595426
0.02560022
0.02510943
0.02479017
0.02465698
0.02470317
0.02520176
0.02565126
0.02598108
0.02648296
0.02739381
0.02849326
0.02946592
0.03087405
0.03241056
0.03381658
0.03518520
0.03632089
0.03680015
0.03717015
0.03774824
0.03806814
0.03827937
0.03821191
0.03831922
0.03820138
0.03802545
0.03800478
0.03778440
0.03737327
0.03686802
0.03654857
0.03618931
0.03595586
0.03566304
0.03512687
0.03453566
0.03419945
0.03381158
0.03353054
0.03318053
0.03280645
0.03239823
0.03202244
0.03161442
0.03116854
0.03070851
0.03029641
0.02987096
0.02947905
0.02910153
0.02868129
0.02829913
0.02801122
0.02768908
0.02733246
0.02701260
0.02672105
0.02641466
0.02610767
0.02581075
0.02546228
0.02516717
0.02485167
0.02458671
0.02432274
0.02405146
0.02380161
0.02351014
0.02325322
0.02309807
0.02307611
0.02310988
0.02327649
0.02352658
0.02385351
0.02423552
0.02467992
0.02518467
0.02566805
0.02614157
0.02663365
0.02706298
0.02743172
0.02776499
0.02803899
0.02831804
0.02859477
0.02888660
0.02916452
0.02945707
0.02971011
0.03015726
0.03035652
0.03059223
0.03033850
0.02994639
0.02917195
0.02811552
0.02706469
0.02627330
0.02630920
0.02679658
0.02774281
0.02898537
0.03101089
0.03406415
0.03857610
0.04174881
0.03902386
0.03627025
0.03467820
0.03304477
0.03174600
0.03048734
0.02957304
0.02894256
0.02824095
0.02773955
0.02729132
0.02692567
0.02649591
0.02598944
0.02563773
0.02549179
0.02553182
0.02604077
0.02651295
0.02684113
0.02730892
0.02823824
0.02936054
0.03039838
0.03181570
0.03329785
0.03464495
0.03598374
0.03715425
0.03760884
0.03792233
0.03845316
0.03884176
0.03900861
0.03899864
0.03906485
0.03894802
0.03869599
0.03863123
0.03839620
0.03795293
0.03747224
0.03713753
0.03679123
0.03652688
0.03620451
0.03566295
0.03506232
0.03471215
0.03434429
0.03404243
0.03369294
0.03329596
0.03287862
0.03250599
0.03209445
0.03162168
0.03115850
0.03074761
0.03031312
0.02993264
0.02954662
0.02910451
0.02871491
0.02839815
0.02808625
0.02775041
0.02742558
0.02713287
0.02684182
0.02653061
0.02622044
0.02586934
0.02556624
0.02525918
0.02497824
0.02471830
0.02443601
0.02420425
0.02392978
0.02368041
0.02351040
0.02346515
0.02345397
0.02355928
0.02377971
0.02406224
0.02442216
0.02484110
0.02532570
0.02581370
0.02628562
0.02677131
0.02720387
0.02758570
0.02792827
0.02822389
0.02851081
0.02880782
0.02907834
0.02944492
0.02980653
0.02995511
0.03047860
0.03054268
0.03057994
0.03047402
0.03007804
0.02933636
0.02835750
0.02735805
0.02651243
0.02626575
0.02653119
0.02722928
0.02827030
0.03013497
0.03318367
0.03808446
0.04322743
0.04239435
0.03935611
0.03726930
0.03533819
0.03374440
0.03227072
0.03120770
0.03038328
0.02961353
0.02899764
0.02844820
0.02796478
0.02745666
0.02691460
0.02653498
0.02639732
0.02644011
0.02691631
0.02742816
0.02774100
0.02817377
0.02913714
0.03023808
0.03136285
0.03278227
0.03419261
0.03548532
0.03680884
0.03798012
0.03839469
0.03868130
0.03914260
0.03961907
0.03975069
0.03979067
0.03978660
0.03969666
0.03937664
0.03924980
0.03899496
0.03850157
0.03806588
0.03773028
0.03737743
0.03708232
0.03673774
0.03619269
0.03559959
0.03523612
0.03487224
0.03454063
0.03417661
0.03374520
0.03333164
0.03295213
0.03254075
0.03204970
0.03158812
0.03115800
0.03073759
0.03036071
0.02996856
0.02951679
0.02911313
0.02877118
0.02845765
0.02813534
0.02780751
0.02751302
0.02722617
0.02691396
0.02658533
0.02624183
0.02592679
0.02563312
0.02533210
0.02506812
0.02478352
0.02456291
0.02431069
0.02406155
0.02387837
0.02379875
0.02375453
0.02380948
0.02400829
0.02425516
0.02459541
0.02498931
0.02544780
0.02593722
0.02640925
0.02688076
0.02731098
0.02769915
0.02805065
0.02836358
0.02866051
0.02893728
0.02925012
0.02956739
0.02986725
0.03038580
0.03049298
0.03055275
0.03063100
0.03056370
0.03013909
0.02944181
0.02852320
0.02758728
0.02673569
0.02630673
0.02636852
0.02681855
0.02764917
0.02927605
0.03220765
0.03721653
0.04378894
0.04537392
0.04260597
0.04005659
0.03783536
0.03592606
0.03423071
0.03300748
0.03198072
0.03112755
0.03035483
0.02970859
0.02907806
0.02848457
0.02789968
0.02749720
0.02737890
0.02743554
0.02785381
0.02838818
0.02870485
0.02909784
0.03010091
0.03115315
0.03235885
0.03377394
0.03510065
0.03635197
0.03766842
0.03879009
0.03916704
0.03944458
0.03985217
0.04039408
0.04053638
0.04058713
0.04052113
0.04042307
0.04008395
0.03988622
0.03960828
0.03905838
0.03865735
0.03834967
0.03796019
0.03762865
0.03729531
0.03674955
0.03615888
0.03579059
0.03541203
0.03503622
0.03464169
0.03417487
0.03374754
0.03338170
0.03297060
0.03246562
0.03198724
0.03153609
0.03114419
0.03076802
0.03036534
0.02991578
0.02949322
0.02913350
0.02881499
0.02849759
0.02817345
0.02786950
0.02758052
0.02725770
0.02691861
0.02658703
0.02626638
0.02597672
0.02565678
0.02537957
0.02511147
0.02488453
0.02465236
0.02439856
0.02419956
0.02407764
0.02401420
0.02403516
0.02421206
0.02443707
0.02476059
0.02512863
0.02555938
0.02604344
0.02651569
0.02696793
0.02739387
0.02778629
0.02814484
0.02846871
0.02877370
0.02906311
0.02936647
0.02964493
0.02991454
0.03031899
0.03044905
0.03064190
0.03065830
0.03057220
0.03014310
0.02947890
0.02863011
0.02774758
0.02692165
0.02638856
0.02627702
0.02650607
0.02712482
0.02848758
0.03118826
0.03610976
0.04355735
0.04774690
0.04589984
0.04302957
0.04053301
0.03831680
0.03637163
0.03496942
0.03374081
0.03277745
0.03182710
0.03107997
0.03028386
0.02959754
0.02896274
0.02853321
0.02842653
0.02851855
0.02888513
0.02939555
0.02976283
0.03010685
0.03112940
0.03211110
0.03337248
0.03479885
0.03604867
0.03726938
0.03856372
0.03960157
0.03996209
0.04022652
0.04062332
0.04119252
0.04137726
0.04136975
0.04128471
0.04115509
0.04080468
0.04054881
0.04023494
0.03965242
0.03926839
0.03898914
0.03855136
0.03821005
0.03790110
0.03733510
0.03674907
0.03637135
0.03596786
0.03554348
0.03510646
0.03460180
0.03414018
0.03380231
0.03338294
0.03285512
0.03234415
0.03189773
0.03151237
0.03114356
0.03073796
0.03029582
0.02986037
0.02949064
0.02916566
0.02885831
0.02853289
0.02820771
0.02791890
0.02758161
0.02723241
0.02691214
0.02659491
0.02629412
0.02596925
0.02567202
0.02541146
0.02518337
0.02495622
0.02470088
0.02447872
0.02432294
0.02424982
0.02424535
0.02439788
0.02461546
0.02492169
0.02526661
0.02567249
0.02614472
0.02660484
0.02703784
0.02745499
0.02785069
0.02820233
0.02852832
0.02884578
0.02914909
0.02943056
0.02972774
0.03003975
0.03020705
0.03049016
0.03073505
0.03073705
0.03051333
0.03009925
0.02946532
0.02867558
0.02785334
0.02706197
0.02647513
0.02622815
0.02626575
0.02669218
0.02779033
0.03017982
0.03485004
0.04266769
0.04927444
0.04906971
0.04615038
0.04339545
0.04090809
0.03870131
0.03709659
0.03566397
0.03454756
0.03341546
0.03258413
0.03159776
0.03081424
0.03011857
0.02965504
0.02954968
0.02968526
0.03000975
0.03046736
0.03088625
0.03121232
0.03221182
0.03311609
0.03441044
0.03585019
0.03706882
0.03824000
0.03951336
0.04043850
0.04080293
0.04105599
0.04147244
0.04203590
0.04226147
0.04213988
0.04207883
0.04191837
0.04153621
0.04124008
0.04087769
0.04029480
0.03992161
0.03964450
0.03916019
0.03884580
0.03852118
0.03793957
0.03737041
0.03696964
0.03652919
0.03606991
0.03557062
0.03502272
0.03453501
0.03420149
0.03377800
0.03321377
0.03267937
0.03224717
0.03184552
0.03149944
0.03108769
0.03066225
0.03022654
0.02985461
0.02951727
0.02922690
0.02889597
0.02854811
0.02824295
0.02791148
0.02754836
0.02723077
0.02691072
0.02659417
0.02627929
0.02596634
0.02569186
0.02547582
0.02524015
0.02497739
0.02473719
0.02455416
0.02447316
0.02445618
0.02458328
0.02479874
0.02507806
0.02540392
0.02578521
0.02624270
0.02668279
0.02710426
0.02750664
0.02789634
0.02824658
0.02857986
0.02888963
0.02918785
0.02947882
0.02977183
0.03005496
0.03039993
0.03058454
0.03068297
0.03066593
0.03041901
0.03001170
0.02941762
0.02867798
0.02790558
0.02715440
0.02654727
0.02619531
0.02607884
0.02633200
0.02719402
0.02923556
0.03352348
0.04130862
0.04988948
0.05188959
0.04934878
0.04641143
0.04369366
0.04123360
0.03938705
0.03775178
0.03645389
0.03514397
0.03421261
0.03303455
0.03215983
0.03138261
0.03089209
0.03077038
0.03093337
0.03121098
0.03162455
0.03204248
0.03240446
0.03332010
0.03419826
0.03549414
0.03693206
0.03812943
0.03924387
0.04052538
0.04130875
0.04168576
0.04192995
0.04236062
0.04292053
0.04315516
0.04290497
0.04289726
0.04271645
0.04228959
0.04194688
0.04156194
0.04097258
0.04059489
0.04032130
0.03979892
0.03950551
0.03912774
0.03856337
0.03800180
0.03757545
0.03709568
0.03660659
0.03602447
0.03544243
0.03495098
0.03458098
0.03416055
0.03356492
0.03302489
0.03258436
0.03217585
0.03184435
0.03143088
0.03102609
0.03061167
0.03024107
0.02989305
0.02960161
0.02926874
0.02889899
0.02856991
0.02824814
0.02788012
0.02755459
0.02721785
0.02689377
0.02658667
0.02626841
0.02597847
0.02576596
0.02552020
0.02524469
0.02498902
0.02478444
0.02468943
0.02468193
0.02478551
0.02499016
0.02523744
0.02554628
0.02590527
0.02634413
0.02676272
0.02716498
0.02755291
0.02792244
0.02826906
0.02860096
0.02890618
0.02919468
0.02946060
0.02974398
0.03007729
0.03034451
0.03056422
0.03054267
0.03049279
0.03029472
0.02989216
0.02932569
0.02863744
0.02791395
0.02720224
0.02659391
0.02616381
0.02593411
0.02602870
0.02668836
0.02839112
0.03220345
0.03964766
0.04953899
0.05414247
0.05250662
0.04953456
0.04662286
0.04394448
0.04182803
0.04002966
0.03851279
0.03704571
0.03597380
0.03463199
0.03365960
0.03276544
0.03226641
0.03206611
0.03225000
0.03248061
0.03286371
0.03323599
0.03366229
0.03448722
0.03534516
0.03663609
0.03807133
0.03922536
0.04030261
0.04156591
0.04224041
0.04257544
0.04283969
0.04331990
0.04386248
0.04405134
0.04367930
0.04371468
0.04354632
0.04307121
0.04267446
0.04228111
0.04167516
0.04127740
0.04102661
0.04049128
0.04016067
0.03972577
0.03920448
0.03864059
0.03819686
0.03767592
0.03715418
0.03648812
0.03589506
0.03539069
0.03496186
0.03450719
0.03392792
0.03338351
0.03293769
0.03252474
0.03219230
0.03178184
0.03139800
0.03102270
0.03065413
0.03029854
0.02998625
0.02964663
0.02926371
0.02890604
0.02858510
0.02822022
0.02788108
0.02752813
0.02719915
0.02689683
0.02657652
0.02628098
0.02605470
0.02580387
0.02551593
0.02523954
0.02501575
0.02490890
0.02491230
0.02500393
0.02519031
0.02540664
0.02569234
0.02603715
0.02645340
0.02685253
0.02722303
0.02758886
0.02794148
0.02827871
0.02859722
0.02889365
0.02918040
0.02945860
0.02973409
0.03000018
0.03014185
0.03039042
0.03044894
0.03035884
0.03014059
0.02974947
0.02921523
0.02856668
0.02788408
0.02721107
0.02661189
0.02612363
0.02581545
0.02577511
0.02625097
0.02765191
0.03094462
0.03783080
0.04836167
0.05554072
0.05548128
0.05272720
0.04963478
0.04681769
0.04443253
0.04246856
0.04072619
0.03912377
0.03786719
0.03640756
0.03533118
0.03428361
0.03376417
0.03345474