/*--------------------------------*- C++ -*----------------------------------*\
  =========                 |
  \\      /  F ield         | OpenFOAM: The Open Source CFD Toolbox
   \\    /   O peration     | Website:  https://openfoam.org
    \\  /    A nd           | Version:  7
     \\/     M anipulation  |
\*---------------------------------------------------------------------------*/
FoamFile
{
    version     2.0;
    format      ascii;
    class       volSymmTensorField;
    location    "0";
    object      tauij_LES;
}
// * * * * * * * * * * * * * * * * * * * * * * * * * * * * * * * * * * * * * //

dimensions      [0 2 -2 0 0 0 0];

internalField   nonuniform List<symmTensor>
15600
(
(0.00427051 -0.00005222 0.00000000 0.00001535 0.00000000 0.00203544)
(0.00508981 -0.00006962 0.00000000 0.00002323 0.00000000 0.00233943)
(0.00362220 -0.00002865 0.00000000 0.00000780 0.00000000 0.00159765)
(0.00034492 -0.00015266 0.00000000 0.00008255 0.00000000 0.00082632)
(0.00032869 0.00001198 0.00000000 -0.00002059 0.00000000 0.00023437)
(0.00050135 0.00001319 0.00000000 -0.00001987 0.00000000 0.00057667)
(0.00039102 -0.00030774 0.00000000 0.00021224 0.00000000 0.00100626)
(0.00028089 -0.00028730 0.00000000 0.00021673 0.00000000 0.00066433)
(0.00062522 -0.00045257 0.00000000 0.00031036 0.00000000 0.00106655)
(0.00172966 -0.00076009 0.00000000 0.00033759 0.00000000 0.00284629)
(0.00151249 -0.00086061 0.00000000 0.00050552 0.00000000 0.00248941)
(0.00117994 -0.00073273 0.00000000 0.00045576 0.00000000 0.00139980)
(0.00112401 -0.00069670 0.00000000 0.00042502 0.00000000 0.00108099)
(0.00190502 -0.00097260 0.00000000 0.00052127 0.00000000 0.00265317)
(0.00095457 -0.00055710 0.00000000 0.00032373 0.00000000 0.00104637)
(0.00050809 -0.00019763 0.00000000 0.00009276 0.00000000 0.00041126)
(0.00177535 -0.00098106 0.00000000 0.00055011 0.00000000 0.00207144)
(0.00047244 -0.00025420 0.00000000 0.00013662 0.00000000 0.00050354)
(0.00141283 -0.00075731 0.00000000 0.00041776 0.00000000 0.00164096)
(0.00026214 -0.00014331 0.00000000 0.00007399 0.00000000 0.00030069)
(0.00104140 -0.00054707 0.00000000 0.00029126 0.00000000 0.00117010)
(0.00087392 -0.00014064 0.00000000 0.00000083 0.00000000 0.00091208)
(0.00108888 -0.00045210 0.00000000 0.00020280 0.00000000 0.00177449)
(0.00123094 -0.00041812 0.00000000 0.00015428 0.00000000 0.00218466)
(0.00124574 -0.00056578 0.00000000 0.00025946 0.00000000 0.00182697)
(0.00119100 -0.00042195 0.00000000 0.00016919 0.00000000 0.00206213)
(0.00113600 -0.00043054 0.00000000 0.00018151 0.00000000 0.00188978)
(0.00102403 -0.00020266 0.00000000 0.00005222 0.00000000 0.00131052)
(0.00139975 -0.00008315 0.00000000 0.00000983 0.00000000 0.00174480)
(0.00184229 -0.00018316 0.00000000 0.00003559 0.00000000 0.00209306)
(0.00210694 -0.00018406 0.00000000 0.00002200 0.00000000 0.00193090)
(0.00311832 -0.00015275 0.00000000 0.00004506 0.00000000 0.00441168)
(0.00189766 0.00000361 0.00000000 0.00000047 0.00000000 0.00226935)
(0.00173072 0.00000205 0.00000000 0.00000039 0.00000000 0.00206936)
(0.00183166 0.00000283 0.00000000 -0.00000263 0.00000000 0.00212784)
(0.00194722 0.00000237 0.00000000 -0.00000019 0.00000000 0.00229631)
(0.00188192 0.00000249 0.00000000 -0.00000220 0.00000000 0.00228668)
(0.00182662 0.00000178 0.00000000 -0.00000317 0.00000000 0.00229697)
(0.00189873 0.00000132 0.00000000 -0.00000351 0.00000000 0.00230766)
(0.00186694 0.00000135 0.00000000 -0.00000218 0.00000000 0.00229471)
(0.00182682 0.00000057 0.00000000 -0.00000197 0.00000000 0.00228490)
(0.00180921 0.00000027 0.00000000 -0.00000271 0.00000000 0.00226325)
(0.00177726 -0.00000005 0.00000000 -0.00000224 0.00000000 0.00223365)
(0.00177634 -0.00000032 0.00000000 -0.00000180 0.00000000 0.00221209)
(0.00169062 -0.00000042 0.00000000 -0.00000306 0.00000000 0.00212531)
(0.00171498 -0.00000178 0.00000000 -0.00000082 0.00000000 0.00216175)
(0.00160535 -0.00000045 0.00000000 -0.00000276 0.00000000 0.00205521)
(0.00162103 -0.00000128 0.00000000 -0.00000252 0.00000000 0.00204160)
(0.00161967 -0.00000288 0.00000000 -0.00000044 0.00000000 0.00202672)
(0.00150535 -0.00000055 0.00000000 -0.00000258 0.00000000 0.00186643)
(0.00146103 -0.00000126 0.00000000 -0.00000206 0.00000000 0.00183476)
(0.00143351 -0.00000268 0.00000000 -0.00000091 0.00000000 0.00178591)
(0.00138639 -0.00000126 0.00000000 -0.00000178 0.00000000 0.00170608)
(0.00133760 -0.00000168 0.00000000 -0.00000185 0.00000000 0.00167233)
(0.00127530 -0.00000133 0.00000000 -0.00000208 0.00000000 0.00160125)
(0.00129305 -0.00000182 0.00000000 -0.00000156 0.00000000 0.00158656)
(0.00122763 -0.00000167 0.00000000 -0.00000161 0.00000000 0.00152893)
(0.00121901 -0.00000263 0.00000000 -0.00000068 0.00000000 0.00152680)
(0.00114212 -0.00000149 0.00000000 -0.00000132 0.00000000 0.00147020)
(0.00109906 -0.00000122 0.00000000 -0.00000172 0.00000000 0.00139829)
(0.00109121 -0.00000190 0.00000000 -0.00000113 0.00000000 0.00137304)
(0.00105572 -0.00000237 0.00000000 -0.00000103 0.00000000 0.00133587)
(0.00104562 -0.00000248 0.00000000 -0.00000070 0.00000000 0.00128596)
(0.00097897 -0.00000126 0.00000000 -0.00000133 0.00000000 0.00122334)
(0.00095884 -0.00000182 0.00000000 -0.00000084 0.00000000 0.00120359)
(0.00092502 -0.00000138 0.00000000 -0.00000116 0.00000000 0.00116425)
(0.00090001 -0.00000146 0.00000000 -0.00000112 0.00000000 0.00113280)
(0.00094161 -0.00000362 0.00000000 0.00000003 0.00000000 0.00114664)
(0.00086890 -0.00000151 0.00000000 -0.00000096 0.00000000 0.00107841)
(0.00085420 -0.00000158 0.00000000 -0.00000100 0.00000000 0.00104274)
(0.00083548 -0.00000108 0.00000000 -0.00000108 0.00000000 0.00100531)
(0.00086859 -0.00000337 0.00000000 0.00000028 0.00000000 0.00104074)
(0.00077487 -0.00000137 0.00000000 -0.00000085 0.00000000 0.00094818)
(0.00075071 -0.00000115 0.00000000 -0.00000087 0.00000000 0.00090759)
(0.00076446 -0.00000245 0.00000000 0.00000002 0.00000000 0.00091576)
(0.00069768 -0.00000139 0.00000000 -0.00000058 0.00000000 0.00085441)
(0.00068072 -0.00000113 0.00000000 -0.00000071 0.00000000 0.00082924)
(0.00069673 -0.00000264 0.00000000 0.00000011 0.00000000 0.00083886)
(0.00063523 -0.00000088 0.00000000 -0.00000074 0.00000000 0.00078478)
(0.00062053 -0.00000118 0.00000000 -0.00000057 0.00000000 0.00077435)
(0.00065279 -0.00000270 0.00000000 0.00000023 0.00000000 0.00079676)
(0.00060139 -0.00000144 0.00000000 -0.00000025 0.00000000 0.00075664)
(0.00055000 -0.00000059 0.00000000 -0.00000066 0.00000000 0.00072159)
(0.00055756 -0.00000184 0.00000000 0.00000002 0.00000000 0.00074171)
(0.00049409 -0.00000050 0.00000000 -0.00000062 0.00000000 0.00068781)
(0.00047236 -0.00000040 0.00000000 -0.00000057 0.00000000 0.00068461)
(0.00043414 -0.00000021 0.00000000 -0.00000060 0.00000000 0.00068491)
(0.00053690 -0.00000205 0.00000000 0.00000076 0.00000000 0.00091731)
(0.00085085 0.00002465 0.00000000 0.00001096 0.00000000 0.00244640)
(0.00042822 0.00000513 0.00000000 0.00000030 0.00000000 0.00107539)
(0.00039180 0.00003909 0.00000000 0.00001628 0.00000000 0.00147501)
(0.00029008 0.00003781 0.00000000 0.00001338 0.00000000 0.00130535)
(0.00011051 0.00001996 0.00000000 0.00000496 0.00000000 0.00061260)
(0.00015607 0.00007537 0.00000000 0.00003375 0.00000000 0.00046828)
(0.00012261 0.00006376 0.00000000 0.00002918 0.00000000 0.00053126)
(-0.00004262 -0.00000041 0.00000000 0.00000441 0.00000000 -0.00002692)
(0.00000816 0.00002134 0.00000000 0.00001411 0.00000000 0.00037531)
(0.00012369 0.00005783 0.00000000 0.00002597 0.00000000 0.00065607)
(-0.00011376 -0.00002974 0.00000000 -0.00000536 0.00000000 0.00036122)
(-0.00000143 0.00000235 0.00000000 0.00000203 0.00000000 0.00001038)
(-0.00002253 -0.00000543 0.00000000 -0.00000090 0.00000000 -0.00003922)
(-0.00001734 -0.00000472 0.00000000 -0.00000126 0.00000000 -0.00001318)
(-0.00001740 -0.00000869 0.00000000 -0.00000403 0.00000000 -0.00004870)
(-0.00008542 -0.00002847 0.00000000 -0.00000960 0.00000000 -0.00008173)
(-0.00006637 -0.00003399 0.00000000 -0.00001843 0.00000000 -0.00002322)
(-0.00003809 -0.00002217 0.00000000 -0.00001253 0.00000000 -0.00010979)
(-0.00004703 -0.00000336 0.00000000 0.00000650 0.00000000 0.00024231)
(-0.00013777 -0.00006610 0.00000000 -0.00003421 0.00000000 -0.00030176)
(-0.00000490 -0.00000359 0.00000000 -0.00000261 0.00000000 -0.00002445)
(-0.00002608 -0.00000241 0.00000000 0.00000398 0.00000000 0.00010066)
(-0.00017886 -0.00004149 0.00000000 -0.00000096 0.00000000 0.00022086)
(-0.00017837 -0.00005265 0.00000000 -0.00001133 0.00000000 -0.00031988)
(-0.00009740 -0.00003419 0.00000000 -0.00001413 0.00000000 -0.00019397)
(-0.00023672 0.00001022 0.00000000 0.00004378 0.00000000 -0.00011250)
(-0.00027052 -0.00004821 0.00000000 -0.00000368 0.00000000 0.00032161)
(-0.00020899 -0.00003143 0.00000000 -0.00000375 0.00000000 0.00003235)
(0.00006273 0.00001858 0.00000000 0.00000516 0.00000000 0.00004178)
(0.00154622 0.00000515 0.00000000 0.00000143 0.00000000 0.00086545)
(0.00320431 -0.00002201 0.00000000 0.00000683 0.00000000 0.00155897)
(0.00352165 -0.00003384 0.00000000 0.00000914 0.00000000 0.00173287)
(0.00929168 -0.00016151 0.00000000 0.00005342 0.00000000 0.00391017)
(0.01069056 -0.00021636 0.00000000 0.00008113 0.00000000 0.00445519)
(0.00922552 -0.00016894 0.00000000 0.00006057 0.00000000 0.00378941)
(0.00310270 -0.00077880 0.00000000 0.00022735 0.00000000 0.00196390)
(0.00146751 -0.00007245 0.00000000 -0.00000323 0.00000000 0.00112398)
(0.00171399 -0.00018088 0.00000000 0.00003784 0.00000000 0.00193617)
(0.00168415 -0.00098254 0.00000000 0.00062846 0.00000000 0.00274673)
(0.00269929 -0.00161511 0.00000000 0.00098063 0.00000000 0.00313712)
(0.00271810 -0.00167051 0.00000000 0.00108223 0.00000000 0.00353451)
(0.00394645 -0.00189439 0.00000000 0.00102351 0.00000000 0.00569122)
(0.00450880 -0.00242716 0.00000000 0.00143712 0.00000000 0.00627153)
(0.00418155 -0.00254711 0.00000000 0.00166090 0.00000000 0.00489902)
(0.00310246 -0.00188717 0.00000000 0.00118943 0.00000000 0.00307592)
(0.00468293 -0.00240142 0.00000000 0.00135983 0.00000000 0.00591609)
(0.00440846 -0.00252896 0.00000000 0.00153692 0.00000000 0.00467649)
(0.00383062 -0.00157443 0.00000000 0.00077768 0.00000000 0.00326699)
(0.00470707 -0.00254690 0.00000000 0.00149656 0.00000000 0.00544411)
(0.00373110 -0.00205228 0.00000000 0.00117663 0.00000000 0.00360925)
(0.00463270 -0.00243645 0.00000000 0.00140679 0.00000000 0.00524593)
(0.00391478 -0.00204539 0.00000000 0.00113016 0.00000000 0.00328275)
(0.00458510 -0.00236671 0.00000000 0.00133003 0.00000000 0.00495936)
(0.00476940 -0.00178172 0.00000000 0.00078616 0.00000000 0.00478899)
(0.00447530 -0.00185673 0.00000000 0.00089994 0.00000000 0.00559510)
(0.00453225 -0.00170573 0.00000000 0.00077435 0.00000000 0.00565009)
(0.00465844 -0.00190387 0.00000000 0.00091564 0.00000000 0.00561914)
(0.00465935 -0.00158537 0.00000000 0.00068859 0.00000000 0.00626361)
(0.00525298 -0.00184213 0.00000000 0.00081534 0.00000000 0.00646783)
(0.00584598 -0.00130772 0.00000000 0.00045199 0.00000000 0.00670525)
(0.00648921 -0.00112063 0.00000000 0.00038888 0.00000000 0.00734828)
(0.00686550 -0.00096035 0.00000000 0.00036347 0.00000000 0.00822496)
(0.00764026 -0.00097855 0.00000000 0.00036844 0.00000000 0.00862522)
(0.00752201 -0.00036091 0.00000000 0.00034380 0.00000000 0.01057209)
(0.00730728 -0.00002154 0.00000000 0.00020862 0.00000000 0.00925663)
(0.00759692 -0.00003328 0.00000000 0.00018287 0.00000000 0.00937728)
(0.00820053 -0.00002775 0.00000000 0.00019237 0.00000000 0.00994318)
(0.00846738 -0.00002666 0.00000000 0.00019900 0.00000000 0.01037890)
(0.00846775 -0.00003585 0.00000000 0.00019965 0.00000000 0.01053012)
(0.00843270 -0.00005016 0.00000000 0.00020024 0.00000000 0.01063661)
(0.00875038 -0.00006521 0.00000000 0.00020213 0.00000000 0.01071180)
(0.00869573 -0.00005959 0.00000000 0.00019394 0.00000000 0.01061323)
(0.00857844 -0.00007542 0.00000000 0.00019259 0.00000000 0.01058959)
(0.00853475 -0.00008768 0.00000000 0.00019184 0.00000000 0.01056793)
(0.00846661 -0.00009095 0.00000000 0.00018138 0.00000000 0.01045333)
(0.00845498 -0.00009110 0.00000000 0.00017916 0.00000000 0.01031458)
(0.00832517 -0.00010129 0.00000000 0.00017415 0.00000000 0.01015821)
(0.00822176 -0.00010465 0.00000000 0.00017057 0.00000000 0.01005937)
(0.00807729 -0.00011146 0.00000000 0.00016417 0.00000000 0.00988258)
(0.00806269 -0.00012140 0.00000000 0.00016317 0.00000000 0.00976323)
(0.00792744 -0.00012050 0.00000000 0.00015084 0.00000000 0.00947582)
(0.00777828 -0.00011492 0.00000000 0.00014634 0.00000000 0.00911102)
(0.00758600 -0.00011430 0.00000000 0.00013967 0.00000000 0.00893033)
(0.00741349 -0.00012455 0.00000000 0.00013172 0.00000000 0.00863725)
(0.00726424 -0.00012011 0.00000000 0.00013340 0.00000000 0.00836680)
(0.00709962 -0.00012461 0.00000000 0.00012521 0.00000000 0.00819936)
(0.00694798 -0.00012866 0.00000000 0.00011794 0.00000000 0.00796657)
(0.00689521 -0.00012514 0.00000000 0.00011556 0.00000000 0.00779557)
(0.00670723 -0.00012608 0.00000000 0.00010999 0.00000000 0.00760960)
(0.00651126 -0.00012409 0.00000000 0.00010496 0.00000000 0.00744718)
(0.00628625 -0.00012134 0.00000000 0.00010336 0.00000000 0.00728370)
(0.00618308 -0.00012395 0.00000000 0.00009940 0.00000000 0.00705096)
(0.00604530 -0.00012017 0.00000000 0.00009593 0.00000000 0.00681541)
(0.00588605 -0.00012507 0.00000000 0.00008912 0.00000000 0.00660438)
(0.00584357 -0.00012108 0.00000000 0.00008274 0.00000000 0.00639159)
(0.00570143 -0.00011790 0.00000000 0.00008217 0.00000000 0.00623265)
(0.00552528 -0.00011652 0.00000000 0.00007826 0.00000000 0.00609702)
(0.00539639 -0.00011569 0.00000000 0.00007615 0.00000000 0.00593706)
(0.00529996 -0.00011789 0.00000000 0.00007301 0.00000000 0.00580323)
(0.00525089 -0.00011846 0.00000000 0.00007075 0.00000000 0.00565635)
(0.00512954 -0.00011256 0.00000000 0.00006735 0.00000000 0.00552434)
(0.00511268 -0.00011815 0.00000000 0.00006650 0.00000000 0.00538146)
(0.00507793 -0.00011211 0.00000000 0.00006385 0.00000000 0.00524482)
(0.00492137 -0.00010464 0.00000000 0.00006023 0.00000000 0.00512577)
(0.00477340 -0.00010696 0.00000000 0.00005766 0.00000000 0.00494330)
(0.00465230 -0.00010055 0.00000000 0.00005458 0.00000000 0.00476942)
(0.00446167 -0.00009258 0.00000000 0.00005153 0.00000000 0.00459550)
(0.00431173 -0.00009364 0.00000000 0.00005027 0.00000000 0.00444639)
(0.00422157 -0.00009147 0.00000000 0.00004942 0.00000000 0.00432641)
(0.00410719 -0.00009231 0.00000000 0.00004950 0.00000000 0.00420115)
(0.00399120 -0.00008897 0.00000000 0.00004755 0.00000000 0.00410646)
(0.00386918 -0.00008663 0.00000000 0.00004604 0.00000000 0.00401396)
(0.00378011 -0.00008441 0.00000000 0.00004477 0.00000000 0.00393411)
(0.00365548 -0.00007934 0.00000000 0.00004379 0.00000000 0.00386497)
(0.00349758 -0.00007668 0.00000000 0.00004302 0.00000000 0.00378500)
(0.00331627 -0.00007192 0.00000000 0.00004061 0.00000000 0.00369987)
(0.00313903 -0.00006845 0.00000000 0.00003998 0.00000000 0.00361768)
(0.00293475 -0.00006135 0.00000000 0.00003917 0.00000000 0.00358506)
(0.00267081 -0.00005729 0.00000000 0.00003862 0.00000000 0.00357628)
(0.00263599 -0.00005492 0.00000000 0.00004684 0.00000000 0.00399359)
(0.00278080 0.00007586 0.00000000 0.00009276 0.00000000 0.00593064)
(0.00287781 0.00014837 0.00000000 0.00005982 0.00000000 0.00556919)
(0.00266234 0.00032222 0.00000000 0.00010593 0.00000000 0.00622653)
(0.00248105 0.00038619 0.00000000 0.00011528 0.00000000 0.00619042)
(0.00223073 0.00053226 0.00000000 0.00016593 0.00000000 0.00556772)
(0.00219574 0.00061269 0.00000000 0.00020936 0.00000000 0.00528055)
(0.00179091 0.00073896 0.00000000 0.00033151 0.00000000 0.00509966)
(0.00177770 0.00073837 0.00000000 0.00032972 0.00000000 0.00413324)
(0.00169547 0.00064533 0.00000000 0.00026920 0.00000000 0.00550241)
(0.00146725 0.00061562 0.00000000 0.00027563 0.00000000 0.00466743)
(0.00134619 0.00046301 0.00000000 0.00017450 0.00000000 0.00425238)
(0.00117842 0.00059115 0.00000000 0.00030254 0.00000000 0.00285153)
(0.00079498 0.00023071 0.00000000 0.00006061 0.00000000 0.00147579)
(0.00119675 0.00061527 0.00000000 0.00032160 0.00000000 0.00310198)
(0.00040653 0.00021549 0.00000000 0.00011367 0.00000000 0.00083946)
(0.00086913 0.00045935 0.00000000 0.00024639 0.00000000 0.00253670)
(0.00069713 0.00028164 0.00000000 0.00011381 0.00000000 0.00194199)
(0.00046086 0.00026524 0.00000000 0.00015237 0.00000000 0.00132042)
(0.00055307 0.00028908 0.00000000 0.00015383 0.00000000 0.00255166)
(0.00020965 0.00012810 0.00000000 0.00007688 0.00000000 0.00035084)
(0.00049451 0.00030053 0.00000000 0.00018182 0.00000000 0.00150015)
(0.00037127 0.00022708 0.00000000 0.00013724 0.00000000 0.00201404)
(0.00060077 0.00029513 0.00000000 0.00014773 0.00000000 0.00248627)
(0.00013805 0.00011990 0.00000000 0.00008477 0.00000000 0.00033385)
(0.00045604 0.00006515 0.00000000 -0.00001886 0.00000000 0.00076526)
(0.00082198 0.00041890 0.00000000 0.00020992 0.00000000 0.00106927)
(0.00090724 0.00024038 0.00000000 0.00007666 0.00000000 0.00163411)
(0.00058903 0.00003244 0.00000000 0.00000583 0.00000000 0.00093854)
(0.00253001 0.00033956 0.00000000 0.00004711 0.00000000 0.00095973)
(0.00520932 0.00000731 0.00000000 0.00001059 0.00000000 0.00221606)
(0.00762605 -0.00007300 0.00000000 0.00002586 0.00000000 0.00309650)
(0.00822469 -0.00011343 0.00000000 0.00003489 0.00000000 0.00345582)
(0.01561027 -0.00035156 0.00000000 0.00012145 0.00000000 0.00577110)
(0.01745952 -0.00046511 0.00000000 0.00018265 0.00000000 0.00657877)
(0.01677996 -0.00044669 0.00000000 0.00017570 0.00000000 0.00642724)
(0.00883738 -0.00154804 0.00000000 0.00039721 0.00000000 0.00367564)
(0.00460924 -0.00051420 0.00000000 0.00012452 0.00000000 0.00305177)
(0.00368731 -0.00069551 0.00000000 0.00030919 0.00000000 0.00438084)
(0.00391237 -0.00220559 0.00000000 0.00141993 0.00000000 0.00543595)
(0.00573629 -0.00299873 0.00000000 0.00182763 0.00000000 0.00633800)
(0.00599336 -0.00351674 0.00000000 0.00232895 0.00000000 0.00701050)
(0.00679294 -0.00342526 0.00000000 0.00209127 0.00000000 0.00896952)
(0.00688326 -0.00368498 0.00000000 0.00238727 0.00000000 0.00931150)
(0.00741209 -0.00443700 0.00000000 0.00302703 0.00000000 0.00893363)
(0.00732151 -0.00429502 0.00000000 0.00277277 0.00000000 0.00689631)
(0.00753697 -0.00384232 0.00000000 0.00236190 0.00000000 0.00900129)
(0.00739057 -0.00413620 0.00000000 0.00266423 0.00000000 0.00816151)
(0.00824014 -0.00366077 0.00000000 0.00200590 0.00000000 0.00763157)
(0.00747244 -0.00392688 0.00000000 0.00248251 0.00000000 0.00864504)
(0.00754501 -0.00386452 0.00000000 0.00229992 0.00000000 0.00743598)
(0.00765462 -0.00392495 0.00000000 0.00243034 0.00000000 0.00859594)
(0.00823214 -0.00378502 0.00000000 0.00209825 0.00000000 0.00721853)
(0.00767509 -0.00386359 0.00000000 0.00234887 0.00000000 0.00827552)
(0.00836443 -0.00346454 0.00000000 0.00187778 0.00000000 0.00805967)
(0.00793926 -0.00332526 0.00000000 0.00182830 0.00000000 0.00880844)
(0.00807688 -0.00316709 0.00000000 0.00171350 0.00000000 0.00904719)
(0.00818542 -0.00306100 0.00000000 0.00162697 0.00000000 0.00921956)
(0.00826735 -0.00274188 0.00000000 0.00141506 0.00000000 0.00982225)
(0.00899227 -0.00265382 0.00000000 0.00135658 0.00000000 0.01055855)
(0.00953307 -0.00229694 0.00000000 0.00114434 0.00000000 0.01070558)
(0.01011968 -0.00196660 0.00000000 0.00107866 0.00000000 0.01179254)
(0.01055564 -0.00166229 0.00000000 0.00102850 0.00000000 0.01278117)
(0.01109198 -0.00137297 0.00000000 0.00100031 0.00000000 0.01353788)
(0.01087600 -0.00065014 0.00000000 0.00098896 0.00000000 0.01502510)
(0.01157803 -0.00020460 0.00000000 0.00082576 0.00000000 0.01511258)
(0.01262521 -0.00021199 0.00000000 0.00079986 0.00000000 0.01597670)
(0.01349610 -0.00018566 0.00000000 0.00082632 0.00000000 0.01692498)
(0.01386859 -0.00019409 0.00000000 0.00086671 0.00000000 0.01748583)
(0.01410016 -0.00021374 0.00000000 0.00086288 0.00000000 0.01776014)
(0.01424589 -0.00024032 0.00000000 0.00086483 0.00000000 0.01796512)
(0.01477813 -0.00027958 0.00000000 0.00087566 0.00000000 0.01808181)
(0.01481288 -0.00025551 0.00000000 0.00085094 0.00000000 0.01799700)
(0.01475344 -0.00029136 0.00000000 0.00083784 0.00000000 0.01807135)
(0.01472737 -0.00031643 0.00000000 0.00082906 0.00000000 0.01806514)
(0.01472999 -0.00032364 0.00000000 0.00079327 0.00000000 0.01796136)
(0.01476631 -0.00031996 0.00000000 0.00078390 0.00000000 0.01773677)
(0.01466679 -0.00033126 0.00000000 0.00076097 0.00000000 0.01755381)
(0.01454893 -0.00034199 0.00000000 0.00075178 0.00000000 0.01742764)
(0.01442279 -0.00035516 0.00000000 0.00072241 0.00000000 0.01720674)
(0.01441513 -0.00037510 0.00000000 0.00071832 0.00000000 0.01699543)
(0.01430221 -0.00038420 0.00000000 0.00068242 0.00000000 0.01654260)
(0.01420742 -0.00036209 0.00000000 0.00064434 0.00000000 0.01609332)
(0.01398026 -0.00035824 0.00000000 0.00062871 0.00000000 0.01577750)
(0.01377966 -0.00038117 0.00000000 0.00059387 0.00000000 0.01535735)
(0.01355494 -0.00037336 0.00000000 0.00058716 0.00000000 0.01493524)
(0.01332509 -0.00038230 0.00000000 0.00056723 0.00000000 0.01458574)
(0.01314152 -0.00039757 0.00000000 0.00054328 0.00000000 0.01422596)
(0.01306289 -0.00038880 0.00000000 0.00053113 0.00000000 0.01398192)
(0.01280701 -0.00038300 0.00000000 0.00050282 0.00000000 0.01371287)
(0.01248736 -0.00038039 0.00000000 0.00048364 0.00000000 0.01342170)
(0.01220557 -0.00038179 0.00000000 0.00047279 0.00000000 0.01316929)
(0.01206019 -0.00038195 0.00000000 0.00045328 0.00000000 0.01282148)
(0.01183791 -0.00037243 0.00000000 0.00044072 0.00000000 0.01239610)
(0.01160610 -0.00038832 0.00000000 0.00041644 0.00000000 0.01202493)
(0.01155041 -0.00038220 0.00000000 0.00039466 0.00000000 0.01169973)
(0.01137763 -0.00037120 0.00000000 0.00038112 0.00000000 0.01149149)
(0.01108840 -0.00037009 0.00000000 0.00037155 0.00000000 0.01125675)
(0.01087852 -0.00036930 0.00000000 0.00035804 0.00000000 0.01101289)
(0.01074356 -0.00037681 0.00000000 0.00034212 0.00000000 0.01078934)
(0.01064440 -0.00038055 0.00000000 0.00033623 0.00000000 0.01053455)
(0.01050624 -0.00037188 0.00000000 0.00032269 0.00000000 0.01032028)
(0.01050756 -0.00038309 0.00000000 0.00031313 0.00000000 0.01008795)
(0.01045421 -0.00036611 0.00000000 0.00030018 0.00000000 0.00986980)
(0.01022504 -0.00034957 0.00000000 0.00028902 0.00000000 0.00964671)
(0.01000544 -0.00035309 0.00000000 0.00027499 0.00000000 0.00935712)
(0.00979822 -0.00033596 0.00000000 0.00026215 0.00000000 0.00907518)
(0.00948096 -0.00031954 0.00000000 0.00025098 0.00000000 0.00877360)
(0.00924542 -0.00032153 0.00000000 0.00024161 0.00000000 0.00850882)
(0.00906550 -0.00031450 0.00000000 0.00023549 0.00000000 0.00828952)
(0.00883839 -0.00031372 0.00000000 0.00023167 0.00000000 0.00804596)
(0.00863966 -0.00030901 0.00000000 0.00022607 0.00000000 0.00786748)
(0.00841841 -0.00030225 0.00000000 0.00021914 0.00000000 0.00767980)
(0.00823766 -0.00029928 0.00000000 0.00021538 0.00000000 0.00752552)
(0.00803961 -0.00028877 0.00000000 0.00021047 0.00000000 0.00741156)
(0.00775256 -0.00027703 0.00000000 0.00020223 0.00000000 0.00727345)
(0.00742477 -0.00026335 0.00000000 0.00019503 0.00000000 0.00711402)
(0.00705161 -0.00024905 0.00000000 0.00018813 0.00000000 0.00697887)
(0.00660072 -0.00022702 0.00000000 0.00018471 0.00000000 0.00691702)
(0.00604563 -0.00021309 0.00000000 0.00017926 0.00000000 0.00690347)
(0.00567626 -0.00019929 0.00000000 0.00019956 0.00000000 0.00729926)
(0.00552833 -0.00000019 0.00000000 0.00026983 0.00000000 0.00910628)
(0.00574385 0.00025618 0.00000000 0.00025048 0.00000000 0.00992289)
(0.00572797 0.00050994 0.00000000 0.00028323 0.00000000 0.01095180)
(0.00566429 0.00076582 0.00000000 0.00031838 0.00000000 0.01140752)
(0.00561795 0.00109588 0.00000000 0.00040285 0.00000000 0.01140185)
(0.00537799 0.00133412 0.00000000 0.00051362 0.00000000 0.01177509)
(0.00499104 0.00155945 0.00000000 0.00065514 0.00000000 0.01170419)
(0.00523712 0.00173163 0.00000000 0.00070592 0.00000000 0.01134409)
(0.00469222 0.00167342 0.00000000 0.00072690 0.00000000 0.01175247)
(0.00453520 0.00176281 0.00000000 0.00079923 0.00000000 0.01141431)
(0.00464353 0.00174715 0.00000000 0.00075077 0.00000000 0.01028276)
(0.00446552 0.00210812 0.00000000 0.00106972 0.00000000 0.01029200)
(0.00445739 0.00185040 0.00000000 0.00081987 0.00000000 0.00790916)
(0.00426605 0.00206431 0.00000000 0.00106116 0.00000000 0.01018669)
(0.00364621 0.00195474 0.00000000 0.00107524 0.00000000 0.00647538)
(0.00347522 0.00170014 0.00000000 0.00088015 0.00000000 0.00883563)
(0.00300828 0.00124541 0.00000000 0.00054895 0.00000000 0.00709321)
(0.00290920 0.00155172 0.00000000 0.00085045 0.00000000 0.00729574)
(0.00265104 0.00125966 0.00000000 0.00063298 0.00000000 0.00806216)
(0.00223269 0.00114922 0.00000000 0.00061098 0.00000000 0.00410735)
(0.00245822 0.00138508 0.00000000 0.00079813 0.00000000 0.00661511)
(0.00247486 0.00123079 0.00000000 0.00063403 0.00000000 0.00773884)
(0.00246671 0.00112945 0.00000000 0.00053856 0.00000000 0.00707871)
(0.00217094 0.00094688 0.00000000 0.00043700 0.00000000 0.00365387)
(0.00268870 0.00080731 0.00000000 0.00023465 0.00000000 0.00400052)
(0.00385029 0.00129597 0.00000000 0.00047989 0.00000000 0.00431685)
(0.00508040 0.00121831 0.00000000 0.00032962 0.00000000 0.00501719)
(0.00503656 0.00059447 0.00000000 0.00009140 0.00000000 0.00356180)
(0.00776723 0.00088881 0.00000000 0.00011692 0.00000000 0.00309832)
(0.01140234 0.00001675 0.00000000 0.00003360 0.00000000 0.00421185)
(0.01363466 -0.00015804 0.00000000 0.00005939 0.00000000 0.00477108)
(0.01430278 -0.00025646 0.00000000 0.00008231 0.00000000 0.00512591)
(0.02229029 -0.00063198 0.00000000 0.00022411 0.00000000 0.00708428)
(0.02409223 -0.00081894 0.00000000 0.00033086 0.00000000 0.00803234)
(0.02401019 -0.00085398 0.00000000 0.00035841 0.00000000 0.00842590)
(0.01778418 -0.00215146 0.00000000 0.00053990 0.00000000 0.00578755)
(0.00977297 -0.00131740 0.00000000 0.00039906 0.00000000 0.00536389)
(0.00587645 -0.00126584 0.00000000 0.00065485 0.00000000 0.00673890)
(0.00592530 -0.00297374 0.00000000 0.00208407 0.00000000 0.00806904)
(0.00809257 -0.00380060 0.00000000 0.00255840 0.00000000 0.00961674)
(0.00910035 -0.00488191 0.00000000 0.00341102 0.00000000 0.01062936)
(0.00897970 -0.00458314 0.00000000 0.00321525 0.00000000 0.01182578)
(0.00911063 -0.00482266 0.00000000 0.00345779 0.00000000 0.01214871)
(0.00925437 -0.00535493 0.00000000 0.00396527 0.00000000 0.01178039)
(0.01083640 -0.00574195 0.00000000 0.00382448 0.00000000 0.01060163)
(0.00998391 -0.00501777 0.00000000 0.00340804 0.00000000 0.01158133)
(0.00991423 -0.00539539 0.00000000 0.00376165 0.00000000 0.01112143)
(0.01070131 -0.00493367 0.00000000 0.00316308 0.00000000 0.01051272)
(0.00987887 -0.00504367 0.00000000 0.00348749 0.00000000 0.01126589)
(0.01032699 -0.00518154 0.00000000 0.00338114 0.00000000 0.01034029)
(0.01020020 -0.00509046 0.00000000 0.00346312 0.00000000 0.01121360)
(0.01083537 -0.00498208 0.00000000 0.00315543 0.00000000 0.01038622)
(0.01041664 -0.00511711 0.00000000 0.00342341 0.00000000 0.01104466)
(0.01112476 -0.00473263 0.00000000 0.00297244 0.00000000 0.01088992)
(0.01071743 -0.00450678 0.00000000 0.00285291 0.00000000 0.01135982)
(0.01069256 -0.00423074 0.00000000 0.00269524 0.00000000 0.01160446)
(0.01104559 -0.00397947 0.00000000 0.00250376 0.00000000 0.01188216)
(0.01114659 -0.00369116 0.00000000 0.00233346 0.00000000 0.01241728)
(0.01162246 -0.00334769 0.00000000 0.00218698 0.00000000 0.01328087)
(0.01226387 -0.00297310 0.00000000 0.00200221 0.00000000 0.01380585)
(0.01253905 -0.00254999 0.00000000 0.00199087 0.00000000 0.01481993)
(0.01288486 -0.00209750 0.00000000 0.00192736 0.00000000 0.01577151)
(0.01329468 -0.00169852 0.00000000 0.00190742 0.00000000 0.01676963)
(0.01320459 -0.00094437 0.00000000 0.00189862 0.00000000 0.01806341)
(0.01435758 -0.00052510 0.00000000 0.00179554 0.00000000 0.01902049)
(0.01576360 -0.00053019 0.00000000 0.00180403 0.00000000 0.02032252)
(0.01669154 -0.00046959 0.00000000 0.00185215 0.00000000 0.02146962)
(0.01722575 -0.00049316 0.00000000 0.00192806 0.00000000 0.02209915)
(0.01761666 -0.00051568 0.00000000 0.00193462 0.00000000 0.02238036)
(0.01795997 -0.00055151 0.00000000 0.00194877 0.00000000 0.02264596)
(0.01862690 -0.00060805 0.00000000 0.00196495 0.00000000 0.02282063)
(0.01875332 -0.00054588 0.00000000 0.00191422 0.00000000 0.02284145)
(0.01877696 -0.00059779 0.00000000 0.00188954 0.00000000 0.02303620)
(0.01880296 -0.00062856 0.00000000 0.00186372 0.00000000 0.02302074)
(0.01886458 -0.00063646 0.00000000 0.00180176 0.00000000 0.02295942)
(0.01896834 -0.00062163 0.00000000 0.00178357 0.00000000 0.02272976)
(0.01888537 -0.00062090 0.00000000 0.00173922 0.00000000 0.02251659)
(0.01883131 -0.00063658 0.00000000 0.00171527 0.00000000 0.02243652)
(0.01874081 -0.00064900 0.00000000 0.00166114 0.00000000 0.02223526)
(0.01879485 -0.00067340 0.00000000 0.00164274 0.00000000 0.02197200)
(0.01875925 -0.00069367 0.00000000 0.00156530 0.00000000 0.02145380)
(0.01871021 -0.00065135 0.00000000 0.00149507 0.00000000 0.02096254)
(0.01854444 -0.00063910 0.00000000 0.00145799 0.00000000 0.02060367)
(0.01837261 -0.00066911 0.00000000 0.00138411 0.00000000 0.02016414)
(0.01813565 -0.00065819 0.00000000 0.00136189 0.00000000 0.01966116)
(0.01790901 -0.00066636 0.00000000 0.00131881 0.00000000 0.01917424)
(0.01773744 -0.00068807 0.00000000 0.00126823 0.00000000 0.01876578)
(0.01761763 -0.00067713 0.00000000 0.00124807 0.00000000 0.01846340)
(0.01734954 -0.00065663 0.00000000 0.00118775 0.00000000 0.01816764)
(0.01701216 -0.00064904 0.00000000 0.00113953 0.00000000 0.01783208)
(0.01674675 -0.00066324 0.00000000 0.00111392 0.00000000 0.01750539)
(0.01659564 -0.00065490 0.00000000 0.00106900 0.00000000 0.01711720)
(0.01636712 -0.00064016 0.00000000 0.00104144 0.00000000 0.01658988)
(0.01612941 -0.00066553 0.00000000 0.00098569 0.00000000 0.01615405)
(0.01603034 -0.00066079 0.00000000 0.00094114 0.00000000 0.01577570)
(0.01584323 -0.00064202 0.00000000 0.00091498 0.00000000 0.01552279)