/*--------------------------------*- C++ -*----------------------------------*\
  =========                 |
  \\      /  F ield         | OpenFOAM: The Open Source CFD Toolbox
   \\    /   O peration     | Website:  https://openfoam.org
    \\  /    A nd           | Version:  7
     \\/     M anipulation  |
\*---------------------------------------------------------------------------*/
FoamFile
{
    version     2.0;
    format      ascii;
    class       volVectorField;
    location    "0";
    object      U_LES;
}
// * * * * * * * * * * * * * * * * * * * * * * * * * * * * * * * * * * * * * //

dimensions      [0 1 -1 0 0 0 0];

internalField   nonuniform List<vector>
15600
(
(0.05669660 -0.00026266 0.00000000)
(0.06329576 -0.00044167 0.00000000)
(0.05283616 -0.00038543 0.00000000)
(0.00781814 -0.00382173 0.00000000)
(0.00256641 -0.00008838 0.00000000)
(-0.00294427 -0.00035540 0.00000000)
(-0.00499257 0.00312979 0.00000000)
(-0.00470895 0.00330630 0.00000000)
(-0.00650822 0.00403284 0.00000000)
(-0.00897510 0.00353249 0.00000000)
(-0.01091552 0.00604698 0.00000000)
(-0.01238509 0.00766632 0.00000000)
(-0.00879784 0.00535610 0.00000000)
(-0.01476652 0.00740522 0.00000000)
(-0.01481126 0.00862883 0.00000000)
(-0.00733294 0.00343702 0.00000000)
(-0.01844089 0.01008909 0.00000000)
(-0.01162665 0.00634276 0.00000000)
(-0.02142791 0.01152654 0.00000000)
(-0.01181978 0.00632720 0.00000000)
(-0.02081492 0.01097884 0.00000000)
(-0.01816674 0.00469378 0.00000000)
(-0.02243886 0.00966125 0.00000000)
(-0.02508913 0.00861163 0.00000000)
(-0.02534611 0.01145357 0.00000000)
(-0.02772268 0.01034573 0.00000000)
(-0.02746052 0.01121349 0.00000000)
(-0.02627109 0.00528074 0.00000000)
(-0.03084885 0.00159794 0.00000000)
(-0.03550616 0.00323724 0.00000000)
(-0.03697607 0.00376143 0.00000000)
(-0.04423623 0.00194728 0.00000000)
(-0.03140050 0.00004919 0.00000000)
(-0.02645995 -0.00001748 0.00000000)
(-0.02634645 -0.00001942 0.00000000)
(-0.02476902 -0.00004146 0.00000000)
(-0.02228005 -0.00004824 0.00000000)
(-0.01966656 -0.00003566 0.00000000)
(-0.01753612 -0.00003015 0.00000000)
(-0.01546975 -0.00003421 0.00000000)
(-0.01348726 -0.00003243 0.00000000)
(-0.01155364 -0.00002488 0.00000000)
(-0.00950526 -0.00003590 0.00000000)
(-0.00710739 -0.00004013 0.00000000)
(-0.00462751 -0.00003561 0.00000000)
(-0.00238233 -0.00003965 0.00000000)
(-0.00030324 -0.00002650 0.00000000)
(0.00145071 -0.00003008 0.00000000)
(0.00365424 -0.00003194 0.00000000)
(0.00503955 -0.00002008 0.00000000)
(0.00632744 -0.00002354 0.00000000)
(0.00785045 -0.00002010 0.00000000)
(0.00916130 -0.00002097 0.00000000)
(0.01071550 -0.00002450 0.00000000)
(0.01216542 -0.00001766 0.00000000)
(0.01341356 -0.00002176 0.00000000)
(0.01483312 -0.00002054 0.00000000)
(0.01610466 -0.00002077 0.00000000)
(0.01729156 -0.00001930 0.00000000)
(0.01817919 -0.00001042 0.00000000)
(0.01885869 -0.00001309 0.00000000)
(0.01971197 -0.00001047 0.00000000)
(0.02015243 -0.00000705 0.00000000)
(0.02066040 -0.00001150 0.00000000)
(0.02132318 -0.00000989 0.00000000)
(0.02184453 -0.00000767 0.00000000)
(0.02233736 -0.00000680 0.00000000)
(0.02272373 -0.00000510 0.00000000)
(0.02315885 -0.00000879 0.00000000)
(0.02343828 -0.00000133 0.00000000)
(0.02349747 -0.00000060 0.00000000)
(0.02372436 -0.00000519 0.00000000)
(0.02382388 0.00000144 0.00000000)
(0.02371417 0.00000312 0.00000000)
(0.02355911 0.00000222 0.00000000)
(0.02330040 0.00000485 0.00000000)
(0.02291050 0.00000635 0.00000000)
(0.02253261 0.00000905 0.00000000)
(0.02196675 0.00000897 0.00000000)
(0.02140116 0.00000998 0.00000000)
(0.02072809 0.00001535 0.00000000)
(0.01976652 0.00001594 0.00000000)
(0.01873754 0.00001695 0.00000000)
(0.01756021 0.00002524 0.00000000)
(0.01588285 0.00002797 0.00000000)
(0.01395243 0.00003452 0.00000000)
(0.01168913 0.00004614 0.00000000)
(0.01069755 0.00008632 0.00000000)
(0.01226593 0.00015336 0.00000000)
(0.01061026 0.00036696 0.00000000)
(0.01244255 0.00155014 0.00000000)
(0.01228380 0.00245856 0.00000000)
(0.00880301 0.00268309 0.00000000)
(0.00684263 0.00293245 0.00000000)
(0.00893133 0.00417752 0.00000000)
(0.00779367 0.00434502 0.00000000)
(0.01258216 0.00639713 0.00000000)
(0.01233116 0.00571671 0.00000000)
(0.00632181 0.00340261 0.00000000)
(0.00443846 0.00237839 0.00000000)
(-0.00639371 -0.00252368 0.00000000)
(0.00580822 0.00322135 0.00000000)
(-0.00497756 -0.00272727 0.00000000)
(0.01754794 0.01017159 0.00000000)
(0.00114535 -0.00001974 0.00000000)
(-0.00382789 -0.00221361 0.00000000)
(0.02033416 0.01268730 0.00000000)
(0.00607183 0.00414928 0.00000000)
(-0.00274903 -0.00171425 0.00000000)
(0.01058679 0.00703321 0.00000000)
(0.02180008 0.01637823 0.00000000)
(-0.01543319 -0.00404481 0.00000000)
(-0.01769497 -0.00755139 0.00000000)
(-0.00413307 0.00766193 0.00000000)
(0.02915976 0.00701788 0.00000000)
(0.02492407 0.00172870 0.00000000)
(0.00385559 0.00162804 0.00000000)
(0.05958806 0.00156094 0.00000000)
(0.06049095 0.00060214 0.00000000)
(0.05392195 0.00001255 0.00000000)
(0.09719468 -0.00046532 0.00000000)
(0.10573463 -0.00094906 0.00000000)
(0.09762914 -0.00115273 0.00000000)
(0.04054801 -0.00657822 0.00000000)
(0.01110968 -0.00088562 0.00000000)
(-0.00667931 0.00018157 0.00000000)
(-0.01077588 0.00610238 0.00000000)
(-0.01155317 0.00747753 0.00000000)
(-0.01520046 0.00902560 0.00000000)
(-0.01829685 0.00814045 0.00000000)
(-0.02231415 0.01148764 0.00000000)
(-0.02545857 0.01544461 0.00000000)
(-0.02395891 0.01465603 0.00000000)
(-0.02989796 0.01516495 0.00000000)
(-0.03385883 0.01943317 0.00000000)
(-0.03137376 0.01429455 0.00000000)
(-0.03858780 0.02089252 0.00000000)
(-0.03710373 0.02058577 0.00000000)
(-0.04317663 0.02293986 0.00000000)
(-0.03963836 0.02196591 0.00000000)
(-0.04704505 0.02462364 0.00000000)
(-0.04942157 0.01972832 0.00000000)
(-0.05243106 0.02209922 0.00000000)
(-0.05593280 0.02148260 0.00000000)
(-0.05968287 0.02570047 0.00000000)
(-0.06208723 0.02124804 0.00000000)
(-0.06570373 0.02451415 0.00000000)
(-0.07008726 0.01634381 0.00000000)
(-0.07477408 0.01330002 0.00000000)
(-0.07674226 0.01074158 0.00000000)
(-0.07992553 0.01110329 0.00000000)
(-0.07698372 0.00327481 0.00000000)
(-0.07145665 0.00012449 0.00000000)
(-0.06812316 -0.00004502 0.00000000)
(-0.06605495 -0.00012546 0.00000000)
(-0.06159946 -0.00038523 0.00000000)
(-0.05423129 -0.00051442 0.00000000)
(-0.04725083 -0.00039902 0.00000000)
(-0.04148134 -0.00035769 0.00000000)
(-0.03589314 -0.00036723 0.00000000)
(-0.03036437 -0.00035271 0.00000000)
(-0.02501298 -0.00029646 0.00000000)
(-0.01949833 -0.00038435 0.00000000)
(-0.01313378 -0.00042527 0.00000000)
(-0.00641969 -0.00040011 0.00000000)
(-0.00062422 -0.00039831 0.00000000)
(0.00523213 -0.00031009 0.00000000)
(0.01015616 -0.00035308 0.00000000)
(0.01575168 -0.00031647 0.00000000)
(0.01982037 -0.00023097 0.00000000)
(0.02340797 -0.00026009 0.00000000)
(0.02742309 -0.00022316 0.00000000)
(0.03138341 -0.00024942 0.00000000)
(0.03551328 -0.00027666 0.00000000)
(0.03944583 -0.00021065 0.00000000)
(0.04292980 -0.00024349 0.00000000)
(0.04676893 -0.00023106 0.00000000)
(0.05025647 -0.00021508 0.00000000)
(0.05352540 -0.00020251 0.00000000)
(0.05601784 -0.00012845 0.00000000)
(0.05804152 -0.00014532 0.00000000)
(0.06033576 -0.00011472 0.00000000)
(0.06176850 -0.00007919 0.00000000)
(0.06328282 -0.00012412 0.00000000)
(0.06519457 -0.00010791 0.00000000)
(0.06670567 -0.00009173 0.00000000)
(0.06811836 -0.00008153 0.00000000)
(0.06933228 -0.00006028 0.00000000)
(0.07064084 -0.00008700 0.00000000)
(0.07142836 -0.00002100 0.00000000)
(0.07182563 -0.00001635 0.00000000)
(0.07251149 -0.00004958 0.00000000)
(0.07286544 0.00000856 0.00000000)
(0.07269202 0.00002568 0.00000000)
(0.07236985 0.00002340 0.00000000)
(0.07174555 0.00005386 0.00000000)
(0.07078808 0.00006759 0.00000000)
(0.06975135 0.00008237 0.00000000)
(0.06843411 0.00009562 0.00000000)
(0.06693662 0.00010635 0.00000000)
(0.06507101 0.00013765 0.00000000)
(0.06274920 0.00016125 0.00000000)
(0.06012490 0.00019130 0.00000000)
(0.05675433 0.00024389 0.00000000)
(0.05251796 0.00030576 0.00000000)
(0.04735965 0.00035480 0.00000000)
(0.04122704 0.00045744 0.00000000)
(0.03601721 0.00072440 0.00000000)
(0.03558795 0.00172447 0.00000000)
(0.03905124 0.00345996 0.00000000)
(0.04279030 0.00644994 0.00000000)
(0.04673547 0.00906024 0.00000000)
(0.05010012 0.01390458 0.00000000)
(0.05612930 0.01677311 0.00000000)
(0.05713338 0.02539387 0.00000000)
(0.06155430 0.02579502 0.00000000)
(0.06721006 0.02805369 0.00000000)
(0.06904617 0.03153714 0.00000000)
(0.06971452 0.02667268 0.00000000)
(0.07110253 0.03715610 0.00000000)
(0.06066201 0.01833081 0.00000000)
(0.08291115 0.04443158 0.00000000)
(0.04808585 0.02657962 0.00000000)
(0.07955915 0.04398489 0.00000000)
(0.05971226 0.02419631 0.00000000)
(0.06592602 0.03832018 0.00000000)
(0.07876269 0.04442811 0.00000000)
(0.03331581 0.01942021 0.00000000)
(0.07091141 0.04375819 0.00000000)
(0.08436306 0.05170295 0.00000000)
(0.08652604 0.04879974 0.00000000)
(0.03806648 0.02380635 0.00000000)
(0.06477097 0.01733775 0.00000000)
(0.05438486 0.02881332 0.00000000)
(0.10323611 0.03331047 0.00000000)
(0.10221476 0.00545397 0.00000000)
(0.10410423 0.01624839 0.00000000)
(0.12286870 0.00395859 0.00000000)
(0.11024310 0.00157463 0.00000000)
(0.09639102 0.00021065 0.00000000)
(0.14618248 -0.00069680 0.00000000)
(0.15486497 -0.00164925 0.00000000)
(0.14887232 -0.00229458 0.00000000)
(0.09074000 -0.00899026 0.00000000)
(0.02945653 -0.00306136 0.00000000)
(-0.00751298 0.00053157 0.00000000)
(-0.01695336 0.00980301 0.00000000)
(-0.01971069 0.01167244 0.00000000)
(-0.02379246 0.01464644 0.00000000)
(-0.02821941 0.01374617 0.00000000)
(-0.03189053 0.01681987 0.00000000)
(-0.03739436 0.02237980 0.00000000)
(-0.03870039 0.02472781 0.00000000)
(-0.04278655 0.02220964 0.00000000)
(-0.04785277 0.02711055 0.00000000)
(-0.05124859 0.02568006 0.00000000)
(-0.05354853 0.02871981 0.00000000)
(-0.05651590 0.03001651 0.00000000)
(-0.05996516 0.03159976 0.00000000)
(-0.06334125 0.03240766 0.00000000)
(-0.06601900 0.03439194 0.00000000)
(-0.07255272 0.03237037 0.00000000)
(-0.07585573 0.03316037 0.00000000)
(-0.08110808 0.03322609 0.00000000)
(-0.08448578 0.03403631 0.00000000)
(-0.08816619 0.03012542 0.00000000)
(-0.09293461 0.02930262 0.00000000)
(-0.09644736 0.02497812 0.00000000)
(-0.10158827 0.02065581 0.00000000)
(-0.10289773 0.01658385 0.00000000)
(-0.10441729 0.01320972 0.00000000)
(-0.09981381 0.00471325 0.00000000)
(-0.09735840 0.00030088 0.00000000)
(-0.09364195 -0.00027206 0.00000000)
(-0.08943722 -0.00048128 0.00000000)
(-0.08186798 -0.00108943 0.00000000)
(-0.07141109 -0.00134158 0.00000000)
(-0.06169292 -0.00104472 0.00000000)
(-0.05332496 -0.00097962 0.00000000)
(-0.04499592 -0.00098274 0.00000000)
(-0.03689518 -0.00094744 0.00000000)
(-0.02913349 -0.00082782 0.00000000)
(-0.02101622 -0.00101811 0.00000000)
(-0.01192275 -0.00112927 0.00000000)
(-0.00251641 -0.00105270 0.00000000)
(0.00596875 -0.00104563 0.00000000)
(0.01433466 -0.00084289 0.00000000)
(0.02176190 -0.00096892 0.00000000)
(0.02980006 -0.00084370 0.00000000)
(0.03587237 -0.00062258 0.00000000)
(0.04134401 -0.00070199 0.00000000)
(0.04735541 -0.00064122 0.00000000)
(0.05355952 -0.00068392 0.00000000)
(0.05945869 -0.00073819 0.00000000)
(0.06512741 -0.00058148 0.00000000)
(0.07055809 -0.00066534 0.00000000)
(0.07625622 -0.00063017 0.00000000)
(0.08147414 -0.00058664 0.00000000)
(0.08636085 -0.00053269 0.00000000)
(0.09023923 -0.00036912 0.00000000)
(0.09353725 -0.00039727 0.00000000)
(0.09692387 -0.00032547 0.00000000)
(0.09941651 -0.00024428 0.00000000)
(0.10211026 -0.00033142 0.00000000)
(0.10490454 -0.00030004 0.00000000)
(0.10752231 -0.00026339 0.00000000)
(0.10981394 -0.00023334 0.00000000)
(0.11180128 -0.00019762 0.00000000)
(0.11398723 -0.00022539 0.00000000)
(0.11540773 -0.00008483 0.00000000)
(0.11642605 -0.00007601 0.00000000)
(0.11761428 -0.00013720 0.00000000)
(0.11838365 0.00000169 0.00000000)
(0.11840266 0.00004345 0.00000000)
(0.11821264 0.00005437 0.00000000)
(0.11764792 0.00013069 0.00000000)
(0.11658307 0.00016421 0.00000000)
(0.11528101 0.00020300 0.00000000)
(0.11357801 0.00024017 0.00000000)
(0.11161800 0.00027623 0.00000000)
(0.10906212 0.00035078 0.00000000)
(0.10606718 0.00041413 0.00000000)
(0.10252139 0.00050028 0.00000000)
(0.09782307 0.00064424 0.00000000)
(0.09190427 0.00080627 0.00000000)
(0.08466302 0.00094384 0.00000000)
(0.07589039 0.00120779 0.00000000)
(0.06764464 0.00173248 0.00000000)
(0.06534204 0.00360620 0.00000000)
(0.07032115 0.00714230 0.00000000)
(0.07629252 0.01114344 0.00000000)
(0.08387129 0.01627423 0.00000000)
(0.09173508 0.02303829 0.00000000)
(0.09915394 0.02998284 0.00000000)
(0.10556939 0.03967324 0.00000000)
(0.11677852 0.04468894 0.00000000)
(0.11970120 0.04951357 0.00000000)
(0.12836067 0.05685958 0.00000000)
(0.13632089 0.05758252 0.00000000)
(0.14748242 0.07559335 0.00000000)
(0.15096009 0.06471743 0.00000000)
(0.16443357 0.08647539 0.00000000)
(0.15333779 0.08747721 0.00000000)
(0.16248327 0.08747205 0.00000000)
(0.15861142 0.06759921 0.00000000)
(0.16783758 0.09560016 0.00000000)
(0.16789573 0.08999186 0.00000000)
(0.16229928 0.08026480 0.00000000)
(0.18883115 0.11419780 0.00000000)
(0.20123501 0.11285517 0.00000000)
(0.20551996 0.10888583 0.00000000)
(0.19887069 0.08779479 0.00000000)
(0.22777672 0.07263423 0.00000000)
(0.23803673 0.08505019 0.00000000)
(0.25553400 0.07458076 0.00000000)
(0.23897075 0.02727416 0.00000000)
(0.24416330 0.03579238 0.00000000)
(0.20888572 0.00802945 0.00000000)
(0.17333347 0.00305070 0.00000000)
(0.14925849 0.00059074 0.00000000)
(0.20189479 -0.00087094 0.00000000)
(0.20833214 -0.00237148 0.00000000)
(0.20258659 -0.00357489 0.00000000)
(0.14966620 -0.00998030 0.00000000)
(0.05899000 -0.00618617 0.00000000)
(-0.00336668 0.00025769 0.00000000)
(-0.02202171 0.01218463 0.00000000)
(-0.02774422 0.01521444 0.00000000)
(-0.03235562 0.01958902 0.00000000)
(-0.03776083 0.01951127 0.00000000)
(-0.04163015 0.02251440 0.00000000)
(-0.04581623 0.02716678 0.00000000)
(-0.05066592 0.03093109 0.00000000)
(-0.05426115 0.02869003 0.00000000)
(-0.05980125 0.03371945 0.00000000)
(-0.06480112 0.03318044 0.00000000)
(-0.06638241 0.03538247 0.00000000)
(-0.07042987 0.03787288 0.00000000)
(-0.07440243 0.03901960 0.00000000)
(-0.07950714 0.04037718 0.00000000)
(-0.08264708 0.04295932 0.00000000)
(-0.09020050 0.04221262 0.00000000)
(-0.09425473 0.04239678 0.00000000)
(-0.09947740 0.04218739 0.00000000)
(-0.10426678 0.04113413 0.00000000)
(-0.10854907 0.03815125 0.00000000)
(-0.11179297 0.03452403 0.00000000)
(-0.11610104 0.03054484 0.00000000)
(-0.11953042 0.02523260 0.00000000)
(-0.11961099 0.01924094 0.00000000)
(-0.11970254 0.01439857 0.00000000)
(-0.11495773 0.00563386 0.00000000)
(-0.11317670 0.00022299 0.00000000)
(-0.10823064 -0.00069877 0.00000000)
(-0.10199348 -0.00106274 0.00000000)
(-0.09225630 -0.00205404 0.00000000)
(-0.07966144 -0.00241213 0.00000000)
(-0.06819069 -0.00191437 0.00000000)
(-0.05813893 -0.00182701 0.00000000)
(-0.04804695 -0.00182004 0.00000000)
(-0.03808720 -0.00176884 0.00000000)
(-0.02860114 -0.00158287 0.00000000)
(-0.01866347 -0.00188462 0.00000000)
(-0.00782789 -0.00206509 0.00000000)
(0.00324123 -0.00192947 0.00000000)
(0.01345447 -0.00190019 0.00000000)
(0.02343155 -0.00159224 0.00000000)
(0.03262052 -0.00182003 0.00000000)
(0.04226934 -0.00155562 0.00000000)
(0.04978213 -0.00117352 0.00000000)
(0.05669957 -0.00131294 0.00000000)
(0.06417936 -0.00126029 0.00000000)
(0.07195448 -0.00129346 0.00000000)
(0.07915138 -0.00135833 0.00000000)
(0.08610611 -0.00110736 0.00000000)
(0.09288569 -0.00124448 0.00000000)
(0.09985208 -0.00119112 0.00000000)
(0.10642001 -0.00111039 0.00000000)
(0.11239175 -0.00098468 0.00000000)
(0.11744038 -0.00073515 0.00000000)
(0.12184575 -0.00075852 0.00000000)
(0.12622303 -0.00063502 0.00000000)
(0.12968324 -0.00050879 0.00000000)
(0.13319463 -0.00062959 0.00000000)
(0.13695754 -0.00057984 0.00000000)
(0.14039936 -0.00052185 0.00000000)
(0.14338509 -0.00046781 0.00000000)
(0.14635974 -0.00042261 0.00000000)
(0.14906504 -0.00042319 0.00000000)
(0.15113294 -0.00020801 0.00000000)
(0.15280515 -0.00019939 0.00000000)
(0.15456108 -0.00027106 0.00000000)
(0.15580044 -0.00004410 0.00000000)
(0.15638823 0.00002944 0.00000000)
(0.15656711 0.00006872 0.00000000)
(0.15623144 0.00020300 0.00000000)
(0.15533173 0.00026597 0.00000000)
(0.15413460 0.00034056 0.00000000)
(0.15247282 0.00040749 0.00000000)
(0.15040094 0.00048323 0.00000000)
(0.14778038 0.00061108 0.00000000)
(0.14452418 0.00072197 0.00000000)
(0.14058866 0.00089354 0.00000000)
(0.13538388 0.00115581 0.00000000)
(0.12865402 0.00145041 0.00000000)
(0.12049467 0.00171203 0.00000000)
(0.11036218 0.00218298 0.00000000)
(0.10032168 0.00303612 0.00000000)
(0.09627224 0.00555915 0.00000000)
(0.10083317 0.01022602 0.00000000)
(0.10776380 0.01560332 0.00000000)
(0.11665964 0.02226622 0.00000000)
(0.12645159 0.03040628 0.00000000)
(0.13582981 0.03971633 0.00000000)
(0.14504610 0.04947083 0.00000000)
(0.15623986 0.05801550 0.00000000)
(0.16545021 0.06775372 0.00000000)
(0.17676421 0.07780269 0.00000000)
(0.19100540 0.08374950 0.00000000)
(0.19987035 0.10077195 0.00000000)
(0.21594809 0.09931691 0.00000000)
(0.21951838 0.11362280 0.00000000)
(0.23475748 0.12335270 0.00000000)
(0.23029250 0.12197890 0.00000000)
(0.24173006 0.11567154 0.00000000)
(0.24464677 0.13580740 0.00000000)
(0.24797989 0.13181495 0.00000000)
(0.28013910 0.15073752 0.00000000)
(0.28873686 0.16998630 0.00000000)
(0.30228211 0.16604646 0.00000000)
(0.32618361 0.17183752 0.00000000)
(0.35172609 0.15892515 0.00000000)
(0.38103661 0.16057266 0.00000000)
(0.42764451 0.15146083 0.00000000)
(0.43213076 0.13130463 0.00000000)
(0.41128968 0.06196057 0.00000000)
(0.38423861 0.05413016 0.00000000)
(0.30976441 0.01469806 0.00000000)
(0.24851450 0.00553476 0.00000000)
(0.21098230 0.00128024 0.00000000)
(0.26362887 -0.00079851 0.00000000)
(0.26608368 -0.00301828 0.00000000)
(0.25780722 -0.00487495 0.00000000)
(0.20966633 -0.01060869 0.00000000)
(0.09908084 -0.00967332 0.00000000)
(0.00977172 -0.00012742 0.00000000)
(-0.02428246 0.01266938 0.00000000)
(-0.03449811 0.01770319 0.00000000)
(-0.03989237 0.02283906 0.00000000)
(-0.04604361 0.02460256 0.00000000)
(-0.05090818 0.02802900 0.00000000)
(-0.05522546 0.03263044 0.00000000)
(-0.06005870 0.03588140 0.00000000)
(-0.06487568 0.03501949 0.00000000)
(-0.07037523 0.03936519 0.00000000)
(-0.07558372 0.03942226 0.00000000)
(-0.07757417 0.04134974 0.00000000)
(-0.08336675 0.04453641 0.00000000)
(-0.08620622 0.04515785 0.00000000)
(-0.09247504 0.04673931 0.00000000)
(-0.09524694 0.04943214 0.00000000)
(-0.10313184 0.04939568 0.00000000)
(-0.10800580 0.04950128 0.00000000)
(-0.11335408 0.04880997 0.00000000)
(-0.11804431 0.04651631 0.00000000)
(-0.12266879 0.04329409 0.00000000)
(-0.12518619 0.03838182 0.00000000)
(-0.12884322 0.03392681 0.00000000)
(-0.13105962 0.02789981 0.00000000)
(-0.13067909 0.02101733 0.00000000)
(-0.12945117 0.01500052 0.00000000)
(-0.12461448 0.00608772 0.00000000)
(-0.12205205 -0.00003029 0.00000000)
(-0.11588359 -0.00129753 0.00000000)
(-0.10806708 -0.00184951 0.00000000)
(-0.09668428 -0.00322562 0.00000000)
(-0.08277818 -0.00364513 0.00000000)
(-0.07024174 -0.00295283 0.00000000)
(-0.05899925 -0.00283386 0.00000000)
(-0.04772895 -0.00283340 0.00000000)
(-0.03650193 -0.00276610 0.00000000)
(-0.02569566 -0.00252703 0.00000000)
(-0.01450274 -0.00293519 0.00000000)
(-0.00256628 -0.00315944 0.00000000)
(0.00950581 -0.00297165 0.00000000)
(0.02086449 -0.00290090 0.00000000)
(0.03182166 -0.00250938 0.00000000)
(0.04220181 -0.00283540 0.00000000)
(0.05287642 -0.00241261 0.00000000)
(0.06149605 -0.00186060 0.00000000)
(0.06955578 -0.00205315 0.00000000)
(0.07800582 -0.00203968 0.00000000)
(0.08680418 -0.00204773 0.00000000)
(0.09497735 -0.00209505 0.00000000)
(0.10285384 -0.00177473 0.00000000)
(0.11067113 -0.00193981 0.00000000)
(0.11840783 -0.00187058 0.00000000)
(0.12579264 -0.00175484 0.00000000)
(0.13246148 -0.00153450 0.00000000)
(0.13841355 -0.00121920 0.00000000)
(0.14377057 -0.00121431 0.00000000)
(0.14876248 -0.00103497 0.00000000)
(0.15311893 -0.00086760 0.00000000)
(0.15733199 -0.00100720 0.00000000)
(0.16164148 -0.00094681 0.00000000)
(0.16587327 -0.00085941 0.00000000)
(0.16955740 -0.00077779 0.00000000)
(0.17314878 -0.00072895 0.00000000)
(0.17649844 -0.00067818 0.00000000)
(0.17904517 -0.00039298 0.00000000)
(0.18129058 -0.00038834 0.00000000)
(0.18354718 -0.00045137 0.00000000)
(0.18522127 -0.00014044 0.00000000)
(0.18622442 -0.00003258 0.00000000)
(0.18695747 0.00004741 0.00000000)
(0.18704142 0.00024452 0.00000000)
(0.18654668 0.00034868 0.00000000)
(0.18553697 0.00046901 0.00000000)
(0.18406071 0.00057120 0.00000000)
(0.18222294 0.00069545 0.00000000)
(0.17961420 0.00088546 0.00000000)
(0.17655915 0.00104648 0.00000000)
(0.17261071 0.00132069 0.00000000)
(0.16732142 0.00171798 0.00000000)
(0.16059752 0.00215592 0.00000000)
(0.15220516 0.00257247 0.00000000)
(0.14166306 0.00328051 0.00000000)
(0.13074587 0.00446351 0.00000000)
(0.12537406 0.00742601 0.00000000)
(0.12854054 0.01281155 0.00000000)
(0.13519587 0.01915029 0.00000000)
(0.14413241 0.02718162 0.00000000)
(0.15419650 0.03633101 0.00000000)
(0.16421893 0.04678277 0.00000000)
(0.17530035 0.05783531 0.00000000)
(0.18740504 0.06865842 0.00000000)
(0.19845388 0.08115168 0.00000000)
(0.21241066 0.09295689 0.00000000)
(0.22858144 0.10183302 0.00000000)
(0.24043090 0.11925770 0.00000000)
(0.25975290 0.12229895 0.00000000)
(0.26524268 0.13557619 0.00000000)
(0.28302104 0.14332159 0.00000000)
(0.28398380 0.14847758 0.00000000)
(0.30302451 0.14911162 0.00000000)
(0.30315586 0.16663713 0.00000000)
(0.31520032 0.16691230 0.00000000)
(0.35058600 0.18524641 0.00000000)
(0.35092315 0.20199156 0.00000000)
(0.37718329 0.20783859 0.00000000)
(0.41641695 0.22276874 0.00000000)
(0.47488765 0.23742791 0.00000000)
(0.51487946 0.22906469 0.00000000)
(0.56456088 0.21393268 0.00000000)
(0.58899240 0.16843049 0.00000000)
(0.56249779 0.09849514 0.00000000)
(0.51145352 0.06988622 0.00000000)
(0.41584324 0.02314952 0.00000000)
(0.33269806 0.00911351 0.00000000)
(0.28059615 0.00250860 0.00000000)
(0.33017066 -0.00038494 0.00000000)
(0.32742968 -0.00353405 0.00000000)
(0.31603795 -0.00615643 0.00000000)
(0.26547695 -0.01212356 0.00000000)
(0.14827111 -0.01287482 0.00000000)
(0.03163359 -0.00174790 0.00000000)
(-0.02283163 0.01275318 0.00000000)
(-0.03937622 0.01974830 0.00000000)
(-0.04665746 0.02589264 0.00000000)
(-0.05343627 0.02932657 0.00000000)
(-0.05842522 0.03286479 0.00000000)
(-0.06305761 0.03707793 0.00000000)
(-0.06870730 0.04053552 0.00000000)
(-0.07409036 0.04062035 0.00000000)
(-0.07905736 0.04411757 0.00000000)
(-0.08478867 0.04459287 0.00000000)
(-0.08722122 0.04658178 0.00000000)
(-0.09331776 0.04989918 0.00000000)
(-0.09617502 0.05046946 0.00000000)
(-0.10247630 0.05212584 0.00000000)
(-0.10553747 0.05481968 0.00000000)
(-0.11289731 0.05491309 0.00000000)
(-0.11788267 0.05468024 0.00000000)
(-0.12305701 0.05369878 0.00000000)
(-0.12773302 0.05044854 0.00000000)
(-0.13199565 0.04658353 0.00000000)
(-0.13407891 0.04107540 0.00000000)
(-0.13690686 0.03619643 0.00000000)
(-0.13821826 0.02941706 0.00000000)
(-0.13724601 0.02194222 0.00000000)
(-0.13506883 0.01521907 0.00000000)
(-0.13013574 0.00617514 0.00000000)
(-0.12657108 -0.00046735 0.00000000)
(-0.11927664 -0.00205849 0.00000000)
(-0.11019142 -0.00281919 0.00000000)
(-0.09770651 -0.00455620 0.00000000)
(-0.08295373 -0.00500804 0.00000000)
(-0.06966176 -0.00412206 0.00000000)
(-0.05760297 -0.00396043 0.00000000)
(-0.04551514 -0.00399306 0.00000000)
(-0.03339397 -0.00390473 0.00000000)
(-0.02155390 -0.00363514 0.00000000)
(-0.00949284 -0.00413183 0.00000000)
(0.00316555 -0.00436616 0.00000000)
(0.01586800 -0.00414190 0.00000000)
(0.02801561 -0.00401249 0.00000000)
(0.03952016 -0.00355360 0.00000000)
(0.05070247 -0.00396058 0.00000000)
(0.06202798 -0.00338730 0.00000000)
(0.07150321 -0.00267714 0.00000000)
(0.08049046 -0.00290273 0.00000000)
(0.08962206 -0.00293543 0.00000000)
(0.09908397 -0.00292580 0.00000000)
(0.10798819 -0.00292358 0.00000000)
(0.11660797 -0.00256474 0.00000000)
(0.12513132 -0.00273018 0.00000000)
(0.13329392 -0.00263655 0.00000000)
(0.14120176 -0.00248827 0.00000000)
(0.14840527 -0.00216557 0.00000000)
(0.15497273 -0.00180353 0.00000000)
(0.16108137 -0.00175019 0.00000000)
(0.16665005 -0.00150849 0.00000000)
(0.17156475 -0.00130570 0.00000000)
(0.17629853 -0.00145299 0.00000000)
(0.18111717 -0.00138976 0.00000000)
(0.18592044 -0.00126678 0.00000000)
(0.19011727 -0.00115676 0.00000000)
(0.19416731 -0.00109696 0.00000000)
(0.19793889 -0.00098925 0.00000000)
(0.20094796 -0.00063441 0.00000000)
(0.20361339 -0.00063413 0.00000000)
(0.20620235 -0.00067740 0.00000000)
(0.20833029 -0.00028897 0.00000000)
(0.20985954 -0.00014472 0.00000000)
(0.21092943 -0.00001115 0.00000000)
(0.21141639 0.00024512 0.00000000)
(0.21136013 0.00040167 0.00000000)
(0.21070035 0.00057128 0.00000000)
(0.20962174 0.00071931 0.00000000)
(0.20792999 0.00089729 0.00000000)
(0.20560787 0.00115691 0.00000000)
(0.20264720 0.00136754 0.00000000)
(0.19890955 0.00175235 0.00000000)
(0.19383522 0.00229220 0.00000000)
(0.18734203 0.00287234 0.00000000)
(0.17925520 0.00346706 0.00000000)
(0.16887020 0.00442713 0.00000000)
(0.15785117 0.00592387 0.00000000)
(0.15150229 0.00920090 0.00000000)
(0.15308409 0.01502205 0.00000000)
(0.15874101 0.02208368 0.00000000)
(0.16695211 0.03100541 0.00000000)
(0.17705125 0.04088290 0.00000000)
(0.18690527 0.05209674 0.00000000)
(0.19867975 0.06428861 0.00000000)
(0.21091060 0.07646126 0.00000000)
(0.22409967 0.09017030 0.00000000)
(0.23911681 0.10338560 0.00000000)
(0.25518827 0.11415188 0.00000000)
(0.26917448 0.13161136 0.00000000)
(0.28962384 0.13688782 0.00000000)
(0.29790337 0.15052573 0.00000000)
(0.31965446 0.15886319 0.00000000)
(0.32301183 0.16728835 0.00000000)
(0.34133389 0.17049447 0.00000000)
(0.35214901 0.18964542 0.00000000)
(0.36303576 0.19217711 0.00000000)
(0.39670513 0.20880027 0.00000000)
(0.40889413 0.23347665 0.00000000)
(0.44409447 0.24356897 0.00000000)
(0.48207591 0.25797867 0.00000000)
(0.54774989 0.26916726 0.00000000)
(0.59966376 0.27184646 0.00000000)
(0.65228461 0.24824567 0.00000000)
(0.69372281 0.20257302 0.00000000)
(0.68229174 0.13574468 0.00000000)
(0.61889762 0.08114828 0.00000000)
(0.51925453 0.03249349 0.00000000)
(0.42080897 0.01361113 0.00000000)
(0.35557336 0.00435656 0.00000000)
(0.39846910 0.00036040 0.00000000)
(0.38973585 -0.00383483 0.00000000)
(0.37523907 -0.00733972 0.00000000)
(0.32166632 -0.01391981 0.00000000)
(0.20271450 -0.01589233 0.00000000)
(0.06238447 -0.00459454 0.00000000)
(-0.01588877 0.01165775 0.00000000)
(-0.04161957 0.02124633 0.00000000)
(-0.05160835 0.02838084 0.00000000)
(-0.05950923 0.03322639 0.00000000)
(-0.06526555 0.03733086 0.00000000)
(-0.06994519 0.04118319 0.00000000)
(-0.07631081 0.04452643 0.00000000)
(-0.08166338 0.04538115 0.00000000)
(-0.08684585 0.04841828 0.00000000)
(-0.09258259 0.04913420 0.00000000)
(-0.09518948 0.05106750 0.00000000)
(-0.10155495 0.05410342 0.00000000)
(-0.10431638 0.05489256 0.00000000)
(-0.11012258 0.05637310 0.00000000)
(-0.11351801 0.05921446 0.00000000)
(-0.12004552 0.05909232 0.00000000)
(-0.12508069 0.05857046 0.00000000)
(-0.12992086 0.05698823 0.00000000)
(-0.13445594 0.05348390 0.00000000)
(-0.13805898 0.04886173 0.00000000)
(-0.13976719 0.04276207 0.00000000)
(-0.14164003 0.03748567 0.00000000)
(-0.14213551 0.03024090 0.00000000)
(-0.14070534 0.02225919 0.00000000)
(-0.13768005 0.01503503 0.00000000)
(-0.13265401 0.00591446 0.00000000)
(-0.12797463 -0.00108887 0.00000000)
(-0.11983805 -0.00295465 0.00000000)
(-0.10970297 -0.00394972 0.00000000)
(-0.09648181 -0.00601705 0.00000000)
(-0.08124675 -0.00647972 0.00000000)
(-0.06746815 -0.00539763 0.00000000)
(-0.05486066 -0.00518491 0.00000000)
(-0.04220488 -0.00527683 0.00000000)
(-0.02938137 -0.00516480 0.00000000)
(-0.01673581 -0.00487866 0.00000000)
(-0.00412105 -0.00544338 0.00000000)
(0.00904973 -0.00566414 0.00000000)
(0.02214494 -0.00541882 0.00000000)
(0.03486036 -0.00521923 0.00000000)
(0.04663256 -0.00469469 0.00000000)
(0.05835974 -0.00515847 0.00000000)
(0.06999452 -0.00446490 0.00000000)
(0.08021174 -0.00361891 0.00000000)
(0.08997801 -0.00385392 0.00000000)
(0.09958270 -0.00392118 0.00000000)
(0.10953137 -0.00390897 0.00000000)
(0.11896742 -0.00382947 0.00000000)
(0.12816865 -0.00346409 0.00000000)
(0.13718506 -0.00359852 0.00000000)
(0.14561640 -0.00346387 0.00000000)
(0.15381193 -0.00328560 0.00000000)
(0.16131850 -0.00286960 0.00000000)
(0.16842052 -0.00247297 0.00000000)
(0.17507903 -0.00235547 0.00000000)
(0.18100995 -0.00204618 0.00000000)
(0.18639960 -0.00181295 0.00000000)
(0.19154000 -0.00195811 0.00000000)
(0.19675165 -0.00190142 0.00000000)
(0.20190669 -0.00173743 0.00000000)
(0.20662214 -0.00159884 0.00000000)
(0.21104584 -0.00151438 0.00000000)
(0.21503487 -0.00134856 0.00000000)
(0.21840095 -0.00092716 0.00000000)
(0.22141248 -0.00092420 0.00000000)
(0.22429588 -0.00094243 0.00000000)
(0.22679792 -0.00048906 0.00000000)
(0.22874041 -0.00030708 0.00000000)
(0.23015250 -0.00010272 0.00000000)
(0.23099626 0.00020675 0.00000000)
(0.23129812 0.00042265 0.00000000)
(0.23098932 0.00063689 0.00000000)
(0.23022289 0.00084403 0.00000000)
(0.22885338 0.00108319 0.00000000)
(0.22679901 0.00141736 0.00000000)
(0.22405827 0.00168032 0.00000000)
(0.22052107 0.00217457 0.00000000)
(0.21580018 0.00285852 0.00000000)
(0.20966035 0.00357539 0.00000000)
(0.20204022 0.00435878 0.00000000)
(0.19212904 0.00557469 0.00000000)
(0.18138326 0.00736601 0.00000000)
(0.17446210 0.01089387 0.00000000)
(0.17460997 0.01702044 0.00000000)
(0.17903377 0.02455360 0.00000000)
(0.18632378 0.03403296 0.00000000)
(0.19571384 0.04445165 0.00000000)
(0.20547797 0.05628134 0.00000000)
(0.21700175 0.06891497 0.00000000)
(0.22924464 0.08185434 0.00000000)
(0.24324362 0.09673848 0.00000000)
(0.25832108 0.11070392 0.00000000)
(0.27494825 0.12252920 0.00000000)
(0.29020240 0.13954507 0.00000000)