7 	1.00030062527244 	0 	0.109962998535709 	0.0240571834248637 	1.47756217603043e-23
7 	1.00428116165046 	6.93889390390723e-18 	0.312866293908969 	0.0708174779439983 	-5.92385921922332e-21
7 	1.00840758503277 	1.38777878078145e-17 	0.48058214496413 	0.107736124954231 	-1.81369949484415e-19
7 	1.01268524486285 	2.08166817117217e-17 	0.593416632909374 	0.129007110570337 	-4.2899306145141e-19
7 	1.01711968694529 	2.77555756156289e-17 	0.653424428595387 	0.138232032750678 	1.76440847557688e-19
7 	1.02171666066957 	2.77555756156289e-17 	0.680639080990482 	0.14164649811574 	1.11546483723329e-19
7 	1.02648212650105 	2.42861286636753e-17 	0.69275938333554 	0.142821871735532 	-9.01199894397417e-22
7 	1.03142226374877 	2.42861286636753e-17 	0.698931116500279 	0.143083677359868 	-2.10220993606267e-21
7 	1.03654347862074 	3.81639164714898e-17 	0.702937375639438 	0.142920352851355 	-1.23174701385923e-21
7 	1.04185241257737 	5.55111512312578e-17 	0.706224154811193 	0.142545283277807 	1.60232161636786e-22
7 	1.04735595099408 	5.89805981832114e-17 	0.709327996945992 	0.14205960135961 	1.17913671831293e-21
7 	1.05306123214496 	4.85722573273506e-17 	0.712440765020884 	0.141510780245014 	-1.49802430219517e-23
7 	1.05897565651922 	3.81639164714898e-17 	0.71561763448815 	0.140914025397123 	-4.26701391512225e-21
7 	1.0651068964832 	3.12250225675825e-17 	0.718856487475984 	0.140264825980219 	-8.66838512272311e-21
7 	1.07146290630077 	3.81639164714898e-17 	0.722152227613788 	0.139550929775828 	7.68505991525477e-21
7 	1.0780519325257 	5.20417042793042e-17 	0.725513454007948 	0.138760787783293 	3.55899154005002e-21
7 	1.08488252478006 	4.85722573273506e-17 	0.72895780628591 	0.137886855216254 	-9.48833652952181e-23
7 	1.09196354693306 	4.16333634234434e-17 	0.732506134844087 	0.13692480124659 	-4.29180999171467e-22
7 	1.0993041886958 	4.5102810375397e-17 	0.736178886733362 	0.135872302363558 	7.28700021712639e-23
7 	1.1069139776473 	5.20417042793042e-17 	0.739994107029166 	0.134728538136135 	-1.17243540932118e-21
7 	1.11480279170844 	5.20417042793042e-17 	0.743966648329241 	0.133494049540212 	-5.53609566243368e-22
7 	1.12298087208085 	4.85722573273506e-17 	0.748108275319871 	0.132170666464386 	1.59136376585127e-21
7 	1.13145883666818 	4.85722573273506e-17 	0.752428302320448 	0.130761409392082 	1.60245862538931e-21
7 	1.14024769399852 	5.20417042793042e-17 	0.756934445230952 	0.129270356846284 	1.47140452182311e-21
7 	1.1493588576668 	5.89805981832114e-17 	0.761633666614977 	0.127702479276206 	-4.49214719053176e-21
7 	1.15880416131736 	5.20417042793042e-17 	0.766532875642982 	0.126063425669885 	7.0945569137008e-21
7 	1.16859587418724 	4.16333634234434e-17 	0.771639412598992 	0.124359243367418 	3.34154728860608e-21
7 	1.17874671723175 	4.5102810375397e-17 	0.77696128915414 	0.122596039527636 	-9.56305192165535e-22
7 	1.18926987985505 	5.20417042793042e-17 	0.782507198590462 	0.120779683032213 	-5.8312169128843e-21
7 	1.20017903726881 	5.55111512312578e-17 	0.788286420522306 	0.118915693638567 	-1.56488620790565e-21
7 	1.21148836850348 	5.20417042793042e-17 	0.794308523489636 	0.11700901119848 	-2.27150895393225e-21
7 	1.22321257509757 	4.5102810375397e-17 	0.800580986436464 	0.11506256985141 	-6.01022750854324e-21
7 	1.23536690049136 	4.16333634234434e-17 	0.807103465715271 	0.113075012846093 	6.19867979945195e-21
7 	1.24796715015262 	3.81639164714898e-17 	0.81386847021567 	0.111041655523576 	2.02471402781799e-21
7 	1.26102971246314 	2.77555756156289e-17 	0.820872220937228 	0.1089592153952 	-1.28809598474002e-22
7 	1.27457158039596 	2.42861286636753e-17 	0.828116817977875 	0.106827344162791 	5.86510434621489e-23
7 	1.28861037401486 	2.77555756156289e-17 	0.83560794103314 	0.104648757508361 	-2.8855906910237e-21
7 	1.30316436382851 	2.77555756156289e-17 	0.843353031158427 	0.102428312006747 	-5.59313285328385e-21
7 	1.31825249503367 	2.77555756156289e-17 	0.851360049885468 	0.100172206310004 	1.85039960738937e-20
7 	1.33389441268296 	2.77555756156289e-17 	0.859636493443797 	0.0978875116717424 	-6.80411029493446e-21
7 	1.35011048781457 	2.77555756156289e-17 	0.868188511977004 	0.0955818649931678 	-3.21934023060658e-21
7 	1.36692184458298 	3.46944695195361e-17 	0.87701991595314 	0.0932632501017423 	3.55091538202721e-21
7 	1.38435038843143 	4.5102810375397e-17 	0.88613083783967 	0.0909397117384376 	8.07667885395056e-21
7 	1.40241883534893 	5.20417042793042e-17 	0.895516609803283 	0.0886185357123204 	-2.0769330277373e-20
7 	1.42115074225667 	4.85722573273506e-17 	0.905168232634162 	0.0863055656365977 	2.22293489688058e-20
7 	1.44057053857082 	4.5102810375397e-17 	0.915073631551532 	0.0840054356884175 	-1.03475593573933e-20
7 	1.46070355899097 	4.85722573273506e-17 	0.925217939882581 	0.081722016553582 	-3.93190536759145e-21
6.99999999999999 	1.48157607756597 	5.20417042793042e-17 	0.935583135831921 	0.0794585503410096 	1.94450361011007e-22
6.99999999999999 	1.5032153430918 	5.20417042793042e-17 	0.946147743541606 	0.0772175928654884 	-2.02698175098254e-21
6.99999999999999 	1.52564961589847 	4.85722573273506e-17 	0.956886692363384 	0.0750009745714112 	-8.52619270299129e-21
6.99999999999999 	1.54890820608644 	5.55111512312578e-17 	0.967771318071566 	0.0728098037110437 	8.84239572333238e-21
6.99999999999999 	1.57302151327595 	5.55111512312578e-17 	0.978769466432125 	0.0706445151603248 	2.41846343979109e-21
7 	1.59802106793658 	5.55111512312578e-17 	0.989845647985052 	0.0685049503039171 	1.33792390401193e-22
7 	1.62393957436763 	6.93889390390723e-17 	1.00096123547063 	0.0663904172661171 	-2.08648687234064e-22
6.99999999999999 	1.65081095540442 	7.63278329429795e-17 	1.01207479787338 	0.0642996598764087 	2.21253983892186e-21
6.99999999999999 	1.67867039892999 	7.28583859910259e-17 	1.02314278085012 	0.0622307077577995 	1.3747260953245e-20
6.99999999999999 	1.7075544062762 	7.28583859910259e-17 	1.03412071646735 	0.0601807276424694 	5.87530310191139e-22
6.99999999999999 	1.73750084260388 	7.28583859910259e-17 	1.04496477710626 	0.058146077565618 	-1.42786532548262e-20
6.99999999999999 	1.76854898935727 	6.24500451351651e-17 	1.05563313258859 	0.0561223267346156 	-2.38716798585392e-21
6.99999999999999 	1.80073959889403 	5.55111512312578e-17 	1.06608754882156 	0.0541037442322723 	1.96299492206659e-21
6.99999999999999 	1.83411495139939 	5.89805981832114e-17 	1.07629642509813 	0.0520833008257503 	5.63110195589968e-21
6.99999999999999 	1.86871891420034 	5.89805981832114e-17 	1.08623683023117 	0.050053923727981 	-8.05894609531627e-21
6.99999999999999 	1.90459700360407 	5.55111512312578e-17 	1.09589483019626 	0.0480097786847815 	-5.81740036696177e-21
6.99999999999999 	1.94179644939438 	5.20417042793042e-17 	1.10526448642609 	0.0459470723210108 	5.23096593721116e-21
6.99999999999999 	1.98036626212978 	5.20417042793042e-17 	1.11433987745907 	0.0438648541426889 	7.82248289547059e-22
6.99999999999999 	2.02025965173184 	5.55111512312578e-17 	1.1230552746086 	0.041779859439546 	0
6.99999999999999 	2.06006301192217 	5.20417042793042e-17 	1.13117580339381 	0.039747115296675 	0
6.99999999999999 	2.09845978584128 	5.20417042793042e-17 	1.13854795838355 	0.0378261190771901 	0
6.99999999999999 	2.13549967996945 	5.20417042793042e-17 	1.14522755554374 	0.0360200602541658 	0
6.99999999999999 	2.17123064424048 	4.85722573273506e-17 	1.15129343323666 	0.0343220268905969 	-5.6330977343512e-17
6.99999999999999 	2.20569893411515 	4.85722573273506e-17 	1.15680955589567 	0.0327253653568798 	-3.68403107545278e-16
6.99999999999999 	2.23894917046122 	5.55111512312578e-17 	1.16182796054581 	0.0312234497341719 	3.74327274692529e-16
6.99999999999999 	2.27102439731725 	5.55111512312578e-17 	1.16639123583661 	0.0298097634296418 	5.69668641215856e-17
6.99999999999999 	2.30196613761521 	4.85722573273506e-17 	1.17053446338739 	0.0284780124501444 	0
6.99999999999999 	2.33181444693391 	4.85722573273506e-17 	1.17428670438911 	0.0272221945374837 	0
6.99999999999999 	2.3606079653529 	5.20417042793042e-17 	1.17767211892522 	0.0260366451990093 	0
6.99999999999999 	2.3883839674739 	5.89805981832114e-17 	1.18071079489973 	0.0249160661976582 	0
6.99999999999999 	2.41517841067461 	6.24500451351651e-17 	1.18341935240385 	0.0238555377589612 	0
6.99999999999999 	2.44102598165722 	6.24500451351651e-17 	1.18581137692761 	0.0228505173519975 	0
6.99999999999999 	2.46596014135207 	6.24500451351651e-17 	1.18789772284399 	0.0218968283908701 	0
6.99999999999999 	2.49001316823443 	5.89805981832114e-17 	1.18968671833808 	0.020990641897373 	0
6.99999999999999 	2.51321620011054 	5.55111512312578e-17 	1.19118429474132 	0.0201284536818763 	0
6.99999999999999 	2.535599274427 	5.89805981832114e-17 	1.19239405695601 	0.0193070590817556 	0
6.99999999999999 	2.55719136715571 	6.24500451351651e-17 	1.19331730708341 	0.0185235267998676 	0
6.99999999999999 	2.57802043030465 	5.89805981832114e-17 	1.19395303024579 	0.0177751729496655 	0
6.99999999999999 	2.59811342810315 	5.20417042793042e-17 	1.19429784970215 	0.0170595360560352 	0
6.99999999999999 	2.61749637190832 	4.85722573273506e-17 	1.19434595753879 	0.0163743534822081 	0
6.99999999999999 	2.63619435387806 	4.85722573273506e-17 	1.19408902736642 	0.0157175395450629 	0
6.99999999999999 	2.65423157945406 	4.85722573273506e-17 	1.19351611651593 	0.0150871654325002 	0
6.99999999999999 	2.67163139869691 	4.85722573273506e-17 	1.19261356714846 	0.0144814409357467 	0
6.99999999999999 	2.68841633651388 	4.85722573273506e-17 	1.19136491840291 	0.0138986979459474 	-1.08801567358798e-16
6.99999999999999 	2.7046081218185 	4.85722573273506e-17 	1.18975084502149 	0.0133373756294752 	-7.08149583327318e-16
6.99999999999999 	2.72022771565972 	4.85722573273506e-17 	1.18774914146966 	0.0127960071830773 	7.5124994002908e-16
6.99999999999999 	2.73529533835694 	4.85722573273506e-17 	1.18533477378331 	0.0122732080729641 	1.13814200640506e-16
6.99999999999999 	2.74983049567625 	4.85722573273506e-17 	1.18248002327732 	0.0117676656771924 	0
6.99999999999999 	2.76385200408156 	5.20417042793042e-17 	1.17915474553403 	0.01127813027507 	0
6.99999999999999 	2.77737801509343 	5.89805981832114e-17 	1.17532676322963 	0.010803407358185 	0
6.99999999999999 	2.79042603878708 	6.24500451351651e-17 	1.1709624009127 	0.0103423512724364 	0
6.99999999999999 	2.80301296646003 	6.24500451351651e-17 	1.16602715299668 	0.0098938602361038 	0
6.99999999999999 	2.81515509249872 	5.55111512312578e-17 	1.16048645341215 	0.0094568728113816 	0
6.99999999999999 	2.82686813547237 	4.85722573273506e-17 	1.15430648883953 	0.00903036593002799 	0
6.99999999999999 	2.83816725848142 	4.85722573273506e-17 	1.14745497135445 	0.00861335457971739 	0
6.99999999999999 	2.84906708878691 	4.85722573273506e-17 	1.13990176600557 	0.00820489323589183 	0
6.99999999999999 	2.85958173674616 	4.85722573273506e-17 	1.13161925931862 	0.00780407906186219 	0
6.99999999999999 	2.86972481407933 	4.85722573273506e-17 	1.12258235874446 	0.00741005679375525 	0
6.99999999999999 	2.87950945149043 	4.85722573273506e-17 	1.11276802960984 	0.00702202512420932 	0
6.99999999999999 	2.88894831566566 	4.85722573273506e-17 	1.10215429999313 	0.0066392443730199 	0
6.99999999999999 	2.89805362567106 	4.85722573273506e-17 	1.0907186870166 	0.00626104485958418 	0
6.99999999999999 	2.90683716877067 	5.20417042793042e-17 	1.0784360120208 	0.00588683335788905 	0
6.99999999999999 	2.91531031568569 	5.20417042793042e-17 	1.06527557172811 	0.00551609469627477 	0
6.99999999999999 	2.92348403531448 	4.85722573273506e-17 	1.05119761755595 	0.00514840438941085 	0
6.99999999999999 	2.93136890893229 	4.5102810375397e-17 	1.03614907271979 	0.00478348932885738 	0
6.99999999999999 	2.93897514388925 	4.5102810375397e-17 	1.02005799901167 	0.00442110132215237 	0
6.99999999999999 	2.94631258682425 	4.5102810375397e-17 	1.00282458619965 	0.00406013745432738 	0
6.99999999999999 	2.95339073641193 	4.16333634234434e-17 	0.984315442417107 	0.00369965200387807 	0
6.99999999999999 	2.96021875565915 	3.81639164714898e-17 	0.964364940542684 	0.00333942889377318 	0
6.99999999999999 	2.96680548376697 	3.81639164714898e-17 	0.942750404201756 	0.0029809345503635 	0
6.99999999999999 	2.97315944757337 	3.81639164714898e-17 	0.919138988438127 	0.00262671452203621 	0
6.99999999999999 	2.97928887259171 	3.81639164714898e-17 	0.893038031026021 	0.0022798107784294 	0
6.99999999999999 	2.98520169365902 	4.5102810375397e-17 	0.863743856178082 	0.00194354728020275 	0
6.99999999999999 	2.99090556520806 	4.85722573273506e-17 	0.830278121629579 	0.00162163286480588 	0
6.99999999999999 	2.99640787117633 	4.85722573273506e-17 	0.791304104541773 	0.00131821699958099 	0
6.99999999999999 	3.00171573456492 	4.85722573273506e-17 	0.745025174834506 	0.00103780573849481 	0
6.99999999999999 	3.00683602665962 	4.85722573273506e-17 	0.689086827962736 	0.000785010816840715 	0
6.99999999999999 	3.01177537592612 	4.85722573273506e-17 	0.620448148680104 	0.0005635667696237 	0
6.99999999999999 	3.01654017659085 	4.85722573273506e-17 	0.535406389024748 	0.000375278624847158 	0
6.99999999999999 	3.02113659691864 	4.85722573273506e-17 	0.432048589804449 	0.000222176510657419 	0
6.99999999999999 	3.02557058719784 	4.85722573273506e-17 	0.314404661763436 	0.00010936247022891 	0
6.99999999999999 	3.02984788744324 	4.85722573273506e-17 	0.190114887614244 	3.87687977604018e-05 	0
