5 	0.00391112967796255 	1.38777878078145e-17 	-0.0263180704479319 	-3.1796900204066e-05 	-5.14264143645389e-23
5 	0.0118766651674912 	1.38777878078145e-17 	-0.069839720044895 	-0.000203607680729501 	-5.14173656952307e-23
5 	0.020134001548576 	1.38777878078145e-17 	-0.0989170260920276 	-0.000565015597137803 	-7.56525828508236e-23
5 	0.0286938283423949 	1.73472347597681e-17 	-0.112411126261147 	-0.00109831359366532 	-3.63917040717708e-22
5 	0.0375672266585907 	2.08166817117217e-17 	-0.115440604288082 	-0.0017145600886639 	-7.56288470487765e-23
5 	0.046765683540303 	1.90819582357449e-17 	-0.11407776952591 	-0.00237603523684571 	-9.79441313405559e-24
5 	0.0563011068347006 	2.08166817117217e-17 	-0.111184924892498 	-0.00308208132034871 	-1.9585544555901e-23
5 	0.0661858406082648 	2.25514051876985e-17 	-0.107690822016592 	-0.00383028818817007 	-2.17852370144612e-23
5 	0.0764326811267815 	2.25514051876985e-17 	-0.103887854061131 	-0.00461617880229571 	-4.79285236469437e-23
5 	0.0870548934207257 	2.08166817117217e-17 	-0.0998742328286038 	-0.00543715524783709 	-8.50510218963838e-25
5 	0.0980662284574839 	1.73472347597681e-17 	-0.0956811943864382 	-0.00629229037648722 	3.76894736445604e-25
5 	0.109480940942647 	1.38777878078145e-17 	-0.0913132638812954 	-0.00718143199104629 	1.29834998454318e-23
5 	0.121313807773416 	1.73472347597681e-17 	-0.0867627462608193 	-0.00810477065018332 	1.45624608172021e-23
5 	0.13358014716801 	2.42861286636753e-17 	-0.0820155032394997 	-0.00906268751354617 	-5.45874665207038e-24
5 	0.146295838495838 	2.60208521396521e-17 	-0.0770534099174936 	-0.0100556860369676 	-6.03533435504003e-24
5 	0.159477342834115 	2.60208521396521e-17 	-0.0718554140722583 	-0.0110843481597926 	-1.00896650069333e-23
5 	0.173141724277517 	2.60208521396521e-17 	-0.066397956136244 	-0.0121493029846095 	-4.86271161216345e-23
5 	0.18730667202848 	2.42861286636753e-17 	-0.0606550739329328 	-0.0132512030698279 	-1.00851091159098e-23
5 	0.201990523296728 	2.25514051876985e-17 	-0.0545983401188058 	-0.0143907046900409 	1.79025778847956e-23
5 	0.217212287037676 	2.25514051876985e-17 	-0.0481967036312696 	-0.0155684496475033 	8.636369338505e-23
5 	0.232991668560441 	2.08166817117217e-17 	-0.0414162712120396 	-0.0167850470759332 	1.78938708788736e-23
5 	0.249349095037321 	1.90819582357449e-17 	-0.0342200482681783 	-0.0180410540867066 	0
5 	0.266305741947753 	1.73472347597681e-17 	-0.0265676502389022 	-0.019336954253286 	1.66665181617525e-23
5 	0.283883560490998 	1.90819582357449e-17 	-0.0184149919339898 	-0.0206731328953904 	1.34222414292203e-17
5 	0.302105306003029 	2.08166817117217e-17 	-0.00971396102083584 	-0.0220498480051701 	1.3432438927504e-17
5 	0.320994567414413 	2.25514051876985e-17 	-0.000412082686605963 	-0.0234671959341955 	3.6976268549789e-20
5 	0.34057579778732 	2.42861286636753e-17 	0.00954781290648675 	-0.024925070245993 	-2.92235053287223e-20
5 	0.3608743459712 	2.42861286636753e-17 	0.0202279151221971 	-0.0264231097198205 	-1.35225236199806e-17
5 	0.38191648941809 	2.77555756156289e-17 	0.0316957301839619 	-0.0279606367415307 	-1.34658788484718e-17
5 	0.403729468200046 	2.77555756156289e-17 	0.0440243372446399 	-0.0295365804995584 	-3.35192236622707e-23
5 	0.426341520272733 	2.42861286636753e-17 	0.057292580440384 	-0.0311493562670249 	3.4863990831851e-23
5 	0.449781918030829 	2.25514051876985e-17 	0.0715851633988285 	-0.0327967171177567 	1.68946861411382e-22
5 	0.474081006202548 	1.73472347597681e-17 	0.0869926105362554 	-0.0344759264389613 	3.48425352146228e-23
5 	0.499270241132363 	1.21430643318376e-17 	0.103611087140261 	-0.0361846841284826 	0
5 	0.525382231502763 	8.67361737988404e-18 	0.121543809432114 	-0.0379184468342266 	-3.8156220471351e-23
5 	0.552450780547767 	6.93889390390723e-18 	0.140960571156609 	-0.0396602724691932 	-2.25493974370114e-22
5 	0.580510929812849 	8.67361737988404e-18 	0.162331816509449 	-0.041401008739444 	-2.33698993816128e-22
5 	0.60959900451791 	1.04083408558608e-17 	0.186230888766133 	-0.0431310252739199 	1.83438216113143e-17
5 	0.639752660582032 	8.67361737988404e-18 	0.212860186537727 	-0.0448186863055118 	1.75303874176794e-17
5 	0.671010933370886 	6.93889390390723e-18 	0.242113090415021 	-0.0464400803837114 	-1.99477596925994e-17
5 	0.7034142882299 	8.67361737988404e-18 	0.273758930817139 	-0.0479763830843544 	-1.91332552324164e-17
5 	0.737004672868605 	1.04083408558608e-17 	0.307568037548041 	-0.0494070632091859 	0
5 	0.771825571663975 	1.04083408558608e-17 	0.34334839391477 	-0.0507083001975095 	-5.15875487639262e-23
5 	0.807922061953053 	8.67361737988404e-18 	0.380915244602462 	-0.0518538229612926 	-2.09260430313956e-22
5 	0.845340872387742 	5.20417042793042e-18 	0.420036148740631 	-0.0528168322772296 	-5.70080829991523e-22
5 	0.884130443427309 	3.46944695195361e-18 	0.460386388317848 	-0.0535723910945857 	-2.12801344366525e-22
5 	0.924340990046897 	5.20417042793042e-18 	0.501531557372496 	-0.054099699456552 	-5.22768847531148e-22
5 	0.966024566743241 	6.93889390390723e-18 	0.542938765832693 	-0.0543839241458078 	-2.09277649560819e-22
5 	1.00923513492173 	5.20417042793042e-18 	0.584009897692771 	-0.0544175891182063 	-2.08671839794483e-22
5 	1.05402863275205 	3.46944695195361e-18 	0.624128719548032 	-0.0542016386772697 	-7.04615962465646e-22
5 	1.10046304758287 	3.46944695195361e-18 	0.662714094415978 	-0.0537461067071057 	9.34724348491776e-23
5 	1.14859849100923 	0 	0.699273776281049 	-0.0530701267508056 	9.34757210995144e-22
5 	1.19849727668994 	-1.73472347597681e-18 	0.733465607161878 	-0.0522004369364053 	9.97321360861062e-22
5 	1.25022400101563 	-1.73472347597681e-18 	0.765154155974526 	-0.051167585450008 	1.82305154119483e-22
5 	1.30384562673185 	-1.73472347597681e-18 	0.794415562329793 	-0.0500015706080255 	-1.57748950874888e-22
5 	1.35943156962565 	-1.73472347597681e-18 	0.821484871667528 	-0.048723122306461 	-7.05125670085139e-22
5 	1.41705378838762 	-3.46944695195361e-18 	0.846680773918177 	-0.0473285530176125 	4.43946109364987e-22
5 	1.47678687776592 	-1.73472347597681e-18 	0.870319776376339 	-0.0458127505768787 	7.20518444136073e-23
5 	1.53870816513277 	-3.46944695195361e-18 	0.892539320602333 	-0.0441812056433455 	-7.15232793250405e-22
5 	1.60289781058851 	-6.93889390390723e-18 	0.913329661180464 	-0.0424637540143237 	2.62200894210283e-22
5 	1.66943891073266 	-5.20417042793042e-18 	0.932705896873651 	-0.0406802402737184 	-1.18969752630809e-22
5 	1.73841760623657 	-6.93889390390723e-18 	0.950749029912347 	-0.0388345137389069 	-1.26316276915806e-21
5 	1.80992319335659 	-1.38777878078145e-17 	0.967582593705312 	-0.036919838596426 	-2.52496788259108e-22
5 	1.88404823953248 	-1.56125112837913e-17 	0.983302466356842 	-0.0349261235106867 	0
5 	1.96088870322037 	-6.93889390390723e-18 	0.997478736960904 	-0.0329191399048454 	0
5 	2.02025965173184 	0 	1.00769268744008 	-0.0313084187053327 	0
5 	2.06006301192217 	-3.46944695195361e-18 	1.01446066318948 	-0.0301523640013408 	0
5 	2.09845978584128 	-6.93889390390723e-18 	1.02020730424735 	-0.0290969702745659 	0
5 	2.13549967996945 	-6.93889390390723e-18 	1.02538897623891 	-0.0280757183018159 	0
5 	2.17123064424048 	-6.93889390390723e-18 	1.03004636329298 	-0.0270878408399768 	0
5 	2.20569893411515 	-6.93889390390723e-18 	1.03421514464766 	-0.026132578473216 	0
5 	2.23894917046122 	-6.93889390390723e-18 	1.03792655554307 	-0.0252091388626602 	0
5 	2.27102439731725 	-6.93889390390723e-18 	1.04120779611958 	-0.0243166872030178 	0
5 	2.30196613761521 	-6.93889390390723e-18 	1.04408235149748 	-0.0234543496771118 	0
5 	2.33181444693391 	-6.93889390390723e-18 	1.046570249124 	-0.0226212174929509 	0
5 	2.3606079653529 	-6.93889390390723e-18 	1.04868827001729 	-0.021816351644054 	0
5 	2.3883839674739 	-6.93889390390723e-18 	1.05045012527356 	-0.0210387881536969 	0
5 	2.41517841067461 	-8.67361737988404e-18 	1.05186660563325 	-0.0202875432234731 	0
5 	2.44102598165722 	-1.04083408558608e-17 	1.0529457099215 	-0.0195616179588813 	0
5 	2.46596014135207 	-1.21430643318376e-17 	1.05369275722455 	-0.0188600025233527 	0
4.99999999999999 	2.49001316823443 	-1.56125112837913e-17 	1.05411048727868 	-0.0181816796591843 	0
4.99999999999999 	2.51321620011054 	-1.90819582357449e-17 	1.05419915344223 	-0.017525627567889 	0
4.99999999999999 	2.535599274427 	-1.90819582357449e-17 	1.05395661259514 	-0.016890822179399 	0
4.99999999999999 	2.55719136715571 	-1.56125112837913e-17 	1.05337841619954 	-0.0162762388656985 	0
5 	2.57802043030465 	-1.38777878078145e-17 	1.05245790641507 	-0.0156808536761108 	0
4.99999999999999 	2.59811342810315 	-1.56125112837913e-17 	1.05118632047237 	-0.0151036441936916 	0
4.99999999999999 	2.61749637190832 	-1.73472347597681e-17 	1.04955290537628 	-0.0145435901383781 	0
4.99999999999999 	2.63619435387806 	-1.73472347597681e-17 	1.04754504341176 	-0.0139996738746157 	0
4.99999999999999 	2.65423157945406 	-1.38777878078145e-17 	1.0451483869245 	-0.0134708810194577 	0
5 	2.67163139869691 	-8.67361737988404e-18 	1.04234699863787 	-0.0129562013901201 	0
5 	2.68841633651388 	-5.20417042793042e-18 	1.03912349167387 	-0.0124546305740793 	0
5 	2.7046081218185 	-1.73472347597681e-18 	1.03545916190549 	-0.0119651724441593 	0
5 	2.72022771565972 	0 	1.03133410475848 	-0.0114868429676713 	0
5 	2.73529533835694 	-1.73472347597681e-18 	1.0267273094995 	-0.0110186756633678 	0
5 	2.74983049567625 	-3.46944695195361e-18 	1.0216167265758 	-0.0105597290337846 	0
5 	2.76385200408156 	-5.20417042793042e-18 	1.015979307543 	-0.0101090962302645 	0
5 	2.77737801509343 	-6.93889390390723e-18 	1.00979102195875 	-0.00966591706026997 	0
5 	2.79042603878708 	-6.93889390390723e-18 	1.00302686036185 	-0.00922939221314731 	0
5 	2.80301296646003 	-5.20417042793042e-18 	0.995660835811632 	-0.00879879956238801 	0
5 	2.81515509249872 	-5.20417042793042e-18 	0.987665996897012 	-0.00837351300256374 	0
5 	2.82686813547237 	-5.20417042793042e-18 	0.979014460974028 	-0.00795302165793486 	0
5 	2.83816725848142 	-3.46944695195361e-18 	0.969677466457237 	-0.00753692983159955 	0
5 	2.84906708878691 	-3.46944695195361e-18 	0.959625427067683 	-0.00712491495513962 	0
5 	2.85958173674616 	-5.20417042793042e-18 	0.948827883404394 	-0.00671690301519711 	0
5 	2.86972481407933 	-6.93889390390723e-18 	0.937243805716732 	-0.00631348267150431 	0
5 	2.87950945149043 	-8.67361737988404e-18 	0.924768824518933 	-0.00591308525429854 	0
5 	2.88894831566566 	-6.93889390390723e-18 	0.911238359487723 	-0.00551364524647462 	0
5 	2.89805362567106 	-5.20417042793042e-18 	0.896527592871371 	-0.0051140305944505 	0
5 	2.90683716877067 	-8.67361737988404e-18 	0.880589100813919 	-0.00471559384009375 	0
5 	2.91531031568569 	-6.93889390390723e-18 	0.863420453116187 	-0.00432055540120915 	0
5 	2.92348403531448 	-3.46944695195361e-18 	0.84503297502985 	-0.00393140315018726 	0
5 	2.93136890893229 	-1.73472347597681e-18 	0.825434050353801 	-0.00355075937343007 	0
5 	2.93897514388925 	0 	0.804617376390612 	-0.00318124734162514 	0
5 	2.94631258682425 	0 	0.782556220626159 	-0.00282537687460304 	0
5 	2.95339073641193 	1.73472347597681e-18 	0.759196334400557 	-0.00248546371269324 	0
5 	2.96021875565915 	3.46944695195361e-18 	0.734446731886784 	-0.00216357773224952 	0
5 	2.96680548376697 	3.46944695195361e-18 	0.70816758527367 	-0.0018615122473065 	0
5 	2.97315944757337 	1.73472347597681e-18 	0.680154644602892 	-0.00158076867424881 	0
5 	2.97928887259171 	0 	0.650118608799266 	-0.00132254489563451 	0
5 	2.98520169365902 	1.73472347597681e-18 	0.617657598766035 	-0.0010877257340695 	0
5 	2.99090556520806 	1.73472347597681e-18 	0.582220881807875 	-0.000876894978182233 	0
5 	2.99640787117633 	1.73472347597681e-18 	0.543062020388187 	-0.000690388149217366 	0
5 	3.00171573456492 	5.20417042793042e-18 	0.499170182392658 	-0.000528177442114654 	0
5 	3.00683602665962 	3.46944695195361e-18 	0.449119191211771 	-0.00038910986091434 	0
5 	3.01177537592612 	0 	0.391130878860278 	-0.000271689844807486 	0
5 	3.01654017659085 	0 	0.324303369148449 	-0.000174841195298729 	0
5 	3.02113659691864 	0 	0.250716564231886 	-9.98389027259289e-05 	0
5 	3.02557058719784 	1.73472347597681e-18 	0.175293147232234 	-4.75369268749498e-05 	0
5 	3.02984788744324 	3.46944695195361e-18 	0.1023194114136 	-1.63224342654622e-05 	0
