4 	0.00391112967796265 	-2.08166817117217e-17 	-0.0357917182375194 	2.38523401806606e-05 	0
4 	0.0118766651674913 	-2.42861286636753e-17 	-0.0971702500434019 	-6.91072180357271e-05 	0
4 	0.020134001548576 	-3.12250225675825e-17 	-0.142807744263482 	-0.000260172191891634 	-3.59914481298419e-22
4 	0.028693828342395 	-3.81639164714898e-17 	-0.16852039569485 	-0.000582815928297728 	-3.8276969607549e-21
4 	0.0375672266585909 	-3.81639164714898e-17 	-0.178343549238684 	-0.00100054070304226 	2.09072123132606e-23
4 	0.0467656835403032 	-3.81639164714898e-17 	-0.180466164697761 	-0.00147350945482861 	3.07343684659482e-21
4 	0.0563011068347006 	-3.81639164714898e-17 	-0.179491889610659 	-0.00199009029460142 	6.48803897641321e-23
4 	0.0661858406082648 	-3.46944695195361e-17 	-0.177164968648912 	-0.00254452213885625 	5.78698848375264e-22
4 	0.0764326811267815 	-3.46944695195361e-17 	-0.174126748373372 	-0.00313192518647046 	-1.2225211648182e-22
4 	0.0870548934207257 	-3.46944695195361e-17 	-0.170637461502632 	-0.00374946213520088 	-9.85875754628346e-23
4 	0.0980662284574838 	-3.81639164714898e-17 	-0.166812126438662 	-0.00439593047467145 	3.60998905982232e-22
4 	0.109480940942647 	-3.46944695195361e-17 	-0.162702769597259 	-0.0050709872677331 	-1.89477111763711e-24
4 	0.121313807773416 	-2.77555756156289e-17 	-0.158330657953623 	-0.00577473273358566 	-2.85743119131926e-23
4 	0.13358014716801 	-2.77555756156289e-17 	-0.153700343451186 	-0.0065075419687602 	-5.62594935169329e-23
4 	0.146295838495838 	-2.77555756156289e-17 	-0.148806309078055 	-0.00726998957357716 	-5.15875827979216e-23
4 	0.159477342834115 	-2.42861286636753e-17 	-0.143636302429062 	-0.00806280848270085 	-5.12770672331537e-24
4 	0.173141724277517 	-1.73472347597681e-17 	-0.138173060354302 	-0.00888686663619985 	4.36199957578437e-23
4 	0.18730667202848 	-1.73472347597681e-17 	-0.132395194522091 	-0.00974315489648509 	2.98250833954305e-24
4 	0.201990523296728 	-2.42861286636753e-17 	-0.126277609613587 	-0.0106327822002667 	-5.6197617797343e-22
4 	0.217212287037676 	-3.12250225675825e-17 	-0.119791643600939 	-0.0115569755000969 	4.59574232390922e-22
4 	0.232991668560441 	-3.81639164714898e-17 	-0.112905030885169 	-0.012517083027816 	4.87687720800003e-22
4 	0.249349095037321 	-4.16333634234434e-17 	-0.105581743607831 	-0.0135145798986711 	9.84349166898406e-22
4 	0.266305741947753 	-4.16333634234434e-17 	-0.0977817420598097 	-0.0145510752644014 	5.89036027968791e-22
4 	0.283883560490999 	-4.16333634234434e-17 	-0.0894606514949414 	-0.0156283202320189 	1.0601827752584e-21
4 	0.30210530600303 	-4.5102810375397e-17 	-0.0805693748092444 	-0.0167482156226404 	5.65888075578841e-23
4 	0.320994567414413 	-4.5102810375397e-17 	-0.0710536459497343 	-0.0179128183342459 	1.02690770619329e-21
4 	0.340575797787321 	-3.81639164714898e-17 	-0.0608535262940367 	-0.0191243446594295 	9.62021714843912e-22
4 	0.360874345971201 	-2.77555756156289e-17 	-0.049902844997671 	-0.0203851687709868 	-1.09692008116454e-21
4 	0.38191648941809 	-2.77555756156289e-17 	-0.0381285842797978 	-0.0216978144818597 	-3.69736491164431e-23
4 	0.403729468200046 	-3.81639164714898e-17 	-0.0254502120131287 	-0.0230649325570918 	4.59139428395728e-23
4 	0.426341520272733 	-4.5102810375397e-17 	-0.0117789673179267 	-0.0244892349145011 	1.20688463835195e-21
4 	0.449781918030829 	-3.81639164714898e-17 	0.00298289867544338 	-0.0259733727068206 	8.39786900682475e-23
4 	0.474081006202548 	-2.77555756156289e-17 	0.0189430372418564 	-0.0275200694874287 	1.28498375662495e-21
4 	0.499270241132363 	-3.12250225675825e-17 	0.0362197610476151 	-0.0291329655232738 	8.71872402312052e-23
4 	0.525382231502763 	-3.81639164714898e-17 	0.0549427121300395 	-0.0308158856004823 	4.52868551227132e-23
4 	0.552450780547767 	-3.81639164714898e-17 	0.0752768644989958 	-0.0325567021129478 	9.93774929592191e-24
4 	0.580510929812849 	-3.46944695195361e-17 	0.0977907047529095 	-0.0343706744875563 	-3.12162099077026e-21
4 	0.60959900451791 	-3.81639164714898e-17 	0.123317228300279 	-0.0362765434161123 	1.03776513365352e-23
4 	0.639752660582032 	-3.12250225675825e-17 	0.152259987065012 	-0.0382636569856618 	3.70782992212052e-21
4 	0.671010933370886 	-2.77555756156289e-17 	0.184615291597139 	-0.0403019853847196 	-3.8438230829335e-21
4 	0.7034142882299 	-3.81639164714898e-17 	0.220173527993477 	-0.0423502657558757 	4.14504788938252e-21
4 	0.737004672868606 	-3.81639164714898e-17 	0.258680534541476 	-0.0443612480019515 	-9.73362671667418e-23
4 	0.771825571663976 	-4.5102810375397e-17 	0.29989103740734 	-0.0462859613703296 	-3.73484414156322e-23
4 	0.807922061953053 	-4.85722573273506e-17 	0.343534415209667 	-0.0480762578286499 	-2.46551758651115e-22
4 	0.845340872387742 	-3.81639164714898e-17 	0.389253013873588 	-0.0496867489800578 	2.53137542849775e-22
4 	0.884130443427309 	-3.10081821330854e-17 	0.436563389776863 	-0.0510752912938928 	2.23673228266761e-19
4 	0.924340990046897 	-2.62376925741492e-17 	0.484839350028793 	-0.0522046268196235 	-8.59451991209122e-19
4 	0.966024566743241 	-2.99239799605999e-17 	0.533340116026624 	-0.0530485874315227 	-1.59002795810807e-18
4 	1.00923513492173 	-3.16587034365767e-17 	0.581265995951274 	-0.0535843573552002 	6.58728694832172e-23
4 	1.05402863275205 	-3.38271077815477e-17 	0.62778887331499 	-0.0537966537570546 	-8.77375939746078e-21
4 	1.10046304758287 	-3.51281503885303e-17 	0.672102005252677 	-0.0536812877952711 	-2.96012307362088e-22
4 	1.14859849100923 	-3.72965547335014e-17 	0.713493046231532 	-0.0532495902971306 	7.14204137068412e-21
4 	1.19849727668994 	-3.98986399474666e-17 	0.751469378019409 	-0.0525340706717542 	7.2828667475049e-21
4 	1.25022400101563 	-3.90312782094782e-17 	0.785949425893761 	-0.0515844047146164 	1.01323088162935e-21
4 	1.30384562673185 	-3.81639164714898e-17 	0.817407920886758 	-0.0504057941304069 	-1.07491140848742e-20
4 	1.35943156962565 	-3.38271077815477e-17 	0.846353888174322 	-0.0490399808485465 	-1.11646584709006e-20
4 	1.41705378838762 	-3.20923843055709e-17 	0.872924349995275 	-0.0475284556115134 	-5.54873981355961e-22
4 	1.47678687776592 	-3.29597460435593e-17 	0.897238272539223 	-0.0459489938637674 	-2.72472231546426e-24
4 	1.53870816513277 	-3.12250225675825e-17 	0.919568932042656 	-0.0443350685865524 	7.58009796654099e-21
4 	1.60289781058851 	-2.94902990916057e-17 	0.940229958027947 	-0.0426910297916038 	-8.02989811791819e-21
4 	1.66943891073266 	-3.12250225675825e-17 	0.959491624978934 	-0.0410034113324502 	-4.48718275223067e-21
4 	1.73841760623657 	-3.12250225675825e-17 	0.977556518510337 	-0.0392522236124784 	-9.80686123341502e-21
4 	1.80992319335659 	-3.12250225675825e-17 	0.994552802734478 	-0.0374193553554474 	1.91938570343633e-20
4 	1.88404823953248 	-3.12250225675825e-17 	1.0105253993178 	-0.0354905982624868 	-1.40393849890523e-21
4 	1.96088870322037 	-2.94902990916057e-17 	1.0249317818532 	-0.0335358763925535 	-1.63704471635333e-21
4 	2.02025965173184 	-3.12250225675825e-17 	1.03535916763476 	-0.03196378101853 	0
4 	2.06006301192217 	-2.77555756156289e-17 	1.04233296309674 	-0.0308119803676078 	0
4 	2.09845978584128 	-2.77555756156289e-17 	1.04819985591674 	-0.0297671966642461 	0
4 	2.13549967996945 	-3.46944695195361e-17 	1.05348452235482 	-0.0287558852583615 	0
4 	2.17123064424048 	-3.46944695195361e-17 	1.05822900299133 	-0.0277763323134042 	0
4 	2.20569893411515 	-3.12250225675825e-17 	1.06247087511664 	-0.026828300858477 	0
4 	2.23894917046122 	-2.77555756156289e-17 	1.06624357643518 	-0.0259114548365581 	0
4 	2.27102439731725 	-3.46944695195361e-17 	1.06957665742176 	-0.0250252431621736 	0
4 	2.30196613761521 	-4.16333634234434e-17 	1.0724960041658 	-0.0241689880613306 	0
4 	2.33181444693391 	-4.16333634234434e-17 	1.07502404007221 	-0.0233419190365648 	0
4 	2.3606079653529 	-4.16333634234434e-17 	1.07717990998025 	-0.0225431898872955 	0
4 	2.3883839674739 	-3.81639164714898e-17 	1.07897964855047 	-0.0217718955200663 	0
4 	2.41517841067461 	-3.12250225675825e-17 	1.08043633395732 	-0.0210270873464359 	0
4 	2.44102598165722 	-3.46944695195361e-17 	1.0815602281473 	-0.0203077863095821 	0
4 	2.46596014135207 	-4.16333634234434e-17 	1.08235890565196 	-0.0196129937241424 	0
4 	2.49001316823443 	-4.5102810375397e-17 	1.08283737378978 	-0.0189417002329485 	0
4 	2.51321620011054 	-4.85722573273506e-17 	1.08299818784757 	-0.0182928931228039 	0
4 	2.535599274427 	-4.85722573273506e-17 	1.08284156537124 	-0.0176655622004065 	0
4 	2.55719136715571 	-4.85722573273506e-17 	1.08236550389707 	-0.0170587043903171 	0
4 	2.57802043030465 	-4.85722573273506e-17 	1.08156590619045 	-0.0164713271746672 	0
4 	2.59811342810315 	-4.85722573273506e-17 	1.08043671619238 	-0.0159024509556993 	0
4 	2.61749637190832 	-4.85722573273506e-17 	1.07897006728268 	-0.0153511103929956 	0
4 	2.63619435387806 	-4.85722573273506e-17 	1.07715644208188 	-0.0148163547521237 	0
4 	2.65423157945406 	-4.16333634234434e-17 	1.07498483987119 	-0.014297247305144 	0
4 	2.67163139869691 	-3.46944695195361e-17 	1.07244294401238 	-0.0137928638502895 	0
4 	2.68841633651388 	-3.46944695195361e-17 	1.06951727790708 	-0.0133022904709518 	0
4 	2.7046081218185 	-3.46944695195361e-17 	1.06619333465703 	-0.0128246207326363 	0
4 	2.72022771565972 	-3.46944695195361e-17 	1.06245566342451 	-0.0123589526160578 	0
4 	2.73529533835694 	-3.46944695195361e-17 	1.05828789529522 	-0.0119043855949885 	0
4 	2.74983049567625 	-3.46944695195361e-17 	1.05367269377717 	-0.0114600183739106 	0
4 	2.76385200408156 	-3.81639164714898e-17 	1.04859162010929 	-0.011024947885388 	0
4 	2.77737801509343 	-3.81639164714898e-17 	1.04302491097164 	-0.0105982701933811 	0
4 	2.79042603878708 	-3.46944695195361e-17 	1.03695117513932 	-0.0101790839400681 	0
4 	2.80301296646003 	-3.81639164714898e-17 	1.03034702488577 	-0.00976649689201462 	0
4 	2.81515509249872 	-4.16333634234434e-17 	1.02318666618102 	-0.00935963601246345 	0
4 	2.82686813547237 	-4.16333634234434e-17 	1.0154414777398 	-0.00895766151910447 	0
4 	2.83816725848142 	-4.16333634234434e-17 	1.00707961172932 	-0.00855978556419328 	0
4 	2.84906708878691 	-4.5102810375397e-17 	0.998065647350488 	-0.00816529347868926 	0
4 	2.85958173674616 	-4.85722573273506e-17 	0.988360320949799 	-0.0077735548732085 	0
4 	2.86972481407933 	-4.85722573273506e-17 	0.977920339194198 	-0.00738402020000456 	0
4 	2.87950945149043 	-4.85722573273506e-17 	0.966698186563805 	-0.00699639680847726 	0
4 	2.88894831566566 	-4.85722573273506e-17 	0.954633778980806 	-0.00661073548415301 	0
4 	2.89805362567106 	-4.85722573273506e-17 	0.941612464576714 	-0.00622528017134183 	0
4 	2.90683716877067 	-4.85722573273506e-17 	0.927454754751533 	-0.00583769954068904 	0
4 	2.91531031568569 	-5.20417042793042e-17 	0.911991612156733 	-0.00544609369018288 	0
4 	2.92348403531448 	-5.55111512312578e-17 	0.895111532753958 	-0.00505102715582486 	0
4 	2.93136890893229 	-5.89805981832114e-17 	0.876740036767437 	-0.00465421105063847 	0
4 	2.93897514388925 	-5.89805981832114e-17 	0.856813553871664 	-0.00425788073850023 	0
4 	2.94631258682425 	-5.20417042793042e-17 	0.835263584706059 	-0.00386467924672529 	0
4 	2.95339073641193 	-4.85722573273506e-17 	0.812005428654543 	-0.00347747956361317 	0
4 	2.96021875565915 	-4.85722573273506e-17 	0.786927051765908 	-0.00309920879863128 	0
4 	2.96680548376697 	-4.85722573273506e-17 	0.759875585039116 	-0.00273272030385466 	0
4 	2.97315944757337 	-4.85722573273506e-17 	0.730640200215424 	-0.00238071327218999 	0
4 	2.97928887259171 	-4.85722573273506e-17 	0.698930024622381 	-0.00204568332012934 	0
4 	2.98520169365902 	-4.85722573273506e-17 	0.664345302804436 	-0.00172990265073852 	0
4 	2.99090556520806 	-5.55111512312578e-17 	0.626338336109677 	-0.00143542105979117 	-2.15578801498956e-15
4 	2.99640787117633 	-6.24500451351651e-17 	0.584165900895281 	-0.00116404652786642 	-6.38339037949992e-15
4 	3.00171573456492 	-6.24500451351651e-17 	0.536860592491553 	-0.000917635345286445 	7.85275187933341e-15
4 	3.00683602665962 	-6.24500451351651e-17 	0.483137641097613 	-0.000698064317134511 	2.44391606272118e-15
4 	3.01177537592612 	-6.24500451351651e-17 	0.421249630075564 	-0.000505298251306152 	0
4 	3.01654017659085 	-6.24500451351651e-17 	0.350043163423844 	-0.000339773431303559 	0
4 	3.02113659691864 	-6.24500451351651e-17 	0.271349772196341 	-0.000204391871770346 	0
4 	3.02557058719784 	-6.59194920871187e-17 	0.190167250495412 	-0.000103440840542071 	0
4 	3.02984788744324 	-6.93889390390723e-17 	0.111199121242798 	-3.84652033872018e-05 	0
