6 	0.00391112967796271 	-2.08166817117217e-17 	0.163827078581418 	1.2834160169748e-05 	843.040390857018 	2.28828725572771e-07 	2.8330962927152e-38
6 	0.0118766651674914 	-2.08166817117217e-17 	0.163825247192143 	0.000150555328364992 	237.59081881966 	2.3994485276854e-06 	0
6 	0.020134001548576 	-2.08166817117217e-17 	0.163820492281984 	0.00076774253506275 	60.6690629994018 	6.73323359918954e-06 	0
6 	0.0286938283423949 	-2.77555756156289e-17 	0.16381054286986 	0.00215735236131784 	25.1761184558444 	6.2713958039815e-06 	0
6 	0.0375672266585909 	-2.77555756156289e-17 	0.163789334059764 	0.00396310329447935 	13.5152796599891 	4.17952157295988e-05 	0
6 	0.0467656835403032 	-2.77555756156289e-17 	0.16375320023501 	0.00568648318597341 	8.70513603825209 	0.00011578114195745 	0
6 	0.0563011068347007 	-3.12250225675825e-17 	0.163703468239024 	0.00718668165116942 	6.34422080090278 	0.000192656057454738 	0
6 	0.0661858406082649 	-3.12250225675825e-17 	0.163643558978993 	0.0084962624107264 	5.00217963522122 	0.000263657906451225 	0
6 	0.0764326811267816 	-3.46944695195361e-17 	0.163576121542591 	0.00966745423135454 	4.1513459682542 	0.000331628608890449 	0
6 	0.0870548934207257 	-4.16333634234434e-17 	0.163502768039969 	0.0107395756094829 	3.56871872818975 	0.000399430863791714 	0
6 	0.0980662284574838 	-4.16333634234434e-17 	0.163424625726795 	0.0117397213358835 	3.14725262774249 	0.000468821474261822 	0
6 	0.109480940942647 	-3.46944695195361e-17 	0.163342628140843 	0.0126867606562285 	2.82994700021464 	0.000540921621742329 	0
6 	0.121313807773416 	-2.77555756156289e-17 	0.163257593219244 	0.0135942512854473 	2.58387519658111 	0.000616543848298485 	0
6 	0.13358014716801 	-2.77555756156289e-17 	0.163170255557603 	0.0144722680316458 	2.38875887923317 	0.000696358445671901 	0
6 	0.146295838495839 	-2.77555756156289e-17 	0.163081292993391 	0.0153285389189881 	2.23145496722329 	0.000780976587410531 	0
6 	0.159477342834115 	-2.08166817117217e-17 	0.162991345193429 	0.016169173156007 	2.1030856852115 	0.000870994188038066 	0
6 	0.173141724277517 	-2.08166817117217e-17 	0.162901024349364 	0.0169991409444036 	1.99744796490309 	0.000967017841113377 	0
6 	0.18730667202848 	-2.77555756156289e-17 	0.162810920801322 	0.0178225645630895 	1.91008451464658 	0.00106968323987459 	0
6 	0.201990523296728 	-3.46944695195361e-17 	0.162721605035716 	0.018642851212491 	1.83771665662761 	0.00117966518815355 	0
6 	0.217212287037675 	-4.85722573273506e-17 	0.162633627247667 	0.0194628872082489 	1.77788491661925 	0.00129768716802413 	0
6 	0.232991668560441 	-5.89805981832114e-17 	0.162547515637836 	0.0202851416015163 	1.72871379383026 	0.0014245257277949 	0
6 	0.249349095037321 	-6.59194920871187e-17 	0.162463773393275 	0.0211117281249404 	1.68875319559426 	0.00156101377916046 	0
6 	0.266305741947753 	-6.93889390390723e-17 	0.162382874583736 	0.0219444427031177 	1.65686871545508 	0.0017080419476725 	0
6 	0.283883560490998 	-7.63278329429795e-17 	0.162305259153055 	0.0227847814532112 	1.63216385078973 	0.00186655739902421 	0
6 	0.30210530600303 	-9.0205620750794e-17 	0.162231327104365 	0.0236339422002718 	1.61392355799687 	0.00203755954727745 	0
6 	0.320994567414413 	-9.71445146547012e-17 	0.162161431927713 	0.0244928112347567 	1.60157230665694 	0.00222209181880093 	0
6 	0.340575797787321 	-9.0205620750794e-17 	0.162095873278379 	0.025361936157403 	1.59464210309429 	0.00242122840783742 	0
6 	0.360874345971201 	-7.97972798949331e-17 	0.162034888889914 	0.0262414850605774 	1.59274740465675 	0.00263605470821613 	0
6 	0.38191648941809 	-7.63278329429795e-17 	0.161978645656465 	0.0271311919176744 	1.59556477714493 	0.0028676398596242 	0
6 	0.403729468200046 	-8.32667268468867e-17 	0.161927229477768 	0.028030287864939 	1.6028157569519 	0.0031169996721602 	0
6 	0.426341520272733 	-9.36750677027476e-17 	0.16188063282725 	0.0289374180618732 	1.61425178548541 	0.00338504806176487 	0
6 	0.4412815466198 	-9.71445146547012e-17 	0.161852842542538 	0.029524403605944 	1.62347394527139 	0.00356659811844305 	0
6 	0.453212556784876 	-9.0205620750794e-17 	0.161833031923209 	0.0299821543048242 	1.63210960890143 	0.00371518491884438 	0
6 	0.474081006202548 	-7.63278329429795e-17 	0.16180127558875 	0.0307668446865092 	1.64868878295644 	0.00397959955164997 	0
6 	0.499270241132363 	-7.63278329429795e-17 	0.161767997699533 	0.0316827115744654 	1.67123733182763 	0.00430682741915342 	0
6 	0.525382231502763 	-8.32667268468867e-17 	0.161738360020616 	0.0325933903044655 	1.69701227831814 	0.00465392288355392 	0
6 	0.552450780547767 	-7.63278329429795e-17 	0.161711029687542 	0.0334929511608184 	1.72571419556168 	0.00502024864071896 	0
6 	0.580510929812849 	-6.93889390390723e-17 	0.161684117110869 	0.0343741282176449 	1.75699101032875 	0.00540624593478887 	0
6 	0.60959900451791 	-6.93889390390723e-17 	0.161662653534801 	0.03522828374491 	1.79042619066275 	0.00583263553648181 	0
6 	0.639752660582032 	-6.93889390390723e-17 	0.161666647411371 	0.0360467410756366 	1.82558436615242 	0.00633996702386298 	0
6 	0.671010933370886 	-5.89805981832114e-17 	0.161708678727696 	0.0368228768582531 	1.86198083608338 	0.00689352268053827 	0
6 	0.7034142882299 	-4.85722573273506e-17 	0.161762937446361 	0.0375427624266898 	1.89827746006148 	0.00749129620132938 	0
6 	0.737004672868606 	-4.68375338513738e-17 	0.161789787731187 	0.0381708618646043 	1.9315903625487 	0.00804937800191885 	0
6 	0.771825571663976 	-4.5102810375397e-17 	0.161773145293865 	0.0386617018484866 	1.95830067662574 	0.00849236620998653 	0
6 	0.807922061953053 	-4.68375338513738e-17 	0.161714582075643 	0.0389749728031543 	1.97513615952328 	0.00879313865074968 	0
6 	0.845340872387742 	-5.55111512312578e-17 	0.161619063890776 	0.0390821384573799 	1.97972555361644 	0.00895442435180733 	0
6 	0.884130443427309 	-5.89805981832114e-17 	0.161488310370472 	0.0389664069408371 	1.9706370201979 	0.00898711463503724 	0
6 	0.924340990046897 	-5.03069808033274e-17 	0.161319477725044 	0.0386206049802004 	1.94722062536768 	0.00889724769262609 	0
6 	0.966024566743241 	-4.68375338513738e-17 	0.161106205466774 	0.0380462801245974 	1.90949800467578 	0.00868486767517413 	0
6 	1.00923513492173 	-5.11743425413158e-17 	0.160840340979104 	0.0372546112323123 	1.85813669700469 	0.00835018849970889 	0
6 	1.05402863275205 	-5.46437894932694e-17 	0.160513423188551 	0.0362678785399529 	1.79444967484838 	0.00790076676782617 	0
6 	1.10046304758287 	-5.5944832100252e-17 	0.160117624797064 	0.035119823836587 	1.72036244662423 	0.0073553798635947 	0
6 	1.14859849100923 	-5.29090660172926e-17 	0.159646255609833 	0.0338537796353977 	1.63831238198726 	0.0067432109128473 	0
6 	1.19849727668994 	-4.88975179790962e-17 	0.159094043843301 	0.0325184423760893 	1.55106382883039 	0.00609928931747826 	0
6 	1.25022400101563 	-5.54027310140093e-17 	0.158456615162962 	0.0311623188651333 	1.46145364340697 	0.00545853221413605 	0
6 	1.30384562673185 	-5.55111512312578e-17 	0.157728633444102 	0.0298297208587603 	1.37219824658447 	0.00485152241564885 	0
6 	1.35943156962565 	-4.85722573273506e-17 	0.156913984272298 	0.028551690765823 	1.28542392264035 	0.00429678673430721 	0
6 	1.41705378838762 	-4.85722573273506e-17 	0.15601425024653 	0.0273465733168007 	1.20259008164202 	0.00380328452600714 	0
6 	1.47678687776592 	-5.20417042793042e-17 	0.155032228265722 	0.0262210508472036 	1.12455020503684 	0.00337188108448303 	0
6 	1.53870816513277 	-5.20417042793042e-17 	0.153971542797961 	0.0251723544277728 	1.0516662083892 	0.0029980357610414 	0
6 	1.60289781058851 	-5.55111512312578e-17 	0.152836355399386 	0.024191022847153 	0.983958235696879 	0.00267445602501501 	0
6 	1.66943891073266 	-6.24500451351651e-17 	0.151631237689209 	0.0232635220971741 	0.921236545464866 	0.00239308415952525 	0
6 	1.73841760623657 	-5.55111512312578e-17 	0.150361286183572 	0.0223744062904745 	0.863191514326935 	0.00214623008166377 	0
6 	1.80992319335659 	-4.85722573273506e-17 	0.149032861847609 	0.0215079982054894 	0.809445603298708 	0.00192700731851211 	0
6 	1.88404823953248 	-4.85722573273506e-17 	0.147647433293387 	0.0206497062362254 	0.759583646044508 	0.00172946362477488 	0
6 	1.96088870322037 	-3.81639164714898e-17 	0.146221200205847 	0.0197881389881919 	0.713259015393994 	0.00154972198128363 	0
6 	2.04004996790234 	-2.77555756156289e-17 	0.144782233422724 	0.0189223940380398 	0.670383079756064 	0.00138545013288808 	0
6 	2.11873460271874 	-3.12250225675825e-17 	0.143361227789653 	0.0180677377952967 	0.631232731646776 	0.00123562467073189 	0
6 	2.19463865000284 	-3.81639164714898e-17 	0.14200775239749 	0.0172410460503623 	0.596071213573739 	0.00110038196202219 	0
6 	2.26786037121375 	-4.16333634234434e-17 	0.140733143758433 	0.01644923571512 	0.564847304221304 	0.000978225443363762 	0
6 	2.33849455540975 	-4.16333634234434e-17 	0.139536279652591 	0.0156960384821535 	0.537405862746079 	0.000867556549220422 	0
6 	2.40663264195736 	-4.16333634234434e-17 	0.138418648120107 	0.014984513531204 	0.513502592151596 	0.000769055711760127 	0
6 	2.47236283890404 	-4.16333634234434e-17 	0.137381941065943 	0.0143138704277156 	0.492780113180153 	0.000682319320784195 	0
6 	2.5357702371677 	-4.16333634234434e-17 	0.136424644965017 	0.0136786169665655 	0.474804624130191 	0.000604244113801717 	0
6 	2.59693692069107 	-3.81639164714898e-17 	0.135536592053967 	0.0130736757570537 	0.459229302766083 	0.000532822805582913 	0
6 	2.65594207270333 	-3.81639164714898e-17 	0.134706197656516 	0.0124979457178555 	0.445872887267133 	0.000466630864758719 	0
6 	2.71286207822658 	-4.16333634234434e-17 	0.133928552415404 	0.0119520516032657 	0.434629781861254 	0.000404777777111861 	0
6 	2.76777062295999 	-4.16333634234434e-17 	0.133201394515035 	0.0114361430992583 	0.425402519617028 	0.000347748767934832 	0
6 	2.82073878866949 	-4.16333634234434e-17 	0.132521836682543 	0.0109497436987136 	0.418101850294628 	0.000295880540640042 	0
6 	2.87183514520654 	-4.16333634234434e-17 	0.131887026251127 	0.0104919771420463 	0.412653833393547 	0.000249131287492956 	0
6 	2.92112583927514 	-4.16333634234434e-17 	0.131294244175118 	0.0100617427143096 	0.409003932380431 	0.000207280310187051 	0
6 	2.96867468006189 	-4.16333634234434e-17 	0.130740898690936 	0.00965784109269598 	0.407119327867752 	0.000170035519683295 	0
