# wallShearStress  FACE_DATA 470
#  x  y  z  wallShearStress_x  wallShearStress_y  wallShearStress_z  
0.0005 0.001 4.71048e-05 -6.96328 4.78704e-16 -7.41419e-17
0.0005 0.001 0.000140876 -6.9633 1.37337e-16 3.01075e-17
0.0005 0.001 0.000233775 -6.96333 2.75411e-16 1.13068e-16
0.0005 0.001 0.00032581 -6.96336 1.04901e-16 1.15863e-16
0.0005 0.001 0.000416988 -6.96336 4.83058e-17 1.4029e-16
0.0005 0.001 0.000507318 -6.96338 1.03646e-16 6.68801e-17
0.0005 0.001 0.000596807 -6.96338 1.03577e-16 2.32887e-17
0.0005 0.001 0.000685463 -6.96338 1.78815e-16 -1.45427e-17
0.0005 0.001 0.000773295 -6.96338 1.09692e-16 -3.43439e-17
0.0005 0.001 0.00086031 -6.96338 1.45535e-16 -4.67357e-17
0.0005 0.001 0.000946515 -6.96336 -2.8039e-17 -9.32588e-17
0.0005 0.001 0.00103192 -6.96336 -9.18314e-18 -6.57787e-17
0.0005 0.001 0.00111653 -6.96333 -7.38183e-18 5.17023e-18
0.0005 0.001 0.00120035 -6.9633 -5.18618e-17 -1.27903e-16
0.0005 0.001 0.00128339 -6.96328 -9.31959e-17 -1.76909e-17
0.0005 0.001 0.00136566 -6.96325 1.39798e-16 8.37522e-17
0.0005 0.001 0.00144716 -6.96322 -4.98138e-16 1.96783e-16
0.0005 0.001 0.0015279 -6.9632 4.30903e-16 2.11473e-16
0.0005 0.001 0.0016079 -6.96315 -8.24156e-16 7.95964e-17
0.0005 0.001 0.00168715 -6.96309 7.44304e-16 -1.57696e-16
0.0005 0.001 0.00176566 -6.96307 -3.53835e-16 -4.0712e-16
0.0005 0.001 0.00184344 -6.96302 -1.23388e-16 -7.81306e-17
0.0005 0.001 0.00192049 -6.96294 7.19913e-16 -1.3423e-16
0.0005 0.001 0.00199684 -6.96288 -2.14022e-16 -1.98405e-16
0.0005 0.001 0.00207247 -6.96283 2.27997e-16 -1.68021e-16
0.0005 0.001 0.00214739 -6.96275 -2.40548e-16 -2.15217e-16
0.0005 0.001 0.00222162 -6.96268 -1.42175e-17 -7.94412e-17
0.0005 0.001 0.00229516 -6.9626 -7.37131e-17 -4.87724e-17
0.0005 0.001 0.00236801 -6.96252 -2.11224e-16 -1.91574e-17
0.0005 0.001 0.00244019 -6.96241 -8.6701e-17 8.44396e-17
0.0005 0.001 0.00251169 -6.96231 -2.42219e-16 -9.12146e-17
0.0005 0.001 0.00258253 -6.9622 -1.80345e-16 -2.65802e-17
0.0005 0.001 0.00265271 -6.9621 -1.01618e-16 7.09469e-17
0.0005 0.001 0.00272224 -6.96197 -5.633e-17 -6.23312e-17
0.0005 0.001 0.00279112 -6.96186 -3.83962e-17 1.1231e-16
0.0005 0.001 0.00285936 -6.96171 -6.59344e-17 3.66975e-17
0.0005 0.001 0.00292697 -6.96158 4.74851e-17 3.37986e-17
0.0005 0.001 0.00299394 -6.96142 1.24462e-16 -3.1623e-18
0.0005 0.001 0.00306029 -6.96126 -7.65157e-17 -6.40808e-17
0.0005 0.001 0.00312603 -6.96108 -6.92419e-17 -5.24401e-17
0.0005 0.001 0.00319115 -6.9609 -2.28133e-16 -5.59251e-17
0.0005 0.001 0.00325567 -6.96071 -1.21761e-16 2.09093e-17
0.0005 0.001 0.00331959 -6.9605 1.95548e-17 -8.6302e-17
0.0005 0.001 0.00338291 -6.96029 -2.6877e-16 1.49294e-17
0.0005 0.001 0.00344564 -6.96006 1.58365e-16 -5.85411e-17
0.0005 0.001 0.00350779 -6.95982 -2.56056e-16 -7.43565e-18
0.0005 0.001 0.00356936 -6.95956 2.58874e-16 3.57444e-18
0.0005 0.001 0.00363036 -6.9593 -2.32598e-16 -9.75632e-17
0.0005 0.001 0.00369079 -6.95901 2.5471e-16 9.99312e-18
0.0005 0.001 0.00375066 -6.95873 -1.02115e-16 -3.14668e-17
0.0005 0.001 0.00380997 -6.95839 3.13931e-16 -4.95016e-17
0.0005 0.001 0.00386873 -6.95807 -1.06377e-16 -6.885e-17
0.0005 0.001 0.00392694 -6.95771 1.17231e-16 -3.36725e-17
0.0005 0.001 0.00398462 -6.95734 2.39215e-16 -8.34003e-17
0.0005 0.001 0.00404175 -6.95695 -6.7998e-18 -1.63824e-16
0.0005 0.001 0.00409835 -6.95653 4.68273e-17 -1.46695e-16
0.0005 0.001 0.00415443 -6.95611 -1.47503e-16 -8.1499e-17
0.0005 0.001 0.00420998 -6.95564 -1.00079e-16 -1.27242e-16
0.0005 0.001 0.00426502 -6.95517 -2.43839e-16 -8.65163e-17
0.0005 0.001 0.00431955 -6.95467 -2.01951e-16 -1.30049e-16
0.0005 0.001 0.00437357 -6.95412 -2.52064e-16 -6.9965e-17
0.0005 0.001 0.00442708 -6.95357 -2.90619e-17 1.03145e-16
0.0005 0.001 0.0044801 -6.953 3.75115e-16 -1.82019e-17
0.0005 0.001 0.00453262 -6.95237 -3.22917e-16 2.7191e-17
0.0005 0.001 0.00458466 -6.95174 4.01324e-16 -5.86685e-17
0.0005 0.001 0.00463621 -6.95106 -3.16314e-16 -2.03342e-17
0.0005 0.001 0.00468728 -6.95035 2.92973e-16 4.42756e-17
0.0005 0.001 0.00473788 -6.94962 -3.00137e-16 -9.07555e-18
0.0005 0.001 0.004788 -6.94886 2.17453e-16 7.4011e-17
0.0005 0.001 0.00483766 -6.94805 -2.85571e-16 3.10567e-17
0.0005 0.001 0.00488686 -6.94722 1.49161e-16 1.35461e-16
0.0005 0.001 0.0049356 -6.94633 -2.74297e-16 2.04857e-16
0.0005 0.001 0.00498389 -6.94541 -1.1198e-16 2.14265e-16
0.0005 0.001 0.00503172 -6.94444 -4.20434e-17 1.75493e-16
0.0005 0.001 0.00507911 -6.94345 1.46727e-16 7.52947e-17
0.0005 0.001 0.00512607 -6.9424 3.36818e-16 -7.57688e-17
0.0005 0.001 0.00517258 -6.9413 3.07933e-16 -9.90016e-17
0.0005 0.001 0.00521866 -6.94018 3.65948e-16 -1.91559e-17
0.0005 0.001 0.00526431 -6.939 1.87549e-16 -2.43329e-17
0.0005 0.001 0.00530954 -6.93777 1.35454e-16 -1.45436e-17
0.0005 0.001 0.00535435 -6.93649 -8.75408e-17 1.01694e-17
0.0005 0.001 0.00539874 -6.93516 -1.11955e-16 9.07703e-17
0.0005 0.001 0.00544271 -6.93377 -1.68467e-16 9.41783e-17
0.0005 0.001 0.00548628 -6.93233 -1.64987e-16 1.18519e-16
0.0005 0.001 0.00552944 -6.93084 -5.89561e-17 1.1101e-16
0.0005 0.001 0.0055722 -6.92927 -8.41405e-17 6.09039e-17
0.0005 0.001 0.00561457 -6.92767 2.33004e-18 2.08714e-16
0.0005 0.001 0.00565654 -6.926 3.22457e-17 1.88288e-16
0.0005 0.001 0.00569811 -6.92425 1.65722e-16 1.62724e-16
0.0005 0.001 0.0057393 -6.92247 1.31089e-16 2.23846e-16
0.0005 0.001 0.00578011 -6.92059 1.46232e-16 1.97054e-16
0.0005 0.001 0.00582054 -6.91868 1.0113e-16 2.40559e-16
0.0005 0.001 0.00586059 -6.91666 1.18102e-16 2.20194e-16
0.0005 0.001 0.00590027 -6.91459 1.0039e-16 1.81673e-16
0.0005 0.001 0.00593958 -6.91248 2.8218e-17 2.22281e-16
0.0005 0.001 0.00597853 -6.91025 -4.0679e-17 1.83333e-16
0.0005 0.001 0.00601711 -6.90798 -6.69415e-17 2.1429e-16
0.0005 0.001 0.00605533 -6.90562 -9.83284e-17 2.22182e-16
0.0005 0.001 0.0060932 -6.90319 -8.34933e-17 2.63373e-16
0.0005 0.001 0.00613071 -6.90068 -4.87824e-17 2.67766e-16
0.0005 0.001 0.00616788 -6.89806 6.43721e-18 2.23146e-16
0.0005 0.001 0.0062047 -6.89539 -7.4258e-19 2.27769e-16
0.0005 0.001 0.00624118 -6.89265 -2.23738e-18 2.03117e-16
0.0005 0.001 0.00627732 -6.8898 2.37738e-17 1.95712e-16
0.0005 0.001 0.00631312 -6.88687 6.53111e-17 1.25211e-16
0.0005 0.001 0.00634859 -6.88386 7.79416e-17 1.24855e-16
0.0005 0.001 0.00638373 -6.88074 8.51676e-17 7.62361e-17
0.0005 0.001 0.00641854 -6.87755 3.33545e-17 6.26573e-17
0.0005 0.001 0.00645303 -6.87428 5.41797e-17 7.50881e-17
0.0005 0.001 0.00648719 -6.87091 1.44626e-17 5.87816e-17
0.0005 0.001 0.00652104 -6.86746 3.52417e-17 3.82452e-17
0.0005 0.001 0.00655458 -6.86387 -1.05023e-17 4.56919e-17
0.0005 0.001 0.0065878 -6.86024 3.67704e-18 7.2662e-17
0.0005 0.001 0.00662071 -6.85647 -7.23814e-18 8.7852e-17
0.0005 0.001 0.00665332 -6.85262 -9.28382e-18 8.10663e-17
0.0005 0.001 0.00668562 -6.84867 -1.24055e-17 1.0316e-16
0.0005 0.001 0.00671763 -6.84462 -1.55346e-17 9.15532e-17
0.0005 0.001 0.00674933 -6.84049 -1.84364e-17 8.70688e-17
0.0005 0.001 0.00678074 -6.83622 -2.4911e-17 8.54929e-17
0.0005 0.001 0.00681186 -6.83188 -4.99147e-17 5.85681e-17
0.0005 0.001 0.00684269 -6.82743 -9.13306e-17 6.22164e-17
0.0005 0.001 0.00687323 -6.82288 -7.24833e-17 3.4851e-17
0.0005 0.001 0.00690349 -6.8182 -8.3088e-17 6.25728e-17
0.0005 0.001 0.00693346 -6.81344 -9.17952e-17 7.32791e-17
0.0005 0.001 0.00696316 -6.80857 -2.90932e-17 6.09462e-17
0.0005 0.001 0.00699258 -6.8036 -6.45579e-17 5.9141e-17
0.0005 0.001 0.00702173 -6.79853 -3.42989e-17 8.37127e-17
0.0005 0.001 0.0070506 -6.79332 -8.4384e-17 1.04315e-16
0.0005 0.001 0.00707921 -6.78804 -2.79747e-17 7.6478e-17
0.0005 0.001 0.00710755 -6.78262 -5.05821e-17 3.68766e-17
0.0005 0.001 0.00713563 -6.7771 1.11943e-17 1.72175e-17
0.0005 0.001 0.00716344 -6.7715 -3.74453e-17 2.82233e-17
0.0005 0.001 0.007191 -6.76577 1.82856e-17 -2.29706e-17
0.0005 0.001 0.0072183 -6.75994 -6.62136e-17 -3.07983e-17
0.0005 0.001 0.00724535 -6.75398 -1.76254e-17 -3.89767e-17
0.0005 0.001 0.00727214 -6.74793 -4.71712e-17 -9.94512e-17
0.0005 0.001 0.00729869 -6.74179 -7.70901e-17 -9.27374e-17
0.0005 0.001 0.00732498 -6.73551 -1.13578e-16 -1.12837e-16
0.0005 0.001 0.00735104 -6.72915 -1.60913e-16 -8.79401e-17
0.0005 0.001 0.00737685 -6.72266 -1.99995e-16 -1.03995e-16
0.0005 0.001 0.00740242 -6.7161 -2.20298e-16 -8.00828e-17
0.0005 0.001 0.00742776 -6.7094 -2.51095e-16 -5.63638e-17
0.0005 0.001 0.00745285 -6.7026 -2.30021e-16 -5.85816e-17
0.0005 0.001 0.00747772 -6.69569 -2.25027e-16 3.29075e-17
0.0005 0.001 0.00750235 -6.68868 -1.74785e-16 3.93208e-17
0.0005 0.001 0.00752675 -6.68159 -1.98655e-16 5.82308e-17
0.0005 0.001 0.00755093 -6.67437 -1.27319e-16 6.52798e-17
0.0005 0.001 0.00757488 -6.66705 -1.19763e-16 5.97718e-17
0.0005 0.001 0.00759861 -6.65965 -5.20747e-17 9.28155e-17
0.0005 0.001 0.00762212 -6.65214 -3.07175e-17 1.01539e-16
0.0005 0.001 0.00764541 -6.6445 4.67653e-17 1.07274e-16
0.0005 0.001 0.00766848 -6.63678 5.27246e-17 1.14026e-16
0.0005 0.001 0.00769134 -6.62899 9.15231e-17 7.76847e-17
0.0005 0.001 0.00771398 -6.62106 4.32988e-17 2.99132e-17
0.0005 0.001 0.00773642 -6.61306 6.6629e-17 2.09835e-17
0.0005 0.001 0.00775864 -6.60497 5.08005e-17 -4.18548e-17
0.0005 0.001 0.00778066 -6.59676 8.17028e-17 -9.40744e-17
0.0005 0.001 0.00780248 -6.58849 4.57311e-17 -1.29548e-16
0.0005 0.001 0.00782409 -6.5801 3.31055e-17 -1.90768e-16
0.0005 0.001 0.0078455 -6.57165 -4.14527e-17 -1.6233e-16
0.0005 0.001 0.00786671 -6.56309 -9.79051e-17 -1.67147e-16
0.0005 0.001 0.00788772 -6.55443 -1.48928e-16 -1.48878e-16
0.0005 0.001 0.00790854 -6.5457 -1.36955e-16 -4.74886e-17
0.0005 0.001 0.00792916 -6.53691 -1.32786e-16 -1.83232e-17
0.0005 0.001 0.0079496 -6.52801 -7.69951e-17 -2.43969e-17
0.0005 0.001 0.00796984 -6.51904 -1.47669e-16 -8.83078e-18
0.0005 0.001 0.00798989 -6.50996 -8.29757e-17 7.2577e-18
0.0005 0.001 0.00800976 -6.50083 -1.17655e-16 8.3413e-18
0.0005 0.001 0.00802944 -6.49163 -4.61891e-17 1.14319e-17
0.0005 0.001 0.00804894 -6.48234 -7.20936e-17 1.65823e-17
0.0005 0.001 0.00806826 -6.473 -1.76298e-18 3.6046e-18
0.0005 0.001 0.0080874 -6.46356 -3.35507e-17 -2.79232e-18
0.0005 0.001 0.00810636 -6.45406 2.80836e-17 -7.03731e-18
0.0005 0.001 0.00812514 -6.44449 -2.07684e-17 -2.18797e-17
0.0005 0.001 0.00814375 -6.43486 2.46002e-17 7.94549e-18
0.0005 0.001 0.00816218 -6.42516 1.75125e-17 -2.92124e-17
0.0005 0.001 0.00818045 -6.41537 4.60933e-17 -6.29639e-17
0.0005 0.001 0.00819854 -6.40556 3.22774e-17 -6.2679e-17
0.0005 0.001 0.00821647 -6.39565 5.21136e-17 -5.95952e-17
0.0005 0.001 0.00823423 -6.38571 3.82751e-17 -2.91736e-17
0.0005 0.001 0.00825182 -6.37569 5.68985e-17 5.78425e-18
0.0005 0.001 0.00826925 -6.36562 3.65546e-17 5.85322e-17
0.0005 0.001 0.00828652 -6.35549 3.49614e-17 9.72368e-17
0.0005 0.001 0.00830363 -6.34529 -1.0735e-17 1.06048e-16
0.0005 0.001 0.00832057 -6.33506 -3.09818e-17 1.06907e-16
0.0005 0.001 0.00833736 -6.32476 -5.32101e-17 1.23756e-16
0.0005 0.001 0.008354 -6.31442 -5.17295e-17 1.17268e-16
0.0005 0.001 0.00837048 -6.30404 -5.65299e-17 1.10606e-16
0.0005 0.001 0.0083868 -6.29357 -2.80917e-17 9.73433e-17
0.0005 0.001 0.00840298 -6.28308 -1.09213e-17 9.29111e-17
0.0005 0.001 0.008419 -6.27257 2.31599e-17 9.74122e-17
0.0005 0.001 0.00843488 -6.26197 4.36225e-17 9.71149e-17
0.0005 0.001 0.0084506 -6.25135 7.61754e-17 9.58032e-17
0.0005 0.001 0.00846618 -6.24068 7.22673e-17 9.88198e-17
0.0005 0.001 0.00848162 -6.22995 8.36717e-17 9.60038e-17
0.0005 0.001 0.00849691 -6.2192 5.38335e-17 6.4018e-17
0.0005 0.001 0.00851206 -6.2084 3.91383e-17 4.24677e-17
0.0005 0.001 0.00852707 -6.19757 -3.15413e-18 4.92643e-17
0.0005 0.001 0.00854194 -6.18669 -1.19862e-17 6.27432e-17
0.0005 0.001 0.00855667 -6.17578 -2.89687e-17 6.25478e-17
0.0005 0.001 0.00857126 -6.16482 -1.23061e-17 8.22482e-17
0.0005 0.001 0.00858572 -6.15383 -5.50188e-18 9.46505e-17
0.0005 0.001 0.00860004 -6.14279 2.37674e-17 1.19198e-16
0.0005 0.001 0.00861423 -6.13175 2.54053e-17 1.13784e-16
0.0005 0.001 0.00862829 -6.12064 4.77298e-17 1.17824e-16
0.0005 0.001 0.00864222 -6.10952 4.65098e-17 1.59046e-16
0.0005 0.001 0.00865602 -6.09835 5.7988e-17 1.57402e-16
0.0005 0.001 0.00866969 -6.08718 6.01244e-17 1.55838e-16
0.0005 0.001 0.00868323 -6.07593 7.17145e-17 1.59194e-16
0.0005 0.001 0.00869664 -6.06468 7.06421e-17 1.59048e-16
0.0005 0.001 0.00870994 -6.05341 7.97951e-17 1.52858e-16
0.0005 0.001 0.0087231 -6.04208 8.11619e-17 1.48256e-16
0.0005 0.001 0.00873615 -6.03073 9.2843e-17 1.51488e-16
0.0005 0.001 0.00874907 -6.01935 9.61784e-17 1.39129e-16
0.0005 0.001 0.00876187 -6.00794 1.07796e-16 1.28242e-16
0.0005 0.001 0.00877456 -5.99648 9.44891e-17 1.17245e-16
0.0005 0.001 0.00878713 -5.98503 8.26483e-17 1.10094e-16
0.0005 0.001 0.00879957 -5.97352 6.29616e-17 1.20072e-16
0.0005 0.001 0.00881191 -5.96201 6.1101e-17 1.14971e-16
0.0005 0.001 0.00882413 -5.95044 4.7305e-17 9.48344e-17
0.0005 0.001 0.00883623 -5.93885 5.06294e-17 8.58944e-17
0.0005 0.001 0.00884822 -5.92724 4.53051e-17 9.39433e-17
0.0005 0.001 0.00886011 -5.9156 4.67889e-17 1.09702e-16
0.0005 0.001 0.00887188 -5.90393 4.64399e-17 1.15246e-16
0.0005 0.001 0.00888354 -5.89221 5.13585e-17 1.23191e-16
0.0005 0.001 0.00889509 -5.88049 5.03133e-17 1.33458e-16
0.0005 0.001 0.00890653 -5.86872 5.58466e-17 1.41139e-16
0.0005 0.001 0.00891787 -5.85692 4.84815e-17 1.36598e-16
0.0005 0.001 0.0089291 -5.8451 4.44166e-17 1.36909e-16
0.0005 0.001 0.00894023 -5.83325 2.98575e-17 1.47749e-16
0.0005 0.001 0.00895126 -5.82137 2.68182e-17 1.62927e-16
0.0005 0.001 0.00896218 -5.80947 2.78052e-17 1.77712e-16
0.0005 0.001 0.008973 -5.79752 3.31808e-17 1.79486e-16
0.0005 0.001 0.00898372 -5.78554 4.52549e-17 1.98827e-16
0.0005 0.001 0.00899434 -5.77353 5.38432e-17 1.98619e-16
0.0005 0.001 0.00900486 -5.76147 5.96098e-17 1.80711e-16
0.0005 0.001 0.00901528 -5.74941 6.47257e-17 1.83695e-16
0.0005 0.001 0.00902561 -5.7373 6.40475e-17 1.81566e-16
0.0005 0.001 0.00903584 -5.72513 6.40985e-17 1.80793e-16
0.0005 0.001 0.00904598 -5.71297 5.89333e-17 1.69327e-16
0.0005 0.001 0.00905602 -5.70073 5.46667e-17 1.64443e-16
0.0005 0.001 0.00906596 -5.68848 4.33036e-17 1.70806e-16
0.0005 0.001 0.00907582 -5.67619 3.64227e-17 1.70014e-16
0.0005 0.001 0.00908558 -5.66384 3.21337e-17 1.76329e-16
0.0005 0.001 0.00909525 -5.65144 3.3026e-17 1.74726e-16
0.0005 0.001 0.00910484 -5.63902 3.50729e-17 1.67773e-16
0.0005 0.001 0.00911433 -5.62654 3.50577e-17 1.53014e-16
0.0005 0.001 0.00912374 -5.61401 3.23467e-17 1.47958e-16
0.0005 0.001 0.00913305 -5.60143 3.34213e-17 1.49292e-16
0.0005 0.001 0.00914228 -5.58882 3.88992e-17 1.46015e-16
0.0005 0.001 0.00915143 -5.57613 4.03808e-17 1.36471e-16
0.0005 0.001 0.00916049 -5.56339 4.45034e-17 1.32623e-16
0.0005 0.001 0.00916946 -5.55063 4.20911e-17 1.33948e-16
0.0005 0.001 0.00917835 -5.53778 4.32385e-17 1.23649e-16
0.0005 0.001 0.00918716 -5.52491 4.4093e-17 1.25037e-16
0.0005 0.001 0.00919589 -5.51199 4.17619e-17 1.25996e-16
0.0005 0.001 0.00920454 -5.49901 4.21384e-17 1.25812e-16
0.0005 0.001 0.0092131 -5.48599 4.24557e-17 1.19733e-16
0.0005 0.001 0.00922159 -5.47291 4.30744e-17 1.16067e-16
0.0005 0.001 0.00923 -5.45975 3.89298e-17 1.1321e-16
0.0005 0.001 0.00923832 -5.44656 3.70258e-17 1.14145e-16
0.0005 0.001 0.00924657 -5.43333 3.68774e-17 1.22905e-16
0.0005 0.001 0.00925475 -5.42001 3.70129e-17 1.18518e-16
0.0005 0.001 0.00926285 -5.40665 3.98948e-17 1.21972e-16
0.0005 0.001 0.00927087 -5.39323 4.0933e-17 1.28024e-16
0.0005 0.001 0.00927882 -5.37975 4.51944e-17 1.23957e-16
0.0005 0.001 0.00928669 -5.3662 4.66489e-17 1.17971e-16
0.0005 0.001 0.00929449 -5.3526 4.62496e-17 1.15293e-16
0.0005 0.001 0.00930222 -5.33892 4.50234e-17 1.11164e-16
0.0005 0.001 0.00930988 -5.32519 4.6168e-17 1.05973e-16
0.0005 0.001 0.00931746 -5.31137 4.70202e-17 1.03295e-16
0.0005 0.001 0.00932498 -5.29751 4.98611e-17 1.04102e-16
0.0005 0.001 0.00933242 -5.28357 5.11787e-17 1.03974e-16
0.0005 0.001 0.0093398 -5.26957 5.12559e-17 1.01032e-16
0.0005 0.001 0.00934711 -5.25547 5.27439e-17 9.7595e-17
0.0005 0.001 0.00935435 -5.24132 5.17542e-17 1.02524e-16
0.0005 0.001 0.00936152 -5.22709 5.127e-17 1.06856e-16
0.0005 0.001 0.00936862 -5.21281 5.25447e-17 9.91617e-17
0.0005 0.001 0.00937566 -5.19842 5.48061e-17 9.4813e-17
0.0005 0.001 0.00938263 -5.18395 5.353e-17 9.47898e-17
0.0005 0.001 0.00938954 -5.16941 5.10673e-17 9.12687e-17
0.0005 0.001 0.00939639 -5.15481 4.927e-17 8.93426e-17
0.0005 0.001 0.00940317 -5.14011 4.37233e-17 8.99543e-17
0.0005 0.001 0.00940988 -5.12533 4.18477e-17 8.64923e-17
0.0005 0.001 0.00941654 -5.11044 4.20915e-17 8.5332e-17
0.0005 0.001 0.00942313 -5.09551 4.4517e-17 8.03445e-17
0.0005 0.001 0.00942966 -5.08047 4.21455e-17 7.49248e-17
0.0005 0.001 0.00943613 -5.06535 4.00816e-17 7.88166e-17
0.0005 0.001 0.00944254 -5.05012 3.83242e-17 7.90343e-17
0.0005 0.001 0.0094489 -5.03482 4.1235e-17 7.71706e-17
0.0005 0.001 0.00945519 -5.01941 4.43159e-17 7.67918e-17
0.0005 0.001 0.00946142 -5.00392 4.98935e-17 7.20142e-17
0.0005 0.001 0.0094676 -4.98833 4.8847e-17 6.48306e-17
0.0005 0.001 0.00947371 -4.97264 4.71345e-17 6.1234e-17
0.0005 0.001 0.00947977 -4.95686 4.4182e-17 6.43129e-17
0.0005 0.001 0.00948578 -4.94098 4.23508e-17 6.17824e-17
0.0005 0.001 0.00949173 -4.925 4.21872e-17 6.06418e-17
0.0005 0.001 0.00949762 -4.90889 4.0111e-17 6.02436e-17
0.0005 0.001 0.00950346 -4.89269 3.72759e-17 6.32986e-17
0.0005 0.001 0.00950924 -4.8764 3.37422e-17 7.40599e-17
0.0005 0.001 0.00951497 -4.86 3.25463e-17 7.78657e-17
0.0005 0.001 0.00952065 -4.84346 3.66499e-17 8.30804e-17
0.0005 0.001 0.00952628 -4.82683 4.03857e-17 8.70521e-17
0.0005 0.001 0.00953185 -4.81006 4.64817e-17 8.12532e-17
0.0005 0.001 0.00953737 -4.79318 4.36353e-17 7.53272e-17
0.0005 0.001 0.00954284 -4.77621 4.23538e-17 7.17586e-17
0.0005 0.001 0.00954825 -4.75907 3.92851e-17 6.78261e-17
0.0005 0.001 0.00955362 -4.74183 3.77058e-17 6.08918e-17
0.0005 0.001 0.00955894 -4.72446 3.62229e-17 4.87749e-17
0.0005 0.001 0.00956421 -4.70699 3.48453e-17 3.99868e-17
0.0005 0.001 0.00956943 -4.68936 3.08104e-17 3.73205e-17
0.0005 0.001 0.0095746 -4.67162 2.49338e-17 3.37841e-17
0.0005 0.001 0.00957972 -4.65373 1.89542e-17 3.3416e-17
0.0005 0.001 0.00958479 -4.63573 1.35532e-17 3.78693e-17
0.0005 0.001 0.00958982 -4.61758 9.91206e-18 4.05593e-17
0.0005 0.001 0.0095948 -4.59932 1.0017e-17 4.35209e-17
0.0005 0.001 0.00959973 -4.5809 9.22431e-18 4.47754e-17
0.0005 0.001 0.00960462 -4.56236 8.01734e-18 4.22653e-17
0.0005 0.001 0.00960947 -4.54368 4.688e-18 3.75991e-17
0.0005 0.001 0.00961426 -4.52487 4.0296e-18 3.27367e-17
0.0005 0.001 0.00961902 -4.5059 4.12612e-18 2.93412e-17
0.0005 0.001 0.00962373 -4.48678 6.68529e-18 2.44384e-17
0.0005 0.001 0.00962839 -4.46753 8.48989e-18 1.94041e-17
0.0005 0.001 0.00963301 -4.44814 1.0466e-17 1.54238e-17
0.0005 0.001 0.00963759 -4.42858 1.03348e-17 1.01914e-17
0.0005 0.001 0.00964213 -4.40888 9.90682e-18 5.83265e-18
0.0005 0.001 0.00964662 -4.38902 8.97006e-18 5.72437e-18
0.0005 0.001 0.00965107 -4.36901 9.6718e-18 2.32016e-18
0.0005 0.001 0.00965548 -4.34884 1.22312e-17 -4.13854e-18
0.0005 0.001 0.00965985 -4.32849 1.46514e-17 -7.30978e-18
0.0005 0.001 0.00966418 -4.30798 1.64626e-17 -9.29147e-18
0.0005 0.001 0.00966847 -4.28732 1.58794e-17 -1.0624e-17
0.0005 0.001 0.00967272 -4.26649 1.40655e-17 -1.21742e-17
0.0005 0.001 0.00967693 -4.24549 1.3741e-17 -1.53799e-17
0.0005 0.001 0.0096811 -4.22433 1.24849e-17 -1.83584e-17
0.0005 0.001 0.00968523 -4.20298 1.41551e-17 -1.93894e-17
0.0005 0.001 0.00968932 -4.18145 1.36592e-17 -2.19925e-17
0.0005 0.001 0.00969338 -4.15976 1.37948e-17 -2.56125e-17
0.0005 0.001 0.0096974 -4.1379 1.30829e-17 -2.85029e-17
0.0005 0.001 0.00970138 -4.11584 1.20501e-17 -3.0413e-17
0.0005 0.001 0.00970532 -4.09361 1.06211e-17 -2.92718e-17
0.0005 0.001 0.00970922 -4.07122 1.13184e-17 -2.92331e-17
0.0005 0.001 0.00971309 -4.04861 1.06584e-17 -3.12154e-17
0.0005 0.001 0.00971693 -4.02586 1.04321e-17 -3.26216e-17
0.0005 0.001 0.00972072 -4.00289 9.9113e-18 -3.32908e-17
0.0005 0.001 0.00972449 -3.97976 1.0038e-17 -3.4123e-17
0.0005 0.001 0.00972821 -3.95645 1.15012e-17 -3.40878e-17
0.0005 0.001 0.00973191 -3.93294 1.20187e-17 -3.347e-17
0.0005 0.001 0.00973557 -3.90926 1.0815e-17 -3.21121e-17
0.0005 0.001 0.00973919 -3.88538 1.06113e-17 -2.93432e-17
0.0005 0.001 0.00974278 -3.86134 9.74656e-18 -2.58304e-17
0.0005 0.001 0.00974634 -3.83709 1.1105e-17 -2.44007e-17
0.0005 0.001 0.00974986 -3.81266 1.33701e-17 -2.35842e-17
0.0005 0.001 0.00975335 -3.78804 1.58952e-17 -2.26109e-17
0.0005 0.001 0.00975681 -3.76324 1.75267e-17 -2.45134e-17
0.0005 0.001 0.00976024 -3.73826 1.69238e-17 -2.65058e-17
0.0005 0.001 0.00976364 -3.7131 1.67887e-17 -2.78107e-17
0.0005 0.001 0.009767 -3.68772 1.69012e-17 -2.97752e-17
0.0005 0.001 0.00977033 -3.66216 1.62084e-17 -3.17328e-17
0.0005 0.001 0.00977363 -3.63642 1.73908e-17 -3.40978e-17
0.0005 0.001 0.0097769 -3.6105 1.60897e-17 -3.56174e-17
0.0005 0.001 0.00978014 -3.58439 1.55501e-17 -3.64493e-17
0.0005 0.001 0.00978335 -3.55808 1.38824e-17 -3.85345e-17
0.0005 0.001 0.00978653 -3.53158 1.41082e-17 -3.89153e-17
0.0005 0.001 0.00978968 -3.50489 1.27501e-17 -3.59052e-17
0.0005 0.001 0.0097928 -3.478 1.13244e-17 -3.34702e-17
0.0005 0.001 0.00979589 -3.45093 9.57563e-18 -3.30321e-17
0.0005 0.001 0.00979896 -3.42367 8.13645e-18 -3.2844e-17
0.0005 0.001 0.00980199 -3.3962 6.65598e-18 -3.24873e-17
0.0005 0.001 0.009805 -3.36858 4.62236e-18 -3.21084e-17
0.0005 0.001 0.00980798 -3.34074 3.194e-18 -3.27905e-17
0.0005 0.001 0.00981093 -3.3127 1.78433e-18 -3.35755e-17
0.0005 0.001 0.00981385 -3.28448 8.23981e-19 -3.50447e-17
0.0005 0.001 0.00981675 -3.25607 2.03957e-19 -3.8233e-17
0.0005 0.001 0.00981962 -3.22748 4.06713e-19 -4.15872e-17
0.0005 0.001 0.00982246 -3.19867 6.36659e-19 -4.46095e-17
0.0005 0.001 0.00982528 -3.16969 1.30669e-18 -4.57526e-17
0.0005 0.001 0.00982806 -3.14052 1.16001e-18 -4.74892e-17
0.0005 0.001 0.00983083 -3.11117 1.66576e-18 -5.00828e-17
0.0005 0.001 0.00983357 -3.08161 2.09205e-18 -5.10063e-17
0.0005 0.001 0.00983628 -3.05187 2.48585e-18 -5.21935e-17
0.0005 0.001 0.00983897 -3.02194 2.58613e-18 -5.30132e-17
0.0005 0.001 0.00984163 -2.99183 2.63759e-18 -5.31512e-17
0.0005 0.001 0.00984427 -2.96154 2.54583e-18 -5.26442e-17
0.0005 0.001 0.00984688 -2.93106 2.02703e-18 -5.15898e-17
0.0005 0.001 0.00984947 -2.90041 1.51319e-18 -5.13963e-17
0.0005 0.001 0.00985203 -2.86956 1.38112e-18 -5.05182e-17
0.0005 0.001 0.00985457 -2.83857 8.75573e-19 -4.87991e-17
0.0005 0.001 0.00985709 -2.80738 3.93236e-19 -4.77536e-17
0.0005 0.001 0.00985959 -2.77602 -3.76679e-19 -4.73328e-17
0.0005 0.001 0.00986206 -2.7445 -8.41505e-19 -4.68502e-17
0.0005 0.001 0.0098645 -2.71279 -1.56527e-18 -4.66697e-17
0.0005 0.001 0.00986693 -2.68096 -1.36637e-18 -4.70911e-17
0.0005 0.001 0.00986933 -2.64894 -1.55596e-18 -4.81783e-17
0.0005 0.001 0.00987171 -2.61676 -1.99151e-19 -4.95715e-17
0.0005 0.001 0.00987407 -2.58443 9.0405e-19 -5.05961e-17
0.0005 0.001 0.0098764 -2.55195 2.21732e-18 -5.13572e-17
0.0005 0.001 0.00987872 -2.51933 2.64851e-18 -5.22356e-17
0.0005 0.001 0.00988101 -2.48657 2.97353e-18 -5.35279e-17
0.0005 0.001 0.00988328 -2.45368 3.65082e-18 -5.39792e-17
0.0005 0.001 0.00988553 -2.42065 3.83863e-18 -5.39024e-17
0.0005 0.001 0.00988776 -2.3875 3.71313e-18 -5.39239e-17
0.0005 0.001 0.00988997 -2.35422 4.03422e-18 -5.36268e-17
0.0005 0.001 0.00989216 -2.32084 4.36226e-18 -5.34327e-17
0.0005 0.001 0.00989432 -2.28734 4.82338e-18 -5.26848e-17
0.0005 0.001 0.00989647 -2.25373 4.30038e-18 -5.18224e-17
0.0005 0.001 0.0098986 -2.22003 4.51123e-18 -5.20878e-17
0.0005 0.001 0.00990071 -2.18624 4.87152e-18 -5.30826e-17
0.0005 0.001 0.00990279 -2.15235 5.08907e-18 -5.44066e-17
0.0005 0.001 0.00990486 -2.11839 5.58636e-18 -5.59241e-17
0.0005 0.001 0.00990691 -2.08436 5.9552e-18 -5.68895e-17
0.0005 0.001 0.00990894 -2.05025 6.42426e-18 -5.71329e-17
0.0005 0.001 0.00991095 -2.01609 7.03493e-18 -5.71857e-17
0.0005 0.001 0.00991295 -1.98187 7.73219e-18 -5.66138e-17
0.0005 0.001 0.00991492 -1.9476 7.54906e-18 -5.58988e-17
0.0005 0.001 0.00991688 -1.91329 7.66943e-18 -5.55112e-17
0.0005 0.001 0.00991881 -1.87895 7.38202e-18 -5.51848e-17
0.0005 0.001 0.00992073 -1.84457 6.6478e-18 -5.48474e-17
0.0005 0.001 0.00992263 -1.81017 6.22473e-18 -5.42034e-17
0.0005 0.001 0.00992452 -1.77575 5.79235e-18 -5.32977e-17
0.0005 0.001 0.00992638 -1.74131 4.7851e-18 -5.27363e-17
0.0005 0.001 0.00992823 -1.70687 4.37833e-18 -5.25076e-17
0.0005 0.001 0.00993007 -1.67243 3.86476e-18 -5.211e-17
0.0005 0.001 0.00993188 -1.63799 3.44854e-18 -5.1643e-17
0.0005 0.001 0.00993368 -1.60356 3.04967e-18 -5.15103e-17
0.0005 0.001 0.00993546 -1.56914 3.10315e-18 -5.1242e-17
0.0005 0.001 0.00993722 -1.53473 3.18692e-18 -5.03852e-17
0.0005 0.001 0.00993897 -1.50034 3.08789e-18 -4.99598e-17
0.0005 0.001 0.0099407 -1.46598 2.96868e-18 -5.01411e-17
0.0005 0.001 0.00994242 -1.43164 3.44196e-18 -4.9973e-17
0.0005 0.001 0.00994412 -1.39733 3.80439e-18 -4.95918e-17
0.0005 0.001 0.0099458 -1.36305 4.26185e-18 -4.93974e-17
0.0005 0.001 0.00994747 -1.32881 4.76122e-18 -4.90911e-17
0.0005 0.001 0.00994912 -1.29459 5.13586e-18 -4.84769e-17
0.0005 0.001 0.00995076 -1.26042 5.06491e-18 -4.77062e-17
0.0005 0.001 0.00995238 -1.22627 4.92766e-18 -4.68961e-17
0.0005 0.001 0.00995399 -1.19216 4.46915e-18 -4.59534e-17
0.0005 0.001 0.00995558 -1.15809 4.31792e-18 -4.5001e-17
0.0005 0.001 0.00995716 -1.12404 3.81614e-18 -4.39791e-17
0.0005 0.001 0.00995872 -1.09003 3.4163e-18 -4.27831e-17
0.0005 0.001 0.00996027 -1.05605 3.00358e-18 -4.15943e-17
0.0005 0.001 0.00996181 -1.0221 2.7361e-18 -4.0325e-17
0.0005 0.001 0.00996332 -0.988171 2.38475e-18 -3.90839e-17
0.0005 0.001 0.00996483 -0.95426 2.17579e-18 -3.80831e-17
0.0005 0.001 0.00996632 -0.920366 2.03449e-18 -3.72457e-17
0.0005 0.001 0.0099678 -0.886482 2.10149e-18 -3.6476e-17
0.0005 0.001 0.00996926 -0.8526 2.05297e-18 -3.56635e-17
0.0005 0.001 0.00997071 -0.818716 1.92416e-18 -3.48811e-17
0.0005 0.001 0.00997215 -0.784822 1.83657e-18 -3.41458e-17
0.0005 0.001 0.00997357 -0.750909 1.51184e-18 -3.35197e-17
0.0005 0.001 0.00997498 -0.716967 1.3552e-18 -3.28999e-17
0.0005 0.001 0.00997638 -0.682984 1.24042e-18 -3.22041e-17
0.0005 0.001 0.00997776 -0.648948 1.1571e-18 -3.14211e-17
0.0005 0.001 0.00997913 -0.614847 9.54322e-19 -3.05074e-17
0.0005 0.001 0.00998049 -0.580665 8.58519e-19 -2.95271e-17
0.0005 0.001 0.00998184 -0.54638 8.80633e-19 -2.85161e-17
0.0005 0.001 0.00998317 -0.511973 9.61305e-19 -2.74191e-17
0.0005 0.001 0.00998449 -0.477422 1.22445e-18 -2.61141e-17
0.0005 0.001 0.0099858 -0.442696 1.62868e-18 -2.46476e-17
0.0005 0.001 0.0099871 -0.407762 2.24137e-18 -2.30542e-17
0.0005 0.001 0.00998838 -0.372581 3.10063e-18 -2.12346e-17
0.0005 0.001 0.00998965 -0.337104 4.07077e-18 -1.91161e-17
0.0005 0.001 0.00999091 -0.301268 5.15328e-18 -1.66551e-17
0.0005 0.001 0.00999216 -0.264998 6.28127e-18 -1.39733e-17
0.0005 0.001 0.0099934 -0.228188 7.29125e-18 -1.11414e-17
0.0005 0.001 0.00999462 -0.1907 8.02496e-18 -8.16057e-18
0.0005 0.001 0.00999584 -0.152323 8.17413e-18 -5.18675e-18
0.0005 0.001 0.00999704 -0.112718 7.47752e-18 -2.4915e-18
0.0005 0.001 0.00999823 -0.0712486 5.46116e-18 -3.23417e-19
0.0005 0.001 0.00999941 -0.0264271 1.42069e-18 8.42607e-19
