/*--------------------------------*- C++ -*----------------------------------*\
  =========                 |
  \\      /  F ield         | OpenFOAM: The Open Source CFD Toolbox
   \\    /   O peration     | Website:  https://openfoam.org
    \\  /    A nd           | Version:  7
     \\/     M anipulation  |
\*---------------------------------------------------------------------------*/
FoamFile
{
    version     2.0;
    format      ascii;
    class       volScalarField;
    location    "20000";
    object      Cx;
}
// * * * * * * * * * * * * * * * * * * * * * * * * * * * * * * * * * * * * * //

dimensions      [0 1 0 0 0 0 0];

internalField   nonuniform List<scalar> 
15600
(
0.0335640030431361
0.0995012393359851
0.158463017038255
0.206296113447069
0.246249606323682
0.282438842097105
0.316886912155085
0.35085475244742
0.385204979165519
0.420240631405377
0.45588052346252
0.491988514702489
0.528413073158502
0.565111535310865
0.602380980618602
0.640826293619935
0.681257563583863
0.724799883777365
0.772751941905768
0.826275114261607
0.886003070692804
0.950801990813407
1.01773837282555
1.08487868288354
1.15201899294152
1.2191593029995
1.28629961305749
1.35343992311547
1.42058023317346
1.48772054323144
1.55486085328943
1.62200116334742
1.6891414734054
1.75628178346339
1.82342209352138
1.89056240357936
1.95770271363735
2.02484302369533
2.09198333375332
2.1591236438113
2.22626395386929
2.29340426392728
2.36054457398526
2.42768488404325
2.49482519410123
2.56196550415921
2.6291058142172
2.69624612427518
2.76338643433317
2.83052674439116
2.89766705444914
2.96480736450712
3.03194767456511
3.09908798462309
3.16622829468108
3.23336860473907
3.30050891479705
3.36764922485503
3.43478953491302
3.501929844971
3.56907015502899
3.63621046508698
3.70335077514497
3.77049108520295
3.83763139526094
3.90477170531892
3.97191201537691
4.03905232543489
4.10619263549288
4.17333294555087
4.24047325560885
4.30761356566684
4.37475387572482
4.44189418578281
4.50903449584079
4.57617480589878
4.64331511595676
4.71045542601475
4.77759573607273
4.84473604613072
4.9118763561887
4.97901666624669
5.04615697630467
5.11329728636266
5.18043759642064
5.24757790647863
5.31471821653661
5.3818585265946
5.44899883665258
5.51613914671057
5.58327945676855
5.65041976682654
5.71756007688453
5.78470038694251
5.85184069700049
5.91898100705848
5.98612131711646
6.05326162717445
6.12020308077076
6.18502567076617
6.2447924857305
6.29835348546941
6.34633749840169
6.38990444308771
6.43035164981548
6.46880641682678
6.50608145811952
6.54278222130292
6.57920842588028
6.61531888707188
6.6509621713094
6.68600207066934
6.72035634097929
6.75432423754921
6.78876515113486
6.82493842969403
6.86485826172543
6.91262476448945
6.97152132399028
7.03743650880278
0.0335476477454535
0.0994572134266892
0.158419285407544
0.206296818939539
0.246326054021304
0.282606017736018
0.317151746486335
0.351219146421655
0.385667397647652
0.420798341236273
0.456531117127496
0.492730128259043
0.529244447364015
0.566031577887165
0.603387408027395
0.641914407288771
0.682419430113521
0.726023075418039
0.774018846501172
0.827563477733759
0.887288094114278
0.952063399826797
1.01896776086072
1.08607528723777
1.15318281361482
1.22029033999186
1.28739786636891
1.35450539274595
1.421612919123
1.48872044550005
1.5558279718771
1.62293549825415
1.69004302463119
1.75715055100824
1.82425807738529
1.89136560376234
1.95847313013939
2.02558065651643
2.09268818289348
2.15979570927053
2.22690323564758
2.29401076202463
2.36111828840168
2.42822581477872
2.49533334115577
2.56244086753281
2.62954839390986
2.69665592028691
2.76376344666396
2.83087097304101
2.89797849941805
2.96508602579509
3.03219355217214
3.09930107854919
3.16640860492624
3.23351613130329
3.30062365768033
3.36773118405738
3.43483871043443
3.50194623681148
3.56905376318852
3.63616128956557
3.70326881594262
3.77037634231967
3.83748386869672
3.90459139507376
3.97169892145081
4.03880644782786
4.10591397420491
4.17302150058196
4.240129026959
4.30723655333605
4.3743440797131
4.44145160609014
4.50855913246719
4.57566665884424
4.64277418522129
4.70988171159834
4.77698923797538
4.84409676435243
4.91120429072948
4.97831181710652
5.04541934348357
5.11252686986062
5.17963439623766
5.24674192261471
5.31384944899176
5.3809569753688
5.44806450174585
5.5151720281229
5.58227955449995
5.64938708087699
5.71649460725404
5.78360213363109
5.85070966000814
5.91781718638518
5.98492471276223
6.05203223913928
6.1189416524153
6.18374053366884
6.24350385322817
6.29708616070054
6.34511375896529
6.38874193038469
6.42926282634107
6.46779924181858
6.50516064558371
6.54195006793061
6.57846602661229
6.61466749786379
6.65040365242084
6.68553882619747
6.719991104863
6.75405856076011
6.78859716149299
6.82486123149542
6.86485693971745
6.91266814375662
6.971565256863
7.03745286139733
0.0335306933072175
0.0994115747222645
0.158373951761504
0.20629755027565
0.246405302092754
0.282779317181808
0.317426282005458
0.351596888719797
0.386146755438105
0.421376481245314
0.457205543639775
0.493498909040688
0.530106277032774
0.566985324152607
0.604430703713037
0.643042381705105
0.683623859228173
0.727291076186394
0.775332161534352
0.828899037680019
0.888620191578863
0.95337101779566
1.02024218483925
1.08731572657687
1.15438926831449
1.22146281005211
1.28853635178973
1.35560989352735
1.42268343526497
1.48975697700259
1.55683051874021
1.62390406047783
1.69097760221545
1.75805114395307
1.82512468569069
1.89219822742831
1.95927176916593
2.02634531090355
2.09341885264117
2.1604923943788
2.22756593611641
2.29463947785403
2.36171301959166
2.42878656132927
2.49586010306689
2.56293364480451
2.63000718654213
2.69708072827975
2.76415427001737
2.83122781175499
2.89830135349261
2.96537489523023
3.03244843696785
3.09952197870547
3.16659552044309
3.23366906218071
3.30074260391833
3.36781614565595
3.43488968739357
3.50196322913119
3.56903677086881
3.63611031260643
3.70318385434405
3.77025739608167
3.83733093781929
3.90440447955691
3.97147802129453
4.03855156303216
4.10562510476977
4.17269864650739
4.23977218824502
4.30684572998264
4.37391927172026
4.44099281345787
4.50806635519549
4.57513989693311
4.64221343867073
4.70928698040835
4.77636052214597
4.84343406388359
4.91050760562121
4.97758114735883
5.04465468909645
5.11172823083407
5.17880177257169
5.24587531430931
5.31294885604693
5.38002239778455
5.44709593952217
5.51416948125979
5.58124302299741
5.64831656473503
5.71539010647265
5.78246364821027
5.84953718994789
5.91661073168551
5.98368427342313
6.05075781516075
6.11763401439576
6.18240831836457
6.24216801439687
6.29577241010201
6.34384519033385
6.38753683142517
6.42813411611653
6.46675517114635
6.50420610115252
6.54108743055163
6.57769643133598
6.61399224666495
6.64982467371556
6.68505861215847
6.71961248957258
6.75378315192223
6.78842301822645
6.82478120543142
6.86485556928159
6.91271311213093
6.97161079912268
7.03746981303341
0.0335131177802458
0.0993642641415557
0.158326957413798
0.206298308402083
0.246487453115207
0.282958964745671
0.317710874064041
0.351988468296746
0.386643673043719
0.421975799824563
0.457904676045281
0.494295852244909
0.530999677822974
0.567974008760429
0.605512218260945
0.644211677081799
0.684872410120781
0.728605527574631
0.77669358715647
0.83028352304147
0.890001087536867
0.954726537477857
1.02156329454891
1.08860160669428
1.15563991883964
1.222678230985
1.28971654313036
1.35675485527572
1.42379316742109
1.49083147956645
1.55786979171181
1.62490810385717
1.69194641600254
1.7589847281479
1.82602304029326
1.89306135243863
1.96009966458399
2.02713797672935
2.09417628887471
2.16121460102007
2.22825291316544
2.2952912253108
2.36232953745616
2.42936784960152
2.49640616174689
2.56344447389225
2.63048278603761
2.69752109818297
2.76455941032833
2.8315977224737
2.89863603461906
2.96567434676442
3.03271265890978
3.09975097105515
3.16678928320051
3.23382759534587
3.30086590749123
3.36790421963659
3.43494253178196
3.50198084392732
3.56901915607268
3.63605746821804
3.70309578036341
3.77013409250877
3.83717240465413
3.9042107167995
3.97124902894486
4.03828734109023
4.10532565323559
4.17236396538095
4.23940227752631
4.30644058967167
4.37347890181703
4.44051721396239
4.50755552610775
4.57459383825312
4.64163215039848
4.70867046254384
4.7757087746892
4.84274708683457
4.90978539897993
4.97682371112529
5.04386202327065
5.11090033541601
5.17793864756138
5.24497695970674
5.3120152718521
5.37905358399746
5.44609189614282
5.51313020828818
5.58016852043355
5.64720683257891
5.71424514472427
5.78128345686963
5.848321769015
5.91536008116036
5.98239839330572
6.04943670545108
6.11627847392832
6.18102730025053
6.24078323993455
6.29441053295885
6.34253015028003
6.386287586149
6.42696405797637
6.46567285322135
6.50321658913943
6.54019319246211
6.57689864379943
6.6132922593618
6.64922448571576
6.68456080693701
6.71922000502298
6.75349765455351
6.78824249593177
6.82469824791783
6.86485414864392
6.91275972782583
6.97165800972566
7.03748738565556
0.0334948984124273
0.0993152204390398
0.158278241528248
0.206299094300205
0.246572613422974
0.28314519295462
0.318005891029288
0.352394392017137
0.387158793700408
0.422597072780222
0.458629419370762
0.495121989525017
0.531925806261651
0.568998911592044
0.606633351731907
0.645423807123377
0.686166699102177
0.729968131207793
0.778104885800284
0.831718726095067
0.891432569609516
0.956131713641039
1.02293280021322
1.08993459220753
1.15693638420185
1.22393817619616
1.29093996819047
1.35794176018479
1.4249435521791
1.49194534417342
1.55894713616773
1.62594892816205
1.69295072015636
1.75995251215067
1.82695430414499
1.8939560961393
1.96095788813362
2.02795968012794
2.09496147212225
2.16196326411656
2.22896505611088
2.29596684810519
2.3629686400995
2.42997043209382
2.49697222408813
2.56397401608245
2.63097580807676
2.69797760007107
2.76497939206539
2.8319811840597
2.89898297605401
2.96598476804833
3.03298656004264
3.09998835203696
3.16699014403127
3.23399193602559
3.3009937280199
3.36799552001421
3.43499731200853
3.50199910400284
3.56900089599716
3.63600268799147
3.70300447998579
3.7700062719801
3.83700806397441
3.90400985596873
3.97101164796305
4.03801343995737
4.10501523195168
4.17201702394599
4.2390188159403
4.30602060793462
4.37302239992893
4.44002419192324
4.50702598391756
4.57402777591187
4.64102956790619
4.7080313599005
4.77503315189481
4.84203494388913
4.90903673588344
4.97603852787775
5.04304031987207
5.11004211186639
5.1770439038607
5.24404569585501
5.31104748784933
5.37804927984364
5.44505107183795
5.51205286383227
5.57905465582658
5.6460564478209
5.71305823981521
5.78006003180952
5.84706182380384
5.91406361579815
5.98106540779246
6.04806719978678
6.1148732762184
6.17959569154742
6.23934773719005
6.2929987662538
6.34116693641671
6.38499257734642
6.4257511372286
6.46455088694274
6.50219082859187
6.53926619605108
6.57607163125626
6.61256662982085
6.64860231148965
6.68404476614805
6.71881314317804
6.75320169911485
6.78805536094977
6.8246122515765
6.86485267596545
6.91280805118735
6.97170694978798
7.03750560201216
0.0334760116181172
0.0992643801256675
0.158227741040071
0.206299908987321
0.246660893245131
0.283338242852368
0.318311714760698
0.352815185311312
0.387692784205669
0.42324110433679
0.459380711795264
0.495978390325553
0.532885861241755
0.570061359413834
0.607795555474487
0.646680340985562
0.687508401693451
0.731380651046649
0.779567884461687
0.833206504773793
0.892916490903026
0.957588365334179
1.02435247470527
1.09131640871313
1.15828034272099
1.22524427672885
1.2922082107367
1.35917214474456
1.42613607875242
1.49310001276028
1.56006394676815
1.627027880776
1.69399181478386
1.76095574879172
1.82791968279959
1.89488361680745
1.96184755081531
2.02881148482317
2.09577541883103
2.16273935283888
2.22970328684675
2.29666722085461
2.36363115486246
2.43059508887032
2.49755902287818
2.56452295688604
2.6314868908939
2.69845082490176
2.76541475890962
2.83237869291748
2.89934262692534
2.96630656093319
3.03327049494106
3.10023442894891
3.16719836295677
3.23416229696463
3.30112623097249
3.36809016498035
3.43505409898821
3.50201803299607
3.56898196700393
3.63594590101179
3.70290983501965
3.76987376902751
3.83683770303537
3.90380163704323
3.97076557105109
4.03772950505895
4.10469343906681
4.17165737307467
4.23862130708253
4.30558524109039
4.37254917509825
4.4395131091061
4.50647704311397
4.57344097712183
4.64040491112968
4.70736884513754
4.7743327791454
4.84129671315326
4.90826064716112
4.97522458116898
5.04218851517684
5.1091524491847
5.17611638319256
5.24308031720042
5.31004425120828
5.37700818521613
5.44397211922399
5.51093605323185
5.57789998723971
5.64486392124758
5.71182785525543
5.77879178926329
5.84575572327115
5.91271965727901
5.97968359128687
6.04664752529473
6.11341660218914
6.17811163898514
6.2378596478425
6.2915352823851
6.33975378399318
6.38365012856445
6.42449378369384
6.4633878198838
6.50112749163305
6.53830524130191
6.57521432312883
6.61181441871576
6.64795734564597
6.68350982180292
6.71839137739295
6.75289490253196
6.78786137106301
6.82452310509622
6.86485114933987
6.91285814477208
6.97175768266461
7.03752448568494
0.0334564329477334
0.0992116773865777
0.158175390574276
0.206300753518008
0.246752406848139
0.28353836431126
0.318628741104222
0.353251392855307
0.388246335781603
0.423908728178002
0.460159525864496
0.496866163266613
0.533881085574086
0.571162727594615
0.609000334003813
0.647982905306607
0.688899254795006
0.73284491567123
0.781084477064868
0.834748785071807
0.894454772407449
0.959098378242305
1.02582415584275
1.09274884502028
1.1596735341978
1.22659822337533
1.29352291255285
1.36044760173038
1.42737229090791
1.49429698008544
1.56122166926296
1.62814635844049
1.69507104761802
1.76199573679555
1.82892042597307
1.8958451151506
1.96276980432813
2.02969449350566
2.09661918268318
2.16354387186071
2.23046856103824
2.29739325021576
2.36431793939329
2.43124262857081
2.49816731774834
2.56509200692587
2.63201669610339
2.69894138528092
2.76586607445845
2.83279076363597
2.8997154528135
2.96664014199102
3.03356483116855
3.10048952034608
3.1674142095236
3.23433889870113
3.30126358787865
3.36818827705618
3.43511296623371
3.50203765541124
3.56896234458876
3.63588703376629
3.70281172294382
3.76973641212135
3.83666110129887
3.9035857904764
3.97051047965393
4.03743516883145
4.10435985800898
4.17128454718651
4.23820923636404
4.30513392554156
4.37205861471908
4.43898330389661
4.50590799307414
4.57283268225167
4.63975737142919
4.70668206060672
4.77360674978425
4.84053143896177
4.9074561281393
4.97438081731682
5.04130550649435
5.10823019567188
5.1751548848494
5.24207957402693
5.30900426320446
5.37592895238198
5.44285364155951
5.50977833073704
5.57670301991457
5.64362770909209
5.71055239826961
5.77747708744714
5.84440177662466
5.91132646580219
5.97825115497972
6.04517584415724
6.11190656612658
6.17657322140379
6.23631704549563
6.29001818680046
6.33828886361046
6.38225850193666
6.42319036967269
6.46218214641173
6.5000252017431
6.53730908423899
6.57432560962241
6.6110346523115
6.64728875329144
6.68295528144466
6.71795416173271
6.75257686769959
6.7876602751825
6.82443069308876
6.86484956679105
6.91291007342825
6.97181027403126
7.03754406111942
0.0334361370560266
0.0991570439959415
0.158121122360988
0.206301628985464
0.246847272683717
0.283745816355596
0.31895738040451
0.353703579275746
0.388820164969527
0.424600808525903
0.46096686974969
0.497786457578886
0.53491276759605
0.572304441886048
0.610249246949173
0.649333186313027
0.690341058935067
0.734362820648039
0.782656626914088
0.8363475635377
0.896049405483391
0.960663707127498
1.02734974876695
1.0942337554665
1.16111776216605
1.22800176886559
1.29488577556514
1.36176978226469
1.42865378896424
1.49553779566379
1.56242180236333
1.62930580906288
1.69618981576243
1.76307382246198
1.82995782916153
1.89684183586108
1.96372584256063
2.03060984926018
2.09749385595973
2.16437786265927
2.23126186935882
2.29814587605837
2.36502988275792
2.43191388945746
2.49879789615701
2.56568190285656
2.6325659095561
2.69944991625565
2.7663339229552
2.83321792965475
2.9001019363543
2.96698594305384
3.03386994975339
3.10075395645294
3.16763796315249
3.23452196985204
3.30140597655158
3.36828998325113
3.43517398995068
3.50205799665023
3.56894200334977
3.63582601004932
3.70271001674887
3.76959402344842
3.83647803014797
3.90336203684752
3.97024604354707
4.03713005024661
4.10401405694616
4.17089806364571
4.23778207034526
4.30466607704481
4.37155008374435
4.4384340904439
4.50531809714345
4.572202103843
4.63908611054254
4.70597011724209
4.77285412394164
4.83973813064119
4.90662213734073
4.97350614404028
5.04039015073983
5.10727415743938
5.17415816413892
5.24104217083847
5.30792617753802
5.37481018423757
5.44169419093712
5.50857819763667
5.57546220433621
5.64234621103576
5.70923021773531
5.77611422443485
5.8429982311344
5.90988223783395
5.9767662445335
6.04365025123304
6.11034121323868
6.17497844726665
6.23471793318402
6.28844551554454
6.33677027885318
6.38081589593344
6.42183920783858
6.46093230573866
6.49888253197709
6.53627643531738
6.57340434028868
6.61022632120395
6.64659566895019
6.68238042725189
6.71750093026569
6.75224718296764
6.78745181302268
6.82433489593959
6.86484792627046
6.9129639043797
6.97186479196961
7.03756435365671
0.03341509766926
0.0991004092286738
0.158064866147738
0.20630253652294
0.246945613542129
0.283960867496811
0.319298058035916
0.354172329880563
0.389415014557363
0.425318241259435
0.461803788552562
0.498740464591242
0.535982242839365
0.573487980268234
0.611543911072984
0.65073293200248
0.691835680600556
0.735936330983989
0.784286369235282
0.83800490985908
0.897702454439807
0.962286378359295
1.02893122840895
1.09577306231804
1.16261489622714
1.22945673013623
1.29629856404533
1.36314039795442
1.42998223186352
1.49682406577261
1.5636658996817
1.6305077335908
1.6973495674999
1.76419140140899
1.83103323531809
1.89787506922718
1.96471690313628
2.03155873704538
2.09840057095447
2.16524240486356
2.23208423877266
2.29892607268175
2.36576790659085
2.43260974049994
2.49945157440903
2.56629340831813
2.63313524222722
2.69997707613632
2.76681891004541
2.83366074395451
2.9005025778636
2.9673444117727
3.03418624568179
3.10102807959088
3.16786991349998
3.23471174740908
3.30155358131817
3.36839541522726
3.43523724913635
3.50207908304545
3.56892091695455
3.63576275086364
3.70260458477274
3.76944641868184
3.83628825259093
3.90313008650003
3.96997192040913
4.03681375431822
4.10365558822731
4.1704974221364
4.2373392560455
4.30418108995459
4.37102292386369
4.43786475777278
4.50470659168188
4.57154842559097
4.63839025950007
4.70523209340916
4.77207392731825
4.83891576122735
4.90575759513644
4.97259942904553
5.03944126295463
5.10628309686373
5.17312493077282
5.23996676468192
5.30680859859101
5.3736504325001
5.4404922664092
5.50733410031829
5.57417593422739
5.64101776813648
5.70785960204557
5.77470143595467
5.84154326986377
5.90838510377286
5.97522693768195
6.04206877159105
6.10871851712479
6.17332525208223
6.23306024078796
6.28681523271647
6.33519606383437
6.37932044302976
6.42043854905354
6.4596366799011
6.49769800311797
6.53520595775366
6.57244932253651
6.60938837901333
6.64587719544351
6.68178451510973
6.71703109633103
6.75190542160852
6.78723571476469
6.82423558965302
6.86484622565452
6.91301970731279
6.9719213070553
7.03758538956619
0.0333932875512614
0.0990416997688429
0.158006549108537
0.206303477305187
0.247047556711078
0.28418379608093
0.319651214952953
0.354658251416457
0.390031654541001
0.426061955073993
0.46267136565809
0.499729419272833
0.537090895758843
0.574714874862941
0.612886002363686
0.6521839544066
0.693385054653362
0.737567483670217
0.785975813810771
0.839722969541836
0.899416059206249
0.963968492537784
1.03057064204612
1.09736875825822
1.16416687447033
1.23096499068243
1.29776310689453
1.36456122310664
1.43135933931874
1.49815745553084
1.56495557174294
1.63175368795505
1.69855180416715
1.76534992037926
1.83214803659137
1.89894615280347
1.96574426901558
2.03254238522768
2.09934050143978
2.16613861765188
2.23293673386399
2.29973485007609
2.36653296628819
2.43333108250029
2.5001291987124
2.5669273149245
2.63372543113661
2.70052354734871
2.76732166356081
2.83411977977291
2.90091789598502
2.96771601219712
3.03451412840923
3.10131224462133
3.16811036083343
3.23490847704553
3.30170659325764
3.36850470946974
3.43530282568184
3.50210094189395
3.56889905810605
3.63569717431816
3.70249529053026
3.76929340674237
3.83609152295447
3.90288963916657
3.96968775537868
4.03648587159078
4.10328398780289
4.17008210401499
4.23688022022709
4.3036783364392
4.3704764526513
4.4372745688634
4.5040726850755
4.57087080128761
4.63766891749971
4.70446703371181
4.77126514992392
4.83806326613602
4.90486138234812
4.97165949856023
5.03845761477233
5.10525573098443
5.17205384719654
5.23885196340864
5.30565007962074
5.37244819583285
5.43924631204495
5.50604442825705
5.57284254446915
5.63964066068126
5.70643877689336
5.77323689310546
5.84003500931757
5.90683312552967
5.97363124174178
6.04042935795388
6.10703637715261
6.17161149573176
6.23134182235364
6.28512522783426
6.33356418065068
6.37777020728761
6.41898658010382
6.45829359166556
6.4964700817617
6.53409626579541
6.57145932008825
6.60851974102978
6.64513240272861
6.6811667736467
6.71654405177962
6.7515511412649
6.78701170070716
6.82413264569175
6.86484446274189
6.91307755446675
6.97197989244936
7.03760719607948
0.0333706784681525
0.0989808396146906
0.15794609574958
0.206304452549994
0.247153234140415
0.284414890648744
0.320017308260907
0.355161972854128
0.390670883120853
0.426832912683478
0.463570724136811
0.500754601831654
0.538240161524511
0.5759867139169
0.614277258205335
0.653688131936736
0.694991186835116
0.739258390319095
0.787727147710486
0.84150396668755
0.901192438102969
0.965712227212786
1.0322701119523
1.09902290896691
1.16577570598151
1.23252850299612
1.29928130001072
1.36603409702533
1.43278689403993
1.49953969105454
1.56629248806914
1.63304528508375
1.69979808209835
1.76655087911296
1.83330367612757
1.90005647314218
1.96680927015678
2.03356206717139
2.10031486418599
2.1670676612006
2.2338204582152
2.3005732552298
2.36732605224441
2.43407884925902
2.50083164627362
2.56758444328823
2.63433724030283
2.70109003731744
2.76784283433204
2.83459563134665
2.90134842836125
2.96810122537586
3.03485402239046
3.10160681940507
3.16835961641967
3.23511241343428
3.30186521044888
3.36861800746348
3.43537080447809
3.5021236014927
3.5688763985073
3.63562919552191
3.70238199253652
3.76913478955112
3.83588758656573
3.90264038358033
3.96939318059494
4.03614597760954
4.10289877462415
4.16965157163876
4.23640436865336
4.30315716566797
4.36990996268257
4.43666275969718
4.50341555671178
4.57016835372639
4.63692115074099
4.7036739477556
4.7704267447702
4.8371795417848
4.90393233879941
4.97068513581402
5.03743793282862
5.10419072984322
5.17094352685783
5.23769632387244
5.30444912088704
5.37120191790165
5.43795471491625
5.50470751193086
5.57146030894546
5.63821310596007
5.70496590297467
5.77171869998928
5.83847149700388
5.90522429401848
5.97197709103309
6.03872988804769
6.10529261573893
6.16983495969884
6.22956045331515
6.2833733131027
6.33187251674405
6.37616318184982
6.41748142135264
6.45690130235731
6.4951971783323
6.53294592292746
6.57043305137945
6.60761928280936
6.64436032669482
6.6805264032364
6.71603916618696
6.75118388337727
6.78677948090435
6.82402593081062
6.86484263525061
6.91313752072704
6.97204062399287
7.03762980142588
0.0333472411517356
0.0989177499804492
0.1578834278115
0.206305463519755
0.247262782612895
0.284654450309186
0.320396811807355
0.355684146202244
0.391333527734922
0.42763211206634
0.464503028198518
0.501817339371685
0.539431527879362
0.577305143857756
0.615719479626644
0.655247411815609
0.696656156363736
0.741011239897854
0.789542638123243
0.843350206872658
0.903033890712513
0.967519839702638
1.03403183814504
1.1007376557945
1.16744347344397
1.23414929109344
1.3008551087429
1.36756092639237
1.43426674404183
1.5009725616913
1.56767837934076
1.63438419699023
1.7010900146397
1.76779583228916
1.83450164993863
1.90120746758809
1.96791328523756
2.03461910288703
2.1013249205365
2.16803073818596
2.23473655583542
2.30144237348489
2.36814819113435
2.43485400878382
2.50155982643328
2.56826564408275
2.63497146173222
2.70167727938168
2.76838309703115
2.83508891468061
2.90179473233008
2.96850054997954
3.03520636762901
3.10191218527847
3.16861800292794
3.2353238205774
3.30202963822687
3.36873545587633
3.4354412735258
3.50214709117527
3.56885290882473
3.6355587264742
3.70226454412367
3.76897036177314
3.8356761794226
3.90238199707206
3.96908781472153
4.035793632371
4.10249945002047
4.16920526766993
4.23591108531939
4.30261690296886
4.36932272061833
4.43602853826779
4.50273435591725
4.56944017356672
4.63614599121618
4.70285180886565
4.76955762651512
4.83626344416458
4.90296926181405
4.96967507946351
5.03638089711298
5.10308671476244
5.16979253241191
5.23649835006137
5.30320416771084
5.3699099853603
5.43661580300977
5.50332162065924
5.5700274383087
5.63673325595817
5.70343907360763
5.7701448912571
5.83685070890656
5.90355652655602
5.97026234420549
6.03696816185496
6.10348497553078
6.1679933441976
6.22771382761473
6.2815572205811
6.33011888216695
6.37449728634203
6.41592112430699
6.45545800960971
6.49387764502417
6.53175344001244
6.56936918790003
6.60668583871854
6.64355996791581
6.67986257496263
6.71551578603733
6.75080317259061
6.78653875479091
6.82391530688406
6.86484074081507
6.91319968372245
6.97210358030522
7.03765323486866
0.0333229452616652
0.0988523491941222
0.157818464168118
0.206306511523098
0.24737634392117
0.284902785126368
0.320790216795335
0.356225447351229
0.392020446129718
0.428460587757291
0.465469484699178
0.502919007610714
0.540666537065173
0.578671871425335
0.61721453363243
0.656863812598059
0.69838211862508
0.74282830156233
0.791424635291749
0.845264080133061
0.904942800856499
0.969393670016225
1.03585810123344
1.10251521853388
1.16917233583432
1.23582945313477
1.30248657043521
1.36914368773565
1.43580080503609
1.50245792233653
1.56911503963697
1.63577215693742
1.70242927423786
1.7690863915383
1.83574350883874
1.90240062613918
1.96905774343963
2.03571486074007
2.10237197804051
2.16902909534095
2.23568621264139
2.30234332994184
2.36900044724228
2.43565756454272
2.50231468184316
2.5689717991436
2.63562891644404
2.70228603374448
2.76894315104492
2.83560026834537
2.90225738564581
2.96891450294625
3.03557162024669
3.10222873754713
3.16888585484757
3.23554297214801
3.30220008944845
3.36885720674889
3.43551432404934
3.50217144134978
3.56882855865022
3.63548567595066
3.70214279325111
3.76879991055155
3.83545702785199
3.90211414515243
3.96877126245288
4.03542837975332
4.10208549705376
4.1687426143542
4.23539973165464
4.30205684895508
4.36871396625552
4.43537108355596
4.50202820085641
4.56868531815685
4.63534243545729
4.70199955275773
4.76865667005818
4.83531378735861
4.90197090465905
4.9686280219595
5.03528513925994
5.10194225656038
5.16859937386082
5.23525649116126
5.3019136084617
5.36857072576214
5.43522784306258
5.50188496036303
5.56854207766347
5.63519919496391
5.70185631226435
5.76851342956479
5.83517054686523
5.90182766416567
5.96848478146611
6.03514189876655
6.10161111648337
6.16608426519564
6.22579955471751
6.27967459924739
6.32830100674731
6.37277036417962
6.41430366909515
6.45396184503097
6.49250977366907
6.53051727336306
6.56826635247455
6.60571820042546
6.64273029035588
6.67917442954651
6.71497323387801
6.7504085161392
6.78628921079294
6.82380063072747
6.86483877698307
6.91326412392549
6.97216884288574
7.03767752674321
0.0332977593462083
0.0987845525918752
0.157751120721391
0.206307597916598
0.247494065051277
0.285160216520799
0.321198032418992
0.35678657694796
0.392732527470366
0.429319412186328
0.466471344703062
0.50406103266109
0.541946787818851
0.580088665880968
0.618764355620455
0.658539426784121
0.700171307963212
0.744711927594538
0.793375575555112
0.847248064058095
0.906921639681422
0.971336143882044
1.03775126537037
1.10435789829383
1.17096453121728
1.23757116414074
1.3041777970642
1.37078442998765
1.43739106291111
1.50399769583456
1.57060432875802
1.63721096168148
1.70381759460494
1.7704242275284
1.83703086045185
1.90363749337531
1.97024412629877
2.03685075922223
2.10345739214569
2.17006402506914
2.23667065799259
2.30327729091605
2.36988392383951
2.43649055676297
2.50309718968642
2.56970382260988
2.63631045553333
2.70291708845679
2.76952372138025
2.83613035430371
2.90273698722716
2.96934362015062
3.03595025307408
3.10255688599753
3.16916351892099
3.23577015184444
3.3023767847679
3.36898341769136
3.43559005061481
3.50219668353827
3.56880331646173
3.63540994938519
3.70201658230864
3.7686232152321
3.83522984815556
3.90183648107902
3.96844311400247
4.03504974692593
4.10165637984939
4.16826301277284
4.2348696456963
4.30147627861976
4.36808291154321
4.43468954446667
4.50129617739013
4.56790281031358
4.63450944323704
4.7011160761605
4.76772270908395
4.83432934200741
4.90093597493087
4.96754260785432
5.03414924077778
5.10075587370124
5.16736250662469
5.23396913954815
5.30057577247161
5.36718240539506
5.43378903831852
5.50039567124198
5.56700230416543
5.63360893708889
5.70021557001234
5.7668222029358
5.83342883585926
5.90003546878271
5.96664210170617
6.03324873462963
6.09966861283101
6.16410525132797
6.22381515651693
6.27772301195449
6.32641653714968
6.37098017977583
6.41262696185202
6.45241087178554
6.4910917935249
6.52923582274395
6.56712311747962
6.60471511533592
6.64187022002907
6.67846107623442
6.71441080744265
6.74999940320893
6.78603052592488
6.82368175391186
6.86483674121256
6.91333092475655
6.9722364962194
7.03770270849604
0.033271650801447
0.098714272408484
0.157681310292474
0.206308724106513
0.247616098372841
0.285427077685307
0.321620786522481
0.357368261302497
0.393470693491415
0.430209697066784
0.467509905102087
0.505244892875715
0.543273937441922
0.581557361297763
0.620370951886802
0.660276423527831
0.702026040572872
0.746664556447849
0.795397984502816
0.849304726997812
0.908972968857515
0.97334977588823
1.03971378131276
1.10626808047775
1.17282237964275
1.23937667880774
1.30593097797273
1.37248527713772
1.43903957630272
1.50559387546771
1.5721481746327
1.6387024737977
1.70525677296269