/*--------------------------------*- C++ -*----------------------------------*\
  =========                 |
  \\      /  F ield         | OpenFOAM: The Open Source CFD Toolbox
   \\    /   O peration     | Website:  https://openfoam.org
    \\  /    A nd           | Version:  7
     \\/     M anipulation  |
\*---------------------------------------------------------------------------*/
FoamFile
{
    version     2.0;
    format      ascii;
    class       volTensorField;
    location    "20000";
    object      gradU;
}
// * * * * * * * * * * * * * * * * * * * * * * * * * * * * * * * * * * * * * //

dimensions      [0 0 -1 0 0 0 0];

internalField   nonuniform List<tensor> 
15600
(
(0.0137134525440994 -0.0372546138697339 -1.55786463307468e-23 9.27133737356466 -0.178839636623631 -1.71428873904339e-21 0 0 0)
(2.19483025645889 -0.453377732019004 7.94919174680188e-19 9.34944345598042 -2.08803775782699 1.25287135042797e-20 0 0 0)
(-4.07377157651064 3.14246706438808 1.86678836394892e-17 -5.01166934552361 3.9038156893435 2.4613661001013e-17 0 0 0)
(-6.52913077257977 7.66079887190378 2.1848978650691e-14 -5.43302919509662 6.30577630354967 1.79485436104357e-14 -6.93316287001178e-17 8.04618233166042e-17 2.28879637141024e-31)
(-3.14261390420538 4.45313936688548 2.66699239685126e-14 -2.19546724326324 3.07464453214553 1.79893787312745e-14 0 0 0)
(-1.87596622859051 2.96160847774422 -1.30168883587111e-16 -1.17152579547978 1.84016428605061 -7.23166158311796e-17 3.92360203670581e-21 -6.15046979153812e-21 1.14108380656129e-36)
(-1.30677072604 2.1642361625903 -1.06497332349725e-16 -0.777814046335554 1.28539125165677 -7.56895006781046e-17 -3.73892149230173e-21 5.86097251357366e-21 -1.08737398160071e-36)
(-0.971604798776072 1.62109580008575 1.28946934274221e-16 -0.57622855195437 0.961135257104567 7.70963200077895e-17 0 0 0)
(-0.837061879137014 1.37426741127632 2.34962334244551e-16 -0.506333230303354 0.832127679623165 1.60067959155927e-16 -7.90715802793735e-18 1.29931203229655e-17 2.46024591589335e-33)
(-0.812044008101201 1.30506389501933 -1.35289675610584e-16 -0.502007771432558 0.807825572580334 -8.16236717135559e-17 -7.69646689218989e-18 1.23827614925675e-17 -1.25876083038136e-33)
(-0.818260033001033 1.29076669568361 -1.21372452297204e-16 -0.51576956943466 0.814655621116347 -8.55305845637183e-17 -7.79913656722916e-18 1.23158851889148e-17 -1.27599533895201e-33)
(-0.841806799108299 1.30603611883654 -1.86161033486946e-16 -0.538992187174423 0.837251265294677 -1.30113838379756e-16 1.61379935804764e-20 -2.46714214482531e-20 2.32833920432279e-36)
(-0.845524250068909 1.29349526026971 -2.18382867372685e-16 -0.548181220025892 0.839576536050235 -1.2973280179794e-16 -1.6167253250014e-20 2.43185158382231e-20 -2.67020256896423e-36)
(-0.794245166981481 1.19133054783719 6.66299724036643e-17 -0.524231340908098 0.787554615853838 4.47910480324615e-17 -7.69702861067397e-18 1.15600589217782e-17 6.56707607951814e-34)
(-0.671862719328148 0.966207386949365 -2.92241884768848e-18 -0.46245363026061 0.666673597972781 2.28765634552608e-19 0 0 0)
(-0.478876872601549 0.639346132577433 -1.38682981257008e-16 -0.356389797145747 0.477378192934247 -9.88741736959593e-17 0 0 0)
(-0.227323516909656 0.265079227838841 1.64826515389588e-17 -0.197164040549374 0.23105404298149 -2.60709993774639e-18 0 0 0)
(0.0330485949224295 -0.0479629112383368 -2.0236779144739e-17 0.00893811016952966 -0.0239450028203473 2.56990581371649e-18 0 0 0)
(0.230203714135974 -0.202092525486879 5.09870916389603e-17 0.241724965484769 -0.219332005667574 6.09949009250191e-17 2.6247665894708e-18 -2.37101123481345e-18 6.51116677830237e-34)
(0.284723309534048 -0.17207364516971 2.8562690828295e-17 0.431766418653903 -0.274038637094061 -3.21545318379735e-18 -1.07830317949186e-20 4.7700806722478e-21 -2.73930419860857e-36)
(0.202863637820562 -0.0627832139334107 2.65936693096065e-17 0.553939021351536 -0.197328336074071 7.91356178269163e-17 -2.37715335482791e-18 8.39694445285524e-19 -3.3686515365852e-34)
(0.0350727715859142 0.00415870827653445 -8.57740960795698e-18 0.526107097379596 -0.0308000364933685 1.22051865666646e-17 5.33040622710119e-19 -3.02080086011593e-20 1.08658087772891e-35)
(-0.00745254142266744 0.00112057933185463 2.35515760262313e-18 0.366275359157464 0.00689611188818771 -1.64903008269557e-18 -6.50467321405434e-21 -8.96456385209008e-24 1.39523685732042e-41)
(-0.0106138184538021 -1.73167502063621e-05 -7.58416332568045e-20 0.220292110364659 0.0119791827264456 1.30027339859244e-18 6.50467321405383e-21 8.96456385208939e-24 -1.39523685732031e-41)
(-0.01777474064209 1.60178107950813e-05 7.58931727140474e-20 -0.061704067230899 0.0183191852326493 -1.9511589422458e-18 0 0 0)
(-0.0239712026868196 7.93677375238167e-05 -1.28185278620116e-15 -0.439225987595579 0.0252408021735256 1.81278179523876e-16 2.53960293600537e-32 -1.44904954925337e-33 -1.09231783155548e-49)
(-0.0294745604262853 0.000123063241461715 -1.30953308264177e-15 -0.91625816969149 0.0310552391328132 5.47982845275368e-15 -5.02455146110737e-16 1.70958179526927e-17 3.11753262171885e-30)
(-0.0330028869124732 0.000154080449963199 1.28185278620108e-15 -1.45383325474376 0.0352863322519562 3.96967327151632e-15 -8.07334823552568e-16 1.94630408578454e-17 2.0908174774005e-30)
(-0.0346249464709983 0.000161647743927249 1.30953308264184e-15 -2.02139276658451 0.0374688642059754 -1.72468771792543e-16 0 0 0)
(-0.0345120502958972 0.000156240208608021 -1.28221397905296e-46 -2.5867755301228 0.0379502098415662 4.28940820418701e-31 -1.48654588688311e-31 2.17871428640542e-33 2.46456005564132e-62)
(-0.0332222753409675 0.000141747687858266 -1.3017082785111e-15 -3.12969394596257 0.0371622432348129 1.55365891932931e-16 0 0 0)
(-0.0312239503637395 0.000124393910207347 -1.34705985228745e-15 -3.63748168480975 0.0356272979024172 4.47235956235302e-15 -2.0691003625287e-15 2.03371796122806e-17 2.64929297103188e-30)
(-0.0289124192099051 0.000106276771753107 1.30170827851095e-15 -4.10506330614031 0.0337161562614551 3.3137861131091e-15 -2.36610251371305e-15 1.93697654163654e-17 1.81120306866828e-30)
(-0.0265314353819073 8.89783081432211e-05 1.34702170567232e-15 -4.5315002512416 0.0316875021292176 -1.49686568143092e-16 1.30069491214174e-31 -9.09324599521035e-34 5.40708425182145e-63)
(-0.0242263584827973 7.27449702120657e-05 7.70787883578196e-20 -4.91847391573344 0.0296808870249663 -7.78125263251034e-19 -4.11567613713136e-20 1.67889965566786e-22 5.26971043258732e-39)
(-0.0220644425039065 5.77142154074312e-05 -7.92138678211117e-22 -5.26872483170027 0.0277671752580471 1.10646250265381e-18 8.53000815028938e-20 -3.43591907148214e-22 -1.04321999957448e-38)
(-0.0200705315141237 4.37666599973073e-05 -7.70787883575882e-20 -5.58537631290696 0.0259704041870483 1.20494981053187e-19 -4.41433201315779e-20 1.7570194158142e-22 5.16248956315719e-39)
(-0.0182436970112108 3.08065001873009e-05 1.44645474460699e-15 -5.8714623842674 0.0242915595589988 -1.30955813056194e-16 6.73882772904056e-31 -2.78758300565161e-33 -1.63696390205997e-51)
(-0.0165711357028249 1.87006269505582e-05 1.52524132293708e-15 -6.12975485094583 0.0227190268505807 -4.02495276908356e-15 3.35793115617496e-15 -1.24445820535972e-17 2.2890376239306e-30)
(-0.0150345508938893 7.33851235699898e-06 -1.44641580585311e-15 -6.36267571032137 0.0212364003595156 -3.20700911761392e-15 3.52236422550758e-15 -1.17599127756724e-17 1.69712791085421e-30)
(-0.0136145889527406 -3.38128012775467e-06 -1.52524132293713e-15 -6.57229413829914 0.0198260681715769 1.25041903108396e-16 0 0 0)
(-0.0122929316841457 -1.35320310608058e-05 -8.21367838374693e-34 -6.76034976422386 0.0184715248537781 5.04482478223189e-19 0 0 0)
(-0.0110535876825682 -2.31599479419207e-05 0 -6.92829722879171 0.0171585702782385 5.42548448870841e-19 0 0 0)
(-0.00988323733690575 -3.22935304106521e-05 0 -7.07735505604528 0.015875748187612 -5.40484088581538e-19 0 0 0)
(-0.00877125089169274 -4.09403917170216e-05 0 -7.20855224125488 0.0146142092826324 0 0 0 0)
(-0.00770960220830972 -4.90846949732401e-05 -2.03083790429754e-15 -7.32277148350483 0.0133678540048173 1.17319170793716e-16 0 0 0)
(-0.0066922775882963 -5.67148588830328e-05 -2.13882285108659e-15 -7.42078685711934 0.0121327796664751 4.85862317859567e-15 -4.23295091404966e-15 6.90475945152118e-18 2.84826840221943e-30)
(-0.00571427403635892 -6.384422236052e-05 2.03083911001835e-15 -7.50328623571123 0.0109061407125735 4.25855653835409e-15 -4.30861948296328e-15 6.27476240542275e-18 2.37760221259858e-30)
(-0.00477113731370451 -7.04823678402154e-05 2.1387917966431e-15 -7.57088148255344 0.00968551052259647 -1.05621170528046e-16 3.22901472315734e-22 4.77011220836858e-24 -1.44749348992567e-34)
(-0.00385919241742345 -7.66058216464169e-05 -1.20572097208629e-21 -7.62411918995312 0.00846956483546123 -2.71328538819631e-19 -3.22519884247916e-20 7.07405260260834e-23 -2.02010460559865e-39)
(-0.00297577240977185 -8.2226662531059e-05 3.10544435327801e-20 -7.66349537925956 0.00725806075152635 3.63973258990831e-19 8.79310707712612e-31 -8.32186908497162e-34 -4.19192138321776e-50)
(-0.00211931920990197 -8.73926741488492e-05 -2.47125147061067e-15 -7.68947306685951 0.00605023093761183 8.10025318714876e-17 4.41143035278943e-31 -3.46812353207844e-34 2.09430634067526e-50)
(-0.00128966045089391 -9.20996251105774e-05 -2.5818823359162e-15 -7.70250232654991 0.00484681800635394 5.53587386547809e-15 -4.23353010904872e-15 2.65500182640006e-18 3.09392685813247e-30)
(-0.000486833293584456 -9.63108086622534e-05 2.47127092489294e-15 -7.70304567653634 0.00365009201077774 5.24192872259143e-15 -4.24927908239079e-15 2.01869621000289e-18 2.85191353718841e-30)
(0.000289373757589798 -9.99742755564379e-05 2.58186288133223e-15 -7.6915514857523 0.00246218780111568 -6.37985731508955e-17 1.6479321365934e-20 -1.72795749830958e-23 1.02078603058308e-44)
(0.0010382054294476 -0.000103054181665636 -1.94542822750577e-20 -7.66846596080901 0.00128665609887784 2.6079355825383e-19 -1.64793213659352e-20 1.72795749830971e-23 -1.02078603058316e-44)
(0.00175843632153109 -0.000105573212750396 1.94545839342776e-20 -7.63426020165612 0.000127131536643333 -3.32740978896455e-19 0 0 0)
(0.00244909412319152 -0.000107562264247438 -3.72290160304715e-34 -7.5894134421826 -0.00101337309677905 1.1342969901577e-19 0 0 0)
(0.00310933390948795 -0.000109035838587052 0 -7.53441485122239 -0.00213193355954541 6.06663999802166e-20 0 0 0)
(0.00373839501985538 -0.000110009221415932 -5.94567873738924e-21 -7.46976249792981 -0.00322574138387562 -6.07323138519731e-20 0 0 0)
(0.00433561827026127 -0.000110500268787506 5.94838707761657e-21 -7.39596204405395 -0.00429216957048581 1.28483921890393e-20 -3.98084421604556e-21 -1.14287027842781e-24 2.29119125416838e-44)
(0.00490045159652549 -0.000110528954530029 5.94567873738954e-21 -7.31352525771995 -0.00532874817958475 -1.28791481198984e-20 3.98084421604553e-21 1.1428702784278e-24 -2.29119125416837e-44)
(0.00543248166885719 -0.000110118719315519 -5.94838707761575e-21 -7.22296845518456 -0.00633323225985782 1.37984127608236e-19 0 0 0)
(0.0059314674095183 -0.000109295347402532 2.76578066739004e-33 -7.12481018396935 -0.00730363827633385 -4.23005640255554e-19 0 0 0)
(0.00639732912074794 -0.000108085324100336 2.75332508045165e-20 -7.01956893224004 -0.00823825054711677 2.85903332045487e-19 0 0 0)
(0.00683012670471936 -0.00010651535571575 -2.75533643770654e-20 -6.90776118341018 -0.00913558631139303 5.42129216578774e-19 1.49254005684738e-20 2.29983205916716e-23 6.80624111455175e-43)
(0.00723006921554987 -0.000104613656535143 -2.75332508045158e-20 -6.78989965795602 -0.0099944114845604 -5.44475276739603e-19 -1.49254005684728e-20 -2.29983205916702e-23 -6.80624111455133e-43)
(0.0075975249066208 -0.000102408431220761 2.75533643770665e-20 -6.6664911710449 -0.0108137725695104 6.4081097307076e-19 0 0 0)
(0.00793299418218724 -9.99267358494656e-05 -8.78234036934382e-31 -6.53803476907104 -0.0115929472771964 1.60509219371827e-20 0 0 0)
(0.00823709225457974 -9.71949173574752e-05 1.04555172793601e-34 -6.40502036979071 -0.0123314366557954 1.59909382193219e-20 -7.34933483456593e-31 -1.41433071939696e-33 1.83524996209669e-51)
(0.00851054424629829 -9.4238238566716e-05 6.4045571565126e-20 -6.26792742535357 -0.0130289525649031 -6.75476575897169e-19 0 0 0)
(0.00875416011323851 -9.10797371422707e-05 4.55446409800384e-15 -6.12722386090094 -0.0136853998135004 2.24784999148105e-16 2.65844949874934e-20 8.58902857532402e-23 -3.08241776869353e-34)
(0.00896879763866385 -8.7739993758262e-05 9.25961058797912e-15 -5.98336558923653 -0.0143008159634473 -9.86985618573345e-15 3.30615241831039e-15 7.9109901289934e-18 5.31221469387232e-30)
(0.00915532675162755 -8.42369559922509e-05 1.44049506171221e-16 -5.83679663166337 -0.0148753465867217 -2.25875448650152e-14 6.42894655743303e-15 1.63802064929413e-17 2.49169406848711e-29)
(0.00931456695650185 -8.05846191296518e-05 -9.25953492198327e-15 -5.68794991261983 -0.0154091676941331 -1.29094991005791e-14 3.12034179882592e-15 8.43518694264211e-18 7.27050145660257e-30)
(0.00944718266492367 -7.67922564862102e-05 -4.69879600730092e-15 -5.5372495047536 -0.0159023764043795 -2.87291048171061e-16 4.81762587897636e-20 2.16360648803256e-22 1.93141849867753e-38)
(0.00955353266657827 -7.28632956286885e-05 2.98486525379827e-21 -5.38511479964862 -0.0163548310003843 -4.04541027890017e-18 -9.50593878463129e-20 -4.42583795329017e-22 -3.82243499995848e-38)
(0.00963344743750704 -6.8794027475262e-05 2.82403126053547e-19 -5.23196753696225 -0.0167659197152597 1.26677539763621e-18 4.68831290559024e-20 2.26223146523884e-22 1.89101650131253e-38)
(0.00968592122699202 -6.45727342006193e-05 5.27271168560517e-15 -5.07824283903296 -0.0171342385999995 4.12317968998127e-16 0 0 0)
(0.00970872593292504 -6.01798653807734e-05 5.26615790524131e-15 -4.92440542131732 -0.0174571952616681 -1.23975632039342e-14 2.72634655778336e-15 9.69284221113582e-18 6.60040959689778e-30)
(0.00969801826735627 -5.55926909744556e-05 -5.2727006769484e-15 -4.77097168565086 -0.0177305740781927 -1.57940074429761e-14 2.61302135240596e-15 9.67373810721353e-18 8.95110101776271e-30)
(0.00964795562959486 -5.07878318639453e-05 -5.26615790524124e-15 -4.61853697290966 -0.0179482210504166 -4.5736338274177e-16 4.16413101607858e-20 2.59945694132396e-22 -7.12827848305524e-34)
(0.00955045026873798 -4.57545655628459e-05 -3.15055013640358e-19 -4.46780788208041 -0.0181016526884509 -5.72331845675644e-20 0 0 0)
(0.00939504105867023 -4.04964702206974e-05 1.61518609798958e-19 -4.31963588666971 -0.0181802151639071 4.41280722504613e-19 -3.77710102662609e-20 -2.78494752446344e-22 2.28326018909858e-41)
(0.00916872611769377 -3.50388919919526e-05 1.61349924475105e-19 -4.1750530148905 -0.01817062469861 1.42744015359667e-18 3.77710102662544e-20 2.78494752446296e-22 -2.28326018909818e-41)
(0.00885557271058169 -2.94187168681038e-05 -1.61518609798954e-19 -4.03530999810669 -0.0180571440340251 -1.95006139062098e-18 0 0 0)
(0.00843685798045653 -2.3734374440736e-05 6.36611101651102e-33 -3.90191979864076 -0.0178206075954934 3.91005261249148e-18 0 0 0)
(0.00789086326830991 -1.80898059726004e-05 1.73332815049904e-19 -3.7766890166209 -0.0174405626482752 -1.95661136411227e-18 0 0 0)
(0.00719509346940703 -1.27944338139182e-05 -1.73474413564031e-19 -3.66175404834388 -0.016892581902979 1.49404111713218e-18 3.21473514811388e-20 2.94612455721087e-22 1.91662346620329e-41)
(0.0063261673740131 -8.07975308498167e-06 -5.28758123180782e-19 -3.55954277053736 -0.0161588657117348 -1.58055659831449e-18 -3.21473514811336e-20 -2.9461245572104e-22 -1.91662346620298e-41)
(0.00526963171877454 -4.91718443556844e-06 5.29114699127133e-19 -3.472766254432 -0.0152168252671679 -7.23857515675883e-18 -6.11555767091025e-20 -5.92743343199678e-22 5.81970501286264e-41)
(0.00402496121016256 -3.8761528141054e-06 3.55425308130917e-19 -3.4040832110309 -0.0140870388713588 3.1060910061142e-18 6.11555767090918e-20 5.92743343199575e-22 -5.81970501286163e-41)
(0.00264460595940143 -8.57507996214592e-06 1.20536421420294e-20 -3.3558210391379 -0.0127972585145112 -4.34006436606882e-20 0 0 0)
(0.00132654770037033 -2.14067687434878e-05 -3.67751250851031e-19 -3.32836976554348 -0.0116335855355657 3.11571428444258e-18 5.89909295027497e-20 6.0190912303081e-22 1.55180846702936e-41)
(0.000910109952160499 -6.18903342080119e-05 -3.67693927705076e-19 -3.3167134219105 -0.0110907938322914 1.11218388886668e-18 -5.89909295023619e-20 -6.01909123029465e-22 -1.55180848040138e-41)
(0.00178736493360618 -0.000129127171991843 3.67751250851027e-19 -3.29814549199301 -0.0131734983604798 5.29744212607502e-20 0 0 0)
(0.0109544998147452 -0.000332574434580585 1.38497376144511e-14 -3.24142661082069 -0.0205054458669102 2.11357058555996e-15 0 0 0)
(0.0371844344433683 -0.00522659029655674 1.35949494651465e-14 -2.93709657901611 -0.0468062608164063 -3.56349747909374e-14 3.33396212023876e-15 5.30432371631593e-17 3.76608465910989e-29)
(0.216414679321286 0.00165799131160094 -1.00943836972034e-14 -2.16457602080636 -0.228490307197232 -5.20269666799154e-14 2.40978657525376e-15 2.5233034303023e-16 6.08378496903429e-29)
(0.574435806287518 0.181421572745024 -1.36575222104762e-14 -1.51895451867043 -0.567429651081356 -2.19051425217878e-15 0 0 0)
(0.902014518088038 0.538524511199574 2.62772462453994e-18 -1.42429206101936 -0.892947179311627 -4.15926324214709e-18 0 0 0)
(1.22336844327444 1.02572421594027 8.45339642530507e-17 -1.40483729469887 -1.20709090682433 2.25960726690378e-17 0 0 0)
(1.51148691111341 1.58352125743076 -6.61429206658802e-16 -1.3953652238431 -1.48327348760458 6.00044650689886e-16 0 0 0)
(1.74226473956754 2.12518843369196 8.32680783950317e-16 -1.3805891491652 -1.69873942868472 -8.42254318492238e-16 0 0 0)
(1.86811246412128 2.50937955082201 1.82308406955933e-15 -1.34084255507459 -1.81038860314263 -1.31060051011147e-15 0 0 0)
(1.86027394038667 2.65088823040894 -7.85966305462411e-17 -1.25222615898273 -1.7901085882434 -1.06067172996256e-17 0 0 0)
(1.68306862876889 2.48206920685502 4.31351436830987e-16 -1.08813583522806 -1.60844761429956 -2.74531903281494e-16 -1.60350317615957e-17 -2.36934531187075e-17 -4.04796598900101e-33)
(1.31262432905812 1.96624371091315 1.55678438398411e-17 -0.826502823694813 -1.2416013313296 2.92960815303664e-18 -1.23438242603682e-17 -1.85287978531832e-17 -4.00308981294946e-35)
(0.74264029224981 1.13365789737901 1.65960712668555e-15 -0.445890203999951 -0.685235638630902 -1.06193673746184e-15 -6.73445959391672e-18 -1.0335739356975e-17 -1.58785103702455e-32)
(0.0158902684878066 0.0416482209438618 1.42009961790526e-15 0.0258130132562374 0.0243176742071695 -7.69566522259114e-16 -3.07437100483893e-19 -2.52457568885122e-19 1.19094734601791e-32)
(-0.904438965144376 -1.38476246262888 -1.24756481968185e-18 0.598701396429844 0.914412113773841 7.59098491591621e-19 0 0 0)
(-1.97763780326766 -3.13887267490605 1.2651056756066e-15 1.23585489067454 1.95935573230007 -7.67747660694634e-16 0 0 0)
(-3.43162122680715 -5.57428791537641 1.32654438159031e-15 2.06733007651716 3.35309670604314 -7.39258756817391e-16 0 0 0)
(-5.47522945594644 -8.89420158342739 3.88316784539894e-16 3.28809165724995 5.32237052889182 -2.32451162992627e-16 -5.24134419240335e-17 -8.48578535232948e-17 3.68347701115831e-33)
(-8.91813732009506 -13.8009851714625 -1.15887189472352e-15 5.58002750648056 8.58471293127849 6.96684518942214e-16 -1.53722138383824e-20 -2.08610560798722e-20 -1.52791292092198e-36)
(-14.3170593265628 -20.0733303497757 -6.62992812983038e-16 9.93004532385934 13.7619449227912 4.46030106814045e-16 -1.43816361786558e-16 -1.99335660849026e-16 -6.46876346246226e-33)
(-24.9733024365164 -28.470445295564 -1.91651776870677e-17 21.2276349653467 23.6911527130708 -1.96795874096021e-17 -2.71257233747473e-16 -3.02682536500401e-16 2.45379821372308e-34)
(-35.4984063847695 -26.0385105732483 -8.2235990378374e-17 47.3116384884415 33.7887981722993 1.09880346069592e-16 0 0 0)
(-15.204163494371 -4.52940198823919 -7.47186276982024e-18 55.8277104235274 14.9872590978797 1.11115409152663e-19 0 0 0)
(-1.05775041490974 -0.242359264050679 0 19.772696125024 0.929137257701837 0 0 0 0)
(-0.392995930482241 -0.144043137455898 8.99818572888321e-23 16.3910048043902 0.114169234255863 -1.54996890469898e-21 -7.25616038125341e-21 8.1534299208578e-22 -1.77719005114392e-44)
(1.98215416803298 -0.268412083111038 9.07761437107172e-19 10.6772834423605 -1.87381134473402 1.21215726899348e-20 7.49510737235543e-21 -8.42192419942742e-22 1.83571331868834e-44)
(-2.2345712805337 2.30956870803986 1.6353794302738e-15 -1.92766563665209 2.4173848996655 -1.05661345576155e-17 6.8863087805817e-17 -6.30158639895192e-17 6.82974761361267e-36)
(-5.25437114950873 6.46513944342715 -1.89007994445369e-14 -4.46749650521123 5.37552947916881 -1.7145769895508e-14 2.44326861732262e-14 -2.88323787563758e-14 -6.14202822502443e-31)
(-2.8516072877106 3.98884599477545 -2.73026930770906e-14 -2.14304068135935 2.92231258768632 -1.71458603816656e-14 1.06224316937926e-14 -1.46822804335381e-14 -5.64563038133784e-31)
(-1.74200641398439 2.73988985435701 -2.21549785884741e-15 -1.146360715542 1.77731445046121 1.80988142846278e-17 1.09967543072045e-20 -1.78000159641209e-20 4.62399101030315e-40)
(-1.23347899455246 2.04035085266572 1.22048412599284e-16 -0.760443644845043 1.25175763552421 7.18495861656082e-17 -1.83692354213452e-20 3.0144349423574e-20 8.37903776817498e-41)
(-0.936121779287029 1.55629451138896 -2.79565132952377e-16 -0.567948684044044 0.944852862915361 -1.91668379387155e-16 1.99407088298311e-20 -3.3234364354108e-20 -3.77875063234595e-36)
(-0.809612780542365 1.33260927677383 -2.47987413117592e-16 -0.493698338061965 0.815199714382617 -1.53020193429793e-16 2.29017432083506e-17 -3.76887922481797e-17 -2.35964948331616e-33)
(-0.782363352158879 1.26776209451402 2.87776750275489e-16 -0.483321307115866 0.78597690350711 2.05583966482306e-16 -7.39780720069305e-18 1.20244959028335e-17 3.09066493608016e-33)
(-0.785163182076635 1.25222830702793 3.02699888540434e-16 -0.492940466524435 0.788792687634905 2.10152200634545e-16 -7.41559897522629e-18 1.18610019528431e-17 3.12762016225043e-33)
(-0.800250859856202 1.2576088383227 1.65855997367754e-16 -0.510656793325817 0.804909953904899 1.26423308817455e-16 -1.5402009899647e-17 2.40914752579422e-17 -1.54776772893539e-35)
(-0.797370079402818 1.23241249508938 3.91413938687501e-17 -0.518080589962834 0.80354689099684 -9.98472436857383e-18 -1.55314706608258e-17 2.39271231220001e-17 -1.94195212407042e-33)
(-0.750249780708102 1.12559026935516 1.6202559298231e-16 -0.500898005850312 0.756601840522033 8.87127502953468e-17 7.46581200228482e-18 -1.12127466561047e-17 -6.34290078764477e-34)
(-0.647613378002337 0.911672572077163 -2.34107613323092e-17 -0.457020663231081 0.65232038948966 3.36219592167296e-18 -1.97066414594522e-20 2.91328099333407e-20 3.63070550353858e-36)
(-0.490776661856194 0.613072973148593 1.32377856256239e-16 -0.382893175705549 0.491485193097896 9.55944885016028e-17 0 0 0)
(-0.288310161728877 0.280401145342859 -1.14019759007033e-19 -0.271477902722673 0.282976353170221 1.85893396325106e-20 0 0 0)
(-0.0713783709146268 0.00354676285970033 -1.53541521724781e-16 -0.121452469615069 0.0619392024167555 -1.75083234354035e-16 6.44662490925606e-21 -7.366445073192e-21 8.2010064465016e-36)
(0.107850570448179 -0.136088229430057 -4.65666929102381e-17 0.063422225259116 -0.119456713325317 -5.76996379290646e-17 -2.51928118717889e-18 2.27936426353718e-18 -6.27343975097836e-34)
(0.184903391468654 -0.119158128954945 -2.80002116664522e-17 0.238897691643185 -0.192445375411858 3.20654378740034e-18 -1.66380156904089e-20 1.2994789182036e-20 -7.36314487953103e-36)
(0.141449190211567 -0.0291568271210129 -2.38363048023686e-17 0.370885161101877 -0.148188907502137 -7.65226363310492e-17 -1.60279554321337e-18 6.22305996591969e-19 3.27104415465711e-34)
(0.00784133175689769 0.0181358001096026 -9.06103882229328e-19 0.352861087243621 -0.00810282736182053 -8.89960073754086e-18 -5.33598175708446e-19 2.95686626731596e-20 -1.14146979645127e-35)
(-0.0292767185466074 0.00381776629912292 -3.56946276465066e-18 0.15725990215631 0.025988071976979 1.77300205878819e-18 3.08198406434469e-20 1.66119951970196e-22 9.3269570519469e-37)
(-0.039962509679808 0.001353543498775 3.84714163727165e-22 -0.0607623832969222 0.0403365089516397 -2.52107773029842e-19 -1.27383046934286e-20 -1.51658595822896e-21 -6.45843701893938e-40)
(-0.0600616029646819 0.00155938974644515 -5.74936145416421e-21 -0.396034974519267 0.059110167695404 -6.64663091338928e-20 -1.33825755500307e-20 2.2772863378103e-21 -7.55111585065003e-40)
(-0.0767433130691031 0.00143134432367635 1.95953267402459e-15 -0.816286336506554 0.0764355993862879 -2.74139027113669e-16 4.91086093427787e-20 -3.0583040786295e-21 -5.11721536440586e-34)
(-0.0899782753367356 0.00106595115761881 1.85029611797053e-15 -1.30555685777373 0.0892067798163689 1.11365627913668e-14 5.05767315290701e-16 -1.70878291196077e-17 -3.10643087000181e-30)
(-0.0969936203038747 0.000601956430739917 -1.95930237376492e-15 -1.82312359101162 0.0960154124858917 1.1853380147556e-14 7.5831947842476e-16 -1.81946116106722e-17 -1.91980735048251e-30)
(-0.098550974632746 0.000148349700544606 -1.85052209778326e-15 -2.33825497994122 0.0969689698441268 2.44527782432117e-16 0 0 0)
(-0.0956984154125576 -0.000199012784235311 3.46275218712029e-45 -2.82669411616163 0.0935240633016592 -7.87903697936669e-19 1.43471431646691e-31 -2.10274879892937e-33 -2.378627950083e-62)
(-0.0901740680570877 -0.000423490630408754 1.86298403731173e-15 -3.27619055097372 0.0873327683418335 -2.23128770114907e-16 0 0 0)
(-0.0832935289266859 -0.000538837469698215 1.80872986875864e-15 -3.6819343897086 0.0798459598516238 1.13173970277783e-14 2.05661425077752e-15 -2.01670989137818e-17 -2.63057238451254e-30)
(-0.0760341220591779 -0.000578609699402488 -1.86298403731183e-15 -4.04441078115971 0.0720337005097969 1.21067689385025e-14 2.22394588471938e-15 -1.81553793887246e-17 -1.67439901473524e-30)
(-0.0689405427459586 -0.000571930676242516 -1.80878172816427e-15 -4.36646610766192 0.0644723609256525 2.01741831364458e-16 -1.25534342953788e-31 8.77619071674739e-34 -5.21855480875602e-63)
(-0.0622957585718006 -0.000541375338554914 5.13988614373743e-20 -4.65194792429889 0.0574382127610089 3.00929549105127e-19 -1.16778700392403e-19 7.22619396775631e-22 -6.01346105442574e-41)
(-0.0561992970115138 -0.000500804790747296 1.05657678538676e-19 -4.90475563702263 0.0510323149533595 -6.45213393989022e-19 1.16778700392403e-19 -7.22619396775629e-22 6.01346105442572e-41)
(-0.0506592593757007 -0.000458393666445019 -4.97055777359661e-20 -5.12849338877631 0.045255750656109 3.49123864622676e-19 1.3073153376657e-19 -5.97374056585173e-22 -7.24569438303743e-39)
(-0.0456344212388282 -0.000418274698168374 -1.96283029141993e-15 -5.32630492642144 0.0400628585052816 1.77726102728394e-16 5.95861947940921e-21 5.46153472967198e-23 2.56292476008222e-34)
(-0.0410652593556469 -0.000382374114545321 -1.97794400483211e-15 -5.50086504748632 0.0353883712348457 -1.26043843983703e-14 -3.31038897608464e-15 1.22551940874936e-17 -2.26085154977506e-30)
(-0.0368873454992986 -0.00035128839170175 1.96271631565081e-15 -5.65441112583341 0.031163242618019 -1.36139898849224e-14 -3.3301470268119e-15 1.11059025302094e-17 -1.58658416733496e-30)
(-0.0330398315924269 -0.000324923332785673 1.97800220205564e-15 -5.78880320423786 0.0273222195090764 -1.63263378874241e-16 -1.51182759398483e-19 4.04536068785254e-22 -3.74730249694862e-41)
(-0.029468877922582 -0.000302797012582603 1.24587070939259e-19 -5.90558594890645 0.0238076513226249 4.32951660813147e-19 1.51182759398484e-19 -4.04536068785257e-22 3.74730249694865e-41)
(-0.0261293272243292 -0.000284261438466313 -1.24055007586494e-19 -6.00604940048613 0.0205709526827448 2.80136694674417e-20 1.58442379204132e-19 -3.27882134597175e-22 -3.20000388349794e-41)
(-0.0229845725195136 -0.000268651350284902 -6.44095745058259e-20 -6.09128214947669 0.0175724629713182 -1.45082596662971e-20 -1.58442379204146e-19 3.27882134597205e-22 3.20000388349823e-41)
(-0.0200058645448068 -0.00025532252187079 1.00089865532378e-19 -6.16221607891558 0.0147804955771509 4.79257654075772e-19 0 0 0)
(-0.0171713389587776 -0.000243704016800535 2.67012567548144e-15 -6.21966258070479 0.0121704799428733 -1.54324305651658e-16 8.31489388846655e-20 -1.13822096800362e-22 -1.74325394053292e-34)
(-0.0144641557560317 -0.00023342178003364 2.73736678018847e-15 -6.26433939230261 0.00972302565808542 1.77653340005451e-14 4.13853358688888e-15 -6.74503598247347e-18 -2.79137861854334e-30)
(-0.0118702815196218 -0.000224286867279654 -2.67012567548147e-15 -6.2968870989575 0.00742165903555446 1.89849367908161e-14 4.10516453655286e-15 -5.97491299025201e-18 -2.25196692072075e-30)
(-0.00937759257116704 -0.000216108501102096 -2.7374027055535e-15 -6.31788043021889 0.00525192978755362 1.35185870803927e-16 0 0 0)
(-0.00697617550661478 -0.000208651807585052 4.33614458307205e-20 -6.32783928353722 0.00320143300742136 -2.88017213533751e-20 0 0 0)
(-0.00465889826289442 -0.000201838468503723 -4.33272204527808e-20 -6.32723767451309 0.00125847456000113 3.02263460451921e-19 8.62400635905075e-20 -4.30315053268767e-23 -2.23445366983849e-42)
(-0.00242194117679895 -0.00019550175224427 3.21214921477446e-15 -6.31651926809334 -0.000585678971223127 -1.05774676279791e-16 -8.62400635917813e-20 4.30315053280143e-23 2.23445369008325e-42)
(-0.000265433426256214 -0.000189285078585938 3.30939758205323e-15 -6.29611596687101 -0.00233059719991842 2.16898956286012e-14 4.11442699135496e-15 -2.57762980968892e-18 -3.01226007943819e-30)
(0.00181086558202782 -0.000183061197032994 -3.21221767526017e-15 -6.26648171408673 -0.00397499166761363 2.2839058756705e-14 4.07261109351174e-15 -1.93310984714689e-18 -2.72626599894578e-30)
(0.00380867128452425 -0.000176732151482534 -3.30930315846759e-15 -6.22808901556407 -0.00552246027757085 8.15433537266694e-17 -4.30243165509789e-20 -2.78974875741713e-24 8.48636658698199e-40)
(0.00572606707531689 -0.000170157393740668 -1.43648570805666e-20 -6.18139024539818 -0.00697532297333162 3.50405651184503e-19 8.58617157822405e-20 1.11339843117232e-23 -1.22835799588641e-39)