/*--------------------------------*- C++ -*----------------------------------*\
  =========                 |
  \\      /  F ield         | OpenFOAM: The Open Source CFD Toolbox
   \\    /   O peration     | Website:  https://openfoam.org
    \\  /    A nd           | Version:  7
     \\/     M anipulation  |
\*---------------------------------------------------------------------------*/
FoamFile
{
    version     2.0;
    format      ascii;
    class       volScalarField;
    location    "20000";
    object      k;
}
// * * * * * * * * * * * * * * * * * * * * * * * * * * * * * * * * * * * * * //

dimensions      [0 2 -2 0 0 0 0];

internalField   nonuniform List<scalar> 
15600
(
4.32778948946583e-06
1.87697636665137e-06
3.44368839674085e-07
6.61476270626408e-08
8.32815245635648e-08
2.38949354065591e-08
5.20914635993138e-09
3.32433808349669e-09
3.93708697540411e-09
5.32231327087176e-09
7.40457807605065e-09
1.04960836471749e-08
1.47804279910274e-08
2.03868151626844e-08
2.78192381075378e-08
3.6718813742426e-08
4.53173958832182e-08
5.04333629728076e-08
4.78733982594275e-08
3.58800074366645e-08
2.20609098874597e-08
1.67034564828899e-08
2.40677560437661e-08
3.92120112559552e-08
6.06814947166072e-08
9.15770717910577e-08
1.33771943036081e-07
1.88192153563562e-07
2.54711671562322e-07
3.32254694802546e-07
4.19249157206641e-07
5.13969371270519e-07
6.14843646769894e-07
7.20549010763259e-07
8.30041616180273e-07
9.42508774256649e-07
1.05732204780121e-06
1.17398371023678e-06
1.29208754622212e-06
1.41128570770939e-06
1.53126550416853e-06
1.65173256262129e-06
1.77240063507767e-06
1.8929866311283e-06
2.01320951950846e-06
2.1327918712439e-06
2.2514651232297e-06
2.36897777087605e-06
2.48511122821547e-06
2.5997128797883e-06
2.71269872760482e-06
2.82406028524366e-06
2.93374173360467e-06
3.04167728777271e-06
3.14699435478456e-06
3.24854471742046e-06
3.34558137206995e-06
3.43781034802261e-06
3.52496252022777e-06
3.60679515383771e-06
3.68309259838569e-06
3.75366611740665e-06
3.81835400256658e-06
3.87702059133535e-06
3.9295544732225e-06
3.97586619480211e-06
4.01588603053311e-06
4.04956096698147e-06
4.07685038078695e-06
4.09772165707676e-06
4.11214483295864e-06
4.12008603201636e-06
4.12149936881661e-06
4.11631763073596e-06
4.10444041325069e-06
4.08571996374578e-06
4.059944723504e-06
4.02682117336643e-06
3.98595574588215e-06
3.93684008932177e-06
3.87884396585857e-06
3.81122085533241e-06
3.73312848186716e-06
3.64367251422439e-06
3.54197018646302e-06
3.42726282899346e-06
3.29908595349108e-06
3.1575537403587e-06
3.00371547007466e-06
2.84012141403813e-06
2.67129925740322e-06
2.5046205379175e-06
2.35034249618939e-06
2.22271106055736e-06
2.13725091912914e-06
2.11241829129308e-06
2.14038211031914e-06
2.15891285070726e-06
1.83285018505855e-06
1.18334147364359e-06
9.50995545242987e-07
9.50171031367961e-07
1.02855159642505e-06
1.16793985518694e-06
1.36180492347436e-06
1.5851541737508e-06
1.83497159507402e-06
2.06421819939554e-06
2.19852043187935e-06
2.20344761486895e-06
2.13701289894897e-06
2.02242399291828e-06
2.01173170418273e-06
2.20163940088646e-06
2.88972618748114e-06
4.7089588492019e-06
1.27456810311498e-05
2.3603340360362e-05
1.21096873365927e-05
5.75533985117921e-06
0.000138329189666524
6.11419133142854e-05
1.19943005647747e-05
2.31809770154731e-06
2.75402850159439e-06
8.57878188448942e-07
1.94562487097203e-07
1.11425144510797e-07
1.27237835037903e-07
1.70759934094199e-07
2.36832036575317e-07
3.35204589749032e-07
4.7211603340603e-07
6.51591364654302e-07
8.90124711661793e-07
1.17866939040253e-06
1.46302993920723e-06
1.64222257953024e-06
1.57676948311849e-06
1.1948454199855e-06
7.33471357397967e-07
5.47486073326774e-07
7.87370505550592e-07
1.28001406659495e-06
1.97900516644132e-06
2.98379588514706e-06
4.35444515091217e-06
6.12012867303541e-06
8.27618049866514e-06
1.07874208348704e-05
1.36028631005792e-05
1.66667198144363e-05
1.99282806983218e-05
2.33449004711186e-05
2.68829531393874e-05
3.0516264296596e-05
3.42245969798137e-05
3.79919235434414e-05
4.18051644950784e-05
4.56531211150365e-05
4.95257291525173e-05
5.34135171475185e-05
5.73072789406971e-05
6.11979141652504e-05
6.50763930235585e-05
6.89338056691475e-05
7.27615314152835e-05
7.65515016529696e-05
8.02967092831139e-05
8.39922769457264e-05
8.76355363485732e-05
9.12262643341461e-05
9.47626937290307e-05
9.82428289982883e-05
0.000101628490458779
0.000104876082356975
0.000107977731572339
0.00011092425138395
0.000113707244562418
0.000116319156331331
0.000118753291986117
0.000121003809723569
0.000123065719857181
0.000124934850136827
0.000126607786442251
0.000128081799185682
0.000129354770396588
0.000130425095491447
0.000131291546341659
0.000131953131268829
0.000132408924283693
0.000132657856108247
0.000132698457877323
0.000132528564609665
0.000132144939179572
0.000131542823928709
0.00013071541996437
0.000129653313648486
0.000128343906403083
0.000126770951210179
0.000124914330069299
0.000122750228848584
0.000120251785276154
0.000117390453950668
0.000114138018450632
0.000110470137562997
0.000106371753010444
0.000101846076555645
9.69260221929497e-05
9.16920975576005e-05
8.62880649955378e-05
8.09480143498696e-05
7.59989856253359e-05
7.18928415098454e-05
6.91189217463254e-05
6.82413232694271e-05
6.89877810258957e-05
6.92726897347458e-05
5.88896166792363e-05
3.84179605183835e-05
3.10820829634667e-05
3.1263306606945e-05
3.39871993653736e-05
3.8674671834788e-05
4.50617690505571e-05
5.23652119508466e-05
6.04391833378249e-05
6.77091712172057e-05
7.18218819547669e-05
7.18244491195238e-05
6.96112863374338e-05
6.60502528642432e-05
6.60540640439162e-05
7.29066139660945e-05
9.65397316598502e-05
0.000159782029106422
0.000409862898397339
0.00072700214472964
0.000379453547095489
0.000184342086065486
0.000989648453006687
0.000443441536910862
9.33333166081818e-05
1.80899245329245e-05
2.03620303290646e-05
6.88007959647015e-06
1.63340494683185e-06
8.52969867689298e-07
9.35005398747625e-07
1.24375799155339e-06
1.71841746530156e-06
2.42696997072049e-06
3.41736087854961e-06
4.71989576769905e-06
6.44870150469113e-06
8.55362929300324e-06
1.06571862888762e-05
1.2043647539893e-05
1.1694078903185e-05
8.98720119791301e-06
5.53269225082031e-06
4.07242459824583e-06
5.84330953657064e-06
9.47551844941724e-06
1.4615395445573e-05
2.19956577707598e-05
3.20327455065513e-05
4.49206367048253e-05
6.06040321595546e-05
7.88086089504446e-05
9.91491666297796e-05
0.000121211629334408
0.000144623297446052
0.000169073450825091
0.000194318724337665
0.000220170945220573
0.000246485584121248
0.000273149017283929
0.00030006928820677
0.000327168379649095
0.000354376843525601
0.000381629927187519
0.000408865240667134
0.000436021611445178
0.000463038801916805
0.000489857803784218
0.00051642192157516
0.000542678379733507
0.00056858150421442
0.000594100525900157
0.000619219899966505
0.000643942792903452
0.000668260533811165
0.000691895992055447
0.000714567616024681
0.000736279849205307
0.000756975243599643
0.000776600520385291
0.000795107542087437
0.00081245348610216
0.000828600843418237
0.000843517295402514
0.000857175609008665
0.000869553333971968
0.000880632368196402
0.000890398457106651
0.000898840686184839
0.000905950814161639
0.000911722395837582
0.000916149874277801
0.000919227477631021
0.000920947873292191
0.000921300529055644
0.000920269793201441
0.000917832469991546
0.000913954921583339
0.000908589692976848
0.000901671780263471
0.000893114893430588
0.000882808353568632
0.000870615456315466
0.000856374251288291
0.000839901297310413
0.000820999785024783
0.0007994720613303
0.000775142021097292
0.000747890402259401
0.000717713496562229
0.000684801312272744
0.000649657693140485
0.000613216515695785
0.000577022228608405
0.000543268971788527
0.000514956141322011
0.000495263095269112
0.000487400023294557
0.000488504895423274
0.000482099405305715
0.00040902886221066
0.000278297092400058
0.000230408726674374
0.000233374927954408
0.000254226524084436
0.000288718379547565
0.000334879844354474
0.000387294778250378
0.000444503234256683
0.000495286845425174
0.000523479016562918
0.000523338782053474
0.000507957508862106
0.000484314587703272
0.000486529680659819
0.000539484879155728
0.000713344776286424
0.00116625186050473
0.00269084538212785
0.00445838308886273
0.00254432443124715
0.00129447853539238
0.00335404581673546
0.00158885859334963
0.000371178577252891
7.2508788539999e-05
7.68595473399371e-05
2.8212153765328e-05
7.05103729498832e-06
3.39787305067511e-06
3.55464994954316e-06
4.67741243247182e-06
6.43243555667053e-06
9.05865435190653e-06
1.27423597500696e-05
1.75986935414101e-05
2.39951564870464e-05
3.17836200489147e-05
3.95962163086721e-05
4.48685850769492e-05
4.39809602099259e-05
3.43847546112591e-05
2.13689132058134e-05
1.56293457013191e-05
2.24948197348088e-05
3.63045147533828e-05
5.5696176964664e-05
8.33742201322972e-05
0.000120574085825842
0.000167695635452854
0.000224178812573163
0.000288717487874822
0.000359691429248118
0.000435483670793222
0.000514710292448075
0.000596269513185168
0.000679334573432707
0.000763294314132638
0.000847701517068126
0.000932222663340846
0.0010166026706798
0.00110063687999082
0.00118415217353231
0.0012669937617335
0.00134901736951525
0.00143008529286544
0.00151006510467571
0.00158882999829121
0.00166626103546955
0.00174224984240375
0.00181670436335619
0.00188957586363601
0.00196085769438189
0.00203061505908704
0.00209759012190217
0.0021616359787276
0.00222291821747124
0.00228134881402132
0.00233682904570348
0.00238927043390103
0.00243859524940282
0.00248473649340417
0.00252763754879734
0.00256725164916975
0.00260354137319981
0.00263647772952849
0.00266603900580265
0.00269220952494267
0.00271497837085557
0.00273433774681264
0.00275028090634839
0.00276279998133425
0.00277188333270155
0.0027775123058521
0.00277965727308519
0.00277827291126263
0.00277329221801267
0.00276461927831459
0.00275212071831812
0.00273561605668848
0.00271486768836411
0.00268957188770519
0.00265935267698233
0.0026237606812228
0.00258227845971174
0.00253433532155516
0.00247933288771308
0.00241669453969564
0.00234594955580815
0.00226687912915742
0.00217972712951415
0.002085530812081
0.00198649007150528
0.00188650126898314
0.00179137841429034
0.00170912488286726
0.00164798227486445
0.00161438679922976
0.00159623668854665
0.00154194090733457
0.00131971664775543
0.000973209712698624
0.000844013616811374
0.000864877166859681
0.000943705642979794
0.0010680564104098
0.00123034701141269
0.00141296604818394
0.0016094694423184
0.00178275640586652
0.00188116802325243
0.00188856045414178
0.00184537173437644
0.00177691625794046
0.00179579588029663
0.00199385230020993
0.00259846800188423
0.00405743246438514
0.00799397923414977
0.0118515957999962
0.00775836335723667
0.00421496090211427
0.00701910332567136
0.00369754470264342
0.0010160773010234
0.000206953354837996
0.000203685597749902
8.13506223949025e-05
2.15292245993325e-05
9.69525096938955e-06
9.62504381567008e-06
1.25002921611253e-05
1.70941117754579e-05
2.39805950580783e-05
3.36547499903243e-05
4.63991719462639e-05
6.29492595465262e-05
8.29194848267549e-05
0.00010276452434023
0.000116126666739777
0.000114506345024907
9.13980415808559e-05
5.79463040998783e-05
4.2752486113077e-05
6.20426001131951e-05
9.87022387563641e-05
0.000149681700387889
0.00022060756795276
0.000312918432482598
0.000425828935455677
0.000556369869973461
0.000700362140893473
0.000853531780880012
0.00101217279035101
0.00117346589807206
0.00133541330498853
0.00149669103545864
0.00165644745340328
0.00181415454805012
0.00196948732614857
0.00212224647138792
0.00227230280722887
0.00241956311058213
0.00256394829441631
0.00270538208466989
0.00284378638863257
0.00297908082887086
0.00311118448876277
0.00324001975694167
0.00336551475965961
0.00348760311258306
0.00360628787269725
0.00372162361812289
0.00383159473090094
0.0039367527021967
0.0040372369203609
0.00413303666912786
0.00422406708509507
0.00431024544750792
0.0043915001997862
0.00446777129427091
0.00453901013894146
0.00460517910207407
0.00466625081987203
0.00472220746952684
0.00477303951965978
0.00481874418921088
0.00485932379747915
0.00489478402588886
0.00492513167680987
0.00495037189331385
0.00497050518265946
0.00498552377910338
0.00499540717765058
0.00500011668980914
0.00499958888744801
0.00499372731812323
0.00498239244640611
0.00496538969239231
0.00494245576471195
0.00491324414912741
0.00487731144701475
0.00483410687413359
0.00478296761258228
0.00472312212988928
0.00465370496006433
0.00457378543299317
0.00448242706914779
0.00437879494405795
0.00426234808209748
0.00413313288604175
0.00399225129530955
0.00384242923796496
0.00368880839561337
0.00353934725820536
0.00340496363864312
0.00329623337770503
0.00321824776260954
0.00314681412581488
0.00300004031840419
0.00262527049964911
0.00212771680577029
0.00196237584141165
0.00204923603116406
0.00224848344176738
0.00253859208024742
0.00290212331588692
0.00330517705801895
0.00373165791429924
0.00410980603171816
0.00434493867866878
0.0044117263892548
0.00437851827327321
0.00429658115780723
0.00439081028708405
0.00487008135830563
0.0061663117257487
0.00893822684913019
0.0148004780469698
0.0196061607147319
0.0148390156764275
0.00862773049614133
0.0110393670768302
0.00643974525975901
0.00214712913464398
0.0004815067125678
0.000433905776684706
0.00018895684077691
5.3319077921226e-05
2.27454603575709e-05
2.13182187859222e-05
2.72487703678361e-05
3.70008462684431e-05
5.16242621921062e-05
7.21246846841745e-05
9.89644911072197e-05
0.000133031257374534
0.000173232144597778
0.000212085512630298
0.000237306886397816
0.000233997279945231
0.000191432278368348
0.000125816863931312
9.57549361623388e-05
0.000138822644781229
0.000215371955318998
0.000318382237509256
0.000454945689477467
0.000623848702921078
0.000820630532096854
0.00103826643691364
0.00126920012776976
0.00150684876552912
0.00174622120973721
0.0019839775566969
0.00221806672285256
0.00244735972196472
0.00267130272077749
0.00288969115303016
0.00310250860201938
0.00330983337364671
0.00351177754290842
0.0037084538685453
0.00389995751509216
0.00408635951059888
0.00426770687404897
0.00444402640296584
0.00461532990280253
0.00478162092721475
0.00494289923833341
0.00509913669459553
0.00525037456822292
0.00539462042796124
0.00553255538180996
0.00566438301681785
0.00579013035785098
0.00590976071358897
0.00602321236054112
0.0061304281538521
0.00623136119596484
0.0063259752300738
0.00641424467540475
0.00649615415863713
0.00657169783028975
0.00664087857102036
0.00670370664111262
0.00676019799845264
0.00681037248555814
0.00685425187257489
0.00689185733791226
0.00692320636463715
0.00694830936312593
0.00696716556261944
0.00697975797118097
0.00698604725833856
0.00698596438056306
0.00697940133220001
0.00696619993607271
0.00694613852764164
0.00691891670340202
0.00688413900206041
0.00684129928687227
0.00678976830045189
0.00672878735829593
0.00665747076703501
0.00657482039889869
0.00647975567723771
0.00637117571823681
0.00624807376595307
0.00610974200224942
0.00595608922598675
0.00578814099183526
0.00560865742928652
0.00542293904482214
0.00523917955245235
0.00506819822284378
0.00491924076903616
0.0047926156875765
0.00465542606728787
0.00441490868129961
0.0039458785823033
0.0034265525805996
0.0033168458956576
0.00352236026949598
0.00388642837977645
0.00437864132410888
0.00496971638210232
0.00561425783647814
0.00628543066900072
0.00688726683868439
0.00730237248949961
0.00751224685806249
0.00759603824387773
0.0076272949619754
0.00791197691793129
0.00876485325821839
0.0107336438759799
0.0144487575233567
0.0209399926490442
0.025718216733029
0.0215556603579372
0.0135665066796447
0.0149766300945758
0.00941795673270246
0.00374212281005823
0.000972215414850401
0.000792935991502532
0.000377228899471405
0.00011449058553747
4.69624367421312e-05
4.13789642445204e-05
5.18656681013273e-05
6.97847949009475e-05
9.659068273554e-05
0.000133873036294862
0.000181962640315713
0.000240908733801092
0.000307700583017402
0.000369010377953116
0.000405782942918095
0.000398065915401414
0.000333611804523448
0.000232257351605575
0.000186451806122537
0.000264688721135662
0.000395507145862929
0.000562920641649503
0.000773264381125149
0.00102123534490401
0.0012986841231954
0.00159532394034028
0.00190140830189528
0.00220923605086855
0.00251358170613193
0.0028113882109594
0.0031011130244603
0.00338217379347228
0.00365451720059769
0.00391836391393704
0.00417404697589113
0.00442192759298326
0.00466234606694826
0.00489559970090407
0.00512193388628366
0.0053415431184191
0.00555457705957626
0.00576114883863784
0.00596134354196609
0.00615522775429577
0.00634286371037155
0.00652423420791646
0.00669776604113504
0.00686370997933202
0.00702242562097517
0.00717399923353519
0.00731842770467643
0.00745567561083133
0.00758569806047018
0.00770845543472027
0.00782391763022312
0.00793206459267663
0.00803288642117011
0.00812638294740346
0.00821256307255497
0.00829144393712384
0.00836304952659018
0.0084274089086625
0.00848455431835102
0.00853451906268725
0.00857733483729531
0.00861302843433054
0.00864161812453445
0.00866310929127706
0.00867748909099873
0.00868472001230063
0.00868473213578469
0.00867741350789908
0.00866259851955227
0.00864005414325289
0.00860946416514673
0.00857041223776611
0.00852236551108024
0.00846466136229562
0.00839650037910735
0.00831694861713081
0.00822495238913644
0.0081193692433096
0.00799903062556839
0.00786285725399467
0.00771006303581767
0.00754047140422995
0.00735500176648498
0.0071562628762179
0.00694926387338343
0.006741607588215
0.00654277605789452
0.0063594390042125
0.00618704953839427
0.00598819865169007
0.00567140897230664
0.00515130061589515
0.004669077647017
0.00465230857919695
0.00498685505141395
0.00551336659752007
0.00619199115546585
0.00698267821905393
0.00783418909687754
0.00871048052549202
0.00950289808737568
0.01009023119779
0.0104752888592094
0.0107386438750873
0.0109759422749976
0.0115266226901862
0.0127560336376772
0.0152145295372973
0.0194161731518499
0.0258560375473929
0.0303347786018257
0.0269135401364669
0.0183831735705517
0.0186851181371791
0.0124537281301488
0.0056563507691795
0.00177567082281687
0.00128825669220872
0.000668827659941764
0.00022071882753691
8.85171923400877e-05
7.31209724261143e-05
8.94651423369766e-05
0.000118914449484728
0.000162689421609731
0.000222589472968662
0.000297804442044065
0.00038556200451404
0.000479188031031
0.000559129213770712
0.000601836306347725
0.000586640975343092
0.000502961029421735
0.000375052781844641
0.000321487314623206
0.000440638304104416
0.000630032549011016
0.000862098938310381
0.00114214562511491
0.00146155458128656
0.00180915145172611
0.00217195940126304
0.00253885609227742
0.00290195136822123
0.00325658408516942
0.00360047722633904
0.00393282785781624
0.00425365024815231
0.00456334702382424
0.00486247802155064
0.00515162959171169
0.00543135392787795
0.00570213824190425
0.00596439501016936
0.00621846181583587
0.00646460831718458
0.00670304654264539
0.00693394213646971
0.00715742462701964
0.00737359731628801
0.00758257399690829
0.00778330081157565
0.00797533788034992
0.00815913828287786
0.00833489611908176
0.00850265267086543
0.00866239619999255
0.00881409636242426
0.00895771948210115
0.00909323763671113
0.00922063206904458
0.00933989386874582
0.00945102410228815
0.00955403341963026
0.00964894139194635
0.00973577564733942
0.00981457044071281
0.00988536482166837
0.00994820063559188
0.0100031203276392
0.0100501641449921
0.0100893667140488
0.0101207532632273
0.0101443351055042
0.0101601041340156
0.010168026229187
0.0101680333775492
0.0101600139468598
0.0101438009982218
0.0101191584893037
0.0100857654601156
0.0100431989520985
0.00999091736439296
0.00992824675256724
0.00985437336592254
0.00976834586257705
0.00966909023310287
0.00955544121174585
0.00942620390059461
0.00928026650725375
0.00911679678155298
0.00893554464162671
0.00873729610668258
0.0085244119552453
0.0083014137656876
0.00807500054628425
0.00785297573791398
0.00763938424976389
0.00742592324957641
0.00717377534239378
0.00679820243659739
0.00625103275976648
0.00582074170940695
0.00589684869703514
0.00634670572245734
0.00701247834335519
0.00784562449464903
0.00879787270491775
0.00981480715323805
0.0108526232436005
0.0117937542746539
0.0125265730205505
0.013073978487456
0.0135173089892039
0.0139736307217083
0.0147912924282616
0.0163495835579269
0.019150278999527
0.0235946142377242
0.0297835249734424
0.0339340500529304
0.0310325022774906
0.0227629763612743
0.0220774221191278
0.0155002752406034
0.00775447960011406
0.00292492799639372
0.00190697958487972
0.00107157699862546
0.000389061206802617
0.000155416181043556
0.000120307445161101
0.000142887688362856
0.000186874443868612
0.000251552062347165
0.000337774678550893
0.000441836404110285
0.00055605872105389
0.000669534194038402
0.000759285754757524
0.000801578189467375
0.000778525686652845
0.000682828002159054
0.000544103057699252
0.000495864254887564
0.000655615314271522
0.0009002374860743
0.00119214553553512
0.00153541239692371
0.00191793713465413
0.00232525267842247
0.00274226288528925
0.0031576279721522
0.00356423717178611
0.00395848637601944
0.00433898730014196
0.00470559036088296
0.00505875241157982
0.0053991738962425
0.00572761523657653
0.00604480273807521
0.00635138967443303
0.00664793990075024
0.00693492631209583
0.00721273585096901
0.00748167948436875
0.00774200451056352
0.00799390714093288
0.00823754332444373
0.00847303189826422
0.00870014404772229
0.00891767749334039
0.00912603196158764
0.00932549220087575
0.00951617546726585
0.00969810388733833
0.00987126424416299
0.0100356316618921
0.0101911808380385
0.0103378926147463
0.0104757568675684
0.010604773322313
0.0107249516918171
0.0108363112972256
0.0109388803993122
0.0110326953078087
0.0111177989198094
0.0111942388251985
0.011262065238475
0.0113213287319992
0.0113720773556978
0.0114143531197255
0.0114481881140049
0.0114735999075179
0.011490585962231
0.0114991169939709
0.0114991290871005
0.0114905140314593
0.01147310776456
0.0114466767694256
0.0114109024649414
0.0113653642401332
0.0113095227562468
0.0112427059562248
0.0111641011767634
0.0110727572288324
0.0109675991869537
0.0108474596129573
0.0107111378707192
0.0105575077391894
0.0103857024157017
0.0101953965117625
0.00998721912477435
0.00976322573860827
0.00952735834690024
0.00928530437935547
0.00904317677285009
0.00880271726748341
0.00855305544856587
0.00825598147583278
0.00783552010893675
0.00727474691722849
0.00689637705167657
0.00705515816313048
0.00760312855190459
0.00838479635198993
0.00934423160033793
0.0104271749678215
0.0115768877944899
0.0127425936828207
0.0137975641249643
0.0146514537625415
0.0153383282616982
0.0159420416806515
0.0165984155000951
0.0176549521464508
0.0194891355454175
0.0225421609803202
0.0271138577942196
0.0330088203713911
0.0368429617554136
0.0342605438923872
0.0266063075161836
0.0251210913752061
0.0185412757181852
0.0099689026606083
0.00436128976897137
0.00263085032299647
0.00157043907687799
0.0006328495394123
0.000256881905004591
0.000186835525630078
0.000214059343477513
0.000274198779716077
0.000361419517780425
0.000473761173058922
0.000602984748702092
0.000736130663879752
0.000859848769960422
0.000951929692443718
0.000991184361307005
0.000963111027790177
0.000863862675500801
0.000729433576508003
0.000697852473201916
0.000895575491056035
0.00119083403274973
0.00153842345758346
0.00193940820422165
0.00237724700734744
0.00283459748630214
0.00329566025828232
0.00375006226932353
0.00419196881795405
0.00461884578392542
0.0050300151970188
0.00542576843792555
0.00580682107571874
0.00617402721210794
0.00652823980689695
0.00687024510985488
0.00720073843015395
0.00752031646336944
0.00782947973850147
0.00812863965315936
0.00841812920769193
0.00869821576142501
0.00896911395256677
0.00923099758294108
0.00948404196277681
0.00972716547393405
0.00996017547833589
0.0101834555011019
0.010397201161997
0.0106014914415758
0.0107963402655009
0.01098173593115
0.0111576589741674
0.0113240910735514
0.0114810203587984
0.0116284439817612
0.0117663690507464
0.0118948127701437
0.0120138020698293
0.0121233729319726
0.0122235694855084
0.0123144425168347
0.0123960475182218
0.0124684425648036
0.0125316860039593
0.0125858335150661
0.012630934523662
0.0126670282611359
0.0126941391305333
0.0127122710959568
0.0127214010709646
0.012721471123416
0.0127123789786592
0.0126939667193297
0.0126660075235939
0.0126281904162407
0.0125801035645027
0.0125212176458239
0.0124508716148121
0.012368264317405
0.0122724562847133
0.0121623840690709
0.012036890724435
0.0118947817791384
0.0117349259189735
0.0115564260293059
0.0113588764807868
0.0111427319959691
0.0109097092898401
0.0106631316087154
0.0104076606215378
0.0101478311344931
0.00988348724172342
0.00960219294177118
0.009267577254604
0.00881281178885091
0.00824634750286378
0.0079157523069071
0.00814625780040936
0.00877764480586091
0.0096565234417713
0.0107207835795854
0.0119117013702984
0.0131702687303739
0.0144376975747557
0.0155821242430952
0.0165380494542851
0.017344097609081
0.0180882534154585
0.0189219603856071
0.0201878633186985
0.0222545449355227
0.0255027173709888
0.0301364806352189
0.0357305318778109
0.0392598837347746
0.036871352935277
0.0299291978618597
0.0278325054720826
0.0215439206271439
0.0122568177078202
0.00600883966985852
0.0034590097070281
0.00213501018200344
0.000955248596811253
0.000401631466928022
0.000276200229029578
0.000303374145825283
0.000378896370384113
0.000487156311974185
0.000621437366152873
0.000768628421289348
0.000912277246595008
0.00103911099929362
0.00113026479100548
0.00116738913375983
0.00113859838507489
0.00104343584395589
0.000925171815787325
0.000916613581772655
0.00115043541697909
0.0014935083177766
0.00189382641801182
0.00234715644972078
0.00283259588492838
0.00333146953999756
0.0038287221847828
0.00431552368107268
0.00478730616417952
0.0052423733682106
0.0056805172913437
0.00610227562420977
0.00650848174169047
0.00690004338779565
0.00727783595393644
0.0076426559259642
0.00799520517333013
0.00833608754281982
0.00866581234222272
0.00898480128059074
0.00929339851155008
0.00959188286922178
0.00988048040415917
0.0101593713235301
0.0104285243616225
0.0106866893325699
0.0109342654957421
0.0111715420765324
0.0113986647283873
0.0116156925936987
0.0118226367858062
0.0120194886259185
0.0122062340069094
0.0123828608931989
0.0125493639354092
0.0127057468705104
0.0128520235569226
0.0129882181177125
0.0131143645739214
0.013230506173311
0.0133366944832822
0.0134329878760385
0.0135194495228604
0.0135961452300271
0.0136631411096473
0.013720500595385
0.0137682808070429
0.0138065285862219
0.0138352758673538
0.013854534083184
0.0138642876356017
0.0138644862604485
0.0138550357688265
0.0138357870935641
0.0138065234694394
0.0137669456529302
0.0137166555752836
0.0136551398505127
0.0135817553061115
0.013495719981355
0.0133961144726771
0.0132818954891413
0.0131519251309976
0.0130050226865347
0.0128400570643134
0.0126561022802732
0.0124526676634042
0.0122300220354598
0.0119895259983061
0.0117338756678373
0.0114667403541354
0.0111912355902339
0.010905702667832
0.0105969226607606
0.0102310681258963
0.00975006625871796
0.00918277069315474
0.00889504296100246
0.00918775504421709
0.00989093227842838
0.0108527432455772
0.0120058522082567
0.0132880075471933
0.0146375462101971
0.0159852855400292
0.0172033152848112
0.0182466827538832
0.0191561019080022
0.0200247118831446
0.0210166869268731
0.0224677654210555
0.0247332887103035
0.0281353175581103
0.0327844351325829
0.0380754546194479
0.0413088892495172
0.0390458785187513
0.0327902254172805
0.0302511914937628
0.0244457310196353
0.0145724127765116
0.00779920124180649
0.00441691535720767
0.00274063246955353
0.00134678488918387
0.000595350046607642
0.000390892267412459
0.000409517309973545
0.000496859121070554
0.000621905598058292
0.000771774227872315
0.000929517017707221
0.00107763768707427
0.00120420293959634
0.00129433610218237
0.00133182201193823
0.00130664716591211
0.00122166705141643
0.00112693479947105
0.00114529969156039
0.00141498136014399
0.00180454068935748
0.00225452068173583
0.00275430274529887
0.00328012016925617
0.0038136454491811
0.00434139213286455
0.00485609877897124
0.00535422638178741
0.00583464878192489
0.00629742533149256
0.00674319693307631
0.00717281904255441
0.00758718804646868
0.00798715753985997
0.00837350342608794
0.00874691245601703
0.00910798009664662
0.00945721315033477
0.00979503521610666
0.0101217951127013
0.0104377780061164
0.0107432178319098
0.011038319242551
0.0113225699952383
0.0115951930949873
0.0118567097985144
0.0121073531811203
0.0123472402142546
0.0125764199507434
0.012794903697569
0.0130026866963432
0.0131997602150684
0.0133861181742914
0.0135617613660014
0.0137266997864193
0.0138809537599794
0.0140245540859179
0.0141575416713195
0.0142799668707564
0.0143918885926965
0.0144933727588554
0.0145844902435389
0.0146653146815367
0.0147359201459272
0.0147963781299254
0.0148467538747476
0.0148871024124746
0.0149174639738545
0.0149378584381481
0.0149482789287569
0.0149486843923298
0.0149389906281483
0.0149190597459541
0.0148886878629221
0.0148475908724856
0.0147953885217343
0.01473158811276
0.0146555697861131
0.0145665767553066
0.0144637160535099
0.0143459709814222
0.0142122288308919
0.0140613278351634
0.0138921403918005
0.0137037120883795
0.0134954635526754
0.0132674713328495
0.0130207340380637
0.0127573316063732
0.0124799998175771
0.0121906071603183
0.011886345679282
0.0115538030995896
0.0111620538243195
0.0106610410248033
0.0100960122944076
0.00984652442874587
0.0101935755985149
0.0109594251343266
0.0119932175722067
0.0132231009340062
0.0145838114119193
0.0160103316615331
0.0174202185468553
0.0187017939078725
0.0198213946969683
0.020822209639744
0.0218031571313756
0.0229385887044026
0.0245558234468376
0.0269933416781105
0.0305154428717006
0.0351405276479743
0.0401250072715138
0.0430720942185501
0.040900865610655
0.0352551390533906
0.0324196765425175
0.0271658909507069
0.0168673048900618
0.00966853066113877
0.00554139852076436
0.00338339161822006
0.00179103469679185
0.00083888479820665
0.000532094748961686
0.000530027803981284
0.000623208591223452
0.000759350064568858
0.00091845627477068
0.00108115892296825
0.00123068589242476
0.00135618251540457
0.00144663063624409
0.00148726112203841
0.00146951265310836
0.00139933205727633
0.00133147843661406