/*--------------------------------*- C++ -*----------------------------------*\
  =========                 |
  \\      /  F ield         | OpenFOAM: The Open Source CFD Toolbox
   \\    /   O peration     | Website:  https://openfoam.org
    \\  /    A nd           | Version:  7
     \\/     M anipulation  |
\*---------------------------------------------------------------------------*/
FoamFile
{
    version     2.0;
    format      ascii;
    class       volScalarField;
    location    "20000";
    object      k_conv;
}
// * * * * * * * * * * * * * * * * * * * * * * * * * * * * * * * * * * * * * //

dimensions      [0 2 -3 0 0 0 0];

internalField   nonuniform List<scalar> 
15600
(
-1.51925031187798e-05
-7.54383717524612e-07
7.58540426919074e-08
-2.69239755721274e-07
-2.78628328237365e-07
-2.63474102762011e-08
-2.58717768301127e-09
-5.55270843832491e-10
-6.6303015059243e-11
-1.04172969587297e-10
-1.66795610846019e-10
-2.48195643684161e-10
-3.32848166663325e-10
-8.53474999126614e-10
-6.61236808200024e-09
-1.70423145921986e-08
-3.01949664219246e-08
-3.66573442914544e-08
-2.88414731286533e-08
-1.06532497603383e-08
-1.22281964613574e-09
-2.07430455377902e-10
2.24527180671415e-10
3.70313327215865e-10
1.57088355913958e-10
-1.18945547051642e-09
-3.13447046409005e-09
-6.03213056835186e-09
-9.72092332634526e-09
-1.39150079426404e-08
-1.83027087978598e-08
-2.26459652289091e-08
-2.67895114048389e-08
-3.06561413396454e-08
-3.42145191901174e-08
-3.74618454634258e-08
-4.04062622375291e-08
-4.30599771375279e-08
-4.5433560585403e-08
-4.75345408194051e-08
-4.93668123195512e-08
-5.09316029262714e-08
-5.22288786942802e-08
-5.32587895536442e-08
-5.40228996173422e-08
-5.45261065556711e-08
-5.47782746794973e-08
-5.47980204655598e-08
-5.46210937996439e-08
-5.42861448990569e-08
-5.38363157884451e-08
-5.32558153782843e-08
-5.25466474943464e-08
-5.13225816525691e-08
-7.84250453331978e-08
-1.5307930860997e-07
-2.28992082872936e-07
-3.05499451614746e-07
-3.81947338748511e-07
-4.57690997425613e-07
-5.32107008304731e-07
-6.04596905737087e-07
-6.74599352578286e-07
-7.41598625960254e-07
-8.05129201357759e-07
-8.64775295316529e-07
-9.201749455181e-07
-9.71024497089797e-07
-1.01707350055278e-06
-1.05812320649648e-06
-1.09402354123562e-06
-1.12466829575923e-06
-1.14998477501498e-06
-1.16992630519976e-06
-1.18445771027912e-06
-1.19353648282081e-06
-1.19708813097486e-06
-1.1949746612071e-06
-1.18695643834331e-06
-1.1726526220276e-06
-1.15150906096769e-06
-1.12279380161523e-06
-1.0856055339439e-06
-1.03896150333066e-06
-9.8185190102854e-07
-9.13392602066049e-07
-8.32917366379438e-07
-7.40377917791716e-07
-6.36326095234243e-07
-5.22884988153305e-07
-4.02728814655945e-07
-2.82045069165404e-07
-1.66785737688989e-07
-7.58193592929996e-08
-4.01077117338049e-08
-1.71276590531103e-07
-5.94931106633988e-07
-2.24029430392628e-06
-3.07024659027695e-06
-6.12871386283994e-07
9.20660000515452e-11
-9.94955501331884e-09
-1.98729283627964e-08
-1.25785780127525e-07
-5.22871987132027e-07
-1.09215139547765e-06
-1.95078169895646e-06
-2.88047642175892e-06
-3.62156704101797e-06
-3.80264229164564e-06
-3.88010069170163e-06
-3.53899915588099e-06
-4.62773520640884e-06
-7.13451822017967e-06
-1.79184457206503e-05
-5.9353176287478e-05
-0.00039747284453448
-0.000548377114748983
-2.33422930841658e-05
-6.43554993649993e-06
-5.94470761054122e-05
-6.35058588626034e-05
-4.39189189163661e-08
-4.70225066835858e-06
-6.07100622157496e-06
-6.4211120406695e-07
-6.27029853024147e-08
-1.54738023861043e-08
-5.79647153861078e-09
-8.81818044599168e-09
-1.39265461855096e-08
-2.08229617569222e-08
-2.89825777790415e-08
-4.19752111174489e-08
-1.68801749346176e-07
-3.89330176006342e-07
-6.74375136098493e-07
-8.51780782915756e-07
-7.16583944377331e-07
-3.28031946775757e-07
-7.12016107090678e-08
-1.35954489978342e-08
2.17215096054286e-08
3.54132040781138e-08
-2.15107040066354e-08
-1.15258944604178e-07
-2.7403719998491e-07
-5.00938397400367e-07
-7.83192674311942e-07
-1.09955751060718e-06
-1.4292149674111e-06
-1.75623083764733e-06
-2.07047442869265e-06
-2.36662056830819e-06
-2.64234676546344e-06
-2.89713803753808e-06
-3.13126993128239e-06
-3.34534348905581e-06
-3.53993110835369e-06
-3.71547040256291e-06
-3.87222044892472e-06
-4.01031511801572e-06
-4.12984250358611e-06
-4.23092935938008e-06
-4.31381915186897e-06
-4.37899304949794e-06
-4.42730359106397e-06
-4.46034681944215e-06
-4.4812316907018e-06
-4.49325360124352e-06
-4.50003491297515e-06
-4.49989530731213e-06
-4.49278450820437e-06
-5.23377403817544e-06
-6.79160485305932e-06
-8.32270745676598e-06
-9.8555550102813e-06
-1.13781175101551e-05
-1.28785059430494e-05
-1.43452240970256e-05
-1.57673330737453e-05
-1.71345266797896e-05
-1.84372907089001e-05
-1.96670069509465e-05
-2.08159924452371e-05
-2.18774842985379e-05
-2.28456706201436e-05
-2.37157066817063e-05
-2.44836154378295e-05
-2.51462188480662e-05
-2.57010408450374e-05
-2.61461670390065e-05
-2.64800266870382e-05
-2.67011768866792e-05
-2.68079737505858e-05
-2.67981559703519e-05
-2.66683302756071e-05
-2.64133616189403e-05
-2.60257096425799e-05
-2.54948341880597e-05
-2.48068478730373e-05
-2.39447013788419e-05
-2.28888195391886e-05
-2.16189402134313e-05
-2.0115985965243e-05
-1.83656850883784e-05
-1.63624448214365e-05
-1.41176905582625e-05
-1.16644277714087e-05
-9.07344970098269e-06
-6.44715158946088e-06
-3.95956312047133e-06
-1.82908276389644e-06
-5.17661529105892e-07
-7.66597311427479e-07
-4.70591241224101e-06
-1.52481529531777e-05
-4.16292240349111e-05
-5.12981753997535e-05
-1.17714827967093e-05
6.77184445427331e-09
-8.51945739488767e-07
-3.14731234633524e-06
-8.84526190380549e-06
-1.86917160750924e-05
-3.2044558215257e-05
-5.02188331234075e-05
-6.89506747349413e-05
-8.32219085974684e-05
-8.68465214773668e-05
-8.73373666269636e-05
-8.23159108797387e-05
-0.000104710373903568
-0.000162253106343392
-0.000385669455593314
-0.00124309721747561
-0.00662283125558054
-0.00862514236697353
-0.00129537006446794
-0.000477042847333568
-0.000734125143241584
-0.00067192899809186
-5.21495352540743e-05
-2.11729431847659e-05
-3.67021863565975e-05
-4.32523242394623e-06
-4.17286699429903e-07
-1.20860516249434e-07
-6.46566715032115e-08
-9.35661268396537e-08
-1.461234704802e-07
-2.21212969868579e-07
-3.22194201010119e-07
-4.71110345162387e-07
-1.26869744521278e-06
-2.60055274444497e-06
-4.29949686847119e-06
-5.47191208104657e-06
-4.80261322687275e-06
-2.46266822118178e-06
-6.74753288664709e-07
-8.01947714051286e-08
3.2083022969774e-07
2.93148948592679e-07
-2.19651911025191e-07
-1.08352544167008e-06
-2.54575203397239e-06
-4.59035164784441e-06
-7.1034142499514e-06
-9.91107107418652e-06
-1.28491973568033e-05
-1.57911887439152e-05
-1.86530937102279e-05
-2.13869915896243e-05
-2.39682927306481e-05
-2.63880815917353e-05
-2.86452727828254e-05
-3.07431417958844e-05
-3.26860810528292e-05
-3.44785465266983e-05
-3.6124335933139e-05
-3.76267644178528e-05
-3.89890082155575e-05
-4.02145589985173e-05
-4.13076965826559e-05
-4.22743965877019e-05
-4.31235365101157e-05
-4.38708429549362e-05
-4.45485524862625e-05
-4.51896809927205e-05
-4.5833392932672e-05
-4.64559205547894e-05
-5.14062440105891e-05
-5.86597852547431e-05
-6.51224389215069e-05
-7.14539146060249e-05
-7.76150517685749e-05
-8.35701415410869e-05
-8.92856710228557e-05
-9.47306643330414e-05
-9.98769080996204e-05
-0.000104698986125998
-0.000109174416669072
-0.000113283667191308
-0.000117010012417707
-0.000120339303662826
-0.000123259794082678
-0.000125761895176531
-0.000127837711261076
-0.000129480572998248
-0.000130684462618295
-0.00013144325971482
-0.000131749740347402
-0.000131594406882901
-0.000130963930829079
-0.000129839236573213
-0.000128193257977165
-0.000125988494378445
-0.000123174668922438
-0.000119687022035697
-0.000115445897916757
-0.000110358392272292
-0.000104322197415282
-9.72334962517569e-05
-8.89977153540133e-05
-7.95484476805898e-05
-6.88735529098093e-05
-5.70587836593131e-05
-4.43327338064726e-05
-3.11456831738493e-05
-1.82063406261408e-05
-6.63496234230102e-06
2.00480618062931e-06
5.05821488607783e-06
-1.52198858328478e-06
-2.6266559264682e-05
-7.79586707617632e-05
-0.000170248447930006
-0.000195886083093863
-5.37760427296368e-05
-6.02804822025888e-06
-1.64049041199527e-05
-4.23978964377163e-05
-8.44228020708689e-05
-0.000148155725076881
-0.000230720009427333
-0.000335001551200795
-0.000438614603644277
-0.000517640670314449
-0.00054190974161431
-0.000547850966917809
-0.000535975965773483
-0.000673438942463243
-0.00103295347162683
-0.00228142927187247
-0.00663795108648014
-0.0252851798165287
-0.0273223143158975
-0.00743140745113055
-0.00358024063438454
-0.00147975687558034
-0.00268466366878924
-0.000497398084655609
-3.17362239228223e-05
-0.000121655542452307
-1.6453791522954e-05
-1.54147187911024e-06
-4.9994987428733e-07
-3.18981332364431e-07
-4.43694616251133e-07
-6.86635776107422e-07
-1.05006363722946e-06
-1.57901864727304e-06
-2.42091281237392e-06
-5.18633220314905e-06
-9.66723387657693e-06
-1.51456229577457e-05
-1.89731575037651e-05
-1.72502817773634e-05
-9.44788126115778e-06
-2.77731951264039e-06
1.72482080926705e-08
1.76908722617911e-06
6.16074854825831e-07
-1.2376991817669e-06
-4.97189383445238e-06
-1.08524410261181e-05
-1.86154258368296e-05
-2.7723621547867e-05
-3.75528001162118e-05
-4.75774725858124e-05
-5.74270664937244e-05
-6.68658133565629e-05
-7.57721803959194e-05
-8.40935656511603e-05
-9.18281691684508e-05
-9.89981296293688e-05
-0.000105640254513059
-0.000111794148361889
-0.000117499103795347
-0.000122790931311876
-0.000127702201921597
-0.000132262576960493
-0.000136499642525849
-0.000140439922412938
-0.000144111085926495
-0.000147544251462649
-0.000150785089338118
-0.00015394757953985
-0.00015714059757208
-0.000160540017272677
-0.000175287485747334
-0.000187711844523941
-0.000196914846250612
-0.000205625575946775
-0.000213779070169086
-0.000221358205809756
-0.000228348924606354
-0.000234739935589071
-0.000240522464425602
-0.000245690180321146
-0.000250238966170307
-0.000254166561941766
-0.000257472242785262
-0.000260156423848944
-0.000262220212223194
-0.000263664830919257
-0.000264490986686291
-0.000264698159146015
-0.000264283655875221
-0.000263241473689404
-0.000261560849760545
-0.000259224417092905
-0.000256205811006189
-0.000252466711986992
-0.000247953270191328
-0.000242592084953488
-0.000236286139369766
-0.000228911365679351
-0.000220314694486761
-0.000210314444493825
-0.000198703674223578
-0.000185256978658045
-0.00016974286272524
-0.000151945062395419
-0.000131701162472571
-0.000108965087027756
-8.39062103227529e-05
-5.70457467849628e-05
-2.94519122868595e-05
-2.9514407372685e-06
1.95619067587651e-05
3.38987519142803e-05
3.40401810840216e-05
1.22699370200857e-05
-4.113937459573e-05
-0.000126992013921292
-0.000244669835862668
-0.000282759533616953
-0.000104493637710287
-4.45355611580081e-05
-9.84923499147745e-05
-0.00019429203281466
-0.000335131198961646
-0.000526962508481089
-0.000762994831883885
-0.00104230653806292
-0.00131391234291077
-0.0015364355160668
-0.00163451720349029
-0.00169651362219561
-0.00174120720564622
-0.00219121798293944
-0.00328668777890792
-0.0065675577510432
-0.0159377910680521
-0.0396255201388898
-0.0333114769589596
-0.0128799459905279
-0.00967644042419196
-0.000993191358901854
-0.00467120990122376
-0.0018111700568749
4.74824972416069e-06
-0.000280046257004296
-4.50337960483403e-05
-4.07150346465361e-06
-1.42252838858044e-06
-1.03384654192963e-06
-1.40582373183235e-06
-2.15785396243912e-06
-3.31848182995109e-06
-5.07505154922352e-06
-7.89128179814031e-06
-1.4748606049697e-05
-2.52748157608382e-05
-3.71432071150208e-05
-4.47343267412496e-05
-4.16992248150934e-05
-2.37806330466751e-05
-6.76280352588929e-06
1.66690640813893e-06
3.72528260214038e-06
7.11947990562655e-07
-4.90199539442708e-06
-1.44612630714386e-05
-2.76651268686685e-05
-4.34131051004231e-05
-6.06390069220982e-05
-7.84640574577819e-05
-9.62478252249413e-05
-0.000113545640791028
-0.000130044690615401
-0.000145580112095691
-0.000160078674745524
-0.000173552603611075
-0.000186052686752251
-0.000197656144549311
-0.000208443015670714
-0.000218491350886732
-0.000227870470367062
-0.000236641463903926
-0.000244857191313014
-0.000252563684337117
-0.000259801978879259
-0.000266611244137111
-0.000273029177905375
-0.000279092274299742
-0.000285011649547865
-0.00029112209309081
-0.000313691220786358
-0.000323413544203975
-0.000330329315848772
-0.000336702144703402
-0.000342328652316967
-0.000347205681774942
-0.000351349980793315
-0.000354778871078004
-0.000357510516573905
-0.0003595633039665
-0.00036095572416935
-0.000361706046269867
-0.000361831750767555
-0.000361349137058198
-0.000360272941638739
-0.000358615879262117
-0.000356387924212724
-0.000353595585197382
-0.000350241177150816
-0.000346321712368065
-0.000341827543740272
-0.000336740650552916
-0.000331032433643151
-0.000324660771981498
-0.000317566451571797
-0.000309668866868267
-0.000300861239131452
-0.000291005898359014
-0.000279930477234695
-0.000267425952939373
-0.000253247370238615
-0.000237117586142403
-0.000218734194881254
-0.000197781982962477
-0.000173956810216439
-0.000147011837699045
-0.000116837697631842
-8.35932920977778e-05
-4.79033165594163e-05
-1.11420594011444e-05
2.42103693368413e-05
5.41538219642063e-05
7.29220454920603e-05
7.31099196750581e-05
4.73462342454648e-05
-7.97813225499665e-06
-8.08529130309863e-05
-0.000175085493288237
-0.000240733134185529
-0.000143890597505897
-0.000141577751057295
-0.000272941682530433
-0.000469698215805355
-0.000731029372624729
-0.00105425112383825
-0.00142887148917077
-0.00184598962159246
-0.00224986930749268
-0.00263089816917542
-0.00285122310684524
-0.00306657366400194
-0.00332102594641656
-0.00422077640795729
-0.00613547834491503
-0.0108583509736416
-0.0213976203883354
-0.036351906310036
-0.0267981273256637
-0.0100392108404455
-0.0170213999824951
-0.00215369511998097
-0.00495172753088621
-0.00349678413700565
0.000156568457707761
-0.000486949540660863
-9.6624311720903e-05
-8.45294600977944e-06
-3.12319648646452e-06
-2.58288295484894e-06
-3.48814789817487e-06
-5.30710974329224e-06
-8.15913953412458e-06
-1.25211981640544e-05
-1.93434851660038e-05
-3.25400760213739e-05
-5.11195286343034e-05
-6.92747344064174e-05
-7.82022745356211e-05
-7.15398714695599e-05
-4.50005547855016e-05
-1.030042462525e-05
6.87719629960498e-06
5.09338055560451e-06
-4.88403393751754e-07
-1.09821982671464e-05
-2.5873390676336e-05
-4.47805087031323e-05
-6.69723424441566e-05
-9.19339920969511e-05
-0.000118667024213428
-0.000145942435458317
-0.000172635275079485
-0.000197925794458924
-0.000221381421504295
-0.000242837720665823
-0.000262329891850601
-0.000279982369047809
-0.000295966233427527
-0.0003104537512517
-0.000323606805096043
-0.000335566333628073
-0.000346453637093683
-0.000356371507153613
-0.000365407576949012
-0.000373637953486552
-0.000381132540788105
-0.000387956913080483
-0.000394103052399492
-0.000399833123969501
-0.000423129513504024
-0.00042701071618849
-0.00043079794885214
-0.000434029049934999
-0.000436548375726559
-0.00043830187294348
-0.000439312364710661
-0.0004396133139497
-0.000439237191286711
-0.000438215966260914
-0.000436580334547881
-0.000434359586132957
-0.000431581209680345
-0.000428270318871118
-0.000424449254284879
-0.000420137230492968
-0.000415349880224587
-0.000410098534816606
-0.000404389512811969
-0.000398223383295809
-0.000391593863282621
-0.000384486432503529
-0.000376876596222648
-0.000368727618902459
-0.000359987519226754
-0.0003505854063019
-0.000340427071545173
-0.000329390068362255
-0.000317318846013313
-0.000304020833984462
-0.000289264443608169
-0.000272779884208123
-0.000254263092950584
-0.000233382317950893
-0.000209790015987306
-0.000183145361679525
-0.0001531602283887
-0.000119680132325274
-8.28196877924358e-05
-4.31689944514537e-05
-2.09620603507507e-06
3.78794714936919e-05
7.2675862877011e-05
9.65540574558228e-05
0.00010265577786551
8.57133254845601e-05
4.61912024224128e-05
-1.42966464542036e-06
-8.57172581412713e-05
-0.000208581583459753
-0.00021099589251854
-0.000283710664710604
-0.000487206177121847
-0.000759268149142326
-0.0010903162324353
-0.00146904027010322
-0.00188326276169835
-0.00232314121562759
-0.00276645222873771
-0.00322329788570026
-0.00350555855249362
-0.00384448041076797
-0.00430321672385647
-0.00547726177992708
-0.00769275508282098
-0.0122459955746436
-0.0206465336612802
-0.0277969515322147
-0.0205521999744196
-0.00767235441749744
-0.0229723337917215
-0.00519234128005689
-0.00470804757231392
-0.00488132065864878
0.000888785059312437
-0.000647767155814392
-0.000164622346484581
-1.38516653308162e-05
-5.51247560560254e-06
-5.35618167073372e-06
-7.29425277569333e-06
-1.0972584586664e-05
-1.67286989581451e-05
-2.54042434684054e-05
-3.82700002177645e-05
-5.84159860874185e-05
-8.31929500115638e-05
-0.000102094204273695
-0.000105798215869121
-9.17765280892021e-05
-6.09519480024057e-05
-1.18840089285938e-05
1.39237302653378e-05
6.69813283479552e-06
-1.5359287631492e-06
-1.58499621437816e-05
-3.58150429233901e-05
-6.30172397584448e-05
-9.6524169188358e-05
-0.000134446510376652
-0.000173911776364203
-0.0002125121965164
-0.000248622482357984
-0.000281415598266819
-0.000310661698668534
-0.000336469275600294
-0.000359135687742109
-0.00037901124471623
-0.000396450384155994
-0.000411770211121779
-0.000425245276191039
-0.000437103691817906
-0.000447534513051871
-0.000456693872825694
-0.000464712231193855
-0.000471700561899016
-0.000477759160323192
-0.000483002512933753
-0.000487319364582106
-0.000505669527734966
-0.000507418541139705
-0.000508687877506788
-0.000509498957241887
-0.0005096415713524
-0.000509056646233399
-0.000507742746299783
-0.000505734121096622
-0.000503071502794881
-0.000499794164211022
-0.000495940235350348
-0.000491545869328139
-0.000486645032379148
-0.000481269033404818
-0.000475445979474858
-0.000469200350198352
-0.000462552636012897
-0.000455518874888178
-0.000448109965032783
-0.000440330974684136
-0.000432180389867853
-0.000423649070705983
-0.000414718899988518
-0.000405361103946184
-0.000395534037795506
-0.000385180287347178
-0.000374223088764024
-0.00036256200036525
-0.000350068007741912
-0.000336578589419121
-0.00032189364976962
-0.000305773311737167
-0.000287938623896967
-0.000268075588837712
-0.000245841420588779
-0.000220875883147453
-0.000192821288062931
-0.000161365376284365
-0.000126316916202408
-8.77344567321087e-05
-4.61203926723846e-05
-2.70867449493953e-06
4.01978446946615e-05
7.8861089807149e-05
0.000108156019266029
0.000122210251959772
0.00011734470430474
9.48165799584373e-05
6.50580496484543e-05
-2.57860062014233e-05
-0.000211536829739853
-0.00029381883748323
-0.000425921623819421
-0.000678464393789002
-0.0009888193507384
-0.00134072188734939
-0.00171986063582112
-0.0021140373831503
-0.00251890163121712
-0.0030006304743289
-0.00339507396743121
-0.00368360646709951
-0.00404349009869886
-0.0045561157193165
-0.00571865766163241
-0.00775838586134913
-0.0114764732987832
-0.0176147497710124
-0.0210040161856155
-0.016288576101475
-0.00908471071785051
-0.0252444797597375
-0.00870518448250425
-0.00401699602248678
-0.00559856650310314
0.00140730119824145
-0.000623953034231259
-0.000212400995564646
-1.5555447158698e-05
-7.61151259632738e-06
-9.53271924411853e-06
-1.33254425791571e-05
-1.97327584055795e-05
-2.95191385450003e-05
-4.36769252415001e-05
-6.30076549861158e-05
-8.72955610316049e-05
-0.000111805954410685
-0.000123509038129479
-0.000116959346254335
-9.49144466284686e-05
-6.02639477163698e-05
-8.29564781326006e-06
1.84666859034355e-05
8.20317008105028e-06
-2.76728647013068e-06
-2.41345687453552e-05
-5.50326544536754e-05
-9.64087118727924e-05
-0.000144266402225162
-0.000194949921730681
-0.000244710613963335
-0.000291145406348906
-0.000332868063486837
-0.000369456313540526
-0.000401068092348829
-0.000428157781862934
-0.000451291894487405
-0.000471026767217669
-0.000487867959789314
-0.000502243987945452
-0.000514510279060232
-0.000524954030337862
-0.000533807499508741
-0.000541259095226635
-0.000547463975256975
-0.000552551690597585
-0.000556634392680855
-0.000559896930339138
-0.000569229421633761
-0.00057461242562112
-0.000573908439666722
-0.000572985484024268
-0.000571470649885291
-0.000569261881113974
-0.000566343861540913
-0.000562737350412355
-0.000558482732209512
-0.00055362444838293
-0.000548205455292952
-0.000542267201441949
-0.000535848786174485
-0.000528986653654857
-0.000521714066372945
-0.000514060593113636
-0.000506051652320905
-0.000497708132824935
-0.000489045931276526
-0.000480075303420414
-0.00047080019661066
-0.000461217492897693
-0.000451316040655796
-0.000441075361052609
-0.000430464058452803
-0.000419437703309346
-0.000407936088251818
-0.000395879786443255
-0.000383165946200143
-0.000369663438153352
-0.000355207813589125
-0.000339596980771624
-0.000322588606214986
-0.000303900504476934
-0.000283214623451903
-0.000260182908444982
-0.00023443797259077
-0.000205610103250407
-0.000173365797132113
-0.000137475931028061
-9.79335275926613e-05
-5.51296778343397e-05
-1.0115766599369e-05
3.51012959829304e-05
7.72357327422172e-05
0.000111838515156075
0.000133845689212444
0.000140250665352645
0.00013119813867467
0.000111164334218668
7.61215657327017e-06
-0.000230923454974074
-0.000371885667282478
-0.000546298395468621
-0.000829009932616584
-0.00115512963162182
-0.00150525959039148
-0.0018648549103938
-0.00222266914030057
-0.00258191184552794
-0.00311809534532251
-0.00339852992183946
-0.00365825024372671
-0.00398378555870604
-0.0044525119823599
-0.00545983679027541
-0.00715466583945938
-0.0100573553774606
-0.0145395809212358
-0.0162030634721576
-0.0132091937526298
-0.0113126020846934
-0.025242921237592
-0.0123244680921747
-0.00193209772888091
-0.00585151545672308
0.00144196241163644
-0.000316278462470126
-0.000174971022562735
-9.43318089612274e-07
-6.60757016674205e-06
-1.4667008557851e-05
-2.16166654886282e-05
-3.13651684802846e-05
-4.55102950715384e-05
-6.46587207987997e-05
-8.81244847779318e-05
-0.000111330821800227
-0.000129096481030447
-0.0001299761972195
-0.000113629244911103
-8.55423489555666e-05
-4.92360958358246e-05
-6.14461855040045e-07
2.00617117648206e-05
7.08150471003364e-06
-1.07770487775524e-05
-4.49022669347507e-05
-9.00290354474627e-05
-0.000144984187511753
-0.000204029086808515
-0.000263548075221852
-0.000319673289860621
-0.000370294061900086
-0.000414414496207549
-0.000452095231918836
-0.000483880569404449
-0.000510518635197822
-0.000532773352947687
-0.000551336557378807
-0.00056680389583246
-0.000579666171642602
-0.000590321075434211
-0.0005990848770422
-0.000606209492049766
-0.000611897013416249
-0.000616312495583422
-0.000619591946478519
-0.000621831664520222
-0.000622221413891714
-0.000633488480712465
-0.000631317572150281
-0.000629100473899782
-0.000626444748234877
-0.000623146198934119
-0.000619156116737398
-0.000614481737860277
-0.00060915465495072
-0.000603218797083048
-0.000596720621378919
-0.00058970521791996
-0.00058221594452915
-0.000574293597276907
-0.000565976017868392
-0.000557297527691837
-0.000548288439896966
-0.000538974577314823
-0.00052937688006255
-0.000519510953841169
-0.000509386453227285
-0.000499006439900986
-0.000488366635616083
-0.000477454530476026
-0.000466248155556221
-0.000454714597756524
-0.00044280799821615
-0.000430466969709822
-0.000417611310769628
-0.000404137925468052
-0.000389915997168539
-0.000374781788849405
-0.00035853397582332
-0.000340930510748365
-0.000321688518372722
-0.000300488114840943
-0.000276977781614198
-0.000250784282806148
-0.000221526470721479
-0.000188848932917674
-0.000152482167885725
-0.000112347959110507
-6.87168687292035e-05
-2.24434947209575e-05
2.47723914857786e-05
7.00895962414827e-05
0.000109638490411751
0.000138876790134214
0.000154763942966076
0.000155500451909504
0.00013978420720603
2.32955063502966e-05
-0.000254730208691546
-0.000438473328962096
-0.000643006863880222
-0.000943609549721768
-0.00127390855399792
-0.00161373855596887
-0.00194902013297426
-0.00227007753481958
-0.00265589335814725
-0.00312920566743459
-0.00334192869682235
-0.00356393913272017
-0.00383904589809171
-0.00422990240441979
-0.00505027615554689
-0.00639325453514303
-0.00863324937971001
-0.0119107482838439
-0.0126820282193108
-0.0108594212179198
-0.0131628184501703
-0.0244227956259732
-0.0158583888067185
0.00191897038187896
-0.00611265542419521
0.00155293290282319
0.000322614839957399
-6.84281180829257e-06
5.18186861573205e-05
3.29823377463931e-06
-1.9138420844863e-05
-3.13170308531169e-05
-4.44744379158949e-05
-6.20791510500165e-05
-8.40196553828644e-05
-0.000107877021557708
-0.000126020646993806
-0.000135122153462878
-0.00012679830995745
-0.000103724182395007
-7.1825123329976e-05
-3.55741019834285e-05
7.12639393391502e-06
1.634860628027e-05
-1.42210918039965e-06
-3.07091010214767e-05
-7.89248941447761e-05
-0.000135809376004577
-0.000200603055131907
-0.000267320429448685
-0.000332409671749794
-0.000391872906527115
-0.000444079834497378
-0.000488562993715482
-0.000525844735864546
-0.000556765368744107
-0.000582259345432727
-0.000603197768539575
-0.000620338856030989
-0.000634319057706389
-0.00064565681597824
-0.000654767894207774
-0.000661980393704456
-0.000667553279899417
-0.000671692874585598
-0.000674567059671614
-0.000676316250611176
-0.000677150057954642
-0.000683543986754438
-0.000683179288612841
-0.000680016812107489
-0.000676554958119185
-0.000672549737144535
-0.00066788520341315
-0.000662541946705319
-0.000656539725999887
-0.000649915795769202
-0.000642715997167783
-0.000634987754396743
-0.00062677727949582
-0.000618128925474314
-0.000609084367722507
-0.000599682145407355
-0.00058995706535202
-0.000579939723510511
-0.000569656005223113
-0.000559126690205316
-0.000548367020108906
-0.000537386099311998
-0.000526186283156356
-0.000514762455274145
-0.000503101206787696
-0.000491179674571455
-0.000478964169020574
-0.000466408293669752
-0.000453450514747615
-0.00044001103571508
-0.000425987834637145
-0.000411251847123369
-0.00039564156892603
-0.000378957987217461
-0.000360960802593579
-0.000341367680526305
-0.000319857821374003
-0.000296076750488052
-0.000269645478159439
-0.00024017105658174
-0.000207275203045471
-0.000170646621109093
-0.000130133925006185
-8.58865510481499e-05
-3.85650999077562e-05
1.04203901927819e-05
5.8624795592542e-05
0.000102628711885568
0.000138161115537721
0.000161708777607851
0.000169310366227211
0.000154801844918605
2.76545972998461e-05
-0.000277671485462602
-0.000493046580526567
-0.000719507061952235
-0.0010301229891012
-0.00135847543153121
-0.0016848868877486
-0.00199580510139083
-0.0022834156371131
-0.00275220442555703
-0.00308125235878058
-0.00326299441787599
-0.00344776566589314
-0.00367100287253173
-0.00397747679528902
-0.00461979866303775
-0.00564940873166371
-0.00735636231952285
-0.00970687105620386
-0.00994968772597754
-0.00903166152207948
-0.0145445500242093
-0.023375320348782
-0.0189950552904634
0.00684504242436396
-0.0064590910727477
0.0013831201894558
0.00140801456822548
0.000268824208631226
0.000164406401477507
3.12417178414312e-05
-1.97359624623697e-05
-4.05406415413017e-05
-5.6842236582101e-05
-7.63226166357954e-05
-9.8643932759306e-05
-0.000120284778449072
-0.00013237560281946
-0.000134651252347388
-0.000120384951492721
-9.32235233629741e-05
-5.90829611684383e-05
-2.48331515709159e-05
5.08418639495782e-06
5.87745279662387e-06
-1.97613792248733e-05
-6.15769992097225e-05
-0.00012086096331007
-0.000185919658881107
-0.000257797959142986
-0.000329667538600282
-0.000397779823149435
-0.000458401640772222
-0.000510574295748463
-0.000554349465506878
-0.000590579547067832
-0.000620277468101261
-0.000644465711642667
-0.000664057179869738
-0.000679833190083014
-0.000692443878303755
-0.000702417947577063
-0.00071017813446737
-0.000716056857264603
-0.000720314799688098
-0.000723158526749885
-0.000724755404139035
-0.000725231974944099
-0.000724209334028667
-0.000730674071052456
-0.000726806073507974
-0.000722791433214848
-0.000718340147727228
-0.000713296066819851
-0.000707592863288074
-0.000701228309602995
-0.00069422922879178
-0.000686635718836251
-0.000678494351042337
-0.00066985273982688
-0.000660757446332967
-0.000651253120466468
-0.000641381686500439
-0.000631181844105127
-0.000620688446439522
-0.000609932010961606
-0.000598938209599824
-0.000587727486231195
-0.000576314651119077
-0.000564708277791959
-0.000552910126425944
-0.000540914460365287
-0.000528707286587636
-0.00051626525271111
-0.0005035543940526
-0.000490528373924675
-0.000477126188278527
-0.000463269201329503
-0.000448857291972105
-0.000433764033826296
-0.000417831073424849
-0.000400862628387296
-0.000382620989913124
-0.000362825002065514
-0.000341153340484996
-0.000317248633196303
-0.000290725948076037
-0.000261180161472949
-0.000228209677293889
-0.000191461424168558
-0.000150711941372053
-0.000105994425505455
-5.77874175510126e-05
-7.24098402829053e-06
4.35350648828996e-05
9.1449924095376e-05
0.00013231839872018
0.000161925398580253
0.000174252998914261
0.000159360669427883
2.4700064819624e-05
-0.000297655835387001
-0.000536723294833656
-0.000779450888181596
-0.00109480075406529
-0.00141768372191787
-0.00172950452679955
-0.00201720474373889
-0.00227543132517874
-0.00284581417816696
-0.00302072012710245
-0.00317396682110305
-0.00332419630503919
-0.0034978503360754
-0.00372191968854178
-0.00420372668268054
-0.00496136335357041
-0.00622508595442593
-0.00782006916562716
-0.00771745351012019
-0.0076096113684994
-0.0155366008354869
-0.0223648031437125
-0.0214914342619744
0.0113912000081344
-0.00726618223662935
0.000497524791884709
0.00282054161688759
0.000592894978712356
0.000340697123638633
8.75145394269655e-05
-1.18228787885064e-05
-4.67487610630797e-05
-6.64179177823851e-05
-8.66287478128248e-05
-0.000108065825861076
-0.00012687831755238
-0.000133729362097583
-0.000132010905736068
-0.000114521723594219
-8.4976442696723e-05
-4.9718250119528e-05
-1.91786666472776e-05
-6.33293778410686e-06
-1.16131095274416e-05
-4.6853880201486e-05
-9.89788819833907e-05
-0.000165719133016258
-0.000236881174195995
-0.000313957772637197
-0.000388878749057482
-0.000458064953488743
-0.000518455148258956
-0.000569731084147567
-0.000612336071038724
-0.000647307263966488