/*--------------------------------*- C++ -*----------------------------------*\
  =========                 |
  \\      /  F ield         | OpenFOAM: The Open Source CFD Toolbox
   \\    /   O peration     | Website:  https://openfoam.org
    \\  /    A nd           | Version:  7
     \\/     M anipulation  |
\*---------------------------------------------------------------------------*/
FoamFile
{
    version     2.0;
    format      ascii;
    class       volScalarField;
    location    "20000";
    object      omega;
}
// * * * * * * * * * * * * * * * * * * * * * * * * * * * * * * * * * * * * * //

dimensions      [0 0 -1 0 0 0 0];

internalField   nonuniform List<scalar> 
15600
(
3735.07243485347
3937.5275844853
5584.05489093926
7932.35351536222
8847.88174043187
8641.32489963319
7848.16629500979
6787.93389589849
5752.26913548714
4944.43821286639
4318.40874818998
3827.0431900656
3436.85413074173
3094.49303959232
2744.73975392559
2390.40269467855
2035.35730576208
1684.76258531019
1373.93193727997
1125.16971686307
959.004537117017
919.405897884657
934.19261183322
934.192611833217
934.192611833192
934.192611833211
934.192611833121
934.192611833212
934.192611833093
934.192611833213
934.192611833178
934.192611833207
934.192611833218
934.192611833225
934.192611833117
934.192611833225
934.192611833219
934.192611833192
934.192611833167
934.192611833205
934.192611833191
934.192611833199
934.192611833093
934.192611833187
934.192611833165
934.192611833178
934.192611833207
934.192611833218
934.192611833238
934.192611833159
934.192611833223
934.192611833167
934.192611833192
934.192611833168
934.192611833166
934.19261183321
934.192611833193
934.192611833218
934.192611833193
934.192611833218
934.192611833278
934.192611833157
934.192611833217
934.192611833241
934.192611833092
934.192611833189
934.192611833152
934.192611833151
934.192611833141
934.192611833242
934.19261183317
934.192611833239
934.19261183319
934.19261183319
934.192611833224
934.19261183319
934.192611833142
934.192611833137
934.1926118332
934.19261183318
934.192611833167
934.192611833164
934.19261183322
934.192611833216
934.192611833193
934.192611833229
934.192611833177
934.192611833193
934.192611833162
934.192611833165
934.192611833167
934.192611833154
934.192611833221
934.192611833169
934.192611833194
934.192611833249
934.192611833218
934.192611833202
919.566058124044
958.277948278914
1123.77981507093
1372.07845237122
1682.5157160649
2032.97105418758
2387.97439303963
2742.28097525485
3092.04467447941
3434.3217190305
3823.92191243704
4314.47622197891
4939.41931983094
5745.76636465533
6780.01178162389
7840.97347207844
8636.5293590555
8848.25231055104
7942.08488339299
5599.89633926111
3941.79421563946
3734.99690571643
629.899703478411
666.297191875469
934.829777319617
1321.75556650994
1481.85543720344
1454.15192118945
1324.80200934023
1148.59208215379
974.357776362551
837.312865266082
731.012057769372
647.548691584033
581.349318957973
523.621518619991
464.90219412356
405.367833099851
345.691696254693
286.645666266824
234.080599758875
191.899959898629
163.546545951097
156.351763442995
158.081599450397
157.983309858222
158.135758578394
158.299575725981
158.442605733655
158.555441661062
158.630490243521
158.674528362931
158.695637777602
158.703016591088
158.702945137021
158.699602457204
158.695082717683
158.690325127212
158.685516416653
158.680499656013
158.674947036068
158.668485818359
158.660753696403
158.651434391594
158.640275100842
158.627090956596
158.611760920552
158.594227350051
158.574481358677
158.552539497106
158.528431569488
158.502207385766
158.473943475853
158.443748298469
158.411795734295
158.378303220929
158.343467415311
158.307453764939
158.270467692396
158.232708118591
158.194372277073
158.155654531169
158.116744250715
158.077825203635
158.039073365133
158.000655527559
157.962728650595
157.925439940564
157.888926057056
157.853312324637
157.818713517174
157.785233962458
157.752967901294
157.722000195454
157.692407949105
157.664261774648
157.637628402286
157.612574308833
157.589170787046
157.56750089403
157.547668533864
157.529809121059
157.514100662294
157.500772219099
157.490112423308
157.482467419058
157.478248314327
157.477925179625
157.482034355678
157.491124459099
157.505768852204
157.526333638777
157.553086818123
157.585229773188
157.621192317802
157.653831935692
157.669140780777
157.621837165783
157.457111993223
157.109695650778
155.022164587831
163.227981395932
192.199934510897
234.655323811506
287.279497366239
346.160705753009
405.438454106963
464.490879893207
522.681244780479
579.926127595312
645.692568677408
728.864214674474
834.854461184881
971.647396303217
1145.40057767987
1321.38262848243
1450.02460927005
1477.31482575248
1309.67481627593
927.316322054925
692.343232692898
651.46345536142
217.152901386975
228.980309112337
313.547232450013
431.612797840454
483.906730740528
477.869525480596
436.80797598522
379.529961151582
322.340999409355
277.017172762483
241.807003341354
214.1261406653
192.127653390487
172.961818075097
153.504454237018
133.760282661761
113.999302340751
94.5270150114826
77.2741809009351
63.5347914813419
54.3177379976881
52.0279629805008
52.4430045298003
52.5249860844726
52.8045178580334
53.0912959286819
53.3401202648727
53.5287463545054
53.6487201030878
53.7112589991886
53.7315474652502
53.725013450614
53.7025260911786
53.6712229180815
53.6350072584257
53.595899032055
53.5547363818028
53.5117716206774
53.4669522795422
53.4201134251318
53.3710713978482
53.3196820148401
53.2658681899992
53.2096266134212
53.1510222006724
53.0901820773421
53.027271927863
52.9624696103048
52.8959579130895
52.8279329009957
52.7586291980656
52.6883715841079
52.6177550839862
52.5469592036198
52.4760860645885
52.4054389312743
52.3352832753244
52.2658666160281
52.1974230774279
52.1301711077722
52.0643127271142
52.0000340449069
51.9375040593124
51.8768746800189
51.8182815370539
51.761845241598
51.7076715733082
51.6558519479819
51.6064654668307
51.5595800080995
51.5152537096652
51.4735369445471
51.4344752797165
51.3981122481431
51.3644940014415
51.333675463939
51.3057286023381
51.2807533403618
51.258891212242
51.2403407246462
51.2253726640113
51.214341895386
51.2076980295134
51.2059848689429
51.2098498373621
51.2200354309324
51.2373750879717
51.2627077200379
51.2968298079014
51.3401382964193
51.3925312051573
51.4520143896315
51.514253145681
51.5660519233973
51.5829434783546
51.4969530898935
51.2221586442926
50.6613504255025
50.063252505457
54.0061501210622
64.2332484628758
78.3922385883842
95.6952666097813
114.822953316398
133.906527722
152.859646751112
171.476625102804
189.913705142857
211.381001196979
238.78303874546
273.777798386917
319.024777843894
375.829879384576
432.607729225917
472.3133250649
476.692743371206
410.759578345217
289.590127708664
247.284374847465
241.105635392857
113.836126687265
117.327579464724
151.836126153632
196.561271718242
217.99990540069
217.324365818891
199.604813253493
173.937652674844
148.050176505118
127.339510811867
111.192705041783
98.4528521383353
88.2571226848088
79.3274442318569
70.2601852478213
61.0527126030011
51.8770892774564
42.9397826391331
35.1465572888964
29.0801176729353
25.0991492821823
24.3002378872949
24.5361020585726
24.770586411379
25.1781794604852
25.5702607114185
25.8821306841607
26.0812429257627
26.1669204772961
26.1645057715804
26.1033753690518
26.0090861287912
25.8987201465786
25.7827720584724
25.6667913760743
25.5535018183842
25.4439470258591
25.3383397173842
25.2364718609753
25.1379802889634
25.0424733689937
24.9496040013149
24.8590982626989
24.7707592505734
24.6844578567964
24.6001212956346
24.5177086609996
24.4371941906066
24.3585751717963
24.2818875046819
24.2072765237497
24.135170483109
24.0651651828541
23.9972352254222
23.9313983370062
23.8677155637269
23.8062222376021
23.7469478491306
23.6899150766215
23.6351390670961
23.582627781984
23.5323828919369
23.4843992452933
23.4386654698904
23.3951649487174
23.3538768276022
23.3147760760546
23.2778339184288
23.2430192931082
23.2102993516802
23.1796403450428
23.1510088739284
23.1243738348766
23.0997082742855
23.0769929351679
23.0562211301837
23.0374056079505
23.0205879291584
23.0058504604815
22.9933301880323
22.9832330463984
22.975846488237
22.9715523592889
22.9708338240706
22.9742931427867
22.9826574434705
22.9967867286739
23.0176137791129
23.0460906717768
23.0828500863469
23.1279479318891
23.1793846343803
23.2318987696606
23.2703612058003
23.2661438239837
23.1493774594211
22.8414154598863
22.3208149879508
22.2196196558333
24.8495104242608
29.9013622900565
36.3677045654024
44.1085497380676
52.5143356593479
60.791271888877
68.9771632421906
76.9874929107476
85.014874343892
94.5669327156414
106.950715851615
122.8412404473
143.454836420155
168.901384958099
193.831203320723
209.813255573684
208.257638691611
170.475229634134
116.975706139817
116.718420773146
129.597859058566
73.3928938731277
76.9002420975501
92.6976503428979
108.416439088803
116.881888154802
118.193061130941
109.370848869158
95.7009936903825
81.7356628935257
70.4248565831146
61.5480206215026
54.4935616447067
48.7699685324675
43.6938867371778
38.5282870446453
33.2860172943201
28.1082736664416
23.1710214639354
18.9928660148318
15.8774704268256
13.9570951276188
13.8394847084842
14.1433261654234
14.5289706560813
15.0402127052464
15.4690474493284
15.7374800357067
15.8284321184319
15.7749975307221
15.6324321460374
15.4477709265416
15.2529538961839
15.0650250347348
14.8917611745352
14.7353783149239
14.5955127732296
14.4706160324981
14.3588162496513
14.2582515408487
14.167249976514
14.0843740607477
14.0084282712897
13.9384353863048
13.8736037181503
13.8132924303591
13.7569816949262
13.7042407961057
13.6547113695927
13.6081177579278
13.5642820982684
13.5231898305655
13.4842906625306
13.4472688317025
13.4120240215663
13.3784855155679
13.3465572820557
13.3161530903898
13.287194746075
13.2596107145434
13.2333344070934
13.2083034875688
13.1844593771631
13.1617459971803
13.1401094471261
13.1194978837955
13.0998613673698
13.081151154481
13.0633193793854
13.0463193298882
13.0301050514685
13.0146312843083
12.999853631279
12.9857291256713
12.9722167747224
12.959279268862
12.9468855855903
12.9350150128154
12.9236629787346
12.9128487908274
12.9026248241063
12.8930864316313
12.8843814785276
12.8767210974621
12.8703888232032
12.8657594531845
12.8633133386539
12.8636545741844
12.867487800569
12.875590605564
12.8885802517829
12.906646581593
12.9283319104661
12.9490927444721
12.9558708076105
12.9232600819984
12.7958734592535
12.5204272379589
12.1341234449618
12.2089938300935
13.9972216032205
16.8770107863772
20.3370049810312
24.3953790122253
28.7169610110403
32.917956086276
37.0582480966189
41.0994255666381
45.2110315206302
50.2073077979243
56.7723551066176
65.2401308367988
76.2748317937088
89.6316699518085
102.357715293572
109.427179710447
106.347389346802
83.1050354609095
57.2386550196696
61.8349889007349
80.7762110783124
50.9374479414302
57.36071257503
66.4898171582658
67.9786908537435
69.2809927514555
71.4686970022112
66.9183730983266
58.902905878521
50.559122347859
43.6885323129926
38.2350039737472
33.8457262686026
30.2061917424887
26.9162380506484
23.5621609877733
20.1766707161958
16.8903158476799
13.8610173196063
11.4122054539382
9.70256120447231
8.78533592877946
9.05377913095533
9.49433424645808
9.9993866263072
10.5294523650004
10.8721099169599
10.9788020994816
10.8898756847782
10.6869162493557
10.4442921167874
10.2064114846071
9.99384224625205
9.81206829349222
9.65991059993313
9.53347610922757
9.42846267249152
9.34087056790225
9.26732975298684
9.20507866368885
9.15191386014446
9.10608946658409
9.06623431523274
9.03127260712945
9.00035906245286
8.97282587682838
8.94814226227775
8.92588022578055
8.90569654675938
8.88733777911644
8.87064757161033
8.85523166801202
8.84070139810151
8.82699290094079
8.81403567622596
8.80176192292332
8.7900918322255
8.77896011855723
8.76830878582632
8.75808669499876
8.74824778332248
8.73875029269231
8.72955600646679
8.72062913014643
8.71193585530384
8.70344402815877
8.69512276500172
8.68694175566302
8.67887088173986
8.67088016301535
8.66293925356352
8.65501718745606
8.64708226959058
8.63910219746903
8.63104419873531
8.62287596005633
8.6145671623366
8.60609199501647
8.59743290716146
8.58858563978946
8.57956523447027
8.57041256660365
8.56120087868817
8.5520434051495
8.54310091991711
8.53459636662726
8.52682755832159
8.52018209051574
8.51512557440577
8.51217763688133
8.51174147781597
8.51384913489519
8.51720907127015
8.51787410925274
8.50523676144823
8.45903370068558
8.34032645388241
8.11977638436723
7.85896952166117
7.9858691856617
9.19993216590457
10.9804683381877
13.0406906559653
15.4164088965601
17.9045412040562
20.3055694752433
22.6689296116301
24.976631111673
27.3557422513173
30.2666745365732
34.0903913873732
39.0162436547777
45.4358886259869
53.0584090699849
60.1238844745752
63.4990066056598
60.9028504061601
47.2456854241173
34.0348259742141
36.4428171767122
54.090219606369
36.7090298372631
45.2399960466408
53.1396308192783
47.2350939006135
43.6829859025172
46.1048014503593
43.962957850787
39.0296627552167
33.7342272715165
29.2723196025469
25.66530378822
22.7032290216685
20.1735728680128
17.8366692275108
15.4625642770082
13.1036490279664
10.8831569294332
8.93416012001963
7.4527213370917
6.51015679711311
6.14455387688027
6.64128946142976
7.19951424070742
7.73869843062176
8.17018517209958
8.32894506775026
8.24481210987352
8.02082410142539
7.7557028081274
7.50736558076178
7.29711994718366
7.12771697710384
6.99411748571493
6.88969447234129
6.80815212778274
6.74434061686521
6.69417940576848
6.65454404352729
6.62303939144108
6.5978452427748
6.57757212759629
6.56116087202099
6.54780026042649
6.5368659445927
6.52787362956963
6.52044501041531
6.51428140940339
6.50915063759589
6.50488545189578
6.50124382862371
6.49790962108901
6.49477883906741
6.49183214594698
6.48902521997768
6.48631662567452
6.48366035763785
6.48102119772017
6.47836811161377
6.47567447403419
6.47291669578284
6.47007371375874
6.46712638701598
6.46405671679033
6.46084754352182
6.45748228920318
6.45394463053637
6.45021798270015
6.4462852218704
6.44212859389008
6.4377293138428
6.43306735428556
6.42812134210455
6.42286861106358
6.41728530824224
6.41134708434703
6.40503024775214
6.39831364743705
6.39118145769807
6.38362686178901
6.37565640054629
6.3672946631245
6.35858905052472
6.34961533666086
6.34048356541481
6.33134872767916
6.32241991390417
6.31396908307169
6.30631920607991
6.29981368076632
6.29467280370081
6.29074661006847
6.2867497785539
6.27911619126554
6.25912901943852
6.21095343051679
6.10805664159367
5.93739612632981
5.76622564918219
5.90752999103804
6.77064039659231
7.96425467809393
9.31549883578421
10.8507007645334
12.4381384934284
13.9667404532891
15.4718851640372
16.9459898604469
18.4809839674643
20.3497902206185
22.7771130842473
25.8765248985963
29.8815781508205
34.5444549526328
38.7759044958842
40.6265731373467
38.9153288396593
30.7924056396115
23.3562553768292
23.9218585689718
38.345062148825
27.430797818849
36.4603215258414
45.3296747955018
36.0990017665784
28.8916832115487
30.9243844043425
30.2765365443178
27.2109045288751
23.7368449864156
20.7119872658843
18.1975344655729
16.0729281525705
14.1957795324151
12.431263409017
10.6651386191579
8.96359887808692
7.43419682449085
6.17248757483439
5.28357180627341
4.79353164318585
4.75251977394309
5.37055497828567
5.97298527509972
6.44181644065569
6.69556713513468
6.66215716473991
6.45131418601555
6.18465325007351
5.93645417804319
5.73283452289306
5.57495308650879
5.45574722276259
5.36671574154328
5.30057837155212
5.25156329575682
5.21535684123498
5.18873258215218
5.16931108574482
5.15531668033509
5.14542754952889
5.1386509564734
5.1342406972364
5.13163199723597
5.13039483822001
5.1301989343748
5.13078877531889
5.13196530466064
5.13357923377838
5.13547036720557
5.13741031844946
5.13926759107442
5.14101471003516
5.14264213478266
5.14412292722613
5.1454335365423
5.14654888514998
5.14745114153844
5.14812473709122
5.14855679174821
5.14873611307022
5.14865287718682
5.14829818406018
5.14766352193035
5.14674057151545
5.14552102732951
5.14399634506093
5.14215736906775
5.13999414436899
5.13749584213451
5.13465046901437
5.13144472641998
5.12786396599336
5.12389226832383
5.11951260532333
5.11470746671299
5.10945987517352
5.10375498179471
5.09758236062502
5.0909389685139
5.08383257443425
5.0762854046531
5.0683378533188
5.06005273808616
5.0515199322246
5.04286408942621
5.0342506219451
5.02588917014152
5.0180191216011
5.01087238609835
5.00454373047678
4.9987541667821
4.99222163031586
4.98170481424318
4.95996126525058
4.91463235945759
4.82777644902268
4.69634821549275
4.58528522596779
4.72711863790853
5.3731920191498
6.23221076142677
7.19235444925504
8.2690521047141
9.37177623258787
10.434216573684
11.481323883753
12.5114101494295
13.5925620913465
14.8977359507734
16.5697186613416
18.6803411245069
21.3710521337222
24.4436646751605
27.1888493617217
28.36733967835
27.2982869680472
22.1849854751027
17.562083993075
17.1991663836928
28.512570852443
21.3080378123142
29.5669762314786
40.0682672069473
30.0914064635469
20.2198441743801
21.2510670038308
21.5118731063262
19.6681767630537
17.3602823913986
15.2530198450367
13.4299472397021
11.8333668987704
10.3766774453384
8.99973081723679
7.66174916889657
6.42988169308663
5.38396252008979
4.57898239472109
4.06423037153527
3.85260264037714
4.00896974397518
4.66945877936657
5.23236714680377
5.55841177832299
5.62635660479256
5.45994616715403
5.20585870461974
4.95928053482832
4.75812610612209
4.6053474934926
4.49307710196919
4.41185273973243
4.35363089647828
4.31228897820732
4.28329371694258
4.26337094145273
4.25012707428539
4.24182139971149
4.23716787919745
4.23521678790907
4.23525955401742
4.23676689777955
4.23934042877845
4.24267835573564
4.24654990522248
4.25077720780384
4.25522198189556
4.25977712972893
4.26427227463549
4.26857431954299
4.27263161226602
4.27643704203422
4.27998399665198
4.28325584596087
4.28623912963133
4.28892016808202
4.29129013756569
4.29334150309295
4.29506842198459
4.29646601863954
4.29753017253448
4.29825718416076
4.29864339357891
4.29868505032415
4.29837818850617
4.29771842954356
4.29670070776602
4.29531914402821
4.29356699444543
4.29143644592728
4.28891853651705
4.28600316853426
4.28267922983705
4.27893481878829
4.27475785697265
4.27013704417628
4.26506329575502
4.25953174482485
4.25354425545479
4.24711227353742
4.24025980327796
4.23302641626805
4.22547060726903
4.21767344391449
4.20974410053576
4.20182330315594
4.19408277661525
4.18670820993748
4.17985760182475
4.17354149567015
4.16740121035895
4.16018538126293
4.14896565508579
4.12769514918849
4.08672312159448
4.01403398651525
3.91250422618484
3.84174868287101
3.97800064753778
4.48164042031432
5.1339997792105
5.85804767265728
6.66090431007053
7.47741531431903
8.26549684545937
9.0431592294866
9.8122267770269
10.6245993841411
11.5980352743887
12.8295784971957
14.367731528543
16.3005441927773
18.4696532563931
20.3851741845086
21.2267277410224
20.549226915046
17.1311108892451
14.0040699163416
13.2635811025485
22.0039961561773
17.2092977076303
23.9197358632596
36.011530075948
26.8462019511311
15.2991470908951
14.9236601985299
15.6047641865483
14.5924279180959
13.0675805917838
11.5762847197175
10.215195085911
8.97512985179988
7.81686848017398
6.73263541462575
5.72221689759798
4.84016062374574
4.13528265957049
3.63307196183159
3.3569177621502
3.32186675147862
3.59676198745638
4.2411486563694
4.70322949903394
4.86490576772287
4.78976126096251
4.56269155271878
4.32051882929517
4.11665818205392
3.96277255143753
3.85107982254858
3.77183875804968
3.71632621621147
3.67800508938894
3.65210339736788
3.63519314518253
3.6248250553099
3.61922311356822
3.61709992790832
3.61750689911663
3.61974496237963
3.62329372940565
3.62776542923548
3.63286882128373
3.63838365300321
3.64414162067722
3.65001291055072
3.65589736335955
3.66169390061802
3.66726363479671
3.67254087875333
3.67750357610742
3.68214980470938
3.68647432574501
3.69046661349908
3.69411884761379
3.69742357941669
3.70037668606156
3.70297485768996
3.70521590770378
3.70709824706425
3.70862073059897
3.70978239759202
3.71058218810985
3.71101885300024
3.71109086435107
3.71079625745884
3.71013242318139
3.70909602384108
3.70768296278073
3.70588824429463
3.70370594120105
3.70112925472747
3.69815067425469
3.69476225298008
3.69095621807684
3.68672588982122
3.68206701279744
3.67697955571401
3.67146991267663
3.66555334625311
3.65925648699076
3.65261982424178
3.64570038843204
3.63857461140691
3.63134220072062
3.62412761125793
3.61707655023791
3.61033704836238
3.60401553307417
3.59806587245573
3.59208534374079
3.58487756478733
3.5738179305278
3.55385121651844
3.51744972859825
3.45673606243883
3.37798899124232
3.33463044948215
3.46255929465809
3.86704112980993
4.38219748082133
4.95209848064095
5.578077214283
6.2115528593471
6.82446407149457
7.43023875536301
8.03274425382913
8.67256360072477
9.43523520693837
10.3901503446585
11.5721993738253
13.0375798276979
14.6580118198224
16.0770896639813
16.7283036432262
16.2885520644395
13.8875236734529
11.6193039734283
10.7781848799124
17.4640935994743
14.4112228958352
19.1993838270689
32.4976812253733
25.0490263021672
12.6908392210494
10.821521095813
11.5000903660169
11.0412306645125
10.0557565345093
8.99380815946762
7.95729273227245
6.97546743251664
6.04802864482843
5.19917039054715
4.44445623269691
3.82018621450023
3.3515974765645
3.04919359496837
2.9276041504395
3.00639138000682
3.34542940670295
3.93270004125922
4.26440515598034
4.28033375821177
4.12080763610736
3.88624655051273
3.6791539408564
3.5184517457852
3.40272877128355
3.32105873675763
3.26464767648361
3.22627797989609
3.20087310618709
3.18476619713147
3.17535943741934
3.17079649020157
3.16973331220853
3.17119389376046
3.17445864579562
3.17899692172434
3.18441381344193
3.19041518403838
3.19678018320016
3.20334168874481
3.20997171604244
3.21657089240047
3.22306246693924
3.22934302691531
3.23532219636283
3.24096657662311
3.2462656406959
3.25121845529966
3.25582074025039
3.26006569080011
3.26394873944746
3.26746595739694
3.2706157626941
3.27339715511497
3.27580992747876
3.27785428492257
3.27953072437274
3.28083982652778
3.28178203626468
3.28235759842364
3.28256649221081
3.28240830131543
3.28188205261706
3.28098616203618
3.27971842117686
3.27807590500595
3.27605497487612
3.27365137400015
3.27086041716073
3.26767730296288
3.26409772078664
3.26011874023299
3.25574005905437
3.25096564681952
3.24580570784532
3.24027881179706
3.23441402431609
3.22825298565473
3.22185205808311
3.21528453784114
3.20864324873127
3.20204048851069
3.19560242455455
3.18944896728989
3.1836492439092
3.17811916704309
3.17243649878239
3.16547598890309
3.15490263423114
3.1364931828093
3.10439642292772
3.05365848764069
2.99239887580551
2.96788120512312
3.0864050171344
3.41847424217834
3.83707763336216
4.29984653765651
4.80423006725393
5.31299637592371
5.80668189302213
6.29562709171266
6.78473184109558
7.30664882140728
7.92672702639356
8.69653327172421
9.64254255228812
10.8011892082199
12.0669959783441
13.1699263612179
13.7038598041391
13.4153116468504
11.6619956164804
9.91773710371849
9.10467958880618
14.1624984180708
12.4492817409388
15.2451663135046
29.3062417644735
23.9835049048217
11.4778731510452
8.24826018224897
8.62176548704661
8.49262588320515
7.87756059556951
7.12284389799461
6.32531742611117
5.54227409822337
4.80224259627901
4.14426805329722
3.58561120060918
3.14703631521227
2.8404864334725
2.67106035422098
2.65123445921902
2.80193101314483
3.16496593700967
3.67052297891475
3.86983894332381
3.77914705234481
3.58598074527452
3.37226641397346
3.20411872338655
3.07950104813421
2.99246261881757
2.93223750637778
2.8916572714826
2.86494412592112
2.84818343766704
2.83853603547782
2.83400234085508
2.83314596780234
2.8349252332131
2.83858058309738
2.84355091892919
2.84942169909009
2.8558842568082
2.86270856296611
2.86972176052697
2.87679275238761
2.88382071550986
2.89072656607419
2.89744504920455
2.90388157252512
2.90998298737812
2.91573081373735
2.92111922015605
2.92614721119207
2.93081130707151
2.93510705757842
2.93903185548963
2.94258384296872
2.94576287625079
2.94856928171803
2.9510039853079
2.95306823779978
2.95476351480291
2.95609134493623
2.95705313360954
2.95765011648257
2.95788331071929
2.95775340564635
2.95726063423732
2.95640474085428
2.9551849814489
2.95360006663855
2.95164819088375
2.94932715413717
2.94663457298502
2.94356821715078
2.94012660937781
2.93630988545581
2.93212097023623
2.92756709211896
2.92266155263928
2.91742560425515
2.91189027830779
2.90609811971307
2.90010489273155
2.89398125268043
2.88781434155306
2.88170656206162
2.87576849561125
2.87009817557551
2.86473716734797
2.85957653177443
2.85419120797384
2.84753622041996
2.83754768071389
2.82070423698068
2.79248541410931
2.75001682826607
2.70228067478654
2.69078893061895
2.79968075581504
3.07687022840386
3.42435938771654
3.80896047246905
4.22559669572925
4.64509565524065
5.05351836586608
5.45905998653905
5.86694254447898
6.30437649075527
6.82303445613055
7.46247861115447
8.24367554702172
9.1903653766595
10.2147362863833
11.105936815184
11.5632667015739
11.3762913954632
10.055449560385
8.64633178920066
7.91417895566815
11.6865085480319
11.0223233643828
11.9797535283177
26.4669391945896
23.2681587743591
11.0992395962551
6.71366703749197
6.61982166749147
6.6409343396021
6.27054225043942
5.73806282393701
5.12311875308995
4.49869906192008
3.91202732582139
3.40578738177071
2.99399686840519
2.68753597877409
2.49250845659226
2.41280358251646
2.45998189987073
2.65226752021688
3.00985595751168
3.42373655731354
3.50722186018529
3.35260721514528
3.1596254681051
2.9770645459921
2.84361019371674
2.74718801544791
2.68133980871472
2.63655783877225
2.60720446485827
2.58867950945494
2.57793961820024
2.57275394445395
2.57155362349669
2.57320328533968
2.57687694466963
2.5819693133301
2.58803217881105
2.59473366885807
2.6018264985065
2.6091262081492
2.61649398365976
2.62382418911665
2.63103512478118
2.63806254665432
2.64484440232417
2.65130576814531
2.65741537561788
2.66316194809963
2.66854167018974
2.67355335195564
2.67819421856783
2.68246137484084
2.68635345831301
2.68986988886347
2.69301138734372
2.69577909267532
2.69817463110977
2.70019991952363
2.70185707954125
2.70314829161562
2.70407564889967
2.70464112355715
2.704846530299
2.70469343218007
2.70418303547269
2.70331617379852
2.70209331882522
2.70051454953957
2.69857960029766
2.69628800108322
2.69363930264388
2.69063342730223
2.68727125748509
2.68355546523977
2.67949162243188
2.67508960321195
2.67036519188347
2.66534174766732
2.66005177590432
2.6545383658736
2.64885652129552
2.64307437951847
2.63727402624673
2.63154937801887
2.62599810309395
2.62070077295466
2.61567838647318
2.6108065559075
2.60566868474999
2.59930409121417
2.58989896155021
2.57452548650814
2.54972245593117
2.51409574643719
2.47687432338939
2.47436049581144
2.57383593933332
2.80821633547087
3.10142774656784
3.4267907520637
3.77765811691878
4.13074413675453
4.47579318042584
4.81942905303009
5.16682824826726
5.5414317754499
5.98504112596664
6.52888076846915
7.19013231724399
7.98418645591318
8.83727937924533
9.58107695408433
9.98640105639043
9.8708857820962
8.84908206303783
7.66216429845266
7.02528181629828
9.78924153867654
9.93349843469866
9.36017831932715
23.9651746942297
22.6967942139725
11.2180871646451
5.87847868325011
5.2527457219966
5.29293379314818
5.07196528523824
4.69855319179931
4.22590325355854
3.72934927066405
3.26642166495612
2.87805473562357
2.57480725739618
2.36239094827455
2.24492501705346
2.22621193980503
2.31618082434542
2.5273673638676
2.85957523801897
3.18323360564982
3.17672652527506
2.99424535930497
2.81930623703154
2.66843709955938
2.56334839057311
2.48851883814448
2.43841663487323
2.40499028443556
2.3838397748813
2.37128372009669
2.36492236438394
2.36297422281567
2.36418460424307
2.36763828741045
2.37266685019035
2.37877797818699
2.38560626140471
2.39288059215589
2.40039886930983
2.40801020178254
2.4156008430274
2.42308386721265
2.43039150660307
2.43747056245169
2.44426070975647
2.45070851382731
2.45679443788722
2.46251091331943
2.46785508712804
2.47282568718189
2.47742057148601
2.48163792480946
2.48547722677059
2.48893873411884
2.49202373306048
2.49473390611145
2.49707136090536
2.49903849132346
2.50063790245357
2.50187228335327
2.50274428209281
2.50325648187087
2.50341137375727
2.50321127365684
2.50265823382357
2.50175403944658
2.50050022721902
2.49889807388512
2.49694865738629
2.49465300986123
2.49201235081828
2.48902844284753
2.48570416681741
2.48204431858008
2.47805665782649
2.4737532115259
2.46915174222301
2.46427722967295
2.45916321882658
2.45385299578048
2.44840059315111
2.44287162969873
2.43734351562522
2.43190266931204
2.42663580951044
2.42160935565101
2.41682895834926
2.41216164748547
2.4072068177906
2.40108854315283
2.39222098160321
2.37817837581325
2.35634310362649
2.32636843351141
2.29734424020021
2.30093275048036
2.39142895897114
2.59164514919924
2.84224734623658
3.12135768661246
3.42142770536094
3.72356806593462
4.02004831663975
4.31625106399854
4.61726135698108
4.94371759263526
5.33001673599992
5.80146014414608
6.37253080511353
7.05307054774607
7.7807677007533
8.41893727667416
8.78794633476621
8.72314410586599
7.87930024456124
6.8588911492846
6.33238507516004
8.31390024413597
9.0549102167313
7.33730347074088
21.6458467694403
22.1485548164123
11.6267149545617
5.5236661792972
4.34473874107803
4.31520970207382
4.17394634789222
3.91044952710211
3.54900610789192
3.15510168933879
2.79028003202311
2.49213882887429
2.26890588305491
2.1239800345811
2.06096462883903
2.08343454425305
2.19865373873868
2.41212674724966
2.70747829911006
2.94967713695752
2.88097205303438
2.696174988029
2.54594687344453
2.42324864456644
2.34057721253345
2.28230902727018
2.24409881014159
2.2192418222403
2.20428187645208
2.19624670372384
2.19321295499505
2.19373547729397
2.1967927502974
2.20163403482834
2.20770874005587
2.21460943959344
2.22203313421919
2.22975469654035
2.23760631920555
2.24546265375047
2.25322905204966
2.26083284732543
2.26821677465778
2.27533549443431
2.28213325679503
2.28857369673688
2.29464382685852
2.30033817716119
2.30565446593673
2.3105914909411
2.31514768804573