/*--------------------------------*- C++ -*----------------------------------*\
  =========                 |
  \\      /  F ield         | OpenFOAM: The Open Source CFD Toolbox
   \\    /   O peration     | Website:  https://openfoam.org
    \\  /    A nd           | Version:  7
     \\/     M anipulation  |
\*---------------------------------------------------------------------------*/
FoamFile
{
    version     2.0;
    format      ascii;
    class       volScalarField;
    location    "20000";
    object      p;
}
// * * * * * * * * * * * * * * * * * * * * * * * * * * * * * * * * * * * * * //

dimensions      [0 2 -2 0 0 0 0];

internalField   nonuniform List<scalar> 
15600
(
-2.09107631017531e-09
-0.00742251791733094
0.00273301457070741
0.0188195834126681
0.0237633895395915
0.0260108441858774
0.0273620960482203
0.0281273375768879
0.0285907102070101
0.029012072425847
0.0293982398344883
0.0298108544344554
0.0302771557222882
0.0307882181426616
0.0312751955666623
0.0316650768812214
0.031882059649092
0.0318847779019132
0.0317592478277868
0.031608630426748
0.0316070416160927
0.0316613882918144
0.0318154635959389
0.0318117409796819
0.0317460542104248
0.031587538429135
0.0313864663207146
0.0311779438023187
0.0310159627735658
0.0309409243936007
0.0309855142637216
0.0311685428048732
0.0314997662397169
0.0319813992721132
0.0326113552201362
0.0333848390282482
0.0342957915670314
0.0353376084726084
0.0365036376672111
0.037787402660036
0.0391827131985499
0.0406836816357533
0.0422846971878401
0.043980380525604
0.0457655366873653
0.0476351065830444
0.049584135947421
0.0516077623244887
0.0537012045964188
0.0558597405780542
0.058078690279283
0.0603534074285208
0.0626792627022833
0.0650516350741414
0.0674659149780384
0.0699175196868862
0.0724019125194961
0.0749146134309729
0.0774512147443264
0.0800073959719885
0.0825789385892294
0.085161738675904
0.087751819664488
0.0903453433581415
0.0929386190480301
0.0955281102157724
0.0981104400626711
0.100682395433744
0.103240927848824
0.105783153064909
0.108306348635073
0.110807949548571
0.113285541413935
0.115736852246048
0.118159741860805
0.120552189366967
0.122912278864277
0.125238183889697
0.12752815159969
0.129780488737338
0.131993552513077
0.134165751580366
0.136295558155095
0.138381542722859
0.14042241992019
0.142417123523045
0.144364891520319
0.146265419572791
0.148118989090921
0.149926806501125
0.151691099524409
0.153416011207046
0.155107309320655
0.156774613321667
0.158429927292801
0.16009464184109
0.161741786100381
0.163512464938492
0.165087536987509
0.165668147574479
0.166251814491307
0.167009016149311
0.168051592239052
0.169541246528944
0.17158315076683
0.174111189424406
0.177035794249152
0.180055886156801
0.18286210824185
0.185085247684232
0.186580307905234
0.186770293614706
0.185650720503695
0.181452008817284
0.172991816996385
0.153614815664156
0.117939501772635
0.0267687129912968
-0.0840998906630866
-0.0543438409056638
1.9477783544086e-05
-0.00733984167977583
0.0022739898494034
0.0182915839836797
0.0235418085993091
0.025898120017766
0.0272986137486371
0.0280959954300522
0.0285742131965129
0.0290000696217645
0.0293875711348012
0.0297974444973073
0.0302592383634735
0.0307681143823425
0.0312588530716115
0.0316594170985248
0.0318928653758647
0.0319105825250418
0.0317913182432365
0.0316351666998363
0.0316229527386452
0.0316679095737057
0.0318204771433133
0.0318162659586484
0.0317510676945175
0.0315931018214748
0.0313928394032103
0.031185244216129
0.031024361819298
0.0309505373594887
0.0309964200973139
0.0311807498261465
0.0315132244692049
0.031996007680152
0.0326269793984132
0.0334013239292713
0.0343129726750189
0.0353553188022987
0.0365217124046655
0.0378056816735655
0.0392010423873242
0.0407019135256952
0.0423026911830401
0.043998003001304
0.045782661057778
0.0476516133706247
0.0495999128104329
0.0516227040279941
0.0537152130671872
0.0558727249602208
0.0580905664166169
0.060364097750742
0.0626886976305641
0.065059753567388
0.0674726637483049
0.0699228529570184
0.0724057920713791
0.0749170085293653
0.0774521021069727
0.080006759581987
0.0825767694659435
0.0851580346018559
0.0877465848703697
0.0903385881781624
0.0929303595585573
0.0955183678578152
0.098099241248491
0.100669771155237
0.103226913294549
0.105767787247781
0.108289674039702
0.11079001181127
0.113266389039973
0.115716536374335
0.118138316092619
0.120529709671894
0.122888803578826
0.125213773821872
0.127502870240798
0.129754402557246
0.131966731271824
0.134138268583501
0.136267490300031
0.138352970284271
0.140393425984208
0.142387793008186
0.144335309317076
0.146235667864442
0.148089142300585
0.14989692505767
0.151661216294596
0.15338611672001
0.155077310564521
0.156744270745993
0.15839873499707
0.160061883370415
0.161705484880078
0.163468271231506
0.165055071129114
0.165659939933623
0.166263135851675
0.167046181457371
0.168125566253113
0.169661889546299
0.171748786951844
0.174311453595
0.177250331377248
0.180257738413792
0.183025096246718
0.18519201942379
0.18660612548422
0.186697171778231
0.185417945483975
0.180969806866008
0.172035123949295
0.151917472689451
0.114750818969866
0.023195781948143
-0.0834314515399064
-0.05391052124523
4.24718834382828e-05
-0.00721111978190489
0.00186620960640145
0.0177703453179637
0.0233080671802597
0.0257794777255168
0.0272318276649411
0.0280626327026578
0.0285568137904711
0.0289878453781405
0.0293769696472452
0.0297843169130057
0.0302415080088967
0.0307477004576335
0.0312414748872345
0.0316521008958573
0.031901962876964
0.0319352083273955
0.0318227720176524
0.0316607167570258
0.0316373829581602
0.0316730032970303
0.0318269749133636
0.0318223887346892
0.0317578157745023
0.0316001777643032
0.0314003137622853
0.0311930841287106
0.031032780791298
0.0309597620954238
0.0310066798850905
0.0311921762691564
0.0315258568076945
0.0320097963015917
0.0326418150492905
0.0334170585666456
0.034329438580057
0.03537234014541
0.0365391130405972
0.0378232893782292
0.0392186912624741
0.0407194451717038
0.0423199552103971
0.0440148571558398
0.0457989713058658
0.0476672537910514
0.049614765283871
0.0516366580011193
0.0537281656013652
0.0558845801147767
0.0581012342713908
0.0603734980662569
0.0626967622285402
0.0650664235891861
0.0674778880147557
0.0699265870101391
0.0724079991338233
0.0749176600077203
0.0774511773831087
0.0800042457863739
0.0825726612274566
0.0851523337331491
0.08773930001273
0.0903297344244689
0.0929199580702358
0.0955064454565497
0.098085829987447
0.10065490791234
0.103210639373964
0.105750147997097
0.108270718495797
0.110769792398975
0.113244961316502
0.115693958847906
0.118114650136463
0.120505019554656
0.122863156635151
0.125187240782275
0.12747552571439
0.129726325623973
0.131938006060516
0.134108984762795
0.136237743183632
0.138322860629844
0.140363059146414
0.142357277550762
0.144304753754934
0.146205176636269
0.148058806347068
0.149866813421504
0.151631350693303
0.153356456559219
0.155047673523523
0.156714298159344
0.158367541966046
0.16002851902368
0.161668010830604
0.163417249150487
0.165007588045717
0.165638490345185
0.166264165008449
0.167075888407244
0.168194840447223
0.169780164105918
0.171913044507169
0.174509773175054
0.177461415706708
0.180454061083569
0.183181102618626
0.185290314464163
0.186622318247008
0.186611108443613
0.185167585851741
0.180460352024883
0.171046014214603
0.150198166530518
0.111764739024341
0.0206606146412545
-0.0809055646703648
-0.0529237662035054
8.27014940045923e-05
-0.0069428830223598
0.00152404195768017
0.0172684247418147
0.0230752107996096
0.0256598652555016
0.0271641344336876
0.0280284442802958
0.0285389919839873
0.0289755287593565
0.0293664464537364
0.0297714935591592
0.0302242047469779
0.0307274726900609
0.0312237635907085
0.0316439004774529
0.0319099808057932
0.0319591266594849
0.0318537338383154
0.0316852051887609
0.0316497855595939
0.0316762482510203
0.0318345352222883
0.0318297082521362
0.0317653483291688
0.0316072653446857
0.0314067824103949
0.0311989416720673
0.0310385105666089
0.030965935587833
0.0310138316222122
0.031200638501684
0.0315357691647167
0.0320211322686901
0.0326544420522358
0.0334307808910803
0.0343440315859244
0.0353875699090074
0.0365547484012067
0.0378391080100778
0.0392344827489754
0.0407350122521589
0.0423351139941176
0.0440294367245806
0.0458128133466698
0.0476802118120029
0.0496267034263059
0.0516474501090982
0.0537376943853361
0.0558927356789273
0.0581079195491772
0.06037864253526
0.0627003071674321
0.0650683087582754
0.0674780614399513
0.0699250086816269
0.0724046397633513
0.0749125002843484
0.0774442076551345
0.0799954656913179
0.0825620793278752
0.0851399670584541
0.0877251735570253
0.0903138806379228
0.0929024163641343
0.0954872616750088
0.0980650558550427
0.100632600541069
0.103186860792123
0.105724964711172
0.108244201110042
0.110742015336537
0.113216002624975
0.115663900146129
0.11808357674339
0.120473020841282
0.122830326646468
0.125153679166573
0.127441338945966
0.129691628438842
0.131902922875734
0.134073650960407
0.136202305719871
0.138287478150497
0.140327900900787
0.142322521233687
0.14427057954129
0.146171759334664
0.148026296431195
0.149835318933899
0.151600885764926
0.153326909130065
0.155018651706046
0.156685113292875
0.158336500020797
0.159993806235737
0.161627368313417
0.163355682337793
0.164936625322266
0.165598673767726
0.166249994928634
0.167093513974357
0.168254820126954
0.169890899209404
0.172069595808495
0.174698510698785
0.177660131447573
0.180635356763581
0.183320960965327
0.185372297938732
0.186622778834377
0.186508742956461
0.184899707517152
0.179931417870725
0.170046472468808
0.148518768530657
0.109066825263077
0.0192037597842566
-0.0765590248154269
-0.0510943169235013
0.000233610972641066
-0.0063841384387887
0.00125522222420855
0.0167542881877057
0.0228327393928547
0.0255348105232364
0.0270928306344699
0.0279920613390392
0.0285200062172533
0.0289625304494101
0.0293554487910183
0.0297582620968327
0.0302063688054974
0.0307062564440264
0.0312044978606279
0.031633747539322
0.0319162396702937
0.0319823413188952
0.0318850755677196
0.0317102658179468
0.0316621241133061
0.031679124277932
0.031843291057424
0.0318386368184046
0.0317739459005917
0.031614408044946
0.0314120773019046
0.0312026219665126
0.0310415623048727
0.0309694477093019
0.0310187209104242
0.031207425095135
0.0315446245980888
0.0320319590714226
0.0326669862440683
0.0334447075705152
0.0343589784078339
0.0354031751797597
0.0365706663046285
0.0378550150083023
0.0392500799121669
0.0407500254130002
0.0423492927580128
0.0440425528578793
0.0458246594513612
0.047690599456133
0.0496354607127849
0.0516544196177069
0.0537427313702984
0.0558957129465384
0.0581087519189347
0.060377257217304
0.0626966229291457
0.0650622607271633
0.0674696030574872
0.0699141108828832
0.0723912882545837
0.074896694736645
0.0774259610802235
0.0799748037662727
0.0825390397493192
0.0851145987721629
0.0876975359373541
0.0902840426791879
0.0928704559165321
0.0954532646508204
0.0980291154153452
0.100594816391553
0.103147338535558
0.105683815270094
0.108201540257923
0.110697963408754
0.113170684389557
0.115617444925317
0.118036118861509
0.12042470047865
0.122781291190397
0.125104085139914
0.127391354512177
0.129641436369652
0.131852723619036
0.134023665585462
0.136152777878249
0.138238675246139
0.140280113352962
0.142276059854524
0.144225766568143
0.146128915355052
0.147985708402105
0.149797205653002
0.151565307841264
0.153293699958653
0.15498715497867
0.156654142963608
0.158303212242516
0.159954797874438
0.161578556479974
0.163277894581414
0.164837582055341
0.165542258776221
0.16622481337269
0.167104197908426
0.168310837612547
0.169998683269217
0.172221242134109
0.174877795233481
0.177842866614472
0.180793627995413
0.183432256561642
0.185421406921567
0.186586261350214
0.186363424965226
0.184578410226342
0.179331459983333
0.168953716235515
0.14673182891599
0.106300346661596
0.0181305428956062
-0.0712684612875682
-0.0484740942845065
0.000571146210776521
-0.00543460504049529
0.00112189290617004
0.0162147750617621
0.0225733554412032
0.025402623095742
0.0270171285335196
0.0279530455609098
0.0284996444513091
0.0289487043642747
0.0293438403366148
0.0297444278068212
0.0301876617178621
0.030683438679713
0.031182630716262
0.0316199711499273
0.0319183785849395
0.0320022310866872
0.0319150740728924
0.0317359263008482
0.0316765484801269
0.0316837829084635
0.0318538113485225
0.0318499898356745
0.0317840193035502
0.0316214212230081
0.0314156519404872
0.0312036651151028
0.0310420098586754
0.0309711503571435
0.0310229950192795
0.0312148368165008
0.0315551722404035
0.032045270421749
0.0326825141707649
0.0334618453802992
0.0343771291400752
0.0354217812517554
0.0365892210890029
0.0378730638964958
0.0392672175816008
0.0407658917190153
0.0423635682594179
0.0440549543598949
0.0458349365203576
0.0476985305614407
0.0496408488440806
0.0516570889104976
0.0537425284310696
0.055892526645496
0.0581024929319977
0.0603678345123236
0.0626839661301768
0.0650463243766167
0.0674503631709079
0.069891563351096
0.0723654473251598
0.0748675919717861
0.0773936443846682
0.0799393363740498
0.0825004992793041
0.0850730761480628
0.0876531342671447
0.0902368761731649
0.0928206488910502
0.0954009505185363
0.0979744356703325
0.100537919754133
0.103088380193393
0.105622956233393
0.108138946875078
0.110633807139702
0.113105141816431
0.115550698123184
0.117968356236055
0.120356118192325
0.122712095314508
0.125034494663827
0.127321605237985
0.1295717855664
0.13178345496893
0.133955094101763
0.136085253630198
0.138172586077058
0.140215885115685
0.1422141541135
0.144166669731305
0.14607312154898
0.14793367597634
0.149749306679882
0.151521699642522
0.153254216323505
0.154950933020177
0.156619548686496
0.158266398915779
0.159910882032145
0.161521463568924
0.16318686676733
0.164716229519803
0.165474877532252
0.16619411043724
0.167112795363324
0.168365372263521
0.170102323369481
0.172362308140571
0.175037148185402
0.177994178654237
0.180908759361478
0.183490812855545
0.185409791223271
0.186481413695616
0.186139595518735
0.184161428337382
0.178605702291041
0.167687611041092
0.144698434544969
0.103222287006656
0.017000364455752
-0.0657642605332429
-0.0453725677155556
0.0010925755454578
-0.00412002900565132
0.00120369967772344
0.015650973795953
0.0222911110695177
0.0252618735453145
0.026937011040942
0.0279113879510295
0.0284779283666757
0.0289340713553435
0.0293316209775005
0.0297299438529365
0.0301679054256336
0.030658502281077
0.0311569914370887
0.0316003771788267
0.0319129908459605
0.032014688912622
0.0319404685781222
0.0317615596961631
0.0316957093821964
0.0316924731518714
0.0318670718382966
0.0318641198709273
0.0317948606049437
0.031626739335529
0.0314158852978547
0.0312011904073621
0.0310400923247594
0.0309722942145733
0.0310285352689194
0.0312249796555976
0.0315694384378519
0.0320628326472733
0.0327024496298556
0.0334832571633298
0.0343992042889018
0.035443804109291
0.0366105705080169
0.0378932029420784
0.0392856825205476
0.0407822820283338
0.0423775379177691
0.0440662042791853
0.0458432088562802
0.0477036029347954
0.0496425283239862
0.0516552088819673
0.0537369572136057
0.0558831616143572
0.0580892440879673
0.0603506318970518
0.0626627664669516
0.0650211087946773
0.0674211350025293
0.0698583470202855
0.0723282871537541
0.0748265509486423
0.0773488030035196
0.0798907914386812
0.0824483628148274
0.0850174741673766
0.0875942055094905
0.0901747709006504
0.0927555278019774
0.0953329836570589
0.0979038013421054
0.100464803638457
0.103012974573959
0.10554545937532
0.10805956259615
0.110552744691056
0.113022616047551
0.115466930078341
0.11788357430111
0.120270559938858
0.122626010205238
0.12494814778156
0.127235282088832
0.129485797831397
0.131698146677085
0.133870847854091
0.136002495482788
0.138091789314652
0.140137571157918
0.142138890612549
0.144095058761638
0.146005780654432
0.147871188066254
0.149692161423594
0.151470141259856
0.153208116679296
0.154909350133608
0.156580665753006
0.158225964038573
0.159863501031908
0.161460444337963
0.163092066183916
0.164584777405372
0.165402637437944
0.166160520350988
0.167120592504974
0.168417279511332
0.17019762722472
0.172485345625564
0.175166010288177
0.178100715617407
0.180964917733496
0.183478173489025
0.185315711474984
0.18628266332775
0.185806578779718
0.183611075414114
0.17770523044765
0.166181840853372
0.142332318945233
0.0997939550225804
0.0157780062592892
-0.0603424671625385
-0.0420678369099841
0.00174123259172617
-0.0025396582218521
0.00155620486820706
0.0150737862557258
0.0219829128431129
0.0251090424164807
0.0268521956054457
0.027867097694743
0.0284549017154775
0.0289186643473487
0.0293187855881784
0.0297147238731497
0.0301468236087942
0.0306307529801527
0.0311261615217413
0.0315725536529613
0.031896684533029
0.0320159798532627
0.0319584128717917
0.0317870855981588
0.0317230312925299
0.0317068078711664
0.0318835593900971
0.0318798105516876
0.0318039580467219
0.0316275302275595
0.0314107269281371
0.0311943736204095
0.0310359073828496
0.0309732886228095
0.0310355651002417
0.0312376529196568
0.0315867624626363
0.0320835967264359
0.0327254646813492
0.0335074468117188
0.0344236368108952
0.0354676858630264
0.0366332297705981
0.0379140707724371
0.0393042760921557
0.040798191007972
0.0423904132994147
0.0440757490912788
0.0458491713286001
0.0477057696612174
0.049640717824983
0.0516492687322038
0.0537267642265826
0.0558686169626223
0.058070271789214
0.0603271820470801
0.0626348150962182
0.064988655742196
0.0673842027319454
0.0698169798297408
0.0722825499339681
0.0747765278714339
0.0772945962829798
0.0798325200639523
0.0823861614154048
0.0849514917161189
0.0875246040075245
0.0901017241305116
0.0926792202156436
0.0952536092595589
0.097821562587608
0.100379910549362
0.102925643983471
0.105455914337098
0.107968032007157
0.110459463253151
0.112927824532243
0.115370876061514
0.117786513481224
0.120172758194328
0.12252774656217
0.124849718462741
0.127137005701701
0.129388021565768
0.131601252950283
0.133775261009127
0.135908686962715
0.138000281633
0.14004893865207
0.142053757272487
0.144014085419296
0.145929645200717
0.147800532333914
0.149627531717099
0.151411827980533
0.153156034407874
0.154862574989327
0.156537437143159
0.158182125820409
0.159813851295845
0.16139862080632
0.162999508502376
0.164451244942116
0.165329025578384
0.166124003357989
0.167126468026513
0.168464523386234
0.170282044609201
0.172587710422661
0.175262076815844
0.17816092551964
0.180961247290595
0.183393037798332
0.185135848781303
0.185983083894154
0.185351992752834
0.182908387424857
0.1766037136778
0.164407312942573
0.139624050042252
0.0961041322161924
0.0145871720472207
-0.055027380590039
-0.0386984385453934
0.00245044876806776
-0.000777255551511086
0.00219972992114908
0.0145111240375724
0.0216545278408088
0.0249380850466215
0.0267616450275843
0.0278201371637116
0.0284306229676857
0.028902529733398
0.0293053292795866
0.0296986514758175
0.0301240771410746
0.0305994599745265
0.0310888844953202
0.0315347751863385
0.0318676385002075
0.0320047861078075
0.0319684141272637
0.0318133575990116
0.0317609954170055
0.0317273337462239
0.0319023153774908
0.0318939662501823
0.0318076160209356
0.0316208613521326
0.0313985702925196
0.0311825476362968
0.0310289627601639
0.0309732978866185
0.0310427655155906
0.0312511468343086
0.0316052073930499
0.0321055519699078
0.0327495917188377
0.033532570349337
0.0344487581951276
0.035491964916784
0.0366559618150202
0.0379346633762008
0.0393222299160981
0.0408130846400348
0.0424018909612705
0.0440835104984955
0.0458529643117405
0.0477053827971581
0.0496359727179629
0.0516400121481528
0.0537128713716749
0.0558499931282199
0.0580468505211385
0.0602989230789058
0.0626017039446077
0.0649507022356413
0.0673414400437235
0.0697694637448431
0.0722303575407774
0.0747197562042557
0.0772333610307675
0.0797669542546548
0.0823164142559076
0.0848777272468174
0.0874469997505895
0.0900204698154499
0.0925945166518073
0.0951656671969121
0.0977306015963044
0.100286158147262
0.102829334881118
0.10535728986505
0.10786733976935
0.110356957136798
0.112823765023172
0.115265531051585
0.117680159665452
0.120065683212416
0.122420252053193
0.124742124199717
0.127029654860825
0.129281286991672
0.131495543831324
0.133671029554847
0.135806433334917
0.13790055757781
0.139952347560171
0.141960951239964
0.143925751231978
0.145846484024191
0.147723205339429
0.149556603457295
0.151347606430465
0.153098470861935
0.154810804110949
0.15648985311848
0.158134857096973
0.159762051127443
0.161336312156787
0.162910036963433
0.164317945059574
0.165255315982044
0.166084196890254
0.167129495756627
0.16850616757245
0.170355390213259
0.172670522560015
0.175328215335129
0.178179751084742
0.18090462260984
0.18324312458799
0.184877604868857
0.185588477836855
0.184778643744165
0.182052859113708
0.175299131048645
0.162369474059245
0.136608392186448
0.0922557197389937
0.0135230425710568
-0.0497765582462712
-0.0353131035780975
0.00317490727284166
0.00112158148928169
0.00311443486223932
0.0140109851304536
0.0213255054433528
0.0247423219251497
0.0266630395805261
0.0277703322370566
0.028405190010594
0.0288857527968792
0.0292912773720938
0.0296816358163138
0.0300993997245105
0.0305641646126138
0.0310446464974687
0.0314868639960201
0.0318265180802152
0.0319827422107534
0.0319723015396706
0.0318414575713746
0.0318088279287199
0.0317529898542711
0.0319208174790716
0.0319026529707115
0.0318025136197678
0.0316048465264223
0.0313786487297624
0.0311652432646312
0.0310185011959138
0.0309711507686947
0.0310486738969927
0.0312638776790597
0.0316232018312011
0.032127224923354
0.0327735031454988
0.0335574694447986
0.0344735878348245
0.0355158383682657
0.0366781368193183
0.0379545171264952
0.0393392387227233
0.0408268079537051
0.0424119583086133
0.0440896106788951
0.0458548376325428
0.0477028132807961
0.0496287734034212
0.0516280217712044
0.0536959622665735
0.0558280737885013
0.058019856899012
0.0602668182523008
0.0625644777324747
0.0649083696343108
0.0672940402314074
0.0697170593102138
0.0721730331314486
0.0746576171215592
0.0771665318914231
0.0796955776313119
0.0822406494983684
0.0847977490896093
0.0873629969307939
0.0899326437797581
0.0925030804196104
0.0950708441986047
0.0976326245382869
0.100185268152321
0.102725780731295
0.105251327438757
0.107759231714914
0.110246972913571
0.112712181238693
0.115152632304594
0.117566239969395
0.119951048147317
0.122305221808131
0.124627037661526
0.126914874795855
0.129167206168077
0.131382591483198
0.133559677776192
0.135697201489317
0.137794015350549
0.13984911411287
0.141861691337674
0.143831160066002
0.14575726667116
0.147640022216356
0.149480018268656
0.151277930499878
0.15303568625727
0.154754113762672
0.156437819428934
0.158083910581305
0.159707656339507
0.161272652929798
0.162822611766016
0.164185046123846
0.165182066222837
0.166041245802504
0.167129497852674
0.16854204202416
0.170418074754379
0.172735156101355
0.175367097127396
0.178161443226016
0.180800648104607
0.183034933614403
0.184547820957988
0.185105361866925
0.184092077899779
0.18104923572058
0.173797732029778
0.160083548549143
0.133324816113259
0.0883226795367351
0.0126379252340959
-0.0445621309624042
-0.0319280510908002
0.00390080275633827
0.00313432883364264
0.00425570910915506
0.0136198997209725
0.0210249443440619
0.0245196624074523
0.0265524980843073
0.0277171408377828
0.0283787416142539
0.0288684860958757
0.0292767233287629
0.0296636832485412
0.0300727462588643
0.030524930814296
0.0309939574138795
0.0314302387335744
0.0317758313428547
0.0319528392625634
0.0319722155655665
0.0318713361435805
0.0318627380806963
0.0317808188562525
0.0319358367531872
0.0319025560824153
0.0317866556987027
0.0315787953146778
0.0313508394410627
0.0311422120971285
0.031003925995303
0.0309659828061954
0.0310522997559347
0.0312748385516283
0.0316397886158444
0.0321477440874004
0.0327964302106715
0.0335814846888705
0.0344975763656269
0.0355388645892526
0.0366994171176711
0.0379733940117857
0.0393551597819264
0.0408393093141207
0.0424206508766159
0.0440941687051745
0.0458549906367044
0.0476983365896965
0.0496194644089856
0.0516137102601926
0.0536765213282995
0.0558034102420431
0.0579899057238047
0.0602315431556368
0.0625238702546612
0.0648624473250306
0.0672428456065704
0.0696606590214748
0.0721115165739091
0.0745910949768757
0.0770951347551
0.0796194546189525
0.0821599670611326
0.08471268958016
0.0872737572012441
0.0898394338849999
0.0924061224828995
0.0949703712321262
0.0975288793000309
0.100078502310066
0.102616254104495
0.105139307443215
0.107644993053178
0.110130797638574
0.112594359093216
0.115033461574993
0.117446028899062
0.119830117046219
0.12218390601223
0.124505691481754
0.126793876492219
0.129046963777951
0.131263548904637
0.133442320699891
0.13558206110292
0.137681670686367
0.13974019022307
0.141756854466302
0.143731101479882
0.145662682195955
0.147551558367281
0.149398225604365
0.151203114212375
0.152967851818035
0.154692529112715
0.156381198389089
0.158028954250398
0.159650090810249
0.161206660432967
0.162736101441343
0.16405244303082
0.165109666184285
0.165995497372562
0.167126526154367
0.168572022735947
0.170470147391385
0.172782072467307
0.175379855879526
0.178108116669857
0.180652103820467
0.182771744557681
0.184149889202148
0.184536804021708
0.18329471426172
0.179899617514545
0.172103583654795
0.157561943136532
0.129805105616527
0.0843455986419399
0.0119627034513299
-0.039373229947289
-0.0285512789399971
0.00463665120527015
0.00524418784330533
0.00556994832187208
0.0133693937156364
0.0207760536152925
0.0242794337778118
0.0264252124661586
0.0276593745639162
0.0283514037486838
0.0288509778013485
0.0292618684901469
0.0296449578834182
0.0300443741931008
0.0304823821370627
0.0309381539677244
0.0313671742288228
0.0317184530896819
0.0319175160057079
0.0319689684545165
0.031901168394252
0.031917130035131
0.03180708183576
0.0319444615503526
0.0318915538738924
0.0317592659365486
0.0315428005411903
0.0313153733036909
0.0311134108968588
0.0309849028932274
0.0309572765779147
0.0310530397611572
0.0312834056827365
0.0316543630365756
0.0321665475493053
0.0328178673827053
0.0336041744752403
0.0345203497694593
0.0355607385109761
0.0367195665619247
0.0379911260363459
0.0393698921054579
0.0408505534511668
0.0424279977634037
0.0440972767399535
0.0458535774882478
0.0476921628536766
0.0496083130351928
0.0515974035956552
0.0536549317078785
0.0557764401143483
0.0579574876150225
0.0601936398307583
0.0624804732308806
0.0648135748703542
0.067188541636812
0.0696009922037125
0.0720465788910725
0.0745210002179059
0.077020017124733
0.079539467322159
0.0820752811292311
0.0846234924011726
0.0871802511094618
0.089741834877663
0.0923046591022248
0.0948652833729708
0.0974204170654849
0.0999669252120672
0.102501830306914
0.105022313212787
0.107525712465584
0.11000952265893
0.112471389901394
0.114909107410265
0.11732060943462
0.119703964413809
0.122057367621888
0.124379133756414
0.126667689538955
0.128921566800777
0.131139395772183
0.133319905275917
0.135461920099724
0.137564385233049
0.139626383041134
0.141647184104323
0.143626245337313
0.145563316356562
0.14745830502855
0.149311612036552
0.151123430651388
0.152895116946147
0.154626065280347
0.156319842978129
0.157969637196929
0.159588777382137
0.161137464606038
0.1626495461901
0.163920026584853
0.16503835258247
0.165947240241717
0.167120553949394
0.168595816672141
0.17051128128356
0.172811090077678
0.17536672363856
0.178020618579105
0.180460205456627
0.182454939404376
0.183684941314997
0.1838832537658
0.182386048808275
0.178602958412312
0.17021781982739
0.154814082786262
0.126068359399122
0.0803797647959773
0.0115395294164159
-0.0342056313134296
-0.0251901810612659
0.00539904403766983
0.00742172841805314
0.00699641986781654
0.0132791516247933
0.0205850449617693
0.0240452255785679
0.0262773200067771
0.0275950990187978
0.0283231579114737
0.0288335735263825
0.029247042108165
0.0296258019140675
0.0300148265325774
0.0304375383417464
0.0308789332240418
0.0312999432824698
0.0316565967732082
0.0318779359070112
0.0319619116730317
0.0319279348911753
0.0319659828139066
0.0318283304659946
0.0319444769806823
0.0318685277006705
0.0317203806110782
0.0314973816999632
0.0312726530039039
0.0310789363836821
0.0309612807891655
0.030944726201415
0.031050503885703
0.0312891540560311
0.0316664974049122
0.0321832266204457
0.032837438985866
0.0336252051393663
0.0345416218425867
0.0355812245372189
0.0367384017864866
0.0380075827748905
0.0393833583666073
0.0408605159923107
0.0424340271980382
0.0440990152324555
0.0458507308520982
0.0476844707890795
0.049595546033227
0.0515793812958353
0.0536315207681603
0.0557475377162366
0.0579230229116327
0.0601535734541363
0.0624347953197324
0.0647623029606805
0.0671317194772237
0.0695386887919258
0.0719788869942645
0.0744480348093276
0.0769419139934546
0.0794563816486856
0.0819873863397294
0.0845309786663588
0.08708332393604
0.0896407138561723
0.0921995768199573
0.0947564842118465
0.0973081560621106
0.0998514673093549
0.102383449600303
0.104901292405689
0.107402342591163
0.109884103173767
0.112344228981885
0.114780522772071
0.11719092964522
0.119573530797627
0.121926536895173
0.124248281488541
0.126537214446085
0.128791895645513
0.13101098830892
0.133193258871281
0.135337571615947
0.137442911778019
0.139508398159568
0.14153333110627
0.14351717968794
0.14545968591465
0.147360699187537
0.149220525943177
0.151039130861697
0.152817622822003
0.154554738355807
0.156253611635627
0.157905618334834
0.1595231741219
0.161064322896838
0.162562110202716
0.163787647210514
0.164968191698053
0.165896657544957
0.167111431823277
0.168612987770205
0.170540923418541
0.172821692435712
0.175327566457486
0.177899128407805
0.180225425991832
0.182084927156689
0.18315287910467
0.183143662918866
0.181363847793319
0.177156516486629
0.168140743032706
0.15184477956107
0.122132789458271
0.0767491042123534
0.0115450433992935
-0.0290631162516142
-0.0218546858723718
0.00620508274916112
0.00960283551262574
0.00848314871645328
0.0133619197957281
0.0204462062522574
0.0238488811361039
0.0261088268461058
0.027521862098116
0.0282936794997077
0.0288166650583727
0.0292326900781707
0.029606715556791
0.0299848457559206
0.030391578620254
0.0308179312210375
0.0312303440820678
0.0315915892146189
0.0318342210304493
0.0319495545567833
0.0319482759895818
0.0320039443070262