/*--------------------------------*- C++ -*----------------------------------*\
  =========                 |
  \\      /  F ield         | OpenFOAM: The Open Source CFD Toolbox
   \\    /   O peration     | Website:  https://openfoam.org
    \\  /    A nd           | Version:  7
     \\/     M anipulation  |
\*---------------------------------------------------------------------------*/
FoamFile
{
    version     2.0;
    format      ascii;
    class       volSymmTensorField;
    location    "20000";
    object      tauij_B_bouss;
}
// * * * * * * * * * * * * * * * * * * * * * * * * * * * * * * * * * * * * * //

dimensions      [0 2 -2 0 0 0 0];

internalField   nonuniform List<symmTensor> 
15600
(
(2.88516121370824e-06 -1.06994354217479e-08 1.80508150849171e-32 2.88560743222207e-06 1.98632848924459e-30 2.88519299297722e-06)
(1.24922507457526e-06 -4.24065730633746e-09 -3.78929282972315e-28 1.25330826732595e-06 -5.97230080234546e-30 1.25131757776758e-06)
(2.30081685690318e-07 1.15273763106315e-10 -1.15124896757962e-27 2.29097729578211e-07 -1.5179252433216e-27 2.2957922644939e-07)
(4.42073104421185e-08 -1.85772958148564e-11 -1.81619738199581e-25 4.39932507320939e-08 -1.5034326513973e-25 4.40984180417605e-08)
(5.55801766775165e-08 -2.12505526108833e-11 -2.51033184354437e-25 5.54631356102023e-08 -1.69326730469929e-25 5.55210163757099e-08)
(1.59403317569329e-08 -4.94992498973445e-12 3.59931300716714e-28 1.59197801170765e-08 1.99986442965329e-28 1.5929956937706e-08)
(3.47449895344399e-09 -9.20224603906378e-13 7.06890816131161e-29 3.47105790731349e-09 5.02343020597585e-29 3.47276423995425e-09)
(2.21717706085678e-09 -5.11715646974752e-13 -6.31507629467271e-29 2.2152839718928e-09 -3.77573259595537e-29 2.2162253889978e-09)
(2.62587048866616e-09 -5.9404945751505e-13 -1.5540579829021e-28 2.62358556620635e-09 -1.18450042221124e-28 2.62472465026941e-09)
(3.54995705499755e-09 -8.6442909786973e-13 1.53913753399316e-28 3.54646972115084e-09 7.45325959170532e-29 3.54820884724784e-09)
(4.93919145018182e-09 -1.32885214546458e-12 2.21484618693194e-28 4.9335916785263e-09 1.2553789820441e-28 4.93638538403377e-09)
(7.00200659216588e-09 -2.10370170074967e-12 5.10522692470453e-28 6.99279659216474e-09 3.56919066954329e-28 6.99738909811662e-09)
(9.86089113127425e-09 -3.20527438275305e-12 9.39240096262645e-28 9.84639734720348e-09 5.57820269364394e-28 9.85361866068493e-09)
(1.36016752342174e-08 -4.39491317409089e-12 -3.8825585216338e-28 1.35808331386725e-08 -3.71246464926641e-28 1.35912101084563e-08)
(1.85597780324558e-08 -5.1057830473173e-12 2.9620099922962e-29 1.85326446326693e-08 -2.31864811566886e-30 1.85461587383586e-08)
(2.44939211519692e-08 -4.34647308634862e-12 2.13029987347183e-27 2.4464543213499e-08 1.5187994792511e-27 2.44792091616173e-08)
(3.02217200086487e-08 -1.51213716636713e-12 -3.66987576521095e-28 3.02013083813764e-08 5.80472920658664e-29 3.02115972554788e-08)
(3.36202633626906e-08 1.16820730375039e-12 6.0578792341786e-28 3.36236755690479e-08 -7.69301228785472e-29 3.36222419818717e-08)
(3.18995563650407e-08 -1.38095602302404e-12 -1.86805603011079e-27 3.19308836847747e-08 -2.04269566963568e-27 3.19155988396183e-08)
(2.39018461426032e-08 -8.28122060540207e-12 -9.10478347147032e-28 2.39374823359701e-08 1.02383962072916e-28 2.39200049577764e-08)
(1.46979399209547e-08 -1.12985325812193e-11 -5.57075963240634e-28 1.47163519278474e-08 -1.83974954129254e-27 1.47072732583065e-08)
(1.11343632746729e-08 -9.63369044022915e-12 1.46147384508335e-28 1.11367567846247e-08 -2.21190907076652e-28 1.11356376552599e-08)
(1.60455546979152e-08 -9.46528125680581e-12 -6.0508727023187e-29 1.6044815364542e-08 4.24844609059806e-29 1.60451706958441e-08)
(2.61422318509198e-08 -9.24586383707686e-12 2.91036518937431e-30 2.61403352034718e-08 -5.45783449945623e-29 2.61413408373035e-08)
(4.04566389662001e-08 4.0070141826729e-12 -4.92972337903304e-30 4.04519499259646e-08 1.26739646134442e-28 4.04543298110715e-08)
(6.10560808941251e-08 4.30486829205641e-11 1.25657517668818e-25 6.10464325812504e-08 -1.77703448412351e-26 6.10513811940385e-08)
(8.91897365913864e-08 1.31186194068595e-10 2.5946810438063e-25 8.91724014320283e-08 -7.87133435974914e-25 8.91812953573873e-08)
(1.25474732505191e-07 2.92842194356482e-10 -9.55911619983575e-26 1.254472189174e-07 -8.03607461646607e-25 1.25461435709042e-07)
(1.69826662325518e-07 5.51097440048743e-10 -3.57049880528767e-25 1.69787348944542e-07 4.70243594298815e-26 1.69807781041548e-07)
(2.21527678961544e-07 9.19956325767063e-10 5.28704513073701e-41 2.21476135145372e-07 -1.53331858561556e-40 2.21503129868364e-07)
(2.79529257279468e-07 1.40448779506636e-09 5.84183702356383e-25 2.7946608261994e-07 -6.97254703435517e-26 2.79499438137761e-07)
(3.4268060478419e-07 2.00118285694991e-09 1.87948576720483e-24 3.42607045020165e-07 -2.47176919462652e-24 3.42646247513679e-07)
(4.09933822226499e-07 2.70169846967412e-09 7.00536511296396e-25 4.09851383591795e-07 -2.19373359374307e-24 4.09895764513263e-07)
(4.80406934922689e-07 3.49510782756713e-09 -1.03896685245045e-24 4.80317125610776e-07 1.15454251333029e-25 4.80366007175506e-07)
(5.53404128287989e-07 4.37005988389528e-09 -3.19171624338185e-29 5.53308333787758e-07 6.91224686710092e-28 5.53361077453515e-07)
(6.28383704557154e-07 5.31556867820046e-09 -8.52602307037533e-29 6.28283154121663e-07 -1.11596555736415e-27 6.28339182837766e-07)
(7.04926796978391e-07 6.32149641374266e-09 1.37199552172682e-28 7.04822578435445e-07 -1.36575447116014e-28 7.04881365200807e-07)
(7.82701659902002e-07 7.37852659157977e-09 -1.8177346793945e-24 7.82594753258358e-07 1.64569907042079e-25 7.82655806824523e-07)
(8.61437536760802e-07 8.47807576417545e-09 -6.75394588481507e-24 8.61328851829918e-07 5.5841491042386e-24 8.61391697481413e-07)
(9.40902563894898e-07 9.61208943668231e-09 -3.13613734201029e-24 9.40792974770641e-07 4.86259757513207e-24 9.40857138472925e-07)
(1.0208883016771e-06 1.07728666951405e-08 2.50007267640759e-24 1.02077867433892e-06 -2.04960251644186e-25 1.02084366944569e-06)
(1.10119851166004e-06 1.19529014146901e-08 1.45224869833972e-42 1.10108972327103e-06 -8.91968236526697e-28 1.10115504174753e-06)
(1.18164236631118e-06 1.31447833150041e-08 -0 1.18153531505419e-06 -1.02935219478153e-27 1.18160042338511e-06)
(1.26203114090658e-06 1.43411534905776e-08 -0 1.26192674826932e-06 1.09520150455344e-27 1.26199108741887e-06)
(1.34217748422261e-06 1.55347069027629e-08 -0 1.34207669166561e-06 -0 1.34213967967231e-06)
(1.42189645003706e-06 1.67182356021706e-08 4.63646845333139e-24 1.42180020901201e-06 -2.67843451811194e-25 1.42186124749593e-06)
(1.50100900647072e-06 1.78847170012037e-08 1.53563903456299e-23 1.50091826723919e-06 -1.17262396639129e-23 1.5009767488198e-06)
(1.5793474950675e-06 1.90274139629325e-08 5.77612261336066e-24 1.57926320111659e-06 -1.08149972715042e-23 1.57931851391737e-06)
(1.6567662028837e-06 2.0140019839575e-08 -5.68955078832049e-24 1.65668928859985e-06 2.809702642019e-25 1.65674081881031e-06)
(1.73316339892454e-06 2.12169522186751e-08 9.31076064459516e-29 1.73309478089307e-06 7.54868303425251e-28 1.73314191985886e-06)
(1.80848310043676e-06 2.22534164337803e-08 -9.01755680714725e-29 1.80842366664154e-06 -1.0569017395771e-27 1.80846581840321e-06)
(1.88271967021499e-06 2.32455085061485e-08 7.47058266635909e-24 1.88267027718441e-06 -2.44870308718845e-25 1.88270685682911e-06)
(1.95583592251146e-06 2.41892543773782e-08 2.14031449920014e-23 1.9557973804748e-06 -1.73932153551293e-23 1.95582782240311e-06)
(2.02778802871742e-06 2.50809862234063e-08 5.78909205835339e-24 2.02776108953682e-06 -1.70739904811955e-23 2.02778485851514e-06)
(2.09799428690886e-06 2.59106991610429e-08 -8.69752090713672e-24 2.09797964788594e-06 2.14916925465643e-25 2.09799623652304e-06)
(2.16568925780624e-06 2.66665450446421e-08 1.24954872054447e-28 2.16568752989039e-06 -9.06938953212427e-28 2.16569647828031e-06)
(2.23037498656445e-06 2.73406057813378e-08 -6.9671813700355e-29 2.23038667079922e-06 1.19163008422408e-27 2.23038758137997e-06)
(2.29185554011247e-06 2.7929287295927e-08 1.37002043192249e-42 2.29188102373434e-06 -4.17419050536361e-28 2.2918735653484e-06)
(2.34995154876205e-06 2.84298055596196e-08 -0 2.3499911022142e-06 -2.28910808604847e-28 2.34997501348518e-06)
(2.40450123565272e-06 2.88401980676214e-08 2.29554858223606e-29 2.40455501088732e-06 2.34479498668691e-28 2.40453010255847e-06)
(2.45536087888558e-06 2.91593186459284e-08 -7.75711824164163e-30 2.45542890969879e-06 -5.06508061358854e-29 2.45539506559046e-06)
(2.50240469740063e-06 2.93868164870434e-08 -3.98856214467935e-29 2.50248690100645e-06 5.17449307059138e-29 2.5024440782711e-06)
(2.54552492634781e-06 2.95231097250882e-08 2.43130242296162e-29 2.54562110707179e-06 -5.63986740282236e-28 2.54556933504439e-06)
(2.58463116150433e-06 2.95693406081532e-08 -1.14783487503137e-41 2.58474101631719e-06 1.75552831048778e-27 2.58468039422357e-06)
(2.61964916315438e-06 2.95273189656468e-08 -1.15814883880259e-28 2.61977228831471e-06 -1.20261357574223e-27 2.61970298214834e-06)
(2.65051932600459e-06 2.93994592911563e-08 5.37438358854513e-29 2.6506552241863e-06 -2.30736642139102e-27 2.65057746320141e-06)
(2.67719519277332e-06 2.91887164983264e-08 1.82520288390499e-28 2.67734328118796e-06 2.34067684625849e-27 2.67725735368874e-06)
(2.69964144344766e-06 2.88985127908477e-08 -1.19438997351345e-28 2.69980106293226e-06 -2.77780306854347e-27 2.69970731132098e-06)
(2.71783101411031e-06 2.85326565277928e-08 3.83264513393038e-39 2.71800143794125e-06 -7.00468044627108e-29 2.71790025385797e-06)
(2.73174217605531e-06 2.8095264968454e-08 3.22323723773201e-39 2.73192261872913e-06 -7.01422950987571e-29 2.73181443805117e-06)
(2.741354964924e-06 2.75906837308795e-08 -2.81916879719927e-28 2.74154459076645e-06 2.97332421191978e-27 2.7414298886391e-06)
(2.746646804093e-06 2.7023404361064e-08 -2.00867499980419e-23 2.74684473526105e-06 -9.91373596131164e-25 2.74672402134424e-06)
(2.74758710824951e-06 2.6397981323545e-08 -5.54380152905437e-23 2.7477924314271e-06 4.35092296643484e-23 2.74766624587774e-06)
(2.74413107189084e-06 2.57189527338004e-08 -2.89624850813993e-23 2.74434284381686e-06 9.9454953778536e-23 2.74421175382398e-06)
(2.7362117604343e-06 2.49907588102804e-08 2.69729732822338e-23 2.73642901134034e-06 5.66817243364291e-23 2.73629360883379e-06)
(2.72373067407912e-06 2.42176659405098e-08 2.05501173684341e-23 2.72395240822313e-06 1.25647524082381e-24 2.72381330916385e-06)
(2.70654677751628e-06 2.34037006504976e-08 4.00150319573923e-28 2.70677196988674e-06 1.75830324216994e-26 2.70662981566933e-06)
(2.68446439929223e-06 2.25526025474659e-08 -1.41938273475675e-27 2.68469198732765e-06 -5.46138867791517e-27 2.68454744891096e-06)
(2.65722117599871e-06 2.16678106322932e-08 -2.24972828658705e-23 2.65745004522507e-06 -1.75925302431313e-24 2.6573038305881e-06)
(2.62447823123753e-06 2.0752501520194e-08 -3.36817178658414e-23 2.62470719448615e-06 5.22045069117515e-23 2.62456005954785e-06)
(2.5858154433124e-06 1.9809694633774e-08 1.10432056178182e-23 2.58604321482025e-06 6.55378417370343e-23 2.58589597723905e-06)
(2.54073518212375e-06 1.88424290376048e-08 2.14841477843797e-23 2.54096035008752e-06 1.86590200990763e-24 2.54081390355494e-06)
(2.4886759921078e-06 1.78539965447239e-08 1.25899180734031e-27 2.48889699332709e-06 2.2870961374642e-28 2.48875232124477e-06)
(2.42904172169957e-06 1.68482237048576e-08 -4.82658202823633e-28 2.42925682766786e-06 -1.72006037686281e-27 2.42911500948293e-06)
(2.36124393160606e-06 1.58297520501008e-08 -7.54962526379383e-28 2.36145124466823e-06 -5.41316300627391e-27 2.36131345764201e-06)
(2.28477690929855e-06 1.48044082242436e-08 5.92561662919118e-28 2.28497437811292e-06 7.15417017183999e-27 2.28484188599564e-06)
(2.19933104640835e-06 1.37796498688052e-08 -2.24818170973577e-41 2.19951650203016e-06 -1.38082869505559e-26 2.19939063566072e-06)
(2.10498248496215e-06 1.27652001301277e-08 -5.85861707270121e-28 2.10515372446381e-06 6.61331020276167e-27 2.1050358269058e-06)
(2.00243071118982e-06 1.17737023116408e-08 4.54409805153115e-28 2.00258560970269e-06 -4.80474721336172e-27 2.00247698004977e-06)
(1.89337581054582e-06 1.08217047172205e-08 1.70525824081664e-27 1.89351252801319e-06 4.80608529680646e-27 1.89341427602542e-06)
(1.78083603485493e-06 9.93029802886835e-09 -1.33811682984449e-27 1.78095319582717e-06 2.07002106319518e-26 1.78086617160214e-06)
(1.66972544300422e-06 9.12654020533276e-09 -1.1168757134856e-27 1.66982256149309e-06 -8.32918589287158e-27 1.66974702527833e-06)
(1.56688169028997e-06 8.44295796429954e-09 -3.0325852507736e-29 1.5669593909051e-06 1.0919201871819e-28 1.56689499745959e-06)
(1.48180106123313e-06 7.9191933000226e-09 7.34628996878244e-28 1.48186273295077e-06 -7.41460634979768e-27 1.4818073737049e-06)
(1.42482978177713e-06 7.58813653078387e-09 9.76171928244616e-28 1.42488469324254e-06 -2.54308327619135e-27 1.42483394608609e-06)
(1.40827077759886e-06 7.45813609204129e-09 -8.3156777210981e-28 1.4083384373103e-06 -1.19787006474258e-28 1.40827886086205e-06)
(1.42687120991761e-06 7.42737983387295e-09 -3.17319257796458e-23 1.42701536927849e-06 -4.84252242302783e-24 1.42692140687943e-06)
(1.4391033678484e-06 6.79968907985434e-09 -3.91226009574788e-23 1.43949157171351e-06 8.22296048067494e-23 1.43927523380484e-06)
(1.22103742148915e-06 4.31106028283961e-09 1.53166976234413e-23 1.22281096278e-06 1.03195578994063e-22 1.22190012337237e-06)
(7.87475617325795e-07 1.65166923659351e-09 1.68651616035738e-23 7.90295710922757e-07 2.70498383883928e-24 7.88894315762395e-07)
(6.32470375603968e-07 7.49578327268888e-10 -2.22370466042323e-27 6.35508338299536e-07 3.51976495905039e-27 6.33997030161991e-07)
(6.31752976998175e-07 2.62537659145228e-10 -5.85401832243135e-26 6.35119186945413e-07 -1.56478907133192e-26 6.33447354245307e-07)
(6.83853066953466e-07 -1.15023109071587e-10 4.04343365078454e-25 6.87514566884315e-07 -3.66817901016021e-25 6.85701064283366e-07)
(7.7662471139335e-07 -4.27771550780886e-10 -4.78374284877618e-25 7.80578418359996e-07 4.83874270980955e-25 7.78626570124625e-07)
(9.05739268889636e-07 -6.66388818368021e-10 -1.03966142562918e-24 9.0993479198989e-07 7.47404257172952e-25 9.07869948982907e-07)
(1.05461881542286e-06 -8.08485724181547e-10 4.54321705461073e-26 1.05883896584017e-06 6.13113037978678e-27 1.0567694491672e-06)
(1.22131676508291e-06 -8.27228714860618e-10 -2.46469209374827e-25 1.22522346077887e-06 1.76981614283218e-25 1.22331439671601e-06)
(1.37456754593433e-06 -6.85047608951288e-10 -1.93781492697025e-27 1.37763800905624e-06 9.37597986130316e-27 1.37614546626369e-06)
(1.4648263427327e-06 -3.95424216525574e-10 -9.50300349512096e-25 1.46646822480043e-06 6.16490870579944e-25 1.46568028791957e-06)
(1.46894884593048e-06 -3.44531498023054e-11 -7.2510254627593e-25 1.46894023800401e-06 3.9315451232336e-25 1.4689650765793e-06)
(1.42545786716247e-06 3.40085044224675e-10 5.39752132650749e-28 1.42388403511249e-06 -3.28419832993551e-28 1.42467526596598e-06)
(1.34967485991836e-06 6.69833853575226e-10 -4.45298313496145e-25 1.34690333400485e-06 2.7023571634362e-25 1.34828266194552e-06)
(1.34319089695442e-06 1.04056725812585e-09 -3.93605715654308e-25 1.33916464077403e-06 2.19349217462283e-25 1.34115446945516e-06)
(1.47083434148687e-06 1.57411991548305e-09 -9.43171197589208e-26 1.46477070113754e-06 8.9096084243326e-26 1.46775960059097e-06)
(1.93245202572302e-06 2.75067861904082e-09 3.87756093261701e-25 1.92073934748754e-06 -2.33099099460495e-25 1.92648412498743e-06)
(3.15454471518977e-06 5.39816340067629e-09 4.29376454220028e-25 3.12465793735024e-06 -1.31288524965626e-25 3.13930589946794e-06)
(8.57727640267007e-06 1.16234655752795e-08 4.66078048118341e-25 8.42108023201763e-06 5.17335796356479e-25 8.49712068743317e-06)
(1.60348089824995e-05 -8.96653881236084e-08 3.46621428893865e-25 1.54507233592309e-05 -4.63141288707702e-25 1.57355602402413e-05)
(8.16654309407238e-06 -1.57594852004891e-07 2.29545016849065e-26 7.98103940319552e-06 -3.41360504761417e-28 8.0731248910618e-06)
(3.8401530564268e-06 -3.0094730700012e-08 -0 3.83402977756438e-06 -0 3.83689323411948e-06)
(9.23920676017719e-05 -3.56791570073686e-06 1.57372937747326e-27 9.216931548464e-05 1.61327599677618e-28 9.2219459777683e-05)
(4.03974958367582e-05 -9.55156825072923e-07 -8.3987351267959e-26 4.11051713665345e-05 -1.03503796671502e-27 4.07612755428569e-05)
(8.05354155289399e-06 -4.89999391971591e-09 -2.18662236623711e-23 7.93416803272339e-06 9.44091243286742e-25 7.99620037651644e-06)
(1.56382872211645e-06 -3.50347040021771e-09 -9.7018346174661e-24 1.52654323781155e-06 8.06365741229743e-23 1.54539846769821e-06)
(1.8466184260116e-06 -3.43042938866947e-09 3.10002677119041e-23 1.82515676449788e-06 5.91526033897442e-23 1.83601900106293e-06)
(5.73974188692091e-07 -9.4010389899909e-10 1.30702839785145e-24 5.69821735892948e-07 -1.06669100663381e-26 5.71918792299294e-07)
(1.30070626025202e-07 -1.87969166601161e-10 -1.79215222879052e-26 1.29340654578354e-07 -1.05563692101026e-26 1.29708324731469e-07)
(7.4465056390882e-08 -9.58796237146664e-11 2.71187342547476e-26 7.41001089485567e-08 1.85970113734033e-26 7.42834296738648e-08)
(8.50366721301193e-08 -1.09550325579374e-10 2.93931182488468e-26 8.46123154323802e-08 2.49039921973288e-26 8.48252233586017e-08)
(1.14159063340364e-07 -1.59977306827052e-10 -5.71799285869549e-26 1.13519374904167e-07 -4.43786405735184e-26 1.13839956062799e-07)
(1.58396776034024e-07 -2.4599277631895e-10 -9.56656992496379e-26 1.57376920971055e-07 -7.19274577711109e-26 1.57888024383544e-07)
(2.242982287098e-07 -3.86660890616421e-10 -7.78827411757778e-26 2.22636400714312e-07 -7.79142126343258e-26 2.23469726499354e-07)
(3.16039116929847e-07 -5.80111706655495e-10 -1.91737100749094e-26 3.13438895186292e-07 -1.13226760245137e-26 3.14744022270687e-07)
(4.36261455434903e-07 -7.77363171664293e-10 -2.10914051359369e-25 4.32511221843295e-07 -9.64405230424753e-26 4.34394243102868e-07)
(5.95896379585327e-07 -8.70499009003479e-10 4.48611316807609e-26 5.90918544743529e-07 -6.49320555490669e-27 5.93416474441195e-07)
(7.88633611023e-07 -6.6928320251879e-10 -3.84908999668706e-25 7.82921455853011e-07 -2.77955694279944e-25 7.85779593601686e-07)
(9.77793654566221e-07 -3.77647807268254e-11 4.82552294127363e-28 9.72958078333305e-07 -7.86734559351893e-29 9.75353292804819e-07)
(1.09563292111447e-06 6.75493951856576e-10 8.79618277027002e-25 1.09410534086514e-06 1.00311210645744e-24 1.09481505302016e-06)
(1.04972669016536e-06 4.89478999775834e-10 3.3064365900326e-25 1.05278897887031e-06 3.73311570253554e-25 1.05117965541233e-06)
(7.94261049315288e-07 -7.45546107173174e-10 1.74444041274495e-25 7.98960096111155e-07 -2.00461267669269e-26 7.96563613323668e-07)
(4.87712166066917e-07 -1.53257865232591e-09 1.14088936289956e-25 4.90310096184594e-07 3.40396784252569e-25 4.88980904931978e-07)
(3.64935800661338e-07 -1.29909394432591e-09 5.04130435822175e-27 3.65047461762897e-07 3.10595731318528e-26 3.64990715551183e-07)
(5.25205312465358e-07 -8.0229328198606e-10 1.76252206311517e-26 5.24654788353697e-07 -8.83176998572148e-27 5.24913670367061e-07)
(8.53990280411894e-07 4.81342938630407e-10 1.000913936109e-28 8.52689081272893e-07 2.05491800005458e-27 8.53342711063303e-07)
(1.32084007104632e-06 4.93670266180413e-09 2.39428466500585e-28 1.31785729786522e-06 8.0329970200442e-28 1.31933677762755e-06)
(1.9920903331447e-06 1.53592387188424e-08 -3.69362459300176e-23 1.98631578060305e-06 5.16731660627476e-24 1.98919725676471e-06)
(2.90790914236266e-06 3.58510520350335e-08 -6.47512008824949e-23 2.89806013122181e-06 -3.05594215683627e-22 2.90296343394145e-06)
(4.08757355324741e-06 7.03480548896544e-08 4.63570961462716e-23 4.0726735270691e-06 -4.56829848224762e-22 4.08008578202361e-06)
(5.52773700604921e-06 1.21985328717648e-07 9.65467286554531e-23 5.50733540041721e-06 -1.2757673895099e-23 5.51745366577676e-06)
(7.2046259226694e-06 1.92185136151107e-07 -9.75384472178333e-39 7.17889750197873e-06 5.35653003332266e-26 7.19161388991359e-06)
(9.08403424374415e-06 2.80860475218854e-07 -1.59688805395081e-22 9.05360365058146e-06 1.91258572458509e-23 9.06857540038612e-06)
(1.11286412313232e-05 3.86727050435854e-07 -4.05931839296281e-22 1.10943759702268e-05 -1.18641579692709e-21 1.11111465429575e-05)
(1.33046156288511e-05 5.07928091272518e-07 -4.53258697266893e-23 1.32674299656865e-05 -1.51796353906076e-21 1.32855204655479e-05)
(1.55835494525845e-05 6.42396494887789e-07 2.66073945770341e-22 1.55442990586383e-05 -2.96764635899735e-23 1.55632669807457e-05)
(1.7943074567406e-05 7.88131866985176e-07 1.10753472432129e-26 1.79025086886729e-05 -5.10998889906222e-26 1.79219687595916e-05)
(2.03657905286549e-05 9.43284361544789e-07 -4.27746765481584e-26 2.03245490955801e-05 1.24213962554863e-25 2.03441761977306e-05)
(2.28382499207905e-05 1.10618985050976e-06 -1.74753232221294e-26 2.27968768624701e-05 -7.51686665914366e-26 2.28163979865425e-05)
(2.53498009823693e-05 1.27534549634462e-06 4.6994729751051e-22 2.53087650074767e-05 -4.25519115210145e-23 2.53279490289609e-05)
(2.78917481129892e-05 1.44938163008099e-06 1.39328630197507e-21 2.78514625271071e-05 3.31757497047512e-21 2.78701096633856e-05)
(3.04566410070799e-05 1.62702474938161e-06 3.934459924482e-22 3.04174810979745e-05 3.91390960063025e-21 3.0435414076691e-05)
(3.30377794414517e-05 1.80706813118954e-06 -6.17383389424278e-22 3.30000955842369e-05 5.09623057960426e-23 3.30171527683448e-05)
(3.56288541317752e-05 1.98834817353656e-06 -9.28440175659305e-26 3.55929806860757e-05 -1.456265640033e-25 3.5609011431679e-05)
(3.82237305651938e-05 2.1697304694915e-06 -1.24221084215638e-26 3.81899905081302e-05 -1.00012253279793e-26 3.82048526271314e-05)
(4.08163442186599e-05 2.35010426525615e-06 8.59756971678496e-26 4.07850506235773e-05 5.47075232725076e-27 4.07986094435003e-05)
(4.34006783204783e-05 2.52838382594629e-06 -4.10656018775478e-26 4.33721335161079e-05 -1.96633334597462e-25 4.33842620157057e-05)
(4.59707976696504e-05 2.70351461257754e-06 -1.16062015165506e-21 4.59452905213016e-05 6.70779114710594e-23 4.59558704460983e-05)
(4.85209612985456e-05 2.87448464412248e-06 -3.15499086789276e-21 4.84987648348368e-05 -8.14848718258425e-21 4.8507687610189e-05)
(5.10457967288626e-05 3.04033813769157e-06 -6.92857901196764e-22 5.10271678626965e-05 -9.1633223672747e-21 5.10343344353131e-05)
(5.35406392669104e-05 3.20019794537532e-06 1.38653001901613e-21 5.35258191807952e-05 -6.84733991225383e-23 5.35311395220759e-05)
(5.60022448202423e-05 3.35331074234013e-06 -2.29777655910933e-26 5.59914583393844e-05 1.52623878009384e-26 5.59948512971509e-05)
(5.84288436079309e-05 3.49905191523039e-06 -2.37306521320326e-26 5.84222990349906e-05 -1.67126839941773e-25 5.84236908990488e-05)
(6.08202984909512e-05 3.63693927659314e-06 -1.84939140316797e-21 6.08181839822608e-05 6.09012646834029e-23 6.08175095560974e-05)
(6.31754467197769e-05 3.76647991047183e-06 -4.44096736033421e-21 6.31779175014668e-05 -1.29734573350251e-20 6.31751291526871e-05)
(6.54929727548001e-05 3.88724252872564e-06 -5.33706206857326e-22 6.55001507453812e-05 -1.41659797087674e-20 6.54952193321922e-05)
(6.77474379863222e-05 3.99744464642969e-06 2.12401472856311e-21 6.77594158573441e-05 -5.23364038816569e-23 6.77523269725194e-05)
(6.99098013876122e-05 4.09518201752168e-06 -4.73654920418059e-26 6.99266303112934e-05 -2.32145352266226e-25 6.99173882379833e-05)
(7.19748384252423e-05 4.18004661162007e-06 6.94263746640758e-26 7.19965262633589e-05 7.52858518879682e-27 7.19851543815593e-05)
(7.3936447149416e-05 4.25166540416862e-06 -4.7642222838982e-26 7.39629609930551e-05 6.39113930119367e-26 7.39495009226336e-05)
(7.57890522001076e-05 4.30978307901609e-06 7.32714780844626e-27 7.58203186842934e-05 -6.96052146481256e-26 7.58048297082787e-05)
(7.75276393347489e-05 4.35426191664781e-06 7.34987802863274e-27 7.75635461683518e-05 1.55398027992301e-27 7.75461042208873e-05)
(7.91477668874384e-05 4.3850790626837e-06 -7.33917686882592e-27 7.91881649194247e-05 -2.51670625124475e-28 7.91688613240779e-05)
(8.06455607343464e-05 4.40232181023934e-06 1.20104480846874e-27 8.06902663692377e-05 -8.19893140326127e-26 8.06692064823794e-05)
(8.20177134661538e-05 4.40618223801761e-06 1.75288439121625e-26 8.20665116298829e-05 8.03321833118019e-26 8.20438132381206e-05)
(8.32614610046312e-05 4.39694970509855e-06 3.31621977467764e-26 8.33141085209368e-05 1.15376861504602e-26 8.32899000912178e-05)
(8.43745429647728e-05 4.37500205700164e-06 -1.0060141075548e-25 8.44307720581867e-05 -9.33584678755991e-27 8.44051909615008e-05)
(8.53551535415252e-05 4.34079616163649e-06 2.57150958381663e-26 8.54146753288002e-05 3.77186761369194e-25 8.53878661237883e-05)
(8.62018927971253e-05 4.29485840349142e-06 -1.61008776509935e-27 8.62644009138868e-05 -3.81430493961189e-25 8.62365135977257e-05)
(8.69137011239478e-05 4.23777433205182e-06 -9.19943562490403e-26 8.6978875415189e-05 -4.43203957024156e-25 8.69500636609646e-05)
(8.7489768056974e-05 4.17017746846181e-06 6.28682609960245e-26 8.75572779806787e-05 4.29480927953371e-25 8.75276975611061e-05)
(8.79294390365595e-05 4.09273875871932e-06 7.02266394540459e-26 8.79989468551256e-05 2.35667087008939e-27 8.79687541792192e-05)
(8.82321016770552e-05 4.0061558201444e-06 1.31717782629187e-25 8.83032653977529e-05 4.90883554994895e-25 8.82726161891289e-05)
(8.83970466646614e-05 3.91114216226197e-06 5.00916640583295e-21 8.84695225640222e-05 2.47397221723569e-22 8.84385707388312e-05)
(8.84232971853207e-05 3.80841648820713e-06 1.29940131261643e-20 8.84967417325744e-05 3.43546925297088e-20 8.84656385848821e-05)
(8.83094115760971e-05 3.69869266432609e-06 5.54021841999279e-21 8.83834827480923e-05 6.87310100770386e-20 8.83523764064436e-05)
(8.80532331233793e-05 3.58266964371456e-06 -7.74355653112599e-21 8.81275907963666e-05 3.41943524458819e-20 8.80966261197149e-05)
(8.76515918057465e-05 3.46102230905284e-06 -5.29441306050051e-21 8.77258969047208e-05 -3.2694797364683e-22 8.76952159524727e-05)
(8.70999580121017e-05 3.3343938210782e-06 2.552306540682e-25 8.71738700666896e-05 -1.91826250640141e-24 8.71436133095798e-05)
(8.639206128029e-05 3.203390594679e-06 -1.54175444727025e-25 8.6465233960493e-05 9.79068100375066e-25 8.6435542432324e-05)
(8.55195114200949e-05 3.06858162881688e-06 5.69725860926359e-21 8.55915857075642e-05 4.4662846467808e-22 8.5562604268722e-05)
(8.44714907491405e-05 2.93050428744347e-06 7.94047401562828e-21 8.45420857640623e-05 3.79289170536897e-20 8.45139674734526e-05)
(8.32346065603902e-05 2.78967798389624e-06 -3.50542367893413e-21 8.33033087278107e-05 3.64705018288425e-20 8.32762200461992e-05)
(8.1793007830857e-05 2.64662612071852e-06 -5.67898508130304e-21 8.18593598322228e-05 -4.90881484024246e-22 8.1833485899056e-05)
(8.01288161965155e-05 2.50190344420077e-06 -4.91058887224909e-25 8.01923074575278e-05 1.08345545092033e-24 8.01678568507693e-05)
(7.82230337740028e-05 2.35612841494873e-06 -7.49000943589299e-26 7.82830953682358e-05 -1.06251874799518e-24 7.82603026337784e-05)
(7.60568817214098e-05 2.21001375934354e-06 3.24283175568415e-25 7.61128858510746e-05 -1.18282171562159e-25 7.60920123004213e-05)
(7.36141606951236e-05 2.06440732366508e-06 -2.64112972630346e-25 7.36654276741058e-05 -2.43051563213761e-27 7.36467583753315e-05)
(7.08848496657696e-05 1.92033930170892e-06 -1.13064188718819e-25 7.09306644613371e-05 1.0024456355001e-24 7.0914502006963e-05)
(6.78710898252004e-05 1.77909535244654e-06 3.55033832903768e-25 6.79107355604406e-05 7.84915981908472e-26 6.78973843704297e-05)
(6.45947936298476e-05 1.6422855080507e-06 -1.44401459867064e-25 6.46275996496146e-05 8.82579995451161e-25 6.46173481286331e-05)
(6.11095649695942e-05 1.51197135810451e-06 2.90181874663149e-25 6.11349827280023e-05 -8.15418305898585e-25 6.11280650384003e-05)
(5.75111202933793e-05 1.39072355254669e-06 8.63153862142863e-26 5.75288029317415e-05 -1.55954389274639e-24 5.75253766636919e-05)
(5.39553341765339e-05 1.28183753185916e-06 -2.54554983615741e-25 5.39652769199082e-05 1.50859398078485e-24 5.39653428999131e-05)
(5.06599308823973e-05 1.18920934822537e-06 -8.5392307345004e-28 5.06626235368929e-05 7.53567969397768e-28 5.06659904168906e-05)
(4.79255583396997e-05 1.11753366121529e-06 -2.39887923599383e-25 4.79226419672711e-05 1.38075274598499e-24 4.79285610065636e-05)
(4.60769718907152e-05 1.0702975731128e-06 -6.68213303749307e-26 4.60725128450362e-05 -1.42697428768787e-24 4.60792811642169e-05)
(4.54882404049147e-05 1.04900545496159e-06 -7.25685704543463e-27 4.54919606655446e-05 1.68579289049252e-24 4.54942155129514e-05)
(4.59648316005962e-05 1.03189599278828e-06 8.2594442346349e-21 4.60059535056689e-05 1.25771331909221e-21 4.59918540172638e-05)
(4.61064486273591e-05 9.50836639003233e-07 1.02273843389961e-20 4.62432385977148e-05 5.53468869890961e-20 4.61817931564972e-05)
(3.9074985153982e-05 6.7468105695392e-07 -9.73284721265487e-21 3.94483098852426e-05 4.42254909471243e-20 3.92597444528242e-05)
(2.53478343123241e-05 2.97670416457573e-07 -4.74883113293467e-21 2.58745163807483e-05 -7.63362646521709e-22 2.56119736789223e-05)
(2.04551646873199e-05 1.3660194737627e-07 1.00647642827549e-22 2.09896452861069e-05 -1.60109093255804e-22 2.07213886423112e-05)
(2.0557590425276e-05 4.80381798034478e-08 1.04267398945385e-22 2.11306199417382e-05 -1.20339471092646e-22 2.084220440463e-05)
(2.23603355658978e-05 -1.90114303086763e-08 -5.86678930283095e-23 2.29617039062453e-05 7.17067853050667e-23 2.2658132910249e-05)
(2.54758718279352e-05 -7.27390845936075e-08 1.28346900639848e-23 2.60988274477828e-05 1.02366689478297e-23 2.57831145565253e-05)
(2.97314660535017e-05 -1.12456924701589e-07 6.18334039440596e-23 3.0362580938143e-05 -5.22227854470192e-23 3.00411793670381e-05)
(3.4616169600227e-05 -1.35252606009042e-07 -1.5147935834583e-22 3.5218249442286e-05 7.7988172775006e-23 3.49101413005644e-05)
(4.00412571300331e-05 -1.37513131419437e-07 1.78659935825783e-22 4.05601827957345e-05 -1.21368296049604e-22 4.02927888918833e-05)
(4.49673999234232e-05 -1.13548140983511e-07 1.5007553270028e-22 4.5326620314963e-05 -8.3691893526201e-23 4.51394474781371e-05)