/*--------------------------------*- C++ -*----------------------------------*\
  =========                 |
  \\      /  F ield         | OpenFOAM: The Open Source CFD Toolbox
   \\    /   O peration     | Website:  https://openfoam.org
    \\  /    A nd           | Version:  7
     \\/     M anipulation  |
\*---------------------------------------------------------------------------*/
FoamFile
{
    version     2.0;
    format      ascii;
    class       volVectorField;
    location    "20000";
    object      U;
}
// * * * * * * * * * * * * * * * * * * * * * * * * * * * * * * * * * * * * * //

dimensions      [0 1 -1 0 0 0 0];

internalField   nonuniform List<vector> 
15600
(
(0.0109304090572842 -0.000482646593318408 0)
(0.017411461554004 -0.00431280129846982 0)
(-0.0135071286240662 0.00900873357806223 9.26006998357872e-20)
(-0.0127889697537482 0.014103357014214 7.34853013470596e-21)
(-0.00515475292270927 0.00708614597927918 0)
(-0.0029855696263799 0.00457765851218562 -7.07569125597208e-19)
(-0.00213668401694458 0.00345157833007141 -7.81818688720629e-19)
(-0.00168240992976665 0.00276446825673178 8.63506855317648e-19)
(-0.00157585327625019 0.00255665217628672 -9.52789096085138e-19)
(-0.00166125908629186 0.00263749794085024 -1.04223014749379e-18)
(-0.00180434689992725 0.00281043015162742 -1.13151716411933e-18)
(-0.00199177342242871 0.0030438752279221 4.75082049357533e-21)
(-0.00212912257043052 0.00320396881599396 -5.08768574230333e-21)
(-0.00211685301495416 0.00313242527193812 -1.3914208081364e-18)
(-0.0019014134261442 0.00272836353689061 0)
(-0.00142974318845917 0.0019650645356881 -1.63043242522732e-18)
(-0.000652851343310337 0.000887087328409465 0)
(0.000365295939487766 -0.000253925551222633 0)
(0.00145877180365961 -0.00109928510460433 -2.15313355324947e-18)
(0.00224302468455656 -0.00127024058004862 9.23516642699782e-21)
(0.00263766839140881 -0.000868848540085919 1.27093595626437e-18)
(0.00240274911592276 -0.000148928258497642 -3.27467960538638e-19)
(0.00182622570470784 2.44334186718001e-06 1.01840613492015e-20)
(0.0014002671831295 2.00332294740858e-06 -1.0190982099329e-20)
(0.000400995608240861 1.1803795563e-07 0)
(-0.000986535966958744 4.15420447266049e-06 1.83995723335181e-32)
(-0.00281787229179618 1.07755867633374e-05 -1.72127983730434e-16)
(-0.00494439814281151 2.06792125329823e-05 -1.75844911030265e-16)
(-0.00724952032710852 3.14656047357288e-05 0)
(-0.00959385733733394 4.23853714119822e-05 -1.77585697835636e-32)
(-0.0118838197535196 5.24456364326628e-05 0)
(-0.0140549649863064 6.14193384729037e-05 -1.74794191499433e-16)
(-0.0160765910904964 6.91493275138876e-05 -1.80884028832691e-16)
(-0.0179373424924784 7.56902490144096e-05 9.05669729045673e-33)
(-0.0196392486178843 8.10973896793047e-05 -5.12235104393342e-21)
(-0.0211904728703679 8.54584885376337e-05 1.03501873001713e-20)
(-0.0226020755830538 8.88472901652325e-05 -5.2287199148239e-21)
(-0.0238855562365015 9.13355026698647e-05 3.96572604220118e-32)
(-0.0250518504839909 9.2984006034736e-05 1.94225607634055e-16)
(-0.0261107385720661 9.3846634405224e-05 2.04810346746254e-16)
(-0.0270706992625076 9.39694260058889e-05 0)
(-0.027938913984234 9.33925940215775e-05 0)
(-0.0287214017204706 9.21523365184329e-05 0)
(-0.0294231965643161 9.02826619096703e-05 0)
(-0.0300485289333953 8.78159413122438e-05 0)
(-0.0306010055506766 8.47851608274508e-05 0)
(-0.0310837790789395 8.1224818159323e-05 -2.72702167919009e-16)
(-0.0314996487180005 7.71694545527663e-05 -2.87202453259219e-16)
(-0.0318510953253539 7.26517765541937e-05 1.61904956780685e-22)
(-0.0321403199828677 6.7705038673282e-05 -4.17000985500606e-21)
(-0.0323693100663807 6.23650995161144e-05 6.43199217101955e-32)
(-0.0325399085397236 5.66635916501046e-05 3.34109173546949e-32)
(-0.0326538935586557 5.06299572626648e-05 -3.31841173577903e-16)
(-0.0327130849414905 4.42963971147684e-05 -3.46696754490447e-16)
(-0.0327192658339603 3.76972823994213e-05 2.61233303775279e-21)
(-0.0326742276546225 3.08717896546277e-05 -2.61237354473895e-21)
(-0.0325798549677557 2.38591032449589e-05 0)
(-0.032438103739454 1.66953534504983e-05 0)
(-0.0322509890964739 9.4155759774775e-06 0)
(-0.0320205804619403 2.05395371069919e-06 0)
(-0.0317489951045861 -5.35653020968824e-06 -7.98389412569523e-22)
(-0.0314383909631792 -1.27840906207667e-05 7.98753090167723e-22)
(-0.0310909594379653 -2.01984264803747e-05 0)
(-0.030708913969892 -2.75709002535089e-05 0)
(-0.0302944783312812 -3.4874673224178e-05 0)
(-0.0298498766649315 -4.20846643210481e-05 3.69718192099954e-21)
(-0.0293773246994739 -4.91776209675122e-05 -3.69988278394266e-21)
(-0.0288790185057874 -5.61322507240283e-05 0)
(-0.0283571243632144 -6.29290883534566e-05 0)
(-0.0278137711480375 -6.95504745229612e-05 -1.17929808826924e-31)
(-0.0272510425285075 -7.59804818782661e-05 0)
(-0.0266709700110179 -8.22048433938754e-05 8.60007890054763e-21)
(-0.0260755285024306 -8.82107252273933e-05 6.11576251657827e-16)
(-0.025466634325479 -9.39866239389621e-05 1.24339482804133e-15)
(-0.0248461455724132 -9.95221156979837e-05 6.3091930830327e-16)
(-0.0242158685224123 -0.000104807576360166 1.87605555649873e-20)
(-0.0235775720501269 -0.000109833827321483 -3.79212661625702e-20)
(-0.022933014256226 -0.000114591704693412 1.91613651145549e-20)
(-0.0222839867791495 -0.000119071531814138 0)
(-0.0216323827723912 -0.000123262571318317 7.0804214263489e-16)
(-0.0209802930653192 -0.000127152521301128 7.07142935595254e-16)
(-0.0203301268905072 -0.00013072759219325 2.06396142926288e-20)
(-0.0196847596253479 -0.000133972342727493 0)
(-0.0190476865306056 -0.000136871543512445 -2.16661674990487e-20)
(-0.0184231877101477 -0.000139410233757044 2.16888186685081e-20)
(-0.0178165043254381 -0.000141576587567151 0)
(-0.0172340559378733 -0.000143360597225419 0)
(-0.0166835978256986 -0.000144763654024052 0)
(-0.0161744659452565 -0.000145789707542655 2.32752374453853e-20)
(-0.015717436231347 -0.000146481698497698 -2.3294251381306e-20)
(-0.0153249842835923 -0.000146874661776503 -4.77267298662609e-20)
(-0.0150098268299259 -0.000147141981060278 4.77555971686181e-20)
(-0.0147845100067044 -0.000147395153970073 0)
(-0.014654707508539 -0.000148293448093078 4.93741676790905e-20)
(-0.0146063803622989 -0.000150269668096548 -4.93818650665249e-20)
(-0.0145324973821295 -0.000156604120390486 0)
(-0.0143663718952394 -0.000167608944493207 0)
(-0.0130615203821304 -0.000201262420845013 1.8597513196783e-15)
(-0.00936210739932257 -0.000871452446128786 1.82543509923883e-15)
(-0.0064217470948032 -0.00231216433801168 0)
(-0.00623243402318212 -0.00383879110369056 0)
(-0.00638062452192838 -0.00533692124420072 0)
(-0.00653815833578376 -0.0066736188556211 1.02295153105302e-17)
(-0.00662240015396979 -0.00769995273843293 0)
(-0.00650795755940336 -0.00816715234888658 -8.78973477192433e-18)
(-0.00609789944791191 -0.00796399092869416 0)
(-0.00530534539167786 -0.0070238762030088 -1.59770229076984e-17)
(-0.00408645612300967 -0.00534440530419416 -1.92229412949819e-20)
(-0.00242609281490431 -0.00303537786640435 -1.49096706380219e-17)
(-0.000531743698750162 -0.000365251159198795 2.01438191165068e-21)
(0.00157559303549961 0.00266706693679554 0)
(0.00366637872045015 0.00583885479698362 0)
(0.00612330654395664 0.00963964187057204 0)
(0.00935205861776213 0.0144431856184366 5.15902592532195e-18)
(0.0150960859789732 0.0218576897194027 1.08073217993341e-21)
(0.0252410236169849 0.0328282976458539 4.0672399096239e-18)
(0.0522558041594509 0.0545415429256187 -4.34130230398323e-20)
(0.116096417382364 0.0771253490073686 8.69568898381203e-19)
(0.125525625280379 0.0302729148974363 0)
(0.0270212488213666 0.000396510058351182 0)
(0.0625397291065118 -0.000922540795027685 -1.3661036947269e-23)
(0.0569029826797409 -0.0122731083252699 1.34430651192333e-23)
(-0.027060355675354 0.0226518088223517 1.05804071067021e-19)
(-0.0336610176639515 0.039830960956948 1.54903555651023e-16)
(-0.0150427919153666 0.02120872443768 1.66989615997145e-16)
(-0.0086811692560902 0.0137556299163115 5.46270177260753e-22)
(-0.00623605069103097 0.0103897804098912 -1.17195087899536e-21)
(-0.00497798830899972 0.00834653364724326 1.95782074866387e-21)
(-0.00465762667722352 0.00768748759036885 2.94611944538656e-18)
(-0.00488258604913778 0.00789213681424519 6.72441679967345e-22)
(-0.00528330364367507 0.00838364584642211 4.05649110981854e-21)
(-0.00579016678257049 0.00904366467308189 -1.87552310334375e-18)
(-0.00616410989464545 0.00949716943956214 -2.00606846647145e-18)
(-0.00616299137353843 0.00930461354707052 2.15266231001639e-18)
(-0.00567029474185153 0.00818273892511251 -4.4717617392929e-21)
(-0.00456279150260681 0.00605555907459342 0)
(-0.00270314079136689 0.00303844472103541 0)
(-0.000164704131167992 -0.000210214568810857 -1.16978614025211e-20)
(0.00275595850450885 -0.00271598486624265 3.29086483106087e-18)
(0.00512795554059768 -0.00339151281087669 1.40972803281723e-20)
(0.00653774663315348 -0.00237797583030696 9.34266021759283e-22)
(0.00596763968069611 -0.000324965795946906 5.11818635884023e-19)
(0.00392310981868821 0.000110137517627445 -3.09613952955228e-20)
(0.0020320803913173 0.00018875173369434 3.11015427131248e-20)
(-0.00144046041562992 0.000291803425976355 -3.0909760864808e-20)
(-0.00602909065294173 0.000398045306464097 3.03298918781535e-20)
(-0.011740568015438 0.000483911375928506 2.62967866036302e-16)
(-0.0181055293750877 0.000541111994368557 2.4836791585773e-16)
(-0.0247585716130322 0.000564702988370838 0)
(-0.0313325533617799 0.000561022756842844 2.52493530705183e-32)
(-0.0376027392213928 0.000537992477586447 0)
(-0.0434352704136765 0.000504183940713124 2.50040495694494e-16)
(-0.0487819843699567 0.000465672379655519 2.42758769750071e-16)
(-0.0536401939066373 0.000426525810984337 -1.2389663214894e-32)
(-0.0580348427608004 0.00038891067535401 -6.96031273137291e-21)
(-0.0620012222573864 0.000353865092857958 6.89850075712704e-21)
(-0.0655776342184867 0.000321695135329671 7.22053787530299e-21)
(-0.0688004572868472 0.000292341764001907 2.27264156615788e-22)
(-0.0717024603462281 0.000265556375806333 -2.63434145142855e-16)
(-0.074312033124031 0.000241021403104115 -2.65469626217687e-16)
(-0.0766532972663371 0.000218408186753897 -8.07672569196164e-21)
(-0.078746475772801 0.000197411801752046 8.03820741382912e-21)
(-0.080608464189805 0.000177768270573931 8.64473426199952e-21)
(-0.0822534247323651 0.000159259638578652 -8.61184163064363e-21)
(-0.0836933397394612 0.000141711216166118 0)
(-0.0849385128422974 0.000124991513542726 4.82172467506826e-21)
(-0.0859979918561755 0.000109002469368983 3.58371051008765e-16)
(-0.0868798202301222 9.36627976672368e-05 3.67400640962927e-16)
(-0.0875911622837038 7.88997962654113e-05 0)
(-0.0881384342858277 6.46577843890047e-05 0)
(-0.088527470028047 5.08955834803143e-05 5.81975861971819e-21)
(-0.0887637285490738 3.75680242492929e-05 -5.81516505890715e-21)
(-0.088852530984159 2.46563060301255e-05 4.31124587188223e-16)
(-0.0887993537096472 1.2163117964914e-05 4.44165146740112e-16)
(-0.0886094855695456 8.67383194946488e-08 -3.36866886097627e-21)
(-0.0882881727028073 -1.15569965807867e-05 6.85790122263201e-21)
(-0.0878409611907977 -2.27509447872227e-05 -5.29664887211366e-21)
(-0.0872734522771667 -3.34847007322221e-05 1.80734016925264e-21)
(-0.086591343859654 -4.37481240256404e-05 9.66632394862936e-22)
(-0.08580041909659 -5.35320302975571e-05 -9.67682638222195e-22)
(-0.0849065322904484 -6.28288779463269e-05 1.03222261611923e-21)
(-0.0839155926849584 -7.16323800958282e-05 -1.03386977153945e-21)
(-0.082833547156462 -7.99382892705974e-05 2.19936006680571e-21)
(-0.0816663551986029 -8.77447908247686e-05 -6.73999042656431e-21)
(-0.080419964625029 -9.50524648727792e-05 4.5464332003719e-21)
(-0.0791002909513287 -0.000101863772286751 4.81509355524379e-21)
(-0.0777131985451749 -0.000108183231620692 -4.82799923584063e-21)
(-0.0762644782081885 -0.000114017791331406 1.01977589418269e-20)
(-0.0747598280342934 -0.000119376181445836 2.55748505218502e-22)
(-0.0732048396719177 -0.000124268810388982 2.54792750509489e-22)
(-0.0716049851525117 -0.000128707642574021 -1.08089536955063e-20)
(-0.069965607209527 -0.000132705989383137 -1.13533922622137e-20)
(-0.0682919161467302 -0.000136277786523924 -7.99331535085031e-16)
(-0.0665889938065568 -0.000139437307445434 -1.64967259756547e-15)
(-0.0648618058082271 -0.000142198189622667 -8.51426724337339e-16)
(-0.0631152305386855 -0.000144571985016945 2.50461105209701e-20)
(-0.0613541104444111 -0.000146565981772633 -2.51477684791586e-20)
(-0.0595833360459375 -0.000148179970510169 0)
(-0.0578079752395001 -0.000149401662225951 0)
(-0.0560334602957164 -0.000150200945256926 -9.38650417601013e-16)
(-0.0542658391949179 -0.000150523476481363 -9.78013165640567e-16)
(-0.0525120835401428 -0.000150285577808945 -5.66252607164452e-20)
(-0.0507804492289557 -0.00014936815454475 -4.46814199766566e-22)
(-0.0490808516532173 -0.000147617292158019 2.92437561347009e-20)
(-0.047425262028744 -0.00014483685637081 0)
(-0.045828130931426 -0.000140788343006733 -3.08066406751749e-20)
(-0.0443068556790899 -0.000135176617032093 6.23011011381122e-20)
(-0.0428821162258822 -0.000127674177296981 -3.14940763894484e-20)
(-0.0415782004424959 -0.000117887117372976 0)
(-0.0404225389185264 -0.000105486771764971 0)
(-0.0394453233849004 -9.00747805641669e-05 -6.69102660627013e-20)
(-0.0386756858549366 -7.17977215650994e-05 -7.51714783933164e-22)
(-0.0381377706377238 -5.09738327686196e-05 -7.40934274949981e-22)
(-0.0378323175093132 -3.14715821909564e-05 -7.34258228514865e-22)
(-0.0376958978516556 -2.06789642886404e-05 6.97475389520378e-20)
(-0.0374788118747925 -4.71316018504196e-05 0)
(-0.0367697380452294 -0.000152039026312191 7.19972085061687e-20)
(-0.0333399063487313 -0.000523985006064702 -2.53014430056483e-15)
(-0.0252782341999224 -0.00273588336322098 -2.69583317731648e-15)
(-0.0188159651035247 -0.00703396788327686 7.56133770185097e-20)
(-0.0180327591067099 -0.0113070555946437 -7.15174174865291e-20)
(-0.0179048914199763 -0.0154709710450452 1.30639064605326e-19)
(-0.0176763186709364 -0.0190195452303552 -5.95324643060626e-20)
(-0.017160193692913 -0.0215358795517352 -1.41170048115029e-17)
(-0.016149337330528 -0.0224179344932817 -1.32569443008929e-17)
(-0.0144606478582152 -0.0214343655297346 0)
(-0.0119185372629416 -0.0184534553243268 1.21448044776289e-17)
(-0.00845435122907497 -0.0135128097389093 1.01907604147485e-20)
(-0.00405582800610087 -0.00693832940346194 -3.21403121697877e-20)
(0.000833974716658886 0.000610779021051867 -1.09440349274927e-17)
(0.00617422020678395 0.00916455225702763 1.00076609641079e-20)
(0.0115006474060352 0.0182097219342042 -9.53183110489312e-18)
(0.0177412033312243 0.029082770039797 -8.67252860035432e-18)
(0.0260259732972432 0.0428603126218053 -7.86309656555067e-18)
(0.0404672680396241 0.0636930535483441 7.02325575522215e-18)
(0.0661056183375235 0.0938623885516514 -6.75529838330009e-20)
(0.129283349130198 0.14816907338044 -1.2095102688411e-19)
(0.267709495945399 0.197121669554134 -6.58512704057873e-23)
(0.317266547207089 0.0886765729215547 7.57231555071621e-23)
(0.129487613966316 0.00697813896749238 0)
(0.1444294336201 0.000482605216577513 -1.23129653704527e-23)
(0.10475522795232 -0.0196165268908406 -2.79655520174956e-24)
(-0.029308794200669 0.0290091730689225 -1.04757988069688e-19)
(-0.0519964688085281 0.0612548700362228 -1.58997671196056e-16)
(-0.0253897188745803 0.034666839623181 -1.7135244002572e-16)
(-0.0146901795241422 0.0227234591047615 -1.1205672952427e-18)
(-0.0105263736416553 0.017259774070311 0)
(-0.00841295409371905 0.013957073305724 -1.38561643235531e-18)
(-0.00781491420894037 0.0128530811787766 -3.06068774846202e-18)
(-0.00813481302680366 0.0131590054282173 1.67358135234054e-18)
(-0.00876778469027637 0.013947328563143 1.80477408202987e-18)
(-0.00957033222974167 0.014983154853632 1.93320795589063e-18)
(-0.0101785891409862 0.0156800318735122 5.27424983193725e-21)
(-0.0102289815045448 0.0153688464313587 -4.28952613534943e-21)
(-0.00955651288094946 0.0136255267113751 0)
(-0.00799318987358917 0.0103494483098512 0)
(-0.00534239050726697 0.00572647876411884 0)
(-0.00166839542668997 0.000708381705207322 -3.08687224364758e-18)
(0.00269675003196145 -0.003285148601681 -3.38660389674065e-18)
(0.0064854980219277 -0.0046157594125292 -1.44094342143987e-20)
(0.00894576464822226 -0.0033182351221332 8.45476774334828e-22)
(0.0081125275241166 -0.000228208337918613 -5.07411262217903e-19)
(0.00427153708646099 0.000437538008292707 3.17385045621425e-20)
(0.000274512647132399 0.000664703022030207 -1.58496159034574e-20)
(-0.00621703079158868 0.000969438958753102 2.81968514063962e-32)
(-0.0144626794479187 0.00125546596543841 0)
(-0.0242570416216519 0.00146917601380538 1.4349536924346e-20)
(-0.0347851563737616 0.00158869505432721 -1.39035447905499e-20)
(-0.0454349525914333 0.00161374435301089 1.3369293798273e-20)
(-0.0556780601346357 0.00156757089878531 -1.3014089570279e-20)
(-0.0652277919278152 0.00147615207066209 -1.27447004761371e-20)
(-0.0739459204855331 0.00136284916871777 -1.04090669973379e-22)
(-0.0818125167171593 0.00124321235320402 -1.60749400821584e-22)
(-0.0888639822917697 0.0011266000853325 1.22727759414715e-20)
(-0.0951655118810644 0.00101750406436818 0)
(-0.100788749781583 0.000917618058714228 0)
(-0.10580318232476 0.000827009918345402 2.30816646806214e-32)
(-0.110271139339982 0.000744995239620419 0)
(-0.114246737884484 0.000670565924749436 0)
(-0.117775842854589 0.00060264909400334 0)
(-0.120896917042671 0.000540227928881755 -7.07609883120771e-21)
(-0.123642038216184 0.00048240473354798 7.01460674165489e-21)
(-0.12603802097276 0.000428425937410753 0)
(-0.128107454126753 0.000377681256084556 0)
(-0.129869603557667 0.000329688613357984 8.02249593612141e-21)
(-0.131341174889545 0.000284082266827157 -7.97352088441556e-21)
(-0.132536913008022 0.000240582033678701 0)
(-0.133469966049097 0.000198955071367621 0)
(-0.134152102087616 0.000158999684473058 0)
(-0.134593925922066 0.000120547883077454 -4.77045353969154e-21)
(-0.134805088914989 8.34454205492848e-05 4.75383901587166e-21)
(-0.134794609067427 4.75827361951698e-05 0)
(-0.134571251029867 1.29984451462188e-05 0)
(-0.134144180931451 -2.02527913954594e-05 -2.73935718235129e-21)
(-0.133522839802402 -5.21946659191127e-05 -1.00186636259652e-22)
(-0.132716347835193 -8.28254325261676e-05 2.82649849715935e-21)
(-0.131733642233083 -0.00011211669685533 0)
(-0.130583681779019 -0.000140048320591115 -1.5628734045708e-21)
(-0.129275449008072 -0.000166599645854407 1.56183215091255e-21)
(-0.12781794040847 -0.000191752629499964 0)
(-0.126220151079233 -0.000215493250317178 -8.59632858277215e-22)
(-0.124491057264073 -0.000237811047684996 2.63359442081639e-21)
(-0.122639596920976 -0.000258700787153048 -1.77530636617048e-21)
(-0.120674642927087 -0.000278163158741171 0)
(-0.118604978683054 -0.000296204474732398 0)
(-0.116439278379623 -0.000312835660159128 -3.99815149577115e-21)
(-0.114186089083832 -0.000328072574230556 4.00868752146235e-21)
(-0.111853810323468 -0.000341936450704332 8.46812099181115e-21)
(-0.109450679023804 -0.000354452395235878 -8.49644580600913e-21)
(-0.10698476121602 -0.000365648942327403 0)
(-0.104463945934809 -0.000375557488832455 -9.19926872697888e-21)
(-0.101895945417593 -0.00038421135830632 9.23910247563891e-21)
(-0.0992883052937292 -0.000391643834432055 0)
(-0.0966484260155048 -0.000397886751829909 0)
(-0.0939835988234195 -0.000402967400001347 -2.04297120268356e-20)
(-0.091301067134326 -0.000406904027704825 2.05426960168971e-20)
(-0.0886081215757937 -0.000409699376409839 0)
(-0.085912242464056 -0.000411331531446313 0)
(-0.0832213052298357 -0.000411741707701685 -2.2550951932091e-20)
(-0.0805438622461525 -0.000410819803108018 2.27022392613947e-20)
(-0.0778895054889865 -0.000408389305141999 0)
(-0.07526929783935 -0.000404195715314743 2.4206719030235e-20)
(-0.0726962622993491 -0.000397894935636069 -2.43930249280259e-20)
(-0.0701858845013215 -0.000389054641263992 0)
(-0.0677566372076253 -0.000377141396837516 2.59319469607666e-20)
(-0.0654305221768607 -0.00036152369572101 3.64732298097929e-22)
(-0.0632336136717391 -0.000341455971535586 -2.67693264461454e-20)
(-0.0611963663702888 -0.000316144044928018 0)
(-0.0593537071442208 -0.00028472230991318 0)
(-0.0577439330615585 -0.000246564487368621 0)
(-0.0564069987732536 -0.000201162490525846 0)
(-0.0553779832711987 -0.000149491652006405 0)
(-0.0546783436913635 -9.39546159292451e-05 0)
(-0.054286965098636 -4.5928414836321e-05 0)
(-0.0540837893948062 -2.72692884136149e-05 0)
(-0.0537055789353238 -0.000115257488920089 -6.43915766810917e-20)
(-0.0524580247467718 -0.000425070123394261 -6.76816668207566e-22)
(-0.0478329768735589 -0.00129082309967016 6.46576510645768e-20)
(-0.0382111735822642 -0.00481752160116044 2.16257870544175e-18)
(-0.0303381464686987 -0.0116256370318097 0)
(-0.0288608624759509 -0.018145296995203 1.76423613809423e-17)
(-0.0281273319738486 -0.0243440559291731 1.63245980171021e-17)
(-0.0271811907744126 -0.0293488680376599 0)
(-0.0257679726130199 -0.0325575075732132 -6.42560346983303e-20)
(-0.0236341412447223 -0.0331959456964239 3.87559538940786e-20)
(-0.0205361751893613 -0.0310228175010315 -1.25544921795033e-17)
(-0.0162190612590724 -0.0259149100800271 -2.38600672299881e-20)
(-0.0106157965866582 -0.0179921039666519 1.17912010932915e-17)
(-0.00375140543699604 -0.00776888119687764 1.15076501768774e-17)
(0.00377552696456282 0.00389303874513819 0)
(0.0119494424489371 0.0170749027099284 -1.0355560984721e-17)
(0.0201906053693945 0.0311690601029188 4.84434954538959e-21)
(0.0299420403838727 0.0481007443265784 1.64768663769721e-20)
(0.0430269917461138 0.0695098370503803 -7.64778733099906e-21)
(0.0654607017441284 0.100946175622156 -6.98742096774942e-18)
(0.104680743804373 0.145006088414045 -1.15130783344422e-17)
(0.193506413700771 0.215026573820284 -4.0073655443256e-18)
(0.366245725209156 0.263823225470071 1.11002180111598e-22)
(0.454410058293563 0.132035645771209 -1.30899302093264e-22)
(0.255263037579248 0.0181317018816917 -3.74261726764525e-20)
(0.24277122014707 0.00465276761346546 9.74143969499118e-24)
(0.16332391530182 -0.0260652196409153 -2.38606738299262e-23)
(-0.0192750545401745 0.0288088646485636 4.3655037302679e-23)
(-0.0666391666195813 0.0783894096756521 -2.87285649207043e-23)
(-0.0358237200650597 0.0472757791747047 -2.58228007348222e-22)
(-0.0209082267394459 0.0314185911223234 6.345004973932e-21)
(-0.014950735047584 0.024031216933387 -1.89666010007711e-21)
(-0.0119565638872136 0.0195743589317929 1.44035643995455e-18)
(-0.0110291477662416 0.0180409336599925 1.58697110935574e-18)
(-0.0113988640008378 0.0184305080425404 -1.72491252673281e-21)
(-0.0122357100431292 0.0194939451492558 3.62003816557399e-21)
(-0.0133036102343983 0.0208570296681927 -3.93407283721005e-21)
(-0.0141349731441768 0.0217486930167955 4.27172441099434e-18)
(-0.0142715260263317 0.0213201361111123 -8.98754669481578e-21)
(-0.0135208445584824 0.0190482404697663 -2.42587369155806e-18)
(-0.0116980011385903 0.0148330954035416 1.11810199877864e-22)
(-0.00857836523413021 0.00893212767807412 -2.22841823380738e-20)
(-0.00420380266126338 0.00249022417218872 9.92063788997594e-21)
(0.0011375120258973 -0.00278438957089319 6.8798498155883e-18)
(0.00607634061395113 -0.00489379682179434 3.75946929474692e-18)
(0.00958109511510886 -0.00364819074354725 1.67965259595997e-20)
(0.00856752826019159 0.000173893518085435 -3.23912398161177e-20)
(0.00256849978119192 0.00106148575552464 1.60986103909255e-20)
(-0.00418682592252514 0.0015305402887232 -1.57692077125782e-20)
(-0.0142100265183536 0.00213853726051849 3.00216469463896e-20)
(-0.0264193354281074 0.00266789454979618 -2.83819696023621e-20)
(-0.0402348167836065 0.00302951849237542 1.34408088662272e-20)
(-0.0544929108684727 0.00319105854991852 0)
(-0.0683821398071838 0.00317201146928944 0)
(-0.0813137396851293 0.00302662418118924 0)
(-0.0930320748614101 0.00280918194131364 0)
(-0.103469540988313 0.00256300766876612 0)
(-0.112683482389391 0.00231503524038019 0)
(-0.120779296519841 0.00207995063634038 0)
(-0.12787845254382 0.00186387605145413 0)
(-0.134096781706498 0.00166825555655035 -5.28732562321436e-21)
(-0.139537953732589 0.00149206531998753 -1.49240091560249e-22)
(-0.144290770705259 0.00133326678107365 1.05790397429419e-20)
(-0.148430018187447 0.00118950456695131 -5.26668117053457e-21)
(-0.152017934191464 0.00105848826812538 0)
(-0.155106186360869 0.000938157157973108 0)
(-0.157737725344815 0.000826750493744625 -5.77053637516375e-21)
(-0.159948508335663 0.000722821607978477 -2.25345750491935e-22)
(-0.161768961658041 0.000625214779067504 1.18793188498636e-20)
(-0.163225178643268 0.000533024050561245 -5.97485846427012e-21)
(-0.164339878660888 0.000445557351898746 0)
(-0.165133127613675 0.000362275705416758 0)
(-0.165622788323535 0.000282727927119992 -3.38009588466367e-21)
(-0.165824813025426 0.000206517283699677 3.34469974089896e-21)
(-0.165753520564647 0.000133289124268178 0)
(-0.165421783799213 6.27732223298298e-05 0)
(-0.16484141613707 -4.98486812016593e-06 -3.50314468522185e-16)
(-0.164026992646609 -6.99169524128042e-05 -3.63662446580054e-16)
(-0.162990865737679 -0.000132117267760668 -2.00988883833636e-21)
(-0.161744678432029 -0.000191628096921261 4.06243800475684e-21)
(-0.160299778814399 -0.00024846045598691 7.36322842758467e-23)
(-0.158667288446623 -0.000302600799406864 -1.02006243279362e-21)
(-0.15685817055514 -0.000354030898952201 -1.08820563052076e-21)
(-0.154883243322424 -0.000402733045223165 0)
(-0.152753183459096 -0.000448693478682147 0)
(-0.150478524690016 -0.000491904537498317 -6.11837902188169e-22)
(-0.148069653975529 -0.0005323641499849 6.10138426592512e-22)
(-0.145536804338242 -0.000570078295987025 -1.2927123559897e-21)
(-0.142890041289798 -0.000605061819692566 -1.36580362129172e-21)
(-0.140139252055721 -0.000637337674579366 5.38312156266374e-21)
(-0.137294139075889 -0.000666935359975697 7.47620132844819e-23)
(-0.134364214411965 -0.000693891263574676 -2.80361760366441e-21)
(-0.13135879237549 -0.000718248915927376 5.53353747791815e-16)
(-0.128286988551714 -0.000740056411758023 5.63349953704549e-16)
(-0.125157725423612 -0.000759365376287345 -6.07749203937423e-21)
(-0.121979741367117 -0.000776229600994083 0)
(-0.11876160767569 -0.000790702881591887 6.55136502811513e-21)
(-0.115511757875054 -0.000802835216829824 -6.57485546959024e-21)
(-0.11223853086557 -0.000812669426570082 0)
(-0.108950233158985 -0.000820234794828463 0)
(-0.105655231619196 -0.000825538032625001 -1.44869819839379e-20)
(-0.102362086069855 -0.000828550649769233 2.94223777596633e-20)
(-0.0990797362205613 -0.00082919165553293 -1.49463334186072e-20)
(-0.0958177581892533 -0.000827305309127224 0)
(-0.0925867022440552 -0.000822635735218826 0)
(-0.0893985132510438 -0.000814801432041093 0)
(-0.0862670180138035 -0.000803276158354559 -1.68233077496615e-20)
(-0.0832084671150713 -0.000787371752051005 1.69931663442706e-20)
(-0.0802420826871621 -0.000766240292770329 1.77114530923038e-20)
(-0.0773906253026648 -0.000738857724862031 -1.7926702894187e-20)
(-0.0746809495240233 -0.000704035799483167 -3.73720843733485e-20)
(-0.0721445079307838 -0.000660420947713798 7.63471398899028e-20)
(-0.0698174801459661 -0.000606630692885193 -7.85902825746053e-20)
(-0.0677404825416562 -0.000541307569834675 4.02337714793155e-20)
(-0.0659565831087769 -0.000463708100002613 0)
(-0.0645080772046007 -0.000373803921370817 -4.33031471179793e-20)
(-0.0634268928238551 -0.00027466347313099 -4.94912132571117e-22)
(-0.0627216275611865 -0.000173235848979196 4.5488347059635e-20)
(-0.0623413399710323 -9.24872396452424e-05 -4.72200639401846e-20)
(-0.0621206365565035 -7.47339729091009e-05 9.60033346322031e-20)
(-0.0616399965121906 -0.000252884274132008 5.00499727606254e-22)
(-0.0602002517070212 -0.000819603095954669 -9.79009224109833e-20)
(-0.0557187115753226 -0.00217447914368102 -4.9747469100474e-22)
(-0.0470674673320393 -0.00664001363084971 -1.6205845788405e-18)
(-0.039699641633671 -0.0154680296214888 0)
(-0.0375514140982959 -0.0236439987867003 -1.52438048615378e-17)
(-0.0359504811880924 -0.0311383743282469 -1.44799122606519e-17)
(-0.0340172834496166 -0.0368204646914126 5.24283368396021e-20)
(-0.0314813610178025 -0.0400065240781158 1.26302787713527e-17)
(-0.0280817083803246 -0.0398977498811798 -5.67820795183618e-20)
(-0.0235518585811624 -0.0363286679880056 1.13913800508552e-17)
(-0.0175782863872182 -0.029226187877778 -6.40064017709118e-20)
(-0.0101219673289889 -0.0188068825229537 -1.06653684769556e-17)
(-0.00125764645774253 -0.00570592986643938 1.04444069851144e-17)
(0.00837025153011193 0.00919669179248917 0)
(0.0188062120837988 0.0260546265784757 9.62182860672732e-18)
(0.0294895474060467 0.0443271011671098 9.06010339156343e-18)
(0.0422655113525879 0.0662435718545007 1.32390654325462e-20)
(0.059570661987242 0.0938023691206216 0)
(0.0886355824106636 0.132843676990193 0)
(0.138194598432132 0.18508334198172 5.08082856645788e-18)
(0.240156939350638 0.255927178105262 -3.02189013396127e-18)
(0.416821830302042 0.288312579377337 0)
(0.531719556084281 0.154876644058595 -1.20652194976571e-18)
(0.36915256826118 0.0298097521420121 3.0182586025512e-20)
(0.332160649232659 0.0106174398153977 2.16384955427737e-22)
(0.228467044933535 -0.030751122393972 0)
(0.00322369919855421 0.0228799001090077 0)
(-0.076589052724841 0.0910809555574876 -5.76450523805076e-23)
(-0.0459673317887557 0.0588375960436717 5.34375987679076e-23)
(-0.0272530560995754 0.0397583003831753 1.1816377192931e-18)
(-0.0194730293963702 0.0306625003085535 -6.32729245339463e-22)
(-0.0155876961696385 0.025169894839304 -1.46812668472399e-21)
(-0.0142874987564171 0.0232308541083549 -2.7417822624285e-23)
(-0.0146620636591242 0.0236898630784086 1.73374867018472e-21)
(-0.0156715017584334 0.0250047143845789 3.78560675624106e-21)
(-0.0169704956636663 0.0266455743418655 2.05280652746132e-18)
(-0.0180073146026857 0.0276843092049953 -2.19162936815274e-18)
(-0.0182572027449538 0.0271419192930155 0)
(-0.0175232718120383 0.0244380667777244 2.49455965440402e-18)
(-0.0156318821277096 0.0194981140690447 2.6630866046063e-18)
(-0.0123640107191487 0.0126495119130626 0)
(-0.00773891298178232 0.00513988228219863 -2.09321448872937e-21)