/*--------------------------------*- C++ -*----------------------------------*\
  =========                 |
  \\      /  F ield         | OpenFOAM: The Open Source CFD Toolbox
   \\    /   O peration     | Website:  https://openfoam.org
    \\  /    A nd           | Version:  7
     \\/     M anipulation  |
\*---------------------------------------------------------------------------*/
FoamFile
{
    version     2.0;
    format      ascii;
    class       volScalarField;
    location    "20000";
    object      walldist;
}
// * * * * * * * * * * * * * * * * * * * * * * * * * * * * * * * * * * * * * //

dimensions      [0 1 0 0 0 0 0];

internalField   nonuniform List<scalar> 
15600
(
0.00195585298178502
0.00190490760713651
0.00159959810663623
0.00134209942516264
0.00127076740331827
0.00128586552781109
0.00134927856904271
0.00145083130739265
0.00157603595845908
0.00169991514703744
0.00181896292550923
0.00193220872576947
0.00203894340308904
0.00214877511451439
0.00228157702269769
0.002444838555908
0.0026495089480702
0.00291216760281921
0.00322480242199605
0.00356349950913233
0.00385989410273628
0.00394214031281487
0.00391081711043293
0.00391081711043294
0.00391081711043299
0.00391081711043295
0.00391081711043314
0.00391081711043295
0.0039108171104332
0.00391081711043295
0.00391081711043302
0.00391081711043296
0.00391081711043294
0.00391081711043292
0.00391081711043315
0.00391081711043292
0.00391081711043294
0.00391081711043299
0.00391081711043304
0.00391081711043296
0.00391081711043299
0.00391081711043298
0.0039108171104332
0.003910817110433
0.00391081711043305
0.00391081711043302
0.00391081711043296
0.00391081711043294
0.0039108171104329
0.00391081711043306
0.00391081711043293
0.00391081711043304
0.00391081711043299
0.00391081711043304
0.00391081711043305
0.00391081711043295
0.00391081711043299
0.00391081711043294
0.00391081711043299
0.00391081711043294
0.00391081711043281
0.00391081711043306
0.00391081711043294
0.00391081711043289
0.0039108171104332
0.003910817110433
0.00391081711043307
0.00391081711043308
0.0039108171104331
0.00391081711043289
0.00391081711043304
0.00391081711043289
0.003910817110433
0.003910817110433
0.00391081711043292
0.003910817110433
0.0039108171104331
0.00391081711043311
0.00391081711043297
0.00391081711043302
0.00391081711043304
0.00391081711043305
0.00391081711043293
0.00391081711043294
0.00391081711043299
0.00391081711043291
0.00391081711043302
0.00391081711043299
0.00391081711043305
0.00391081711043305
0.00391081711043304
0.00391081711043307
0.00391081711043293
0.00391081711043304
0.00391081711043299
0.00391081711043287
0.00391081711043294
0.00391081711043297
0.00394179699782161
0.00386135715662255
0.0035657025135736
0.00322697981404383
0.00291411144105943
0.0026510634563614
0.00244608130310629
0.00228259964511499
0.00214962567547708
0.00203969500603515
0.00193299714794653
0.00181979170399684
0.00170077856089231
0.00157692754558051
0.00145167867287645
0.00134989729943172
0.00128622247469923
0.00127074079278874
0.00134127694172138
0.00159733396677238
0.00190387638401607
0.0019558727573223
0.00593999388099002
0.00597049629626393
0.00601613514662525
0.00615566968990303
0.00641915190374042
0.00674691509299141
0.00710813140981575
0.00748805811845326
0.00787302893081305
0.00825155209420849
0.00862379803449798
0.00899092399745713
0.00935409753752525
0.00971600144369206
0.0100788212083685
0.0104396865082918
0.0107944557459592
0.0111364410810084
0.0114520503671242
0.0117230221369658
0.011921589573005
0.0120099741094642
0.012016946600501
0.0120095880365734
0.0120024240225424
0.0119954549069779
0.0119886810297687
0.011982102722039
0.0119757203060702
0.0119695340952228
0.011963544393863
0.0119577514972895
0.0119521556916599
0.011946757253924
0.0119415564517554
0.0119365535434856
0.0119317487780406
0.0119271423948834
0.01192273462395
0.0119185256855955
0.0119145157905396
0.0119107051398145
0.0119070939247133
0.0119036823267444
0.0119004705175846
0.0118974586590381
0.0118946469029938
0.0118920353913882
0.0118896242561708
0.0118874136192687
0.011885403592558
0.0118835942778337
0.0118819857667855
0.0118805781409737
0.0118793714718087
0.0118783658205341
0.0118775612382085
0.0118769577656955
0.0118765554336518
0.0118763542625184
0.0118763542625184
0.0118765554336516
0.0118769577656955
0.0118775612382087
0.011878365820534
0.0118793714718089
0.0118805781409737
0.0118819857667855
0.0118835942778337
0.0118854035925581
0.0118874136192687
0.0118896242561709
0.0118920353913884
0.0118946469029935
0.0118974586590379
0.0119004705175845
0.011903682326744
0.0119070939247128
0.0119107051398146
0.0119145157905399
0.0119185256855953
0.0119227346239499
0.0119271423948834
0.0119317487780405
0.011936553543485
0.0119415564517556
0.011946757253924
0.01195215569166
0.0119577514972894
0.0119635443938631
0.0119695340952222
0.0119757203060701
0.0119821027220394
0.0119886810297691
0.0119954549069779
0.012002424022542
0.0120095880365733
0.0120169466005008
0.0120102470468851
0.011922590710119
0.011724609836264
0.0114540002313611
0.0111386171745602
0.0107967397374384
0.0104420360790495
0.010081189902363
0.00971837203936291
0.00935645951928172
0.00899330525185596
0.00862620755492642
0.00825399713614271
0.00787551636215138
0.00749056742594281
0.00711056218975573
0.00674919044188782
0.00642111954551074
0.00615706883825963
0.00601657588970356
0.00597075761017646
0.00594009036751175
0.0100699478870145
0.0101362338619202
0.0102996349876415
0.0106302967809427
0.0111174413329144
0.0116815200528654
0.0122852050984634
0.0129102875419307
0.0135406473138202
0.0141637574455091
0.014779764557834
0.0153900217716526
0.0159960179778113
0.0166004457487878
0.0172043645795208
0.0178026612446744
0.0183879136167863
0.0189480989510661
0.0194617767567695
0.0198996634715898
0.0202176272557592
0.0203595079716152
0.0203720255055214
0.0203595507182901
0.0203474057465744
0.0203355911812989
0.0203241075986666
0.0203129555600242
0.0203021356117267
0.0202916482850079
0.0202814940958507
0.0202716735448681
0.0202621871171761
0.0202530352822794
0.0202442184939597
0.0202357371901585
0.020227591792876
0.0202197827080651
0.0202123103255319
0.0202051750188389
0.0201983771452137
0.0201919170454604
0.0201857950438747
0.0201800114481618
0.0201745665493623
0.0201694606217777
0.0201646939229021
0.0201602666933568
0.0201561791568317
0.020152431520028
0.0201490239726051
0.0201459566871341
0.0201432298190545
0.020140843506633
0.0201387978709303
0.0201370930157702
0.0201357290277125
0.0201347059760312
0.0201340239126971
0.0201336828723656
0.0201336828723655
0.0201340239126972
0.0201347059760312
0.0201357290277125
0.0201370930157705
0.0201387978709304
0.0201408435066328
0.0201432298190545
0.0201459566871341
0.0201490239726051
0.0201524315200279
0.0201561791568319
0.0201602666933566
0.0201646939229019
0.0201694606217778
0.0201745665493622
0.0201800114481617
0.0201857950438744
0.0201919170454608
0.0201983771452137
0.0202051750188388
0.0202123103255318
0.0202197827080651
0.0202275917928756
0.0202357371901583
0.0202442184939595
0.0202530352822795
0.0202621871171755
0.0202716735448683
0.0202814940958511
0.0202916482850074
0.0203021356117271
0.0203129555600247
0.0203241075986671
0.0203355911812992
0.0203474057465747
0.0203595507182903
0.0203720255055213
0.0203599710892171
0.0202192278217316
0.0199022192879082
0.0194649408621794
0.0189516496467475
0.0183916695830627
0.017806540360938
0.0172082956232195
0.0166043913674625
0.0159999571602862
0.0153939787418697
0.0147837508117368
0.0141677817253389
0.0135447166584586
0.0129143786755452
0.0122892077072972
0.0116853394144512
0.0111208932324896
0.0106330563429797
0.0103011021666707
0.0101369531360364
0.0100701139750791
0.0143511939030487
0.0144547124317478
0.014740833837941
0.0152700116080918
0.0159890195165799
0.016797963488458
0.0176528675799968
0.0185319552073064
0.0194165755598917
0.0202931371821457
0.0211617578977452
0.022023989996207
0.022881652506378
0.0237374437866211
0.024591251421288
0.0254356361203843
0.0262597733335411
0.0270461068651106
0.0277650601362698
0.0283759236682595
0.028817605068428
0.0290149103504206
0.0290331744264335
0.029015395994263
0.0289980875983883
0.0289812500809637
0.0289648842631659
0.0289489909449965
0.0289335709050933
0.0289186249005428
0.0289041536666995
0.0288901579170096
0.0288766383428373
0.0288635956132965
0.0288510303750922
0.0288389432523585
0.0288273348465074
0.0288162057360829
0.0288055564766159
0.0287953876004898
0.0287856996168069
0.0287764930112636
0.0287677682460293
0.0287595257596309
0.0287517659668436
0.0287444892585884
0.0287376960018323
0.0287313865394977
0.0287255611903748
0.0287202202490443
0.0287153639857988
0.0287109926465786
0.0287071064529068
0.0287037056018355
0.0287007902658935
0.0286983605930452
0.0286964167066515
0.0286949587054376
0.0286939866634708
0.0286935006301385
0.0286935006301386
0.0286939866634707
0.0286949587054377
0.0286964167066516
0.0286983605930454
0.0287007902658936
0.0287037056018354
0.0287071064529067
0.0287109926465784
0.0287153639857988
0.0287202202490442
0.0287255611903751
0.0287313865394974
0.0287376960018325
0.0287444892585885
0.0287517659668438
0.0287595257596309
0.0287677682460294
0.0287764930112641
0.0287856996168074
0.02879538760049
0.0288055564766161
0.0288162057360829
0.0288273348465074
0.0288389432523582
0.0288510303750925
0.0288635956132964
0.028876638342837
0.0288901579170099
0.0289041536666999
0.0289186249005425
0.028933570905093
0.0289489909449967
0.0289648842631661
0.0289812500809641
0.0289980875983882
0.0290153959942637
0.0290331744264333
0.0290155705570825
0.0288198267211884
0.0283794827160982
0.0277694826364643
0.0270510822118791
0.0262650549367025
0.0254411005301741
0.0245968017868707
0.0237430218417803
0.0228872263644247
0.0220295800356841
0.021167378193046
0.0202987979966211
0.019422284083847
0.0185376852909697
0.0176584987082127
0.0168033825682966
0.0159940096269093
0.0152741822133367
0.014743369364874
0.0144559090149824
0.0143514321638895
0.0187892740360712
0.0189314360235982
0.019344987910793
0.0200800748739625
0.0210394375768046
0.0221021806976596
0.0232174646830231
0.0243598217029645
0.0255079805400804
0.0266472484204436
0.0277777122162381
0.028901129614014
0.0300196610295214
0.0311360095301222
0.032248846427062
0.0333483207739132
0.0344200803125961
0.0354408315514392
0.036372563601047
0.0371627225018503
0.0377326354774676
0.0379873849200035
0.0380116055285538
0.0379883291640524
0.0379656681933068
0.0379436237189058
0.0379221968159721
0.0379013885319064
0.0378811998861379
0.03786163186988
0.0378426854458933
0.0378243615482553
0.0378066610821327
0.0377895849235621
0.0377731339192395
0.0377573088863107
0.0377421106121729
0.0377275398542833
0.0377135973399687
0.0377002837662513
0.0376875997996721
0.0376755460761273
0.0376641232007106
0.0376533317475628
0.0376431722597275
0.0376336452490162
0.0376247511958796
0.0376164905492881
0.0376088637266175
0.0376018711135455
0.0375955130639532
0.0375897898998364
0.0375847019112243
0.037580249356106
0.0375764324603655
0.037573251417724
0.037570706389691
0.0375687975055235
0.0375675248621928
0.0375668885243599
0.0375668885243599
0.0375675248621928
0.0375687975055236
0.0375707063896911
0.0375732514177242
0.0375764324603655
0.037580249356106
0.0375847019112241
0.0375897898998361
0.0375955130639534
0.0376018711135458
0.0376088637266175
0.0376164905492881
0.0376247511958797
0.0376336452490161
0.0376431722597275
0.0376533317475628
0.0376641232007108
0.0376755460761276
0.0376875997996723
0.0377002837662514
0.037713597339969
0.0377275398542832
0.0377421106121727
0.0377573088863103
0.03777313391924
0.0377895849235625
0.0378066610821329
0.0378243615482557
0.0378426854458934
0.0378616318698794
0.0378811998861375
0.0379013885319065
0.0379221968159725
0.0379436237189058
0.0379656681933067
0.0379883291640531
0.0380116055285534
0.0379882494162384
0.037735500865021
0.0371673214116203
0.0363782904829685
0.0354472836356929
0.0344269433556919
0.0333554284590051
0.0322560753510779
0.0311432797311975
0.0300269293487328
0.0289084124286429
0.0277850262692692
0.0266546055465632
0.0255153880799585
0.0243672505248325
0.0232247837117781
0.0221092578232454
0.0210460220954381
0.0200857084319869
0.0193486323251282
0.0189331282732599
0.018789587120965
0.0233899335042986
0.0235721764139862
0.0241179252945912
0.0250665163252066
0.0262750345363711
0.0276008566593697
0.0289860404063991
0.0304012940378788
0.0318226304913145
0.0332342157673717
0.0346361042752668
0.0360302662525433
0.0374192156988786
0.0388056600768548
0.0401870092977
0.0415509121967091
0.0428793592233518
0.0441431088147751
0.0452954066474084
0.0462714204059457
0.0469742537201178
0.0472885465721591
0.0473189417058063
0.0472899660043163
0.0472617563788926
0.0472343142020991
0.047207640812308
0.0471817375133807
0.0471566055743596
0.0471322462291613
0.0471086606762839
0.0470858500785179
0.0470638155626647
0.0470425582192635
0.0470220791023274
0.0470023792290851
0.0469834595797317
0.0469653210971917
0.0469479646868826
0.0469313912164945
0.0469156015157749
0.0469005963763229
0.0468863765513922
0.0468729427557043
0.046860295665271
0.0468484359172228
0.0468373641096514
0.0468270808014592
0.0468175865122197
0.0468088817220453
0.0468009668714664
0.0467938423613211
0.0467875085526545
0.0467819657666251
0.0467772142844253
0.0467732543472109
0.0467700861560374
0.0467677098718107
0.0467661256152461
0.0467653334668379
0.0467653334668377
0.0467661256152462
0.0467677098718107
0.0467700861560374
0.0467732543472111
0.0467772142844255
0.0467819657666249
0.0467875085526543
0.0467938423613211
0.0468009668714664
0.0468088817220452
0.0468175865122198
0.0468270808014594
0.046837364109651
0.0468484359172224
0.0468602956652707
0.0468729427557044
0.0468863765513917
0.0469005963763228
0.0469156015157746
0.0469313912164945
0.0469479646868825
0.0469653210971913
0.0469834595797315
0.0470023792290846
0.0470220791023277
0.0470425582192635
0.0470638155626652
0.047085850078518
0.0471086606762843
0.0471322462291608
0.0471566055743592
0.0471817375133811
0.0472076408123085
0.0472343142020997
0.0472617563788929
0.0472899660043169
0.0473189417058061
0.0472896228329351
0.0469777863742413
0.046277097212858
0.045302485641581
0.0441510916865568
0.0428878616012085
0.0415597233148268
0.0401959782346361
0.0388146843726098
0.0374282405101617
0.0360393038028511
0.0346451740723938
0.0332433312731341
0.0318317992002783
0.0304104837256274
0.0289951090517756
0.027609652445961
0.0262832717915285
0.0250736665041879
0.0241227198484504
0.0235743828924754
0.0233903241577359
0.0281591280081169
0.028382932201277
0.0290657744217081
0.0302357163671292
0.0317025125252098
0.0333010404866629
0.034966001473703
0.0366641406140733
0.0383686551026344
0.0400625276570521
0.0417457789213498
0.0434205993615865
0.0440081045868953
0.0444387123072266
0.0451949559836296
0.0465695998630486
0.0488040578106925
0.0522942297962646
0.0545451313872661
0.05571380343538
0.0565544212567029
0.0569304358663414
0.0569672316264579
0.0569323478053323
0.056898386262498
0.056865348650384
0.0568332365802545
0.0568020516218288
0.0567717953029034
0.0567424691089912
0.0567140744829622
0.0566866128247002
0.0566600854907589
0.0566344937940377
0.0566098390034626
0.0565861223436732
0.0565633449947269
0.0565415080918089
0.056520612724951
0.0565006599387638
0.0564816507321803
0.0564635860582049
0.0564464668236807
0.0564302938890594
0.0564150680681903
0.0564007901281149
0.0563874607888756
0.0563750807233346
0.0563636505570048
0.0563531708678942
0.0563436421863561
0.0563350649949604
0.0563274397283674
0.056320766773221
0.0563150464680477
0.0563102791031742
0.0563064649206522
0.0563036041141955
0.0563016968291338
0.0563007431623729
0.056300743162373
0.0563016968291337
0.0563036041141956
0.0563064649206523
0.0563102791031744
0.0563150464680478
0.056320766773221
0.0563274397283675
0.0563350649949605
0.056343642186356
0.0563531708678941
0.0563636505570051
0.0563750807233345
0.0563874607888756
0.0564007901281147
0.0564150680681901
0.0564302938890589
0.0564464668236804
0.0564635860582052
0.05648165073218
0.0565006599387638
0.0565206127249505
0.056541508091809
0.0565633449947267
0.0565861223436728
0.0566098390034623
0.056634493794038
0.0566600854907591
0.0566866128247001
0.0567140744829624
0.0567424691089904
0.0567717953029033
0.056802051621829
0.0568332365802556
0.0568653486503847
0.0568983862624982
0.0569323478053327
0.0569672316264578
0.0569317316446358
0.0565586455920993
0.0557205975922391
0.0545536119954431
0.0523234945340876
0.0488233389464573
0.0465818401328301
0.0452032433606083
0.0444435946876749
0.0440119774556238
0.0434314559038921
0.0417566687515035
0.0400734659231138
0.0383796494585082
0.0366751556283827
0.0349768837732484
0.0333116178270932
0.0317124630088887
0.0302444387474518
0.0290717615832817
0.0283856719696412
0.0281595990736138
0.0331030314264162
0.0333699268999008
0.0341949171717896
0.0355943320110414
0.0373288623021485
0.0392100788022196
0.0403803505506607
0.040038787338568
0.0404037148819064
0.0411443721032148
0.04196695899872
0.0428018479964904
0.0436125087586087
0.0444814040970531
0.0457291512566364
0.0476770260572368
0.0505718553851696
0.0548279060249299
0.0608229544972354
0.0655020925797199
0.066485538956232
0.0669255344987074
0.066968965329981
0.0669279569583113
0.0668880327892811
0.0668491947654368
0.0668114447809324
0.0667747846810816
0.0667392162619175
0.0667047412697629
0.0666713614008137
0.0666390783007304
0.0666078935642376
0.0665778087347395
0.0665488253039474
0.066520944711512
0.0664941683446717
0.0664684975379172
0.0664439335726567
0.066420477676903
0.0663981310249716
0.0663768947371865
0.0663567698796041
0.0663377574637468
0.0663198584463503
0.0663030737291262
0.0662874041585343
0.0662728505255714
0.0662594135655722
0.0662470939580243
0.0662358923263959
0.0662258092379815
0.0662168452037551
0.0662090006782425
0.066202276059407
0.0661966716885467
0.0661921878502101
0.0661888247721224
0.0661865826251277
0.0661854615231467
0.0661854615231467
0.0661865826251277
0.0661888247721225
0.0661921878502102
0.0661966716885468
0.0662022760594069
0.0662090006782427
0.066216845203755
0.0662258092379815
0.0662358923263961
0.0662470939580243
0.0662594135655722
0.0662728505255715
0.0662874041585344
0.0663030737291262
0.0663198584463503
0.0663377574637464
0.0663567698796039
0.0663768947371866
0.0663981310249717
0.066420477676903
0.0664439335726563
0.0664684975379172
0.0664941683446713
0.0665209447115114
0.0665488253039478
0.06657780873474
0.0666078935642378
0.0666390783007304
0.066671361400814
0.0667047412697628
0.0667392162619173
0.0667747846810819
0.0668114447809331
0.0668491947654372
0.0668880327892817
0.0669279569583117
0.0669689653299809
0.0669270578335052
0.0664904802916863
0.0655100449958551
0.0608688892866405
0.0548625050648794
0.050595914226223
0.0476935570972991
0.0457410647257156
0.0444895017220682
0.0436194003599525
0.0428087970630068
0.0419739267318709
0.0411511654951531
0.0404093380310383
0.0400404113652962
0.0403763657938966
0.0392225029196679
0.0373405887343836
0.0356046841833108
0.0342021408269587
0.0333732196321406
0.033103585850944
0.0382280438046992
0.0385396141552026
0.0395119811652874
0.0411492817336488
0.0422678686712317
0.0396221151261854
0.0385263782094246
0.0385083929700369
0.0393546134535732
0.0406408623257356
0.0420104466509124
0.0433825900991854
0.0447170232567822
0.0461079901036774
0.0479076119804608
0.0504512866674455
0.05398231562407
0.058924420103728
0.0656576474011507
0.0744545509882841
0.0767804624731298
0.0772867814249463
0.0773370903952382
0.0772897331136802
0.07724362789085
0.0771987769700389
0.0771551825386537
0.0771128467276988
0.0770717716112683
0.0770319592060524
0.0769934114708504
0.0769561303061035
0.0769201175534318
0.0768853749951894
0.0768519043540338
0.0768197072925017
0.0767887854126047
0.0767591402554378
0.0767307733007973
0.0767036859668175
0.0766778796096199
0.0766533555229777
0.0766301149379936
0.0766081590227939
0.0765874888822365
0.0765681055576348
0.0765500100264983
0.0765332032022851
0.0765176859341746
0.0765034590068528
0.0764905231403135
0.0764788789896783
0.0764685271450309
0.0764594681312674
0.0764517024079625
0.0764452303692549
0.0764400523437465
0.0764361685944187
0.076433579318566
0.076432284647746
0.076432284647746
0.076433579318566
0.0764361685944187
0.0764400523437465
0.0764452303692548
0.0764517024079625
0.0764594681312672
0.076468527145031
0.0764788789896783
0.0764905231403135
0.0765034590068528
0.0765176859341747
0.0765332032022854
0.0765500100264983
0.0765681055576348
0.0765874888822362
0.0766081590227939
0.0766301149379935
0.076653355522978
0.07667787960962
0.0767036859668173
0.0767307733007973
0.0767591402554378
0.0767887854126046
0.0768197072925012
0.0768519043540338
0.0768853749951894
0.0769201175534319
0.0769561303061035
0.0769934114708508
0.0770319592060519
0.0770717716112682
0.0771128467276987
0.0771551825386538
0.077198776970039
0.0772436278908505
0.0772897331136802
0.0773370903952381
0.0772885406508125
0.0767861470599688
0.0745195646282665
0.0657086757229984
0.0589636148096028
0.0540107750594918
0.050472065535488
0.0479233701775626
0.0461197333071275
0.0447274695213287
0.0433932228687352
0.0420211960264563
0.0406514861167511
0.039363946824174
0.0385130786980148
0.0385242611116663
0.0396133415560507
0.0422457601347625
0.0411613233834152
0.0395204867337752
0.0385434802005673
0.0382286846428018
0.0435407996383744
0.0438986850519477
0.0450238424995257
0.0469077457871025
0.0412531335416126
0.0385233870562212
0.03768048802212
0.0381302395786306
0.0395792776864652
0.0415050502552779
0.0434959986037838
0.045465300352796
0.047372991006259
0.0493235460948472
0.0516884078171568
0.0548070800205114
0.0589170014094999
0.0644480674678884
0.0717872855583084
0.0812222023369268
0.0874525186397528
0.0880275895967865
0.0880850287009115
0.0880310899312491
0.0879785772254377
0.0879274931385299
0.0878778401619288
0.0878296207227959
0.0877828371834728
0.0877374918409183
0.0876935869261582
0.0876511246037468
0.0876101069712439
0.0875705360587064
0.0875324138281988
0.0874957421733092
0.0874605229186892
0.0874267578196073
0.087394448561515
0.0873635967596327
0.0873342039585488
0.0873062716318383
0.0872798011816977
0.0872547939385927
0.0872312511609301
0.0872091740347396
0.0871885636733805
0.0871694211172591
0.0871517473335685
0.0871355432160475
0.0871208095847516
0.0871075471858478
0.0870957566914268
0.087085438699331
0.0870765937330064
0.0870692222413665
0.0870633245986806
0.0870589011044779
0.0870559519834723
0.0870544773855046
0.0870544773855045
0.0870559519834723
0.087058901104478
0.0870633245986805
0.0870692222413668
0.0870765937330064
0.0870854386993311
0.0870957566914266
0.0871075471858477
0.0871208095847515
0.0871355432160477
0.0871517473335687
0.0871694211172586
0.08718856367338
0.0872091740347396
0.08723125116093
0.0872547939385926
0.0872798011816974
0.0873062716318386
0.0873342039585485
0.0873635967596326
0.0873944485615149
0.0874267578196074
0.0874605229186887
0.0874957421733082
0.0875324138281984
0.0875705360587068
0.0876101069712437
0.0876511246037469
0.0876935869261586
0.0877374918409185
0.0877828371834725
0.0878296207227959
0.0878778401619295
0.0879274931385303
0.0879785772254376
0.0880310899312491
0.0880850287009118
0.0880295933542612
0.0874589736937658
0.0812916664410505
0.0718424337949387
0.0644910802583981
0.058949317336245
0.0548317962386401
0.0517079278685138
0.049339047689683
0.0473872150170088
0.045479902358946
0.043510899308118
0.0415199861466212
0.0395929635634539
0.038138840142413
0.0376812078841149
0.038515648190126
0.0412291790555409
0.0469215387767107
0.0450336770215616
0.0439031454787208
0.0435415300562821
0.04904817646039
0.0494540763283279
0.0507376321583934
0.0484670198831781
0.0411235374844963
0.0384730544544758
0.0380353343769498
0.0390722051786467
0.0411967241206858
0.0437997478961567
0.0464328791758187
0.0490103176424075
0.0514966390854861
0.0540049375346822
0.0569161749007009
0.060568345173148
0.0651936708735837
0.0712263575129414
0.0790627564545777
0.0890100902864275
0.0985155226111743
0.0991618633193131
0.0992266937998682
0.0991659324439356
0.0991067775312678
0.0990492319401002
0.0989932984769664
0.0989389798760346
0.0988862787984535
0.0988351978317196
0.0987857394890535
0.0987379062088003
0.098691700353835
0.0986471242109917
0.0986041799905113
0.0985628698254974
0.0985231957713978
0.098485159805501
0.0984487638264465
0.09841400965376
0.0983808990274015
0.0983494336073356
0.0983196149731183
0.0982914446235036
0.0982649239760697
0.0982400543668665
0.0982168370500774
0.0981952731977087
0.0981753638992911
0.0981571101616099
0.0981405129084474
0.0981255729803523
0.0981122911344253
0.0981006680441294
0.0980907042991193
0.0980824004050912
0.0980757567836544
0.098070773772225
0.0980674516239404
0.0980657905075942
0.0980657905075945
0.0980674516239406
0.0980707737722251
0.0980757567836546
0.0980824004050912
0.0980907042991195
0.0981006680441294
0.098112291134425
0.0981255729803518
0.0981405129084475
0.0981571101616102
0.0981753638992912
0.0981952731977083
0.0982168370500775
0.0982400543668667
0.0982649239760697
0.098291444623503
0.098319614973118
0.0983494336073359
0.0983808990274016
0.0984140096537596
0.0984487638264463
0.0984851598055009
0.0985231957713977
0.0985628698254968
0.0986041799905114
0.0986471242109918
0.0986917003538349
0.0987379062088003
0.0987857394890542
0.0988351978317193
0.0988862787984534
0.0989389798760349
0.098993298476967
0.0990492319401005
0.0991067775312679
0.0991659324439361
0.0992266937998683
0.0991641205658928
0.0985227763467457
0.0890831219001117
0.0791212388811624
0.0712725360666692
0.0652293205094735
0.0605966023125994
0.0569392118319138
0.0540240797827697
0.0515145955698521
0.0490288672889392
0.0464519549924957
0.0438190986072596
0.0412150198131898
0.0390852778768201
0.0380397566163625
0.0384673309465195
0.0410987464617803
0.0484003520276742
0.0507488443699368
0.0494591529601942
0.0490489997401898
0.054757303743753
0.0552129791417256
0.0566607440569544
0.0496921295158144
0.0419882964127139
0.0395934315780716
0.0396890341435265
0.0413818156982122
0.0441955911814239
0.0474616667978389
0.0507159826262581
0.053879200984749
0.0569227484882388
0.0599661965360843
0.0633928898227595
0.0675362499470599
0.0726240643624181
0.0790926122738721
0.0873470529759455
0.0977145262284837
0.109983795697759
0.110704016247131
0.110776508929947
0.110708675057525
0.11064263461558
0.110578390817366
0.110515946796095
0.110455305604186
0.110396470212542
0.110339443509838
0.110284228301832
0.110230827310685
0.110179243174308
0.110129478445719
0.110081535592426
0.110035416995824
0.10999112495061
0.109948661664225
0.109908029256308
0.109869229758174
0.109832265112311
0.1097971371719
0.109763847700356
0.109732398370885
0.109702790766068
0.10967502637747
0.109649106605259
0.109625032757859
0.109602806051622
0.109582427610521
0.109563898465865
0.109547219556041
0.109532391726274
0.109519415728419
0.109508292220764
0.109499021767867
0.109491604840413
0.109486041815092
0.109482332974507
0.109480478507098
0.109480478507098
0.109482332974507
0.109486041815092
0.109491604840413
0.109499021767867
0.109508292220764
0.109519415728419
0.109532391726274
0.10954721955604
0.109563898465865
0.109582427610521
0.109602806051622
0.109625032757858
0.109649106605259
0.10967502637747
0.109702790766069
0.109732398370885
0.109763847700356
0.1097971371719
0.10983226511231
0.109869229758173
0.109908029256307
0.109948661664225
0.10999112495061
0.110035416995823
0.110081535592426
0.110129478445719
0.110179243174308
0.110230827310685
0.110284228301832
0.110339443509838
0.110396470212541
0.110455305604186
0.110515946796095
0.110578390817366
0.11064263461558
0.110708675057526
0.110776508929947
0.110706536268754
0.109991877363756
0.0977904645133987
0.0874082972704057
0.0791414845094415
0.0726626419804634
0.0675676953478817
0.0634191743028991
0.0599887679063961
0.0569442525785027
0.053901495120744
0.0507390226831656
0.0474852346710613
0.0442183801175255
0.0413995162972386
0.0396977258661415
0.0395906324323952
0.0419638675418188
0.0496205555655884
0.0566733844608088
0.0552186945912407
0.054758223287678
0.0606755721302946
0.0611828482667114
0.0628008439981848
0.0517186143698167
0.043893591460506
0.0419119743673458
0.0426222085538333
0.0449860976870811
0.0484598301482637
0.0523460606399694
0.0561816958041646
0.0598959054573732
0.0634670100367874
0.0670186026307668
0.0709315434677313
0.0755328687107707
0.0810460500567127
0.0879068638321317
0.0965269252487979
0.107250854834635
0.120626090848619
0.122668990041074
0.122749425684481
0.122674260209759
0.122601082002582
0.122529894623501
0.122460701544369
0.122393506147515
0.122328311724942
0.122265121477541
0.122203938514318
0.122144765851652
0.122087606412563
0.122032463026003
0.121979338426174
0.121928235251855
0.121879156045758
0.12183210325391
0.121787079225042
0.121744086210016
0.121703126361271
0.121664201732281
0.121627314277054
0.121592465849639
0.121559658203666
0.121528892991909
0.12150017176587
0.12147349597539
0.121448866968285
0.121426285990011
0.12140575418334
0.121387272588083
0.12137084214082
0.121356463674665
0.121344137919057
0.121333865499571
0.121325646937764
0.121319482651041
0.121315372952549
0.121313318051093
0.121313318051093
0.121315372952549
0.121319482651041
0.121325646937764
0.121333865499571
0.121344137919057
0.121356463674665
0.12137084214082
0.121387272588083
0.12140575418334
0.121426285990011
0.121448866968285
0.121473495975389
0.121500171765869
0.121528892991909
0.121559658203666
0.121592465849639
0.121627314277054
0.121664201732281
0.121703126361271
0.121744086210016
0.121787079225041
0.121832103253909
0.121879156045758
0.121928235251855
0.121979338426174
0.122032463026003
0.122087606412563
0.122144765851652
0.122203938514318
0.12226512147754
0.122328311724942
0.122393506147515
0.122460701544369
0.122529894623502
0.122601082002583
0.12267426020976
0.122749425684482
0.122671782464077
0.120722720551736
0.107329228511651
0.0965905455099083
0.0879581245832518
0.0810872832269953
0.0755672438754483
0.0709608568281005
0.0670443971895445
0.0634918523617132
0.0599216939747807
0.0562084084205879
0.0523735157786987
0.0484867814737787