6 	0.00391112967796265 	1.73472347597681e-17 	0.253725007888174 	3.99636651048893e-05 	760.073739121923 	1.11991417002974e-06 	5.41416802808946e-38
6 	0.0118766651674913 	2.42861286636753e-17 	0.253726441925008 	0.00035502258759508 	304.406266431119 	6.49585813657913e-06 	0
6 	0.020134001548576 	2.42861286636753e-17 	0.253719500281121 	0.00145000377657532 	67.756009062321 	1.0909059312356e-05 	0
6 	0.028693828342395 	2.08166817117217e-17 	0.253706279991378 	0.00352473839276047 	26.7840675452247 	1.8863709269492e-05 	0
6 	0.0375672266585908 	2.42861286636753e-17 	0.25368030471882 	0.00599223783647049 	14.3065906265539 	7.90325087543085e-05 	0
6 	0.0467656835403032 	2.42861286636753e-17 	0.253638757907151 	0.00826916193194201 	9.34004772808058 	0.000182652225736033 	0
6 	0.0563011068347008 	2.42861286636753e-17 	0.253584018730866 	0.0102346754751312 	6.91556166833379 	0.00028957258439369 	0
6 	0.0661858406082648 	2.77555756156289e-17 	0.253519766988992 	0.0119577623629888 	5.52450747055867 	0.00038989586433519 	0
6 	0.0764326811267815 	2.77555756156289e-17 	0.25344846145747 	0.0135107147768672 	4.63157234731669 	0.000487682495564991 	0
6 	0.0870548934207258 	3.12250225675825e-17 	0.253371524975688 	0.0149436546341298 	4.01290620032778 	0.000586506890537402 	0
6 	0.0980662284574839 	3.81639164714898e-17 	0.253289985999399 	0.0162902484226419 	3.56076533142497 	0.000688610794166141 	0
6 	0.109480940942647 	4.16333634234434e-17 	0.25320472153667 	0.0175737901033922 	3.21735161968923 	0.00079551921428712 	0
6 	0.121313807773417 	3.98986399474666e-17 	0.253116508061102 	0.0188110411900277 	2.94898905705128 	0.000908415412349514 	0
6 	0.13358014716801 	3.29597460435593e-17 	0.253026050410095 	0.0200145244694915 	2.73476042189868 	0.00102832826575671 	0
6 	0.146295838495838 	2.77555756156289e-17 	0.252934008417773 	0.0211939159199489 	2.56100036851148 	0.00115622772113741 	0
6 	0.159477342834115 	2.94902990916057e-17 	0.252841014295395 	0.0223569155123949 	2.41841129061315 	0.00129307674360688 	0
6 	0.173141724277517 	3.98986399474666e-17 	0.252747682242931 	0.0235098300446712 	2.30045431932421 	0.00143985866490592 	0
6 	0.18730667202848 	5.20417042793042e-17 	0.252654614651203 	0.0246580944052818 	2.20240384167973 	0.00159760835335204 	0
6 	0.201990523296728 	5.3776427755281e-17 	0.252562403321633 	0.0258062145836803 	2.12076641913913 	0.00176742086177579 	0
6 	0.217212287037676 	4.85722573273506e-17 	0.252471626577326 	0.026958047351752 	2.05291009989893 	0.00195047024934763 	0
6 	0.232991668560441 	3.98986399474666e-17 	0.252382846449021 	0.0281169438003383 	1.99682068207573 	0.00214801658128539 	0
6 	0.249349095037321 	3.46944695195361e-17 	0.252296603651729 	0.0292858383808124 	1.95093670993139 	0.00236141323124611 	0
6 	0.266305741947753 	3.03576608295941e-17 	0.25221341035925 	0.0304672967691608 	1.91403487470273 	0.00259211249373109 	0
6 	0.283883560490998 	2.08166817117217e-17 	0.252133740933419 	0.0316635403431366 	1.88514854678349 	0.0028416690774957 	0
6 	0.30210530600303 	6.93889390390723e-18 	0.252058020517398 	0.032876450794861 	1.86350857444868 	0.00311174049777218 	0
6 	0.320994567414413 	7.37257477290143e-18 	0.251986611269582 	0.0341075568453258 	1.84849931290659 	0.00340408330375695 	0
6 	0.340575797787321 	1.77809156287623e-17 	0.251919795959646 	0.0353580039044426 	1.83962520793734 	0.00372054368284483 	0
6 	0.360874345971201 	1.43114686768087e-17 	0.251857758585003 	0.0366285067173655 	1.83648474881628 	0.00406304052443981 	0
6 	0.38191648941809 	1.30104260698261e-18 	0.251800531620683 	0.0379192870180648 	1.8387525309639 	0.00443355844361254 	0
6 	0.403729468200045 	-6.93889390390723e-18 	0.251746658766112 	0.0392300906746584 	1.8462843346662 	0.00483504127748257 	0
6 	0.426341520272733 	-1.38777878078145e-17 	0.251697164537671 	0.0405596999608996 	1.85871004304233 	0.0052685592329451 	0
6 	0.449781918030828 	-2.08166817117217e-17 	0.251651537588033 	0.0419061842943422 	1.87582620229258 	0.00573588767802622 	0
6 	0.474081006202548 	-2.77555756156289e-17 	0.251608998347521 	0.0432666383314116 	1.89744295220827 	0.00623855144739096 	0
6 	0.499270241132363 	-3.81639164714898e-17 	0.251568452149313 	0.0446370116819844 	1.92337172217178 	0.00677767988579046 	0
6 	0.525382231502763 	-4.16333634234434e-17 	0.251528446949608 	0.0460119194966301 	1.95341294958914 	0.00735381673253616 	0
6 	0.552450780547767 	-4.16333634234434e-17 	0.251487051295413 	0.0473844385817712 	1.98734371324304 	0.00796668961241931 	0
6 	0.58051092981285 	-3.46944695195361e-17 	0.251441436602205 	0.0487458971667631 	2.02490541029325 	0.00861505127512754 	0
6 	0.609599004517911 	-2.77555756156289e-17 	0.251387987296495 	0.0500856664145143 	2.0657917561111 	0.00930447325170899 	0
6 	0.639752660582033 	-2.77555756156289e-17 	0.251326841352311 	0.0513916116676018 	2.10966074674809 	0.0100936264915282 	0
6 	0.671010933370887 	-3.12250225675825e-17 	0.251264428167163 	0.0526540078277797 	2.156254718457 	0.0110502007644522 	0
6 	0.703414288229901 	-3.81639164714898e-17 	0.251187939862974 	0.0538642674773998 	2.20514135964266 	0.0121189941766855 	0
6 	0.737004672868606 	-3.81639164714898e-17 	0.251066023525242 	0.0549925321544225 	2.25441296204734 	0.0132498806147777 	0
6 	0.771255893458755 	-3.81639164714898e-17 	0.250880629204806 	0.0559613164977195 	2.29954378697307 	0.0142671838578311 	0
6 	0.788979504711946 	-4.16333634234434e-17 	0.250767389904767 	0.0564073587310512 	2.32101238034103 	0.0147377684233822 	0
6 	0.807922061953054 	-4.5102810375397e-17 	0.250613934753812 	0.0567466252454449 	2.33836789811656 	0.0151038438492912 	0
6 	0.845340872387743 	-4.5102810375397e-17 	0.250272083671608 	0.0572444348307988 	2.36503499320594 	0.0156788340512559 	0
6 	0.88413044342731 	-3.46944695195361e-17 	0.249843524128271 	0.0574159593888462 	2.37706403671907 	0.0160100240690471 	0
6 	0.924340990046898 	-3.64291929955129e-17 	0.249318805142153 	0.0572296421732272 	2.37260803149371 	0.0161148100594409 	0
6 	0.966024566743242 	-5.03069808033274e-17 	0.248685408767799 	0.0566674854308924 	2.35079557156579 	0.0159985049207715 	0
6 	1.00923513492173 	-6.07153216591882e-17 	0.247928476821377 	0.0557238537543644 	2.31155929184174 	0.0156542893553058 	0
6 	1.05402863275206 	-6.24500451351651e-17 	0.247032033113262 	0.0544073969191045 	2.25553369619911 	0.0150755076030046 	0
6 	1.10046304758287 	-6.11490025281825e-17 	0.245980508100154 	0.0527442598308654 	2.1839993737523 	0.0142696115517971 	0
6 	1.14859849100923 	-5.91974386177085e-17 	0.244760247918651 	0.0507798950851502 	2.09883734997639 	0.0132664676272093 	0
6 	1.19849727668995 	-5.87637577487143e-17 	0.243353755943613 	0.0485741919484515 	2.00227537017075 	0.0121165907152536 	0
6 	1.25022400101563 	-6.24500451351651e-17 	0.241747404991254 	0.0462055579103746 	1.89712303566786 	0.0108897838927407 	0
6 	1.30384562673186 	-6.24500451351651e-17 	0.239953556018341 	0.0437604660971725 	1.78682839041648 	0.00965467744801276 	0
6 	1.35943156962566 	-5.89805981832114e-17 	0.237978475760411 	0.0413284130645661 	1.67750592940889 	0.00846616068540623 	0
6 	1.41705378838763 	-5.55111512312578e-17 	0.235834511632771 	0.0389740723599527 	1.57285168324949 	0.00736322929639403 	0
6 	1.47678687776592 	-5.20417042793042e-17 	0.233538134409786 	0.0367249916834336 	1.47318647142899 	0.00636739983650528 	0
6 	1.533710603315 	-5.55111512312578e-17 	0.231306109763586 	0.0347501236111603 	1.38502843297126 	0.00554924263202177 	0
6 	1.56522813627809 	-5.55111512312578e-17 	0.230059490761901 	0.0337039775304363 	1.33790863297532 	0.00513380828148017 	0
6 	1.60289781058851 	-5.20417042793042e-17 	0.228569721391772 	0.0325299105896324 	1.28382602925353 	0.00469864842218925 	0
6 	1.66943891073267 	-5.3776427755281e-17 	0.225938945969349 	0.0305477444456001 	1.19122089085053 	0.00400446133708755 	0
6 	1.73841760623657 	-5.03069808033274e-17 	0.223235692369158 	0.0286295704861069 	1.10118067687059 	0.00338968867188467 	0
6 	1.8099231933566 	-5.29090660172926e-17 	0.220483723209777 	0.0267722477802148 	1.01754478213329 	0.00284423526881033 	0
6 	1.88404823953249 	-5.18248638448071e-17 	0.217713623602223 	0.0249799529940785 	0.944854548008463 	0.00236712197231855 	0
6 	1.96088870322038 	-4.74880551548651e-17 	0.214972812664078 	0.02325061022764 	0.884684284852236 	0.00196424271503605 	0
6 	2.02025965173185 	-4.85722573273506e-17 	0.213112076410484 	0.0219647558860745 	0.847342754401364 	0.00166076650863973 	0
6 	2.06006301192217 	-4.5102810375397e-17 	0.211798694275201 	0.0210851510048517 	0.824410672490577 	0.00147721874183783 	0
6 	2.09845978584128 	-4.5102810375397e-17 	0.210609687717734 	0.0202638287496457 	0.80542202032914 	0.0013108243436345 	0
6 	2.13549967996946 	-5.20417042793042e-17 	0.209498289421305 	0.0194805014592346 	0.789570377990676 	0.00115614673881376 	0
6 	2.17123064424048 	-5.89805981832114e-17 	0.208457559677529 	0.0187337004231643 	0.776649029294246 	0.00101336455661 	0
6 	2.20569893411516 	-6.59194920871187e-17 	0.207484035531987 	0.0180219718234708 	0.766497815452674 	0.000882342101339324 	0
6 	2.23894917046123 	-7.28583859910259e-17 	0.206574023698869 	0.0173438961638958 	0.758997515511997 	0.000762671758518699 	0
6 	2.27102439731726 	-7.97972798949331e-17 	0.205723766736046 	0.0166980691068252 	0.754065713700869 	0.000653788799442885 	0
6 	2.30196613761522 	-8.67361737988404e-17 	0.204929670319701 	0.016083124701327 	0.75165376148976 	0.000555065577676603 	0
6 	2.33181444693392 	-8.67361737988404e-17 	0.204188314408898 	0.0154977656590526 	0.751744702250145 	0.000465873380555075 	0
6.00000000000001 	2.3606079653529 	-8.32667268468867e-17 	0.203496445110127 	0.0149407792459043 	0.754352089228865 	0.000385620092165551 	0
6.00000000000001 	2.38838396747391 	-7.63278329429795e-17 	0.202850974935825 	0.0144110478138014 	0.759519653729056 	0.00031377330635116 	0
6.00000000000001 	2.41517841067461 	-6.93889390390723e-17 	0.202248982685348 	0.0139075568883362 	0.767321792086994 	0.000249874712675822 	0
6.00000000000001 	2.44102598165722 	-6.93889390390723e-17 	0.201687711082053 	0.013429401969306 	0.77786484923416 	0.000193549575236544 	0
6.00000000000001 	2.46596014135208 	-6.93889390390723e-17 	0.201164562868278 	0.0129757947955872 	0.791289189215425 	0.000144513781790378 	0
6.00000000000001 	2.49001316823444 	-6.93889390390723e-17 	0.20067709577226 	0.012546069574594 	0.807772056262705 	0.00010258006547598 	0
6.00000000000001 	2.51321620011054 	-6.93889390390723e-17 	0.2002230163972 	0.0121396885126741 	0.827531241930075 	6.76644725279225e-05 	0
6.00000000000001 	2.535599274427 	-6.93889390390723e-17 	0.199800173948253 	0.0117562414659118 	0.850829594135673 	3.97936181527973e-05 	0
6.00000000000001 	2.55719136715571 	-6.93889390390723e-17 	0.199406553863106 	0.0113954492711922 	0.877980408392953 	1.91131323695058e-05 	0
6.00000000000001 	2.57802043030466 	-6.93889390390723e-17 	0.199040270874673 	0.0110571680547735 	0.909353720093504 	5.89749913759915e-06 	0
6.00000000000001 	2.59811342810315 	-7.28583859910259e-17 	0.198699561895968 	0.0107413918357509 	0.945383499480199 	5.61389009153198e-07 	0
6.00000000000001 	2.61749637190832 	-7.63278329429795e-17 	0.198382778959368 	0.0104482528339168 	0.986575716214754 	3.67232849645253e-06 	0
6.00000000000001 	2.63619435387806 	-7.63278329429795e-17 	0.198088382256046 	0.010178018963815 	1.03351717838128 	1.59643254121438e-05 	0
6.00000000000001 	2.65423157945406 	-8.32667268468867e-17 	0.197814933305817 	0.00993108765955847 	1.08688496020726 	3.83518168186444e-05 	0
6.00000000000001 	2.67163139869691 	-9.0205620750794e-17 	0.197561088302868 	0.0097079747750391 	1.14745611290902 	7.19429973617392e-05 	0
6.00000000000001 	2.68841633651388 	-9.0205620750794e-17 	0.197325591694739 	0.00950929687671585 	1.21611720924519 	0.000118051257951118 	0
6.00000000000001 	2.70460812181851 	-9.0205620750794e-17 	0.197107269980537 	0.00933574509363835 	1.29387311797485 	0.000178203135671905 	0
6.00000000000001 	2.72022771565972 	-9.0205620750794e-17 	0.196905025726925 	0.00918805045954142 	1.3818542388853 	0.000254140894493978 	0
6.00000000000001 	2.73529533835695 	-9.0205620750794e-17 	0.196717831887931 	0.0090669394622963 	1.48132128951812 	0.000347817698337265 	0
6.00000000000001 	2.74983049567626 	-9.0205620750794e-17 	0.19654472648714 	0.00897307896045537 	1.59366669902878 	0.000461383440194181 	0
6.00000000000001 	2.76385200408157 	-9.0205620750794e-17 	0.196384807699036 	0.00890701082018397 	1.72041178597692 	0.000597159726782059 	0
6.00000000000001 	2.77737801509344 	-8.32667268468867e-17 	0.196237229360704 	0.00886907805897566 	1.86319924098527 	0.000757603316972486 	0
6.00000000000001 	2.79042603878708 	-7.63278329429795e-17 	0.196101196936075 	0.00885934584898855 	2.0237810614501 	0.000945258448878122 	0
6.00000000000001 	2.80301296646003 	-6.59194920871187e-17 	0.195975963939633 	0.00887752228024836 	2.20400301855241 	0.00116269986528432 	0
6.00000000000001 	2.81515509249873 	-5.55111512312578e-17 	0.195860828823953 	0.00892288501493315 	2.40578794591941 	0.0014124698449383 	0
6.00000000000001 	2.82686813547238 	-5.55111512312578e-17 	0.195755132324712 	0.0089942204020309 	2.63112153729031 	0.00169701401114914 	0
6.00000000000001 	2.83816725848143 	-5.20417042793042e-17 	0.195658255233954 	0.00908978130304984 	2.8820457872309 	0.00201862198392849 	0
6.00000000000001 	2.84906708878692 	-5.20417042793042e-17 	0.19556961649688 	0.00920726867893762 	3.1606665334126 	0.00237937997593264 	0
6.00000000000001 	2.85958173674617 	-4.85722573273506e-17 	0.195488671351438 	0.0093438398988792 	3.46918262744803 	0.00278114321436883 	0
6.00000000000001 	2.86972481407933 	-3.46944695195361e-17 	0.195414909612144 	0.00949614399284647 	3.80994504811501 	0.00322553662834879 	0
6 	2.87950945149043 	-2.77555756156289e-17 	0.195347857124812 	0.009660381185316 	4.18555491149276 	0.00371436806781059 	0
6 	2.88894831566567 	-2.77555756156289e-17 	0.195287083812639 	0.00983237954218441 	4.59903894070881 	0.00425714415148661 	0
6 	2.89805362567107 	-2.77555756156289e-17 	0.195232181276553 	0.0100076329591234 	5.05466465418218 	0.00487931085346608 	0
6 	2.90683716877067 	-2.77555756156289e-17 	0.195182722831036 	0.0101810585862522 	5.55962016232344 	0.00556151644748614 	0
6 	2.9153103156857 	-2.77555756156289e-17 	0.195138266292874 	0.0103464538894682 	6.12032458699864 	0.00632321648367702 	0
6 	2.92348403531449 	-2.77555756156289e-17 	0.195098431786998 	0.0104944592744244 	6.73899020829933 	0.00712998383408979 	0
6 	2.9313689089323 	-2.77555756156289e-17 	0.19506293595753 	0.0106152805063762 	7.41779556275415 	0.00796285114352393 	0
6.00000000000001 	2.93897514388925 	-3.12250225675825e-17 	0.195031558336221 	0.0107001420615747 	8.16220208338223 	0.00881735422778106 	0
6.00000000000001 	2.94631258682425 	-3.46944695195361e-17 	0.195004119441099 	0.0107415323068317 	8.98317686291364 	0.00969861831348675 	0
6.00000000000001 	2.95339073641193 	-3.12250225675825e-17 	0.194980472265586 	0.0107327674452478 	9.89896828618057 	0.0106181620409091 	0
6 	2.96021875565916 	-2.77555756156289e-17 	0.194960495968391 	0.0106672404809524 	10.9373292935219 	0.0115924984574727 	0
6 	2.96680548376697 	-2.77555756156289e-17 	0.194944086566116 	0.0105374943600572 	12.1385604033257 	0.0126427076864358 	0
6.00000000000001 	2.97315944757337 	-3.12250225675825e-17 	0.194931142272203 	0.0103341015171949 	13.5601087756405 	0.0137936579211098 	0
6.00000000000001 	2.97928887259171 	-4.16333634234434e-17 	0.194921541642344 	0.0100441820008292 	15.2848784762049 	0.0150708566863928 	0
6.00000000000001 	2.98520169365903 	-5.55111512312578e-17 	0.194915113327103 	0.00964939908845972 	17.4347271686704 	0.0164914577647377 	0
6.00000000000001 	2.99090556520807 	-5.89805981832114e-17 	0.194911599719881 	0.00912340581134507 	20.1928228990087 	0.0180430603754154 	0
6.00000000000001 	2.99640787117633 	-5.55111512312578e-17 	0.194910628708736 	0.00842900485166396 	23.8439316522712 	0.0196372485950869 	0
6.00000000000001 	3.00171573456492 	-5.20417042793042e-17 	0.194911733126155 	0.00751646082276084 	28.8538493731446 	0.0210313532222615 	0
6.00000000000001 	3.00683602665963 	-5.20417042793042e-17 	0.194914386058326 	0.00632554675373833 	36.0493976317556 	0.0216337103368549 	0
6.00000000000001 	3.01177537592613 	-5.55111512312578e-17 	0.194917813241675 	0.00480147016021657 	47.0907690472625 	0.0196361604097822 	0
6.00000000000001 	3.01654017659085 	-4.85722573273506e-17 	0.194921019620009 	0.00302885442718478 	65.968877393315 	0.0135636765571478 	0
6 	3.02113659691864 	-4.85722573273506e-17 	0.194923414546839 	0.00140770050816364 	105.271875410345 	0.00558704494089246 	0
6 	3.02557058719784 	-5.20417042793042e-17 	0.194925212481919 	0.000424847747520076 	216.55800164027 	0.00109803195241527 	0
6 	3.02984788744324 	-5.20417042793042e-17 	0.194926997612063 	6.88547931647134e-05 	718.79329606116 	8.80076911049069e-05 	0
