6 	0.00391112967796265 	1.73472347597681e-17 	-0.0134941207555088 	-8.04771866427329e-05 	-1.34317675341396e-20
6 	0.0118766651674913 	2.42861286636753e-17 	-0.0353637610649687 	-0.000197276302902399 	-1.04075407302835e-20
6 	0.020134001548576 	2.42861286636753e-17 	-0.0474951567742262 	-0.000407021066702427 	3.52501496545706e-21
6 	0.028693828342395 	2.08166817117217e-17 	-0.0506799802152155 	-0.000743456593416563 	6.0547984269719e-21
6 	0.0375672266585908 	2.42861286636753e-17 	-0.0486264925592119 	-0.00112365480000695 	3.34595499537923e-21
6 	0.0467656835403032 	2.42861286636753e-17 	-0.044843465651414 	-0.00152400585906965 	1.64208861452712e-21
6 	0.0563011068347008 	2.42861286636753e-17 	-0.0407415671544138 	-0.00194842100674221 	3.23501917040013e-21
6 	0.0661858406082648 	2.77555756156289e-17 	-0.0366272615725706 	-0.00239728751623388 	8.08889162196086e-22
6 	0.0764326811267815 	2.77555756156289e-17 	-0.032532237934914 	-0.00286799148752234 	4.46353627545682e-21
6 	0.0870548934207258 	3.12250225675825e-17 	-0.0284350621832846 	-0.00335875846665438 	4.55195077023501e-21
6 	0.0980662284574839 	3.81639164714898e-17 	-0.0243065749865489 	-0.00386881439322684 	3.9329380191162e-21
6 	0.109480940942647 	4.16333634234434e-17 	-0.0201187558304637 	-0.00439782897545737 	1.29205618034799e-21
6 	0.121313807773417 	3.98986399474666e-17 	-0.0158459020636488 	-0.00494563719948469 	-2.67185330262252e-17
6 	0.13358014716801 	3.29597460435593e-17 	-0.0114641932561052 	-0.00551214248556186 	2.10768270403454e-17
6 	0.146295838495838 	2.77555756156289e-17 	-0.006951010635491 	-0.00609726966291587 	2.11976698014395e-16
6 	0.159477342834115 	2.94902990916057e-17 	-0.00228431397265131 	-0.00670092989453471 	-1.60636914239841e-16
6 	0.173141724277517 	3.98986399474666e-17 	0.00255787641358052 	-0.00732299067589262 	-3.75685809971038e-17
6 	0.18730667202848 	5.20417042793042e-17 	0.00759789027353762 	-0.00796324469888822 	-4.28545730187625e-22
6 	0.201990523296728 	5.3776427755281e-17 	0.0128587805178024 	-0.00862138572135904 	-2.76629356193793e-21
6 	0.217212287037676 	4.85722573273506e-17 	0.0183646619980906 	-0.00929698211504558 	2.83550991146925e-22
6 	0.232991668560441 	3.98986399474666e-17 	0.0241410086431678 	-0.00998944834526938 	-3.76361266622901e-21
6 	0.249349095037321 	3.46944695195361e-17 	0.0302149297610542 	-0.010698012503 	3.21617354768894e-21
6 	0.266305741947753 	3.03576608295941e-17 	0.0366154363804635 	-0.0114216799757206 	-8.99239206644146e-24
6 	0.283883560490998 	2.08166817117217e-17 	0.043373703759179 	-0.0121591927877378 	2.92978291392739e-22
6 	0.30210530600303 	6.93889390390723e-18 	0.0505233330920695 	-0.0129089839809145 	3.90080144804471e-21
6 	0.320994567414413 	7.37257477290143e-18 	0.0581006135848161 	-0.0136691264422893 	-8.99667041297703e-21
6 	0.340575797787321 	1.77809156287623e-17 	0.0661447842359731 	-0.0144372756398183 	-8.95199899811858e-21
6 	0.360874345971201 	1.43114686768087e-17 	0.0746982927403097 	-0.0152106057837862 	1.85438484812079e-20
6 	0.38191648941809 	1.30104260698261e-18 	0.0838072491654 	-0.0159856462110383 	-9.66638332493861e-21
6 	0.403729468200045 	-6.93889390390723e-18 	0.0935321851069951 	-0.0167542634748688 	1.3328154750688e-18
6 	0.426341520272733 	-1.38777878078145e-17 	0.103919134743669 	-0.0175153432504734 	1.79218965872185e-16
6 	0.449781918030828 	-2.08166817117217e-17 	0.11502620657868 	-0.0182632586478409 	-1.80084366008138e-16
6 	0.474081006202548 	-2.77555756156289e-17 	0.12691573855244 	-0.0189914537684482 	-5.90865785148589e-18
6 	0.499270241132363 	-3.81639164714898e-17 	0.139654316416735 	-0.0196923333492478 	3.45488095733596e-22
6 	0.525382231502763 	-4.16333634234434e-17 	0.153312670929838 	-0.0203571345309499 	0
6 	0.552450780547767 	-4.16333634234434e-17 	0.167965408943086 	-0.020975797850213 	1.06760469837507e-21
6 	0.58051092981285 	-3.46944695195361e-17 	0.183690534527174 	-0.0215370143724063 	1.25305384305717e-21
6 	0.609599004517911 	-2.77555756156289e-17 	0.200568879885363 	-0.0220284669164074 	-1.33157088909578e-20
6 	0.639752660582033 	-2.77555756156289e-17 	0.218701246642258 	-0.0224348474798993 	-2.3533738942244e-20
6 	0.671010933370887 	-3.12250225675825e-17 	0.238339619706509 	-0.0227336122592241 	-3.70005256138352e-21
6 	0.703414288229901 	-3.81639164714898e-17 	0.260013960703479 	-0.0229028568999168 	2.58661897448163e-17
6 	0.737004672868606 	-3.81639164714898e-17 	0.284204481522411 	-0.0229179067237963 	2.95794812593097e-17
6 	0.771255893458755 	-3.81639164714898e-17 	0.310550990533363 	-0.0227658507343388 	-2.7708335874058e-17
6 	0.788979504711946 	-4.16333634234434e-17 	0.324580514363636 	-0.0226430061313219 	-6.15670524698931e-17
6 	0.807922061953054 	-4.5102810375397e-17 	0.340154725600572 	-0.0224319394602645 	-2.96098889265123e-17
6 	0.845340872387743 	-4.5102810375397e-17 	0.371392992592429 	-0.0219254899812606 	2.6534194839669e-21
6 	0.88413044342731 	-3.46944695195361e-17 	0.404489381223034 	-0.0212377787821207 	-5.00025360368613e-21
6 	0.924340990046898 	-3.64291929955129e-17 	0.43922206009965 	-0.0203674182889671 	4.31991200204719e-21
6 	0.966024566743242 	-5.03069808033274e-17 	0.475398169800787 	-0.0193142675027281 	-2.0250657400803e-20
6 	1.00923513492173 	-6.07153216591882e-17 	0.512801660560683 	-0.018082643710384 	3.31704320950895e-20
6 	1.05402863275206 	-6.24500451351651e-17 	0.551151233160578 	-0.016685004910975 	-3.36470406232412e-20
6 	1.10046304758287 	-6.11490025281825e-17 	0.590085294229378 	-0.0151445723041665 	-4.33153180640231e-20
6 	1.14859849100923 	-5.91974386177085e-17 	0.629176150854236 	-0.0134958372436669 	-1.08079716748934e-21
6 	1.19849727668995 	-5.87637577487143e-17 	0.66794610696808 	-0.0117784293403746 	-4.97024243809137e-20
6 	1.25022400101563 	-6.24500451351651e-17 	0.705901812406926 	-0.0100428039485275 	-3.376532313408e-21
6 	1.30384562673186 	-6.24500451351651e-17 	0.742694035391679 	-0.00834987854433247 	-6.41464009753228e-20
6 	1.35943156962566 	-5.89805981832114e-17 	0.778027229181708 	-0.00674538026246429 	-4.34833988667525e-20
6 	1.41705378838763 	-5.55111512312578e-17 	0.811684759202419 	-0.00526542019685557 	7.87884441608737e-20
6 	1.47678687776592 	-5.20417042793042e-17 	0.843547514970116 	-0.00393328188054116 	8.65020461513425e-21
6 	1.533710603315 	-5.55111512312578e-17 	0.871279851557472 	-0.00284637136337992 	1.66312610115329e-21
6 	1.56522813627809 	-5.55111512312578e-17 	0.885864486523185 	-0.00230038782795195 	1.75769199376737e-20
6 	1.60289781058851 	-5.20417042793042e-17 	0.901947817329021 	-0.00173913332286474 	1.62659116377353e-20
6 	1.66943891073267 	-5.3776427755281e-17 	0.928596583494728 	-0.0008740237756086 	6.73795889370609e-21
6 	1.73841760623657 	-5.03069808033274e-17 	0.953486843129775 	-0.000165942866745246 	3.17659889599906e-20
6 	1.8099231933566 	-5.29090660172926e-17 	0.976591115209576 	0.00038923738345808 	-4.18163505282474e-20
6 	1.88404823953249 	-5.18248638448071e-17 	0.997872708377411 	0.000800729915585175 	1.19884092170561e-23
6 	1.96088870322038 	-4.74880551548651e-17 	1.0172168904841 	0.00106708538358491 	0
6 	2.02025965173185 	-4.85722573273506e-17 	1.03056183959109 	0.0013003006384491 	0
6 	2.06006301192217 	-4.5102810375397e-17 	1.03932434819237 	0.00145697842524889 	0
6 	2.09845978584128 	-4.5102810375397e-17 	1.04716717041763 	0.00158970480295814 	0
6 	2.13549967996946 	-5.20417042793042e-17 	1.05433339724933 	0.00171284847617093 	0
6 	2.17123064424048 	-5.89805981832114e-17 	1.06086927397476 	0.00182571850090072 	0
6 	2.20569893411516 	-6.59194920871187e-17 	1.06681811519422 	0.00192787755979407 	0
6 	2.23894917046123 	-7.28583859910259e-17 	1.07221976111156 	0.00201976098352456 	0
6 	2.27102439731726 	-7.97972798949331e-17 	1.07711030564985 	0.00210208348151507 	0
6 	2.30196613761522 	-8.67361737988404e-17 	1.08152203100113 	0.00217562834298637 	0
6 	2.33181444693392 	-8.67361737988404e-17 	1.0854834653902 	0.00224118937565389 	0
6.00000000000001 	2.3606079653529 	-8.32667268468867e-17 	1.08901950334468 	0.0022995313602092 	0
6.00000000000001 	2.38838396747391 	-7.63278329429795e-17 	1.092151551322 	0.00235136466167108 	0
6.00000000000001 	2.41517841067461 	-6.93889390390723e-17 	1.0948976748401 	0.00239733368171671 	0
6.00000000000001 	2.44102598165722 	-6.93889390390723e-17 	1.09727273298739 	0.00243801423101893 	0
6.00000000000001 	2.46596014135208 	-6.93889390390723e-17 	1.09928849246905 	0.00247391600661736 	0
6.00000000000001 	2.49001316823444 	-6.93889390390723e-17 	1.10095371727615 	0.00250548788449078 	0
6.00000000000001 	2.51321620011054 	-6.93889390390723e-17 	1.10227423280677 	0.00253312433621294 	0
6.00000000000001 	2.535599274427 	-6.93889390390723e-17 	1.10325296600945 	0.00255717245210016 	0
6.00000000000001 	2.55719136715571 	-6.93889390390723e-17 	1.10388996334123 	0.00257793888134935 	0
6.00000000000001 	2.57802043030466 	-6.93889390390723e-17 	1.10418238876537 	0.00259569661216501 	0
6.00000000000001 	2.59811342810315 	-7.28583859910259e-17 	1.10412450659668 	0.0026106912245504 	0
6.00000000000001 	2.61749637190832 	-7.63278329429795e-17 	1.10370765592772 	0.00262314651944468 	0
6.00000000000001 	2.63619435387806 	-7.63278329429795e-17 	1.1029202251497 	0.00263326950882456 	0
6.00000000000001 	2.65423157945406 	-8.32667268468867e-17 	1.10174763721211 	0.00264125469588257 	0
6.00000000000001 	2.67163139869691 	-9.0205620750794e-17 	1.10017235860124 	0.00264728752959543 	0
6.00000000000001 	2.68841633651388 	-9.0205620750794e-17 	1.09817394712878 	0.00265154691577968 	0
6.00000000000001 	2.70460812181851 	-9.0205620750794e-17 	1.09572915489763 	0.00265420657718717 	0
6.00000000000001 	2.72022771565972 	-9.0205620750794e-17 	1.09281210311484 	0.00265543498460967 	0
6.00000000000001 	2.73529533835695 	-9.0205620750794e-17 	1.0893945440174 	0.00265539352024869 	0
6.00000000000001 	2.74983049567626 	-9.0205620750794e-17 	1.08544622102887 	0.00265423262169237 	0
6.00000000000001 	2.76385200408157 	-9.0205620750794e-17 	1.08093533079799 	0.00265208574408026 	0
6.00000000000001 	2.77737801509344 	-8.32667268468867e-17 	1.07582908009605 	0.0026490611151882 	0
6.00000000000001 	2.79042603878708 	-7.63278329429795e-17 	1.0700943174124 	0.00264523147333217 	0
6.00000000000001 	2.80301296646003 	-6.59194920871187e-17 	1.06369820500611 	0.00264062224691646 	0
6.00000000000001 	2.81515509249873 	-5.55111512312578e-17 	1.05660888429092 	0.00263519894779963 	0
6.00000000000001 	2.82686813547238 	-5.55111512312578e-17 	1.04879607782904 	0.00262885485855135 	0
6.00000000000001 	2.83816725848143 	-5.20417042793042e-17 	1.04023156656349 	0.00262140031928242 	0
6.00000000000001 	2.84906708878692 	-5.20417042793042e-17 	1.03088948187355 	0.00261255494995217 	0
6.00000000000001 	2.85958173674617 	-4.85722573273506e-17 	1.02074635789358 	0.00260194366427622 	0
6.00000000000001 	2.86972481407933 	-3.46944695195361e-17 	1.00978089825084 	0.00258909652737215 	0
6 	2.87950945149043 	-2.77555756156289e-17 	0.997973420259018 	0.00257345583324187 	0
6 	2.88894831566567 	-2.77555756156289e-17 	0.98530381120449 	0.00255440755383117 	0
6 	2.89805362567107 	-2.77555756156289e-17 	0.9717256518917 	0.00253123787045719 	0
6 	2.90683716877067 	-2.77555756156289e-17 	0.957095532045954 	0.0025029497446664 	0
6 	2.9153103156857 	-2.77555756156289e-17 	0.941271456786998 	0.0024681995782743 	0
6 	2.92348403531449 	-2.77555756156289e-17 	0.924241839233368 	0.00242557121788478 	0
6 	2.9313689089323 	-2.77555756156289e-17 	0.906049568794167 	0.00237363077640147 	0
6.00000000000001 	2.93897514388925 	-3.12250225675825e-17 	0.886736416881545 	0.00231104763557377 	0
6.00000000000001 	2.94631258682425 	-3.46944695195361e-17 	0.866313056859632 	0.00223666609348651 	0
6.00000000000001 	2.95339073641193 	-3.12250225675825e-17 	0.844743737181803 	0.0021495524958547 	0
6 	2.96021875565916 	-2.77555756156289e-17 	0.821935902823008 	0.00204903779708672 	0
6 	2.96680548376697 	-2.77555756156289e-17 	0.797728169591954 	0.00193475898526699 	0
6.00000000000001 	2.97315944757337 	-3.12250225675825e-17 	0.771872636002612 	0.0018067010950463 	0
6.00000000000001 	2.97928887259171 	-4.16333634234434e-17 	0.744008704446162 	0.00166524409981914 	0
6.00000000000001 	2.98520169365903 	-5.55111512312578e-17 	0.713625675090736 	0.00151121951418489 	0
6.00000000000001 	2.99090556520807 	-5.89805981832114e-17 	0.680011119787558 	0.00134597659591576 	0
6.00000000000001 	2.99640787117633 	-5.55111512312578e-17 	0.642181634247387 	0.00117145385149224 	0
6.00000000000001 	3.00171573456492 	-5.20417042793042e-17 	0.598793357599911 	0.000990410943749905 	0
6.00000000000001 	3.00683602665963 	-5.20417042793042e-17 	0.547994759360766 	0.000806901036290161 	0
6.00000000000001 	3.01177537592613 	-5.55111512312578e-17 	0.487126226572374 	0.000624990064078162 	0
6.00000000000001 	3.01654017659085 	-4.85722573273506e-17 	0.413443619842034 	0.000449196218434417 	0
6 	3.02113659691864 	-4.85722573273506e-17 	0.327134655431048 	0.000287709033180084 	0
6 	3.02557058719784 	-5.20417042793042e-17 	0.233483979016212 	0.000153232914356474 	0
6 	3.02984788744324 	-5.20417042793042e-17 	0.138871822180351 	5.80435735689223e-05 	0
