/*--------------------------------*- C++ -*----------------------------------*\
  =========                 |
  \\      /  F ield         | OpenFOAM: The Open Source CFD Toolbox
   \\    /   O peration     | Website:  https://openfoam.org
    \\  /    A nd           | Version:  7
     \\/     M anipulation  |
\*---------------------------------------------------------------------------*/
FoamFile
{
    version     2.0;
    format      ascii;
    class       volScalarField;
    location    "0";
    object      k_LES;
}
// * * * * * * * * * * * * * * * * * * * * * * * * * * * * * * * * * * * * * //

dimensions      [0 2 -2 0 0 0 0];

internalField   nonuniform List<scalar>
15600
(
0.00137361
0.00150092
0.00063237
0.00021445
0.00043459
0.00112420
0.00217905
0.00113771
0.00168570
0.00185726
0.00253684
0.00169672
0.00202942
0.00223694
0.00171158
0.00173713
0.00251693
0.00172647
0.00169934
0.00256853
0.00238071
0.00206732
0.00291088
0.00363894
0.00443179
0.00411824
0.00300917
0.00329063
0.00344043
0.00371779
0.00369738
0.00362741
0.00359410
0.00352291
0.00358171
0.00337561
0.00348796
0.00326432
0.00327501
0.00313507
0.00301105
0.00284700
0.00277915
0.00263315
0.00250427
0.00243968
0.00233057
0.00230408
0.00211888
0.00203654
0.00200600
0.00185723
0.00183398
0.00173799
0.00173266
0.00160093
0.00158392
0.00149138
0.00143801
0.00143357
0.00135836
0.00129775
0.00128067
0.00126050
0.00120508
0.00118629
0.00113925
0.00114137
0.00109761
0.00104137
0.00101134
0.00097684
0.00095329
0.00092087
0.00093975
0.00087097
0.00084470
0.00082490
0.00079816
0.00081922
0.00077238
0.00074376
0.00072156
0.00075415
0.00068536
0.00070794
0.00064190
0.00062438
0.00062377
0.00060319
0.00059621
0.00058392
0.00061640
0.00056972
0.00092414
0.00119420
0.00098927
0.00062256
0.00047702
0.00028490
0.00035133
0.00044284
-0.00002278
0.00020199
-0.00000262
-0.00013668
0.00017165
-0.00012126
-0.00003586
-0.00006185
0.00007542
-0.00019335
-0.00023123
0.00000979
-0.00020569
-0.00032913
0.00001027
0.00003529
0.00067742
0.00102237
0.00403659
0.00434101
0.00271963
0.00173116
0.00233521
0.00410775
0.00689317
0.00516771
0.00502212
0.00672330
0.00619983
0.00655246
0.00682122
0.00688740
0.00569183
0.00628172
0.00712618
0.00695015
0.00774170
0.00796960
0.00883875
0.00882386
0.00995097
0.01096912
0.01337320
0.01303243
0.01240475
0.01335730
0.01404944
0.01475523
0.01500289
0.01493574
0.01501191
0.01488610
0.01476150
0.01444598
0.01439207
0.01414094
0.01417611
0.01384317
0.01349663
0.01307300
0.01265775
0.01225382
0.01179773
0.01142258
0.01106847
0.01075538
0.01037214
0.01004896
0.00971726
0.00931527
0.00897254
0.00872197
0.00843303
0.00820596
0.00798091
0.00772758
0.00749040
0.00727306
0.00709805
0.00689875
0.00676483
0.00662521
0.00646845
0.00633314
0.00618583
0.00607195
0.00593606
0.00577572
0.00559882
0.00543407
0.00526547
0.00513165
0.00501742
0.00489469
0.00478011
0.00468173
0.00457282
0.00445182
0.00433213
0.00422731
0.00413018
0.00403335
0.00392624
0.00381553
0.00371433
0.00361557
0.00352723
0.00344797
0.00337070
0.00328144
0.00318719
0.00309110
0.00363923
0.00465967
0.00475682
0.00478962
0.00445241
0.00455417
0.00421879
0.00424909
0.00251545
0.00344552
0.00223093
0.00117508
0.00233352
0.00145356
0.00189292
0.00142301
0.00099202
0.00063148
0.00042719
0.00086161
0.00027269
0.00056737
0.00093880
0.00182843
0.00245637
0.00329907
0.00831388
0.00957429
0.00665978
0.00468498
0.00591200
0.00823751
0.01157803
0.01195811
0.01244814
0.01201759
0.01207665
0.01203130
0.01141961
0.01155234
0.01147396
0.01145577
0.01175644
0.01216067
0.01253566
0.01289480
0.01380695
0.01455924
0.01554304
0.01706162
0.01915074
0.01972727
0.02041454
0.02202889
0.02306492
0.02415750
0.02467753
0.02474994
0.02502451
0.02500421
0.02477277
0.02440318
0.02430821
0.02414960
0.02419223
0.02391353
0.02355869
0.02298533
0.02231766
0.02190411
0.02120571
0.02065680
0.02013459
0.01972146
0.01918044
0.01868349
0.01815285
0.01759993
0.01705367
0.01660884
0.01614597
0.01578682
0.01535834
0.01497062
0.01457419
0.01421603
0.01393113
0.01364588
0.01339866
0.01315293
0.01290574
0.01269320
0.01243921
0.01220994
0.01198397
0.01170540
0.01139209
0.01111088
0.01080482
0.01055722
0.01034697
0.01012598
0.00992330
0.00973025
0.00952874
0.00930815
0.00909033
0.00889257
0.00872176
0.00854460
0.00834820
0.00813385
0.00794109
0.00775600
0.00758339
0.00741768
0.00725657
0.00706310
0.00684043
0.00659503
0.00692657
0.00822651
0.00895414
0.00934534
0.00978660
0.01003270
0.01000763
0.00981147
0.00913939
0.00916340
0.00780672
0.00717888
0.00743189
0.00660578
0.00595639
0.00473418
0.00485337
0.00338341
0.00307736
0.00423531
0.00335471
0.00374204
0.00416521
0.00532278
0.00606034
0.00714678
0.01344375
0.01536731
0.01259880
0.00923729
0.00930577
0.01353747
0.01590541
0.01752398
0.01793672
0.01636801
0.01629241
0.01603011
0.01568736
0.01569185
0.01540220
0.01542376
0.01560172
0.01586560
0.01614162
0.01674768
0.01761988
0.01847612
0.01952059
0.02097574
0.02293564
0.02426061
0.02569385
0.02762484
0.02896091
0.03023675
0.03094173
0.03116882
0.03164880
0.03168854
0.03150188
0.03115749
0.03102717
0.03093930
0.03105088
0.03077739
0.03048932
0.02991925
0.02922226
0.02873820
0.02795368
0.02735382
0.02677399
0.02627852
0.02570640
0.02513604
0.02451539
0.02391968
0.02326430
0.02272424
0.02219719
0.02177657
0.02123159
0.02073643
0.02024892
0.01979421
0.01945417
0.01909252
0.01880408
0.01852596
0.01821297
0.01792994
0.01760472
0.01729562
0.01699005
0.01663771
0.01625603
0.01587649
0.01548710
0.01517398
0.01487147
0.01459076
0.01433026
0.01408376
0.01381962
0.01353472
0.01325949
0.01299980
0.01277435
0.01254075
0.01229541
0.01203226
0.01178405
0.01155996
0.01134106
0.01113576
0.01092620
0.01068105
0.01038710
0.01005390
0.01016268
0.01130223
0.01240018
0.01322266
0.01388886
0.01438990
0.01460703
0.01505080
0.01478223
0.01458254
0.01375904
0.01330139
0.01270930
0.01217860
0.01151074
0.01105647
0.01033829
0.00902899
0.00850594
0.00988886
0.00905805
0.00951179
0.00998135
0.01050877
0.01110627
0.01188682
0.01860285
0.02081803
0.01964259
0.01441141
0.01300324
0.01703677
0.01932410
0.02066052
0.02103184
0.02002674
0.01945753
0.01946092
0.01912737
0.01857010
0.01853766
0.01836201
0.01842656
0.01867056
0.01880499
0.01944539
0.02015962
0.02117600
0.02227439
0.02377996
0.02571959
0.02746285
0.02930546
0.03145284
0.03295352
0.03437388
0.03516345
0.03552718
0.03612569
0.03626248
0.03611900
0.03576169
0.03568616
0.03562108
0.03573746
0.03549649
0.03525335
0.03472915
0.03403741
0.03349039
0.03270352
0.03211122
0.03148793
0.03095674
0.03035976
0.02975375
0.02906960
0.02843625
0.02778742
0.02717900
0.02663172
0.02616551
0.02554567
0.02497538
0.02442258
0.02392773
0.02353257
0.02312713
0.02279739
0.02249826
0.02216182
0.02183330
0.02145916
0.02107459
0.02072753
0.02033920
0.01989085
0.01943271
0.01901412
0.01863467
0.01828980
0.01794092
0.01763579
0.01734642
0.01706010
0.01675584
0.01643403
0.01613452
0.01586973
0.01561636
0.01533368
0.01503940
0.01478676
0.01455006
0.01432114
0.01410203
0.01389487
0.01363439
0.01333303
0.01299447
0.01296637
0.01379366
0.01490808
0.01583078
0.01655376
0.01722177
0.01775897
0.01804663
0.01829583
0.01834576
0.01813918
0.01758176
0.01753770
0.01642525
0.01617375
0.01583134
0.01504065
0.01535323
0.01498326
0.01540503
0.01516907
0.01612224
0.01599515
0.01622926
0.01652104
0.01698684
0.02366994
0.02578383
0.02577010
0.01947168
0.01598657
0.01897937
0.02175356
0.02298383
0.02317496
0.02262204
0.02208813
0.02171812
0.02150802
0.02089962
0.02090591
0.02059108
0.02057227
0.02061668
0.02070281
0.02133731
0.02203021
0.02310048
0.02431331
0.02593954
0.02789744
0.02993387
0.03197688
0.03423278
0.03587831
0.03736292
0.03821001
0.03866448
0.03934932
0.03958207
0.03950049
0.03911536
0.03909048
0.03903758
0.03915684
0.03893486
0.03866578
0.03823407
0.03755029
0.03693049
0.03616020
0.03557652
0.03492215
0.03438221
0.03375783
0.03313518
0.03237238
0.03174681
0.03108725
0.03046518
0.02989119
0.02940097
0.02872233
0.02809383
0.02749878
0.02695449
0.02653886
0.02609869
0.02573180
0.02541177
0.02506480
0.02468487
0.02428298
0.02384589
0.02345986
0.02303730
0.02255668
0.02205528
0.02159504
0.02119397
0.02079452
0.02042853
0.02008604
0.01975514
0.01944631
0.01911345
0.01878213
0.01845054
0.01816480
0.01788412
0.01758440
0.01727787
0.01701626
0.01678082
0.01654002
0.01633189
0.01612176
0.01589028
0.01562393
0.01531848
0.01522604
0.01578357
0.01670161
0.01756425
0.01832036
0.01898235
0.01971062
0.02015310
0.02073212
0.02053940
0.02080290
0.02060619
0.02017369
0.01987590
0.01969655
0.01904032
0.01909155
0.01971210
0.01970536
0.02005877
0.01983343
0.02076689
0.01991654
0.02026804
0.02108649
0.02201421
0.02831585
0.03041578
0.03062733
0.02497632
0.01868573
0.02121008
0.02419730
0.02503034
0.02504308
0.02446710
0.02404669
0.02367898
0.02326388
0.02267099
0.02258088
0.02225316
0.02210714
0.02208351
0.02216556
0.02281110
0.02351520
0.02461481
0.02595359
0.02768816
0.02971457
0.03194819
0.03409275
0.03641084
0.03812723
0.03967119
0.04055044
0.04106928
0.04179037
0.04209629
0.04205619
0.04169772
0.04169374
0.04165592
0.04176985
0.04155463
0.04124238
0.04087040
0.04021520
0.03953523
0.03878103
0.03820047
0.03751523
0.03697448
0.03633632
0.03568549
0.03486920
0.03423897
0.03360340
0.03295530
0.03237167
0.03185307
0.03113726
0.03044447
0.02980940
0.02923735
0.02879649
0.02835325
0.02794333
0.02758288
0.02722077
0.02681640
0.02638079
0.02590112
0.02549033
0.02504149
0.02454229
0.02403731
0.02355687
0.02311971
0.02270008
0.02229784
0.02191229
0.02155009
0.02122418
0.02088471
0.02053647
0.02019245
0.01988283
0.01958033
0.01926666
0.01895230
0.01869338
0.01844834
0.01820958
0.01799368
0.01779692
0.01759204
0.01735907
0.01709852
0.01698814
0.01734148
0.01804528
0.01878566
0.01951303
0.02016708
0.02088421
0.02152689
0.02206422
0.02239552
0.02243738
0.02250350
0.02208532
0.02227098
0.02173323
0.02165372
0.02172943
0.02201064
0.02262440
0.02279254
0.02277344
0.02309794
0.02237838
0.02233688
0.02400802
0.02622116
0.03153884
0.03399015
0.03492978
0.03081380
0.02263783
0.02392853
0.02629188
0.02704533
0.02685778
0.02607030
0.02554857
0.02518396
0.02465931
0.02400251
0.02392597
0.02355093
0.02332857
0.02325738
0.02333579
0.02399639
0.02475526
0.02590217
0.02735788
0.02922235
0.03131636
0.03367963
0.03585422
0.03819818
0.03994635
0.04153611
0.04243350
0.04299132
0.04371417
0.04408126
0.04406212
0.04376454
0.04376290
0.04372580
0.04381525
0.04360880
0.04325894
0.04293531
0.04228923
0.04157490
0.04083949
0.04025314
0.03954369
0.03899064
0.03835848
0.03767749
0.03682020
0.03617800
0.03556355
0.03491372
0.03429441
0.03376459
0.03300919
0.03227587
0.03161296
0.03102004
0.03055622
0.03010935
0.02965677
0.02925481
0.02885779
0.02843729
0.02796646
0.02747132
0.02702051
0.02656053
0.02605974
0.02556765
0.02506374
0.02460226
0.02416445
0.02373507
0.02332364
0.02292715
0.02258160
0.02223216
0.02187697
0.02152719
0.02119865
0.02087344
0.02055707
0.02024805
0.01998088
0.01972424
0.01947229
0.01925177
0.01906418
0.01888183
0.01867755
0.01846681
0.01835387
0.01857816
0.01908201
0.01968131
0.02033821
0.02100498
0.02174004
0.02237955
0.02296105
0.02338762
0.02361260
0.02363874
0.02372902
0.02355777
0.02346682
0.02360219
0.02375733
0.02347644
0.02414775
0.02415142
0.02450166
0.02448288
0.02377943
0.02337539
0.02531029
0.02879453
0.03309329
0.03594707
0.03823190
0.03608409
0.02733583
0.02653325
0.02843747
0.02896279
0.02842039
0.02760061
0.02681750
0.02649087
0.02586028
0.02513250
0.02499318
0.02456349
0.02439781
0.02422853
0.02432660
0.02500379
0.02586034
0.02706861
0.02864148
0.03063674
0.03278904
0.03522176
0.03739755
0.03973179
0.04148749
0.04309352
0.04401041
0.04458812
0.04529785
0.04570415
0.04566231
0.04546149
0.04545295
0.04541753
0.04545955
0.04525647
0.04488079
0.04459752
0.04395335
0.04322087
0.04249987
0.04190560
0.04119112
0.04061179
0.03998807
0.03927741
0.03839693
0.03773377
0.03713437
0.03648846
0.03583116
0.03528104
0.03451350
0.03374387
0.03306466
0.03245334
0.03197037
0.03152386
0.03102683
0.03057691
0.03013862
0.02970734
0.02921303
0.02870352
0.02822400
0.02774493
0.02725551
0.02676927
0.02625283
0.02577156
0.02531487
0.02486332
0.02443315
0.02402078
0.02365212
0.02328788
0.02292538
0.02257145
0.02223109
0.02189660
0.02158582
0.02128292
0.02099930
0.02072856
0.02046535
0.02022905
0.02004093
0.01987252
0.01969758
0.01952859
0.01942163
0.01955116
0.01990296
0.02037919
0.02096176
0.02160200
0.02232777
0.02303097
0.02360640
0.02398629
0.02434792
0.02457136
0.02464069
0.02459425
0.02472103
0.02463899
0.02464178
0.02471842
0.02490400
0.02513229
0.02567264
0.02552972
0.02465937
0.02388179
0.02535380
0.02946178
0.03310853
0.03649163
0.03979826
0.04016372
0.03243650
0.02938579
0.03074108
0.03085854
0.02993111
0.02896076
0.02805760
0.02765253
0.02690121
0.02616821
0.02591181
0.02546613
0.02530661
0.02512996
0.02526406
0.02595363
0.02692351
0.02819948
0.02987102
0.03197724
0.03417210
0.03662085
0.03880883
0.04110028
0.04283025
0.04445155
0.04538598
0.04594244
0.04665362
0.04707162
0.04696977
0.04688471
0.04687140
0.04682910
0.04681754
0.04660212
0.04622936
0.04596229
0.04531565
0.04457580
0.04387240
0.04326939
0.04256409
0.04193674
0.04132630
0.04058872
0.03970177
0.03900910
0.03842509
0.03778348
0.03708701
0.03649483
0.03573918
0.03495748
0.03427113
0.03363692
0.03312855
0.03268131
0.03214860
0.03164921
0.03117509
0.03073501
0.03022821
0.02969890
0.02919122
0.02869584
0.02822243
0.02772347
0.02720320
0.02670889
0.02623460
0.02576165
0.02532226
0.02490460
0.02451622
0.02414583
0.02376959
0.02341272
0.02306188
0.02272711
0.02242260
0.02212432
0.02182079
0.02153638
0.02126062
0.02101535
0.02081578
0.02064926
0.02049730
0.02035808
0.02026241
0.02032041
0.02057269
0.02094677
0.02146546
0.02203963
0.02274061
0.02338064
0.02402441
0.02451139
0.02490123
0.02515529
0.02515890
0.02549868
0.02541246
0.02539743
0.02557277
0.02631411
0.02580417
0.02603573
0.02641953
0.02630473
0.02534084
0.02426355
0.02494214
0.02880285
0.03207988
0.03600201
0.04014117
0.04300543
0.03777903
0.03278401
0.03325236
0.03287739
0.03153449
0.03031737
0.02925369
0.02881549
0.02793197
0.02711307
0.02678082
0.02632982
0.02619744
0.02601461
0.02616873
0.02688623
0.02797566
0.02933051
0.03108379
0.03327242
0.03549326
0.03792378
0.04012837
0.04235051
0.04403173
0.04566962
0.04662609
0.04715734
0.04786114
0.04826091
0.04807488
0.04808192
0.04809577
0.04803678
0.04797869
0.04771963
0.04738483
0.04711503
0.04644871
0.04570315
0.04502458
0.04441337
0.04372659
0.04305034
0.04243975
0.04168256
0.04080382
0.04007266
0.03950453
0.03885987
0.03812607
0.03748620
0.03676729
0.03598174
0.03529602
0.03462449
0.03409584
0.03363480
0.03307927
0.03253672
0.03203764
0.03158190
0.03107235
0.03052756
0.02999959
0.02948296
0.02901457
0.02849302
0.02797481
0.02747432
0.02698459
0.02649858
0.02604797
0.02562954
0.02522810
0.02485328
0.02447374
0.02410977
0.02375170
0.02341809
0.02311017
0.02281819
0.02249692
0.02219680
0.02191726
0.02166449
0.02145096
0.02127488
0.02113238
0.02100912
0.02092757
0.02093879
0.02112375
0.02142101
0.02187054
0.02240804
0.02305453
0.02369509
0.02431451
0.02481138
0.02521224
0.02546722
0.02570270
0.02584853
0.02591412
0.02618970
0.02651256
0.02699005
0.02679067
0.02693887
0.02733939
0.02698923
0.02587358
0.02462771
0.02462923
0.02764806
0.03047575
0.03462406
0.03960304
0.04456595
0.04292603
0.03659104
0.03601546
0.03508023
0.03328618
0.03173203
0.03050558
0.02994499
0.02899308
0.02809400
0.02765788
0.02718171
0.02708841
0.02690549
0.02707785
0.02783298
0.02903696
0.03047552
0.03230283
0.03454073
0.03676921
0.03916234
0.04138494
0.04350190
0.04514356
0.04680099
0.04778755
0.04830834
0.04897637
0.04930424
0.04905273
0.04911413
0.04918512
0.04910377
0.04900373
0.04869323
0.04840395
0.04812654
0.04741750
0.04665874
0.04600111
0.04539136
0.04471870
0.04402157
0.04339232
0.04260542
0.04174879
0.04098606
0.04042045
0.03976475
0.03901262
0.03832861
0.03763927
0.03686025
0.03617527
0.03546911
0.03491317
0.03442594
0.03385352
0.03328789
0.03277558
0.03229803
0.03178292
0.03123701
0.03068265
0.03015109
0.02966773
0.02912782
0.02861404
0.02811371
0.02761752
0.02712441
0.02666111
0.02623397
0.02582610
0.02544725
0.02507306
0.02470309
0.02434073
0.02400451
0.02368472
0.02339590
0.02306357
0.02274897
0.02247430
0.02221161
0.02198187
0.02179318
0.02164323
0.02152382
0.02145127
0.02143946
0.02158314
0.02182586
0.02220763
0.02269275
0.02327835
0.02390478
0.02453565
0.02507798
0.02544840
0.02583896
0.02599646
0.02611597
0.02649261
0.02662249
0.02679259
0.02699371
0.02761899
0.02775327
0.02796546
0.02735381
0.02632989
0.02500521
0.02451735
0.02647972
0.02875228
0.03274854
0.03821576
0.04491662
0.04732844
0.04083525
0.03903929
0.03744313
0.03527635
0.03332753
0.03185733
0.03116649
0.03008255
0.02910203
0.02857012
0.02805933
0.02799594
0.02785003
0.02802523
0.02880495
0.03011954
0.03163202
0.03352796
0.03578769
0.03801157
0.04035068
0.04261899
0.04460198
0.04621610
0.04787771
0.04891308
0.04943213
0.05002803
0.05025621
0.04997408
0.05005262
0.05017515
0.05008113
0.04993322
0.04958986
0.04933392
0.04904104
0.04827985
0.04749515
0.04684823
0.04624292
0.04557804
0.04487351
0.04423435
0.04340013
0.04256928
0.04177927
0.04121083
0.04053958
0.03979226
0.03906375
0.03838412
0.03762009
0.03693531
0.03621060
0.03560960
0.03508952
0.03450434
0.03393086
0.03341665
0.03291097
0.03238527
0.03184505
0.03126263
0.03072201
0.03020942
0.02966565
0.02915399
0.02866111
0.02816132
0.02766640
0.02719377
0.02675624
0.02633956
0.02595571
0.02558456
0.02521550
0.02484963
0.02450786
0.02418074
0.02388354
0.02355132
0.02322610
0.02295245
0.02267957
0.02243880
0.02223490
0.02206925
0.02193904
0.02186600
0.02184830
0.02196660
0.02217473
0.02250246
0.02293218
0.02346659
0.02406012
0.02464655
0.02517879
0.02568944
0.02602669
0.02625233
0.02658188
0.02668290
0.02687896
0.02695099
0.02732599
0.02828173
0.02816746
0.02815462
0.02757332
0.02662558
0.02535804
0.02457449
0.02555493
0.02732099
0.03083031
0.03624977
0.04426079
0.05056186
0.04542813
0.04240906
0.04011686
0.03747094
0.03510024
0.03333993
0.03244567
0.03128987
0.03017937
0.02954923
0.02899721
0.02894588
0.02885390
0.02903075
0.02982472
0.03122619
0.03281901
0.03474914
0.03701301
0.03921914
0.04152321
0.04383350
0.04569548
0.04728688
0.04893005
0.05002357
0.05055104
0.05102688
0.05116671
0.05088527
0.05094712
0.05108584
0.05100067
0.05081099
0.05044833
0.05020638
0.04987664
0.04908190
0.04826510
0.04761553
0.04700832
0.04635400
0.04562536
0.04497870
0.04409708
0.04328953
0.04247633
0.04190309
0.04122514
0.04048611
0.03972177
0.03902619
0.03828883
0.03759487
0.03687286
0.03621444
0.03565219
0.03505980
0.03448475
0.03396587
0.03342872
0.03289026
0.03235939
0.03176057
0.03120642
0.03067115
0.03013648
0.02962151
0.02913435
0.02863353
0.02813972
0.02765853
0.02721768
0.02678623
0.02639612
0.02602589
0.02565892
0.02529563
0.02494213
0.02461511
0.02430239
0.02397823
0.02364997
0.02336843
0.02309141
0.02283648
0.02261913
0.02243580
0.02229149
0.02220426
0.02218642
0.02227879
0.02246916
0.02276040
0.02313821
0.02361832
0.02416571
0.02474152
0.02527855
0.02575643
0.02614238
0.02647677
0.02669855
0.02683660
0.02717388
0.02760913
0.02781569
0.02834873
0.02824204
0.02820044
0.02774199
0.02685272
0.02564513
0.02474515
0.02504854
0.02625962
0.02909811
0.03412257
0.04277742
0.05247366
0.05018743
0.04605831
0.04305088
0.03986263
0.03705656
0.03498481
0.03385259
0.03260661
0.03135244
0.03062017
0.03002480
0.02996078
0.02990743
0.03012145
0.03091961
0.03237173
0.03404016
0.03595344
0.03823402
0.04041034
0.04271500
0.04502963
0.04678243
0.04836203
0.05001476
0.05115431
0.05168929
0.05201319
0.05206073
0.05180636
0.05182054
0.05194809
0.05187740
0.05164216
0.05128637
0.05105761
0.05066367
0.04984921
0.04900585
0.04835105
0.04772616
0.04706447
0.04630227
0.04562890
0.04473038
0.04393566
0.04311531
0.04252048
0.04185532
0.04110605
0.04031519
0.03959203
0.03887660
0.03817309
0.03745477
0.03674792
0.03613911
0.03554096
0.03496182
0.03443406
0.03386314
0.03330706
0.03279388
0.03219242
0.03161575
0.03107866
0.03056316
0.03004406
0.02955097
0.02904994
0.02855746
0.02807206
0.02762870
0.02718667
0.02678705
0.02641497
0.02604244
0.02568158
0.02531953
0.02499373
0.02466852
0.02434880
0.02402855
0.02374091
0.02345909
0.02318788
0.02296119
0.02276124
0.02259870
0.02249109
0.02246864
0.02253497
0.02271619
0.02298734
0.02332161
0.02374408
0.02425232
0.02480140
0.02531714
0.02579820
0.02617298
0.02653264
0.02685998
0.02717887
0.02740916
0.02770968
0.02811441
0.02819386
0.02833035
0.02823493
0.02786371
0.02699363
0.02585307
0.02493542
0.02480774
0.02553948
0.02767298
0.03203424
0.04070233
0.05308003
0.05482021
0.04999836
0.04630972
0.04255574
0.03925779
0.03681564
0.03539012
0.03406465
0.03266867
0.03180537
0.03115518
0.03105605
0.03102333
0.03127777
0.03209534
0.03360392
0.03529312
0.03717394
0.03946492
0.04162571
0.04394815
0.04623992
0.04787766
0.04947053
0.05114535
0.05232363
0.05285226
0.05301896
0.05295428
0.05276929
0.05269211
0.05278898
0.05272504
0.05243326
0.05211604
0.05190233
0.05142876
0.05058499
0.04972545
0.04908964
0.04842954
0.04772699
0.04693491
0.04620770
0.04533154
0.04452920
0.04371890
0.04308573
0.04244991
0.04166449
0.04085415
0.04009944
0.03939381
0.03867974
0.03795301
0.03721926
0.03656613
0.03596289
0.03537732
0.03483445
0.03423169
0.03365921
0.03315558
0.03257569
0.03196211
0.03143890
0.03094947
0.03043698
0.02993100
0.02942396
0.02893527
0.02844868
0.02799896
0.02754993
0.02713939
0.02676359
0.02638339
0.02601670
0.02565461
0.02532360
0.02499678
0.02467613
0.02436613
0.02407230
0.02378772
0.02350463
0.02326552
0.02305093
0.02287252
0.02274389
0.02270361
0.02275062
0.02292695
0.02317545
0.02347904
0.02385752
0.02431504
0.02482522
0.02532374
0.02578032
0.02621801
0.02656800
0.02691162
0.02717135
0.02736747
0.02764225
0.02822130
0.02795549
0.02840468
0.02850336
0.02789478
0.02706613
0.02600926
0.02510667
0.02473072
0.02508762
0.02657620
0.03014081
0.03831083
0.05237284
0.05895072
0.05419206
0.04988180
0.04552835
0.04169387
0.03886292
0.03709963
0.03569439
0.03413729
0.03311587
0.03238950
0.03223459
0.03222442
0.03249256
0.03335147
0.03493248
0.03658650
0.03844914
0.04070970
0.04290208
0.04522937
0.04747138
0.04902590
0.05063017
0.05230794
0.05354521
0.05401151
0.05403522
0.05386784
0.05378486
0.05357498
0.05364082
0.05356605
0.05322576
0.05294499
0.05275453
0.05218333
0.05129709
0.05041554
0.04982945
0.04912805
0.04836228
0.04753912
0.04675475
0.04592087
0.04509879
0.04428379
0.04362390
0.04299540
0.04218112
0.04134818
0.04055682
0.03985182
0.03912448
0.03838064
0.03763464
0.03694336
0.03634222
0.03574895
0.03518578
0.03456102
0.03397280
0.03346490
0.03291021
0.03227376
0.03175966
0.03129335
0.03079750
0.03028064
0.02976581
0.02927670
0.02878828
0.02833246
0.02787596
0.02745532
0.02707535
0.02669508
0.02632431
0.02596075
0.02562244
0.02529526
0.02497345
0.02466197
0.02435991
0.02407558
0.02378842
0.02353240
0.02330657
0.02311748
0.02297004
0.02290638
0.02294122
0.02310871
0.02333397
0.02361339
0.02395516
0.02436568
0.02483610
0.02530945
0.02577211
0.02618895
0.02652562
0.02683386
0.02716746
0.02748121
0.02779576
0.02784765
0.02808546
0.02845572
0.02840559
0.02787480
0.02708217
0.02610893
0.02524051
0.02473065
0.02480176
0.02575587
0.02854546
0.03583663
0.05062690
0.06213956
0.05855524
0.05376214
0.04878744
0.04439467
0.04114358
0.03900693
0.03747975
0.03575129
0.03456244
0.03374330
0.03350042
0.03352633
0.03378340
0.03468667
0.03632340
0.03793185
0.03977961
0.04200924
0.04424055
0.04655831
0.04872391
0.05025968
0.05182568
0.05351160
0.05477925
0.05517100
0.05507092
0.05483104
0.05484419
0.05449591
0.05451096
0.05439806
0.05405013
0.05377631
0.05358044
0.05292161
0.05201031
0.05109515
0.05056466
0.04982990
0.04896924
0.04811192
0.04729963
0.04650290
0.04565058
0.04481504
0.04415102
0.04347995
0.04265949
0.04180374
0.04098317
0.04025741
0.03951524
0.03875870
0.03800318
0.03729227
0.03669539
0.03611050
0.03551706
0.03487311
0.03427041
0.03374143
0.03320473
0.03258498
0.03206287
0.03160318
0.03111833
0.03060370
0.03008783
0.02958736
0.02909368
0.02863165
0.02817123
0.02774271
0.02735306
0.02698619
0.02662154
0.02625729
0.02590461
0.02557251
0.02524704
0.02492827
0.02461400
0.02432549
0.02403919
0.02377199
0.02353471
0.02333099
0.02317424
0.02309568
0.02311963
0.02326857
0.02347055
0.02372667
0.02403225
0.02440439
0.02483982
0.02527734
0.02571892
0.02613040
0.02649015
0.02681091
0.02714010
0.02750715
0.02784101
0.02796758
0.02854618
0.02839755
0.02820634
0.02779772
0.02706216
0.02614650
0.02532593
0.02475238
0.02460844
0.02516132
0.02724270
0.03345492
0.04809083
0.06399576
0.06297349
0.05793054
0.05229651
0.04736729
0.04367590
0.04117224
0.03944731
0.03752308
0.03616079
0.03522521
0.03488623
0.03494540
0.03517078
0.03609457
0.03774679
0.03932548
0.04116059
0.04335759
0.04562227
0.04791661
0.05000729
0.05157721
0.05308767
0.05476563
0.05598703
0.05633212
0.05617999
0.05587066
0.05593759
0.05547201
0.05541195
0.05525738
0.05490409
0.05461439
0.05437413
0.05363898
0.05272802
0.05181673
0.05130449
0.05052150
0.04958890
0.04866416
0.04784856
0.04707114
0.04617656
0.04531882
0.04466635
0.04392308
0.04310173
0.04222990
0.04140395
0.04063107
0.03986989
0.03910763
0.03834266
0.03763793
0.03704135
0.03646573
0.03583718
0.03518108
0.03456009
0.03400294
0.03346692
0.03289289
0.03235983
0.03188735
0.03140437
0.03090227
0.03039649
0.02987747
0.02937173
0.02890130
0.02845074
0.02801659
0.02761123
0.02725775
0.02690125
0.02654277
0.02617512
0.02583093
0.02550433
0.02517842
0.02484947
0.02454758
0.02426429
0.02399393
0.02374572
0.02352038
0.02336121
0.02327738
0.02329045
0.02340719
0.02359587
0.02382381
0.02409413
0.02443898
0.02483422
0.02525482
0.02565436
0.02603495
0.02638133
0.02672406
0.02701476
0.02738642
0.02760181
0.02822534
0.02857281
0.02818917
0.02809843
0.02769583
0.02700364
0.02615398
0.02536943
0.02476761
0.02446649
0.02471703
0.02620812
0.03131429
0.04502043
0.06432919
0.06724909
0.06226820
0.05604863
0.05060052
0.04650225
0.04360453
0.04162598
0.03948499
0.03791695
0.03685654
0.03641488
0.03648211
0.03666969
0.03756659
0.03920456
0.04078068
0.04259583
0.04477798
0.04705480
0.04930691
0.05132628
0.05293439
0.05444766
0.05609541
0.05720880
0.05750031
0.05734717
0.05700844
0.05707663
0.05649889
0.05639922
0.05615239
0.05580274
0.05547184
0.05518852
0.05438761
0.05344501
0.05258017
0.05202599
0.05119753
0.05024078
0.04923289
0.04840797
0.04762092
0.04669830
0.04581706
0.04514910
0.04435771
0.04354162
0.04265685
0.04182732
0.04099982
0.04021023
0.03945772
0.03867722
0.03799422
0.03738864
0.03680729
0.03615387
0.03549318
0.03483938
0.03425133
0.03371384
0.03317633
0.03263990
0.03215397
0.03166873
0.03117686
0.03069017
0.03015593
0.02963223
0.02915683
0.02872454
0.02828361
0.02786965
0.02751201
0.02716493
0.02680937
0.02643788
0.02608052
0.02574480
0.02541751
0.02507655
0.02475763
0.02447316
0.02419815
0.02394792
0.02370153
0.02353736
0.02344419
0.02344710
0.02353196
0.02370872
0.02390449
0.02415160
0.02447210
0.02483295
0.02522188
0.02559229
0.02594908
0.02627732
0.02663314
0.02699016
0.02731941
0.02757110
0.02799853
0.02814804
0.02820902
0.02802764
0.02758391
0.02691484
0.02611423
0.02537493
0.02476539
0.02434954
0.02436906
0.02540131
0.02945820
0.04170849
0.06318958
0.07106619
0.06665220
0.06005023
0.05409706
0.04964447
0.04630114
0.04402667
0.04166594
0.03984721
0.03863107
0.03811331
0.03815934
0.03829317
0.03914749
0.04072722
0.04230395
0.04412042
0.04629956
0.04853965
0.05073398
0.05273074
0.05435454
0.05585947
0.05748119
0.05851439
0.05872718
0.05856494
0.05824148
0.05825700
0.05758653
0.05747437
0.05707619
0.05674036
0.05635447
0.05603721
0.05518990
0.05419385
0.05335714
0.05273590
0.05187415
0.05091922
0.04982832
0.04898318
0.04815445
0.04722775
0.04632424
0.04561224
0.04480879
0.04397171
0.04309813
0.04223872
0.04137738
0.04055337
0.03981204
0.03902488
0.03834840
0.03772733
0.03712194
0.03645919
0.03579611
0.03511063
0.03450680
0.03396513
0.03343646
0.03289909
0.03240109
0.03192369
0.03143385
0.03095374
0.03041941
0.02988946
0.02941045
0.02898757
0.02854817
0.02812525
0.02775652
0.02741572
0.02705645
0.02668856
0.02632204
0.02597717
0.02564482
0.02530085
0.02496435
0.02466740
0.02438370
0.02413558
0.02388243
0.02370505
0.02360020
0.02359100
0.02365409
0.02380463
0.02397965
0.02421273
0.02449976
0.02482813
0.02518245
0.02552613
0.02585464
0.02617029
0.02648555
0.02683440
0.02712601
0.02748258
0.02759683
0.02785681
0.02812582
0.02784993
0.02741068
0.02679644
0.02605001
0.02534868
0.02474145
0.02424613
0.02410147
0.02476769
0.02789591
0.03844207
0.06060329
0.07403035
0.07099659
0.06431644
0.05788560
0.05306879
0.04926895
0.04665313
0.04407885
0.04197295
0.04056884
0.03998286
0.03998373
0.04005810
0.04085156
0.04235854
0.04389020
0.04573393
0.04794007
0.05007533
0.05218405
0.05426087
0.05586774
0.05733723
0.05889030
0.05991400
0.06007217
0.05982189
0.05955787
0.05948877
0.05875673
0.05855696
0.05803658
0.05770437
0.05728333
0.05690460
0.05603538
0.05501314
0.05414104
0.05347693
0.05254574
0.05158902
0.05043203
0.04954947
0.04868560
0.04776051
0.04685324
0.04608257
0.04527424
0.04438786
0.04352889
0.04265079
0.04176857
0.04091378
0.04017460
0.03938768
0.03868557
0.03805653
0.03741941
0.03675377
0.03608675
0.03539169
0.03478607
0.03422758
0.03369608
0.03314530
0.03263515
0.03217067
0.03167472
0.03118376
0.03066853
0.03014370
0.02966320
0.02923548
0.02880338
0.02837323
0.02799179
0.02765076
0.02728782
0.02691859
0.02654943
0.02620125
0.02586019
0.02551825
0.02516429
0.02485161
0.02455996
0.02430223
0.02405578
0.02385981
0.02374490
0.02372989
0.02377119
0.02388792
0.02405585
0.02427719
0.02453092
0.02482053
0.02514262
0.02545961
0.02575885
0.02606309
0.02635591
0.02669554
0.02703989
0.02729481
0.02758074
0.02774942
0.02782231
0.02763749
0.02724355
0.02665429
0.02596101
0.02529481
0.02469704
0.02414620
0.02388471
0.02426861
0.02662336
0.03539458
0.05695866
0.07571423
0.07519247
0.06878806
0.06194774
0.05675272
0.05246645
0.04953191
0.04673503
0.04431519
0.04270198
0.04202476
0.04195102
0.04199569
0.04270036
0.04409742
0.04557457
0.04739662