/*--------------------------------*- C++ -*----------------------------------*\
  =========                 |
  \\      /  F ield         | OpenFOAM: The Open Source CFD Toolbox
   \\    /   O peration     | Website:  https://openfoam.org
    \\  /    A nd           | Version:  7
     \\/     M anipulation  |
\*---------------------------------------------------------------------------*/
FoamFile
{
    version     2.0;
    format      ascii;
    class       volSymmTensorField;
    location    "0";
    object      tauij_LES;
}
// * * * * * * * * * * * * * * * * * * * * * * * * * * * * * * * * * * * * * //

dimensions      [0 2 -2 0 0 0 0];

internalField   nonuniform List<symmTensor>
15600
(
(0.00187378 -0.00000857 0.00000000 0.00000037 0.00000000 0.00087306)
(0.00211733 -0.00000398 0.00000000 -0.00000212 0.00000000 0.00088662)
(0.00021343 -0.00016179 0.00000000 0.00011280 0.00000000 0.00093852)
(0.00030614 0.00004965 0.00000000 -0.00003019 0.00000000 0.00015294)
(0.00003363 -0.00018225 0.00000000 0.00014535 0.00000000 0.00069019)
(0.00080949 -0.00046269 0.00000000 0.00023694 0.00000000 0.00120197)
(0.00105868 -0.00069030 0.00000000 0.00043704 0.00000000 0.00286239)
(0.00065228 -0.00053631 0.00000000 0.00040194 0.00000000 0.00122121)
(0.00120918 -0.00088484 0.00000000 0.00063663 0.00000000 0.00152559)
(0.00124606 -0.00048875 0.00000000 0.00022261 0.00000000 0.00224585)
(0.00194239 -0.00120395 0.00000000 0.00075726 0.00000000 0.00237403)
(0.00149866 -0.00037117 0.00000000 0.00007605 0.00000000 0.00181874)
(0.00154960 -0.00092032 0.00000000 0.00055501 0.00000000 0.00195424)
(0.00158611 -0.00062286 0.00000000 0.00026368 0.00000000 0.00262409)
(0.00145980 -0.00083999 0.00000000 0.00049272 0.00000000 0.00147065)
(0.00134992 -0.00074335 0.00000000 0.00041975 0.00000000 0.00170460)
(0.00190199 -0.00090914 0.00000000 0.00045353 0.00000000 0.00267835)
(0.00151534 -0.00082254 0.00000000 0.00045259 0.00000000 0.00148502)
(0.00174279 -0.00039414 0.00000000 0.00009046 0.00000000 0.00156544)
(0.00188520 -0.00068515 0.00000000 0.00027570 0.00000000 0.00297616)
(0.00216786 -0.00084633 0.00000000 0.00036549 0.00000000 0.00222808)
(0.00171114 -0.00038492 0.00000000 0.00011558 0.00000000 0.00230794)
(0.00222017 -0.00071755 0.00000000 0.00023881 0.00000000 0.00336279)
(0.00266688 -0.00015139 0.00000000 0.00007203 0.00000000 0.00453897)
(0.00420156 -0.00009144 0.00000000 0.00004088 0.00000000 0.00462115)
(0.00381181 0.00000868 0.00000000 0.00000888 0.00000000 0.00441580)
(0.00273318 0.00000978 0.00000000 -0.00000931 0.00000000 0.00329447)
(0.00297247 0.00000812 0.00000000 -0.00000720 0.00000000 0.00361600)
(0.00299299 0.00000785 0.00000000 -0.00000789 0.00000000 0.00389576)
(0.00321697 0.00000454 0.00000000 -0.00000090 0.00000000 0.00421950)
(0.00322761 0.00000606 0.00000000 -0.00000644 0.00000000 0.00417360)
(0.00316423 0.00000313 0.00000000 -0.00000564 0.00000000 0.00409623)
(0.00315596 0.00000229 0.00000000 -0.00000700 0.00000000 0.00403924)
(0.00312428 0.00000275 0.00000000 -0.00000940 0.00000000 0.00393094)
(0.00315990 -0.00000088 0.00000000 -0.00000119 0.00000000 0.00400470)
(0.00293443 0.00000122 0.00000000 -0.00000740 0.00000000 0.00382419)
(0.00301492 -0.00000423 0.00000000 0.00000062 0.00000000 0.00396039)
(0.00282967 -0.00000070 0.00000000 -0.00000724 0.00000000 0.00370620)
(0.00285974 -0.00000351 0.00000000 -0.00000433 0.00000000 0.00369462)
(0.00274197 -0.00000216 0.00000000 -0.00000596 0.00000000 0.00353414)
(0.00264890 -0.00000374 0.00000000 -0.00000539 0.00000000 0.00337859)
(0.00251183 -0.00000175 0.00000000 -0.00000721 0.00000000 0.00318937)
(0.00245498 -0.00000376 0.00000000 -0.00000450 0.00000000 0.00310781)
(0.00234446 -0.00000357 0.00000000 -0.00000532 0.00000000 0.00292716)
(0.00225705 -0.00000314 0.00000000 -0.00000506 0.00000000 0.00275656)
(0.00219939 -0.00000311 0.00000000 -0.00000390 0.00000000 0.00268387)
(0.00210814 -0.00000352 0.00000000 -0.00000409 0.00000000 0.00255708)
(0.00209918 -0.00000598 0.00000000 -0.00000156 0.00000000 0.00251054)
(0.00190688 -0.00000246 0.00000000 -0.00000437 0.00000000 0.00233524)
(0.00184857 -0.00000218 0.00000000 -0.00000431 0.00000000 0.00222882)
(0.00182408 -0.00000511 0.00000000 -0.00000216 0.00000000 0.00219008)
(0.00168971 -0.00000302 0.00000000 -0.00000362 0.00000000 0.00202836)
(0.00169575 -0.00000558 0.00000000 -0.00000147 0.00000000 0.00197369)
(0.00160820 -0.00000353 0.00000000 -0.00000264 0.00000000 0.00187041)
(0.00161689 -0.00000633 0.00000000 -0.00000027 0.00000000 0.00184869)
(0.00148556 -0.00000251 0.00000000 -0.00000281 0.00000000 0.00171912)
(0.00146329 -0.00000346 0.00000000 -0.00000216 0.00000000 0.00170671)
(0.00135849 -0.00000188 0.00000000 -0.00000277 0.00000000 0.00162704)
(0.00130537 -0.00000161 0.00000000 -0.00000303 0.00000000 0.00157367)
(0.00130472 -0.00000411 0.00000000 -0.00000131 0.00000000 0.00156373)
(0.00123333 -0.00000244 0.00000000 -0.00000208 0.00000000 0.00148546)
(0.00117517 -0.00000166 0.00000000 -0.00000229 0.00000000 0.00142262)
(0.00116765 -0.00000208 0.00000000 -0.00000192 0.00000000 0.00139560)
(0.00114117 -0.00000256 0.00000000 -0.00000152 0.00000000 0.00138136)
(0.00108836 -0.00000170 0.00000000 -0.00000192 0.00000000 0.00132372)
(0.00107887 -0.00000206 0.00000000 -0.00000157 0.00000000 0.00129527)
(0.00103162 -0.00000151 0.00000000 -0.00000187 0.00000000 0.00124876)
(0.00104413 -0.00000289 0.00000000 -0.00000114 0.00000000 0.00123974)
(0.00100318 -0.00000179 0.00000000 -0.00000161 0.00000000 0.00119366)
(0.00095244 -0.00000087 0.00000000 -0.00000189 0.00000000 0.00113219)
(0.00093222 -0.00000132 0.00000000 -0.00000158 0.00000000 0.00109204)
(0.00090780 -0.00000128 0.00000000 -0.00000148 0.00000000 0.00104737)
(0.00089105 -0.00000168 0.00000000 -0.00000124 0.00000000 0.00101678)
(0.00086039 -0.00000124 0.00000000 -0.00000135 0.00000000 0.00098270)
(0.00088684 -0.00000320 0.00000000 -0.00000045 0.00000000 0.00099311)
(0.00080922 -0.00000097 0.00000000 -0.00000140 0.00000000 0.00093413)
(0.00078688 -0.00000087 0.00000000 -0.00000132 0.00000000 0.00090385)
(0.00076540 -0.00000063 0.00000000 -0.00000143 0.00000000 0.00088583)
(0.00073689 -0.00000032 0.00000000 -0.00000150 0.00000000 0.00086093)
(0.00076977 -0.00000264 0.00000000 -0.00000052 0.00000000 0.00086919)
(0.00072472 -0.00000144 0.00000000 -0.00000092 0.00000000 0.00082097)
(0.00069769 -0.00000096 0.00000000 -0.00000105 0.00000000 0.00079089)
(0.00067789 -0.00000064 0.00000000 -0.00000110 0.00000000 0.00076634)
(0.00072266 -0.00000315 0.00000000 -0.00000007 0.00000000 0.00078570)
(0.00064685 -0.00000071 0.00000000 -0.00000101 0.00000000 0.00072487)
(0.00067719 -0.00000268 0.00000000 -0.00000013 0.00000000 0.00073881)
(0.00059952 -0.00000032 0.00000000 -0.00000105 0.00000000 0.00068534)
(0.00057936 -0.00000025 0.00000000 -0.00000103 0.00000000 0.00067043)
(0.00057806 -0.00000072 0.00000000 -0.00000080 0.00000000 0.00067030)
(0.00055061 -0.00000026 0.00000000 -0.00000097 0.00000000 0.00065674)
(0.00053272 -0.00000036 0.00000000 -0.00000085 0.00000000 0.00066054)
(0.00050856 -0.00000012 0.00000000 -0.00000095 0.00000000 0.00066023)
(0.00052672 -0.00000158 0.00000000 -0.00000001 0.00000000 0.00070610)
(0.00045221 0.00000022 0.00000000 -0.00000098 0.00000000 0.00068822)
(0.00067876 -0.00000262 0.00000000 0.00000166 0.00000000 0.00116786)
(0.00074944 0.00002726 0.00000000 0.00000632 0.00000000 0.00163264)
(0.00039329 0.00012410 0.00000000 0.00003990 0.00000000 0.00154535)
(0.00031835 0.00003035 0.00000000 0.00000402 0.00000000 0.00092274)
(0.00016988 0.00007168 0.00000000 0.00002575 0.00000000 0.00075840)
(0.00007876 0.00000172 0.00000000 -0.00000541 0.00000000 0.00049646)
(0.00010165 0.00006100 0.00000000 0.00003198 0.00000000 0.00056902)
(0.00003938 0.00002443 0.00000000 0.00001318 0.00000000 0.00083312)
(-0.00002092 0.00001403 0.00000000 0.00001463 0.00000000 -0.00003926)
(0.00002468 0.00002543 0.00000000 0.00001785 0.00000000 0.00036145)
(-0.00005363 -0.00000811 0.00000000 0.00000387 0.00000000 0.00004452)
(-0.00008527 -0.00002933 0.00000000 -0.00000959 0.00000000 -0.00017850)
(-0.00003004 -0.00000229 0.00000000 0.00000383 0.00000000 0.00036951)
(-0.00008734 -0.00003558 0.00000000 -0.00001360 0.00000000 -0.00014158)
(-0.00020818 -0.00009189 0.00000000 -0.00003979 0.00000000 0.00017625)
(-0.00002114 -0.00001291 0.00000000 -0.00000767 0.00000000 -0.00009489)
(-0.00002009 -0.00000330 0.00000000 0.00000201 0.00000000 0.00016892)
(-0.00013823 -0.00005038 0.00000000 -0.00001677 0.00000000 -0.00023170)
(-0.00017762 -0.00005502 0.00000000 -0.00001342 0.00000000 -0.00027142)
(-0.00007150 -0.00000986 0.00000000 0.00000929 0.00000000 0.00008179)
(-0.00021377 -0.00010223 0.00000000 -0.00004488 0.00000000 -0.00015273)
(-0.00030969 -0.00015437 0.00000000 -0.00007082 0.00000000 -0.00027776)
(-0.00004824 0.00000708 0.00000000 0.00001014 0.00000000 0.00005865)
(0.00002005 0.00001812 0.00000000 0.00000811 0.00000000 0.00004242)
(0.00085690 0.00000574 0.00000000 0.00000007 0.00000000 0.00049787)
(0.00135192 -0.00000359 0.00000000 -0.00000005 0.00000000 0.00069288)
(0.00586927 -0.00006830 0.00000000 0.00001909 0.00000000 0.00218482)
(0.00635280 -0.00007733 0.00000000 0.00002338 0.00000000 0.00230584)
(0.00311922 -0.00081091 0.00000000 0.00026698 0.00000000 0.00205306)
(0.00208976 -0.00003405 0.00000000 -0.00001057 0.00000000 0.00138314)
(0.00204724 -0.00080995 0.00000000 0.00036141 0.00000000 0.00226177)
(0.00373924 -0.00133783 0.00000000 0.00057569 0.00000000 0.00390058)
(0.00496531 -0.00245243 0.00000000 0.00133930 0.00000000 0.00748174)
(0.00383933 -0.00257556 0.00000000 0.00180515 0.00000000 0.00469095)
(0.00384777 -0.00265731 0.00000000 0.00188925 0.00000000 0.00430722)
(0.00529756 -0.00239824 0.00000000 0.00125426 0.00000000 0.00689479)
(0.00483178 -0.00291006 0.00000000 0.00190417 0.00000000 0.00566371)
(0.00578626 -0.00232151 0.00000000 0.00109695 0.00000000 0.00622171)
(0.00559065 -0.00311213 0.00000000 0.00187389 0.00000000 0.00617789)
(0.00583548 -0.00251707 0.00000000 0.00126627 0.00000000 0.00667305)
(0.00492569 -0.00274573 0.00000000 0.00164997 0.00000000 0.00480799)
(0.00529508 -0.00272726 0.00000000 0.00155824 0.00000000 0.00571013)
(0.00607427 -0.00280467 0.00000000 0.00148170 0.00000000 0.00669640)
(0.00637986 -0.00337868 0.00000000 0.00190528 0.00000000 0.00561515)
(0.00739883 -0.00274002 0.00000000 0.00122662 0.00000000 0.00685795)
(0.00695084 -0.00256814 0.00000000 0.00116157 0.00000000 0.00782680)
(0.00827298 -0.00266146 0.00000000 0.00112290 0.00000000 0.00828163)
(0.00803273 -0.00218541 0.00000000 0.00085456 0.00000000 0.00876042)
(0.00888460 -0.00185835 0.00000000 0.00068452 0.00000000 0.01033282)
(0.00942271 -0.00113620 0.00000000 0.00050602 0.00000000 0.01200953)
(0.01198269 -0.00099410 0.00000000 0.00059063 0.00000000 0.01417309)
(0.01135321 -0.00004677 0.00000000 0.00042689 0.00000000 0.01428476)
(0.01068122 0.00000511 0.00000000 0.00032049 0.00000000 0.01380778)
(0.01144380 -0.00002281 0.00000000 0.00034930 0.00000000 0.01492149)
(0.01173390 -0.00003907 0.00000000 0.00035542 0.00000000 0.01600956)
(0.01233081 -0.00006423 0.00000000 0.00037217 0.00000000 0.01680749)
(0.01266493 -0.00006627 0.00000000 0.00036912 0.00000000 0.01697173)
(0.01274022 -0.00009128 0.00000000 0.00035530 0.00000000 0.01677597)
(0.01294109 -0.00010686 0.00000000 0.00034385 0.00000000 0.01673889)
(0.01298716 -0.00010829 0.00000000 0.00034821 0.00000000 0.01643683)
(0.01288926 -0.00011561 0.00000000 0.00032989 0.00000000 0.01630385)
(0.01246592 -0.00012905 0.00000000 0.00031505 0.00000000 0.01611100)
(0.01243106 -0.00014857 0.00000000 0.00031123 0.00000000 0.01604187)
(0.01230948 -0.00016745 0.00000000 0.00029727 0.00000000 0.01567513)
(0.01252157 -0.00018298 0.00000000 0.00028754 0.00000000 0.01554310)
(0.01228361 -0.00017868 0.00000000 0.00027688 0.00000000 0.01512585)
(0.01213546 -0.00019894 0.00000000 0.00025670 0.00000000 0.01460109)
(0.01183309 -0.00018849 0.00000000 0.00024500 0.00000000 0.01406791)
(0.01151325 -0.00019003 0.00000000 0.00022671 0.00000000 0.01357555)
(0.01129350 -0.00020749 0.00000000 0.00021802 0.00000000 0.01299612)
(0.01099863 -0.00019975 0.00000000 0.00020504 0.00000000 0.01239178)
(0.01071526 -0.00019526 0.00000000 0.00019616 0.00000000 0.01193374)
(0.01049173 -0.00020218 0.00000000 0.00018423 0.00000000 0.01146098)
(0.01025153 -0.00019906 0.00000000 0.00017602 0.00000000 0.01108322)
(0.00990269 -0.00020041 0.00000000 0.00016645 0.00000000 0.01067514)
(0.00972156 -0.00019804 0.00000000 0.00016036 0.00000000 0.01021600)
(0.00942286 -0.00019805 0.00000000 0.00014578 0.00000000 0.00986589)
(0.00909976 -0.00019544 0.00000000 0.00013702 0.00000000 0.00939377)
(0.00889635 -0.00019133 0.00000000 0.00013190 0.00000000 0.00891685)
(0.00868730 -0.00018707 0.00000000 0.00012717 0.00000000 0.00862946)
(0.00843441 -0.00018332 0.00000000 0.00011877 0.00000000 0.00831288)
(0.00824697 -0.00018330 0.00000000 0.00011473 0.00000000 0.00805021)
(0.00798829 -0.00017530 0.00000000 0.00011172 0.00000000 0.00786182)
(0.00770734 -0.00017374 0.00000000 0.00010696 0.00000000 0.00764086)
(0.00746409 -0.00017267 0.00000000 0.00010197 0.00000000 0.00741474)
(0.00724544 -0.00017351 0.00000000 0.00009809 0.00000000 0.00720259)
(0.00709385 -0.00017181 0.00000000 0.00009227 0.00000000 0.00700999)
(0.00692339 -0.00016910 0.00000000 0.00008977 0.00000000 0.00678434)
(0.00680952 -0.00016447 0.00000000 0.00008502 0.00000000 0.00663512)
(0.00664609 -0.00016111 0.00000000 0.00008197 0.00000000 0.00652236)
(0.00651203 -0.00016021 0.00000000 0.00007823 0.00000000 0.00634665)
(0.00641068 -0.00015895 0.00000000 0.00007753 0.00000000 0.00617808)
(0.00627717 -0.00015739 0.00000000 0.00007366 0.00000000 0.00602083)
(0.00618829 -0.00015355 0.00000000 0.00006817 0.00000000 0.00588745)
(0.00608108 -0.00015009 0.00000000 0.00006901 0.00000000 0.00572204)
(0.00595166 -0.00014727 0.00000000 0.00006552 0.00000000 0.00553425)
(0.00580870 -0.00014283 0.00000000 0.00006203 0.00000000 0.00532692)
(0.00568497 -0.00014020 0.00000000 0.00006106 0.00000000 0.00512210)
(0.00553505 -0.00013568 0.00000000 0.00005918 0.00000000 0.00493672)
(0.00541325 -0.00013313 0.00000000 0.00005648 0.00000000 0.00479357)
(0.00530053 -0.00013010 0.00000000 0.00005453 0.00000000 0.00467978)
(0.00517361 -0.00012859 0.00000000 0.00005290 0.00000000 0.00456287)
(0.00506922 -0.00012568 0.00000000 0.00005173 0.00000000 0.00443927)
(0.00495680 -0.00012158 0.00000000 0.00004980 0.00000000 0.00435686)
(0.00484306 -0.00011966 0.00000000 0.00004898 0.00000000 0.00425359)
(0.00472401 -0.00011639 0.00000000 0.00004665 0.00000000 0.00413298)
(0.00462139 -0.00011378 0.00000000 0.00004519 0.00000000 0.00399768)
(0.00452596 -0.00011126 0.00000000 0.00004369 0.00000000 0.00388498)
(0.00442816 -0.00010682 0.00000000 0.00004262 0.00000000 0.00378959)
(0.00433520 -0.00010509 0.00000000 0.00004151 0.00000000 0.00369000)
(0.00422421 -0.00010026 0.00000000 0.00004050 0.00000000 0.00358777)
(0.00409723 -0.00009629 0.00000000 0.00003877 0.00000000 0.00349507)
(0.00397873 -0.00009369 0.00000000 0.00003894 0.00000000 0.00341100)
(0.00385380 -0.00008946 0.00000000 0.00003785 0.00000000 0.00333949)
(0.00373658 -0.00008576 0.00000000 0.00003725 0.00000000 0.00328062)
(0.00361921 -0.00008274 0.00000000 0.00003774 0.00000000 0.00323899)
(0.00347754 -0.00007928 0.00000000 0.00003810 0.00000000 0.00322576)
(0.00330293 -0.00007213 0.00000000 0.00003735 0.00000000 0.00322260)
(0.00308355 -0.00006536 0.00000000 0.00003751 0.00000000 0.00325332)
(0.00281116 -0.00005755 0.00000000 0.00003860 0.00000000 0.00333245)
(0.00300897 -0.00006674 0.00000000 0.00006234 0.00000000 0.00420715)
(0.00338362 0.00008349 0.00000000 0.00008507 0.00000000 0.00585065)
(0.00291305 0.00038889 0.00000000 0.00013748 0.00000000 0.00646311)
(0.00275547 0.00045547 0.00000000 0.00013279 0.00000000 0.00669098)
(0.00259451 0.00059261 0.00000000 0.00017661 0.00000000 0.00613370)
(0.00262386 0.00070114 0.00000000 0.00022611 0.00000000 0.00625837)
(0.00205900 0.00078478 0.00000000 0.00033253 0.00000000 0.00604604)
(0.00200349 0.00063140 0.00000000 0.00022487 0.00000000 0.00626982)
(0.00163884 0.00077980 0.00000000 0.00038483 0.00000000 0.00300722)
(0.00156123 0.00071095 0.00000000 0.00033800 0.00000000 0.00499181)
(0.00112361 0.00057727 0.00000000 0.00030256 0.00000000 0.00303568)
(0.00068436 0.00038205 0.00000000 0.00021400 0.00000000 0.00145180)
(0.00093166 0.00040159 0.00000000 0.00018107 0.00000000 0.00355431)
(0.00072265 0.00041523 0.00000000 0.00023845 0.00000000 0.00194604)
(0.00078440 0.00027751 0.00000000 0.00009920 0.00000000 0.00290224)
(0.00074835 0.00043786 0.00000000 0.00025332 0.00000000 0.00184436)
(0.00022190 0.00012075 0.00000000 0.00006863 0.00000000 0.00169351)
(0.00041546 0.00026625 0.00000000 0.00016614 0.00000000 0.00068135)
(0.00031245 0.00011533 0.00000000 0.00004221 0.00000000 0.00049973)
(0.00026451 0.00025972 0.00000000 0.00019508 0.00000000 0.00126362)
(-0.00000223 0.00000671 0.00000000 0.00002276 0.00000000 0.00052484)
(0.00067147 -0.00001766 0.00000000 -0.00004256 0.00000000 0.00050583)
(0.00112462 0.00019824 0.00000000 0.00005590 0.00000000 0.00069709)
(0.00272105 0.00041059 0.00000000 0.00006229 0.00000000 0.00087352)
(0.00354142 0.00000527 0.00000000 0.00000443 0.00000000 0.00136689)
(0.00478636 -0.00003505 0.00000000 0.00001031 0.00000000 0.00180147)
(0.01256394 -0.00020279 0.00000000 0.00006221 0.00000000 0.00400161)
(0.01442514 -0.00029683 0.00000000 0.00010331 0.00000000 0.00462013)
(0.00914900 -0.00167975 0.00000000 0.00046730 0.00000000 0.00370325)
(0.00578414 -0.00047629 0.00000000 0.00012861 0.00000000 0.00345720)
(0.00556201 -0.00200713 0.00000000 0.00090041 0.00000000 0.00536159)
(0.00739715 -0.00244677 0.00000000 0.00122092 0.00000000 0.00785694)
(0.00876440 -0.00426640 0.00000000 0.00266797 0.00000000 0.01172368)
(0.00961016 -0.00605854 0.00000000 0.00418657 0.00000000 0.01011950)
(0.01008940 -0.00658628 0.00000000 0.00467641 0.00000000 0.01013047)
(0.00976983 -0.00473527 0.00000000 0.00282916 0.00000000 0.01143618)
(0.00962144 -0.00562894 0.00000000 0.00379422 0.00000000 0.01073764)
(0.01059212 -0.00493552 0.00000000 0.00284107 0.00000000 0.01062940)
(0.00956295 -0.00510519 0.00000000 0.00320705 0.00000000 0.01006922)
(0.01025726 -0.00474716 0.00000000 0.00274554 0.00000000 0.01010189)
(0.01009189 -0.00533026 0.00000000 0.00329280 0.00000000 0.00956322)
(0.01004138 -0.00503927 0.00000000 0.00304914 0.00000000 0.00982101)
(0.01056044 -0.00485913 0.00000000 0.00282096 0.00000000 0.01013148)
(0.01139793 -0.00533983 0.00000000 0.00305756 0.00000000 0.00986586)
(0.01181928 -0.00459100 0.00000000 0.00249856 0.00000000 0.01075347)
(0.01168790 -0.00428819 0.00000000 0.00228933 0.00000000 0.01181237)
(0.01264987 -0.00385882 0.00000000 0.00203688 0.00000000 0.01292714)
(0.01342745 -0.00336713 0.00000000 0.00175228 0.00000000 0.01393876)
(0.01377494 -0.00275781 0.00000000 0.00158718 0.00000000 0.01572396)
(0.01474969 -0.00205535 0.00000000 0.00149386 0.00000000 0.01787970)
(0.01578366 -0.00154845 0.00000000 0.00169152 0.00000000 0.02082629)
(0.01630029 -0.00027396 0.00000000 0.00143606 0.00000000 0.02171818)
(0.01678374 -0.00019444 0.00000000 0.00129283 0.00000000 0.02275251)
(0.01803466 -0.00025099 0.00000000 0.00137243 0.00000000 0.02465070)
(0.01856269 -0.00030143 0.00000000 0.00142758 0.00000000 0.02613957)
(0.01953884 -0.00035610 0.00000000 0.00147996 0.00000000 0.02729619)
(0.02022467 -0.00035991 0.00000000 0.00146467 0.00000000 0.02766572)
(0.02060991 -0.00040304 0.00000000 0.00143717 0.00000000 0.02745281)
(0.02109572 -0.00042602 0.00000000 0.00139952 0.00000000 0.02755379)
(0.02136646 -0.00040740 0.00000000 0.00138753 0.00000000 0.02725444)
(0.02123873 -0.00041365 0.00000000 0.00134677 0.00000000 0.02696005)
(0.02077357 -0.00045271 0.00000000 0.00130202 0.00000000 0.02673078)
(0.02078159 -0.00048652 0.00000000 0.00128066 0.00000000 0.02655417)
(0.02087076 -0.00053376 0.00000000 0.00121973 0.00000000 0.02620871)
(0.02126367 -0.00056492 0.00000000 0.00121023 0.00000000 0.02591056)
(0.02117821 -0.00054641 0.00000000 0.00114896 0.00000000 0.02549989)
(0.02119594 -0.00058454 0.00000000 0.00107994 0.00000000 0.02484150)
(0.02088207 -0.00055642 0.00000000 0.00103696 0.00000000 0.02405164)
(0.02044289 -0.00056133 0.00000000 0.00098731 0.00000000 0.02320512)
(0.02035679 -0.00059525 0.00000000 0.00092595 0.00000000 0.02252549)
(0.01994850 -0.00057116 0.00000000 0.00088031 0.00000000 0.02158259)
(0.01966263 -0.00057787 0.00000000 0.00084459 0.00000000 0.02080639)
(0.01942528 -0.00058538 0.00000000 0.00080106 0.00000000 0.02004283)
(0.01915576 -0.00057629 0.00000000 0.00075862 0.00000000 0.01952855)
(0.01876857 -0.00058495 0.00000000 0.00072366 0.00000000 0.01886866)
(0.01853615 -0.00057622 0.00000000 0.00069385 0.00000000 0.01813699)
(0.01811961 -0.00058047 0.00000000 0.00064502 0.00000000 0.01754107)
(0.01770854 -0.00057302 0.00000000 0.00060761 0.00000000 0.01688371)
(0.01742571 -0.00056078 0.00000000 0.00057680 0.00000000 0.01610484)
(0.01707023 -0.00055127 0.00000000 0.00056023 0.00000000 0.01558722)
(0.01668598 -0.00055131 0.00000000 0.00053069 0.00000000 0.01507527)
(0.01641975 -0.00054994 0.00000000 0.00051489 0.00000000 0.01463901)
(0.01597359 -0.00053309 0.00000000 0.00050844 0.00000000 0.01423464)
(0.01557472 -0.00053001 0.00000000 0.00048148 0.00000000 0.01388504)
(0.01516486 -0.00053025 0.00000000 0.00046205 0.00000000 0.01352147)
(0.01481478 -0.00053415 0.00000000 0.00043796 0.00000000 0.01317932)
(0.01456628 -0.00053683 0.00000000 0.00041921 0.00000000 0.01287677)
(0.01433800 -0.00053053 0.00000000 0.00039908 0.00000000 0.01255469)
(0.01413940 -0.00052460 0.00000000 0.00038686 0.00000000 0.01227107)
(0.01387899 -0.00052014 0.00000000 0.00037837 0.00000000 0.01204849)
(0.01366742 -0.00051759 0.00000000 0.00035812 0.00000000 0.01178593)
(0.01349593 -0.00051218 0.00000000 0.00034702 0.00000000 0.01154345)
(0.01327884 -0.00050827 0.00000000 0.00033123 0.00000000 0.01126835)
(0.01311298 -0.00050721 0.00000000 0.00032087 0.00000000 0.01098604)
(0.01292987 -0.00049271 0.00000000 0.00031228 0.00000000 0.01072579)
(0.01270445 -0.00048638 0.00000000 0.00030020 0.00000000 0.01040614)
(0.01244790 -0.00047663 0.00000000 0.00028871 0.00000000 0.01004757)
(0.01224331 -0.00046814 0.00000000 0.00027935 0.00000000 0.00969909)
(0.01196694 -0.00045486 0.00000000 0.00026995 0.00000000 0.00937275)
(0.01176541 -0.00045435 0.00000000 0.00026097 0.00000000 0.00908806)
(0.01157034 -0.00044589 0.00000000 0.00025276 0.00000000 0.00887085)
(0.01135003 -0.00044018 0.00000000 0.00024434 0.00000000 0.00865758)
(0.01115924 -0.00043189 0.00000000 0.00023703 0.00000000 0.00845033)
(0.01095798 -0.00042778 0.00000000 0.00023459 0.00000000 0.00826793)
(0.01073923 -0.00041910 0.00000000 0.00022645 0.00000000 0.00809180)
(0.01052227 -0.00041206 0.00000000 0.00021885 0.00000000 0.00787517)
(0.01031789 -0.00040348 0.00000000 0.00021022 0.00000000 0.00765254)
(0.01013562 -0.00039747 0.00000000 0.00020368 0.00000000 0.00744585)
(0.00996716 -0.00038771 0.00000000 0.00019865 0.00000000 0.00727772)
(0.00979787 -0.00038118 0.00000000 0.00019250 0.00000000 0.00709884)
(0.00958582 -0.00036735 0.00000000 0.00018703 0.00000000 0.00692354)
(0.00934784 -0.00035774 0.00000000 0.00018267 0.00000000 0.00673718)
(0.00911338 -0.00034685 0.00000000 0.00017938 0.00000000 0.00658942)
(0.00888452 -0.00033674 0.00000000 0.00017591 0.00000000 0.00645158)
(0.00865943 -0.00032674 0.00000000 0.00017330 0.00000000 0.00633404)
(0.00841390 -0.00031564 0.00000000 0.00017172 0.00000000 0.00624973)
(0.00813578 -0.00030410 0.00000000 0.00017063 0.00000000 0.00620674)
(0.00778636 -0.00028507 0.00000000 0.00017140 0.00000000 0.00616843)
(0.00732004 -0.00026468 0.00000000 0.00017286 0.00000000 0.00618795)
(0.00669430 -0.00023603 0.00000000 0.00017673 0.00000000 0.00631903)
(0.00644841 -0.00022784 0.00000000 0.00022653 0.00000000 0.00717821)
(0.00665754 0.00005093 0.00000000 0.00028928 0.00000000 0.00950620)
(0.00650340 0.00046292 0.00000000 0.00030301 0.00000000 0.01110187)
(0.00640182 0.00083456 0.00000000 0.00035036 0.00000000 0.01193850)
(0.00647326 0.00116046 0.00000000 0.00041291 0.00000000 0.01268703)
(0.00646421 0.00154816 0.00000000 0.00056415 0.00000000 0.01303704)
(0.00583040 0.00180656 0.00000000 0.00074186 0.00000000 0.01344299)
(0.00588500 0.00195964 0.00000000 0.00079435 0.00000000 0.01294360)
(0.00591615 0.00248969 0.00000000 0.00114646 0.00000000 0.01121616)
(0.00508080 0.00212188 0.00000000 0.00098567 0.00000000 0.01226034)
(0.00448804 0.00203458 0.00000000 0.00099811 0.00000000 0.01012729)
(0.00450859 0.00240724 0.00000000 0.00132317 0.00000000 0.00852600)
(0.00419928 0.00178383 0.00000000 0.00081151 0.00000000 0.00985298)
(0.00381360 0.00193978 0.00000000 0.00101986 0.00000000 0.00837809)
(0.00329808 0.00139748 0.00000000 0.00062311 0.00000000 0.00799158)
(0.00265180 0.00147519 0.00000000 0.00083966 0.00000000 0.00597689)
(0.00248096 0.00111016 0.00000000 0.00051674 0.00000000 0.00670904)
(0.00236194 0.00115535 0.00000000 0.00058345 0.00000000 0.00382143)
(0.00222675 0.00090233 0.00000000 0.00037382 0.00000000 0.00355414)
(0.00278904 0.00155021 0.00000000 0.00085052 0.00000000 0.00483107)
(0.00271019 0.00095751 0.00000000 0.00037506 0.00000000 0.00362417)
(0.00446080 0.00094141 0.00000000 0.00021608 0.00000000 0.00280719)
(0.00534360 0.00068995 0.00000000 0.00013416 0.00000000 0.00285265)
(0.00794122 0.00099002 0.00000000 0.00013466 0.00000000 0.00256968)
(0.00924841 0.00001137 0.00000000 0.00001860 0.00000000 0.00285366)
(0.01087513 -0.00010695 0.00000000 0.00003497 0.00000000 0.00338346)
(0.02101488 -0.00043185 0.00000000 0.00013240 0.00000000 0.00574021)
(0.02375619 -0.00064441 0.00000000 0.00023216 0.00000000 0.00674628)
(0.01887884 -0.00238880 0.00000000 0.00064135 0.00000000 0.00567741)
(0.01159058 -0.00137198 0.00000000 0.00051062 0.00000000 0.00637338)
(0.00863742 -0.00267602 0.00000000 0.00154901 0.00000000 0.00842511)
(0.01136693 -0.00427142 0.00000000 0.00266978 0.00000000 0.01303822)
(0.01213332 -0.00589674 0.00000000 0.00421969 0.00000000 0.01545781)
(0.01415327 -0.00795541 0.00000000 0.00567763 0.00000000 0.01521706)
(0.01448880 -0.00850212 0.00000000 0.00623668 0.00000000 0.01514796)
(0.01332768 -0.00677403 0.00000000 0.00462940 0.00000000 0.01477894)
(0.01311527 -0.00723975 0.00000000 0.00512096 0.00000000 0.01434860)
(0.01382351 -0.00668801 0.00000000 0.00442080 0.00000000 0.01381591)
(0.01339816 -0.00694297 0.00000000 0.00465051 0.00000000 0.01332606)
(0.01395990 -0.00656157 0.00000000 0.00424672 0.00000000 0.01317709)
(0.01360586 -0.00690592 0.00000000 0.00458600 0.00000000 0.01261255)
(0.01376192 -0.00669486 0.00000000 0.00437045 0.00000000 0.01271514)
(0.01415602 -0.00646821 0.00000000 0.00419262 0.00000000 0.01285481)
(0.01472373 -0.00641316 0.00000000 0.00405697 0.00000000 0.01295050)
(0.01486081 -0.00573772 0.00000000 0.00368702 0.00000000 0.01373541)
(0.01511699 -0.00535784 0.00000000 0.00344134 0.00000000 0.01493703)
(0.01584605 -0.00469502 0.00000000 0.00316376 0.00000000 0.01622994)
(0.01658628 -0.00406561 0.00000000 0.00291305 0.00000000 0.01745291)
(0.01688757 -0.00335336 0.00000000 0.00281506 0.00000000 0.01933854)
(0.01745985 -0.00256192 0.00000000 0.00283129 0.00000000 0.02166035)
(0.01788066 -0.00185721 0.00000000 0.00307436 0.00000000 0.02491625)
(0.01907962 -0.00068208 0.00000000 0.00287567 0.00000000 0.02656593)
(0.02023294 -0.00058700 0.00000000 0.00278728 0.00000000 0.02836748)
(0.02165256 -0.00067165 0.00000000 0.00294946 0.00000000 0.03064766)
(0.02249870 -0.00074436 0.00000000 0.00306752 0.00000000 0.03235560)
(0.02366884 -0.00082435 0.00000000 0.00316750 0.00000000 0.03363717)
(0.02461133 -0.00083056 0.00000000 0.00314577 0.00000000 0.03412636)
(0.02523762 -0.00086646 0.00000000 0.00311244 0.00000000 0.03398759)
(0.02594776 -0.00088339 0.00000000 0.00303763 0.00000000 0.03431222)
(0.02633628 -0.00083163 0.00000000 0.00301210 0.00000000 0.03402868)
(0.02633711 -0.00081795 0.00000000 0.00292829 0.00000000 0.03373835)
(0.02597884 -0.00087462 0.00000000 0.00283510 0.00000000 0.03350103)
(0.02600229 -0.00091493 0.00000000 0.00279472 0.00000000 0.03325733)
(0.02626261 -0.00098600 0.00000000 0.00268083 0.00000000 0.03293517)
(0.02680556 -0.00101040 0.00000000 0.00264569 0.00000000 0.03265051)
(0.02682467 -0.00097400 0.00000000 0.00253787 0.00000000 0.03219223)
(0.02698943 -0.00100810 0.00000000 0.00240390 0.00000000 0.03158530)
(0.02679743 -0.00095701 0.00000000 0.00231978 0.00000000 0.03072129)
(0.02643630 -0.00096159 0.00000000 0.00220961 0.00000000 0.02979861)
(0.02637498 -0.00099577 0.00000000 0.00208622 0.00000000 0.02901520)
(0.02598000 -0.00095336 0.00000000 0.00199567 0.00000000 0.02793169)
(0.02582871 -0.00097672 0.00000000 0.00191555 0.00000000 0.02696339)
(0.02566229 -0.00097212 0.00000000 0.00182637 0.00000000 0.02605933)
(0.02538387 -0.00095815 0.00000000 0.00173837 0.00000000 0.02543481)
(0.02510884 -0.00097278 0.00000000 0.00166492 0.00000000 0.02463903)
(0.02489055 -0.00095297 0.00000000 0.00159476 0.00000000 0.02378676)
(0.02448319 -0.00096162 0.00000000 0.00149009 0.00000000 0.02305749)
(0.02408162 -0.00094107 0.00000000 0.00140879 0.00000000 0.02234896)
(0.02376048 -0.00092713 0.00000000 0.00134695 0.00000000 0.02142118)
(0.02338107 -0.00090833 0.00000000 0.00130449 0.00000000 0.02076293)
(0.02296931 -0.00091817 0.00000000 0.00123919 0.00000000 0.02018588)
(0.02269099 -0.00091124 0.00000000 0.00120242 0.00000000 0.01965973)
(0.02218841 -0.00088719 0.00000000 0.00117818 0.00000000 0.01909659)
(0.02174280 -0.00088424 0.00000000 0.00112853 0.00000000 0.01860153)
(0.02124166 -0.00088878 0.00000000 0.00108144 0.00000000 0.01817473)
(0.02081791 -0.00089966 0.00000000 0.00103287 0.00000000 0.01773764)
(0.02052590 -0.00091147 0.00000000 0.00098996 0.00000000 0.01739248)
(0.02024310 -0.00090792 0.00000000 0.00094484 0.00000000 0.01699711)
(0.02004252 -0.00090381 0.00000000 0.00091460 0.00000000 0.01665103)
(0.01976802 -0.00089811 0.00000000 0.00088957 0.00000000 0.01639432)