/*--------------------------------*- C++ -*----------------------------------*\
  =========                 |
  \\      /  F ield         | OpenFOAM: The Open Source CFD Toolbox
   \\    /   O peration     | Website:  https://openfoam.org
    \\  /    A nd           | Version:  7
     \\/     M anipulation  |
\*---------------------------------------------------------------------------*/
FoamFile
{
    version     2.0;
    format      ascii;
    class       volVectorField;
    location    "0";
    object      U_LES;
}
// * * * * * * * * * * * * * * * * * * * * * * * * * * * * * * * * * * * * * //

dimensions      [0 1 -1 0 0 0 0];

internalField   nonuniform List<vector>
15600
(
(0.02958848 -0.00015738 0.00000000)
(0.02941805 -0.00016676 0.00000000)
(0.00212422 -0.00183470 0.00000000)
(0.00044904 -0.00034935 0.00000000)
(-0.00280364 0.00225745 0.00000000)
(-0.00323500 0.00195428 0.00000000)
(-0.00758296 0.00408965 0.00000000)
(-0.00922873 0.00626862 0.00000000)
(-0.01024434 0.00693023 0.00000000)
(-0.00962396 0.00446792 0.00000000)
(-0.01375471 0.00833490 0.00000000)
(-0.01357315 0.00490612 0.00000000)
(-0.01741483 0.01020912 0.00000000)
(-0.01747002 0.00698239 0.00000000)
(-0.01777121 0.01024578 0.00000000)
(-0.02312981 0.01277365 0.00000000)
(-0.02849533 0.01372777 0.00000000)
(-0.02480715 0.01352631 0.00000000)
(-0.03336110 0.00905013 0.00000000)
(-0.03855960 0.01476968 0.00000000)
(-0.03640448 0.01399762 0.00000000)
(-0.03815973 0.00984700 0.00000000)
(-0.04146553 0.01317999 0.00000000)
(-0.04978047 0.00274366 0.00000000)
(-0.06025933 0.00181517 0.00000000)
(-0.05149061 0.00010770 0.00000000)
(-0.03828649 -0.00002738 0.00000000)
(-0.03725102 -0.00000549 0.00000000)
(-0.03561777 -0.00002244 0.00000000)
(-0.03200682 -0.00005801 0.00000000)
(-0.02886929 -0.00004492 0.00000000)
(-0.02508968 -0.00004081 0.00000000)
(-0.02151728 -0.00005569 0.00000000)
(-0.01789884 -0.00005028 0.00000000)
(-0.01377724 -0.00005084 0.00000000)
(-0.01063318 -0.00004288 0.00000000)
(-0.00654377 -0.00006116 0.00000000)
(-0.00361655 -0.00003643 0.00000000)
(-0.00017878 -0.00004627 0.00000000)
(0.00347304 -0.00005115 0.00000000)
(0.00653213 -0.00003319 0.00000000)
(0.00947404 -0.00003368 0.00000000)
(0.01230884 -0.00004040 0.00000000)
(0.01449058 -0.00002330 0.00000000)
(0.01666200 -0.00002477 0.00000000)
(0.01856194 -0.00002650 0.00000000)
(0.02050211 -0.00002285 0.00000000)
(0.02241489 -0.00002599 0.00000000)
(0.02436342 -0.00002368 0.00000000)
(0.02592006 -0.00001635 0.00000000)
(0.02732111 -0.00001743 0.00000000)
(0.02873077 -0.00001394 0.00000000)
(0.02957018 -0.00001026 0.00000000)
(0.03054205 -0.00001464 0.00000000)
(0.03144838 -0.00001046 0.00000000)
(0.03208533 -0.00000692 0.00000000)
(0.03286557 -0.00000996 0.00000000)
(0.03363115 -0.00000888 0.00000000)
(0.03422864 -0.00000627 0.00000000)
(0.03483297 -0.00000811 0.00000000)
(0.03540731 -0.00000703 0.00000000)
(0.03596425 -0.00000672 0.00000000)
(0.03635750 -0.00000382 0.00000000)
(0.03675886 -0.00000613 0.00000000)
(0.03721200 -0.00000457 0.00000000)
(0.03757516 -0.00000542 0.00000000)
(0.03798549 -0.00000356 0.00000000)
(0.03821589 -0.00000198 0.00000000)
(0.03840471 -0.00000249 0.00000000)
(0.03854396 -0.00000136 0.00000000)
(0.03865099 -0.00000061 0.00000000)
(0.03868176 -0.00000024 0.00000000)
(0.03868245 0.00000082 0.00000000)
(0.03852206 0.00000222 0.00000000)
(0.03836180 0.00000217 0.00000000)
(0.03824640 0.00000222 0.00000000)
(0.03800363 0.00000331 0.00000000)
(0.03775189 0.00000284 0.00000000)
(0.03749272 0.00000316 0.00000000)
(0.03716151 0.00000591 0.00000000)
(0.03668862 0.00000655 0.00000000)
(0.03615655 0.00000761 0.00000000)
(0.03548826 0.00000806 0.00000000)
(0.03480158 0.00001238 0.00000000)
(0.03386244 0.00001227 0.00000000)
(0.03283997 0.00001777 0.00000000)
(0.03146943 0.00001684 0.00000000)
(0.02996371 0.00001944 0.00000000)
(0.02823808 0.00002438 0.00000000)
(0.02619150 0.00002745 0.00000000)
(0.02387518 0.00003178 0.00000000)
(0.02109928 0.00003539 0.00000000)
(0.01801459 0.00005339 0.00000000)
(0.01378676 0.00006578 0.00000000)
(0.01322403 0.00017480 0.00000000)
(0.01428514 0.00103968 0.00000000)
(0.01485189 0.00466144 0.00000000)
(0.01729175 0.00285286 0.00000000)
(0.01196747 0.00445385 0.00000000)
(0.01200960 0.00362410 0.00000000)
(0.01640166 0.00860325 0.00000000)
(0.01740667 0.00771516 0.00000000)
(-0.00283887 0.00063766 0.00000000)
(0.01980592 0.01113486 0.00000000)
(0.01911340 0.01136019 0.00000000)
(0.00747170 0.00463676 0.00000000)
(0.01947049 0.01118177 0.00000000)
(0.00565427 0.00384649 0.00000000)
(0.00359585 0.00322586 0.00000000)
(-0.00568065 -0.00377218 0.00000000)
(0.00737320 0.00486745 0.00000000)
(-0.01724580 -0.00658183 0.00000000)
(-0.02199804 -0.00738992 0.00000000)
(0.01608115 0.01303117 0.00000000)
(-0.00601703 -0.00292409 0.00000000)
(-0.02855554 -0.01519778 0.00000000)
(0.02116203 0.00547710 0.00000000)
(0.00318043 0.00259850 0.00000000)
(0.03803780 0.00109727 0.00000000)
(0.02951703 0.00004149 0.00000000)
(0.06441244 -0.00029770 0.00000000)
(0.06521773 -0.00052527 0.00000000)
(0.02920405 -0.00322639 0.00000000)
(0.00328492 -0.00073734 0.00000000)
(-0.00944014 0.00520461 0.00000000)
(-0.01149873 0.00446259 0.00000000)
(-0.01947261 0.00799910 0.00000000)
(-0.02227733 0.01526960 0.00000000)
(-0.02585205 0.01781734 0.00000000)
(-0.02680628 0.01211481 0.00000000)
(-0.03189889 0.01914384 0.00000000)
(-0.03556895 0.01508292 0.00000000)
(-0.03975169 0.02202116 0.00000000)
(-0.04319929 0.01858440 0.00000000)
(-0.04605666 0.02599837 0.00000000)
(-0.05155184 0.02715794 0.00000000)
(-0.06051978 0.02857000 0.00000000)
(-0.06988902 0.03872611 0.00000000)
(-0.07977512 0.03146875 0.00000000)
(-0.08468262 0.03232137 0.00000000)
(-0.09413121 0.03207778 0.00000000)
(-0.09575302 0.02859443 0.00000000)
(-0.10166673 0.02268833 0.00000000)
(-0.10386756 0.01317299 0.00000000)
(-0.11562795 0.01094983 0.00000000)
(-0.10440297 0.00085965 0.00000000)
(-0.09695820 -0.00003826 0.00000000)
(-0.09308853 -0.00016659 0.00000000)
(-0.08793976 -0.00028045 0.00000000)
(-0.07890305 -0.00053092 0.00000000)
(-0.06946227 -0.00047711 0.00000000)
(-0.05966096 -0.00043080 0.00000000)
(-0.04978738 -0.00056111 0.00000000)
(-0.03970399 -0.00054523 0.00000000)
(-0.02973755 -0.00047636 0.00000000)
(-0.02043443 -0.00046311 0.00000000)
(-0.01063756 -0.00053411 0.00000000)
(-0.00196483 -0.00039635 0.00000000)
(0.00702631 -0.00046870 0.00000000)
(0.01701627 -0.00052248 0.00000000)
(0.02514141 -0.00036652 0.00000000)
(0.03319650 -0.00038286 0.00000000)
(0.04092805 -0.00040876 0.00000000)
(0.04697480 -0.00027108 0.00000000)
(0.05282491 -0.00027784 0.00000000)
(0.05808450 -0.00027240 0.00000000)
(0.06340496 -0.00024791 0.00000000)
(0.06856998 -0.00025996 0.00000000)
(0.07395955 -0.00026332 0.00000000)
(0.07837189 -0.00019677 0.00000000)
(0.08240754 -0.00017957 0.00000000)
(0.08619072 -0.00015604 0.00000000)
(0.08867843 -0.00011066 0.00000000)
(0.09150891 -0.00015550 0.00000000)
(0.09418573 -0.00010427 0.00000000)
(0.09616004 -0.00008589 0.00000000)
(0.09843220 -0.00010908 0.00000000)
(0.10052362 -0.00010001 0.00000000)
(0.10237214 -0.00007991 0.00000000)
(0.10413103 -0.00008388 0.00000000)
(0.10588176 -0.00008138 0.00000000)
(0.10743145 -0.00007658 0.00000000)
(0.10887209 -0.00005137 0.00000000)
(0.11020153 -0.00006515 0.00000000)
(0.11144547 -0.00005446 0.00000000)
(0.11249827 -0.00005940 0.00000000)
(0.11366643 -0.00004467 0.00000000)
(0.11461433 -0.00002501 0.00000000)
(0.11509695 -0.00002781 0.00000000)
(0.11558697 -0.00001716 0.00000000)
(0.11595703 -0.00001047 0.00000000)
(0.11615216 -0.00000525 0.00000000)
(0.11616444 0.00000767 0.00000000)
(0.11591661 0.00002188 0.00000000)
(0.11556867 0.00001831 0.00000000)
(0.11522186 0.00002284 0.00000000)
(0.11464464 0.00003317 0.00000000)
(0.11415498 0.00003096 0.00000000)
(0.11344472 0.00003664 0.00000000)
(0.11263618 0.00005512 0.00000000)
(0.11141523 0.00006590 0.00000000)
(0.10999725 0.00008029 0.00000000)
(0.10834055 0.00008923 0.00000000)
(0.10643214 0.00011095 0.00000000)
(0.10407731 0.00013016 0.00000000)
(0.10127774 0.00016062 0.00000000)
(0.09777968 0.00019104 0.00000000)
(0.09376507 0.00022065 0.00000000)
(0.08910877 0.00025346 0.00000000)
(0.08372528 0.00029413 0.00000000)
(0.07746170 0.00034539 0.00000000)
(0.06998665 0.00041198 0.00000000)
(0.06102961 0.00049156 0.00000000)
(0.05005740 0.00060933 0.00000000)
(0.04362015 0.00111338 0.00000000)
(0.04743771 0.00349976 0.00000000)
(0.05543555 0.00958311 0.00000000)
(0.06648495 0.01396303 0.00000000)
(0.07579799 0.02015474 0.00000000)
(0.08452056 0.02749472 0.00000000)
(0.09039691 0.04064121 0.00000000)
(0.09989426 0.03652969 0.00000000)
(0.08368287 0.03895670 0.00000000)
(0.10839580 0.05533976 0.00000000)
(0.09863667 0.05458050 0.00000000)
(0.07998454 0.04653271 0.00000000)
(0.10175781 0.05143567 0.00000000)
(0.08712287 0.05221431 0.00000000)
(0.09444053 0.04226275 0.00000000)
(0.06854838 0.04285754 0.00000000)
(0.07880082 0.04619982 0.00000000)
(0.03571187 0.02294329 0.00000000)
(0.04214938 0.01711408 0.00000000)
(0.09992896 0.07259594 0.00000000)
(0.06341503 0.03489249 0.00000000)
(0.07571882 0.00226328 0.00000000)
(0.11876708 0.02503054 0.00000000)
(0.10532673 0.01813958 0.00000000)
(0.08960036 0.00242031 0.00000000)
(0.06777131 0.00041411 0.00000000)
(0.11381074 -0.00037040 0.00000000)
(0.11544212 -0.00135035 0.00000000)
(0.07381746 -0.00483817 0.00000000)
(0.01203266 -0.00103518 0.00000000)
(-0.01739446 0.00821137 0.00000000)
(-0.02193772 0.00762278 0.00000000)
(-0.03052302 0.01315143 0.00000000)
(-0.03632388 0.02553897 0.00000000)
(-0.04204589 0.02995121 0.00000000)
(-0.04449278 0.02173864 0.00000000)
(-0.04957399 0.02869413 0.00000000)
(-0.05555316 0.02748542 0.00000000)
(-0.05851785 0.03155772 0.00000000)
(-0.06492079 0.03122434 0.00000000)
(-0.07192185 0.03902984 0.00000000)
(-0.07837282 0.04107722 0.00000000)
(-0.08841111 0.04291495 0.00000000)
(-0.10180814 0.05238919 0.00000000)
(-0.11259153 0.04746705 0.00000000)
(-0.11869873 0.04650648 0.00000000)
(-0.12861660 0.04306435 0.00000000)
(-0.13508478 0.03766078 0.00000000)
(-0.13944054 0.03042105 0.00000000)
(-0.14404989 0.02113761 0.00000000)
(-0.14645990 0.01463558 0.00000000)
(-0.13841409 0.00115301 0.00000000)
(-0.13226982 -0.00027810 0.00000000)
(-0.12553194 -0.00060386 0.00000000)
(-0.11663031 -0.00081706 0.00000000)
(-0.10345971 -0.00139203 0.00000000)
(-0.09009097 -0.00128125 0.00000000)
(-0.07613648 -0.00118271 0.00000000)
(-0.06192010 -0.00145921 0.00000000)
(-0.04779162 -0.00142213 0.00000000)
(-0.03348398 -0.00127441 0.00000000)
(-0.02002955 -0.00122927 0.00000000)
(-0.00665156 -0.00139558 0.00000000)
(0.00583869 -0.00108279 0.00000000)
(0.01882764 -0.00128225 0.00000000)
(0.03302732 -0.00134584 0.00000000)
(0.04465601 -0.00101426 0.00000000)
(0.05626572 -0.00104630 0.00000000)
(0.06742224 -0.00107449 0.00000000)
(0.07668895 -0.00076378 0.00000000)
(0.08521624 -0.00076157 0.00000000)
(0.09322442 -0.00073928 0.00000000)
(0.10107989 -0.00068635 0.00000000)
(0.10893084 -0.00072481 0.00000000)
(0.11686480 -0.00070666 0.00000000)
(0.12365573 -0.00056286 0.00000000)
(0.12982842 -0.00050575 0.00000000)
(0.13556733 -0.00043858 0.00000000)
(0.13990871 -0.00032924 0.00000000)
(0.14433756 -0.00042449 0.00000000)
(0.14854477 -0.00030841 0.00000000)
(0.15186516 -0.00026559 0.00000000)
(0.15524731 -0.00031266 0.00000000)
(0.15875801 -0.00028130 0.00000000)
(0.16188813 -0.00024521 0.00000000)
(0.16501572 -0.00024280 0.00000000)
(0.16782131 -0.00024395 0.00000000)
(0.17065865 -0.00022097 0.00000000)
(0.17306284 -0.00017010 0.00000000)
(0.17519890 -0.00019036 0.00000000)
(0.17752267 -0.00016752 0.00000000)
(0.17957542 -0.00017113 0.00000000)
(0.18145938 -0.00013444 0.00000000)
(0.18276827 -0.00008768 0.00000000)
(0.18411602 -0.00008672 0.00000000)
(0.18509315 -0.00005944 0.00000000)
(0.18563911 -0.00004435 0.00000000)
(0.18648200 -0.00002572 0.00000000)
(0.18675013 0.00000929 0.00000000)
(0.18665494 0.00004411 0.00000000)
(0.18643839 0.00003880 0.00000000)
(0.18612601 0.00005500 0.00000000)
(0.18561346 0.00007676 0.00000000)
(0.18493034 0.00007368 0.00000000)
(0.18424965 0.00009133 0.00000000)
(0.18317956 0.00013703 0.00000000)
(0.18182143 0.00016755 0.00000000)
(0.17987947 0.00020618 0.00000000)
(0.17780142 0.00023158 0.00000000)
(0.17530963 0.00028645 0.00000000)
(0.17214921 0.00034136 0.00000000)
(0.16818563 0.00042141 0.00000000)
(0.16347687 0.00050324 0.00000000)
(0.15787117 0.00058395 0.00000000)
(0.15134727 0.00067285 0.00000000)
(0.14378756 0.00078123 0.00000000)
(0.13487263 0.00092230 0.00000000)
(0.12410684 0.00110524 0.00000000)
(0.11116859 0.00133044 0.00000000)
(0.09526819 0.00166772 0.00000000)
(0.08366951 0.00262556 0.00000000)
(0.08736648 0.00668770 0.00000000)
(0.09986676 0.01404179 0.00000000)
(0.11588140 0.02373650 0.00000000)
(0.13389290 0.03357815 0.00000000)
(0.15082769 0.04787014 0.00000000)
(0.16193161 0.06482548 0.00000000)
(0.17621385 0.07070924 0.00000000)
(0.19752070 0.09167829 0.00000000)
(0.19916681 0.09747963 0.00000000)
(0.20273020 0.10620464 0.00000000)
(0.21653340 0.12777883 0.00000000)
(0.21864045 0.10605696 0.00000000)
(0.21880341 0.12518815 0.00000000)
(0.21699248 0.10274387 0.00000000)
(0.20947561 0.13009430 0.00000000)
(0.21604066 0.11237635 0.00000000)
(0.21058395 0.10078020 0.00000000)
(0.22855842 0.09503534 0.00000000)
(0.24418503 0.15116120 0.00000000)
(0.23941012 0.10387028 0.00000000)
(0.30223316 0.06565169 0.00000000)
(0.28910756 0.04825852 0.00000000)
(0.26138082 0.03955114 0.00000000)
(0.16971024 0.00553037 0.00000000)
(0.12497862 0.00137416 0.00000000)
(0.17677327 -0.00037916 0.00000000)
(0.17548285 -0.00223014 0.00000000)
(0.13103808 -0.00616830 0.00000000)
(0.03317379 -0.00260109 0.00000000)
(-0.02099461 0.00936959 0.00000000)
(-0.03198878 0.01245567 0.00000000)
(-0.04005377 0.01907166 0.00000000)
(-0.04974421 0.03248942 0.00000000)
(-0.05574479 0.03722633 0.00000000)
(-0.05886154 0.03147220 0.00000000)
(-0.06345083 0.03597118 0.00000000)
(-0.07175375 0.03737376 0.00000000)
(-0.07589408 0.04100333 0.00000000)
(-0.08436827 0.04227686 0.00000000)
(-0.08989406 0.04860715 0.00000000)
(-0.09968350 0.05238361 0.00000000)
(-0.11164049 0.05523202 0.00000000)
(-0.12455508 0.06114779 0.00000000)
(-0.13631555 0.05849887 0.00000000)
(-0.14481799 0.05714635 0.00000000)
(-0.15476277 0.05172075 0.00000000)
(-0.16120115 0.04471485 0.00000000)
(-0.16529719 0.03586791 0.00000000)
(-0.16788795 0.02541368 0.00000000)
(-0.16498406 0.01581029 0.00000000)
(-0.15915020 0.00144763 0.00000000)
(-0.15248461 -0.00067592 0.00000000)
(-0.14281974 -0.00133331 0.00000000)
(-0.13107879 -0.00162107 0.00000000)
(-0.11535999 -0.00249833 0.00000000)
(-0.09927390 -0.00236902 0.00000000)
(-0.08275718 -0.00223416 0.00000000)
(-0.06585567 -0.00261934 0.00000000)
(-0.04903199 -0.00255707 0.00000000)
(-0.03202675 -0.00235217 0.00000000)
(-0.01600564 -0.00223970 0.00000000)
(-0.00044167 -0.00250651 0.00000000)
(0.01462768 -0.00203696 0.00000000)
(0.03029445 -0.00237954 0.00000000)
(0.04694956 -0.00240056 0.00000000)
(0.06087622 -0.00190340 0.00000000)
(0.07475839 -0.00195962 0.00000000)
(0.08829692 -0.00193337 0.00000000)
(0.09972921 -0.00146353 0.00000000)
(0.11023940 -0.00143523 0.00000000)
(0.12021338 -0.00139113 0.00000000)
(0.12990640 -0.00129849 0.00000000)
(0.13947439 -0.00137945 0.00000000)
(0.14919407 -0.00131424 0.00000000)
(0.15774710 -0.00109756 0.00000000)
(0.16564741 -0.00097667 0.00000000)
(0.17286016 -0.00085407 0.00000000)
(0.17863841 -0.00067965 0.00000000)
(0.18451075 -0.00081074 0.00000000)
(0.19001153 -0.00062013 0.00000000)
(0.19458459 -0.00054889 0.00000000)
(0.19921062 -0.00060298 0.00000000)
(0.20358490 -0.00055245 0.00000000)
(0.20796214 -0.00050897 0.00000000)
(0.21201028 -0.00048976 0.00000000)
(0.21595199 -0.00049423 0.00000000)
(0.21970215 -0.00044713 0.00000000)
(0.22324471 -0.00037375 0.00000000)
(0.22654137 -0.00038760 0.00000000)
(0.22962736 -0.00035022 0.00000000)
(0.23241450 -0.00034351 0.00000000)
(0.23499398 -0.00027936 0.00000000)
(0.23706236 -0.00020075 0.00000000)
(0.23897318 -0.00019409 0.00000000)
(0.24062447 -0.00014174 0.00000000)
(0.24190741 -0.00011447 0.00000000)
(0.24312187 -0.00007938 0.00000000)
(0.24382529 -0.00001309 0.00000000)
(0.24424493 0.00004882 0.00000000)
(0.24424497 0.00004672 0.00000000)
(0.24423444 0.00008103 0.00000000)
(0.24398535 0.00011011 0.00000000)
(0.24360839 0.00011207 0.00000000)
(0.24305374 0.00014753 0.00000000)
(0.24211194 0.00022162 0.00000000)
(0.24086462 0.00028169 0.00000000)
(0.23906355 0.00035542 0.00000000)
(0.23677860 0.00040354 0.00000000)
(0.23400169 0.00050159 0.00000000)
(0.23066955 0.00060368 0.00000000)
(0.22647727 0.00074731 0.00000000)
(0.22116359 0.00089878 0.00000000)
(0.21493318 0.00105082 0.00000000)
(0.20755104 0.00121475 0.00000000)
(0.19892401 0.00141578 0.00000000)
(0.18856002 0.00168831 0.00000000)
(0.17610561 0.00202648 0.00000000)
(0.16095486 0.00244954 0.00000000)
(0.14225660 0.00306312 0.00000000)
(0.12699291 0.00450039 0.00000000)
(0.12816377 0.00981502 0.00000000)
(0.14222403 0.01892139 0.00000000)
(0.16017900 0.03109719 0.00000000)
(0.18031713 0.04535551 0.00000000)
(0.19953037 0.06144610 0.00000000)
(0.21677865 0.08309575 0.00000000)
(0.23787291 0.09705551 0.00000000)
(0.26188977 0.11906534 0.00000000)
(0.27117383 0.13193881 0.00000000)
(0.28816340 0.14909444 0.00000000)
(0.31228350 0.17351164 0.00000000)
(0.30843972 0.15447673 0.00000000)
(0.32121807 0.17309781 0.00000000)
(0.32650844 0.16521157 0.00000000)
(0.34557794 0.21365008 0.00000000)
(0.35272456 0.18543875 0.00000000)
(0.38870787 0.20515714 0.00000000)
(0.41113713 0.19777322 0.00000000)
(0.44668823 0.24878849 0.00000000)
(0.46677807 0.19851894 0.00000000)
(0.54758659 0.15115945 0.00000000)
(0.50631964 0.09143000 0.00000000)
(0.42530341 0.05756685 0.00000000)
(0.27602219 0.01016361 0.00000000)
(0.19947036 0.00277564 0.00000000)
(0.25153236 -0.00027038 0.00000000)
(0.24355320 -0.00317215 0.00000000)
(0.19674220 -0.00734752 0.00000000)
(0.06722109 -0.00514805 0.00000000)
(-0.01956387 0.00959134 0.00000000)
(-0.04043863 0.01634735 0.00000000)
(-0.04958652 0.02503782 0.00000000)
(-0.06061517 0.03608886 0.00000000)
(-0.06723021 0.04151962 0.00000000)
(-0.07214340 0.03980297 0.00000000)
(-0.07596418 0.04278567 0.00000000)
(-0.08605726 0.04594410 0.00000000)
(-0.09203654 0.04991353 0.00000000)
(-0.09946759 0.05110825 0.00000000)
(-0.10655237 0.05750687 0.00000000)
(-0.11682725 0.06178193 0.00000000)
(-0.12960209 0.06535916 0.00000000)
(-0.14274122 0.06962741 0.00000000)
(-0.15456418 0.06716390 0.00000000)
(-0.16358932 0.06491092 0.00000000)
(-0.17212805 0.05716638 0.00000000)
(-0.17815184 0.04916299 0.00000000)
(-0.18145882 0.03921070 0.00000000)
(-0.18236906 0.02787101 0.00000000)
(-0.17689854 0.01604981 0.00000000)
(-0.17112301 0.00140774 0.00000000)
(-0.16344058 -0.00127208 0.00000000)
(-0.15163241 -0.00229793 0.00000000)
(-0.13738271 -0.00266182 0.00000000)
(-0.12029362 -0.00376576 0.00000000)
(-0.10226553 -0.00366319 0.00000000)
(-0.08409511 -0.00351882 0.00000000)
(-0.06539324 -0.00396443 0.00000000)
(-0.04687566 -0.00386987 0.00000000)
(-0.02817520 -0.00364446 0.00000000)
(-0.01051731 -0.00342242 0.00000000)
(0.00647291 -0.00377933 0.00000000)
(0.02333433 -0.00320656 0.00000000)
(0.04082659 -0.00368691 0.00000000)
(0.05883907 -0.00359960 0.00000000)
(0.07432745 -0.00296374 0.00000000)
(0.08960482 -0.00306178 0.00000000)
(0.10458690 -0.00292958 0.00000000)
(0.11764952 -0.00233435 0.00000000)
(0.12966137 -0.00225852 0.00000000)
(0.14099109 -0.00218156 0.00000000)
(0.15195397 -0.00204434 0.00000000)
(0.16265855 -0.00216613 0.00000000)
(0.17348205 -0.00203787 0.00000000)
(0.18322646 -0.00176580 0.00000000)
(0.19233200 -0.00156285 0.00000000)
(0.20040850 -0.00138546 0.00000000)
(0.20763194 -0.00114656 0.00000000)
(0.21447429 -0.00129161 0.00000000)
(0.22087897 -0.00102216 0.00000000)
(0.22641131 -0.00092617 0.00000000)
(0.23201787 -0.00096809 0.00000000)
(0.23716069 -0.00090511 0.00000000)
(0.24244318 -0.00086140 0.00000000)
(0.24738595 -0.00081589 0.00000000)
(0.25199488 -0.00081699 0.00000000)
(0.25658494 -0.00074543 0.00000000)
(0.26091152 -0.00065766 0.00000000)
(0.26506313 -0.00065821 0.00000000)
(0.26887189 -0.00059858 0.00000000)
(0.27239061 -0.00056895 0.00000000)
(0.27552216 -0.00047809 0.00000000)
(0.27819495 -0.00036742 0.00000000)
(0.28076665 -0.00035621 0.00000000)
(0.28313316 -0.00026979 0.00000000)
(0.28491385 -0.00022403 0.00000000)
(0.28651201 -0.00017279 0.00000000)
(0.28787332 -0.00007036 0.00000000)
(0.28855006 0.00002289 0.00000000)
(0.28915454 0.00003045 0.00000000)
(0.28921615 0.00008728 0.00000000)
(0.28926754 0.00011879 0.00000000)
(0.28923754 0.00013179 0.00000000)
(0.28903308 0.00019057 0.00000000)
(0.28854348 0.00029001 0.00000000)
(0.28746257 0.00038507 0.00000000)
(0.28593855 0.00050274 0.00000000)
(0.28379692 0.00057915 0.00000000)
(0.28120409 0.00072566 0.00000000)
(0.27790459 0.00087961 0.00000000)
(0.27372944 0.00109613 0.00000000)
(0.26858365 0.00132548 0.00000000)
(0.26229496 0.00156117 0.00000000)
(0.25485217 0.00181702 0.00000000)
(0.24584626 0.00212607 0.00000000)
(0.23515332 0.00255343 0.00000000)
(0.22197859 0.00307332 0.00000000)
(0.20596184 0.00373412 0.00000000)
(0.18616418 0.00466884 0.00000000)
(0.16868082 0.00659035 0.00000000)
(0.16644747 0.01258378 0.00000000)
(0.17897835 0.02298504 0.00000000)
(0.19648851 0.03684803 0.00000000)
(0.21600670 0.05347687 0.00000000)
(0.23579380 0.07191740 0.00000000)
(0.25612731 0.09436794 0.00000000)
(0.27671564 0.11256384 0.00000000)
(0.30374376 0.13567461 0.00000000)
(0.32163861 0.15418837 0.00000000)
(0.34634192 0.17518452 0.00000000)
(0.36683159 0.18944009 0.00000000)
(0.38197587 0.19309483 0.00000000)
(0.38923267 0.20403733 0.00000000)
(0.40445558 0.20947164 0.00000000)
(0.42579710 0.23635260 0.00000000)
(0.44130276 0.23788811 0.00000000)
(0.50281297 0.28266604 0.00000000)
(0.54890595 0.29338047 0.00000000)
(0.60518011 0.30244738 0.00000000)
(0.67240638 0.27882924 0.00000000)
(0.74803348 0.22563750 0.00000000)
(0.71255780 0.13269939 0.00000000)
(0.58361128 0.07496493 0.00000000)
(0.40179876 0.01826741 0.00000000)
(0.28914373 0.00490313 0.00000000)
(0.33629673 0.00035945 0.00000000)
(0.31853496 -0.00393546 0.00000000)
(0.26508650 -0.00902018 0.00000000)
(0.11491735 -0.00834362 0.00000000)
(-0.01071382 0.00870990 0.00000000)
(-0.04590547 0.01959244 0.00000000)
(-0.05805048 0.03042102 0.00000000)
(-0.06980851 0.04025760 0.00000000)
(-0.07697220 0.04592413 0.00000000)
(-0.08289376 0.04643796 0.00000000)
(-0.08843704 0.05045269 0.00000000)
(-0.09807776 0.05310793 0.00000000)
(-0.10523282 0.05716342 0.00000000)
(-0.11310566 0.05904688 0.00000000)
(-0.12109445 0.06492838 0.00000000)
(-0.13101316 0.06921450 0.00000000)
(-0.14361070 0.07320722 0.00000000)
(-0.15596868 0.07617373 0.00000000)
(-0.16714673 0.07387167 0.00000000)
(-0.17597721 0.06969963 0.00000000)
(-0.18372412 0.06120448 0.00000000)
(-0.18886604 0.05214526 0.00000000)
(-0.19120477 0.04114458 0.00000000)
(-0.19088629 0.02898514 0.00000000)
(-0.18385793 0.01575909 0.00000000)
(-0.17755007 0.00110845 0.00000000)
(-0.16869663 -0.00206803 0.00000000)
(-0.15509396 -0.00345228 0.00000000)
(-0.13902148 -0.00389839 0.00000000)
(-0.12098176 -0.00515944 0.00000000)
(-0.10169826 -0.00512643 0.00000000)
(-0.08235587 -0.00499326 0.00000000)
(-0.06249048 -0.00545023 0.00000000)
(-0.04283898 -0.00533689 0.00000000)
(-0.02317493 -0.00510635 0.00000000)
(-0.00443424 -0.00474318 0.00000000)
(0.01361226 -0.00517250 0.00000000)
(0.03172695 -0.00455235 0.00000000)
(0.05048304 -0.00514134 0.00000000)
(0.06918663 -0.00490534 0.00000000)
(0.08576873 -0.00416016 0.00000000)
(0.10197241 -0.00430315 0.00000000)
(0.11781281 -0.00403779 0.00000000)
(0.13210291 -0.00335355 0.00000000)
(0.14522802 -0.00320415 0.00000000)
(0.15747089 -0.00308168 0.00000000)
(0.16932778 -0.00290499 0.00000000)
(0.18078788 -0.00304448 0.00000000)
(0.19221665 -0.00284755 0.00000000)
(0.20280561 -0.00253993 0.00000000)
(0.21263315 -0.00224194 0.00000000)
(0.22146912 -0.00201221 0.00000000)
(0.22957145 -0.00171264 0.00000000)
(0.23726166 -0.00184970 0.00000000)
(0.24417077 -0.00150160 0.00000000)
(0.25050820 -0.00138517 0.00000000)
(0.25684732 -0.00140492 0.00000000)
(0.26268722 -0.00132953 0.00000000)
(0.26863827 -0.00128266 0.00000000)
(0.27411656 -0.00120955 0.00000000)
(0.27935807 -0.00119739 0.00000000)
(0.28445633 -0.00110442 0.00000000)
(0.28934963 -0.00101117 0.00000000)
(0.29417192 -0.00099268 0.00000000)
(0.29852631 -0.00090293 0.00000000)
(0.30243056 -0.00084013 0.00000000)
(0.30608574 -0.00072683 0.00000000)
(0.30936358 -0.00058467 0.00000000)
(0.31236885 -0.00056987 0.00000000)
(0.31517938 -0.00044516 0.00000000)
(0.31751861 -0.00037158 0.00000000)
(0.31952693 -0.00030401 0.00000000)
(0.32117631 -0.00016523 0.00000000)
(0.32243701 -0.00003787 0.00000000)
(0.32325916 -0.00001596 0.00000000)
(0.32388450 0.00006901 0.00000000)
(0.32431843 0.00010116 0.00000000)
(0.32458429 0.00012914 0.00000000)
(0.32458960 0.00021417 0.00000000)
(0.32424641 0.00033528 0.00000000)
(0.32366089 0.00046992 0.00000000)
(0.32235848 0.00063305 0.00000000)
(0.32061727 0.00074739 0.00000000)
(0.31817753 0.00094181 0.00000000)
(0.31514910 0.00115083 0.00000000)
(0.31126977 0.00144374 0.00000000)
(0.30633702 0.00175418 0.00000000)
(0.30040605 0.00207740 0.00000000)
(0.29314498 0.00243857 0.00000000)
(0.28441669 0.00287107 0.00000000)
(0.27371261 0.00346314 0.00000000)
(0.26074419 0.00417781 0.00000000)
(0.24480515 0.00509760 0.00000000)
(0.22493438 0.00637934 0.00000000)
(0.20636755 0.00877175 0.00000000)
(0.20102116 0.01518430 0.00000000)
(0.21035161 0.02644368 0.00000000)
(0.22593788 0.04139847 0.00000000)
(0.24436100 0.05924343 0.00000000)
(0.26333565 0.07885356 0.00000000)
(0.28483099 0.10307489 0.00000000)
(0.30729369 0.12348505 0.00000000)
(0.33462058 0.14798194 0.00000000)
(0.35511821 0.16973197 0.00000000)
(0.38320477 0.19052649 0.00000000)
(0.40842502 0.20711663 0.00000000)
(0.42377893 0.21390872 0.00000000)
(0.44603064 0.23240535 0.00000000)
(0.46318227 0.24168944 0.00000000)
(0.48220769 0.26167929 0.00000000)
(0.51640594 0.28482712 0.00000000)
(0.57551235 0.31636029 0.00000000)
(0.63723283 0.33657552 0.00000000)
(0.70608184 0.34084916 0.00000000)
(0.79473847 0.32506167 0.00000000)
(0.87929337 0.27424946 0.00000000)
(0.85376018 0.16430435 0.00000000)
(0.72550601 0.08995709 0.00000000)
(0.53262903 0.02733358 0.00000000)
(0.39151010 0.00797594 0.00000000)
(0.42847747 0.00159914 0.00000000)
(0.39991242 -0.00455410 0.00000000)
(0.33607766 -0.01099501 0.00000000)
(0.17337753 -0.01144471 0.00000000)
(0.00799110 0.00586832 0.00000000)
(-0.04797850 0.02157050 0.00000000)
(-0.06488580 0.03449175 0.00000000)
(-0.07759170 0.04436599 0.00000000)
(-0.08568551 0.05037357 0.00000000)
(-0.09200381 0.05213708 0.00000000)
(-0.09937345 0.05693373 0.00000000)
(-0.10880473 0.05961151 0.00000000)
(-0.11648654 0.06329480 0.00000000)
(-0.12429441 0.06552743 0.00000000)
(-0.13203182 0.07085817 0.00000000)
(-0.14199513 0.07563820 0.00000000)
(-0.15384021 0.07935126 0.00000000)
(-0.16554067 0.08128419 0.00000000)
(-0.17632702 0.07827297 0.00000000)
(-0.18445965 0.07336363 0.00000000)
(-0.19114229 0.06405050 0.00000000)
(-0.19540967 0.05393853 0.00000000)
(-0.19665548 0.04222750 0.00000000)
(-0.19503894 0.02936008 0.00000000)
(-0.18718926 0.01519287 0.00000000)
(-0.18011052 0.00064169 0.00000000)
(-0.17015329 -0.00303299 0.00000000)
(-0.15523360 -0.00476167 0.00000000)
(-0.13773150 -0.00530481 0.00000000)
(-0.11904304 -0.00665297 0.00000000)
(-0.09899547 -0.00673744 0.00000000)
(-0.07887623 -0.00661535 0.00000000)
(-0.05821064 -0.00704581 0.00000000)
(-0.03779146 -0.00694153 0.00000000)
(-0.01759348 -0.00670018 0.00000000)
(0.00186098 -0.00619932 0.00000000)
(0.02074123 -0.00665883 0.00000000)
(0.03971821 -0.00603857 0.00000000)
(0.05934530 -0.00669660 0.00000000)
(0.07835504 -0.00629450 0.00000000)
(0.09573235 -0.00547409 0.00000000)
(0.11250237 -0.00564056 0.00000000)
(0.12894841 -0.00525310 0.00000000)
(0.14417910 -0.00449100 0.00000000)
(0.15809955 -0.00424612 0.00000000)
(0.17098317 -0.00406593 0.00000000)
(0.18343882 -0.00386656 0.00000000)
(0.19544948 -0.00398619 0.00000000)
(0.20719640 -0.00372655 0.00000000)
(0.21833662 -0.00340037 0.00000000)
(0.22868048 -0.00299230 0.00000000)
(0.23801292 -0.00272182 0.00000000)
(0.24684505 -0.00236128 0.00000000)
(0.25500024 -0.00247091 0.00000000)
(0.26241444 -0.00204416 0.00000000)
(0.26927499 -0.00191737 0.00000000)
(0.27628256 -0.00191051 0.00000000)
(0.28262141 -0.00181341 0.00000000)
(0.28895234 -0.00175763 0.00000000)
(0.29491939 -0.00165672 0.00000000)
(0.30057063 -0.00162679 0.00000000)
(0.30609688 -0.00151346 0.00000000)
(0.31140278 -0.00142086 0.00000000)
(0.31660624 -0.00137785 0.00000000)
(0.32136814 -0.00125164 0.00000000)
(0.32562516 -0.00115197 0.00000000)
(0.32962794 -0.00101864 0.00000000)
(0.33330379 -0.00085035 0.00000000)
(0.33677162 -0.00082464 0.00000000)
(0.33992743 -0.00066458 0.00000000)
(0.34264680 -0.00055717 0.00000000)
(0.34507590 -0.00046902 0.00000000)
(0.34713175 -0.00029323 0.00000000)
(0.34866865 -0.00013417 0.00000000)
(0.34991025 -0.00008974 0.00000000)
(0.35077334 0.00002303 0.00000000)
(0.35146142 0.00005760 0.00000000)
(0.35208228 0.00010530 0.00000000)
(0.35235213 0.00021487 0.00000000)
(0.35233994 0.00035935 0.00000000)
(0.35193526 0.00053584 0.00000000)
(0.35096709 0.00074120 0.00000000)
(0.34951768 0.00090277 0.00000000)
(0.34737989 0.00114375 0.00000000)
(0.34459637 0.00141059 0.00000000)
(0.34101131 0.00177675 0.00000000)
(0.33654466 0.00216981 0.00000000)
(0.33101218 0.00257904 0.00000000)
(0.32428410 0.00305515 0.00000000)
(0.31586369 0.00362369 0.00000000)
(0.30556771 0.00438017 0.00000000)
(0.29305558 0.00529869 0.00000000)
(0.27754490 0.00649036 0.00000000)
(0.25818725 0.00811951 0.00000000)
(0.23939898 0.01096262 0.00000000)
(0.23142658 0.01767478 0.00000000)
(0.23749780 0.02939944 0.00000000)
(0.25057074 0.04504593 0.00000000)
(0.26730466 0.06357836 0.00000000)
(0.28518171 0.08400640 0.00000000)