4 	0.00391112967796265 	-2.08166817117217e-17 	0.142445393545709 	2.11872933120689e-05 	840.588738156032 	5.31092214267073e-06 	2.91216705719354e-38
4 	0.0118766651674913 	-2.42861286636753e-17 	0.142443304605516 	0.000238982374857637 	238.260457774691 	7.50624394513239e-05 	0
4 	0.020134001548576 	-3.12250225675825e-17 	0.142438420647274 	0.00116851343556403 	61.32263192252 	0.000339648419990461 	0
4 	0.028693828342395 	-3.81639164714898e-17 	0.142423771681059 	0.00308234878963291 	25.7665663509462 	0.000439841365349746 	0
4 	0.0375672266585909 	-3.81639164714898e-17 	0.142393090521077 	0.00534552202404283 	14.0314884929682 	0.000166604341319381 	0
4 	0.0467656835403032 	-3.81639164714898e-17 	0.142343637817319 	0.00741823961729274 	9.18737368912948 	3.06772277795368e-05 	0
4 	0.0563011068347006 	-3.81639164714898e-17 	0.142277975337397 	0.00921076596246815 	6.79674072873123 	6.77609017667299e-05 	0
4 	0.0661858406082648 	-3.46944695195361e-17 	0.142200407825998 	0.0107828879067715 	5.42743009938238 	0.000172508646455385 	0
4 	0.0764326811267815 	-3.46944695195361e-17 	0.142114113100968 	0.0121977333454509 	4.55409008226413 	0.000298957558022742 	0
4 	0.0870548934207257 	-3.46944695195361e-17 	0.142021080451397 	0.0135002939572535 	3.95393412482979 	0.00043410260682109 	0
4 	0.0980662284574838 	-3.81639164714898e-17 	0.141922743538106 	0.0147213310022747 	3.5193009779819 	0.000574793014364238 	0
4 	0.109480940942647 	-3.46944695195361e-17 	0.141820285386117 	0.0158823535664115 	3.19247490146572 	0.000720758680819553 	0
4 	0.121313807773416 	-2.77555756156289e-17 	0.141714727113828 	0.0169989357802319 	2.93992318355907 	0.000872650815731059 	0
4 	0.13358014716801 	-2.77555756156289e-17 	0.141606971072799 	0.0180827560074288 	2.74089966848809 	0.00103145519437067 	0
4 	0.146295838495838 	-2.77555756156289e-17 	0.141497834189325 	0.0191428558578342 	2.58191384858538 	0.00119830850797151 	0
4 	0.159477342834115 	-2.42861286636753e-17 	0.141388070392683 	0.0201864365357643 	2.4538359922124 	0.00137444502370018 	0
4 	0.173141724277517 	-1.73472347597681e-17 	0.141278384198688 	0.0212193762646984 	2.35028498993339 	0.0015611886855186 	0
4 	0.18730667202848 	-1.73472347597681e-17 	0.141169439227188 	0.0222465744816093 	2.26668305012427 	0.00175996153173523 	0
4 	0.201990523296728 	-2.42861286636753e-17 	0.141061864090285 	0.0232721847058173 	2.19967685676873 	0.00197229776839922 	0
4 	0.217212287037676 	-3.12250225675825e-17 	0.140956257004368 	0.0242997732049546 	2.14676982630811 	0.00219985942602931 	0
4 	0.232991668560441 	-3.81639164714898e-17 	0.140853190044243 	0.025332426214943 	2.10608098304821 	0.00244445191967127 	0
4 	0.249349095037321 	-4.16333634234434e-17 	0.140753213772709 	0.0263728198961698 	2.07618248328439 	0.00270803866718798 	0
4 	0.266305741947753 	-4.16333634234434e-17 	0.140656862866547 	0.0274232619263861 	2.05598750633047 	0.00299275414281716 	0
4 	0.283883560490999 	-4.16333634234434e-17 	0.140564663289719 	0.028485710269173 	2.04467127639519 	0.00330091469598434 	0
4 	0.30210530600303 	-4.5102810375397e-17 	0.140477141539362 	0.0295617724398982 	2.04161439358837 	0.00363502626542079 	0
4 	0.320994567414413 	-4.5102810375397e-17 	0.140394836482501 	0.0306526870692625 	2.04636149138327 	0.00399778779996576 	0
4 	0.340575797787321 	-3.81639164714898e-17 	0.140318314073842 	0.0317592884688442 	2.0585905929535 	0.00439208877905107 	0
4 	0.360874345971201 	-2.77555756156289e-17 	0.140248184467501 	0.032881954064816 	2.0780900083293 	0.00482099861586593 	0
4 	0.38191648941809 	-2.77555756156289e-17 	0.140185121833254 	0.0340205338737701 	2.10474053344212 	0.00528774423856433 	0
4 	0.403729468200046 	-3.81639164714898e-17 	0.140129897815075 	0.0351742605884711 	2.13850127028254 	0.00579566885985028 	0
4 	0.426341520272733 	-4.5102810375397e-17 	0.140083450025681 	0.0363416383158256 	2.17939769038835 	0.00634816953617454 	0
4 	0.449781918030829 	-3.81639164714898e-17 	0.140046896785073 	0.0375202568319111 	2.22751068024389 	0.0069486820006842 	0
4 	0.474081006202548 	-2.77555756156289e-17 	0.140021055239066 	0.0387059010886876 	2.28296546144122 	0.00760050059445637 	0
4 	0.499270241132363 	-3.12250225675825e-17 	0.140005815792423 	0.0398941616231034 	2.34591732263968 	0.00830676554871459 	0
4 	0.525382231502763 	-3.81639164714898e-17 	0.140004855147666 	0.0410792995650762 	2.4165314790244 	0.00908014170340401 	0
4 	0.552450780547767 	-3.81639164714898e-17 	0.140043713311315 	0.0422544205052654 	2.49500314930786 	0.010091720527815 	0
4 	0.580510929812849 	-3.46944695195361e-17 	0.140139796358695 	0.0434211350887958 	2.58239297148943 	0.0112411973354968 	0
4 	0.60959900451791 	-3.81639164714898e-17 	0.140272085437115 	0.0445764168707217 	2.6787027458355 	0.0126188199747186 	0
4 	0.639752660582032 	-3.12250225675825e-17 	0.140420365807056 	0.0456699510897218 	2.77934208360502 	0.0140340607672423 	0
4 	0.671010933370886 	-2.77555756156289e-17 	0.140582134624956 	0.0466230757815615 	2.87607743409023 	0.0153122459374594 	0
4 	0.7034142882299 	-3.81639164714898e-17 	0.140764288222599 	0.0473554979564674 	2.95965257929823 	0.0163622215820442 	0
4 	0.737004672868606 	-3.81639164714898e-17 	0.140973291751254 	0.0478010308343021 	3.02265610094735 	0.0171490069410719 	0
4 	0.771825571663976 	-4.5102810375397e-17 	0.141211476823182 	0.0479110888025847 	3.06114448074604 	0.0176525618038009 	0
4 	0.807922061953053 	-4.85722573273506e-17 	0.14147727585964 	0.0476521244813944 	3.07402070958198 	0.0178447721526575 	0
4 	0.845340872387742 	-3.81639164714898e-17 	0.141767092523577 	0.0470042194258647 	3.06136218560781 	0.0176922303407901 	0
4 	0.884130443427309 	-3.10081821330854e-17 	0.142077496638233 	0.0459622356258037 	3.02321675841738 	0.0171718082615514 	0
4 	0.924340990046897 	-2.62376925741492e-17 	0.142406365793765 	0.0445417880584925 	2.95938504121826 	0.0162874002845455 	0
4 	0.966024566743241 	-2.99239799605999e-17 	0.142752592610497 	0.0427874168009655 	2.8699551953347 	0.0150799914083848 	0
4 	1.00923513492173 	-3.16587034365767e-17 	0.14311702593365 	0.040764607802141 	2.75524647495498 	0.0136157510241231 	0
4 	1.05402863275205 	-3.38271077815477e-17 	0.143501228218526 	0.0385605669509161 	2.6166260555 	0.0119816739546264 	0
4 	1.10046304758287 	-3.51281503885303e-17 	0.143906677552477 	0.036279006509535 	2.4573493822809 	0.0102790592540206 	0
4 	1.14859849100923 	-3.72965547335014e-17 	0.144333828057774 	0.0340371715977985 	2.28509222654738 	0.00862074575558571 	0
4 	1.19849727668994 	-3.98986399474666e-17 	0.144778841023469 	0.0319427175858329 	2.11067158222043 	0.00712076275773167 	0
4 	1.25022400101563 	-3.90312782094782e-17 	0.145237361651919 	0.0300539557484282 	1.94076472885141 	0.0058678212254221 	0
4 	1.30384562673185 	-3.81639164714898e-17 	0.145738566747131 	0.0283707850723394 	1.77751758008194 	0.00481633719994271 	0
4 	1.35943156962565 	-3.38271077815477e-17 	0.146268358706535 	0.026878806727584 	1.6226011215895 	0.00393669820829114 	0
4 	1.41705378838762 	-3.20923843055709e-17 	0.146786454813733 	0.0255652330360523 	1.47886531631704 	0.00321523235814955 	0
4 	1.47678687776592 	-3.29597460435593e-17 	0.147295626610103 	0.0244043697630467 	1.34899478311707 	0.00263407528502156 	0
4 	1.53870816513277 	-3.12250225675825e-17 	0.14779633892613 	0.023351428913408 	1.23328148453519 	0.00218297295899728 	0
4 	1.60289781058851 	-2.94902990916057e-17 	0.148292025993503 	0.022351760780756 	1.130003681595 	0.00183518440634219 	0
4 	1.66943891073266 	-3.12250225675825e-17 	0.148784221189795 	0.021357202078977 	1.03816556471926 	0.00155988998165852 	0
4 	1.73841760623657 	-3.12250225675825e-17 	0.149268341187215 	0.0203334355675062 	0.95770719714783 	0.00133105290823965 	0
4 	1.80992319335659 	-3.12250225675825e-17 	0.149738111525848 	0.0192584019599329 	0.887700812121099 	0.00113028867078469 	0
4 	1.88404823953248 	-3.12250225675825e-17 	0.150189371235356 	0.0181216904865102 	0.8264223120951 	0.000946553957957858 	0
4 	1.96088870322037 	-2.94902990916057e-17 	0.150599206108702 	0.0169666416942142 	0.774413123231156 	0.000780619426608184 	0
4 	2.02025965173184 	-3.12250225675825e-17 	0.150898528119622 	0.0160196372466706 	0.738920861649435 	0.000655507211376059 	0
4 	2.06006301192217 	-2.77555756156289e-17 	0.151098969808222 	0.0153326617520187 	0.716399593642398 	0.000572162038547754 	0
4 	2.09845978584128 	-2.77555756156289e-17 	0.151264024144685 	0.014717789563774 	0.698571322593178 	0.000500589353317199 	0
4 	2.13549967996945 	-3.46944695195361e-17 	0.151413879895745 	0.0141309153721072 	0.683659865444918 	0.000434968207217102 	0
4 	2.17123064424048 	-3.46944695195361e-17 	0.151548023788351 	0.0135725070968526 	0.671551579688101 	0.000375267342128136 	0
4 	2.20569893411515 	-3.12250225675825e-17 	0.151667299208873 	0.0130426248324305 	0.662160657712269 	0.000321174078081034 	0
4 	2.23894917046122 	-2.77555756156289e-17 	0.15177289198262 	0.0125410013506061 	0.655425952647483 	0.000272427702439146 	0
4 	2.27102439731725 	-3.46944695195361e-17 	0.151865903333661 	0.0120671199516342 	0.651309807264998 	0.000228778224795585 	0
4 	2.30196613761521 	-4.16333634234434e-17 	0.151947375583991 	0.0116202863834498 	0.649798079882422 	0.000189991980410805 	0
4 	2.33181444693391 	-4.16333634234434e-17 	0.152018315534007 	0.0111996917161273 	0.650900829655066 	0.000155862481873175 	0
4 	2.3606079653529 	-4.16333634234434e-17 	0.152079692112815 	0.0108044649969677 	0.654653367237932 	0.000126218189168893 	0
4 	2.3883839674739 	-3.81639164714898e-17 	0.152132432442854 	0.0104337159338147 	0.661117533946693 	0.000100928550609353 	0
4 	2.41517841067461 	-3.12250225675825e-17 	0.152177419320868 	0.0100865684958656 	0.670383155397924 	7.99090500780833e-05 	0
4 	2.44102598165722 	-3.46944695195361e-17 	0.152215489009471 	0.00976218652627136 	0.682569655495116 	6.31254384163073e-05 	0
4 	2.46596014135207 	-4.16333634234434e-17 	0.15224742912936 	0.00945979244585817 	0.697827833212987 	5.05972971189451e-05 	0
4 	2.49001316823443 	-4.5102810375397e-17 	0.152273976748508 	0.00917868000212837 	0.716341809034314 	4.24010477724103e-05 	0
4 	2.51321620011054 	-4.85722573273506e-17 	0.15229581674017 	0.00891822184917988 	0.738331147326662 	3.86724467657298e-05 	0
4 	2.535599274427 	-4.85722573273506e-17 	0.152313580465896 	0.00867787257555904 	0.764053160692125 	3.96085377075216e-05 	0
4 	2.55719136715571 	-4.85722573273506e-17 	0.152327844843472 	0.00845716765672432 	0.793805406781632 	4.54689940665908e-05 	0
4 	2.57802043030465 	-4.85722573273506e-17 	0.152339131862326 	0.00825571871618226 	0.827928401370288 	5.65767847799635e-05 	0
4 	2.59811342810315 	-4.85722573273506e-17 	0.15234790860708 	0.00807320544785487 	0.866808597669507 	7.33181496332906e-05 	0
4 	2.61749637190832 	-4.85722573273506e-17 	0.152354587843396 	0.00790936458926687 	0.91088172447971 	9.61419912786454e-05 	0
4 	2.63619435387806 	-4.85722573273506e-17 	0.152359529208599 	0.00776397644004456 	0.960636637113681 	0.000125558982544743 	0
4 	2.65423157945406 	-4.16333634234434e-17 	0.152363041031893 	0.00763684958095891 	1.01661991463526 	0.000162140944391836 	0
4 	2.67163139869691 	-3.46944695195361e-17 	0.152365382785286 	0.0075278046387913 	1.07944153024252 	0.000206521345948352 	0
4 	2.68841633651388 	-3.46944695195361e-17 	0.152366768137286 	0.00743665811966586 	1.14978201848247 	0.000259398065759626 	0
4 	2.7046081218185 	-3.46944695195361e-17 	0.152367368548755 	0.00736320744400095 	1.22840164759118 	0.000321539764744579 	0
4 	2.72022771565972 	-3.46944695195361e-17 	0.152367317317255 	0.00730721830240953 	1.3161521576185 	0.000393797278344018 	0
4 	2.73529533835694 	-3.46944695195361e-17 	0.152366713946754 	0.00726841526713824 	1.41399162485064 	0.000477121267352386 	0
4 	2.74983049567625 	-3.46944695195361e-17 	0.152365628698195 	0.0072464762188627 	1.5230029458267 	0.000572586931701377 	0
4 	2.76385200408156 	-3.81639164714898e-17 	0.152364107166862 	0.00724103060608781 	1.64441629799543 	0.000681425891733843 	0
4 	2.77737801509343 	-3.81639164714898e-17 	0.152362174737187 	0.00725166091304041 	1.77963574517107 	0.000805064429124563 	0
4 	2.79042603878708 	-3.46944695195361e-17 	0.152359840787464 	0.00727790608099001 	1.93026995181038 	0.000945166242274096 	0
4 	2.80301296646003 	-3.81639164714898e-17 	0.152357102553591 	0.00731926513923994 	2.09816680829589 	0.00110367680364384 	0
4 	2.81515509249872 	-4.16333634234434e-17 	0.152353948569538 	0.00737519908794036 	2.28545172659656 	0.00128286538453753 	0
4 	2.82686813547237 	-4.16333634234434e-17 	0.152350361508593 	0.00744512925102143 	2.49456954529188 	0.00148535991738108 	0
4 	2.83816725848142 	-4.16333634234434e-17 	0.152346320423075 	0.007528430978071 	2.72833054357596 	0.00171416931082641 	0
4 	2.84906708878691 	-4.5102810375397e-17 	0.152341804321585 	0.00762442279796026 	2.989962275354 	0.00197268798577672 	0
4 	2.85958173674616 	-4.85722573273506e-17 	0.15233680045573 	0.00773235298945414 	3.28317124046407 	0.00226467849276166 	0
4 	2.86972481407933 	-4.85722573273506e-17 	0.15233129935381 	0.00785138810929285 	3.61222241195201 	0.00259424580548861 	0
4 	2.87950945149043 	-4.85722573273506e-17 	0.152325201461899 	0.00798061057325046 	3.98205050093608 	0.00296803957050726 	0
4 	2.88894831566566 	-4.85722573273506e-17 	0.152318294754891 	0.00811901324871302 	4.39863143368911 	0.00340199224029092 	0
4 	2.89805362567106 	-4.85722573273506e-17 	0.152310825585989 	0.00826542603506166 	4.87026108126097 	0.00390756734132243 	0
4 	2.90683716877067 	-4.85722573273506e-17 	0.152303020918881 	0.00841824906630049 	5.40758910098902 	0.00449913795495197 	0
4 	2.91531031568569 	-5.20417042793042e-17 	0.152294774097924 	0.00857418806330146 	6.02063663857888 	0.00518570198366524 	0
4 	2.92348403531448 	-5.55111512312578e-17 	0.152286152643011 	0.00872751626330873 	6.71701564379581 	0.0059620302385149 	0
4 	2.93136890893229 	-5.89805981832114e-17 	0.152277178108097 	0.00887073110759117 	7.50312666260716 	0.00682257286601961 	0
4 	2.93897514388925 	-5.89805981832114e-17 	0.152267792026244 	0.00899519727050487 	8.38590996325516 	0.00776454002158096 	0
4 	2.94631258682425 	-5.20417042793042e-17 	0.152257953120972 	0.00909140742446171 	9.37478255908198 	0.00878590317071881 	0
4 	2.95339073641193 	-4.85722573273506e-17 	0.152247673948996 	0.00914898994430565 	10.4850224003602 	0.00988429887786222 	0
4 	2.96021875565915 	-4.85722573273506e-17 	0.152237016753707 	0.00915650958741048 	11.7411180669801 	0.0110563762731093 	0
4 	2.96680548376697 	-4.85722573273506e-17 	0.152226083752187 	0.00910112885495585 	13.1748086385836 	0.0122968072426778 	0
4 	2.97315944757337 	-4.85722573273506e-17 	0.152215012142672 	0.0089680970143921 	14.8293905017135 	0.0135959733060698 	0
4 	2.97928887259171 	-4.85722573273506e-17 	0.152203972185926 	0.00873975739539399 	16.7708696173078 	0.0149345867792168 	0
4 	2.98520169365902 	-4.85722573273506e-17 	0.152193163894415 	0.0083942628230719 	19.0991628259465 	0.0162733817612498 	0
4 	2.99090556520806 	-5.55111512312578e-17 	0.152182811150119 	0.00790416359399438 	21.967141985615 	0.0175287508521758 	0
4 	2.99640787117633 	-6.24500451351651e-17 	0.152173158838116 	0.00723568600735592 	25.6185774753016 	0.0185244799550334 	0
4 	3.00171573456492 	-6.24500451351651e-17 	0.15216444145737 	0.00635165788580075 	30.4712866006171 	0.0189721687915497 	0
4 	3.00683602665962 	-6.24500451351651e-17 	0.152156870191089 	0.0052179500110201 	37.3277349712051 	0.0182467305182864 	0
4 	3.01177537592612 	-6.24500451351651e-17 	0.152150785654776 	0.00383355646791474 	47.9667481716218 	0.0150650757044138 	0
4 	3.01654017659085 	-6.24500451351651e-17 	0.152146425051509 	0.00234698860472536 	67.1426782189207 	0.00940508515673433 	0
4 	3.02113659691864 	-6.24500451351651e-17 	0.152143563247095 	0.00109740084433868 	110.737351442905 	0.00377904707514212 	0
4 	3.02557058719784 	-6.59194920871187e-17 	0.152141645658146 	0.000358394969128584 	247.826768007108 	0.000852724121218056 	0
4 	3.02984788744324 	-6.93889390390723e-17 	0.152140141308277 	7.19087343594183e-05 	1001.42605173423 	9.3587530991428e-05 	0
