4 	0.00391112967796265 	-2.08166817117217e-17 	-0.0357917085050975 	2.38523056568965e-05 	0
4 	0.0118766651674913 	-2.42861286636753e-17 	-0.0971702197151865 	-6.91074188245533e-05 	0
4 	0.020134001548576 	-3.12250225675825e-17 	-0.142807690900591 	-0.000260172702913342 	-3.5991464877223e-22
4 	0.028693828342395 	-3.81639164714898e-17 	-0.168520319862743 	-0.000582816797477181 	-3.8276987602782e-21
4 	0.0375672266585909 	-3.81639164714898e-17 	-0.178343458928996 	-0.00100054187017675 	2.0907165263996e-23
4 	0.0467656835403032 	-3.81639164714898e-17 	-0.180466067031982 	-0.00147351087437407 	3.07343780780002e-21
4 	0.0563011068347006 	-3.81639164714898e-17 	-0.179491788188779 	-0.00199009194840153 	6.48804145439291e-23
4 	0.0661858406082648 	-3.46944695195361e-17 	-0.177164865167432 	-0.00254452401682591 	5.78699024698635e-22
4 	0.0764326811267815 	-3.46944695195361e-17 	-0.174126643765699 	-0.00313192728238697 	-1.22252148387312e-22
4 	0.0870548934207257 	-3.46944695195361e-17 	-0.170637356385073 	-0.00374946444609857 	-9.85875976116881e-23
4 	0.0980662284574838 	-3.81639164714898e-17 	-0.166812021280317 	-0.00439593299975315 	3.60999003845142e-22
4 	0.109480940942647 	-3.46944695195361e-17 	-0.162702664791391 	-0.00507099000754487 	-1.89476990730474e-24
4 	0.121313807773416 	-2.77555756156289e-17 	-0.158330553850509 	-0.00577473568960444 	-2.85743158270723e-23
4 	0.13358014716801 	-2.77555756156289e-17 	-0.153700240374133 	-0.00650754514317761 	-5.62595012229062e-23
4 	0.146295838495838 	-2.77555756156289e-17 	-0.14880620733149 	-0.00726999296914366 	-5.15875888025698e-23
4 	0.159477342834115 	-2.42861286636753e-17 	-0.143636202302775 	-0.00806281210258564 	-5.12770625510208e-24
4 	0.173141724277517 	-1.73472347597681e-17 	-0.138172962125853 	-0.00888687048385317 	4.3620012010864e-23
4 	0.18730667202848 	-1.73472347597681e-17 	-0.132395098458389 	-0.00974315897549474 	2.98250950489229e-24
4 	0.201990523296728 	-2.42861286636753e-17 	-0.126277515972107 	-0.0106327865141977 	-5.61976230187701e-22
4 	0.217212287037676 	-3.12250225675825e-17 	-0.11979155263063 	-0.0115569800523347 	4.59574262170328e-22
4 	0.232991668560441 	-3.81639164714898e-17 	-0.112904942827058 	-0.012517087821407 	4.87687753280659e-22
4 	0.249349095037321 	-4.16333634234434e-17 	-0.105581658695457 	-0.0135145849361441 	9.84349241880122e-22
4 	0.266305741947753 	-4.16333634234434e-17 	-0.0977816605194902 	-0.0145510805475512 	5.89036080147901e-22
4 	0.283883560490999 	-4.16333634234434e-17 	-0.0894605735457998 	-0.0156283257616489 	1.06018287256625e-21
4 	0.30210530600303 	-4.5102810375397e-17 	-0.0805693006628779 	-0.0167482213982548 	5.65888135122179e-23
4 	0.320994567414413 	-4.5102810375397e-17 	-0.0710535758094233 	-0.0179128243536804 	1.02690779681047e-21
4 	0.340575797787321 	-3.81639164714898e-17 	-0.0608534603533947 	-0.0191243509184117 	9.62021812810317e-22
4 	0.360874345971201 	-2.77555756156289e-17 	-0.0499027834386578 	-0.0203851752626167 	-1.09692020310235e-21
4 	0.38191648941809 	-2.77555756156289e-17 	-0.0381285272700529 	-0.0216978211960077 	-3.69736292999537e-23
4 	0.403729468200046 	-3.81639164714898e-17 	-0.0254501597026318 	-0.0230649394797152 	4.59139534876221e-23
4 	0.426341520272733 	-4.5102810375397e-17 	-0.0117789198350582 	-0.0244892420268452 	1.20688486151465e-21
4 	0.449781918030829 	-3.81639164714898e-17 	0.00298294122821814 	-0.0259733799844955 	8.39786788676367e-23
4 	0.474081006202548 	-2.77555756156289e-17 	0.0189430747921491 	-0.027520076899935 	1.28498400857637e-21
4 	0.499270241132363 	-3.12250225675825e-17 	0.0362197935576842 	-0.0291329730379988 	8.71872576011469e-23
4 	0.525382231502763 	-3.81639164714898e-17 	0.0549427396070234 	-0.0308158931903165 	4.52868612803679e-23
4 	0.552450780547767 	-3.81639164714898e-17 	0.0752768871392242 	-0.0325567096769225 	9.93767428545202e-24
4 	0.580510929812849 	-3.46944695195361e-17 	0.0977907251442328 	-0.0343706821148041 	-3.12162264279433e-21
4 	0.60959900451791 	-3.81639164714898e-17 	0.123317250251211 	-0.0362765512444653 	1.03776658394989e-23
4 	0.639752660582032 	-3.12250225675825e-17 	0.152260011356737 	-0.0382636649232918 	3.70783231839186e-21
4 	0.671010933370886 	-2.77555756156289e-17 	0.18461531714398 	-0.0403019933153333 	-3.84382538041185e-21
4 	0.7034142882299 	-3.81639164714898e-17 	0.220173553128754 	-0.042350273531462 	4.14505034495536e-21
4 	0.737004672868606 	-3.81639164714898e-17 	0.258680557726202 	-0.0443612554585795 	-9.73363159146468e-23
4 	0.771825571663976 	-4.5102810375397e-17 	0.299891057401213 	-0.046285968345299 	-3.73484583110605e-23
4 	0.807922061953053 	-4.85722573273506e-17 	0.343534430994714 	-0.0480762641657716 	-2.46551713259431e-22
4 	0.845340872387742 	-3.81639164714898e-17 	0.389253024584969 	-0.0496867545328427 	2.53137501127281e-22
4 	0.884130443427309 	-3.10081821330854e-17 	0.436563394734602 	-0.0510752959305892 	2.23673359933946e-19
4 	0.924340990046897 	-2.62376925741492e-17 	0.484839348822622 	-0.0522046304275102 	-8.59452550525242e-19
4 	0.966024566743241 	-2.99239799605999e-17 	0.533340108511793 	-0.053048589918697 	-1.59002895811697e-18
4 	1.00923513492173 	-3.16587034365767e-17 	0.581265982042353 	-0.0535843586506839 	6.58727435848064e-23
4 	1.05402863275205 	-3.38271077815477e-17 	0.627788852619572 	-0.0537966538134814 	-8.77376514604393e-21
4 	1.10046304758287 	-3.51281503885303e-17 	0.672101976726348 	-0.0536812865996249 	-2.96012506802707e-22
4 	1.14859849100923 	-3.72965547335014e-17 	0.713493008165383 	-0.0532495879217175 	7.14204604104131e-21
4 	1.19849727668994 	-3.98986399474666e-17 	0.751469328895438 	-0.0525340673790325 	7.28287122202146e-21
4 	1.25022400101563 	-3.90312782094782e-17 	0.785949365471062 	-0.0515844009569114 	1.0132314976512e-21
4 	1.30384562673185 	-3.81639164714898e-17 	0.817407849545068 	-0.0504057904081219 	-1.07491200583875e-20
4 	1.35943156962565 	-3.38271077815477e-17 	0.846353809172055 	-0.0490399773858963 	-1.11646649674181e-20
4 	1.41705378838762 	-3.20923843055709e-17 	0.872924268588636 	-0.0475284522632429 	-5.54874304178433e-22
4 	1.47678687776592 	-3.29597460435593e-17 	0.897238192525076 	-0.0459489905243637 	-2.72472746463549e-24
4 	1.53870816513277 	-3.12250225675825e-17 	0.919568855883367 	-0.0443350651347963 	7.58010379839053e-21
4 	1.60289781058851 	-2.94902990916057e-17 	0.940229887444641 	-0.0426910261593695 	-8.02990482980184e-21
4 	1.66943891073266 	-3.12250225675825e-17 	0.959491560994884 	-0.0410034075286095 	-4.48718673582199e-21
4 	1.73841760623657 	-3.12250225675825e-17 	0.97755646145517 	-0.0392522197120957 	-9.80686992106003e-21
4 	1.80992319335659 	-3.12250225675825e-17 	0.994552752681755 	-0.0374193514715578 	1.91938742385931e-20
4 	1.88404823953248 	-3.12250225675825e-17 	1.01052535644988 	-0.0354905944741273 	-1.40393980704616e-21
4 	1.96088870322037 	-2.94902990916057e-17 	1.02493174625182 	-0.033535872731214 	-1.63704621150818e-21
4 	2.02025965173184 	-3.12250225675825e-17 	1.03535913799676 	-0.0319637774785758 	0
4 	2.06006301192217 	-2.77555756156289e-17 	1.04233293783273 	-0.030811976913902 	0
4 	2.09845978584128 	-2.77555756156289e-17 	1.04819983462567 	-0.029767193286418 	0
4 	2.13549967996945 	-3.46944695195361e-17 	1.05348450489092 	-0.0287558819539703 	0
4 	2.17123064424048 	-3.46944695195361e-17 	1.05822898918279 	-0.0277763290808514 	0
4 	2.20569893411515 	-3.12250225675825e-17 	1.06247086477132 	-0.0268282976966179 	0
4 	2.23894917046122 	-2.77555756156289e-17 	1.06624356934583 	-0.0259114517453706 	0
4 	2.27102439731725 	-3.46944695195361e-17 	1.06957665337072 	-0.0250252401429937 	0
4 	2.30196613761521 	-4.16333634234434e-17 	1.07249600292951 	-0.0241689851166081 	0
4 	2.33181444693391 	-4.16333634234434e-17 	1.07502404142555 	-0.0233419161694022 	0
4 	2.3606079653529 	-4.16333634234434e-17 	1.07717991370099 	-0.0225431871008958 	0
4 	2.3883839674739 	-3.81639164714898e-17 	1.07897965442377 	-0.0217718928171366 	0
4 	2.41517841067461 	-3.12250225675825e-17 	1.08043634178053 	-0.0210270847285843 	0
4 	2.44102598165722 	-3.46944695195361e-17 	1.08156023773502 	-0.02030778377677 	0
4 	2.46596014135207 	-4.16333634234434e-17 	1.08235891684148 	-0.0196129912743014 	0
4 	2.49001316823443 	-4.5102810375397e-17 	1.08283738644683 	-0.0189416978619108 	0
4 	2.51321620011054 	-4.85722573273506e-17 	1.08299820187241 	-0.0182928908247094 	0
4 	2.535599274427 	-4.85722573273506e-17 	1.08284158070486 	-0.0176655599686965 	0
4 	2.55719136715571 	-4.85722573273506e-17 	1.08236552052736 	-0.0170587022193074 	0
4 	2.57802043030465 	-4.85722573273506e-17 	1.0815659241578 	-0.0164713250615081 	0
4 	2.59811342810315 	-4.85722573273506e-17 	1.08043673559426 	-0.0159024489023257 	0
4 	2.61749637190832 	-4.85722573273506e-17 	1.07897008827616 	-0.0153511084075052 	0
4 	2.63619435387806 	-4.85722573273506e-17 	1.07715646488322 	-0.0148163528489717 	0
4 	2.65423157945406 	-4.16333634234434e-17 	1.07498486475125 	-0.014297245503664 	0
4 	2.67163139869691 	-3.46944695195361e-17 	1.07244297128693 	-0.0137928621713725 	0
4 	2.68841633651388 	-3.46944695195361e-17 	1.06951730792137 	-0.0133022889321972 	0
4 	2.7046081218185 	-3.46944695195361e-17 	1.06619336776473 	-0.0128246193428268 	0
4 	2.72022771565972 	-3.46944695195361e-17 	1.06245569996212 	-0.0123589513702521 	0
4 	2.73529533835694 	-3.46944695195361e-17 	1.05828793555405 	-0.0119043844716891 	0
4 	2.74983049567625 	-3.46944695195361e-17 	1.05367273797596 	-0.0114600173355203 	0
4 	2.76385200408156 	-3.81639164714898e-17 	1.04859166837084 	-0.0110249468824848 	0
4 	2.77737801509343 	-3.81639164714898e-17 	1.04302496330659 	-0.0105982691723375 	0
4 	2.79042603878708 	-3.46944695195361e-17 	1.03695123143916 	-0.010179082852486 	0
4 	2.80301296646003 	-3.81639164714898e-17 	1.03034708492569 	-0.00976649570368831 	0
4 	2.81515509249872 	-4.16333634234434e-17 	1.02318672963136 	-0.00935963470943808 	0
4 	2.82686813547237 	-4.16333634234434e-17 	1.0154415441834 	-0.00895766010902334 	0
4 	2.83816725848142 	-4.16333634234434e-17 	1.00707968068021 	-0.00855978407241552 	0
4 	2.84906708878691 	-4.5102810375397e-17 	0.998065718268369 	-0.00816529194021522 	0
4 	2.85958173674616 	-4.85722573273506e-17 	0.988360393245059 	-0.0077735533226583 	0
4 	2.86972481407933 	-4.85722573273506e-17 	0.977920412225981 	-0.00738401866294147 	0
4 	2.87950945149043 	-4.85722573273506e-17 	0.966698259641183 	-0.0069963953030426 	0
4 	2.88894831566566 	-4.85722573273506e-17 	0.954633851215996 	-0.00661073403573987 	0
4 	2.89805362567106 	-4.85722573273506e-17 	0.941612534299633 	-0.00622527879633887 	0
4 	2.90683716877067 	-4.85722573273506e-17 	0.927454819942812 	-0.00583769828200318 	0
4 	2.91531031568569 	-5.20417042793042e-17 	0.911991671426215 	-0.00544609262415419 	0
4 	2.92348403531448 	-5.55111512312578e-17 	0.895111585083821 	-0.00505102637566308 	0
4 	2.93136890893229 	-5.89805981832114e-17 	0.876740081242743 	-0.00465421065260319 	0
4 	2.93897514388925 	-5.89805981832114e-17 	0.856813589626009 	-0.00425788079182617 	0
4 	2.94631258682425 	-5.20417042793042e-17 	0.835263610919576 	-0.00386467975904195 	0
4 	2.95339073641193 	-4.85722573273506e-17 	0.812005444555431 	-0.00347748045554506 	0
4 	2.96021875565915 	-4.85722573273506e-17 	0.786927056615652 	-0.00309920989509141 	0
4 	2.96680548376697 	-4.85722573273506e-17 	0.759875578102 	-0.00273272134601801 	0
4 	2.97315944757337 	-4.85722573273506e-17 	0.730640180737826 	-0.00238071395008576 	0
4 	2.97928887259171 	-4.85722573273506e-17 	0.698929991859216 	-0.00204568332123446 	0
4 	2.98520169365902 	-4.85722573273506e-17 	0.664345256126825 	-0.00172990171693525 	0
4 	2.99090556520806 	-5.55111512312578e-17 	0.626338275192169 	-0.00143541904457983 	-2.15579018006482e-15
4 	2.99640787117633 	-6.24500451351651e-17 	0.584165825915849 	-0.00116404344676454 	-6.38339692793219e-15
4 	3.00171573456492 	-6.24500451351651e-17 	0.536860504279972 	-0.00091763141350634 	7.85275940758978e-15
4 	3.00683602665962 	-6.24500451351651e-17 	0.483137541632181 	-0.000698059927241772 	2.4439184147016e-15
4 	3.01177537592612 	-6.24500451351651e-17 	0.421249523106991 	-0.000505293863544467 	0
4 	3.01654017659085 	-6.24500451351651e-17 	0.350043056017003 	-0.000339769717406215 	0
4 	3.02113659691864 	-6.24500451351651e-17 	0.271349675948134 	-0.000204389467287457 	0
4 	3.02557058719784 	-6.59194920871187e-17 	0.190167176627835 	-0.000103439993105157 	0
4 	3.02984788744324 	-6.93889390390723e-17 	0.11119907581133 	-3.84654059189936e-05 	0
