1 	0.451351328259074 	-6.93889390390723e-18 	-0.00412262513962262 	0.00329638869469122 	-2.43418599473892e-17
1 	0.457856884621384 	-1.38777878078145e-17 	-0.0129696915852328 	0.0102501029851588 	1.14583504513637e-16
1 	0.464597494115859 	-2.08166817117217e-17 	-0.0225338768944628 	0.0179531030309408 	5.28815855980552e-18
1 	0.471581531993916 	-2.77555756156289e-17 	-0.0326832740651094 	0.026283746976356 	-5.97534995333225e-17
1 	0.478817663648872 	-2.77555756156289e-17 	-0.0429568301728003 	0.0348535780460614 	-5.27586617127809e-17
1 	0.486314854099112 	-2.77555756156289e-17 	-0.0525108548028493 	0.0429775914064139 	4.63474495552418e-17
1 	0.494082377743682 	-3.46944695195361e-17 	-0.0604734826466944 	0.0499287226368737 	3.48361502536558e-18
1 	0.502129828395864 	-4.16333634234434e-17 	-0.0664558727324687 	0.055359795417759 	-3.09966512579356e-18
1 	0.510467129600163 	-4.5102810375397e-17 	-0.0706042158975769 	0.0593621773683816 	-3.55954386602103e-18
1 	0.519104545238184 	-5.55111512312578e-17 	-0.0732974007724392 	0.0622247090423788 	1.99383035247582e-17
1 	0.528052690428786 	-6.24500451351651e-17 	-0.0749085551991252 	0.0642382482344437 	-3.58308087339618e-17
1 	0.537322542727918 	-6.24500451351651e-17 	-0.0757243242924114 	0.0656279667045506 	1.64779789956452e-17
1 	0.546925453633457 	-6.24500451351651e-17 	-0.0759455984984833 	0.0665521149358575 	-1.27351663556965e-17
1 	0.556873160400326 	-6.24500451351651e-17 	-0.0757094035610006 	0.0671184310481613 	2.47637145316189e-17
1 	0.567177798171134 	-5.89805981832114e-17 	-0.0751095124294338 	0.0673999956168415 	-2.25817129297756e-17
1 	0.577851912427522 	-4.85722573273506e-17 	-0.0742112854869714 	0.0674467443765906 	-1.86463235969902e-16
1 	0.588908471767319 	-3.81639164714898e-17 	-0.0730615080583827 	0.0672931214144226 	-3.01659320913596e-15
1 	0.600360881012588 	-3.12250225675825e-17 	-0.0716947575702402 	0.0669630309625343 	2.90618524658285e-15
1 	0.612222994653594 	-2.42861286636753e-17 	-0.0701374944820388 	0.0664730231182399 	1.09375977210674e-16
1 	0.624509130633639 	-2.08166817117217e-17 	-0.0684106220537982 	0.0658343290979487 	8.40600043212834e-18
1 	0.637234084479704 	-1.73472347597681e-17 	-0.0665308913839575 	0.0650541127414042 	-1.69728982451654e-17
1 	0.650413143783826 	-1.73472347597681e-17 	-0.064511218256414 	0.0641361272019953 	8.10201231139877e-18
1 	0.664062103040055 	-2.42861286636753e-17 	-0.0623596471343457 	0.0630808340636875 	-1.39960340577055e-17
1 	0.678197278841898 	-2.77555756156289e-17 	-0.0600762122881484 	0.0618849531302341 	-2.45865356246364e-15
1 	0.692835525445182 	-2.91650384398601e-17 	-0.057650338490269 	0.06053834053435 	2.36592760491801e-15
1 	0.707994250701264 	-3.78386558197441e-17 	-0.0550339751452732 	0.0590233968012551 	2.63937189611686e-17
1 	0.723691432365647 	-4.55364912443912e-17 	-0.0521067938362729 	0.0573140052713547 	-7.81236771169927e-18
1 	0.739945634787164 	-4.64038529823796e-17 	-0.0486497034177595 	0.0553585767485174 	7.65045922632396e-18
1 	0.756776025983054 	-4.59701721133854e-17 	-0.0442915005398548 	0.0530823173799953 	1.43547380733564e-19
1 	0.774202395105461 	-4.59701721133854e-17 	-0.038476075326813 	0.0503985103236559 	6.81680254291893e-20
1 	0.792245170305166 	-5.03069808033274e-17 	-0.0303785583021795 	0.0472069964868513 	7.23451684784482e-20
1 	0.810925436998707 	-5.20417042793042e-17 	-0.018797521008184 	0.0433887306872789 	1.08561305658627e-16
1 	0.830264956545436 	-5.29090660172926e-17 	-0.00212838427243334 	0.038838112155975 	1.69594464786425e-17
1 	0.850286185341601 	-5.3776427755281e-17 	0.0215927337794765 	0.0335314244687338 	-2.58812280260199e-16
1 	0.871012294339098 	-4.33680868994202e-17 	0.0545539296178328 	0.0275043395865951 	-3.59084928450733e-17
1 	0.892467188997261 	-3.64291929955129e-17 	0.0989585213701208 	0.0208853271055197 	1.514757379593e-16
1 	0.914675529676922 	-3.81639164714898e-17 	0.155937203983767 	0.0140284518094301 	4.05131082192714e-19
1 	0.937662752486865 	-4.33680868994202e-17 	0.224296461946782 	0.00757693156172558 	4.6497640365854e-18
1 	0.961455090593968 	-4.5102810375397e-17 	0.301012935525935 	0.00217821262215652 	-4.08405969256011e-18
1 	0.986079596009581 	-4.16333634234434e-17 	0.382053662925788 	-0.00171148975777661 	-5.30512875460528e-19
1 	1.01156416186612 	-4.5102810375397e-17 	0.462715824074581 	-0.00394866956308932 	2.81401204739619e-18
1 	1.03793754519955 	-4.85722573273506e-17 	0.538058806967341 	-0.00465738767441144 	-1.49415860483079e-18
1 	1.06522939025519 	-4.5102810375397e-17 	0.603946193402778 	-0.00420441777101173 	-3.92523393219002e-19
1 	1.09347025233648 	-4.5102810375397e-17 	0.658292477973369 	-0.00310816225945443 	2.7588502000807e-19
0.999999999999999 	1.12269162221858 	-3.81639164714898e-17 	0.701624653560943 	-0.00189152897985598 	5.86648865227692e-19
0.999999999999999 	1.1529259511513 	-3.12250225675825e-17 	0.735989373359925 	-0.000880547917152686 	-7.99795195342497e-19
0.999999999999999 	1.18420667647869 	-3.12250225675825e-17 	0.763760251265785 	-0.000202456172393121 	-6.38831819685522e-19
0.999999999999999 	1.20932909529518 	-2.77555756156289e-17 	0.782338679605054 	0.000111625893137294 	3.6398066105592e-19
0.999999999999999 	1.22578615918077 	-3.12250225675825e-17 	0.793158326638557 	0.000224020161574324 	5.21804175865496e-19
1 	1.25005321751936 	-3.12250225675825e-17 	0.807723924825099 	0.000290497419450508 	1.48709875511052e-19
1 	1.28469102414952 	-2.77555756156289e-17 	0.826775879842161 	0.00027159104808336 	-2.18328083339869e-19
1 	1.3205186819877 	-2.42861286636753e-17 	0.845032784525798 	0.000187032857497249 	-2.7533626339836e-19
1 	1.3575749113035 	-1.38777878078145e-17 	0.862956371677872 	0.000100995812521322 	1.98760632210868e-19
1 	1.39589958614917 	-1.04083408558608e-17 	0.880789774213506 	5.70861564063903e-05 	-2.77793604761537e-19
1 	1.43553376564998 	-1.38777878078145e-17 	0.898638349044474 	8.19600108124514e-05 	3.41243968236086e-19
1 	1.4765197263163 	-1.04083408558608e-17 	0.916520727804845 	0.000189503678309579 	-3.95191278425855e-19
1 	1.51890099544962 	-6.93889390390723e-18 	0.934399120329083 	0.000384021969805821 	5.4034655307269e-19
1 	1.56272238572095 	0 	0.952197528089686 	0.000662400542141171 	-2.29897316042271e-20
1 	1.60803003100759 	1.04083408558608e-17 	0.969813764940927 	0.00101560780895596 	2.29180206851742e-19
1 	1.65487142358123 	1.04083408558608e-17 	0.987128789595255 	0.00142985806338942 	-4.09252447355081e-19
1 	1.70329545274835 	0 	1.00401508961182 	0.00188770223971234 	1.15523323984713e-20
1 	1.75335244505181 	-3.46944695195361e-18 	1.02034461966116 	0.00236926803476948 	-1.00998960014314e-19
1 	1.80509420615134 	2.81892564846231e-18 	1.0359888217672 	0.00285435669224734 	-1.04493691544856e-19
1 	1.85857406450905 	8.02309607639273e-18 	1.05082115131818 	0.00332049938574037 	-1.73757016570577e-21
1 	1.91384691701544 	8.67361737988404e-18 	1.06477865169535 	0.00374480643529707 	9.33388319122445e-20
1 	1.97096927670056 	1.73472347597681e-18 	1.07766587054389 	0.00408598990204606 	7.60236751451225e-21
1 	2.02024009608346 	0 	1.08773424893406 	0.00432585774084044 	0
1 	2.06000503604194 	6.93889390390723e-18 	1.09535476459447 	0.00448715542094003 	0
1 	2.09836474743797 	1.04083408558608e-17 	1.10202715458953 	0.00459163771121459 	0
1 	2.13536888877258 	1.38777878078145e-17 	1.10797012134831 	0.00465280530389018 	0
1 	2.17106536369585 	1.73472347597681e-17 	1.11326693836251 	0.0046761865114217 	0
1 	2.20550038302045 	1.73472347597681e-17 	1.11798960959731 	0.00466658992023542 	0
1 	2.23871852454379 	1.73472347597681e-17 	1.122199983074 	0.00462877746316217 	0
1 	2.27076279075614 	1.73472347597681e-17 	1.12595085852408 	0.0045671698320871 	0
1 	2.30167466450941 	1.73472347597681e-17 	1.12928705866003 	0.00448576273819168 	0
1 	2.33149416271873 	2.08166817117217e-17 	1.13224642674961 	0.00438811646090768 	0
1 	2.36025988816627 	2.42861286636753e-17 	1.13486072555216 	0.00427736318529471 	0
1 	2.38800907947441 	2.08166817117217e-17 	1.13715642669406 	0.00415622833224141 	0
1 	2.41477765931296 	2.08166817117217e-17 	1.13915538946598 	0.00402706108364339 	0
1 	2.44060028090272 	2.42861286636753e-17 	1.14087543423844 	0.00389186926264155 	0
1 	2.46551037287587 	2.42861286636753e-17 	1.14233081917544 	0.00375235536240866 	0
1 	2.48954018255081 	2.08166817117217e-17 	1.14353263055003 	0.00360995170900648 	-3.00900530389929e-16
1 	2.512720817678 	1.73472347597681e-17 	1.1444890974443 	0.00346585353089325 	-5.10704785296462e-15
1 	2.53508228671037 	1.73472347597681e-17 	1.14520584148522 	0.00332104925526476 	5.24272480651326e-15
1 	2.55665353765073 	1.73472347597681e-17 	1.14568607190446 	0.0031763477251511 	3.0791627232418e-16
1 	2.57746249552636 	1.73472347597681e-17 	1.14593073586976 	0.00303240227717408 	0
1 	2.59753609853934 	1.73472347597681e-17 	1.14593863388149 	0.00288973177635741 	-6.90128736772019e-16
1 	2.61690033293929 	1.73472347597681e-17 	1.14570651015308 	0.00274873880053808 	-6.18584552791634e-15
1 	2.63558026666389 	1.38777878078145e-17 	1.14522912832322 	0.00260972522432012 	6.43697449686175e-15
1 	2.6536000817905 	1.04083408558608e-17 	1.14449934353711 	0.00247290548699981 	7.12763619427413e-16
1 	2.67098310584103 	1.38777878078145e-17 	1.14350818275068 	0.00233841785198902 	0
1 	2.68775184198057 	1.73472347597681e-17 	1.14224494581536 	0.0022063339848988 	0
1 	2.7039279981488 	1.73472347597681e-17 	1.14069734012117 	0.00207666719835991 	0
1 	2.71953251516198 	1.73472347597681e-17 	1.13885166081364 	0.00194937973535547 	0
1 	2.73458559382185 	1.73472347597681e-17 	1.13669302625522 	0.00182438948734881 	0
1 	2.74910672106653 	1.73472347597681e-17 	1.13420567387411 	0.00170157656317913 	0
1 	2.76311469519732 	1.38777878078145e-17 	1.13137331438646 	0.00158079013048575 	0
1 	2.776627650214 	1.38777878078145e-17 	1.12817953253443 	0.00146185593194029 	0
1 	2.78966307929018 	1.73472347597681e-17 	1.12460821051368 	0.00134458482291792 	0
1 	2.80223785741905 	1.73472347597681e-17 	1.12064393749936 	0.0012287825783691 	0
1 	2.81436826325886 	1.73472347597681e-17 	1.11627235715412 	0.0011142610745046 	0
1 	2.82607000020648 	1.73472347597681e-17 	1.11148039708736 	0.0010008507770108 	0
1 	2.83735821672614 	1.73472347597681e-17 	1.10625632199055 	0.000888414284238127 	-2.94105747551142e-19
1 	2.8482475259599 	1.73472347597681e-17 	1.10058955658249 	0.000776860509327166 	1.01074008148795e-14
1 	2.85875202464506 	1.73472347597681e-17 	1.09447023488455 	0.000666158970173019 	-1.05423106296553e-14
1 	2.86888531136304 	1.73472347597681e-17 	1.0878884462523 	0.000556353614559976 	1.95639083248367e-19
1 	2.87866050414343 	1.73472347597681e-17 	1.08083316223259 	0.000447575632568307 	0
1 	2.88809025744591 	1.38777878078145e-17 	1.07329083750259 	0.000340054814900546 	0
1 	2.89718677854204 	6.93889390390723e-18 	1.06524367907006 	0.000234129235282476 	0
1 	2.90596184331818 	3.46944695195361e-18 	1.05666756752148 	0.000130252924089478 	0
1 	2.91442681151997 	0 	1.0475295913456 	2.90016043772409e-05 	0
1 	2.922592641458 	-3.46944695195361e-18 	1.03778511383051 	-6.89232499635967e-05 	0
1 	2.93046990419395 	3.46944695195361e-18 	1.0273742530843 	-0.000162692251198768 	0
1 	2.93806879722526 	1.04083408558608e-17 	1.01621756486726 	-0.00025134790096927 	0
1 	2.94539915768638 	6.93889390390723e-18 	1.00421062715165 	-0.000333807423089025 	0
1 	2.95247047508335 	0 	0.991217098810094 	-0.000408869139411512 	0
1 	2.9592919035784 	0 	0.977059607998246 	-0.000475223238150303 	0
1 	2.96587227384055 	3.46944695195361e-18 	0.961507539074031 	-0.000531472059003643 	0
1 	2.97222010447726 	0 	0.944260318697753 	-0.000576207014806885 	0
1 	2.97834361306218 	-3.46944695195361e-18 	0.924923864488026 	-0.00060821019444383 	0
1 	2.98425072677325 	-3.46944695195361e-18 	0.902962245981502 	-0.000625628694766077 	0
1 	2.98994909265477 	-3.46944695195361e-18 	0.877520465989249 	-0.000625581172512973 	2.11666559633902e-15
1 	2.99544608751689 	-3.46944695195361e-18 	0.847353302609424 	-0.000604712025646257 	1.79235426895096e-15
1 	3.00074882748522 	-3.46944695195361e-18 	0.810879594556156 	-0.000560862199891523 	-2.76518739582107e-15
1 	3.00586417721304 	-6.93889390390723e-18 	0.765947311469291 	-0.000495477181232572 	-2.4408760684364e-15
1 	3.01079875876789 	-1.04083408558608e-17 	0.709444117736949 	-0.00041268071667687 	-8.72509721534072e-15
1 	3.01555896020418 	-6.93889390390723e-18 	0.63668554148644 	-0.000318653676439049 	-7.61709761060993e-14
1 	3.02015094383281 	-6.93889390390723e-18 	0.540699811575123 	-0.000221801108650998 	1.01711847988732e-13
1 	3.02458065419861 	-1.04083408558608e-17 	0.412623811207718 	-0.000128708066415624 	1.10470243367046e-14
0.999999999999999 	3.02885382577582 	-1.04083408558608e-17 	0.254261150715057 	-5.22569790494644e-05 	0
0.999999999999999 	3.03297599039165 	-8.67361737988404e-18 	0.085235395545372 	-7.26822134752946e-06 	0
