3 	0.00273779077457371 	2.42861286636753e-17 	0.212885509965826 	1.24190982108704e-05 	1539.48594129354 	3.68229257247351e-06 	5.6005039127469e-38
3 	0.00831366561724386 	2.08166817117217e-17 	0.212888285835222 	0.000113432762314325 	638.136893922491 	6.86482567501312e-05 	0
3 	0.0140938010840032 	2.08166817117217e-17 	0.212893287649257 	0.000508714326860042 	145.084227984171 	0.000408638439150477 	0
3 	0.0200856798396764 	2.77555756156289e-17 	0.212892776086517 	0.00144006374429623 	59.9516588503402 	0.00111271629467723 	0
3 	0.0262970586610137 	3.46944695195361e-17 	0.212887978566467 	0.00292000470732889 	32.328188580622 	0.00161465177604611 	0
3 	0.0327359784782123 	3.81639164714898e-17 	0.21288166115189 	0.00468148986690698 	20.1280271237518 	0.00137019651675274 	0
3 	0.0394107747842903 	4.16333634234434e-17 	0.212875301714532 	0.00645245172713269 	13.9079580988927 	0.000757942700796487 	0
3 	0.0463300884257853 	4.5102810375397e-17 	0.212868125809611 	0.00811308790683788 	10.441920826015 	0.00030295324474469 	0
3 	0.0535028767887471 	5.55111512312578e-17 	0.212858382376726 	0.00964472808752853 	8.34161788626912 	9.44029744802319e-05 	0
3 	0.0609384253945081 	6.24500451351651e-17 	0.212844723034402 	0.0110628322731757 	6.96752033572693 	4.22326743550247e-05 	0
3 	0.0686463599202388 	7.63278329429795e-17 	0.212826406659189 	0.0123886994559171 	6.01010437598459 	7.27387657275357e-05 	0
3 	0.0766366586598531 	9.0205620750794e-17 	0.212803015798152 	0.0136412806811548 	5.3093097341397 	0.000146893320301844 	0
3 	0.0849196654413917 	9.36750677027476e-17 	0.212774268692664 	0.0148358263690418 	4.7763930766098 	0.000245537663973344 	0
3 	0.0935061030176072 	9.71445146547012e-17 	0.212739957910111 	0.015984334259845 	4.35893093581698 	0.000359247467467652 	0
3 	0.102407086947087 	9.71445146547012e-17 	0.212699929758727 	0.0170962777447169 	4.02422235551259 	0.000483372208747712 	0
3 	0.111634139983881 	9.36750677027476e-17 	0.212654072069607 	0.0181792386463534 	3.75091208487663 	0.000615703240867011 	0
3 	0.121199206994262 	8.67361737988404e-17 	0.212602306812686 	0.0192393900477845 	3.52450750971326 	0.000755350995798072 	0
3 	0.131114670419936 	7.28583859910259e-17 	0.212544586808663 	0.0202818514179338 	3.33485052413412 	0.000902183928078156 	0
3 	0.14139336630771 	6.24500451351651e-17 	0.212480895083338 	0.0213109484684073 	3.17462504459442 	0.00105653853585408 	0
3 	0.152048600926373 	6.59194920871187e-17 	0.212411245874681 	0.0223304048890981 	3.03844013455991 	0.00121906628490357 	0
3 	0.163094167992309 	6.59194920871187e-17 	0.212335686881462 	0.0233434860158528 	2.9222469440495 	0.00139065311939661 	0
3 	0.174544366526125 	6.59194920871187e-17 	0.212254302628139 	0.0243531087032238 	2.82295666568316 	0.00157237958538329 	0
3 	0.186414019363428 	6.93889390390723e-17 	0.212167218959899 	0.0253619275198385 	2.73818367070291 	0.00176550522211952 	0
3 	0.198718492343699 	6.93889390390723e-17 	0.212074608786612 	0.0263724045391971 	2.666068998475 	0.0019714687941995 	0
3 	0.211473714202121 	7.28583859910259e-17 	0.211976699294419 	0.0273868681034708 	2.60515688913795 	0.00219190017546652 	0
3 	0.224696197190089 	7.97972798949331e-17 	0.211873780944538 	0.0284075647104101 	2.5543072806635 	0.00242864213310134 	0
3 	0.238403058451125 	8.32667268468867e-17 	0.211766218683289 	0.0294367074180909 	2.51263335654937 	0.00268378178109647 	0
3 	0.252612042179841 	8.32667268468867e-17 	0.211654465959359 	0.0304765237646013 	2.47945705689365 	0.00295969257635131 	0
3 	0.267341542592663 	8.32667268468867e-17 	0.211539082403084 	0.0315293059965235 	2.45427791275985 	0.00325908874990752 	0
3 	0.282610627740032 	7.28583859910259e-17 	0.211420756249804 	0.0325974663383349 	2.43675218034297 	0.00358509511901462 	0
3 	0.298439064190913 	6.59194920871187e-17 	0.211300332800649 	0.0336836002874714 	2.42668036140681 	0.003941336344334 	0
3 	0.314847342621581 	6.93889390390723e-17 	0.211178850564613 	0.034790561412206 	2.42400199614723 	0.00433205087381588 	0
3 	0.331856704341784 	6.24500451351651e-17 	0.211057587252239 	0.0359215517261159 	2.42879722554831 	0.00476223617044212 	0
3 	0.349489168792655 	5.55111512312578e-17 	0.210938118332053 	0.0370802324559438 	2.44129512143093 	0.00523783341848877 	0
3 	0.367767562051934 	5.55111512312578e-17 	0.210822390660891 	0.0382708608801931 	2.46188922014474 	0.00576596152386276 	0
3 	0.386715546383437 	5.89805981832114e-17 	0.21071281243202 	0.0394984605230462 	2.49116109325463 	0.00635520997877889 	0
3 	0.406357650868995 	5.55111512312578e-17 	0.210612363705212 	0.0407690366251842 	2.52991314456158 	0.00701599671666591 	0
3 	0.426719303162537 	5.20417042793042e-17 	0.210524737736224 	0.0420898460125461 	2.57921210279536 	0.00776099594622873 	0
3 	0.447826862407423 	6.24500451351651e-17 	0.210454511655693 	0.0434697231185551 	2.64044479929473 	0.00860563041540989 	0
3 	0.469707653359621 	7.28583859910259e-17 	0.210407317104263 	0.0449194713509398 	2.71538759967048 	0.00956860928968299 	0
3 	0.492390001760931 	6.93889390390723e-17 	0.210389989790369 	0.0464522344504048 	2.8062900282632 	0.0106724232243975 	0
3 	0.515903271008025 	6.59194920871187e-17 	0.21041090413293 	0.0480838147682197 	2.91597104168783 	0.0119440978167675 	0
3 	0.540277900164784 	7.63278329429795e-17 	0.210481155457545 	0.0498294263945907 	3.04792186032439 	0.0134203600451539 	0
3 	0.565545443367138 	7.63278329429795e-17 	0.210615075145341 	0.051711223164005 	3.20636373943525 	0.0151849469962197 	0
3 	0.59173861067142 	6.93889390390723e-17 	0.210815111848248 	0.0537551906614905 	3.39615501241411 	0.0176385376623214 	0
3 	0.618891310399116 	7.28583859910259e-17 	0.211071820616389 	0.056017839748455 	3.62419405119175 	0.0206936879678404 	0
3 	0.647038693032828 	7.39425881635114e-17 	0.211402963194458 	0.0585574025485406 	3.89134531933354 	0.0247731528861195 	0
3 	0.676217196720269 	7.65446733774766e-17 	0.211863310245239 	0.0613066263643359 	4.18068422824224 	0.0295329005748146 	0
3 	0.706464594445212 	6.67868538251071e-17 	0.212451514231132 	0.0640890532966508 	4.46706602172376 	0.0344651766368188 	0
3 	0.737820042926439 	4.90059381963448e-17 	0.213142020300412 	0.06666480401662 	4.72995780390449 	0.0390136088650379 	0
3 	0.77032413330801 	4.38017677684144e-17 	0.213891023454916 	0.0687707409079863 	4.95520161082727 	0.0426895857458906 	0
3 	0.804018943706462 	4.5102810375397e-17 	0.214652543415983 	0.0701709013094676 	5.1351200091041 	0.0452207836810002 	0
3 	0.838948093682962 	4.68375338513738e-17 	0.21538947127293 	0.0706910684470904 	5.26749099094743 	0.0466251037195063 	0
3 	0.875156800710941 	4.68375338513738e-17 	0.216092170076756 	0.0702136967715824 	5.35207533273426 	0.0471574151658078 	0
3 	0.912691938712297 	4.68375338513738e-17 	0.216852528775958 	0.0686324558614503 	5.38521520888746 	0.0470610681160804 	0
3 	0.951602098737957 	4.68375338513738e-17 	0.217920975094122 	0.0657953069558538 	5.35325314159863 	0.0458416160590284 	0
3 	0.991937651871334 	4.85722573273506e-17 	0.219312232967048 	0.0615553898250258 	5.22743019779239 	0.04201717559793 	0
3 	1.03375081443614 	5.3776427755281e-17 	0.220790865704717 	0.0560366059369267 	4.97204521640342 	0.0356086577942643 	0
3 	1.07709571559294 	6.07153216591882e-17 	0.22224836903747 	0.0497982288295763 	4.57295988306216 	0.027246771654214 	0
3 	1.12202846741196 	5.89805981832114e-17 	0.223642556326497 	0.0436953002965531 	4.05830571338167 	0.0187972046659118 	0
3 	1.16860723751287 	5.20417042793042e-17 	0.224953026630837 	0.0384873663373856 	3.49687678506008 	0.0119372661030962 	0
3 	1.2168923243656 	5.20417042793042e-17 	0.226186301013514 	0.0345047444777824 	2.96879213720719 	0.0072568672202687 	0
3 	1.26694623534962 	5.20417042793042e-17 	0.227357780188625 	0.031612487913867 	2.51359915907686 	0.0044332220846032 	0
3 	1.30664900570261 	5.20417042793042e-17 	0.228225064739339 	0.0298904368963524 	2.21475014400601 	0.00310961056693972 	0
3 	1.33306000339529 	5.55111512312578e-17 	0.228773548070232 	0.0289461266746337 	2.04794248002459 	0.00254507802314289 	0
3 	1.37262267311115 	6.24500451351651e-17 	0.229472445838849 	0.0277962439938919 	1.86784330868498 	0.00197767169409842 	0
3 	1.41220272459525 	6.93889390390723e-17 	0.23021959419508 	0.0266446640208183 	1.72458777973452 	0.00153513152488119 	0
3 	1.43617694926587 	6.93889390390723e-17 	0.230709505583611 	0.0258858383929967 	1.65626632758554 	0.00132375023604837 	0
3 	1.45930396367274 	6.59194920871187e-17 	0.231090353461508 	0.0252407378878474 	1.61054138125761 	0.00117926828354298 	0
3 	1.48161370685419 	6.24500451351651e-17 	0.23144626819909 	0.0246106343632256 	1.57454471689064 	0.00105234180763284 	0
3 	1.50313505985141 	6.24500451351651e-17 	0.231775582138614 	0.02399071850918 	1.54616423216373 	0.000939096559187992 	0
3 	1.52389588309639 	6.24500451351651e-17 	0.232078418599999 	0.0233786971692837 	1.52404630395642 	0.000836001251950712 	0
3 	1.54392305247858 	6.24500451351651e-17 	0.232356587954759 	0.0227737868765362 	1.50732365612062 	0.000741017086842235 	0
3 	1.56324249413704 	6.93889390390723e-17 	0.232611880279724 	0.022176080296357 	1.49544908340205 	0.000652942751190296 	0
3 	1.58187921802306 	7.63278329429795e-17 	0.232845866761621 	0.0215861476234088 	1.48809212941043 	0.000571061778981403 	0
3 	1.5998573502768 	7.28583859910259e-17 	0.233060004259831 	0.0210047886543804 	1.48507455689998 	0.00049495844886644 	0
3 	1.61720016445966 	6.93889390390723e-17 	0.233255669428452 	0.020432882234353 	1.48633034708987 	0.00042441127009831 	0
3 	1.63393011168312 	6.93889390390723e-17 	0.233434161999314 	0.0198712990161239 	1.4918815794889 	0.000359330493308456 	0
3 	1.65006884967274 	6.93889390390723e-17 	0.233596708262521 	0.0193208554602705 	1.50182486961804 	0.000299724650726469 	0
3 	1.66563727080512 	6.93889390390723e-17 	0.233744466043961 	0.0187822946034678 	1.51632508038015 	0.000245686179853911 	0
3 	1.68065552915415 	7.28583859910259e-17 	0.233878529246113 	0.0182562840780636 	1.53561431031935 	0.000197389780163041 	0
3 	1.69514306658136 	7.28583859910259e-17 	0.233999931689055 	0.0177434251625221 	1.55999499869798 	0.000155099920826408 	0
3 	1.70911863790442 	6.93889390390723e-17 	0.234109650432661 	0.0172442688611903 	1.58984654938542 	0.000119185747203649 	0
3 	1.72260033517611 	6.59194920871187e-17 	0.234208608693834 	0.0167593365164576 	1.62563527057558 	9.01428509514046e-05 	0
3 	1.73560561110537 	6.24500451351651e-17 	0.234297678421876 	0.0162891434806267 	1.66792772240615 	6.86222592803432e-05 	0
3 	1.74815130165068 	6.24500451351651e-17 	0.234377682580824 	0.0158342250697648 	1.7174078014321 	5.54677215165394e-05 	0
3 	1.76025364781503 	6.59194920871187e-17 	0.234449397175732 	0.0153951644832868 	1.77489809440533 	5.17630126231576e-05 	0
3 	1.77192831667065 	6.93889390390723e-17 	0.234513553045033 	0.0149726226575365 	1.84138621565689 	5.88915777685167e-05 	0
3 	1.78319042164084 	6.93889390390723e-17 	0.234570837425752 	0.0145673701548851 	1.91805700189802 	7.86114126031952e-05 	0
3 	1.79405454206499 	6.93889390390723e-17 	0.234621895283751 	0.0141803211703504 	2.00633156017186 	0.000113148562185085 	0
3 	1.80453474207227 	6.93889390390723e-17 	0.234667330388018 	0.0138125695369508 	2.10791421398512 	0.000165312905178769 	0
3 	1.81464458878829 	7.28583859910259e-17 	0.234707706097193 	0.013465426172101 	2.22484830652969 	0.000238639738225129 	0
3 	1.82439716989841 	7.63278329429795e-17 	0.234743545819784 	0.0131404566446562 	2.35958149746032 	0.000337559704120749 	0
3 	1.83380511059041 	7.63278329429795e-17 	0.23477533310938 	0.0128395163467092 	2.51504048198374 	0.000467597236498125 	0
3 	1.84288058989839 	7.63278329429795e-17 	0.234803511366493 	0.0125647790133739 	2.69471376836237 	0.000635593137187308 	0
3 	1.8516353564691 	7.28583859910259e-17 	0.234828483144238 	0.0123187519789505 	2.90273904080792 	0.000849939255200919 	0
3 	1.86008074377114 	6.59194920871187e-17 	0.234850609105276 	0.0121042686560392 	3.14398851105808 	0.00112080175788134 	0
3 	1.8682276847667 	6.24500451351651e-17 	0.234870206770218 	0.011924445625446 	3.42414150542553 	0.00146029419888189 	0
3 	1.87608672606481 	6.24500451351651e-17 	0.234887549329206 	0.0117825892521334 	3.7497287643532 	0.00188254424280544 	0
3 	1.88366804157438 	6.24500451351651e-17 	0.234902864804424 	0.0116820363511166 	4.12812876316385 	0.00240358310832764 	0
3 	1.89098144567491 	6.24500451351651e-17 	0.234916335543896 	0.0116259171641496 	4.56749513579789 	0.00304098271909559 	0
3 	1.89803640592159 	6.24500451351651e-17 	0.234928098720558 	0.0116168389201564 	5.07659945344485 	0.00381318310744769 	0
3 	1.90484205530156 	6.24500451351651e-17 	0.2349382546857 	0.0116565056408184 	5.66458891910318 	0.00473850071755881 	0
3 	1.91140720405699 	6.24500451351651e-17 	0.234946893446944 	0.0117453130454934 	6.34068592481506 	0.00583388391632566 	0
3 	1.91774035109036 	6.59194920871187e-17 	0.234954084427816 	0.0118819809016981 	7.11389233467504 	0.00711366023964667 	0
3 	1.92384969496671 	6.93889390390723e-17 	0.234959597764336 	0.0120632975291906 	7.99279055384929 	0.00860920576428724 	0
3 	1.92974314452706 	6.93889390390723e-17 	0.234962822052936 	0.0122839898371797 	8.98705901825211 	0.0103764968750907 	0
3 	1.93542832912681 	6.24500451351651e-17 	0.23496363341803 	0.0125368058147672 	10.1110246858541 	0.0124401400163229 	0
3 	1.9409126085123 	4.85722573273506e-17 	0.234962617924165 	0.0128117428518227 	11.3795932543331 	0.0147969007567846 	0
3 	1.94620308234836 	4.16333634234434e-17 	0.234960570235063 	0.0130932091278881 	12.7943987582287 	0.0174119187231158 	0
3 	1.95130659940914 	4.16333634234434e-17 	0.234958086990308 	0.0133596732491419 	14.3416756501312 	0.0201730178482983 	0
3 	1.95622976644425 	4.16333634234434e-17 	0.234955217039534 	0.0135885178386367 	16.0089149189428 	0.0229886332622565 	0
3 	1.96097895673142 	4.16333634234434e-17 	0.234951747190515 	0.0137597896675534 	17.7979741027127 	0.0258195296628003 	0
3 	1.96556031832711 	4.16333634234434e-17 	0.23494753997339 	0.0138567926340192 	19.7228501830864 	0.0286560428977054 	0
3 	1.96997978202541 	4.16333634234434e-17 	0.234942596085031 	0.0138652454156894 	21.8087517453853 	0.031500902356472 	0
3 	1.97424306903576 	3.81639164714898e-17 	0.234937014543123 	0.0137719261985117 	24.0988184041435 	0.0343577456280922 	0
3 	1.9783556983893 	3.46944695195361e-17 	0.234930946058416 	0.0135630728249097 	26.6588463624582 	0.0372216095651016 	0
3 	1.98232299408358 	3.46944695195361e-17 	0.234924557673058 	0.0132228610124937 	29.58121720984 	0.0400680378813264 	0
3 	1.9861500919747 	3.46944695195361e-17 	0.234918011788258 	0.0127320362350041 	32.9926755980882 	0.0428280839051372 	0
3 	1.9898419464259 	3.81639164714898e-17 	0.234911468629869 	0.0120669810321238 	37.0689945267295 	0.0453471868036531 	0
3 	1.99340333672127 	4.16333634234434e-17 	0.234905095778646 	0.0112001794547677 	42.0622072224292 	0.0473525371115132 	0
3 	1.99683887325274 	3.81639164714898e-17 	0.234899047351105 	0.010102813156122 	48.3565654714899 	0.0484030833734063 	0
3 	2.00015300348845 	3.46944695195361e-17 	0.234893454822813 	0.00875001676947282 	56.5918445581991 	0.0477410494118094 	0
3 	2.00335001773022 	3.12250225675825e-17 	0.234888464070923 	0.00713333108143515 	67.9432765421294 	0.0438813594797773 	0
3 	2.00643405466757 	2.42861286636753e-17 	0.234884227711939 	0.00530584196367179 	84.8157317045306 	0.0352690684339656 	0
3 	2.00940910673543 	2.08166817117217e-17 	0.234880870779824 	0.00345514870775593 	112.859755120191 	0.0229591502929431 	0
3 	2.01227902528252 	2.42861286636753e-17 	0.234878377711593 	0.00188017077215567 	167.439231308797 	0.0110873608092717 	0
3 	2.01504752555717 	2.77555756156289e-17 	0.234876500167657 	0.000813481465515373 	297.70007580538 	0.0036370291538103 	0
3 	2.01771819151684 	3.12250225675825e-17 	0.234874880319749 	0.000261614577160308 	716.427420442124 	0.000737709794939529 	0
3 	2.02029448046774 	3.46944695195361e-17 	0.234873305985139 	5.52991086114173e-05 	3137.96151791102 	7.99081864107095e-05 	0
3 	2.02277972754048 	3.81639164714898e-17 	0.234872119298785 	5.86115542431503e-06 	7841.67793355996 	3.23506185313957e-06 	5.31440591944595e-38
