6 	0.00391112967796265 	1.73472347597681e-17 	0.253724998561848 	3.99636652673628e-05 	760.073739121923 	1.11991433292008e-06 	5.41416802808946e-38
6 	0.0118766651674913 	2.42861286636753e-17 	0.253726432598466 	0.000355022589804114 	304.406266431119 	6.49585960760024e-06 	0
6 	0.020134001548576 	2.42861286636753e-17 	0.253719490954389 	0.00145000378807368 	67.756009062321 	1.09090631840677e-05 	0
6 	0.028693828342395 	2.08166817117217e-17 	0.253706270664578 	0.00352473842405813 	26.7840675452247 	1.88637124161997e-05 	0
6 	0.0375672266585908 	2.42861286636753e-17 	0.253680295392063 	0.00599223789085834 	14.3065906265539 	7.90325070526467e-05 	0
6 	0.0467656835403032 	2.42861286636753e-17 	0.253638748580568 	0.008269162006314 	9.34004772808058 	0.000182652219296411 	0
6 	0.0563011068347008 	2.42861286636753e-17 	0.253584009404558 	0.0102346755656646 	6.91556166833379 	0.000289572574681778 	0
6 	0.0661858406082648 	2.77555756156289e-17 	0.25351975766302 	0.0119577624665163 	5.52450747055867 	0.000389895852167412 	0
6 	0.0764326811267815 	2.77555756156289e-17 	0.253448452131899 	0.0135107148906719 	4.63157234731669 	0.000487682481356508 	0
6 	0.0870548934207258 	3.12250225675825e-17 	0.253371515650616 	0.0149436547558336 	4.01290620032778 	0.000586506874577536 	0
6 	0.0980662284574839 	3.81639164714898e-17 	0.253289976674954 	0.0162902485501829 	3.56076533142497 	0.00068861077671868 	0
6 	0.109480940942647 	4.16333634234434e-17 	0.253204712213 	0.0175737902350082 	3.21735161968923 	0.000795519195618417 	0
6 	0.121313807773417 	3.98986399474666e-17 	0.253116498738372 	0.01881104132422 	2.94898905705128 	0.000908415392730971 	0
6 	0.13358014716801 	3.29597460435593e-17 	0.253026041088485 	0.0200145246049718 	2.73476042189868 	0.00102832824545928 	0
6 	0.146295838495838 	2.77555756156289e-17 	0.252933999097476 	0.0211939160555805 	2.56100036851148 	0.00115622770042464 	0
6 	0.159477342834115 	2.94902990916057e-17 	0.252841004976619 	0.0223569156471357 	2.41841129061315 	0.00129307672273038 	0
6 	0.173141724277517 	3.98986399474666e-17 	0.252747672925902 	0.023509830177536 	2.30045431932421 	0.00143985864410168 	0
6 	0.18730667202848 	5.20417042793042e-17 	0.252654605336166 	0.0246580945353141 	2.20240384167973 	0.00159760833283982 	0
6 	0.201990523296728 	5.3776427755281e-17 	0.252562394008853 	0.0258062147099222 	2.12076641913913 	0.0017674208417609 	0
6 	0.217212287037676 	4.85722573273506e-17 	0.252471617267089 	0.0269580474732383 	2.05291009989893 	0.00195047023002169 	0
6 	0.232991668560441 	3.98986399474666e-17 	0.252382837141632 	0.0281169439160964 	1.99682068207573 	0.00214801656282791 	0
6 	0.249349095037321 	3.46944695195361e-17 	0.252296594347513 	0.0292858384898615 	1.95093670993139 	0.0023614132138265 	0
6 	0.266305741947753 	3.03576608295941e-17 	0.252213401058548 	0.0304672968705189 	1.91403487470273 	0.0025921124775116 	0
6 	0.283883560490998 	2.08166817117217e-17 	0.252133731636592 	0.031663540435834 	1.88514854678349 	0.00284166906263385 	0
6 	0.30210530600303 	6.93889390390723e-18 	0.252058011224818 	0.0328764508779599 	1.86350857444868 	0.00311174048442255 	0
6 	0.320994567414413 	7.37257477290143e-18 	0.251986601981633 	0.0341075569179443 	1.84849931290659 	0.00340408329207254 	0
6 	0.340575797787321 	1.77809156287623e-17 	0.251919786676721 	0.0353580039657848 	1.83962520793734 	0.00372054367297661 	0
6 	0.360874345971201 	1.43114686768087e-17 	0.251857749307503 	0.0366285067667574 	1.83648474881628 	0.00406304051653491 	0
6 	0.38191648941809 	1.30104260698261e-18 	0.251800522349017 	0.0379192870549985 	1.8387525309639 	0.0044335584378094 	0
6 	0.403729468200045 	-6.93889390390723e-18 	0.251746649500745 	0.039230090698853 	1.8462843346662 	0.00483504127388287 	0
6 	0.426341520272733 	-1.38777878078145e-17 	0.251697155279021 	0.040559699972389 	1.85871004304233 	0.00526855923163443 	0
6 	0.449781918030828 	-2.08166817117217e-17 	0.251651528336527 	0.0419061842935589 	1.87582620229258 	0.00573588767903871 	0
6 	0.474081006202548 	-2.77555756156289e-17 	0.251608989103596 	0.0432666383192998 	1.89744295220827 	0.00623855145068116 	0
6 	0.499270241132363 	-3.81639164714898e-17 	0.251568442913431 	0.0446370116601027 	1.92337172217178 	0.00677767989119941 	0
6 	0.525382231502763 	-4.16333634234434e-17 	0.251528437722285 	0.0460119194671664 	1.95341294958914 	0.00735381673976837 	0
6 	0.552450780547767 	-4.16333634234434e-17 	0.25148704207722 	0.0473844385472886 	1.98734371324304 	0.00796668962107704 	0
6 	0.58051092981285 	-3.46944695195361e-17 	0.251441427393678 	0.0487458971293409 	2.02490541029325 	0.00861505128493952 	0
6 	0.609599004517911 	-2.77555756156289e-17 	0.251387978098523 	0.0500856663737907 	2.0657917561111 	0.00930447327327057 	0
6 	0.639752660582033 	-2.77555756156289e-17 	0.251326832168621 	0.0513916116137775 	2.10966074674809 	0.0100936265766743 	0
6 	0.671010933370887 	-3.12250225675825e-17 	0.251264419004534 	0.0526540077265218 	2.156254718457 	0.0110502009210574 	0
6 	0.703414288229901 	-3.81639164714898e-17 	0.251187930722445 	0.0538642673000412 	2.20514135964266 	0.0121189944216614 	0
6 	0.737004672868606 	-3.81639164714898e-17 	0.251066014398776 	0.0549925319221769 	2.25441296204734 	0.013249880901312 	0
6 	0.771255893458755 	-3.81639164714898e-17 	0.250880620082539 	0.0559613162591529 	2.29954378697307 	0.0142671841137725 	0
6 	0.788979504711946 	-4.16333634234434e-17 	0.250767380782521 	0.056407358502304 	2.32101238034103 	0.0147377686456579 	0
6 	0.807922061953054 	-4.5102810375397e-17 	0.250613925630404 	0.0567466250424399 	2.33836789811656 	0.0151038440166325 	0
6 	0.845340872387743 	-4.5102810375397e-17 	0.25027207454777 	0.0572444346818682 	2.36503499320594 	0.0156788341109888 	0
6 	0.88413044342731 	-3.46944695195361e-17 	0.249843515009835 	0.0574159592892268 	2.37706403671907 	0.0160100240403781 	0
6 	0.924340990046898 	-3.64291929955129e-17 	0.249318796036737 	0.0572296421040173 	2.37260803149371 	0.0161148099844296 	0
6 	0.966024566743242 	-5.03069808033274e-17 	0.248685399681253 	0.0566674853708488 	2.35079557156579 	0.0159985048406449 	0
6 	1.00923513492173 	-6.07153216591882e-17 	0.247928467755964 	0.0557238536872685 	2.31155929184174 	0.015654289295596 	0
6 	1.05402863275206 	-6.24500451351651e-17 	0.247032024068076 	0.054407396836194 	2.25553369619911 	0.0150755075717024 	0
6 	1.10046304758287 	-6.11490025281825e-17 	0.245980499072919 	0.0527442597304098 	2.1839993737523 	0.0142696115457777 	0
6 	1.14859849100923 	-5.91974386177085e-17 	0.24476023890761 	0.0507798949713501 	2.09883734997639 	0.0132664676396379 	0
6 	1.19849727668995 	-5.87637577487143e-17 	0.243353746948726 	0.0485741918309311 	2.00227537017075 	0.0121165907395721 	0
6 	1.25022400101563 	-6.24500451351651e-17 	0.241747396014276 	0.0462055578031951 	1.89712303566786 	0.0108897839237955 	0
6 	1.30384562673186 	-6.24500451351651e-17 	0.23995354706149 	0.0437604660143547 	1.78682839041648 	0.00965467748251706 	0
6 	1.35943156962566 	-5.89805981832114e-17 	0.237978466825746 	0.0413284130125367 	1.67750592940889 	0.00846616072077605 	0
6 	1.41705378838763 	-5.55111512312578e-17 	0.23583450272166 	0.0389740723409474 	1.57285168324949 	0.00736322933100098 	0
6 	1.47678687776592 	-5.20417042793042e-17 	0.233538125522736 	0.0367249916984579 	1.47318647142899 	0.00636739986969802 	0
6 	1.533710603315 	-5.55111512312578e-17 	0.231306100898078 	0.034750123654493 	1.38502843297126 	0.00554924266370158 	0
6 	1.56522813627809 	-5.55111512312578e-17 	0.230059481907686 	0.033703977587541 	1.33790863297532 	0.00513380831233105 	0
6 	1.60289781058851 	-5.20417042793042e-17 	0.228569712549119 	0.0325299106580598 	1.28382602925353 	0.00469864845209537 	0
6 	1.66943891073267 	-5.3776427755281e-17 	0.225938937143728 	0.030547744525966 	1.19122089085053 	0.00400446136541677 	0
6 	1.73841760623657 	-5.03069808033274e-17 	0.223235683555078 	0.0286295705658196 	1.10118067687059 	0.00338968869885498 	0
6 	1.8099231933566 	-5.29090660172926e-17 	0.220483714402307 	0.0267722478442649 	1.01754478213329 	0.00284423529424539 	0
6 	1.88404823953249 	-5.18248638448071e-17 	0.217713614799758 	0.0249799530333763 	0.944854548008463 	0.00236712199480894 	0
6 	1.96088870322038 	-4.74880551548651e-17 	0.21497280384605 	0.0232506102589475 	0.884684284852236 	0.00196424274149966 	0
6 	2.02025965173185 	-4.85722573273506e-17 	0.213112067591197 	0.0219647559175714 	0.847342754401364 	0.0016607665356967 	0
6 	2.06006301192217 	-4.5102810375397e-17 	0.211798685477152 	0.0210851510357922 	0.824410672490577 	0.0014772187704769 	0
6 	2.09845978584128 	-4.5102810375397e-17 	0.210609678948027 	0.0202638287775333 	0.80542202032914 	0.00131082437525277 	0
6 	2.13549967996946 	-5.20417042793042e-17 	0.209498280680266 	0.0194805014810262 	0.789570377990676 	0.00115614677276403 	0
6 	2.17123064424048 	-5.89805981832114e-17 	0.208457550961306 	0.0187337004362598 	0.776649029294246 	0.00101336459161103 	0
6 	2.20569893411516 	-6.59194920871187e-17 	0.207484026831874 	0.0180219718259877 	0.766497815452674 	0.00088234213607478 	0
6 	2.23894917046123 	-7.28583859910259e-17 	0.206574015002114 	0.0173438961548202 	0.758997515511997 	0.000762671791658901 	0
6 	2.27102439731726 	-7.97972798949331e-17 	0.205723758027861 	0.0166980690855148 	0.754065713700869 	0.000653788829795041 	0
6 	2.30196613761522 	-8.67361737988404e-17 	0.204929661585917 	0.0160831246676036 	0.75165376148976 	0.000555065604384353 	0
6 	2.33181444693392 	-8.67361737988404e-17 	0.204188305638654 	0.0154977656131525 	0.751744702250145 	0.00046587340323015 	0
6.00000000000001 	2.3606079653529 	-8.32667268468867e-17 	0.203496436298078 	0.0149407791884108 	0.754352089228865 	0.000385620110925987 	0
6.00000000000001 	2.38838396747391 	-7.63278329429795e-17 	0.202850966083424 	0.0144110477455906 	0.759519653729056 	0.000313773321761577 	0
6.00000000000001 	2.41517841067461 	-6.93889390390723e-17 	0.20224897380094 	0.0139075568105307 	0.767321792086994 	0.000249874725611636 	0
6.00000000000001 	2.44102598165722 	-6.93889390390723e-17 	0.201687702179801 	0.0134294018832243 	0.77786484923416 	0.000193549586708082 	0
6.00000000000001 	2.46596014135208 	-6.93889390390723e-17 	0.201164553966147 	0.0129757947026928 	0.791289189215425 	0.000144513792764914 	0
6.00000000000001 	2.49001316823444 	-6.93889390390723e-17 	0.200677086889482 	0.0125460694764567 	0.807772056262705 	0.000102580076732391 	0
6.00000000000001 	2.51321620011054 	-6.93889390390723e-17 	0.200223007551682 	0.0121396884109538 	0.827531241930075 	6.76644845676434e-05 	0
6.00000000000001 	2.535599274427 	-6.93889390390723e-17 	0.199800165154363 	0.0117562413623083 	0.850829594135673 	3.97936311724582e-05 	0
6.00000000000001 	2.55719136715571 	-6.93889390390723e-17 	0.199406545130143 	0.0113954491674446 	0.877980408392953 	1.91131462882989e-05 	0
6.00000000000001 	2.57802043030466 	-6.93889390390723e-17 	0.199040262206127 	0.0110571679526647 	0.909353720093504 	5.89751366130058e-06 	0
6.00000000000001 	2.59811342810315 	-7.28583859910259e-17 	0.198699553289537 	0.0107413917371155 	0.945383499480199 	5.61403709742208e-07 	0
6.00000000000001 	2.61749637190832 	-7.63278329429795e-17 	0.198382770407549 	0.010448252740652 	0.986575716214754 	3.67234289111363e-06 	0
6.00000000000001 	2.63619435387806 	-7.63278329429795e-17 	0.198088373747039 	0.0101780188778875 	1.03351717838128 	1.59643390349542e-05 	0
6.00000000000001 	2.65423157945406 	-8.32667268468867e-17 	0.197814924824488 	0.00993108758299542 	1.08688496020726 	3.83518292913632e-05 	0
6.00000000000001 	2.67163139869691 	-9.0205620750794e-17 	0.197561079831582 	0.009707974709895 	1.14745611290902 	7.19430084833124e-05 	0
6.00000000000001 	2.68841633651388 	-9.0205620750794e-17 	0.197325583213969 	0.00950929682500338 	1.21611720924519 	0.000118051267831306 	0
6.00000000000001 	2.70460812181851 	-9.0205620750794e-17 	0.197107261469315 	0.00933574505721573 	1.29387311797485 	0.000178203144934415 	0
6.00000000000001 	2.72022771565972 	-9.0205620750794e-17 	0.196905017163277 	0.00918805043996355 	1.3818542388853 	0.000254140904556575 	0
6.00000000000001 	2.73529533835695 	-9.0205620750794e-17 	0.196717823249571 	0.00906693946064111 	1.48132128951812 	0.000347817711748713 	0
6.00000000000001 	2.74983049567626 	-9.0205620750794e-17 	0.196544717752669 	0.00897307897714915 	1.59366669902878 	0.000461383460960009 	0
6.00000000000001 	2.76385200408157 	-9.0205620750794e-17 	0.196384798849833 	0.00890701085485883 	1.72041178597692 	0.000597159760557147 	0
6.00000000000001 	2.77737801509344 	-8.32667268468867e-17 	0.19623722038352 	0.0088690781103949 	1.86319924098527 	0.000757603370953106 	0
6.00000000000001 	2.79042603878708 	-7.63278329429795e-17 	0.196101187826101 	0.00885934591507104 	2.0237810614501 	0.000945258531205108 	0
6.00000000000001 	2.80301296646003 	-6.59194920871187e-17 	0.19597595470352 	0.00887752235820841 	2.20400301855241 	0.00116269998381308 	0
6.00000000000001 	2.81515509249873 	-5.55111512312578e-17 	0.195860819482043 	0.00892288510152851 	2.40578794591941 	0.00141247000536089 	0
6.00000000000001 	2.82686813547238 	-5.55111512312578e-17 	0.1957551229116 	0.00899422049388195 	2.63112153729031 	0.00169701421463533 	0
6.00000000000001 	2.83816725848143 	-5.20417042793042e-17 	0.195658245796633 	0.00908978139696593 	2.8820457872309 	0.00201862222468045 	0
6.00000000000001 	2.84906708878692 	-5.20417042793042e-17 	0.195569607089996 	0.00920726877217732 	3.1606665334126 	0.00237938023930745 	0
6.00000000000001 	2.85958173674617 	-4.85722573273506e-17 	0.195488662029808 	0.00934383998928742 	3.46918262744803 	0.00278114347698671 	0
6.00000000000001 	2.86972481407933 	-3.46944695195361e-17 	0.195414900421636 	0.00949614407883265 	3.80994504811501 	0.00322553686411604 	0
6 	2.87950945149043 	-2.77555756156289e-17 	0.195347848094226 	0.00966038126556249 	4.18555491149276 	0.00371436826016052 	0
6 	2.88894831566567 	-2.77555756156289e-17 	0.195287074950611 	0.00983237961491961 	4.59903894070881 	0.00425714429119256 	0
6 	2.89805362567107 	-2.77555756156289e-17 	0.195232172579999 	0.0100076330225779 	5.05466465418218 	0.00487931081808348 	0
6 	2.90683716877067 	-2.77555756156289e-17 	0.195182714282403 	0.0101810586376383 	5.55962016232344 	0.00556151622615199 	0
6 	2.9153103156857 	-2.77555756156289e-17 	0.195138257855693 	0.0103464539245758 	6.12032458699864 	0.00632321600679979 	0
6 	2.92348403531449 	-2.77555756156289e-17 	0.19509842341969 	0.0104944592876694 	6.73899020829933 	0.00712998305431691 	0
6 	2.9313689089323 	-2.77555756156289e-17 	0.195062927628199 	0.0106152804921422 	7.41779556275415 	0.007962850061007 	0
6.00000000000001 	2.93897514388925 	-3.12250225675825e-17 	0.195031550033504 	0.0107001420167979 	8.16220208338223 	0.00881735288150849 	0
6.00000000000001 	2.94631258682425 	-3.46944695195361e-17 	0.19500411117887 	0.0107415322339046 	8.98317686291364 	0.00969861676492603 	0
6.00000000000001 	2.95339073641193 	-3.12250225675825e-17 	0.194980464081283 	0.010732767353982 	9.89896828618057 	0.0106181603751687 	0
6 	2.96021875565916 	-2.77555756156289e-17 	0.194960487916025 	0.0106672403885338 	10.9373292935219 	0.0115924967927064 	0
6 	2.96680548376697 	-2.77555756156289e-17 	0.194944078706127 	0.0105374942885532 	12.1385604033257 	0.0126427061853949 	0
6.00000000000001 	2.97315944757337 	-3.12250225675825e-17 	0.194931134661095 	0.0103341014888287 	13.5601087756405 	0.0137936567941477 	0
6.00000000000001 	2.97928887259171 	-4.16333634234434e-17 	0.194921534324702 	0.0100441820318366 	15.2848784762049 	0.0150708561671481 	0
6.00000000000001 	2.98520169365903 	-5.55111512312578e-17 	0.194915106331009 	0.00964939918302023 	17.4347271686704 	0.0164914580414011 	0
6.00000000000001 	2.99090556520807 	-5.89805981832114e-17 	0.19491159305491 	0.00912340595731622 	20.1928228990087 	0.0180430614654664 	0
6.00000000000001 	2.99640787117633 	-5.55111512312578e-17 	0.194910622365283 	0.0084290050199246 	23.8439316522712 	0.0196372502652208 	0
6.00000000000001 	3.00171573456492 	-5.20417042793042e-17 	0.194911727075598 	0.007516460974958 	28.8538493731446 	0.0210313550674168 	0
6.00000000000001 	3.00683602665963 	-5.20417042793042e-17 	0.19491438025237 	0.00632554688074464 	36.0493976317556 	0.0216337126793423 	0
6.00000000000001 	3.01177537592613 	-5.55111512312578e-17 	0.194917807603241 	0.00480147021534885 	47.0907690472625 	0.0196361624828811 	0
6.00000000000001 	3.01654017659085 	-4.85722573273506e-17 	0.194921014050734 	0.00302885440967015 	65.968877393315 	0.0135636778367376 	0
6 	3.02113659691864 	-4.85722573273506e-17 	0.194923408957623 	0.00140770047483265 	105.271875410345 	0.00558704526080966 	0
6 	3.02557058719784 	-5.20417042793042e-17 	0.194925206820194 	0.000424847734876685 	216.55800164027 	0.0010980319736917 	0
6 	3.02984788744324 	-5.20417042793042e-17 	0.194926991873653 	6.88547910141003e-05 	718.79329606116 	8.80076929128506e-05 	0
