6 	0.00391112967796265 	1.73472347597681e-17 	-0.0134941211376438 	-8.04771914468505e-05 	-1.34317670161232e-20
6 	0.0118766651674913 	2.42861286636753e-17 	-0.0353637621778023 	-0.000197276320215764 	-1.04075403344767e-20
6 	0.020134001548576 	2.42861286636753e-17 	-0.0474951585061047 	-0.000407021101637747 	3.52501480252452e-21
6 	0.028693828342395 	2.08166817117217e-17 	-0.050679982380015 	-0.000743456644741884 	6.05479816614193e-21
6 	0.0375672266585908 	2.42861286636753e-17 	-0.0486264949888673 	-0.00112365486149019 	3.34595484680387e-21
6 	0.0467656835403032 	2.42861286636753e-17 	-0.0448434682521838 	-0.00152400592555873 	1.64208854042076e-21
6 	0.0563011068347008 	2.42861286636753e-17 	-0.0407415698833151 	-0.00194842107547323 	3.23501902083741e-21
6 	0.0661858406082648 	2.77555756156289e-17 	-0.0366272644085821 	-0.00239728758597235 	8.08889125100481e-22
6 	0.0764326811267815 	2.77555756156289e-17 	-0.0325322408661463 	-0.00286799155784612 	4.46353607391415e-21
6 	0.0870548934207258 	3.12250225675825e-17 	-0.0284350652019148 	-0.00335875853752476 	4.55195056561998e-21
6 	0.0980662284574839 	3.81639164714898e-17 	-0.0243065780866842 	-0.00386881446477177 	3.93293784322699e-21
6 	0.109480940942647 	4.16333634234434e-17 	-0.0201187590071682 	-0.00439782904787576 	1.29205612249338e-21
6 	0.121313807773417 	3.98986399474666e-17 	-0.0158459053124749 	-0.00494563727300427 	-2.67185318507578e-17
6 	0.13358014716801 	3.29597460435593e-17 	-0.0114641965728602 	-0.00551214256041754 	2.10768261404068e-17
6 	0.146295838495838 	2.77555756156289e-17 	-0.00695101401611568 	-0.00609726973933778 	2.11976688772725e-16
6 	0.159477342834115 	2.94902990916057e-17 	-0.00228431741315395 	-0.00670092997273996 	-1.60636907325869e-16
6 	0.173141724277517 	3.98986399474666e-17 	0.00255787291716415 	-0.00732299075607882 	-3.75685793725109e-17
6 	0.18730667202848 	5.20417042793042e-17 	0.00759788672517117 	-0.00796324478122881 	-4.28545711713548e-22
6 	0.201990523296728 	5.3776427755281e-17 	0.0128587769214733 	-0.00862138580599812 	-2.76629344717602e-21
6 	0.217212287037676 	4.85722573273506e-17 	0.018364658357832 	-0.00929698220209448 	2.83550979505426e-22
6 	0.232991668560441 	3.98986399474666e-17 	0.0241410049630805 	-0.00998944843480247 	-3.76361251305086e-21
6 	0.249349095037321 	3.46944695195361e-17 	0.0302149260453281 	-0.0106980125950503 	3.21617341805374e-21
6 	0.266305741947753 	3.03576608295941e-17 	0.0366154326334018 	-0.0114216800702755 	-8.99239161546649e-24
6 	0.283883560490998 	2.08166817117217e-17 	0.0433736999852214 	-0.0121591928847352 	2.92978279742571e-22
6 	0.30210530600303 	6.93889390390723e-18 	0.0505233292958154 	-0.0129089840802395 	3.90080129521718e-21
6 	0.320994567414413 	7.37257477290143e-18 	0.0581006097710437 	-0.0136691265437712 	-8.99667006848787e-21
6 	0.340575797787321 	1.77809156287623e-17 	0.066144780409655 	-0.0144372757432283 	-8.95199865882233e-21
6 	0.360874345971201 	1.43114686768087e-17 	0.0746982889066208 	-0.0152106058888362 	1.85438477823314e-20
6 	0.38191648941809 	1.30104260698261e-18 	0.0838072453297234 	-0.0159856463173835 	-9.66638296628417e-21
6 	0.403729468200045 	-6.93889390390723e-18 	0.0935321812752707 	-0.0167542635822015 	1.33281542636522e-18
6 	0.426341520272733 	-1.38777878078145e-17 	0.103919130921589 	-0.0175153433583475 	1.79218959321844e-16
6 	0.449781918030828 	-2.08166817117217e-17 	0.115026202771996 	-0.0182632587557663 	-1.80084359483531e-16
6 	0.474081006202548 	-2.77555756156289e-17 	0.126915734766847 	-0.0189914538759014 	-5.90865763736792e-18
6 	0.499270241132363 	-3.81639164714898e-17 	0.139654312657696 	-0.0196923334556843 	3.45488083253588e-22
6 	0.525382231502763 	-4.16333634234434e-17 	0.153312667202356 	-0.0203571346358095 	0
6 	0.552450780547767 	-4.16333634234434e-17 	0.167965405251465 	-0.0209757979529247 	1.06760466110078e-21
6 	0.58051092981285 	-3.46944695195361e-17 	0.183690530874928 	-0.021537014472472 	1.2530537998608e-21
6 	0.609599004517911 	-2.77555756156289e-17 	0.200568876275746 	-0.0220284670134354 	-1.3315708429334e-20
6 	0.639752660582033 	-2.77555756156289e-17 	0.218701243103147 	-0.0224348475725193 	-2.35337381825408e-20
6 	0.671010933370887 	-3.12250225675825e-17 	0.238339616397532 	-0.0227336123442708 	-3.70005244402638e-21
6 	0.703414288229901 	-3.81639164714898e-17 	0.260013957887091 	-0.022902856971666 	2.58661895155588e-17
6 	0.737004672868606 	-3.81639164714898e-17 	0.284204479398213 	-0.0229179067748749 	2.95794810852401e-17
6 	0.771255893458755 	-3.81639164714898e-17 	0.310550989127334 	-0.0227658507631375 	-2.77083354358828e-17
6 	0.788979504711946 	-4.16333634234434e-17 	0.324580513307242 	-0.0226430061493793 	-6.15670517231102e-17
6 	0.807922061953054 	-4.5102810375397e-17 	0.340154724804301 	-0.0224319394722717 	-2.96098885690035e-17
6 	0.845340872387743 	-4.5102810375397e-17 	0.37139299215837 	-0.021925489988472 	2.65341952029093e-21
6 	0.88413044342731 	-3.46944695195361e-17 	0.404489380897034 	-0.0212377787966624 	-5.0002534402641e-21
6 	0.924340990046898 	-3.64291929955129e-17 	0.43922205970196 	-0.0203674183177928 	4.31991182297451e-21
6 	0.966024566743242 	-5.03069808033274e-17 	0.475398169261247 	-0.0193142675456819 	-2.02506566067587e-20
6 	1.00923513492173 	-6.07153216591882e-17 	0.512801659902098 	-0.0180826437623401 	3.31704308601637e-20
6 	1.05402863275206 	-6.24500451351651e-17 	0.551151232457151 	-0.0166850049661163 	-3.36470394141418e-20
6 	1.10046304758287 	-6.11490025281825e-17 	0.590085293567871 	-0.0151445723596368 	-4.33153165896498e-20
6 	1.14859849100923 	-5.91974386177085e-17 	0.629176150311315 	-0.0134958373007984 	-1.08079713119145e-21
6 	1.19849727668995 	-5.87637577487143e-17 	0.667946106602211 	-0.0117784294038297 	-4.97024227552569e-20
6 	1.25022400101563 	-6.24500451351651e-17 	0.705901812252592 	-0.0100428040240161 	-3.3765322045231e-21
6 	1.30384562673186 	-6.24500451351651e-17 	0.742694035456834 	-0.00834987863583129 	-6.41463988584479e-20
6 	1.35943156962566 	-5.89805981832114e-17 	0.778027229455457 	-0.00674538037190443 	-4.34833973980551e-20
6 	1.41705378838763 	-5.55111512312578e-17 	0.811684759662887 	-0.0052654203239606 	7.87884413837927e-20
6 	1.47678687776592 	-5.20417042793042e-17 	0.843547515588843 	-0.00393328202288664 	8.650204308008e-21
6 	1.533710603315 	-5.55111512312578e-17 	0.871279852296029 	-0.00284637151557039 	1.66312602988801e-21
6 	1.56522813627809 	-5.55111512312578e-17 	0.885864487319414 	-0.00230038798373543 	1.75769192607747e-20
6 	1.60289781058851 	-5.20417042793042e-17 	0.901947818183657 	-0.00173913347887031 	1.62659110147597e-20
6 	1.66943891073267 	-5.3776427755281e-17 	0.928596584443955 	-0.00087402392495311 	6.73795863645006e-21
6 	1.73841760623657 	-5.03069808033274e-17 	0.953486844175003 	-0.000165942997322803 	3.17659877177423e-20
6 	1.8099231933566 	-5.29090660172926e-17 	0.976591116367987 	0.000389237282627143 	-4.18163488918356e-20
6 	1.88404823953249 	-5.18248638448071e-17 	0.997872709674593 	0.000800729849672664 	1.19884090235395e-23
6 	1.96088870322038 	-4.74880551548651e-17 	1.0172168919007 	0.00106708532728172 	0
6 	2.02025965173185 	-4.85722573273506e-17 	1.0305618410832 	0.0013003005739308 	0
6 	2.06006301192217 	-4.5102810375397e-17 	1.0393243497482 	0.00145697834168474 	0
6 	2.09845978584128 	-4.5102810375397e-17 	1.04716717204611 	0.00158970469805578 	0
6 	2.13549967996946 	-5.20417042793042e-17 	1.05433339895933 	0.00171284835077014 	0
6 	2.17123064424048 	-5.89805981832114e-17 	1.06086927577406 	0.00182571835960392 	0
6 	2.20569893411516 	-6.59194920871187e-17 	1.06681811708948 	0.00192787741142606 	0
6 	2.23894917046123 	-7.28583859910259e-17 	1.07221976310766 	0.00201976084038763 	0
6 	2.27102439731726 	-7.97972798949331e-17 	1.07711030774956 	0.00210208335785156 	0
6 	2.30196613761522 	-8.67361737988404e-17 	1.08152203320513 	0.00217562825277961 	0
6 	2.33181444693392 	-8.67361737988404e-17 	1.08548346769732 	0.00224118933021822 	0
6.00000000000001 	2.3606079653529 	-8.32667268468867e-17 	1.08901950575231 	0.0022995313660565 	0
6.00000000000001 	2.38838396747391 	-7.63278329429795e-17 	1.09215155382638 	0.00235136471910425 	0
6.00000000000001 	2.41517841067461 	-6.93889390390723e-17 	1.09489767743661 	0.00239733378442884 	0
6.00000000000001 	2.44102598165722 	-6.93889390390723e-17 	1.09727273567057 	0.00243801436676108 	0
6.00000000000001 	2.46596014135208 	-6.93889390390723e-17 	1.09928849523247 	0.00247391615878592 	0
6.00000000000001 	2.49001316823444 	-6.93889390390723e-17 	1.10095372011208 	0.00250548803432524 	0
6.00000000000001 	2.51321620011054 	-6.93889390390723e-17 	1.10227423570583 	0.00253312446520821 	0
6.00000000000001 	2.535599274427 	-6.93889390390723e-17 	1.10325296896018 	0.00255717254425263 	0
6.00000000000001 	2.55719136715571 	-6.93889390390723e-17 	1.10388996632978 	0.00257793892493639 	0
6.00000000000001 	2.57802043030466 	-6.93889390390723e-17 	1.10418239177534 	0.00259569660089963 	0
6.00000000000001 	2.59811342810315 	-7.28583859910259e-17 	1.10412450960902 	0.00261069115810096 	0
6.00000000000001 	2.61749637190832 	-7.63278329429795e-17 	1.10370765892076 	0.00262314640344143 	0
6.00000000000001 	2.63619435387806 	-7.63278329429795e-17 	1.10292022809929 	0.00263326935455213 	0
6.00000000000001 	2.65423157945406 	-8.32667268468867e-17 	1.1017476400917 	0.00264125451986955 	0
6.00000000000001 	2.67163139869691 	-9.0205620750794e-17 	1.10017236138191 	0.00264728735325511 	0
6.00000000000001 	2.68841633651388 	-9.0205620750794e-17 	1.09817394977916 	0.00265154676515039 	0
6.00000000000001 	2.70460812181851 	-9.0205620750794e-17 	1.09572915738374 	0.00265420648268686 	0
6.00000000000001 	2.72022771565972 	-9.0205620750794e-17 	1.09281210539988 	0.00265543498059652 	0
6.00000000000001 	2.73529533835695 	-9.0205620750794e-17 	1.08939454606168 	0.00265539364410105 	0
6.00000000000001 	2.74983049567626 	-9.0205620750794e-17 	1.0854462227901 	0.00265423291212216 	0
6.00000000000001 	2.76385200408157 	-9.0205620750794e-17 	1.08093533223219 	0.00265208623849995 	0
6.00000000000001 	2.77737801509344 	-8.32667268468867e-17 	1.0758290811595 	0.00264906184617162 	0
6.00000000000001 	2.79042603878708 	-7.63278329429795e-17 	1.07009431806484 	0.00264523246453224 	0
6.00000000000001 	2.80301296646003 	-6.59194920871187e-17 	1.06369820521529 	0.00264062350917876 	0
6.00000000000001 	2.81515509249873 	-5.55111512312578e-17 	1.05660888403822 	0.00263520047655132 	0
6.00000000000001 	2.82686813547238 	-5.55111512312578e-17 	1.04879607711525 	0.00262885663371392 	0
6.00000000000001 	2.83816725848143 	-5.20417042793042e-17 	1.04023156541373 	0.00262140230879703 	0
6.00000000000001 	2.84906708878692 	-5.20417042793042e-17 	1.03088948033973 	0.00261255711736414 	0
6.00000000000001 	2.85958173674617 	-4.85722573273506e-17 	1.0207463560533 	0.00260194597964125 	0
6.00000000000001 	2.86972481407933 	-3.46944695195361e-17 	1.00978089619994 	0.00258909897927945 	0
6 	2.87950945149043 	-2.77555756156289e-17 	0.997973418088939 	0.00257345843871846 	0
6 	2.88894831566567 	-2.77555756156289e-17 	0.985303808970056 	0.00255441036283064 	0
6 	2.89805362567107 	-2.77555756156289e-17 	0.971725649600224 	0.00253124098600227 	0
6 	2.90683716877067 	-2.77555756156289e-17 	0.957095529811336 	0.00250295328753208 	0
6 	2.9153103156857 	-2.77555756156289e-17 	0.941271454984081 	0.00246820369921137 	0
6 	2.92348403531449 	-2.77555756156289e-17 	0.924241838420285 	0.00242557605707592 	0
6 	2.9313689089323 	-2.77555756156289e-17 	0.906049569603393 	0.00237363642638627 	0
6.00000000000001 	2.93897514388925 	-3.12250225675825e-17 	0.886736419948106 	0.00231105411653626 	0
6.00000000000001 	2.94631258682425 	-3.46944695195361e-17 	0.866313062797994 	0.00223667334303294 	0
6.00000000000001 	2.95339073641193 	-3.12250225675825e-17 	0.844743746557531 	0.00214956037065867 	0
6 	2.96021875565916 	-2.77555756156289e-17 	0.821935916096159 	0.00204904608339147 	0
6 	2.96680548376697 	-2.77555756156289e-17 	0.797728187024058 	0.00193476741468728 	0
6.00000000000001 	2.97315944757337 	-3.12250225675825e-17 	0.771872657535683 	0.00180670936252334 	0
6.00000000000001 	2.97928887259171 	-4.16333634234434e-17 	0.744008729586502 	0.00166525188269128 	0
6.00000000000001 	2.98520169365903 	-5.55111512312578e-17 	0.713625702853911 	0.00151122649415264 	0
6.00000000000001 	2.99090556520807 	-5.89805981832114e-17 	0.680011148774664 	0.00134598248718695 	0
6.00000000000001 	2.99640787117633 	-5.55111512312578e-17 	0.642181662937959 	0.00117145843803096 	0
6.00000000000001 	3.00171573456492 	-5.20417042793042e-17 	0.598793384766543 	0.000990414130660838 	0
6.00000000000001 	3.00683602665963 	-5.20417042793042e-17 	0.547994784422119 	0.000806902926038115 	0
6.00000000000001 	3.01177537592613 	-5.55111512312578e-17 	0.487126248805289 	0.000624990998040477 	0
6.00000000000001 	3.01654017659085 	-4.85722573273506e-17 	0.413443637458689 	0.00044919673344949 	0
6 	3.02113659691864 	-4.85722573273506e-17 	0.327134667162582 	0.000287709641377277 	0
6 	3.02557058719784 	-5.20417042793042e-17 	0.2334839855427 	0.000153233764305484 	0
6 	3.02984788744324 	-5.20417042793042e-17 	0.138871825142996 	5.8044371570536e-05 	0
