8 	0.445235312119664 	-2.08166817117217e-17 	0.286710190352909 	0.030654458152743 	1.71770397422661 	0.0045521478704035 	0
8 	0.455704834779478 	-2.77555756156289e-17 	0.286557699488499 	0.0311264904536791 	1.71617530972364 	0.00467881714619729 	0
8 	0.469710606414533 	-2.42861286636753e-17 	0.286355067002617 	0.0317403975434257 	1.7163642104204 	0.00484683612247993 	0
8 	0.491846043955708 	-2.08166817117217e-17 	0.286032623253283 	0.0326861797707182 	1.71976335393051 	0.00511066925090665 	0
8 	0.514778287483577 	-2.77555756156289e-17 	0.285688661377401 	0.0336309273484741 	1.72726309629189 	0.00538521459889711 	0
8 	0.538535484544895 	-3.12250225675825e-17 	0.285312632508946 	0.0345728243677253 	1.73871484551806 	0.00567904931266338 	0
8 	0.563146737069756 	-3.12250225675825e-17 	0.284894233834784 	0.0355113683058882 	1.75403701410948 	0.00599641582076868 	0
8 	0.588642130718527 	-2.42861286636753e-17 	0.28441902746625 	0.0364473532253946 	1.77320686696175 	0.00635489944223023 	0
8 	0.615052764897376 	-1.04083408558608e-17 	0.283880708975683 	0.03738025115102 	1.79618457717109 	0.00676206631879471 	0
8 	0.642410783437945 	-1.04083408558608e-17 	0.283287558777343 	0.0383062259361182 	1.82280198697559 	0.00722180436777798 	0
8 	0.670749405934574 	-1.04083408558608e-17 	0.282648615010083 	0.0392159390445542 	1.85262927091586 	0.00772953269406608 	0
8 	0.700102959730073 	-8.67361737988404e-18 	0.281968036959423 	0.0400937587068468 	1.88486596952555 	0.00826936873544982 	0
8 	0.730506912538453 	1.73472347597681e-18 	0.281241666095385 	0.0409175062877616 	1.91824814670012 	0.00881693011417684 	0
8 	0.761997905690176 	1.21430643318376e-17 	0.280458498145189 	0.0416588024621777 	1.95101636846648 	0.00934093238219149 	0
8 	0.794613787982349 	1.21430643318376e-17 	0.279604287160963 	0.0422849367687024 	1.98100501186835 	0.00980921045495203 	0
8 	0.828393650112923 	1.38777878078145e-17 	0.278664236717586 	0.042761830942392 	2.0058433543795 	0.0101944889605761 	0
8 	0.863377859674246 	1.47451495458029e-17 	0.277624819416066 	0.0430571076515369 	2.0232012883581 	0.0104774284618085 	0
7.99999999999999 	0.899608096677278 	1.47451495458029e-17 	0.276474680173034 	0.0431424081117341 	2.03099858659019 	0.0106463103641144 	0
7.99999999999999 	0.937127389573462 	1.69135538907739e-17 	0.275204624941008 	0.0429947038910635 	2.02753401310782 	0.0106944385977927 	0
7.99999999999999 	0.975980151736475 	1.90819582357449e-17 	0.273807030956731 	0.0425969856554356 	2.01154667582367 	0.0106172627879605 	0
7.99999999999999 	1.01621221836095 	1.25767452008319e-17 	0.272275156626717 	0.0419390025521896 	1.98225761424966 	0.0104110156591508 	0
7.99999999999999 	1.05787088372979 	6.93889390390723e-18 	0.270586596590279 	0.0410120099232501 	1.93910247768824 	0.0100705358217896 	0
7.99999999999999 	1.1010049387955 	6.93889390390723e-18 	0.268742257822919 	0.0398272067443698 	1.88260962867782 	0.00959970243639207 	0
7.99999999999999 	1.14566470901487 	1.04083408558608e-17 	0.266746755316913 	0.0384087540318402 	1.81398572148283 	0.0090106881306428 	0
7.99999999999999 	1.1919020923689 	1.38777878078145e-17 	0.264598632285649 	0.036790041227451 	1.7349046246429 	0.0083230332111923 	0
7.99999999999999 	1.23977059749267 	1.38777878078145e-17 	0.262299589380729 	0.035016607231447 	1.6477596461594 	0.00756442452844243 	0
7.99999999999999 	1.28932538183168 	1.38777878078145e-17 	0.259854451027964 	0.0331441820746936 	1.55576937881904 	0.00676835215979645 	0
7.99999999999999 	1.34062328973247 	6.93889390390723e-18 	0.257270665326692 	0.0312391982780839 	1.4637135807898 	0.00597205133319325 	0
7.99999999999999 	1.39372289036593 	3.46944695195361e-18 	0.254560101356151 	0.0293620051181491 	1.37484197687392 	0.00521037892055552 	0
7.99999999999999 	1.44868451537184 	1.38777878078145e-17 	0.251740987162596 	0.0275513812324549 	1.28972709954996 	0.00450843561336645 	0
7.99999999999999 	1.50557029610222 	1.73472347597681e-17 	0.248835588929137 	0.0258287841015743 	1.20835553686708 	0.00387907683519495 	0
7.99999999999999 	1.56444420032979 	1.04083408558608e-17 	0.245867060935733 	0.0242025431379319 	1.1306696911045 	0.00332424573441852 	0
7.99999999999999 	1.60125821015668 	1.73472347597681e-18 	0.244034533680929 	0.0232487978481447 	1.08468017193919 	0.00301485273754856 	0
7.99999999999999 	1.63225974854651 	-5.20417042793042e-18 	0.242523864683951 	0.0225027527261477 	1.04816100939051 	0.00278717433618669 	0
7.99999999999999 	1.68846715954752 	-1.38777878078145e-17 	0.239832978305598 	0.0212094910199611 	0.983977761752407 	0.00240973672580805 	0
7.99999999999999 	1.75372829627876 	-1.73472347597681e-17 	0.236811202019602 	0.0198091035218189 	0.91332655099032 	0.00203346162881247 	0
7.99999999999999 	1.82123614698517 	-1.21430643318376e-17 	0.233812854272892 	0.0184552304623349 	0.846190408375694 	0.00170130008270792 	0
7.99999999999999 	1.89106286097981 	-1.56125112837913e-17 	0.230853686236963 	0.0171608990963806 	0.787033679976811 	0.0014106613553945 	0
7.99999999999999 	1.96328253671743 	-2.60208521396521e-17 	0.228008306350595 	0.0159728587917224 	0.739632795325857 	0.00116584116287241 	0
7.99999999999999 	2.02025965173184 	-2.77555756156289e-17 	0.225948430726817 	0.0150885355729885 	0.709958317039434 	0.000978447125421147 	0
7.99999999999999 	2.06006301192217 	-2.77555756156289e-17 	0.224535777344856 	0.0144579388773815 	0.691985423604339 	0.000858536761823247 	0
7.99999999999999 	2.09845978584128 	-3.12250225675825e-17 	0.223285136241553 	0.0138738364784136 	0.677654014026428 	0.000756201814921203 	0
7.99999999999999 	2.13549967996945 	-3.12250225675825e-17 	0.222135022966283 	0.0133184446846877 	0.666127330004981 	0.000660262634045109 	0
7.99999999999999 	2.17123064424048 	-3.12250225675825e-17 	0.221073035453849 	0.0127911007100216 	0.657237925404107 	0.000571380923864088 	0
7.99999999999999 	2.20569893411515 	-3.12250225675825e-17 	0.220093028853291 	0.0122910151076272 	0.650867286466972 	0.00048987814422969 	0
7.99999999999999 	2.23894917046122 	-3.12250225675825e-17 	0.219189163972772 	0.0118173249980948 	0.646938186538277 	0.000415733644850616 	0
7.99999999999999 	2.27102439731725 	-3.12250225675825e-17 	0.218355699760829 	0.0113691469296583 	0.645410432017587 	0.000348771373452631 	0
7.99999999999999 	2.30196613761521 	-3.12250225675825e-17 	0.217587296200575 	0.0109456185364467 	0.646278353329161 	0.000288727888298302 	0
7.99999999999999 	2.33181444693391 	-3.46944695195361e-17 	0.216879017536777 	0.0105459303157743 	0.649569562106758 	0.000235307695797067 	0
7.99999999999999 	2.3606079653529 	-3.81639164714898e-17 	0.216226287113156 	0.0101693494920057 	0.655344758064468 	0.000188225381825422 	0
7.99999999999999 	2.3883839674739 	-4.16333634234434e-17 	0.215624859260309 	0.00981523774988449 	0.663698461330293 	0.000147234416658594 	0
7.99999999999999 	2.41517841067461 	-4.85722573273506e-17 	0.215070797503624 	0.00948306434080526 	0.674760588925264 	0.000112147123082367 	0
7.99999999999999 	2.44102598165722 	-5.20417042793042e-17 	0.21456045404842 	0.00917241565629582 	0.688698810047206 	8.28493365645976e-05 	0
7.99999999999999 	2.46596014135207 	-5.55111512312578e-17 	0.214090450594861 	0.0088830019382548 	0.705721614128158 	5.93119390016781e-05 	0
7.99999999999999 	2.49001316823443 	-5.3776427755281e-17 	0.213657660617925 	0.00861466140788815 	0.726082010228387 	4.16006484463999e-05 	0
7.99999999999999 	2.51321620011054 	-4.85722573273506e-17 	0.213259192962856 	0.0083673617439127 	0.75008174387061 	2.98848837832783e-05 	0
7.99999999999999 	2.535599274427 	-4.68375338513738e-17 	0.212892376598852 	0.00814119851466675 	0.778075864495135 	2.44460494012791e-05 	0
7.99999999999999 	2.55719136715571 	-4.85722573273506e-17 	0.212554746408554 	0.00793638986460348 	0.810477400498619 	2.56851601937147e-05 	0
7.99999999999999 	2.57802043030465 	-5.20417042793042e-17 	0.212244029906777 	0.00775326648298756 	0.847761798608979 	3.41293276952102e-05 	0
7.99999999999999 	2.59811342810315 	-4.85722573273506e-17 	0.21195813478762 	0.00759225566887526 	0.890470663757363 	5.04362449612781e-05 	0
7.99999999999999 	2.61749637190832 	-4.5102810375397e-17 	0.21169513719961 	0.00745385819917323 	0.939214205372242 	7.53954565596056e-05 	0
7.99999999999999 	2.63619435387806 	-4.5102810375397e-17 	0.211453270645071 	0.00733861677200527 	0.994671677017929 	0.000109924924582285 	0
7.99999999999999 	2.65423157945406 	-4.85722573273506e-17 	0.211230915394666 	0.00724707511247152 	1.05758902166673 	0.00015506127179008 	0
7.99999999999999 	2.67163139869691 	-5.55111512312578e-17 	0.21102658830513 	0.00717972746128202 	1.1287729494616 	0.000211942184229761 	0
7.99999999999999 	2.68841633651388 	-5.89805981832114e-17 	0.210838932932595 	0.00713695915180871 	1.20908082965357 	0.000281779867018173 	0
7.99999999999999 	2.7046081218185 	-5.89805981832114e-17 	0.210666709850948 	0.00711898028042528 	1.29940611875213 	0.000365825209783918 	0
7.99999999999999 	2.72022771565972 	-5.89805981832114e-17 	0.210508787117975 	0.00712575595132638 	1.40065959420433 	0.000465323403379879 	0
7.99999999999999 	2.73529533835694 	-6.24500451351651e-17 	0.210364130880577 	0.00715693798613175 	1.51374739479402 	0.000581463038190587 	0
7.99999999999999 	2.74983049567625 	-6.24500451351651e-17 	0.210231796160665 	0.00721180401076845 	1.63954770603972 	0.000715322007507709 	0
7.99999999999999 	2.76385200408156 	-6.24500451351651e-17 	0.210110917904286 	0.00728921014655933 	1.77888873773575 	0.000867814598801676 	0
7.99999999999999 	2.77737801509343 	-6.59194920871187e-17 	0.210000702495999 	0.0073875629179609 	1.93253125934513 	0.00103964476618632 	0
7.99999999999999 	2.79042603878708 	-6.59194920871187e-17 	0.209900420287334 	0.00750481441475151 	2.10115924109495 	0.00123127063164139 	0
7.99999999999999 	2.80301296646003 	-6.24500451351651e-17 	0.209809399160284 	0.00763848240695663 	2.28538201371755 	0.00144288488507247 	0
7.99999999999999 	2.81515509249872 	-5.89805981832114e-17 	0.20972701401699 	0.00778569438295191 	2.48575082631168 	0.00167441514805745 	0
7.99999999999999 	2.82686813547237 	-6.24500451351651e-17 	0.209652666191929 	0.0079432518139408 	2.70279187118154 	0.0019255462871099 	0
7.99999999999999 	2.83816725848142 	-6.59194920871187e-17 	0.20958581244243 	0.00810770880503591 	2.93705697657883 	0.00219627529350342 	0
7.99999999999999 	2.84906708878691 	-6.59194920871187e-17 	0.209526210863711 	0.0082754658197208 	3.1892354409188 	0.00249194822909628 	0
7.99999999999999 	2.85958173674616 	-6.59194920871187e-17 	0.209473882839159 	0.00844292943102086 	3.46071464215321 	0.0028223344649479 	0
7.99999999999999 	2.86972481407933 	-7.28583859910259e-17 	0.209428411438692 	0.00860651921760684 	3.75415910028599 	0.00317845576757583 	0
7.99999999999999 	2.87950945149043 	-8.32667268468867e-17 	0.20938847135028 	0.00876175309332752 	4.07134015118066 	0.00356467949325994 	0
7.99999999999999 	2.88894831566566 	-8.50014503228635e-17 	0.209352836869103 	0.00890218464475916 	4.41163162155765 	0.00396065701776652 	0
7.99999999999999 	2.89805362567106 	-8.32667268468867e-17 	0.209321117139126 	0.00902134839891107 	4.77408768854148 	0.0043530870970073 	0
7.99999999999999 	2.90683716877067 	-8.32667268468867e-17 	0.209293254790045 	0.00911393307582553 	5.15908145992042 	0.0047365236864047 	0
7.99999999999999 	2.91531031568569 	-8.32667268468867e-17 	0.209269179467777 	0.00917610771861633 	5.5692218926528 	0.00511056186004427 	0
7.99999999999999 	2.92348403531448 	-8.32667268468867e-17 	0.209248748218834 	0.00920539448390137 	6.00984442524047 	0.00547800585491364 	0
7.99999999999999 	2.93136890893229 	-8.32667268468867e-17 	0.209231889609108 	0.00920038868300756 	6.48946398795931 	0.00584543905239383 	0
7.99999999999999 	2.93897514388925 	-7.97972798949331e-17 	0.209218962093681 	0.00916038726756037 	7.020588786391 	0.00622736056831375 	0
7.99999999999999 	2.94631258682425 	-7.63278329429795e-17 	0.209210849471279 	0.00908466762134759 	7.62126846950977 	0.0066434540897103 	0
7.99999999999999 	2.95339073641193 	-7.97972798949331e-17 	0.209207520870676 	0.0089714798877454 	8.31693927010594 	0.00710361860016673 	0
7.99999999999999 	2.96021875565915 	-8.32667268468867e-17 	0.209207795311672 	0.00881803986596644 	9.14066172446822 	0.00764101881147819 	0
7.99999999999999 	2.96680548376697 	-8.67361737988404e-17 	0.209210838559277 	0.00861973099470017 	10.1354790201511 	0.00826249461816223 	0
7.99999999999999 	2.97315944757337 	-8.67361737988404e-17 	0.209216290792964 	0.00836973424322549 	11.3615069530259 	0.00899007353861136 	0
7.99999999999999 	2.97928887259171 	-7.97972798949331e-17 	0.209223806442055 	0.00805797035520975 	12.9049395778068 	0.0098487806889481 	0
7.99999999999999 	2.98520169365902 	-7.63278329429795e-17 	0.209232955688795 	0.00766947491504882 	14.8924157060693 	0.0108589190355258 	0
7.99999999999999 	2.99090556520806 	-7.63278329429795e-17 	0.209243255713131 	0.00718206503388565 	17.5150594425477 	0.0120184888414793 	0
7.99999999999999 	2.99640787117633 	-7.63278329429795e-17 	0.209254180182182 	0.00656332348176793 	21.0706330410457 	0.0132447424200827 	0
7.99999999999999 	3.00171573456492 	-7.28583859910259e-17 	0.209265022882771 	0.00576964138625173 	26.0417405308011 	0.0142917838467266 	0
7.99999999999999 	3.00683602665962 	-7.28583859910259e-17 	0.20927501784478 	0.00475264758666958 	33.2683538305002 	0.0144857978850981 	0
7.99999999999999 	3.01177537592612 	-7.63278329429795e-17 	0.209283434873463 	0.00349877227271627 	44.4243168917575 	0.0126775095763775 	0
7.99999999999999 	3.01654017659085 	-7.63278329429795e-17 	0.209289695123163 	0.00212915027791317 	63.6962787090121 	0.00823302328593428 	0
7.99999999999999 	3.02113659691864 	-7.97972798949331e-17 	0.209293900813539 	0.000968039740249386 	104.622564842942 	0.00325936717641823 	0
7.99999999999999 	3.02557058719784 	-7.97972798949331e-17 	0.209296927097232 	0.0002956260372556 	223.086870187453 	0.000666383887471507 	0
7.99999999999999 	3.02984788744324 	-7.63278329429795e-17 	0.209299747829468 	5.09983712589579e-05 	787.744718340636 	6.13175007375093e-05 	0
