5 	0.00391112967796255 	1.38777878078145e-17 	0.19082810149026 	2.94048338710658e-05 	818.960268707071 	3.63500205350688e-06 	3.58255768998224e-38
5 	0.0118766651674912 	1.38777878078145e-17 	0.190824599074028 	0.000305759943392273 	256.887670754124 	3.91584182620091e-05 	0
5 	0.020134001548576 	1.38777878078145e-17 	0.190815784989979 	0.00139983655908106 	62.7284835202279 	0.000125871938485914 	0
5 	0.0286938283423949 	1.73472347597681e-17 	0.190793968748772 	0.00354355343041129 	25.6860973978165 	0.000101892089818151 	0
5 	0.0375672266585907 	2.08166817117217e-17 	0.190749490642254 	0.00601059986713943 	13.9150203669649 	3.55606885060739e-05 	0
5 	0.046765683540303 	1.90819582357449e-17 	0.190678977012988 	0.00823130239124953 	9.13987355149825 	8.8388807229325e-05 	0
5 	0.0563011068347006 	2.08166817117217e-17 	0.190587073986913 	0.0101316525660886 	6.78687829529342 	0.00020841078960619 	0
5 	0.0661858406082648 	2.25514051876985e-17 	0.190480066510978 	0.0117897986444734 	5.43329748838769 	0.000344037216838057 	0
5 	0.0764326811267815 	2.25514051876985e-17 	0.190362161870496 	0.0132784416674059 	4.5657233617451 	0.000482855306233655 	0
5 	0.0870548934207257 	2.08166817117217e-17 	0.190235920919239 	0.014647320612504 	3.96703483212992 	0.00062416253090171 	0
5 	0.0980662284574839 	1.73472347597681e-17 	0.190103246004971 	0.0159298022190361 	3.53203950690762 	0.000769247170641216 	0
5 	0.109480940942647 	1.38777878078145e-17 	0.18996575417085 	0.0171489762764957 	3.20411321713338 	0.000919555371187676 	0
5 	0.121313807773416 	1.73472347597681e-17 	0.189824865538874 	0.0183214505150978 	2.95021585401693 	0.00107643775828937 	0
5 	0.13358014716801 	2.42861286636753e-17 	0.189681852311101 	0.0194596141044895 	2.74982300834954 	0.00124116772515652 	0
5 	0.146295838495838 	2.60208521396521e-17 	0.189537879721824 	0.020573011271088 	2.58953846497792 	0.00141499088132331 	0
5 	0.159477342834115 	2.60208521396521e-17 	0.189394031940348 	0.0216691997174851 	2.46026464844775 	0.00159916821200604 	0
5 	0.173141724277517 	2.60208521396521e-17 	0.189251325787987 	0.0227543024238187 	2.35562121566997 	0.00179500988415898 	0
5 	0.18730667202848 	2.42861286636753e-17 	0.189110717506112 	0.023833370183502 	2.27101445150853 	0.0020039011494345 	0
5 	0.201990523296728 	2.25514051876985e-17 	0.188973105591662 	0.0249106225784485 	2.2030653278216 	0.00222732197357323 	0
5 	0.217212287037676 	2.25514051876985e-17 	0.188839331227861 	0.0259896074927433 	2.14924468297059 	0.00246686147036217 	0
5 	0.232991668560441 	2.08166817117217e-17 	0.188710177302708 	0.0270733034303516 	2.10763286020316 	0.00272422753019458 	0
5 	0.249349095037321 	1.90819582357449e-17 	0.188586366769574 	0.028164179510448 	2.07675671467083 	0.00300125140954515 	0
5 	0.266305741947753 	1.73472347597681e-17 	0.188468560964192 	0.0292642222500181 	2.05547612175789 	0.00329988650725351 	0
5 	0.283883560490998 	1.90819582357449e-17 	0.188357358449616 	0.0303749345865755 	2.04290292486315 	0.00362220005195349 	0
5 	0.302105306003029 	2.08166817117217e-17 	0.188253294725161 	0.0314973102018483 	2.03834154613806 	0.00397035567896063 	0
5 	0.320994567414413 	2.25514051876985e-17 	0.188156842247913 	0.0326317863609305 	2.04124424950392 	0.00434658306597467 	0
5 	0.34057579778732 	2.42861286636753e-17 	0.18806841303225 	0.0337781877967017 	2.05117635826045 	0.00475313518689233 	0
5 	0.3608743459712 	2.42861286636753e-17 	0.187988365161843 	0.0349356526989456 	2.0677881696314 	0.00519222928659213 	0
5 	0.38191648941809 	2.77555756156289e-17 	0.187917003431606 	0.036102506613844 	2.09079123371425 	0.00566596053936741 	0
5 	0.403729468200046 	2.77555756156289e-17 	0.187854596920882 	0.0372761152515646 	2.11993726701637 	0.00617618778753207 	0
5 	0.426341520272733 	2.42861286636753e-17 	0.187801428380415 	0.0384527172141233 	2.15499833221543 	0.00672438565320171 	0
5 	0.449781918030829 	2.25514051876985e-17 	0.187757736227646 	0.0396272387103812 	2.19574712257543 	0.00731150178136842 	0
5 	0.474081006202548 	1.73472347597681e-17 	0.187723080673775 	0.0407930843733122 	2.24193620473491 	0.00793787911301814 	0
5 	0.499270241132363 	1.21430643318376e-17 	0.187695971636868 	0.0419419006051295 	2.29327484858217 	0.00860360251538561 	0
5 	0.525382231502763 	8.67361737988404e-18 	0.187681259972546 	0.0430633475802049 	2.34940429345745 	0.00933457253028034 	0
5 	0.552450780547767 	6.93889390390723e-18 	0.187706494870125 	0.0441462801755953 	2.4099705432128 	0.0102325798669914 	0
5 	0.580510929812849 	8.67361737988404e-18 	0.187796128444291 	0.0451832830140276 	2.47482164171972 	0.0112171057575272 	0
5 	0.60959900451791 	1.04083408558608e-17 	0.187923907249012 	0.0461569322536405 	2.54252313572646 	0.012310232807804 	0
5 	0.639752660582032 	8.67361737988404e-18 	0.18804522773608 	0.0470167938384875 	2.60885825490204 	0.0133569580531629 	0
5 	0.671010933370886 	6.93889390390723e-18 	0.188144420001366 	0.0476978528917095 	2.66813211103606 	0.0142306743222219 	0
5 	0.7034142882299 	8.67361737988404e-18 	0.188226310301508 	0.0481405316932591 	2.71487218863666 	0.014882541467428 	0
5 	0.737004672868605 	1.04083408558608e-17 	0.188299507787156 	0.0482990282876893 	2.74482245758611 	0.0153080885635128 	0
5 	0.771825571663975 	1.04083408558608e-17 	0.188369210056851 	0.0481412893255273 	2.75525463884675 	0.0155112893972974 	0
5 	0.807922061953053 	8.67361737988404e-18 	0.18843603164967 	0.0476467711448567 	2.74485352317268 	0.0154852612366495 	0
5 	0.845340872387742 	5.20417042793042e-18 	0.188497245420828 	0.0468060718742012 	2.71334799892249 	0.015213014131282 	0
5 	0.884130443427309 	3.46944695195361e-18 	0.188548595302259 	0.0456232783143362 	2.66109743114807 	0.0146800542179643 	0
5 	0.924340990046897 	5.20417042793042e-18 	0.188585702983092 	0.0441196441682835 	2.58885194795771 	0.0138883902309313 	0
5 	0.966024566743241 	6.93889390390723e-18 	0.188604769671087 	0.0423363503037807 	2.49775350363932 	0.0128648549332616 	0
5 	1.00923513492173 	5.20417042793042e-18 	0.188602735614293 	0.040334400264845 	2.38950230666861 	0.0116613613800216 	0
5 	1.05402863275205 	3.46944695195361e-18 	0.18857719859592 	0.0381907013160137 	2.26657066042605 	0.0103481854371047 	0
5 	1.10046304758287 	3.46944695195361e-18 	0.188526327884956 	0.0359925061589584 	2.13279846591148 	0.00900374131674754 	0
5 	1.14859849100923 	0 	0.188448782138334 	0.0338343086089809 	1.99492568018404 	0.00770602108613457 	0
5 	1.19849727668994 	-1.73472347597681e-18 	0.188343555224255 	0.0317937722258643 	1.85914799071389 	0.00652022351713801 	0
5 	1.25022400101563 	-1.73472347597681e-18 	0.188209785304488 	0.0299120097244137 	1.72792242100181 	0.00548761788348297 	0
5 	1.30384562673185 	-1.73472347597681e-18 	0.188046830065351 	0.0282026747143024 	1.60250051921082 	0.00462343920972483 	0
5 	1.35943156962565 	-1.73472347597681e-18 	0.187859922891003 	0.0266591720070941 	1.48390567563164 	0.00391946835756925 	0
5 	1.41705378838762 	-3.46944695195361e-18 	0.187668000206827 	0.0252598263311239 	1.37277771582376 	0.00334627297047238 	0
5 	1.47678687776592 	-1.73472347597681e-18 	0.187474189532144 	0.0239750309933475 	1.26930986811205 	0.00284627056256316 	0
5 	1.53870816513277 	-3.46944695195361e-18 	0.187261663952508 	0.0227779547806976 	1.17286434837022 	0.00241354203479016 	0
5 	1.60289781058851 	-6.93889390390723e-18 	0.187027277075929 	0.021639904720331 	1.08141736117875 	0.00203615457946165 	0
5 	1.66943891073266 	-5.20417042793042e-18 	0.186773209505433 	0.0205354579752975 	0.994906024672739 	0.00171344316320825 	0
5 	1.73841760623657 	-6.93889390390723e-18 	0.186499521157349 	0.0194490650133157 	0.917128746025096 	0.00143986929631297 	0
5 	1.80992319335659 	-1.38777878078145e-17 	0.186205205462743 	0.0183669004695101 	0.850715940337563 	0.00120502579673019 	0
5 	1.88404823953248 	-1.56125112837913e-17 	0.185889381779304 	0.0172727907599002 	0.794605100082532 	0.000998439605948409 	0
5 	1.96088870322037 	-6.93889390390723e-18 	0.185563173238476 	0.0161886478986915 	0.748284688551943 	0.000818035435940461 	0
5 	2.02025965173184 	0 	0.185296746673184 	0.015312760299403 	0.717665918463722 	0.000686914108507745 	0
5 	2.06006301192217 	-3.46944695195361e-18 	0.185103205386014 	0.0146877565522788 	0.698800953958702 	0.000599988753261906 	0
5 	2.09845978584128 	-6.93889390390723e-18 	0.184924380142746 	0.0141239369004778 	0.684026605983656 	0.000525682337009178 	0
5 	2.13549967996945 	-6.93889390390723e-18 	0.184749909438275 	0.0135852309410246 	0.671975663000032 	0.000457843144968812 	0
5 	2.17123064424048 	-6.93889390390723e-18 	0.184579789435411 	0.0130714564251739 	0.662541029953632 	0.000396011283380644 	0
5 	2.20569893411515 	-6.93889390390723e-18 	0.184414038108491 	0.012582350299882 	0.655652023522143 	0.000339821153889454 	0
5 	2.23894917046122 	-6.93889390390723e-18 	0.184252689583291 	0.0121175576304695 	0.65126796029962 	0.00028896338321295 	0
5 	2.27102439731725 	-6.93889390390723e-18 	0.184095786678251 	0.0116766402750952 	0.649374784696059 	0.000243173768614379 	0
5 	2.30196613761521 	-6.93889390390723e-18 	0.183943382961412 	0.0112590958120816 	0.649983602786461 	0.000202230593146684 	0
5 	2.33181444693391 	-6.93889390390723e-18 	0.183795542323649 	0.0108643806339526 	0.653130443666486 	0.00016595473213343 	0
5 	2.3606079653529 	-6.93889390390723e-18 	0.18365233659898 	0.0104919335500787 	0.658876850144639 	0.00013421126153676 	0
5 	2.3883839674739 	-6.93889390390723e-18 	0.183513842419771 	0.0101411978205599 	0.667311071018425 	0.000106911994234576 	0
5 	2.41517841067461 	-8.67361737988404e-18 	0.183380137606136 	0.00981164052963342 	0.67854973014117 	8.40185369588061e-05 	0
5 	2.44102598165722 	-1.04083408558608e-17 	0.183251297283644 	0.00950276879823854 	0.692739909275643 	6.55456373018651e-05 	0
5 	2.46596014135207 	-1.21430643318376e-17 	0.183127389937836 	0.00921414266720152 	0.710061618123147 	5.15646991545965e-05 	0
4.99999999999999 	2.49001316823443 	-1.56125112837913e-17 	0.183008473585657 	0.00894538464787569 	0.730730645638227 	4.22073908430589e-05 	0
4.99999999999999 	2.51321620011054 	-1.90819582357449e-17 	0.182894592211133 	0.00869618600149626 	0.75500179799388 	3.76692842463766e-05 	0
4.99999999999999 	2.535599274427 	-1.90819582357449e-17 	0.182785772586346 	0.00846630981847264 	0.78317253446529 	3.82134665734721e-05 	0
4.99999999999999 	2.55719136715571 	-1.56125112837913e-17 	0.182682021575983 	0.00825559095785602 	0.815587015938229 	4.41740740571302e-05 	0
5 	2.57802043030465 	-1.38777878078145e-17 	0.182583324002756 	0.00806393289981969 	0.852640583863933 	5.5959720754773e-05 	0
4.99999999999999 	2.59811342810315 	-1.56125112837913e-17 	0.182489641131326 	0.00789130157775906 	0.894784691860769 	7.40568454372341e-05 	0
4.99999999999999 	2.61749637190832 	-1.73472347597681e-17 	0.182400909809464 	0.00773771630255223 	0.942532318760045 	9.90330801693127e-05 	0
4.99999999999999 	2.63619435387806 	-1.73472347597681e-17 	0.182317042286133 	0.00760323797310405 	0.99646390074183 	0.000131540853072928 	0
4.99999999999999 	2.65423157945406 	-1.38777878078145e-17 	0.182237926706417 	0.00748795487897905 	1.05723382999501 	0.000172321561327193 	0
5 	2.67163139869691 	-8.67361737988404e-18 	0.182163428262006 	0.00739196652704115 	1.12557757504888 	0.000222210761507534 	0
5 	2.68841633651388 	-5.20417042793042e-18 	0.182093390953328 	0.00731536603942891 	1.2023194788586 	0.000282144882228756 	0
5 	2.7046081218185 	-1.73472347597681e-18 	0.182027639896003 	0.00725822174398696 	1.28838127928827 	0.000353169919222917 	0
5 	2.72022771565972 	0 	0.181965984081596 	0.00722055858106939 	1.38479136827538 	0.000436452377072581 	0
5 	2.73529533835694 	-1.73472347597681e-18 	0.181908219482474 	0.00720233986493383 	1.49269476040601 	0.000533292341824373 	0
5 	2.74983049567625 	-3.46944695195361e-18 	0.181854132375413 	0.00720344976919495 	1.61336368711981 	0.000645138002564579 	0
5 	2.76385200408156 	-5.20417042793042e-18 	0.18180350275511 	0.00722367669057356 	1.74820869067099 	0.000773600229606933 	0
5 	2.77737801509343 	-6.93889390390723e-18 	0.181756107725903 	0.00726269745277544 	1.89879010123779 	0.000920465054799024 	0
5 	2.79042603878708 	-6.93889390390723e-18 	0.181711724752251 	0.00732006223769948 	2.06682990225819 	0.00108770123197085 	0
5 	2.80301296646003 	-5.20417042793042e-18 	0.181670134448783 	0.00739518027930922 	2.25422431241977 	0.00127745971325712 	0
5 	2.81515509249872 	-5.20417042793042e-18 	0.181631122539563 	0.00748730681822044 	2.46305806314288 	0.00149206228035703 	0
5 	2.82686813547237 	-5.20417042793042e-18 	0.181594483375857 	0.00759553263600435 	2.69562249122528 	0.00173397822109125 	0
5 	2.83816725848142 	-3.46944695195361e-18 	0.181560032626489 	0.00771877861748349 	2.95444137112972 	0.00200579023015662 	0
5 	2.84906708878691 	-3.46944695195361e-18 	0.181527610290837 	0.00785579907921026 	3.24231098089786 	0.00231016512270624 	0
5 	2.85958173674616 	-5.20417042793042e-18 	0.181496942653583 	0.00800519819302976 	3.56236383505845 	0.00265227280846282 	0
5 	2.86972481407933 	-6.93889390390723e-18 	0.181467463070961 	0.00816546471088367 	3.91838744868411 	0.0030481608912878 	0
5 	2.87950945149043 	-8.67361737988404e-18 	0.181439150837777 	0.00833503639313688 	4.31613928088375 	0.00350368203155885 	0
5 	2.88894831566566 	-6.93889390390723e-18 	0.181412313742528 	0.00851204826647283 	4.7628133036328 	0.00403068520535867 	0
5 	2.89805362567106 	-5.20417042793042e-18 	0.181386988361074 	0.00869257565854492 	5.26364793640067 	0.0046301113064881 	0
5 	2.90683716877067 	-8.67361737988404e-18 	0.18136322930541 	0.00887023990968636 	5.82085115851254 	0.00528943858128075 	0
5 	2.91531031568569 	-6.93889390390723e-18 	0.181340924452589 	0.00903740343429838 	6.43528107797584 	0.00599838575356005 	0
5 	2.92348403531448 	-3.46944695195361e-18 	0.181319861845708 	0.00918611924988043 	7.10825596075993 	0.00675096359965612 	0
5 	2.93136890893229 	-1.73472347597681e-18 	0.181299850802595 	0.00930853228964389 	7.84293698678895 	0.0075435153050493 	0
5 	2.93897514388925 	0 	0.181280763180309 	0.0093969338138101 	8.6454840790145 	0.00837354331343851 	0
5 	2.94631258682425 	0 	0.181262530699534 	0.00944362510351405 	9.52624713893098 	0.00923932402214863 	0
5 	2.95339073641193 	1.73472347597681e-18 	0.181245131712488 	0.00944065103694779 	10.5018792436859 	0.0101399510724269 	0
5 	2.96021875565915 	3.46944695195361e-18 	0.181228581584388 	0.0093793899030204 	11.5991371153396 	0.0110752081487392 	0
5 	2.96680548376697 	3.46944695195361e-18 	0.181212929123732 	0.00925013071824696 	12.8521112601286 	0.0120447887208312 	0
5 	2.97315944757337 	1.73472347597681e-18 	0.181198255072854 	0.00904150328952415 	14.306753944719 	0.0130461816700025 	0
5 	2.97928887259171 	0 	0.181184669036388 	0.0087393025063117 	16.0324459080598 	0.0140695189503559 	0
5 	2.98520169365902 	1.73472347597681e-18 	0.181172302342908 	0.00832519535515081 	18.1329306519402 	0.0150875024764552 	0
5 	2.99090556520806 	1.73472347597681e-18 	0.181161291779967 	0.00777542877289037 	20.7662284375556 	0.0160351359428461 	0
5 	2.99640787117633 	1.73472347597681e-18 	0.181151758206264 	0.00706012414099519 	24.1845624744325 	0.0167757515417159 	0
5 	3.00171573456492 	5.20417042793042e-18 	0.181143814841916 	0.00614449627737165 	28.8203110009175 	0.0170411240180313 	0
5 	3.00683602665962 	3.46944695195361e-18 	0.181137592735653 	0.00499478095430103 	35.4924747997652 	0.0161563234259759 	0
5 	3.01177537592612 	0 	0.18113306487037 	0.00361951548494263 	45.9750417847298 	0.0130861838170889 	0
5 	3.01654017659085 	0 	0.181130018478062 	0.00217616111185102 	64.9528868959605 	0.00791045866207802 	0
5 	3.02113659691864 	0 	0.181128118315492 	0.000995320152943703 	107.88337383503 	0.00301925328022855 	0
5 	3.02557058719784 	1.73472347597681e-18 	0.181126925999411 	0.00031700990199165 	240.657114903762 	0.000638700138318028 	0
5 	3.02984788744324 	3.46944695195361e-18 	0.181126085106241 	6.13610267008779e-05 	947.545638346371 	6.57321004010815e-05 	0
