7 	0.762593774876075 	-5.20417042793042e-17 	0.126329431160073 	2.86286829901044e-05 	2592.74618381283 	1.23552209092854e-05 	5.62970083448557e-38
7 	0.767527903387528 	-5.55111512312578e-17 	0.126044980997437 	0.000258321758263649 	1081.35069164517 	0.000195381920640375 	0
7 	0.772642818841401 	-5.55111512312578e-17 	0.125674174306966 	0.00112087114324335 	239.751619770644 	0.00102466481149014 	0
7 	0.777945146587929 	-6.59194920871187e-17 	0.125287987348836 	0.00301094847419886 	93.6235237427281 	0.00254560988566641 	0
7 	0.78344175487206 	-6.93889390390723e-17 	0.124845465551698 	0.00572054010791927 	46.8960952573982 	0.00359531897471943 	0
7 	0.789139763744942 	-6.24500451351651e-17 	0.124307217561962 	0.00857289108582494 	27.3309284082141 	0.00346365165249249 	0
7 	0.795046554302815 	-6.24500451351651e-17 	0.123658579239447 	0.0111072825006126 	17.9772091914589 	0.00289556953887388 	0
7 	0.801169778265346 	-6.59194920871187e-17 	0.122907322622103 	0.01324729511292 	13.0033666355434 	0.00259211707745395 	0
7 	0.807517367905944 	-7.28583859910259e-17 	0.122070110747358 	0.0150669844928807 	10.0748580776006 	0.00261931377630905 	0
7 	0.81409754634701 	-7.63278329429795e-17 	0.121162176183339 	0.016648038976294 	8.19640168678843 	0.00286303260430249 	0
7 	0.82091883823354 	-7.28583859910259e-17 	0.120195062678936 	0.0180509488469668 	6.90892932877027 	0.00323751653845205 	0
7 	0.827990080799084 	-7.63278329429795e-17 	0.119177819006072 	0.0193174027182998 	5.98105035609671 	0.00369322605421681 	0
7 	0.835320435338452 	-8.67361737988404e-17 	0.118118104699163 	0.0204760769671683 	5.28623264619194 	0.00420087963646038 	0
7 	0.842919399102205 	-9.71445146547012e-17 	0.1170227551161 	0.021546982552827 	4.75034553017204 	0.00474165138990066 	0
7 	0.850796817628475 	-9.36750677027476e-17 	0.115898049846335 	0.0225442861010112 	4.32741197577716 	0.00530254776448223 	0
7 	0.858962897528209 	-8.32667268468867e-17 	0.114749205878833 	0.0234780959818155 	3.98754148014602 	0.00587510536639165 	0
7 	0.867428219740605 	-8.32667268468867e-17 	0.113578957188785 	0.0243555906728561 	3.71052142330369 	0.00645376516491894 	0
7 	0.876203753276036 	-8.67361737988404e-17 	0.11239333247662 	0.0251817392459294 	3.48221783908902 	0.00702740967045467 	0
7 	0.885300869464478 	-8.32667268468867e-17 	0.111229797444952 	0.0259604869497777 	3.29231211459785 	0.00757197099023845 	0
7 	0.894731356728046 	-7.63278329429795e-17 	0.110168541982967 	0.0266985438594166 	3.13236266533516 	0.00802544935219175 	0
7 	0.904507435897036 	-8.32667268468867e-17 	0.109249032908195 	0.0274076741281286 	2.99486522540842 	0.00832481157631075 	0
7 	0.914641776089484 	-9.36750677027476e-17 	0.108405964344627 	0.0280957809398097 	2.87476532258738 	0.00855426832439143 	0
7 	0.925147511175042 	-9.36750677027476e-17 	0.107559621820073 	0.0287607077143434 	2.76976741178995 	0.00876318214980204 	0
7 	0.936038256844763 	-9.0205620750794e-17 	0.106691086531732 	0.0293965778934 	2.67844829410812 	0.00895482365888771 	0
6.99999999999999 	0.947328128309123 	-9.0205620750794e-17 	0.105808177894407 	0.0299977042757912 	2.59936453463919 	0.00912904385350191 	0
6.99999999999999 	0.959031758647517 	-8.32667268468867e-17 	0.104914477143213 	0.0305584067610538 	2.53108577844357 	0.0092811200329269 	0
6.99999999999999 	0.97116431783326 	-7.63278329429795e-17 	0.104010971896299 	0.0310730123766839 	2.47221467672605 	0.0094082430668019 	0
6.99999999999999 	0.983741532459022 	-7.97972798949331e-17 	0.103099447658275 	0.0315360189095863 	2.42137687716726 	0.00950850340940966 	0
6.99999999999999 	0.996779706188592 	-8.67361737988404e-17 	0.102182167307161 	0.0319421779591352 	2.37722308524241 	0.00957994521102986 	0
6.99999999999999 	1.01029574096177 	-9.36750677027476e-17 	0.101261423158887 	0.0322865560015725 	2.33843642481325 	0.00962068813120214 	0
6.99999999999999 	1.02430715898026 	-1.04083408558608e-16 	0.100339554111992 	0.0325646057306944 	2.30374036869022 	0.00962906181213919 	0
6.99999999999999 	1.0388321255033 	-1.14491749414469e-16 	0.0994189747878072 	0.0327722423767214 	2.27190766726368 	0.00960362138816455 	0
6.99999999999999 	1.0538894724831 	-1.14491749414469e-16 	0.0985021421749352 	0.0329059223459788 	2.24177070837141 	0.00954316626868975 	0
6.99999999999999 	1.06949872307094 	-1.04083408558608e-16 	0.0975915139782503 	0.0329627250449773 	2.21223328614555 	0.00944677952445818 	0
6.99999999999999 	1.08568011702621 	-9.36750677027476e-17 	0.0966895090740655 	0.032940438163752 	2.18228367441646 	0.00931387652763303 	0
6.99999999999999 	1.1024546370618 	-1.00613961606655e-16 	0.0957984652509856 	0.0328376457746435 	2.15100883041983 	0.0091442623980779 	0
6.99999999999999 	1.11984403616019 	-1.17961196366423e-16 	0.0949205946315143 	0.0326538176363012 	2.11760940568348 	0.0089381995109121 	0
6.99999999999999 	1.1378708658964 	-1.21430643318376e-16 	0.0940579394044793 	0.0323893967077899 	2.08141503003998 	0.00869648271736023 	0
6.99999999999999 	1.1565585058048 	-1.14491749414469e-16 	0.0932123303958526 	0.0320458801406757 	2.04189907605581 	0.0084205164625199 	0
6.99999999999999 	1.17593119382843 	-1.14491749414469e-16 	0.0923853513098684 	0.0316258871555086 	1.99869182890906 	0.00811238476337526 	0
6.99999999999999 	1.19601405789081 	-1.21430643318376e-16 	0.0915783123080881 	0.0311332055234483 	1.95159072683941 	0.00777490234496477 	0
6.99999999999999 	1.21683314863162 	-1.28369537222284e-16 	0.0907922373898965 	0.0305728072138522 	1.90056616311639 	0.00741163424943229 	0
6.99999999999999 	1.23841547334936 	-1.21430643318376e-16 	0.090027869405547 	0.0299508234645262 	1.84576131964579 	0.00702687239182753 	0
6.99999999999999 	1.26078903119553 	-1.14491749414469e-16 	0.0892856935273918 	0.0292744703954274 	1.78748469587401 	0.00662555972152935 	0
6.99999999999999 	1.28398284966642 	-1.21430643318376e-16 	0.0885659779681764 	0.0285519186742903 	1.72619445463689 	0.00621315565446744 	0
6.99999999999999 	1.30802702244064 	-1.21430643318376e-16 	0.0878688339225538 	0.0277921047826873 	1.66247444236953 	0.00579544438697461 	0
6.99999999999999 	1.33295274861182 	-1.14491749414469e-16 	0.0871942968556664 	0.0270044864527658 	1.59700267055346 	0.00537830233631767 	0
6.99999999999999 	1.3587923733682 	-1.11022302462516e-16 	0.0865424144710307 	0.0261987498224436 	1.53051399078932 	0.00496745026582167 	0
6.99999999999999 	1.38557943017229 	-1.04083408558608e-16 	0.0859133077378544 	0.025384480968182 	1.46375952304815 	0.00456820856548083 	0
6.99999999999999 	1.41334868449605 	-9.36750677027476e-17 	0.0853071836688463 	0.0245708206095636 	1.39746606851644 	0.00418526498082302 	0
6.99999999999999 	1.44213617916894 	-8.32667268468867e-17 	0.0847243125899783 	0.0237661266647241 	1.33229912666637 	0.00382247157442183 	0
6.99999999999999 	1.47197928139822 	-7.63278329429795e-17 	0.0841649918040897 	0.0229776716087527 	1.26883295121751 	0.00348269951352557 	0
6.99999999999999 	1.50291673152326 	-7.28583859910259e-17 	0.083629498318093 	0.022211398962257 	1.20753020912883 	0.00316777108682431 	0
6.99999999999999 	1.53498869356751 	-6.93889390390723e-17 	0.0831180439374524 	0.0214717577176144 	1.14873253719994 	0.00287846726515043 	0
6.99999999999999 	1.56823680765458 	-6.24500451351651e-17 	0.0826307934588231 	0.0207616250552254 	1.09266190745836 	0.0026146136377374 	0
6.99999999999999 	1.60270424435682 	-5.55111512312578e-17 	0.0821679475784079 	0.0200823127598656 	1.03943115571454 	0.00237526479537378 	0
6.99999999999999 	1.63843576104759 	-4.85722573273506e-17 	0.0817296939961492 	0.0194336362102883 	0.98906058581033 	0.00215895699080167 	0
6.99999999999999 	1.67547776033086 	-4.85722573273506e-17 	0.0813158957337005 	0.0188140226971226 	0.941497389804638 	0.00196391232577344 	0
6.99999999999999 	1.71387835062449 	-5.20417042793042e-17 	0.0809258889320914 	0.0182206454585622 	0.896635739204088 	0.00178814561419727 	0
6.99999999999999 	1.75368740897619 	-4.85722573273506e-17 	0.0805588948940943 	0.0176495592398863 	0.854335361535943 	0.00162960120043803 	0
6.99999999999999 	1.79495664619428 	-5.20417042793042e-17 	0.0802147484366659 	0.0170957770803791 	0.814434348955054 	0.00148640308159751 	0
6.99999999999999 	1.83773967437788 	-5.20417042793042e-17 	0.0798937315332885 	0.0165532362696436 	0.776752361905655 	0.00135698130076582 	0
6.99999999999999 	1.88209207693479 	-4.85722573273506e-17 	0.0795952270974544 	0.0160164162953137 	0.741090219518364 	0.00123984039161363 	0
6.99999999999999 	1.92807148117784 	-4.16333634234434e-17 	0.0793177364613797 	0.0154849693644885 	0.707242536435163 	0.00113338086626162 	0
6.99999999999999 	1.97573763359436 	-3.46944695195361e-17 	0.0790464977338523 	0.0149311199526507 	0.67314973103971 	0.00103111960452954 	0
6.99999999999999 	2.04004996790234 	-3.81639164714898e-17 	0.0787469337624877 	0.0142705795648277 	0.63406618958528 	0.000918186540717627 	0
6.99999999999999 	2.11873460271874 	-4.16333634234434e-17 	0.0784405138794969 	0.013523935529611 	0.592334031205542 	0.000796824231512733 	0
6.99999999999999 	2.19463865000284 	-3.81639164714898e-17 	0.0781562093199682 	0.012791511061028 	0.554251574786212 	0.000679702873310462 	0
6.99999999999999 	2.26786037121375 	-3.46944695195361e-17 	0.0778739187271694 	0.0121048939566526 	0.521060179217456 	0.000568622785925731 	0
6.99999999999999 	2.33849455540975 	-3.46944695195361e-17 	0.0776003636445692 	0.0114644115731746 	0.492115370392303 	0.000470549604716762 	0
6.99999999999999 	2.40663264195736 	-3.46944695195361e-17 	0.0773655368455622 	0.010868073481241 	0.466868427244764 	0.000391376573960354 	0
6.99999999999999 	2.47236283890404 	-3.46944695195361e-17 	0.0771717724986755 	0.0103126540263309 	0.444877971917187 	0.000328501693498465 	0
6.99999999999999 	2.5357702371677 	-3.46944695195361e-17 	0.0770083538911768 	0.00979458250631682 	0.425813934556464 	0.000277207494941312 	0
6.99999999999999 	2.59693692069107 	-3.46944695195361e-17 	0.0768696058460209 	0.00931065993762549 	0.409431299773516 	0.000234201910274726 	0
6.99999999999999 	2.65594207270333 	-3.81639164714898e-17 	0.0767519940028916 	0.00885833137882494 	0.395532543164816 	0.00019738424655043 	0
6.99999999999999 	2.71286207822657 	-4.16333634234434e-17 	0.0766523297701079 	0.00843561367255438 	0.383949333276141 	0.000165373053559607 	0
6.99999999999999 	2.76777062295999 	-4.16333634234434e-17 	0.0765679695969572 	0.00804095199977855 	0.374542306080639 	0.000137299512957361 	0
6.99999999999999 	2.82073878866949 	-4.5102810375397e-17 	0.076496725787051 	0.00767306918524543 	0.36720144648626 	0.000112619022267669 	0
6.99999999999999 	2.87183514520654 	-4.85722573273506e-17 	0.0764367517094587 	0.00733084634120139 	0.361844688628315 	9.0975948326622e-05 	0
6.99999999999999 	2.92112583927513 	-4.85722573273506e-17 	0.076386479422753 	0.00701325341694986 	0.358416884582143 	7.21228472224567e-05 	0
6.99999999999999 	2.96867468006188 	-4.85722573273506e-17 	0.0763445711689691 	0.00671932046632462 	0.356889548033023 	5.58765028937592e-05 	0
