2 	0.205072354616569 	1.04083408558608e-17 	-0.00982058060558539 	0.00431088309409318 	1.0012033090158e-21
2 	0.212408496312278 	1.73472347597681e-17 	-0.0293756029417684 	0.012976177354123 	-6.85303004500936e-19
2 	0.220011849696444 	2.08166817117217e-17 	-0.0488100808978158 	0.0217121999412804 	-3.10402681151495e-18
2 	0.227892090090879 	2.42861286636753e-17 	-0.0677385553067984 	0.0303581935635382 	-1.76969370614424e-18
2 	0.236059238894912 	2.77555756156289e-17 	-0.0851807063051229 	0.0384857974489002 	1.5312165851522e-18
2 	0.244523675651455 	3.12250225675825e-17 	-0.0997997585366331 	0.0454869174445516 	-1.33424850383507e-18
2 	0.253296150510757 	2.42861286636753e-17 	-0.110686704019846 	0.0509246108202598 	-1.39387126923342e-18
2 	0.262387797103283 	1.73472347597681e-17 	-0.117907834607921 	0.0547930725069044 	1.71144971605379e-18
2 	0.271810145833298 	1.73472347597681e-17 	-0.122202410387088 	0.0573996164336371 	1.91015270996233e-19
2 	0.281575137604981 	1.38777878078145e-17 	-0.124407044962658 	0.0591085060552241 	6.97314924792439e-17
2 	0.291695137993028 	3.46944695195361e-18 	-0.12516569879643 	0.0602044441056647 	1.20651520624293e-16
2 	0.302182951869937 	-1.04083408558608e-17 	-0.124904795048754 	0.0608769574070482 	-7.87414892399892e-17
2 	0.313051838502261 	-1.04083408558608e-17 	-0.123893292708661 	0.0612458012702847 	-6.07255245903594e-17
2 	0.324315527128312 	-1.38777878078145e-17 	-0.122300437982288 	0.0613864028916197 	6.79978178002149e-21
2 	0.335988233029932 	-1.73472347597681e-17 	-0.120234347327413 	0.0613469591186111 	-9.617159261382e-20
2 	0.343811843742401 	-1.21430643318376e-17 	-0.118687321084309 	0.0612477268877646 	-1.35918754131847e-19
2 	0.349974543466137 	-1.73472347597681e-18 	-0.117359645663493 	0.061119922727467 	1.58860223817898e-19
2 	0.360643250453525 	3.46944695195361e-18 	-0.114941721678458 	0.0608434506864026 	2.0655699991788e-19
2 	0.373653210576471 	-3.46944695195361e-18 	-0.111791066761146 	0.0604128103564957 	-1.7334160564443e-19
2 	0.387134578547047 	-3.46944695195361e-18 	-0.108333180888698 	0.0598753930025226 	-5.63201204940379e-17
2 	0.401104243558479 	-6.93889390390723e-18 	-0.104579395824979 	0.0592358450425315 	-2.25630236694669e-17
2 	0.415579685947912 	-3.46944695195361e-18 	-0.100534656281102 	0.058495930319352 	1.43927464771294e-16
2 	0.430578996883082 	3.46944695195361e-18 	-0.0961983615343013 	0.0576550025425986 	-2.01693942998375e-17
2 	0.446120898632939 	0 	-0.0915645064755448 	0.0567102419729284 	-4.71426693575079e-17
2 	0.462224765434417 	0 	-0.0866211610978141 	0.0556567161388313 	5.37785190668559e-20
2 	0.47891064496744 	0 	-0.0813492092975658 	0.0544872944629816 	1.40559370326463e-19
2 	0.496199280450078 	-3.46944695195361e-18 	-0.075720139724233 	0.0531924242183637 	-1.43480541246613e-19
2 	0.51411213336558 	-1.38777878078145e-17 	-0.0696925067536416 	0.0517597544878514 	-4.78113550764128e-20
2 	0.532671406832755 	-1.38777878078145e-17 	-0.0632063990082574 	0.0501735909275004 	4.45174382993339e-20
2 	0.55190006963092 	-1.04083408558608e-17 	-0.0561747641522364 	0.0484142194584974 	4.10550194946726e-20
2 	0.571821880890275 	-2.08166817117217e-17 	-0.0484697171864378 	0.0464571196962647 	4.04355701540143e-21
2 	0.592461415458213 	-2.77555756156289e-17 	-0.0399028227732441 	0.044271666802357 	1.69589680324067e-19
2 	0.613844089951641 	-2.77555756156289e-17 	-0.030209013418016 	0.0418204070333292 	-1.87519995998157e-19
2 	0.635996189504907 	-2.77555756156289e-17 	-0.019055376517339 	0.0390640305040536 	-3.37328751455713e-21
2 	0.658944895222394 	-2.77555756156289e-17 	-0.00606350703736849 	0.0359695588806041 	2.67859524674484e-21
2 	0.682718312344272 	-3.46944695195361e-17 	0.00919437383146179 	0.0325124032522143 	-1.89465463194111e-17
2 	0.707345499133208 	-4.5102810375397e-17 	0.0272187634960263 	0.0286744073739673 	-1.69461160520974e-17
2 	0.732856496489168 	-4.85722573273506e-17 	0.0486255133551092 	0.024434748413622 	1.91697906062094e-17
2 	0.759282358298621 	-4.85722573273506e-17 	0.0745303685976299 	0.019767087016283 	1.69794278517696e-17
2 	0.786655182523666 	-4.16333634234434e-17 	0.106995569041288 	0.0145306724219247 	8.01654829106433e-20
2 	0.815008143035628 	-4.16333634234434e-17 	0.148378909978897 	0.00871547502133963 	3.5250223835992e-20
2 	0.844375522196749 	-4.16333634234434e-17 	0.199847013451001 	0.00252183101922197 	-2.58555484672858e-17
2 	0.874792744192521 	-3.12250225675825e-17 	0.260883151431322 	-0.0036345693999787 	-2.15423774643379e-16
2 	0.906296409116096 	-3.12250225675825e-17 	0.329481582357858 	-0.00924637191825546 	2.19481518659268e-16
2 	0.938924327805022 	-3.46944695195361e-17 	0.402629081403642 	-0.0138366121344952 	2.35791422304719e-17
2 	0.972715557429289 	-2.77555756156289e-17 	0.477093937506894 	-0.0170786977408512 	-5.18148028121144e-18
2 	1.00771043782838 	-1.73472347597681e-17 	0.550222417110631 	-0.0189160217932505 	-4.20470082948248e-18
2 	1.04395062859357 	-1.38777878078145e-17 	0.618806426910006 	-0.0195219521636211 	-4.42147885757352e-19
2 	1.08147914689038 	-6.93889390390723e-18 	0.678972418653371 	-0.0193080325849414 	2.30678780152795e-19
2 	1.12034040601435 	-5.09575021068187e-18 	0.728518726344828 	-0.018751513059669 	2.26601806508487e-19
2 	1.16058025467217 	-1.09504419421036e-17 	0.767513775881525 	-0.0182237533024162 	-1.75633144303005e-19
2 	1.20224601697806 	-2.38524477946811e-18 	0.798233393973756 	-0.0179114243342253 	-4.93214694592852e-23
2 	1.24538653315405 	4.33680868994202e-18 	0.823249944233559 	-0.0178411813186885 	1.31283500897555e-19
2 	1.29005220092107 	3.46944695195361e-18 	0.844755104011511 	-0.0179557806878948 	-2.49815186834021e-19
2 	1.33629501756585 	3.46944695195361e-18 	0.864308885863969 	-0.0181698616582313 	2.36022992133747e-19
2 	1.38416862266729 	-8.67361737988404e-19 	0.882873485980218 	-0.0184045272841223 	-1.0245363177817e-19
2 	1.43372834146403 	-1.73472347597681e-18 	0.900965256286281 	-0.018600425187697 	4.05413509120929e-21
2 	1.48503122884324 	0 	0.918807433073812 	-0.0187195956977234 	5.24046305047016e-20
2 	1.5381361139295 	3.46944695195361e-18 	0.9364511178543 	-0.0187407515527113 	-2.6505032252742e-20
2 	1.59310364525038 	1.04083408558608e-17 	0.953853776080189 	-0.018652594165416 	-6.32143996018117e-20
2 	1.64999633645471 	1.38777878078145e-17 	0.970921739949018 	-0.0184495109116609 	2.98800527794917e-20
2 	1.70887861255757 	1.38777878078145e-17 	0.987532357740378 	-0.01813000051002 	1.12180093175796e-20
2 	1.76981685668514 	3.46944695195361e-18 	1.00354999891386 	-0.0176963512129497 	1.52986209400186e-20
2 	1.83287945729168 	3.46944695195361e-18 	1.01883716805698 	-0.0171546419334777 	-1.24064241365473e-20
2 	1.89813685582002 	6.93889390390723e-18 	1.03325747789736 	-0.016514204378564 	-8.73009564981403e-21
2 	1.93291462171654 	0 	1.04050429703807 	-0.0161546882905101 	3.44878512074481e-21
2 	1.96725302694011 	-3.46944695195361e-18 	1.04636428434111 	-0.0158113388352863 	2.17962990543174e-21
2 	2.02025965173185 	-6.93889390390723e-18 	1.05593988423883 	-0.0152140983106086 	1.65186965398749e-21
2 	2.06006301192217 	-6.93889390390723e-18 	1.06295699386914 	-0.0147111477799957 	0
2 	2.09845978584128 	-6.93889390390723e-18 	1.06873959603287 	-0.0142477286711132 	0
2 	2.13549967996946 	-6.93889390390723e-18 	1.07385884603709 	-0.0137987417864575 	0
2 	2.17123064424048 	-6.93889390390723e-18 	1.07837373235483 	-0.0133637411685009 	0
2 	2.20569893411516 	-6.93889390390723e-18 	1.08233682880921 	-0.0129434971503717 	0
2 	2.23894917046123 	-6.93889390390723e-18 	1.08579455056694 	-0.0125384761830822 	0
2 	2.27102439731726 	-6.93889390390723e-18 	1.08878748897574 	-0.012148693260017 	0
2 	2.30196613761522 	-1.04083408558608e-17 	1.09135077418663 	-0.0117738653655658 	0
2 	2.33181444693392 	-6.93889390390723e-18 	1.09351444617234 	-0.0114135197391455 	0
2 	2.3606079653529 	3.46944695195361e-18 	1.09530382167704 	-0.0110670617694272 	0
2 	2.38838396747391 	3.46944695195361e-18 	1.09673984830504 	-0.0107338271547512 	0
2 	2.41517841067461 	-3.46944695195361e-18 	1.0978394404891 	-0.0104131220716015 	0
2 	2.44102598165723 	0 	1.09861579535188 	-0.0101042525237619 	0
2 	2.46596014135208 	6.93889390390723e-18 	1.0990786895884 	-0.00980654490369785 	0
2 	2.49001316823444 	6.93889390390723e-18 	1.09923476140732 	-0.00951935981233997 	0
2 	2.51321620011055 	3.46944695195361e-18 	1.09908778408973 	-0.00924210084732005 	0
2 	2.53559927442701 	0 	1.0986389396271 	-0.00897421971900827 	0
2 	2.55719136715572 	-3.46944695195361e-18 	1.09788710192318 	-0.00871521872038545 	0
2 	2.57802043030466 	-6.93889390390723e-18 	1.09682913889002 	-0.00846465126371222 	0
2 	2.59811342810316 	-6.93889390390723e-18 	1.09546024110559 	-0.00822212091511003 	0
2 	2.61749637190833 	-6.93889390390723e-18 	1.09377428123738 	-0.00798727911741449 	0
2 	2.63619435387807 	-6.93889390390723e-18 	1.09176420301218 	-0.0077598216006809 	0
2 	2.65423157945407 	0 	1.0894224312544 	-0.00753948334818484 	0
2 	2.67163139869692 	6.93889390390723e-18 	1.08674128596957 	-0.00732603192400222 	0
2 	2.68841633651389 	3.46944695195361e-18 	1.08371337466372 	-0.00711925898437978 	2.20664704504116e-16
2 	2.70460812181851 	0 	1.08033192954483 	-0.00691896989047738 	2.12569550897403e-16
2 	2.72022771565973 	-3.46944695195361e-18 	1.07659105162002 	-0.00672497150476304 	-2.36773711591848e-16
2 	2.73529533835695 	-6.93889390390723e-18 	1.07248582342471 	-0.00653705846379619 	-2.28678557985081e-16
2 	2.74983049567626 	-3.46944695195361e-18 	1.06801225693783 	-0.0063549984408275 	0
2 	2.76385200408157 	0 	1.06316705282922 	-0.00617851710155522 	0
2 	2.77737801509344 	3.46944695195361e-18 	1.05794716009154 	-0.00600728357876227 	0
2 	2.79042603878709 	6.93889390390723e-18 	1.05234913902372 	-0.00584089732387794 	0
2 	2.80301296646004 	6.93889390390723e-18 	1.04636834288206 	-0.00567887713394489 	0
2 	2.81515509249873 	6.93889390390723e-18 	1.03999794213011 	-0.00552065302074566 	0
2 	2.82686813547238 	6.93889390390723e-18 	1.03322781886666 	-0.00536556142126565 	0
2 	2.83816725848143 	3.46944695195361e-18 	1.02604335762574 	-0.00521284408879765 	0
2 	2.84906708878692 	6.93889390390723e-18 	1.01842415333438 	-0.00506165089218498 	0
2 	2.85958173674617 	1.04083408558608e-17 	1.01034264955541 	-0.00491104672595078 	0
2 	2.86972481407934 	3.46944695195361e-18 	1.0017627123682 	-0.00476002286299239 	0
2.00000000000001 	2.87950945149044 	6.93889390390723e-18 	0.992638139472958 	-0.00460751338759524 	0
2.00000000000001 	2.88894831566567 	1.73472347597681e-17 	0.982911102128388 	-0.00445241721968263 	0
2 	2.89805362567107 	1.73472347597681e-17 	0.972510520472207 	-0.00429362421800832 	0
2 	2.90683716877068 	6.93889390390723e-18 	0.961350380651914 	-0.00413004554949856 	0
2 	2.9153103156857 	0 	0.949328012939589 	-0.00396067776766305 	0
2 	2.92348403531449 	-3.46944695195361e-18 	0.93632230608564 	-0.00378481597468456 	0
2 	2.9313689089323 	-6.93889390390723e-18 	0.922180988090027 	-0.00360155932109577 	0
2 	2.93897514388926 	0 	0.906682331212415 	-0.00340886500844334 	0
2 	2.94631258682426 	1.73472347597681e-17 	0.889511270967629 	-0.00320403555878807 	0
2 	2.95339073641194 	2.77555756156289e-17 	0.870308006414124 	-0.00298463758698236 	0
2 	2.96021875565916 	2.08166817117217e-17 	0.848724498977553 	-0.00275036556811288 	0
2 	2.96680548376698 	1.38777878078145e-17 	0.824418728479077 	-0.00250298461316929 	0
2 	2.97315944757338 	1.38777878078145e-17 	0.797029746134121 	-0.00224554959090241 	0
2 	2.97928887259172 	1.38777878078145e-17 	0.766154158316185 	-0.0019821124352856 	0
2 	2.98520169365903 	1.38777878078145e-17 	0.731313563528505 	-0.00171743942813796 	0
2 	2.99090556520807 	1.38777878078145e-17 	0.691907354785034 	-0.00145664715976057 	0
2 	2.99640787117634 	1.38777878078145e-17 	0.647170300642931 	-0.00120488105208191 	0
2 	3.00171573456493 	1.38777878078145e-17 	0.596158167503466 	-0.000967243529749157 	0
2 	3.00683602665963 	1.38777878078145e-17 	0.53771011069788 	-0.000748359335615968 	0
2 	3.01177537592613 	1.04083408558608e-17 	0.470409270946867 	-0.000551448922008867 	0
2 	3.01654017659086 	6.93889390390723e-18 	0.39327772718775 	-0.000378829516148878 	0
2 	3.02113659691865 	6.93889390390723e-18 	0.307722501797209 	-0.000234130758220963 	0
2 	3.02557058719785 	6.93889390390723e-18 	0.218122301155543 	-0.000122787061360011 	0
2 	3.02984788744325 	1.04083408558608e-17 	0.129056651252195 	-4.84029783778218e-05 	0
