5 	0.00391112967796254 	-3.46944695195361e-18 	0.158298085474604 	2.20856906766619e-05 	792.004053109876 	2.85713038849385e-06 	4.42112633793066e-38
5 	0.0118766651674912 	-6.93889390390723e-18 	0.158292281522161 	0.000214449409081974 	281.275748642562 	3.34691784606931e-05 	0
5 	0.0201340015485759 	-6.93889390390723e-18 	0.158275650132756 	0.000948855202235889 	65.839418745622 	0.000116479544959416 	0
5 	0.0286938283423949 	-6.93889390390723e-18 	0.158244228703568 	0.00244118671542472 	26.3845383284233 	0.000139630851061092 	0
5 	0.0375672266585909 	-1.38777878078145e-17 	0.158192836652716 	0.00430888675098915 	13.899969143689 	5.86530103419357e-05 	0
5 	0.0467656835403032 	-2.42861286636753e-17 	0.158121395672834 	0.00609091375737909 	8.87644224724651 	3.45784308145989e-05 	0
5 	0.0563011068347007 	-3.46944695195361e-17 	0.158034470613642 	0.00764957517536232 	6.46609496392411 	9.19859713879032e-05 	0
5 	0.0661858406082649 	-3.46944695195361e-17 	0.157936988398192 	0.00901777172878614 	5.11758572989748 	0.000182819691542078 	0
5 	0.0764326811267816 	-3.12250225675825e-17 	0.15783197956047 	0.0102485940290371 	4.27129241995302 	0.000283212509729456 	0
5 	0.0870548934207259 	-3.12250225675825e-17 	0.157721073947012 	0.0113819248787932 	3.69577225784166 	0.000387296828889337 	0
5 	0.0980662284574839 	-3.12250225675825e-17 	0.157605369359817 	0.0124451833067228 	3.28171677140831 	0.000494293852856524 	0
5 	0.109480940942647 	-3.12250225675825e-17 	0.157485791487325 	0.0134574579098803 	2.97159138878281 	0.000604697886651921 	0
5 	0.121313807773416 	-3.12250225675825e-17 	0.157363186999978 	0.0144324933577718 	2.73244181654 	0.000719336982809656 	0
5 	0.13358014716801 	-3.81639164714898e-17 	0.157238363998109 	0.0153805512588883 	2.54410540911072 	0.000839140504225002 	0
5 	0.146295838495838 	-3.81639164714898e-17 	0.157112121419093 	0.0163095568816188 	2.39358575595562 	0.000965086174005449 	0
5 	0.159477342834115 	-3.46944695195361e-17 	0.156985266486539 	0.017225819920695 	2.2721488926924 	0.00109819647645049 	0
5 	0.173141724277517 	-2.77555756156289e-17 	0.156858622669143 	0.0181344992606214 	2.17372451238229 	0.00123954934104746 	0
5 	0.18730667202848 	-1.73472347597681e-17 	0.156733032041314 	0.0190399095580465 	2.09397727476489 	0.00139029272047931 	0
5 	0.201990523296728 	-2.08166817117217e-17 	0.156609354228313 	0.0199457265894435 	2.02974251734831 	0.00155165988094329 	0
5 	0.217212287037675 	-2.77555756156289e-17 	0.156488462899839 	0.0208551251677476 	1.97866997429379 	0.00172498440948687 	0
5 	0.232991668560441 	-3.46944695195361e-17 	0.15637124033026 	0.0217708700394272 	1.93899123574044 	0.00191171448455204 	0
5 	0.249349095037321 	-4.16333634234434e-17 	0.156258570370255 	0.022695372182238 	1.90936346281811 	0.0021134259293417 	0
5 	0.266305741947753 	-4.5102810375397e-17 	0.156151330081868 	0.0236307179844738 	1.88876152871075 	0.00233183331051726 	0
5 	0.283883560490998 	-4.85722573273506e-17 	0.156050380338501 	0.0245786756149616 	1.8764016929737 	0.00256879795077501 	0
5 	0.30210530600303 	-4.85722573273506e-17 	0.155956555879052 	0.0255406807778624 	1.87168621935418 	0.00282633127613209 	0
4.99999999999999 	0.320994567414413 	-5.20417042793042e-17 	0.155870654302907 	0.0265178025920537 	1.87416209099886 	0.00310659159572103 	0
4.99999999999999 	0.340575797787321 	-6.24500451351651e-17 	0.15579341825332 	0.0275106893264125 	1.88348925651006 	0.00341188109564153 	0
4.99999999999999 	0.350726380773491 	-6.85215773010839e-17 	0.155756491756655 	0.0280201695864524 	1.88999798626899 	0.003574166919246 	0
5 	0.361059777574914 	-6.50521303491303e-17 	0.155724916560283 	0.0285284673835398 	1.89956051177901 	0.00374762187411501 	0
5 	0.381921238654768 	-6.24500451351651e-17 	0.155667420073575 	0.0295435139168263 	1.92167797791888 	0.00410707708848049 	0
5 	0.403737460312803 	-6.24500451351651e-17 	0.155619821442018 	0.0305817909801032 	1.95023885373772 	0.00450219260210015 	0
5 	0.426352782500347 	-6.24500451351651e-17 	0.155583172619515 	0.0316321385438343 	1.98496267430036 	0.00493236738258878 	0
5 	0.449796471605112 	-5.55111512312578e-17 	0.155557890360084 	0.0326914036419851 	2.02575023064752 	0.00539990805376244 	0
5 	0.474098865585394 	-5.20417042793042e-17 	0.155543992964408 	0.0337551838993382 	2.07249328914403 	0.00590687169755987 	0
5 	0.499291413181954 	-6.24500451351651e-17 	0.155540173301615 	0.0348175759103083 	2.12505117642904 	0.00645506458683105 	0
5 	0.525406714562858 	-6.93889390390723e-17 	0.155545879983854 	0.035870870736976 	2.1832217179713 	0.00705757280393572 	0
5 	0.552478563453479 	-6.59194920871187e-17 	0.155576191366512 	0.0369060821768275 	2.24677179426622 	0.00775391206436016 	0
5 	0.580541990805747 	-6.24500451351651e-17 	0.155666088533508 	0.037914904925256 	2.31553494935374 	0.00857610855134549 	0
5 	0.609633310062684 	-6.93889390390723e-17 	0.155817350874819 	0.0388867995841127 	2.38895567408645 	0.00949288258691491 	0
5 	0.639790164076284 	-8.32667268468867e-17 	0.155979859141037 	0.0397941457431664 	2.46449759841415 	0.0104660086574973 	0
5 	0.671051573738892 	-8.67361737988404e-17 	0.156115866338734 	0.0405828415310114 	2.53683802409401 	0.0113775546642755 	0
5 	0.703457988390393 	-8.67361737988404e-17 	0.156221385795874 	0.0411888265525747 	2.59938926538697 	0.0121325941645262 	0
5 	0.737051338065788 	-7.63278329429795e-17 	0.156304431230216 	0.041555398520898 	2.64630814134823 	0.0126946892863254 	0
5 	0.771875087650011 	-6.24500451351651e-17 	0.156369517612602 	0.041639824795969 	2.67374663942459 	0.0130557530491028 	0
5 	0.807974293009291 	-6.59194920871187e-17 	0.156414233473327 	0.0414129223238527 	2.67999607545616 	0.0132089249608317 	0
4.99999999999999 	0.845395659170797 	-7.28583859910259e-17 	0.156430909887873 	0.0408574625610772 	2.66477791188318 	0.0131391900740001 	0
4.99999999999999 	0.884187600624921 	-8.32667268468867e-17 	0.1564092645496 	0.0399690044082894 	2.62840609399387 	0.012830294530696 	0
4.99999999999999 	0.924400303827172 	-9.36750677027476e-17 	0.156338444344893 	0.0387591060975119 	2.57134354841894 	0.0122777469226716 	0
4.99999999999999 	0.966085791979409 	-1.04083408558608e-16 	0.156208147021792 	0.0372585677149151 	2.49417598631509 	0.011498409566747 	0
4.99999999999999 	1.009297992173 	-1.04083408558608e-16 	0.156009100292809 	0.035518243152864 	2.39780445661834 	0.0105322760687662 	0
4.99999999999999 	1.05409280497942 	-9.36750677027476e-17 	0.155733298991627 	0.0336062403976779 	2.28370289874245 	0.00943699000232322 	0
5 	1.10052817657679 	-8.67361737988404e-17 	0.155374223494552 	0.0316028529360141 	2.15442402869246 	0.00827878114282994 	0
5 	1.14866417350412 	-8.84708972748172e-17 	0.154926867523528 	0.0295993455433971 	2.01554547249729 	0.00712640845089154 	0
4.99999999999999 	1.19856306013805 	-9.62771529167128e-17 	0.154387737010752 	0.0276825483291029 	1.87462626147835 	0.00604419952518815 	0
4.99999999999999 	1.25028937899049 	-1.02348685082632e-16 	0.153755135503872 	0.0259071782286227 	1.73605960745526 	0.00508015328880931 	0
4.99999999999999 	1.30391003392871 	-1.04083408558608e-16 	0.153029454331861 	0.0242972807215214 	1.60222971837997 	0.00425949034648011 	0
4.99999999999999 	1.3594943764233 	-1.00613961606655e-16 	0.152213587808754 	0.0228556740405014 	1.47551064597237 	0.00358360666116996 	0
4.99999999999999 	1.41711429493286 	-9.93129189996722e-17 	0.151313067590631 	0.0215666215404663 	1.35757334305856 	0.00303559879118797 	0
4.99999999999999 	1.47684430753811 	-9.6710833785707e-17 	0.150335233785484 	0.020403461922533 	1.24949227336465 	0.0025910062556101 	0
4.99999999999999 	1.53876165794225 	-8.90672084696842e-17 	0.149287776081695 	0.0193325046922044 	1.1510551575962 	0.0022219343887444 	0
4.99999999999999 	1.60294641495791 	-8.73324849937074e-17 	0.148175584629379 	0.0183135304312542 	1.05929692973916 	0.00190740987059973 	0
4.99999999999999 	1.66948157560584 	-9.0205620750794e-17 	0.147008116785795 	0.017314452196713 	0.972758888865407 	0.00163503806455573 	0
4.99999999999999 	1.73845317195409 	-9.36750677027476e-17 	0.14582532831198 	0.0163144082247931 	0.892621407482121 	0.00138998823813841 	0
4.99999999999999 	1.80995038183128 	-9.71445146547012e-17 	0.144639712573551 	0.0153004719965038 	0.820959035851859 	0.00116077527773217 	0
4.99999999999999 	1.88406564355184 	-9.71445146547012e-17 	0.143432707706586 	0.0142695659921789 	0.759362073941923 	0.000952135811229303 	0
4.99999999999999 	1.96089477479579 	-1.00613961606655e-16 	0.142218391182047 	0.0132391444014828 	0.7079596364969 	0.000763496148999633 	0
4.99999999999999 	2.02025965173184 	-1.04083408558608e-16 	0.141300374945997 	0.0124371883407813 	0.675005695569421 	0.000629065219733256 	0
4.99999999999999 	2.06006301192217 	-1.04083408558608e-16 	0.140664545766321 	0.011884589206249 	0.65500283784797 	0.000541163666123789 	0
4.99999999999999 	2.09845978584128 	-1.04083408558608e-16 	0.140084940465802 	0.0113787731919143 	0.638966374406951 	0.000464870786263916 	0
4.99999999999999 	2.13549967996945 	-1.07552855510562e-16 	0.139535937477358 	0.0109001139799054 	0.62592325428369 	0.00039574188858851 	0
4.99999999999999 	2.17123064424048 	-1.11022302462516e-16 	0.13901671761265 	0.0104483249788559 	0.615742069633354 	0.000333257615665617 	0
4.99999999999999 	2.20569893411515 	-1.11022302462516e-16 	0.138526177502985 	0.0100229716020771 	0.608333061869921 	0.000277035531650078 	0
4.99999999999999 	2.23894917046122 	-1.11022302462516e-16 	0.138063092924362 	0.00962349954230192 	0.603641481789498 	0.000226730753079759 	0
4.99999999999999 	2.27102439731725 	-1.14491749414469e-16 	0.137626247911913 	0.00924927165371593 	0.601644586303634 	0.000182037245496645 	0
4.99999999999999 	2.30196613761521 	-1.17961196366423e-16 	0.137214446427681 	0.00889960557126898 	0.602350636970884 	0.000142691198993416 	0
4.99999999999999 	2.33181444693391 	-1.17961196366423e-16 	0.136826518181001 	0.0085738080365223 	0.60579902936789 	0.000108475218361308 	0
4.99999999999999 	2.3606079653529 	-1.21430643318376e-16 	0.136461326119164 	0.00827120410810409 	0.612061084935941 	7.92229862868934e-05 	0
4.99999999999999 	2.3883839674739 	-1.2490009027033e-16 	0.136117771445262 	0.00799116060834742 	0.621241244416872 	5.48238511315046e-05 	0
4.99999999999999 	2.41517841067461 	-1.28369537222284e-16 	0.135794796246812 	0.0077331037398753 	0.633478504294214 	3.52270901153978e-05 	0
4.99999999999999 	2.44102598165722 	-1.2490009027033e-16 	0.135491384452834 	0.00749653103489937 	0.64894798022403 	2.04457056316041e-05 	0
4.99999999999999 	2.46596014135207 	-1.21430643318376e-16 	0.135206561577473 	0.00728101783360822 	0.667862490159267 	1.05595845840221e-05 	0
4.99999999999999 	2.49001316823443 	-1.28369537222284e-16 	0.134939393596951 	0.00708621843489494 	0.690474041186498 	5.71778141682868e-06 	0
4.99999999999999 	2.51321620011054 	-1.28369537222284e-16 	0.13468898525595 	0.00691186199898536 	0.717075090040382 	6.13961780922435e-06 	0
4.99999999999999 	2.535599274427 	-1.2490009027033e-16 	0.134454478051459 	0.00675774326318105 	0.747999438315617 	1.21142569744782e-05 	0
4.99999999999999 	2.55719136715571 	-1.2490009027033e-16 	0.13423504809674 	0.00662370820054615 	0.783622629823921 	2.39984380669814e-05 	0
4.99999999999999 	2.57802043030465 	-1.21430643318376e-16 	0.134029904027075 	0.00650963493410018 	0.824361749374047 	4.22121723205474e-05 	0
4.99999999999999 	2.59811342810315 	-1.14491749414469e-16 	0.133838285071174 	0.00641541052343291 	0.870674587853861 	6.72324220577969e-05 	0
4.99999999999999 	2.61749637190832 	-1.11022302462516e-16 	0.133659459376158 	0.00634090464659581 	0.923058241860781 	9.95851003713077e-05 	0
4.99999999999999 	2.63619435387806 	-1.14491749414469e-16 	0.133492722639196 	0.00628594165349636 	0.982047353492514 	0.000139836106213376 	0
4.99999999999999 	2.65423157945406 	-1.17961196366423e-16 	0.13333739706518 	0.00625027287964982 	1.04821235292158 	0.000188582476036848 	0
4.99999999999999 	2.67163139869691 	-1.17961196366423e-16 	0.133192830638286 	0.00623355137069038 	1.12215821758247 	0.000246444992868093 	0
4.99999999999999 	2.68841633651388 	-1.21430643318376e-16 	0.133058396667978 	0.00623531117144264 	1.2045243742302 	0.000314063648394074 	0
4.99999999999999 	2.7046081218185 	-1.2490009027033e-16 	0.132933493549223 	0.006254953009386 	1.29598641162269 	0.000392097135855487 	0
4.99999999999999 	2.72022771565972 	-1.2490009027033e-16 	0.132817544664775 	0.00629173755209237 	1.39726022218985 	0.00048122705645212 	0
4.99999999999999 	2.73529533835694 	-1.2490009027033e-16 	0.132709998355183 	0.00634478652879248 	1.50910905371583 	0.000582166822804855 	0
4.99999999999999 	2.74983049567625 	-1.2490009027033e-16 	0.13261032788972 	0.0064130910389864 	1.63235375800528 	0.000695674480088031 	0
4.99999999999999 	2.76385200408156 	-1.2490009027033e-16 	0.132518031388309 	0.00649552552226389 	1.76788632953467 	0.000822568010274436 	0
4.99999999999999 	2.77737801509343 	-1.2490009027033e-16 	0.132432631664299 	0.00659086531039434 	1.916686705701 	0.000963741292617687 	0
4.99999999999999 	2.79042603878708 	-1.2490009027033e-16 	0.132353675952891 	0.00669780553429985 	2.07984282541778 	0.00112017886135157 	0
4.99999999999999 	2.80301296646003 	-1.28369537222284e-16 	0.132280735477258 	0.00681497942910071 	2.2585741751056 	0.00129296794818614 	0
4.99999999999999 	2.81515509249872 	-1.31838984174237e-16 	0.132213405144895 	0.00694097469271458 	2.45425952597734 	0.00148330695694247 	0
4.99999999999999 	2.82686813547237 	-1.28369537222284e-16 	0.132151304549393 	0.00707434736753071 	2.66847028674442 	0.00169251030390886 	0
4.99999999999999 	2.83816725848142 	-1.2490009027033e-16 	0.132094078155366 	0.00721363357639757 	2.9030118354496 	0.0019220106602198 	0
4.99999999999999 	2.84906708878691 	-1.2490009027033e-16 	0.13204137588973 	0.00735736021841879 	3.15997631452635 	0.00217397284622699 	0
4.99999999999999 	2.85958173674616 	-1.28369537222284e-16 	0.131992819269849 	0.00750405868192393 	3.44186654371521 	0.00245618510352505 	0
4.99999999999999 	2.86972481407933 	-1.31838984174237e-16 	0.131948191915553 	0.00765229524659006 	3.75222257139004 	0.00277635470208347 	0
4.99999999999999 	2.87950945149043 	-1.28369537222284e-16 	0.131907270141284 	0.00780055153661586 	4.09593527511754 	0.00313566161731493 	0
4.99999999999999 	2.88894831566566 	-1.2490009027033e-16 	0.131869772495592 	0.00794640522113998 	4.47739021556056 	0.00353992678349291 	0
4.99999999999999 	2.89805362567106 	-1.2490009027033e-16 	0.131835511015108 	0.00808580150758145 	4.89931752299003 	0.00398057232645153 	0
4.99999999999999 	2.90683716877067 	-1.2490009027033e-16 	0.131804253101997 	0.00821404500357941 	5.36412851085469 	0.0044526858353886 	0
4.99999999999999 	2.91531031568569 	-1.2490009027033e-16 	0.131775756516855 	0.0083263871416022 	5.87504075454151 	0.00495506392641711 	0
4.99999999999999 	2.92348403531448 	-1.2490009027033e-16 	0.131749809081982 	0.00841819267911092 	6.43685778357103 	0.0054885642201258 	0
4.99999999999999 	2.93136890893229 	-1.21430643318376e-16 	0.131726238912366 	0.00848488626104186 	7.05661393433868 	0.00605516765334699 	0
4.99999999999999 	2.93897514388925 	-1.2490009027033e-16 	0.131704910826012 	0.00852180226363726 	7.74428979334679 	0.00665768017577848 	0
4.99999999999999 	2.94631258682425 	-1.31838984174237e-16 	0.131685719352571 	0.00852397514483225 	8.51383393390707 	0.00729982875095647 	0
4.99999999999999 	2.95339073641193 	-1.31838984174237e-16 	0.131668582476723 	0.00848588390939051 	9.38506553908643 	0.00798646373980799 	0
4.99999999999999 	2.96021875565915 	-1.31838984174237e-16 	0.131653436492967 	0.00840108510738672 	10.3849114055676 	0.00872350678185786 	0
4.99999999999999 	2.96680548376697 	-1.31838984174237e-16 	0.131640232000714 	0.00826173034862422 	11.5499935067542 	0.00951725090004511 	0
4.99999999999999 	2.97315944757337 	-1.31838984174237e-16 	0.131628928970356 	0.00805782301869139 	12.9320171377255 	0.0103722140818669 	0
4.99999999999999 	2.97928887259171 	-1.31838984174237e-16 	0.131619488816608 	0.00777623134348954 	14.604960006776 	0.0112862470040112 	0
4.99999999999999 	2.98520169365902 	-1.31838984174237e-16 	0.131611862140842 	0.00739949124256822 	16.6765401806403 	0.0122404353222399 	0
4.99999999999999 	2.99090556520806 	-1.31838984174237e-16 	0.131605971981937 	0.00690458315868266 	19.3083634343604 	0.0131783914750737 	0
4.99999999999999 	2.99640787117632 	-1.28369537222284e-16 	0.131601704142234 	0.00626249300315291 	22.7540601651454 	0.0139766320760257 	0
4.99999999999999 	3.00171573456492 	-1.2490009027033e-16 	0.131598919415358 	0.00543973361907408 	27.4406032624398 	0.014389317268453 	0
4.99999999999999 	3.00683602665962 	-1.2490009027033e-16 	0.131597439512726 	0.00440403111575848 	34.1630552162312 	0.0137799943422494 	0
4.99999999999999 	3.01177537592612 	-1.2490009027033e-16 	0.131596905231102 	0.00316387261209199 	44.6093477629696 	0.0111748045065061 	0
4.99999999999999 	3.01654017659084 	-1.14491749414469e-16 	0.131596859974364 	0.00186889146368244 	63.1388215687385 	0.00662711414768704 	0
4.99999999999999 	3.02113659691863 	-1.04083408558608e-16 	0.131597014937627 	0.000828352833086103 	103.80881856994 	0.00239098902431989 	0
4.99999999999999 	3.02557058719783 	-1.04083408558608e-16 	0.13159731120595 	0.000250354939486943 	223.883768256685 	0.000455734567582643 	0
4.99999999999999 	3.02984788744323 	-1.04083408558608e-16 	0.131597794557924 	4.35664796672975e-05 	804.152797849751 	4.04902326389743e-05 	0
