3 	0.0039111296779626 	0 	-0.0329072182360112 	8.62298875570052e-05 	3.2988235473412e-21
3 	0.0118766651674914 	1.73472347597681e-18 	-0.0928412170736228 	0.000255936649031661 	3.7722462358356e-21
3 	0.0201340015485761 	5.20417042793042e-18 	-0.143436256888168 	0.000559929626995473 	-4.66917618442037e-21
3 	0.0286938283423949 	5.20417042793042e-18 	-0.179121387501984 	0.000889556012458934 	1.71299696320543e-21
3 	0.0375672266585909 	5.20417042793042e-18 	-0.198092966431599 	0.00113521522850035 	1.37879342881331e-21
3 	0.0467656835403032 	3.46944695195361e-18 	-0.20594470403457 	0.00128942934178552 	-2.98423328846771e-21
3 	0.0563011068347006 	0 	-0.208281592235806 	0.00138468092147441 	-2.53081334571321e-21
3 	0.0661858406082647 	0 	-0.208006594083327 	0.00144362210181223 	-4.51190075429419e-22
3 	0.0764326811267815 	3.46944695195361e-18 	-0.206367532885885 	0.00147716540806194 	8.78545070255568e-23
3 	0.0870548934207257 	6.93889390390723e-18 	-0.203912213090049 	0.00149086675722833 	-5.91151488898107e-22
3 	0.0980662284574838 	3.46944695195361e-18 	-0.200900849377651 	0.00148780203071035 	8.56048246606409e-23
3 	0.109480940942647 	-5.20417042793042e-18 	-0.19746582057377 	0.00146963289520845 	6.9117717061897e-22
3 	0.121313807773416 	-1.73472347597681e-18 	-0.193676936807573 	0.00143713127105405 	7.29291387402429e-22
3 	0.13358014716801 	3.46944695195361e-18 	-0.189570491933194 	0.00139047120801807 	8.18189497576347e-22
3 	0.146295838495838 	-3.46944695195361e-18 	-0.185163279020329 	0.00132938519594491 	3.43338980783242e-22
3 	0.159477342834115 	-1.38777878078145e-17 	-0.180459815608647 	0.00125324229957565 	2.82093448841213e-22
3 	0.173141724277517 	-2.42861286636753e-17 	-0.175456262868825 	0.00116108393336504 	7.22341476007781e-22
3 	0.18730667202848 	-2.42861286636753e-17 	-0.170142620967759 	0.00105163304613806 	-6.16632903401583e-22
3 	0.201990523296728 	-1.38777878078145e-17 	-0.164503966290002 	0.000923287194794465 	-5.99154251251339e-22
3 	0.217212287037676 	-1.04083408558608e-17 	-0.158521125032364 	0.000774098268141645 	5.52082988847745e-22
3 	0.232991668560441 	-2.08166817117217e-17 	-0.152170991323152 	0.000601741168416312 	1.15603041989034e-22
3 	0.249349095037321 	-2.08166817117217e-17 	-0.145426592594301 	0.000403471972528504 	4.61922504071045e-22
3 	0.266305741947753 	-1.38777878078145e-17 	-0.138256984030693 	0.000176076700020571 	5.48581258873592e-22
3 	0.283883560490998 	-1.38777878078145e-17 	-0.130627021504771 	-8.41883294261617e-05 	-1.19380380666655e-22
3 	0.30210530600303 	-1.73472347597681e-17 	-0.122497000677655 	-0.000381665092115466 	-1.04420011808453e-21
3 	0.320994567414413 	-2.42861286636753e-17 	-0.113822154310814 	-0.000721370875318134 	-2.464522371732e-22
3 	0.34057579778732 	-3.12250225675825e-17 	-0.104552005631597 	-0.00110908277356468 	0
3 	0.3608743459712 	-3.46944695195361e-17 	-0.094629547222375 	-0.00155142722573062 	-1.29562760142424e-17
3 	0.38191648941809 	-3.81639164714898e-17 	-0.083990203590175 	-0.00205596833979272 	-3.00949844873713e-17
3 	0.403729468200046 	-4.5102810375397e-17 	-0.0725605569506642 	-0.00263129119118978 	1.53361587205352e-17
3 	0.426341520272733 	-5.20417042793042e-17 	-0.0602567922421643 	-0.00328706661086994 	-1.0513235645108e-17
3 	0.449781918030828 	-5.89805981832114e-17 	-0.0469827668641557 	-0.00403408716818116 	2.46141030951118e-17
3 	0.474081006202548 	-6.24500451351651e-17 	-0.032627612504836 	-0.00488427639881754 	1.60828970912884e-17
3 	0.496091159820835 	-6.59194920871187e-17 	-0.0190716551916096 	-0.00572327507383451 	1.2922376952209e-21
3 	0.508912316744007 	-7.28583859910259e-17 	-0.0109724368572218 	-0.0062369213155568 	1.39672677615603e-21
3 	0.525382231502762 	-6.93889390390723e-17 	-0.000155448883655744 	-0.00694570475175365 	-3.28442084199726e-23
3 	0.552450780547767 	-6.24500451351651e-17 	0.0182750769306961 	-0.00818211588647607 	-9.50229666962742e-22
3 	0.580510929812849 	-5.55111512312578e-17 	0.0384841178392213 	-0.00957586765180466 	1.18142201706284e-21
3 	0.60959900451791 	-3.81639164714898e-17 	0.060976621443345 	-0.0111605810031067 	-1.39204532706653e-22
3 	0.639752660582032 	-3.46944695195361e-17 	0.0866584808159254 	-0.0129910772932206 	-1.89333397066365e-21
3 	0.671010933370886 	-4.16333634234434e-17 	0.116559045138198 	-0.0151241158540856 	-1.54311032267547e-21
3 	0.7034142882299 	-3.81639164714898e-17 	0.151341150030946 	-0.0175622982848962 	1.10135568655436e-21
3 	0.737004672868605 	-2.42861286636753e-17 	0.191190385755626 	-0.0202473272284797 	-3.91879064499552e-21
3 	0.771825571663975 	-2.08166817117217e-17 	0.235886526083151 	-0.0230774573074618 	-6.83579774333036e-21
3 	0.807922061953053 	-2.08166817117217e-17 	0.284875364716699 	-0.025930190067712 	2.68758074868452e-21
3 	0.845340872387742 	-1.04083408558608e-17 	0.337356968254951 	-0.0286879445559724 	5.36506827884006e-21
3 	0.884130443427308 	-3.46944695195361e-18 	0.392404315903193 	-0.0312531116143436 	-2.9890355729425e-17
3 	0.924340990046896 	0 	0.449074754565281 	-0.0335462604552091 	-1.2564494327138e-16
3 	0.966024566743241 	0 	0.506450901668063 	-0.0354938498291145 	1.29822337254518e-16
3 	1.00923513492173 	0 	0.563585495520377 	-0.0370186484166463 	2.14415297645642e-17
3 	1.05402863275205 	0 	0.619392606708731 	-0.0380451780322979 	-7.98554664612082e-24
3 	1.10046304758287 	0 	0.672586902135853 	-0.0385255702270183 	-9.547940580553e-21
3 	1.14859849100923 	0 	0.721829609668496 	-0.0384598862433625 	-1.04122992706697e-20
3 	1.19849727668994 	1.04083408558608e-17 	0.766296905644798 	-0.037868211435942 	-2.10929720812527e-20
3 	1.25022400101563 	1.73472347597681e-17 	0.805707026369509 	-0.0369304463981403 	-4.64922121745132e-22
3 	1.30384562673185 	1.73472347597681e-17 	0.840015891773922 	-0.0358286742176861 	-2.15576650277105e-20
3 	1.35943156962565 	1.98408997564847e-17 	0.86970174078906 	-0.0347609134240761 	-2.13112805580857e-20
3 	1.41705378838762 	1.76724954115137e-17 	0.895646057116863 	-0.0337880377178654 	-6.30251719321779e-18
3 	1.47678687776592 	1.34441069388203e-17 	0.91897455286587 	-0.0328934156491486 	-1.78738196133517e-17
3 	1.53870816513277 	1.12757025938492e-17 	0.940555274758081 	-0.0320302557828528 	1.39591067967743e-20
3 	1.60289781058851 	1.30104260698261e-17 	0.960908608770545 	-0.0311482224441218 	1.30654262643542e-20
3 	1.66943891073266 	1.21430643318376e-17 	0.980288933418612 	-0.0302050168960577 	-1.43283780049554e-21
3 	1.73841760623657 	1.21430643318376e-17 	0.998784862323727 	-0.0291686440338254 	-3.62473307352829e-21
3 	1.80992319335659 	1.56125112837913e-17 	1.01638939135667 	-0.0280189583697825 	-4.26563313777787e-21
3 	1.88404823953248 	1.21430643318376e-17 	1.03302656684174 	-0.0267459348409327 	-7.31652921673147e-21
3 	1.96088870322037 	6.93889390390723e-18 	1.04798781476017 	-0.0254093890306679 	-8.44987442385935e-21
3 	2.02025965173184 	6.93889390390723e-18 	1.05882447833342 	-0.0243094268503496 	-2.87225492041829e-21
3 	2.06006301192217 	6.93889390390723e-18 	1.06611630608333 	-0.0234807566252381 	0
3 	2.09845978584128 	6.93889390390723e-18 	1.07217617725576 	-0.0227273219426695 	0
3 	2.13549967996945 	6.93889390390723e-18 	1.0776156037855 	-0.0219949299111175 	0
3 	2.17123064424048 	6.93889390390723e-18 	1.08248220718738 	-0.0212819774592912 	0
3 	2.20569893411515 	6.93889390390723e-18 	1.08681907678483 	-0.0205894340823726 	0
3 	2.23894917046122 	6.93889390390723e-18 	1.09066483894816 	-0.0199179372983021 	0
3 	2.27102439731725 	3.46944695195361e-18 	1.09405380376585 	-0.0192676767818412 	0
3 	2.30196613761521 	3.46944695195361e-18 	1.09701616050078 	-0.0186385753476575 	0
3 	2.33181444693391 	6.93889390390723e-18 	1.09957819478994 	-0.0180303652999459 	0
3 	2.3606079653529 	6.93889390390723e-18 	1.10176250885059 	-0.0174426291066973 	0
3 	2.3883839674739 	6.93889390390723e-18 	1.10358823328138 	-0.0168748355925387 	0
3 	2.41517841067461 	1.04083408558608e-17 	1.10507122456318 	-0.0163263710672416 	0
3 	2.44102598165722 	1.38777878078145e-17 	1.10622424638958 	-0.0157965647076913 	0
3 	2.46596014135207 	1.38777878078145e-17 	1.10705713582602 	-0.0152847090840886 	0
3 	2.49001316823443 	1.73472347597681e-17 	1.10757695735232 	-0.0147900767045086 	-1.31666616700903e-16
3 	2.51321620011054 	2.08166817117217e-17 	1.10778814934725 	-0.0143119332313934 	-4.91029819428013e-16
3 	2.535599274427 	2.42861286636753e-17 	1.10769266865994 	-0.0138495478953626 	5.13667386545018e-16
3 	2.55719136715571 	2.42861286636753e-17 	1.10729013959528 	-0.0134022015326144 	1.35537015695547e-16
3 	2.57802043030465 	2.08166817117217e-17 	1.10657801382338 	-0.0129691925743047 	0
3 	2.59811342810315 	2.08166817117217e-17 	1.10555174722716 	-0.0125498412197953 	0
3 	2.61749637190832 	2.08166817117217e-17 	1.10420499829357 	-0.0121434919343716 	0
3 	2.63619435387806 	1.73472347597681e-17 	1.10252985010143 	-0.0117495143314292 	0
3 	2.65423157945406 	1.04083408558608e-17 	1.10051705410926 	-0.0113673024371737 	0
3 	2.67163139869691 	6.93889390390723e-18 	1.09815628882442 	-0.0109962723024946 	0
3 	2.68841633651388 	1.04083408558608e-17 	1.09543642034383 	-0.0106358579320531 	0
3 	2.7046081218185 	1.38777878078145e-17 	1.09234574534662 	-0.01028550555266 	0
3 	2.72022771565972 	1.38777878078145e-17 	1.08887219137616 	-0.00994466634417507 	0
3 	2.73529533835694 	1.38777878078145e-17 	1.08500344536944 	-0.00961278790046488 	0
3 	2.74983049567625 	1.38777878078145e-17 	1.08072698053125 	-0.00928930485952567 	0
3 	2.76385200408156 	1.38777878078145e-17 	1.07602995460327 	-0.00897362931613711 	0
3 	2.77737801509343 	1.04083408558608e-17 	1.07089895947382 	-0.0086651417785023 	0
3 	2.79042603878708 	6.93889390390723e-18 	1.06531961223285 	-0.00836318352599677 	0
3 	2.80301296646003 	1.04083408558608e-17 	1.05927598979388 	-0.00806705125199243 	0
3 	2.81515509249872 	1.38777878078145e-17 	1.05274992127522 	-0.00777599483131256 	0
3 	2.82686813547237 	1.38777878078145e-17 	1.0457201627039 	-0.00748921894378264 	0
3 	2.83816725848142 	1.04083408558608e-17 	1.03816148597795 	-0.00720588912218588 	0
3 	2.84906708878691 	6.93889390390723e-18 	1.03004371773226 	-0.00692514260982991 	0
3 	2.85958173674616 	6.93889390390723e-18 	1.02133076365673 	-0.00664610433565312 	0
3 	2.86972481407933 	3.46944695195361e-18 	1.01197964997107 	-0.00636790818423818 	0
3 	2.87950945149043 	0 	1.00193960613085 	-0.00608972170411791 	0
3 	2.88894831566566 	0 	0.991151201354043 	-0.00581076889006305 	0
3 	2.89805362567106 	3.46944695195361e-18 	0.979545533333042 	-0.0055303641250322 	0
3 	2.90683716877067 	1.04083408558608e-17 	0.96704336857433 	-0.00524808541542483 	0
3 	2.91531031568569 	1.38777878078145e-17 	0.953539303695005 	-0.00496339935060959 	0
3 	2.92348403531448 	1.38777878078145e-17 	0.93885010419392 	-0.00467418714690305 	0
3 	2.93136890893229 	1.38777878078145e-17 	0.922735079347554 	-0.0043777998158969 	0
3 	2.93897514388925 	1.38777878078145e-17 	0.90497522472452 	-0.0040727927504856 	0
3 	2.94631258682425 	1.38777878078145e-17 	0.88537795840431 	-0.00375961346524041 	0
3 	2.95339073641193 	1.73472347597681e-17 	0.8637595095591 	-0.00344010075758825 	0
3 	2.96021875565915 	2.08166817117217e-17 	0.839927939393683 	-0.00311683378297499 	0
3 	2.96680548376697 	1.73472347597681e-17 	0.813666424478082 	-0.00279287159738773 	0
3 	2.97315944757337 	1.38777878078145e-17 	0.784713992827759 	-0.00247158526732627 	0
3 	2.97928887259171 	1.38777878078145e-17 	0.752741291697866 	-0.00215649057865276 	0
3 	2.98520169365902 	1.73472347597681e-17 	0.717318579601899 	-0.00185111363896717 	0
3 	2.99090556520806 	2.08166817117217e-17 	0.677869574020948 	-0.00155888462958205 	0
3 	2.99640787117633 	2.42861286636753e-17 	0.63361532873511 	-0.0012829892708222 	0
3 	3.00171573456492 	2.77555756156289e-17 	0.583551268636729 	-0.0010265899856827 	0
3 	3.00683602665962 	2.77555756156289e-17 	0.526395251848675 	-0.000792769241401367 	0
3 	3.01177537592612 	2.77555756156289e-17 	0.460490581513736 	-0.000583244384774306 	0
3 	3.01654017659085 	2.77555756156289e-17 	0.384553608391388 	-0.000399526494912725 	0
3 	3.02113659691864 	2.42861286636753e-17 	0.29996022774667 	-0.000245385968517563 	0
3 	3.02557058719784 	2.08166817117217e-17 	0.211582998325554 	-0.000127178025404357 	0
3 	3.02984788744324 	2.42861286636753e-17 	0.124480363305104 	-4.88487722003423e-05 	0
