/*--------------------------------*- C++ -*----------------------------------*\
  =========                 |
  \\      /  F ield         | OpenFOAM: The Open Source CFD Toolbox
   \\    /   O peration     | Website:  https://openfoam.org
    \\  /    A nd           | Version:  7
     \\/     M anipulation  |
\*---------------------------------------------------------------------------*/
FoamFile
{
    version     2.0;
    format      ascii;
    class       volScalarField;
    location    "0";
    object      k_LES;
}
// * * * * * * * * * * * * * * * * * * * * * * * * * * * * * * * * * * * * * //

dimensions      [0 2 -2 0 0 0 0];

internalField   nonuniform List<scalar>
15600
(
0.00413013
0.00351056
-0.00027345
0.00112184
0.00020674
0.00004066
0.00069378
0.00092137
0.00052294
0.00052985
0.00051100
0.00048198
0.00045979
0.00025122
0.00046671
0.00084247
0.00081684
0.00115703
0.00120981
0.00143142
0.00170426
0.00083227
0.00101005
0.00125408
0.00140612
0.00154078
0.00174003
0.00177722
0.00196936
0.00196052
0.00200488
0.00203444
0.00209545
0.00207471
0.00213471
0.00211358
0.00209164
0.00204450
0.00201538
0.00199183
0.00196728
0.00194174
0.00191058
0.00185905
0.00184728
0.00179989
0.00176635
0.00174328
0.00173976
0.00168147
0.00161706
0.00158326
0.00158687
0.00156264
0.00147294
0.00152597
0.00144674
0.00147280
0.00133031
0.00128478
0.00127547
0.00128349
0.00124276
0.00115981
0.00112829
0.00107710
0.00107899
0.00106423
0.00100736
0.00097735
0.00095695
0.00095078
0.00094429
0.00092637
0.00089856
0.00088017
0.00085790
0.00083580
0.00081241
0.00078352
0.00077267
0.00075929
0.00073729
0.00075416
0.00072854
0.00069675
0.00067070
0.00065588
0.00063734
0.00062132
0.00061622
0.00059011
0.00057686
0.00057521
0.00055874
0.00056603
0.00057476
0.00059952
0.00066891
0.00140345
0.00103722
0.00085589
0.00018228
0.00006346
-0.00003119
0.00001844
0.00003951
-0.00015605
-0.00002854
-0.00009093
-0.00001458
-0.00009997
-0.00018502
-0.00066929
-0.00046694
-0.00023306
-0.00057945
-0.00008683
0.00074323
0.00244806
0.00787063
0.00861716
0.00196280
0.00373779
0.00271610
0.00187885
0.00224529
0.00235661
0.00174680
0.00177496
0.00172753
0.00189115
0.00180483
0.00214731
0.00255906
0.00303725
0.00337698
0.00388527
0.00427537
0.00443306
0.00449801
0.00427816
0.00521448
0.00609822
0.00676978
0.00733470
0.00791241
0.00830714
0.00878459
0.00903508
0.00927898
0.00933168
0.00942569
0.00949146
0.00954151
0.00963665
0.00963661
0.00951936
0.00947183
0.00939832
0.00938469
0.00927654
0.00913429
0.00893455
0.00883683
0.00866008
0.00853953
0.00844489
0.00843376
0.00837055
0.00812273
0.00786605
0.00774400
0.00764365
0.00755090
0.00748448
0.00736350
0.00722801
0.00691624
0.00673737
0.00664023
0.00644287
0.00629194
0.00614672
0.00603465
0.00590084
0.00577922
0.00567586
0.00550619
0.00542768
0.00532716
0.00525937
0.00522017
0.00514833
0.00504599
0.00495420
0.00485894
0.00475899
0.00465110
0.00452615
0.00446604
0.00437130
0.00426374
0.00416784
0.00406485
0.00396744
0.00384044
0.00375713
0.00364995
0.00355882
0.00348119
0.00336069
0.00327070
0.00320129
0.00313783
0.00312646
0.00315076
0.00318947
0.00336811
0.00485902
0.00516533
0.00550079
0.00427532
0.00344989
0.00194196
0.00170765
0.00184472
0.00077336
0.00106434
0.00044136
0.00037115
0.00019259
0.00091028
-0.00025016
-0.00006065
-0.00021575
0.00036125
0.00025710
0.00296348
0.00540950
0.01220498
0.01519105
0.00713366
0.00882176
0.00579498
0.00624308
0.00524711
0.00485488
0.00400777
0.00394769
0.00383657
0.00392968
0.00406640
0.00441581
0.00492202
0.00562722
0.00604093
0.00657901
0.00694048
0.00717478
0.00737904
0.00800543
0.00954434
0.01080229
0.01177665
0.01268899
0.01353615
0.01421047
0.01492419
0.01539047
0.01577519
0.01595540
0.01611893
0.01622404
0.01630461
0.01641449
0.01642623
0.01636417
0.01634828
0.01631489
0.01637189
0.01621736
0.01600427
0.01567687
0.01554017
0.01528315
0.01508761
0.01497961
0.01500716
0.01495857
0.01460676
0.01423778
0.01404602
0.01394216
0.01388993
0.01374686
0.01361528
0.01338745
0.01297062
0.01270980
0.01253426
0.01224223
0.01198876
0.01177287
0.01161658
0.01143117
0.01124522
0.01107124
0.01084209
0.01070829
0.01052532
0.01041783
0.01033851
0.01022186
0.01006443
0.00992814
0.00976808
0.00957633
0.00940762
0.00921324
0.00909480
0.00892750
0.00874023
0.00856972
0.00837226
0.00818766
0.00799350
0.00783090
0.00763124
0.00745567
0.00728672
0.00706416
0.00688103
0.00672538
0.00656428
0.00649288
0.00645431
0.00644807
0.00662262
0.00825871
0.00954397
0.01043723
0.01019619
0.00948315
0.00830844
0.00788464
0.00674365
0.00476249
0.00437601
0.00348803
0.00282993
0.00261763
0.00342726
0.00180682
0.00108949
0.00139179
0.00338639
0.00260345
0.00721782
0.00926570
0.01669888
0.02128916
0.01380396
0.01408286
0.00961417
0.00948572
0.00832740
0.00726924
0.00642450
0.00620657
0.00592834
0.00604036
0.00628994
0.00668735
0.00719799
0.00782204
0.00821246
0.00865916
0.00899148
0.00932176
0.00975422
0.01093617
0.01271919
0.01410237
0.01523041
0.01631969
0.01737291
0.01821828
0.01907498
0.01969820
0.02016966
0.02050317
0.02077022
0.02090095
0.02102244
0.02113691
0.02116810
0.02111052
0.02112591
0.02119860
0.02130008
0.02112656
0.02087282
0.02051637
0.02034694
0.02004305
0.01977628
0.01973404
0.01978578
0.01972729
0.01935181
0.01900091
0.01880840
0.01869775
0.01871071
0.01851751
0.01836472
0.01813203
0.01767922
0.01738814
0.01716176
0.01683421
0.01654612
0.01629341
0.01612622
0.01592087
0.01573962
0.01551778
0.01526780
0.01510040
0.01486785
0.01473859
0.01463544
0.01449615
0.01429495
0.01413717
0.01392979
0.01367557
0.01346571
0.01324604
0.01310531
0.01289428
0.01265648
0.01246164
0.01220201
0.01196732
0.01173996
0.01154634
0.01129543
0.01107039
0.01085695
0.01058102
0.01033175
0.01011376
0.00986965
0.00974311
0.00964144
0.00957265
0.00968239
0.01116038
0.01294153
0.01440517
0.01510087
0.01495326
0.01437024
0.01413965
0.01353837
0.01234173
0.01188105
0.01063918
0.00938709
0.00745244
0.00863677
0.00748481
0.00824222
0.00749450
0.01073083
0.00938937
0.01349411
0.01389928
0.02189514
0.02638542
0.02126137
0.01738798
0.01460249
0.01271121
0.01075019
0.00928780
0.00850916
0.00797776
0.00767059
0.00777321
0.00816723
0.00860119
0.00903626
0.00950443
0.00979432
0.01017520
0.01052366
0.01094154
0.01162761
0.01308810
0.01493491
0.01636431
0.01761169
0.01881155
0.02000262
0.02098019
0.02188147
0.02262418
0.02314848
0.02360405
0.02398861
0.02415627
0.02433030
0.02447651
0.02452896
0.02447588
0.02449425
0.02462723
0.02474771
0.02457737
0.02428133
0.02393726
0.02375614
0.02343240
0.02310535
0.02312801
0.02318318
0.02308720
0.02276406
0.02248040
0.02228782
0.02217068
0.02220493
0.02199159
0.02184189
0.02160686
0.02113945
0.02085349
0.02058262
0.02024317
0.01994621
0.01968975
0.01951988
0.01932618
0.01913164
0.01889215
0.01861746
0.01843473
0.01817772
0.01803206
0.01791201
0.01775724
0.01752080
0.01735603
0.01711208
0.01682874
0.01658052
0.01635855
0.01617782
0.01596384
0.01569345
0.01549532
0.01522306
0.01493761
0.01472642
0.01452215
0.01426684
0.01403747
0.01379536
0.01349945
0.01322288
0.01299019
0.01270654
0.01253966
0.01241014
0.01231065
0.01234730
0.01357435
0.01545423
0.01721138
0.01836685
0.01887254
0.01895066
0.01882160
0.01870681
0.01833380
0.01821520
0.01759658
0.01634754
0.01569275
0.01592179
0.01550810
0.01583445
0.01437521
0.01861003
0.01911677
0.02058470
0.01962904
0.02812384
0.03211246
0.02663239
0.01990253
0.01715873
0.01516956
0.01256559
0.01091862
0.01005517
0.00958838
0.00937295
0.00939532
0.00967457
0.00996380
0.01026965
0.01063761
0.01094790
0.01127184
0.01162153
0.01217647
0.01307516
0.01466561
0.01652865
0.01800889
0.01936083
0.02064864
0.02192285
0.02299945
0.02389785
0.02474579
0.02528666
0.02587064
0.02633550
0.02658084
0.02678899
0.02699729
0.02706080
0.02699182
0.02699046
0.02714751
0.02726350
0.02708302
0.02679141
0.02648089
0.02628850
0.02593333
0.02558295
0.02564583
0.02570854
0.02555781
0.02530975
0.02510651
0.02492837
0.02479150
0.02482219
0.02458563
0.02443640
0.02421339
0.02375261
0.02346363
0.02313332
0.02280536
0.02252148
0.02227311
0.02207663
0.02190365
0.02169200
0.02144164
0.02113776
0.02093588
0.02066720
0.02051379
0.02037430
0.02020600
0.01995517
0.01977541
0.01951591
0.01921244
0.01892744
0.01870725
0.01851469
0.01828297
0.01801660
0.01779739
0.01753893
0.01724241
0.01702370
0.01684073
0.01658770
0.01636260
0.01611918
0.01581805
0.01552881
0.01529096
0.01500648
0.01482217
0.01469934
0.01460090
0.01458527
0.01556050
0.01737825
0.01921470
0.02060114
0.02136266
0.02207941
0.02268738
0.02282222
0.02274859
0.02244583
0.02232205
0.02196325
0.02191333
0.02172302
0.02180315
0.02339809
0.02472901
0.02645744
0.02567866
0.02688783
0.02630348
0.03465079
0.03856525
0.03175632
0.02291372
0.01918144
0.01684932
0.01437953
0.01241359
0.01154412
0.01094294
0.01068099
0.01066010
0.01083087
0.01098744
0.01120435
0.01148046
0.01174453
0.01205208
0.01246268
0.01313985
0.01419993
0.01586974
0.01774190
0.01928833
0.02074238
0.02211846
0.02342517
0.02455973
0.02544128
0.02638486
0.02692664
0.02761038
0.02814955
0.02846307
0.02870321
0.02898128
0.02905293
0.02898327
0.02894446
0.02908693
0.02918807
0.02901023
0.02871262
0.02843851
0.02825104
0.02787249
0.02752303
0.02759655
0.02767558
0.02746806
0.02730204
0.02714796
0.02699826
0.02685019
0.02682761
0.02658224
0.02642623
0.02622851
0.02578822
0.02546284
0.02509575
0.02476914
0.02449956
0.02426436
0.02403311
0.02387688
0.02365639
0.02339520
0.02306274
0.02283184
0.02256358
0.02240428
0.02223942
0.02205692
0.02182171
0.02162074
0.02134852
0.02103206
0.02074084
0.02051164
0.02030733
0.02007657
0.01980861
0.01957002
0.01932835
0.01903257
0.01881124
0.01864496
0.01840739
0.01818336
0.01793394
0.01763547
0.01734322
0.01710516
0.01683598
0.01665137
0.01654571
0.01646584
0.01642541
0.01719086
0.01886039
0.02063069
0.02210767
0.02308062
0.02406993
0.02473229
0.02530864
0.02571148
0.02591404
0.02563551
0.02540963
0.02595050
0.02639763
0.02700208
0.02810363
0.03013053
0.03121312
0.02955422
0.03104366
0.03276755
0.04081939
0.04466077
0.03817164
0.02569925
0.02115157
0.01832474
0.01563712
0.01374401
0.01262483
0.01205092
0.01177370
0.01164908
0.01167842
0.01172553
0.01185010
0.01208196
0.01231200
0.01264475
0.01312099
0.01392653
0.01510780
0.01683498
0.01873008
0.02034869
0.02191119
0.02337067
0.02467951
0.02582194
0.02669927
0.02772765
0.02827547
0.02900922
0.02961385
0.02999770
0.03027151
0.03061542
0.03070438
0.03059791
0.03054776
0.03065470
0.03072648
0.03054270
0.03024011
0.02999498
0.02980663
0.02944590
0.02910415
0.02916828
0.02925327
0.02901828
0.02891936
0.02877901
0.02865085
0.02849573
0.02841086
0.02816325
0.02801470
0.02782845
0.02739562
0.02703616
0.02664876
0.02631241
0.02606337
0.02581960
0.02556680
0.02542697
0.02519164
0.02491977
0.02456901
0.02430879
0.02404274
0.02386644
0.02368120
0.02349304
0.02327446
0.02305078
0.02278278
0.02247045
0.02217669
0.02193793
0.02172120
0.02147949
0.02122716
0.02096958
0.02074237
0.02045210
0.02022824
0.02006790
0.01984912
0.01962091
0.01936449
0.01907270
0.01878372
0.01854141
0.01829401
0.01811719
0.01803103
0.01796130
0.01792338
0.01852944
0.02002122
0.02167693
0.02317430
0.02431075
0.02533923
0.02630580
0.02702031
0.02775748
0.02814255
0.02838336
0.02847470
0.02876332
0.02914151
0.03034076
0.03246983
0.03327678
0.03398621
0.03215589
0.03294537
0.03798559
0.04615172
0.05016327
0.04459088
0.02913917
0.02307366
0.01958164
0.01678306
0.01473370
0.01358087
0.01295412
0.01261827
0.01241020
0.01229703
0.01225967
0.01232143
0.01251917
0.01274220
0.01310922
0.01366170
0.01459857
0.01587487
0.01764590
0.01957862
0.02128336
0.02295602
0.02447019
0.02577817
0.02689032
0.02778159
0.02888407
0.02944307
0.03018303
0.03084709
0.03129038
0.03161057
0.03199944
0.03210775
0.03196486
0.03189451
0.03197946
0.03200304
0.03182210
0.03149485
0.03126905
0.03106919
0.03076721
0.03044018
0.03047689
0.03055024
0.03033015
0.03026980
0.03011821
0.02997856
0.02983055
0.02969464
0.02945171
0.02930158
0.02912191
0.02869991
0.02831746
0.02790950
0.02754482
0.02731584
0.02706803
0.02680365
0.02666359
0.02641335
0.02613523
0.02577766
0.02549845
0.02522528
0.02502057
0.02482249
0.02464073
0.02442726
0.02418820
0.02393276
0.02362646
0.02333674
0.02308717
0.02285740
0.02260448
0.02236774
0.02210311
0.02188171
0.02160759
0.02137399
0.02121091
0.02100597
0.02076930
0.02050984
0.02022954
0.01994515
0.01969780
0.01946654
0.01929669
0.01922823
0.01915908
0.01913634
0.01962991
0.02093370
0.02245895
0.02394004
0.02510916
0.02623187
0.02728745
0.02818140
0.02905282
0.02961207
0.03011482
0.03058788
0.03129022
0.03177498
0.03291532
0.03475087
0.03472139
0.03597148
0.03399186
0.03352263
0.04134374
0.05021028
0.05498275
0.05046251
0.03335299
0.02505160
0.02082497
0.01778673
0.01563076
0.01441063
0.01368910
0.01326642
0.01299829
0.01275823
0.01264267
0.01266656
0.01284471
0.01308131
0.01349546
0.01412602
0.01519329
0.01655603
0.01836586
0.02034195
0.02214359
0.02391737
0.02545914
0.02677281
0.02783907
0.02877068
0.02992423
0.03049499
0.03121151
0.03192029
0.03242331
0.03279204
0.03320856
0.03332235
0.03315578
0.03305553
0.03313931
0.03310285
0.03292379
0.03257017
0.03234858
0.03215113
0.03190723
0.03159657
0.03159273
0.03164947
0.03146957
0.03141822
0.03124827
0.03106985
0.03093043
0.03078160
0.03053908
0.03036017
0.03018738
0.02978002
0.02938955
0.02897421
0.02856169
0.02834122
0.02809270
0.02782927
0.02767217
0.02740844
0.02713096
0.02677167
0.02647883
0.02619604
0.02596016
0.02575373
0.02557349
0.02536073
0.02511710
0.02487845
0.02458099
0.02429453
0.02402740
0.02378328
0.02352468
0.02329511
0.02303144
0.02281830
0.02255993
0.02231676
0.02214627
0.02195276
0.02169861
0.02144168
0.02117705
0.02089783
0.02064859
0.02042917
0.02025831
0.02019564
0.02012397
0.02011285
0.02053064
0.02165921
0.02304240
0.02448905
0.02566828
0.02690795
0.02795999
0.02901045
0.02996969
0.03071785
0.03144192
0.03206856
0.03261957
0.03370804
0.03471858
0.03585873
0.03728940
0.03722132
0.03525335
0.03381140
0.04272341
0.05261743
0.05878105
0.05603668
0.03811959
0.02725070
0.02214909
0.01876060
0.01644341
0.01509605
0.01428206
0.01379060
0.01343757
0.01311999
0.01294654
0.01293834
0.01310306
0.01335897
0.01382906
0.01454741
0.01573373
0.01718798
0.01903781
0.02106196
0.02295411
0.02480017
0.02637401
0.02769249
0.02873379
0.02971752
0.03088147
0.03148246
0.03214656
0.03290226
0.03345407
0.03386283
0.03429294
0.03439661
0.03422056
0.03409159
0.03416926
0.03408346
0.03389015
0.03353422
0.03329557
0.03313003
0.03291849
0.03259783
0.03257461
0.03261466
0.03245867
0.03241282
0.03222907
0.03199861
0.03186525
0.03172547
0.03148017
0.03125928
0.03108215
0.03069609
0.03030523
0.02990259
0.02943583
0.02920177
0.02895426
0.02869852
0.02852093
0.02824708
0.02797336
0.02761024
0.02729930
0.02701182
0.02675238
0.02653527
0.02634492
0.02613651
0.02589729
0.02567049
0.02538342
0.02510147
0.02481293
0.02455292
0.02429245
0.02406136
0.02380532
0.02360202
0.02334980
0.02310017
0.02291835
0.02273123
0.02246144
0.02221153
0.02196741
0.02169913
0.02144763
0.02123642
0.02105764
0.02098510
0.02090468
0.02090446
0.02126867
0.02224127
0.02348413
0.02486397
0.02605357
0.02733965
0.02841751
0.02952546
0.03057345
0.03157684
0.03232245
0.03311127
0.03368797
0.03489298
0.03622529
0.03669705
0.03845957
0.03812574
0.03629701
0.03424718
0.04217370
0.05319451
0.06138490
0.06094586
0.04334219
0.02976682
0.02362195
0.01979267
0.01721085
0.01572619
0.01481147
0.01423012
0.01378889
0.01339376
0.01318171
0.01315542
0.01332255
0.01359808
0.01413581
0.01494241
0.01623304
0.01779380
0.01968959
0.02176257
0.02372790
0.02562224
0.02724179
0.02856901
0.02960879
0.03064069
0.03178626
0.03242665
0.03302964
0.03384237
0.03443176
0.03486488
0.03528512
0.03537352
0.03517949
0.03504022
0.03509409
0.03496660
0.03475466
0.03443491
0.03416961
0.03402867
0.03382135
0.03348887
0.03345893
0.03347906
0.03331895
0.03328578
0.03308844
0.03281185
0.03268972
0.03254245
0.03230828
0.03205345
0.03185829
0.03149197
0.03110194
0.03072866
0.03021397
0.02994149
0.02970020
0.02945862
0.02926216
0.02897152
0.02869924
0.02833480
0.02801001
0.02770724
0.02743611
0.02720537
0.02699732
0.02679848
0.02656575
0.02633845
0.02607045
0.02578984
0.02548547
0.02520586
0.02494406
0.02470675
0.02447169
0.02427038
0.02401081
0.02376013
0.02356205
0.02336910
0.02310007
0.02286082
0.02263547
0.02239055
0.02212577
0.02191871
0.02174316
0.02164733
0.02155198
0.02155379
0.02187624
0.02271933
0.02383542
0.02512834
0.02633893
0.02762281
0.02876720
0.02997630
0.03114248
0.03219928
0.03290706
0.03380209
0.03468702
0.03545214
0.03691686
0.03755933
0.03965742
0.03854201
0.03709618
0.03489095
0.04068058
0.05221216
0.06260217
0.06495020
0.04894538
0.03273175
0.02525027
0.02082968
0.01800023
0.01630997
0.01529065
0.01460488
0.01408884
0.01363459
0.01338792
0.01334775
0.01352150
0.01382364
0.01443001
0.01532868
0.01670968
0.01837944
0.02033193
0.02245734
0.02448478
0.02642380
0.02808098
0.02942712
0.03047159
0.03155265
0.03266807
0.03333962
0.03390286
0.03476250
0.03537926
0.03582158
0.03623073
0.03629271
0.03605219
0.03591723
0.03592740
0.03579092
0.03555099
0.03529997
0.03501220
0.03486669
0.03464114
0.03431471
0.03427005
0.03425558
0.03408463
0.03406432
0.03385829
0.03355587
0.03343390
0.03325063
0.03305005
0.03277522
0.03255643
0.03220132
0.03181397
0.03147068
0.03091654
0.03059280
0.03035617
0.03013423
0.02991845
0.02960660
0.02933627
0.02898208
0.02864579
0.02831428
0.02803804
0.02778532
0.02756364
0.02737705
0.02714671
0.02690421
0.02666105
0.02638634
0.02606967
0.02577688
0.02550865
0.02526734
0.02505937
0.02484664
0.02457777
0.02432164
0.02410783
0.02389731
0.02364771
0.02341692
0.02321025
0.02299215
0.02271954
0.02250651
0.02234385
0.02222425
0.02210777
0.02209747
0.02238542
0.02312590
0.02413221
0.02532318
0.02652718
0.02780611
0.02898996
0.03022695
0.03144301
0.03256309
0.03344415
0.03427688
0.03541666
0.03623026
0.03762487
0.03886087
0.03899199
0.03891742
0.03759366
0.03559422
0.03905057
0.05013920
0.06246584
0.06803524
0.05456058
0.03613525
0.02709450
0.02199663
0.01882615
0.01689161
0.01574189
0.01495432
0.01436243
0.01385113
0.01357985
0.01353519
0.01371773
0.01405764
0.01473242
0.01572660
0.01719009
0.01894511
0.02097266
0.02315052
0.02524094
0.02722696
0.02890233
0.03027540
0.03133652
0.03247180
0.03355403
0.03424827
0.03479054
0.03566246
0.03631298
0.03674614
0.03716337
0.03717577
0.03687585
0.03672329
0.03668782
0.03658579
0.03631455
0.03612731
0.03583578
0.03565789
0.03541072
0.03510121
0.03503822
0.03497081
0.03480272
0.03478528
0.03457268
0.03428166
0.03412737
0.03390049
0.03372557
0.03343311
0.03320972
0.03285605
0.03245789
0.03214637
0.03155779
0.03118072
0.03094081
0.03073854
0.03050413
0.03018523
0.02990541
0.02956330
0.02922207
0.02886757
0.02857954
0.02829532
0.02807075
0.02788681
0.02765270
0.02739261
0.02716101
0.02690621
0.02658344
0.02628256
0.02601369
0.02576892
0.02557912
0.02534770
0.02508252
0.02480226
0.02457947
0.02435303
0.02412967
0.02390363
0.02371335
0.02351906
0.02325244
0.02302596
0.02286484
0.02273654
0.02259466
0.02256605
0.02281607
0.02347166
0.02438642
0.02547069
0.02665120
0.02792692
0.02913906
0.03043759
0.03169746
0.03279680
0.03381848
0.03479742
0.03576028
0.03670806
0.03799577
0.03943277
0.03876158
0.03915233
0.03799914
0.03624447
0.03780441
0.04753871
0.06115723
0.07000835
0.05997307
0.04006181
0.02925520
0.02330398
0.01970892
0.01751275
0.01620022
0.01529004
0.01462445
0.01407079
0.01377254
0.01372946
0.01392607
0.01431227
0.01505610
0.01614908
0.01769346
0.01950408
0.02161625
0.02384802
0.02600258
0.02804280
0.02972174
0.03110774
0.03221929
0.03341245
0.03446594
0.03516544
0.03569842
0.03652571
0.03721635
0.03766726
0.03809449
0.03803563
0.03768224
0.03747654
0.03741233
0.03737017
0.03708920
0.03692159
0.03664581
0.03640323
0.03616021
0.03587290
0.03578285
0.03567944
0.03549824
0.03546584
0.03524725
0.03499510
0.03479336
0.03453297
0.03434403
0.03404037
0.03384332
0.03347663
0.03304998
0.03276195
0.03215921
0.03171941
0.03146436
0.03127359
0.03103198
0.03073478
0.03041858
0.03008094
0.02973546
0.02938442
0.02907986
0.02876460
0.02853553
0.02833314
0.02809186
0.02781930
0.02758821
0.02735871
0.02703620
0.02672564
0.02647138
0.02622694
0.02603878
0.02579627
0.02553816
0.02522739
0.02499454
0.02477050
0.02456659
0.02434195
0.02416335
0.02398649
0.02373861
0.02349300
0.02331271
0.02318918
0.02302614
0.02297558
0.02318012
0.02376113
0.02460276
0.02560352
0.02674390
0.02800715
0.02924657
0.03055533
0.03183981
0.03302650
0.03402143
0.03507756
0.03597164
0.03700398
0.03813743
0.03937452
0.03951012
0.03924520
0.03823690
0.03678663
0.03706913
0.04487929
0.05895328
0.07084564
0.06487297
0.04443618
0.03174934
0.02480876
0.02069209
0.01819578
0.01669891
0.01564194
0.01489189
0.01430696
0.01397820
0.01393925
0.01415244
0.01459328
0.01540760
0.01660524
0.01821975
0.02007893
0.02227921
0.02457125
0.02678165
0.02888140
0.03056110
0.03193741
0.03311219
0.03438480
0.03541298
0.03609789
0.03661628
0.03736124
0.03809703
0.03860161
0.03902786
0.03890024
0.03849652
0.03822182
0.03814717
0.03816454
0.03790107
0.03771152
0.03744045
0.03713206
0.03691226
0.03664999
0.03651588
0.03639116
0.03616751
0.03612256
0.03589894
0.03568708
0.03543493
0.03515741
0.03492655
0.03462898
0.03445748
0.03407467
0.03362642
0.03331760
0.03272148
0.03223765
0.03195283
0.03175173
0.03152465
0.03126133
0.03089051
0.03055400
0.03019282
0.02986736
0.02954477
0.02920254
0.02896709
0.02872767
0.02848043
0.02819887
0.02796820
0.02774520
0.02743066
0.02711522
0.02688911
0.02665283
0.02645699
0.02621042
0.02595318
0.02561765
0.02536601
0.02515877
0.02496759
0.02474737
0.02458062
0.02440834
0.02418623
0.02392022
0.02370745
0.02358742
0.02341205
0.02334393
0.02349468
0.02400602
0.02478971
0.02572764
0.02681699
0.02806517
0.02930790
0.03061382
0.03191931
0.03313188
0.03419427
0.03520000
0.03615709
0.03741658
0.03806776
0.03944163
0.03964853
0.03924045
0.03834910
0.03719750
0.03677766
0.04257386
0.05607403
0.07058682
0.06912424
0.04926081
0.03461945
0.02654439
0.02180178
0.01896533
0.01725542
0.01602836
0.01519562
0.01456557
0.01420296
0.01416727
0.01440014
0.01490559
0.01579341
0.01709448
0.01876348
0.02068751
0.02297640
0.02533847
0.02758804
0.02975224
0.03144530
0.03279648
0.03400348
0.03538759
0.03637936
0.03705036
0.03751800
0.03818630
0.03899051
0.03954918
0.03993767
0.03979128
0.03934220
0.03899830
0.03893700
0.03896732
0.03873278
0.03849949
0.03822550
0.03786789
0.03767100
0.03743736
0.03724331
0.03709820
0.03683828
0.03675840
0.03653678
0.03636046
0.03604613
0.03576958
0.03549158
0.03520440
0.03504575
0.03465223
0.03419792
0.03383247
0.03323909
0.03274244
0.03242887
0.03219713
0.03199578
0.03174641
0.03133747
0.03100023
0.03061968
0.03031395
0.02997724
0.02961548
0.02936465
0.02909467
0.02883901
0.02854591
0.02831807
0.02808274
0.02778342
0.02747322
0.02727201
0.02706067
0.02684770
0.02659349
0.02633553
0.02598167
0.02571133
0.02551531
0.02533833
0.02513028
0.02497345
0.02479644
0.02458951
0.02431872
0.02407303
0.02394163
0.02376341
0.02368432
0.02377335
0.02423006
0.02495948
0.02584057
0.02687859
0.02810159
0.02933673
0.03064167
0.03194487
0.03312636
0.03426336
0.03522486
0.03633893
0.03751032
0.03844807
0.03889928
0.03966421
0.03915955
0.03840376
0.03746648
0.03678807
0.04075627
0.05292379
0.06919145
0.07251781
0.05437762
0.03787864
0.02853842
0.02308677
0.01984075
0.01789153
0.01646701
0.01555399
0.01485610
0.01445572
0.01442417
0.01468367
0.01525535
0.01621460
0.01760733
0.01933493
0.02132725
0.02370365
0.02614726
0.02843290
0.03062996
0.03236488
0.03371874
0.03491391
0.03639058
0.03737205
0.03802846
0.03840887
0.03902300
0.03989677
0.04051035
0.04085920
0.04070026
0.04023362
0.03982629
0.03978001
0.03980278
0.03957236
0.03930324
0.03901259
0.03861945
0.03843860
0.03821557
0.03797034
0.03782084
0.03752441
0.03738819
0.03717501
0.03702179
0.03663989
0.03634664
0.03602843
0.03576484
0.03561540
0.03521364
0.03475151
0.03431527
0.03374362
0.03323779
0.03290048
0.03263391
0.03245015
0.03218154
0.03177692
0.03143043
0.03104598
0.03073124
0.03038086
0.03001888
0.02972726
0.02945287
0.02918918
0.02888678
0.02865121
0.02839711
0.02810933
0.02782281
0.02762930
0.02744825
0.02720834
0.02695201
0.02668611
0.02633147
0.02604948
0.02585186
0.02568462
0.02549885
0.02534393
0.02516270
0.02495306
0.02469439
0.02442444
0.02426921
0.02408767
0.02400013
0.02404649
0.02444942
0.02512734
0.02595395
0.02693928
0.02812366
0.02933625
0.03061500
0.03191018
0.03310493
0.03419298
0.03527295
0.03642220
0.03759834
0.03866434
0.03896211
0.03945510
0.03901234
0.03834744
0.03762160
0.03692977
0.03946934
0.04977837
0.06689018
0.07484861
0.05959331
0.04154862
0.03083302
0.02457657
0.02085387
0.01862008
0.01697924
0.01597495
0.01518850
0.01474680
0.01472283
0.01501090
0.01564745
0.01666262
0.01813803
0.01992725
0.02199352
0.02446215
0.02698567
0.02933501
0.03152003
0.03331068
0.03468144
0.03586433
0.03740411
0.03841468
0.03903261
0.03932262
0.03989234
0.04079822
0.04149676
0.04180080
0.04163834
0.04118064
0.04072093
0.04065351
0.04068847
0.04042397
0.04015381
0.03980738
0.03938174
0.03922125
0.03897791
0.03871733
0.03859232
0.03821804
0.03803053
0.03783740
0.03768178
0.03724696
0.03689374
0.03655561
0.03631343
0.03617292
0.03576971
0.03528977
0.03479289
0.03425624
0.03374503
0.03337566
0.03308284
0.03289366
0.03259657
0.03220597
0.03186349
0.03148093
0.03113198
0.03076290
0.03040652
0.03007093
0.02981520
0.02953879
0.02923153
0.02897919
0.02870653
0.02841935
0.02816592
0.02797154
0.02780515
0.02753896
0.02728269
0.02700795
0.02667805
0.02639444
0.02618383
0.02601669
0.02585242
0.02568760
0.02551014
0.02528918
0.02504118
0.02476350
0.02458899
0.02440012
0.02429589
0.02433043
0.02466201
0.02529629
0.02607638
0.02701040
0.02813228
0.02931831
0.03057175
0.03185542
0.03306858
0.03413773
0.03528375
0.03627911
0.03747071
0.03826252
0.03913066
0.03919986
0.03881151
0.03823775
0.03767987
0.03708773
0.03864090
0.04692012
0.06386299
0.07607073
0.06467891
0.04561914
0.03344006
0.02633091
0.02203219
0.01946819
0.01758961
0.01647089
0.01558125
0.01508726
0.01507402
0.01538386
0.01607821
0.01714545
0.01869144
0.02054074
0.02268720
0.02524828
0.02785691
0.03028011
0.03245760
0.03429375
0.03566423
0.03685676
0.03845811
0.03949858
0.04007245
0.04028785
0.04082870
0.04174001
0.04250093
0.04275132
0.04259782
0.04218006
0.04168217
0.04157408
0.04160691
0.04129819
0.04105574
0.04062449
0.04017374
0.04001683
0.03973988
0.03950547
0.03940183
0.03893161
0.03869908
0.03850470
0.03834909
0.03787225
0.03742976
0.03709916
0.03686713
0.03673131
0.03634129
0.03582228
0.03529721
0.03477683
0.03426706
0.03386143
0.03356098
0.03334228
0.03300985
0.03262435
0.03230316
0.03190475
0.03151986
0.03113405
0.03077308
0.03043199
0.03018177
0.02989346
0.02958109
0.02931042
0.02901461
0.02873076
0.02849467
0.02830307
0.02811779
0.02784078
0.02757884
0.02730380
0.02701592
0.02674866
0.02652156
0.02634195
0.02617975
0.02600641
0.02583444
0.02559980
0.02535254
0.02508363
0.02490078
0.02471387
0.02458180
0.02460580
0.02487348
0.02546424
0.02619864
0.02708803
0.02814109
0.02930079
0.03051793
0.03178781
0.03295960
0.03407639
0.03515107
0.03618556
0.03724672
0.03821287
0.03882558
0.03897161
0.03855978
0.03806364
0.03765644
0.03719444
0.03811101
0.04451008
0.06040396
0.07615333
0.06935279
0.05008763
0.03644387
0.02836532
0.02341204
0.02046114
0.01832876
0.01705092
0.01605855
0.01550060
0.01548156
0.01580895
0.01655216
0.01767603
0.01927748
0.02119910
0.02342242
0.02606682
0.02878830
0.03125515
0.03346841
0.03531766
0.03668762
0.03791942
0.03956464
0.04060975
0.04113724
0.04134771
0.04189378
0.04276619
0.04350754
0.04374793
0.04358941
0.04323664
0.04271165
0.04255560
0.04254844
0.04222379
0.04198664
0.04148006
0.04100750
0.04081906
0.04053056
0.04033329
0.04021481
0.03966931
0.03940275
0.03916949
0.03901064
0.03852071
0.03799874
0.03767321
0.03743974
0.03730388
0.03691889
0.03635727
0.03583540
0.03529923
0.03479434
0.03436862
0.03406088
0.03378946
0.03342263
0.03303843
0.03272980
0.03230669
0.03189657
0.03151768
0.03113515
0.03081743
0.03054258
0.03024724
0.02992624
0.02964654
0.02932371
0.02905720
0.02881725
0.02861595
0.02839237
0.02811973
0.02786436
0.02759529
0.02734985
0.02710647
0.02687034
0.02665668
0.02648217
0.02630149
0.02613498
0.02589600
0.02564445
0.02538491
0.02519832
0.02503320
0.02486743
0.02486141
0.02507963
0.02562753
0.02632123
0.02716463
0.02816265
0.02929450
0.03046535
0.03169361
0.03282749
0.03393428
0.03500486
0.03615264
0.03700259
0.03831944
0.03870627
0.03869285
0.03827680
0.03784889
0.03755910
0.03722864
0.03775998
0.04258161
0.05678625
0.07511197
0.07342764
0.05483425
0.03987553
0.03070921
0.02501943
0.02161627
0.01921766
0.01773972
0.01663724
0.01601139
0.01595795
0.01629685
0.01707539
0.01825181
0.01990021
0.02190915
0.02424147
0.02693550
0.02979091
0.03231359
0.03452574
0.03638788
0.03777928
0.03907767
0.04071901
0.04175016
0.04222021
0.04250243
0.04309318
0.04388092
0.04451394
0.04479808
0.04461957
0.04430916
0.04381039
0.04359558
0.04353077
0.04318635
0.04292294
0.04237873
0.04188923
0.04164765
0.04135714
0.04119612
0.04099761
0.04042063
0.04014642
0.03987096
0.03966868
0.03916917
0.03863028
0.03828146
0.03804793
0.03790789
0.03748812
0.03691286
0.03641872
0.03583044
0.03533207
0.03489639
0.03456985
0.03423411
0.03383841
0.03346487
0.03312901
0.03271304
0.03228567
0.03192048
0.03152320
0.03121217
0.03091171
0.03060249
0.03027531
0.02997404
0.02963933
0.02939610
0.02914985
0.02891529
0.02865472
0.02838162
0.02814408
0.02788845
0.02768649
0.02746382
0.02722562
0.02696496
0.02677454
0.02658970
0.02642663
0.02618718
0.02593170
0.02567017
0.02548308
0.02533784
0.02515496
0.02511258
0.02528270
0.02579823
0.02645639
0.02725071
0.02820917
0.02929217
0.03042053
0.03159283
0.03268981
0.03378386
0.03488834
0.03603483
0.03677907
0.03777108
0.03858179
0.03836465
0.03797222
0.03760172
0.03740755
0.03718808
0.03748190
0.04108430
0.05325704
0.07304135
0.07667395
0.05978900
0.04373721
0.03340098
0.02690010
0.02297935
0.02028200
0.01856463
0.01733540
0.01662896
0.01651900
0.01687268
0.01766593
0.01888160
0.02056825
0.02266902
0.02512858
0.02788418
0.03086763