/*--------------------------------*- C++ -*----------------------------------*\
  =========                 |
  \\      /  F ield         | OpenFOAM: The Open Source CFD Toolbox
   \\    /   O peration     | Website:  https://openfoam.org
    \\  /    A nd           | Version:  7
     \\/     M anipulation  |
\*---------------------------------------------------------------------------*/
FoamFile
{
    version     2.0;
    format      ascii;
    class       volSymmTensorField;
    location    "0";
    object      tauij_LES;
}
// * * * * * * * * * * * * * * * * * * * * * * * * * * * * * * * * * * * * * //

dimensions      [0 2 -2 0 0 0 0];

internalField   nonuniform List<symmTensor>
15600
(
(0.00476795 -0.00010356 0.00000000 0.00006725 0.00000000 0.00342506)
(0.00456276 -0.00002077 0.00000000 0.00000815 0.00000000 0.00245020)
(-0.00045898 0.00000944 0.00000000 0.00002778 0.00000000 -0.00011570)
(0.00133671 -0.00006833 0.00000000 -0.00013350 0.00000000 0.00104048)
(0.00014314 -0.00011417 0.00000000 0.00008223 0.00000000 0.00018811)
(0.00014332 -0.00000295 0.00000000 -0.00011319 0.00000000 0.00005119)
(0.00010640 -0.00022903 0.00000000 0.00035788 0.00000000 0.00092327)
(0.00063767 -0.00041081 0.00000000 0.00024836 0.00000000 0.00095671)
(0.00024649 -0.00017375 0.00000000 0.00011672 0.00000000 0.00068267)
(0.00023405 -0.00017697 0.00000000 0.00013634 0.00000000 0.00068930)
(0.00023400 -0.00018042 0.00000000 0.00014351 0.00000000 0.00064450)
(0.00025014 -0.00017774 0.00000000 0.00012893 0.00000000 0.00058489)
(0.00028288 -0.00017718 0.00000000 0.00010507 0.00000000 0.00053163)
(0.00022466 -0.00008067 0.00000000 0.00000707 0.00000000 0.00027070)
(0.00038487 -0.00019307 0.00000000 0.00009037 0.00000000 0.00045820)
(0.00049790 -0.00031837 0.00000000 0.00021315 0.00000000 0.00097390)
(0.00065543 -0.00032457 0.00000000 0.00016338 0.00000000 0.00081487)
(0.00091430 -0.00041821 0.00000000 0.00019802 0.00000000 0.00120174)
(0.00109513 -0.00036812 0.00000000 0.00014226 0.00000000 0.00118223)
(0.00133656 -0.00020854 0.00000000 0.00004506 0.00000000 0.00148122)
(0.00142559 -0.00005464 0.00000000 0.00002332 0.00000000 0.00195960)
(0.00091519 0.00000066 0.00000000 -0.00000106 0.00000000 0.00075041)
(0.00114683 0.00000158 0.00000000 -0.00000137 0.00000000 0.00087463)
(0.00140802 0.00000288 0.00000000 -0.00000071 0.00000000 0.00110085)
(0.00153323 0.00000373 0.00000000 -0.00000172 0.00000000 0.00128073)
(0.00160877 0.00000428 0.00000000 -0.00000237 0.00000000 0.00147515)
(0.00173756 0.00000530 0.00000000 0.00000017 0.00000000 0.00174233)
(0.00171586 0.00000413 0.00000000 -0.00000193 0.00000000 0.00184051)
(0.00185501 0.00000531 0.00000000 0.00000123 0.00000000 0.00208247)
(0.00185609 0.00000385 0.00000000 -0.00000195 0.00000000 0.00206691)
(0.00190880 0.00000381 0.00000000 -0.00000241 0.00000000 0.00210337)
(0.00193629 0.00000366 0.00000000 -0.00000121 0.00000000 0.00213380)
(0.00196735 0.00000372 0.00000000 0.00000059 0.00000000 0.00222297)
(0.00196813 0.00000385 0.00000000 -0.00000177 0.00000000 0.00218306)
(0.00198382 0.00000274 0.00000000 0.00000094 0.00000000 0.00228467)
(0.00196273 0.00000322 0.00000000 -0.00000301 0.00000000 0.00226744)
(0.00189733 0.00000286 0.00000000 -0.00000296 0.00000000 0.00228890)
(0.00182707 0.00000248 0.00000000 -0.00000312 0.00000000 0.00226506)
(0.00179109 0.00000126 0.00000000 -0.00000348 0.00000000 0.00224315)
(0.00177709 0.00000103 0.00000000 -0.00000289 0.00000000 0.00220945)
(0.00179021 0.00000059 0.00000000 -0.00000322 0.00000000 0.00214757)
(0.00180377 0.00000043 0.00000000 -0.00000263 0.00000000 0.00208233)
(0.00181034 0.00000020 0.00000000 -0.00000216 0.00000000 0.00201298)
(0.00173606 0.00000102 0.00000000 -0.00000311 0.00000000 0.00198515)
(0.00172910 -0.00000020 0.00000000 -0.00000228 0.00000000 0.00196775)
(0.00168952 0.00000075 0.00000000 -0.00000253 0.00000000 0.00191279)
(0.00164118 0.00000022 0.00000000 -0.00000246 0.00000000 0.00189399)
(0.00161005 -0.00000053 0.00000000 -0.00000206 0.00000000 0.00187857)
(0.00161197 -0.00000044 0.00000000 -0.00000162 0.00000000 0.00186919)
(0.00154568 0.00000004 0.00000000 -0.00000296 0.00000000 0.00182023)
(0.00146032 -0.00000016 0.00000000 -0.00000291 0.00000000 0.00177671)
(0.00143890 -0.00000064 0.00000000 -0.00000188 0.00000000 0.00172949)
(0.00143211 -0.00000231 0.00000000 -0.00000075 0.00000000 0.00174239)
(0.00138947 -0.00000244 0.00000000 -0.00000022 0.00000000 0.00173603)
(0.00131212 -0.00000093 0.00000000 -0.00000226 0.00000000 0.00163602)
(0.00138204 -0.00000353 0.00000000 0.00000011 0.00000000 0.00166979)
(0.00132867 -0.00000189 0.00000000 -0.00000139 0.00000000 0.00156619)
(0.00135033 -0.00000280 0.00000000 0.00000034 0.00000000 0.00159493)
(0.00119909 -0.00000106 0.00000000 -0.00000159 0.00000000 0.00146313)
(0.00115339 -0.00000166 0.00000000 -0.00000123 0.00000000 0.00141741)
(0.00115855 -0.00000170 0.00000000 -0.00000121 0.00000000 0.00139360)
(0.00115778 -0.00000346 0.00000000 0.00000047 0.00000000 0.00140874)
(0.00112039 -0.00000364 0.00000000 0.00000024 0.00000000 0.00136489)
(0.00103041 -0.00000155 0.00000000 -0.00000115 0.00000000 0.00129036)
(0.00100241 -0.00000176 0.00000000 -0.00000096 0.00000000 0.00125512)
(0.00096092 -0.00000088 0.00000000 -0.00000133 0.00000000 0.00119461)
(0.00096830 -0.00000198 0.00000000 -0.00000064 0.00000000 0.00119033)
(0.00096169 -0.00000199 0.00000000 -0.00000039 0.00000000 0.00116715)
(0.00090334 -0.00000165 0.00000000 -0.00000084 0.00000000 0.00111222)
(0.00088440 -0.00000105 0.00000000 -0.00000112 0.00000000 0.00107142)
(0.00086906 -0.00000093 0.00000000 -0.00000115 0.00000000 0.00104599)
(0.00085017 -0.00000128 0.00000000 -0.00000092 0.00000000 0.00105229)
(0.00084890 -0.00000138 0.00000000 -0.00000093 0.00000000 0.00104062)
(0.00082035 -0.00000108 0.00000000 -0.00000095 0.00000000 0.00103334)
(0.00079529 -0.00000130 0.00000000 -0.00000084 0.00000000 0.00100267)
(0.00078580 -0.00000126 0.00000000 -0.00000084 0.00000000 0.00097538)
(0.00076213 -0.00000105 0.00000000 -0.00000093 0.00000000 0.00095460)
(0.00074694 -0.00000091 0.00000000 -0.00000090 0.00000000 0.00092555)
(0.00072099 -0.00000104 0.00000000 -0.00000083 0.00000000 0.00090466)
(0.00070098 -0.00000091 0.00000000 -0.00000086 0.00000000 0.00086692)
(0.00069495 -0.00000073 0.00000000 -0.00000087 0.00000000 0.00085126)
(0.00067203 -0.00000081 0.00000000 -0.00000079 0.00000000 0.00084734)
(0.00065644 -0.00000074 0.00000000 -0.00000081 0.00000000 0.00081894)
(0.00067472 -0.00000211 0.00000000 -0.00000007 0.00000000 0.00083368)
(0.00065056 -0.00000156 0.00000000 -0.00000025 0.00000000 0.00080678)
(0.00062253 -0.00000104 0.00000000 -0.00000055 0.00000000 0.00077152)
(0.00059604 -0.00000113 0.00000000 -0.00000047 0.00000000 0.00074584)
(0.00058345 -0.00000103 0.00000000 -0.00000045 0.00000000 0.00072876)
(0.00056264 -0.00000083 0.00000000 -0.00000049 0.00000000 0.00071252)
(0.00054641 -0.00000087 0.00000000 -0.00000047 0.00000000 0.00069670)
(0.00054068 -0.00000092 0.00000000 -0.00000037 0.00000000 0.00069213)
(0.00051019 -0.00000071 0.00000000 -0.00000044 0.00000000 0.00067045)
(0.00049943 -0.00000073 0.00000000 -0.00000039 0.00000000 0.00065468)
(0.00049329 -0.00000088 0.00000000 -0.00000020 0.00000000 0.00065733)
(0.00046980 -0.00000025 0.00000000 -0.00000054 0.00000000 0.00064822)
(0.00046576 -0.00000031 0.00000000 -0.00000050 0.00000000 0.00066681)
(0.00045834 0.00000015 0.00000000 -0.00000069 0.00000000 0.00069187)
(0.00046012 0.00000003 0.00000000 -0.00000059 0.00000000 0.00073951)
(0.00048642 -0.00000011 0.00000000 -0.00000045 0.00000000 0.00085186)
(0.00073174 0.00021048 0.00000000 0.00006883 0.00000000 0.00200634)
(0.00039107 0.00012918 0.00000000 0.00004663 0.00000000 0.00163675)
(0.00038446 0.00005426 0.00000000 0.00000557 0.00000000 0.00132175)
(0.00007288 0.00003686 0.00000000 0.00001768 0.00000000 0.00027400)
(0.00002172 0.00000899 0.00000000 0.00000309 0.00000000 0.00010212)
(-0.00006139 -0.00002818 0.00000000 -0.00001080 0.00000000 0.00000981)
(-0.00000199 0.00000643 0.00000000 0.00000999 0.00000000 0.00002888)
(0.00000337 0.00001764 0.00000000 0.00002402 0.00000000 0.00005163)
(-0.00012211 -0.00008053 0.00000000 -0.00005399 0.00000000 -0.00013600)
(-0.00007962 -0.00004675 0.00000000 -0.00002547 0.00000000 0.00004802)
(-0.00007088 -0.00004497 0.00000000 -0.00002899 0.00000000 -0.00008198)
(-0.00004509 -0.00002848 0.00000000 -0.00001734 0.00000000 0.00003327)
(-0.00009008 -0.00006459 0.00000000 -0.00004697 0.00000000 -0.00006289)
(-0.00013879 -0.00010512 0.00000000 -0.00007863 0.00000000 -0.00015261)
(-0.00016164 -0.00016976 0.00000000 -0.00016991 0.00000000 -0.00100703)
(-0.00022744 -0.00012594 0.00000000 -0.00005833 0.00000000 -0.00064811)
(-0.00013644 -0.00008464 0.00000000 -0.00005329 0.00000000 -0.00027640)
(-0.00076816 -0.00018185 0.00000000 -0.00001540 0.00000000 -0.00037534)
(-0.00011660 -0.00002865 0.00000000 -0.00001247 0.00000000 -0.00004459)
(0.00062928 -0.00000355 0.00000000 0.00000070 0.00000000 0.00085647)
(0.00237540 -0.00001031 0.00000000 0.00001632 0.00000000 0.00250440)
(0.00923981 -0.00027510 0.00000000 0.00022192 0.00000000 0.00627954)
(0.01088616 -0.00019452 0.00000000 0.00019848 0.00000000 0.00614968)
(0.00205564 -0.00046815 0.00000000 0.00016923 0.00000000 0.00170073)
(0.00354808 -0.00079288 0.00000000 0.00024563 0.00000000 0.00368187)
(0.00208907 -0.00139232 0.00000000 0.00093456 0.00000000 0.00240856)
(0.00155660 -0.00090729 0.00000000 0.00047357 0.00000000 0.00172753)
(0.00108542 -0.00106967 0.00000000 0.00113733 0.00000000 0.00226782)
(0.00146713 -0.00103413 0.00000000 0.00075193 0.00000000 0.00249416)
(0.00078323 -0.00072629 0.00000000 0.00071584 0.00000000 0.00199453)
(0.00081600 -0.00076621 0.00000000 0.00076111 0.00000000 0.00197282)
(0.00090283 -0.00078342 0.00000000 0.00071760 0.00000000 0.00183464)
(0.00111804 -0.00090984 0.00000000 0.00077933 0.00000000 0.00188494)
(0.00115191 -0.00088987 0.00000000 0.00072034 0.00000000 0.00173741)
(0.00169138 -0.00106744 0.00000000 0.00069136 0.00000000 0.00191187)
(0.00208202 -0.00124769 0.00000000 0.00077019 0.00000000 0.00226591)
(0.00216293 -0.00147184 0.00000000 0.00106391 0.00000000 0.00284767)
(0.00285346 -0.00137224 0.00000000 0.00071569 0.00000000 0.00318481)
(0.00325781 -0.00138086 0.00000000 0.00066422 0.00000000 0.00384851)
(0.00405135 -0.00120295 0.00000000 0.00045326 0.00000000 0.00404612)
(0.00423712 -0.00077797 0.00000000 0.00025766 0.00000000 0.00437134)
(0.00434375 -0.00030833 0.00000000 0.00014241 0.00000000 0.00450985)
(0.00479040 0.00000642 0.00000000 0.00007547 0.00000000 0.00369044)
(0.00591884 0.00002081 0.00000000 0.00009117 0.00000000 0.00441894)
(0.00675358 0.00004115 0.00000000 0.00010719 0.00000000 0.00533568)
(0.00717343 0.00005830 0.00000000 0.00012872 0.00000000 0.00623740)
(0.00737917 0.00005749 0.00000000 0.00014890 0.00000000 0.00714133)
(0.00764068 0.00005270 0.00000000 0.00015626 0.00000000 0.00802788)
(0.00773698 0.00004472 0.00000000 0.00016543 0.00000000 0.00871188)
(0.00800805 0.00003821 0.00000000 0.00017281 0.00000000 0.00938832)
(0.00825382 0.00002605 0.00000000 0.00018564 0.00000000 0.00963071)
(0.00852371 0.00002275 0.00000000 0.00018802 0.00000000 0.00984623)
(0.00863410 0.00001165 0.00000000 0.00018780 0.00000000 0.00984147)
(0.00865442 0.00000374 0.00000000 0.00019551 0.00000000 0.01000145)
(0.00871784 0.00001039 0.00000000 0.00019954 0.00000000 0.01006553)
(0.00859513 -0.00000968 0.00000000 0.00020719 0.00000000 0.01028069)
(0.00860302 -0.00000954 0.00000000 0.00020744 0.00000000 0.01046284)
(0.00843284 -0.00001150 0.00000000 0.00020077 0.00000000 0.01063961)
(0.00829422 -0.00002486 0.00000000 0.00020231 0.00000000 0.01054219)
(0.00826316 -0.00004755 0.00000000 0.00020029 0.00000000 0.01048022)
(0.00830325 -0.00004824 0.00000000 0.00019302 0.00000000 0.01030036)
(0.00846710 -0.00005918 0.00000000 0.00018560 0.00000000 0.01011668)
(0.00856479 -0.00006260 0.00000000 0.00018036 0.00000000 0.00980793)
(0.00855953 -0.00006675 0.00000000 0.00017330 0.00000000 0.00953575)
(0.00829033 -0.00006312 0.00000000 0.00017676 0.00000000 0.00940202)
(0.00818259 -0.00007484 0.00000000 0.00017047 0.00000000 0.00932061)
(0.00807789 -0.00007226 0.00000000 0.00016842 0.00000000 0.00907386)
(0.00793942 -0.00007810 0.00000000 0.00015977 0.00000000 0.00897988)
(0.00779329 -0.00008826 0.00000000 0.00015465 0.00000000 0.00894185)
(0.00782340 -0.00008865 0.00000000 0.00015126 0.00000000 0.00889285)
(0.00773797 -0.00008977 0.00000000 0.00014935 0.00000000 0.00885377)
(0.00743251 -0.00009338 0.00000000 0.00014774 0.00000000 0.00866521)
(0.00721126 -0.00009308 0.00000000 0.00013881 0.00000000 0.00838203)
(0.00706400 -0.00010334 0.00000000 0.00013423 0.00000000 0.00828977)
(0.00694431 -0.00010534 0.00000000 0.00012636 0.00000000 0.00821662)
(0.00687854 -0.00011403 0.00000000 0.00012807 0.00000000 0.00809519)
(0.00694252 -0.00011939 0.00000000 0.00012138 0.00000000 0.00790505)
(0.00694089 -0.00011943 0.00000000 0.00011679 0.00000000 0.00766933)
(0.00675191 -0.00010181 0.00000000 0.00011190 0.00000000 0.00759222)
(0.00642871 -0.00010486 0.00000000 0.00010757 0.00000000 0.00729621)
(0.00629478 -0.00011333 0.00000000 0.00010217 0.00000000 0.00707780)
(0.00624139 -0.00010686 0.00000000 0.00009774 0.00000000 0.00694133)
(0.00602038 -0.00010642 0.00000000 0.00009347 0.00000000 0.00677188)
(0.00588843 -0.00010900 0.00000000 0.00008811 0.00000000 0.00660735)
(0.00570912 -0.00010744 0.00000000 0.00008683 0.00000000 0.00649749)
(0.00562794 -0.00011186 0.00000000 0.00008259 0.00000000 0.00635877)
(0.00554760 -0.00010703 0.00000000 0.00007818 0.00000000 0.00617590)
(0.00546671 -0.00010508 0.00000000 0.00007423 0.00000000 0.00601751)
(0.00538979 -0.00010072 0.00000000 0.00007405 0.00000000 0.00588788)
(0.00523975 -0.00010494 0.00000000 0.00007004 0.00000000 0.00570260)
(0.00521671 -0.00010403 0.00000000 0.00006969 0.00000000 0.00556897)
(0.00514037 -0.00010227 0.00000000 0.00006714 0.00000000 0.00544682)
(0.00503899 -0.00010239 0.00000000 0.00006493 0.00000000 0.00541480)
(0.00501040 -0.00010416 0.00000000 0.00006425 0.00000000 0.00536569)
(0.00488983 -0.00010113 0.00000000 0.00006291 0.00000000 0.00534392)
(0.00480346 -0.00010165 0.00000000 0.00005862 0.00000000 0.00522991)
(0.00475680 -0.00010395 0.00000000 0.00005866 0.00000000 0.00509293)
(0.00467810 -0.00010051 0.00000000 0.00005676 0.00000000 0.00498302)
(0.00461279 -0.00009786 0.00000000 0.00005474 0.00000000 0.00485045)
(0.00449448 -0.00009479 0.00000000 0.00005101 0.00000000 0.00475670)
(0.00440300 -0.00009543 0.00000000 0.00004931 0.00000000 0.00460000)
(0.00434661 -0.00009382 0.00000000 0.00005000 0.00000000 0.00453548)
(0.00421639 -0.00008978 0.00000000 0.00004683 0.00000000 0.00447938)
(0.00413134 -0.00008801 0.00000000 0.00004634 0.00000000 0.00434981)
(0.00404049 -0.00008737 0.00000000 0.00004514 0.00000000 0.00425004)
(0.00394504 -0.00008394 0.00000000 0.00004424 0.00000000 0.00414041)
(0.00386139 -0.00008130 0.00000000 0.00004233 0.00000000 0.00403115)
(0.00373649 -0.00007877 0.00000000 0.00004057 0.00000000 0.00390381)
(0.00365742 -0.00007694 0.00000000 0.00004093 0.00000000 0.00381590)
(0.00353326 -0.00007147 0.00000000 0.00003894 0.00000000 0.00372771)
(0.00342983 -0.00007170 0.00000000 0.00003993 0.00000000 0.00364787)
(0.00332634 -0.00006768 0.00000000 0.00003928 0.00000000 0.00359676)
(0.00318077 -0.00006398 0.00000000 0.00003772 0.00000000 0.00350288)
(0.00308262 -0.00006173 0.00000000 0.00003647 0.00000000 0.00342232)
(0.00296783 -0.00005786 0.00000000 0.00003645 0.00000000 0.00339830)
(0.00282721 -0.00005145 0.00000000 0.00003570 0.00000000 0.00341276)
(0.00271831 -0.00005112 0.00000000 0.00003737 0.00000000 0.00349724)
(0.00259436 -0.00004549 0.00000000 0.00004050 0.00000000 0.00366667)
(0.00245224 -0.00004236 0.00000000 0.00004229 0.00000000 0.00388441)
(0.00236910 -0.00004102 0.00000000 0.00004713 0.00000000 0.00431999)
(0.00289752 0.00032066 0.00000000 0.00014672 0.00000000 0.00667381)
(0.00273957 0.00061284 0.00000000 0.00022698 0.00000000 0.00736411)
(0.00245118 0.00062984 0.00000000 0.00022560 0.00000000 0.00832481)
(0.00183360 0.00082281 0.00000000 0.00040279 0.00000000 0.00631425)
(0.00144424 0.00071194 0.00000000 0.00036726 0.00000000 0.00508828)
(0.00072433 0.00052532 0.00000000 0.00039747 0.00000000 0.00276212)
(0.00047639 0.00028827 0.00000000 0.00017903 0.00000000 0.00275987)
(0.00045908 0.00031119 0.00000000 0.00021058 0.00000000 0.00301977)
(0.00005676 0.00011469 0.00000000 0.00014630 0.00000000 0.00134365)
(0.00021227 0.00022839 0.00000000 0.00023316 0.00000000 0.00168325)
(-0.00001921 0.00003236 0.00000000 0.00006138 0.00000000 0.00084055)
(0.00002700 0.00006077 0.00000000 0.00007922 0.00000000 0.00063608)
(-0.00005006 -0.00000561 0.00000000 0.00002397 0.00000000 0.00041127)
(0.00010785 0.00007812 0.00000000 0.00005388 0.00000000 0.00165883)
(-0.00003096 -0.00007185 0.00000000 -0.00009987 0.00000000 -0.00036948)
(-0.00006339 -0.00001892 0.00000000 0.00000975 0.00000000 -0.00006767)
(-0.00008963 -0.00002099 0.00000000 0.00000156 0.00000000 -0.00034343)
(-0.00013193 0.00007064 0.00000000 0.00009009 0.00000000 0.00076433)
(0.00032583 0.00002681 0.00000000 -0.00000846 0.00000000 0.00019683)
(0.00354501 0.00007085 0.00000000 0.00001245 0.00000000 0.00236950)
(0.00593283 -0.00001474 0.00000000 0.00006505 0.00000000 0.00482112)
(0.01495769 -0.00051830 0.00000000 0.00048894 0.00000000 0.00896333)
(0.01905532 -0.00059255 0.00000000 0.00065775 0.00000000 0.01066904)
(0.00806760 -0.00159305 0.00000000 0.00061023 0.00000000 0.00558949)
(0.00766631 -0.00268145 0.00000000 0.00143970 0.00000000 0.00853751)
(0.00437069 -0.00287147 0.00000000 0.00201930 0.00000000 0.00519997)
(0.00475982 -0.00312810 0.00000000 0.00218090 0.00000000 0.00554544)
(0.00332493 -0.00275809 0.00000000 0.00248047 0.00000000 0.00468883)
(0.00288223 -0.00220904 0.00000000 0.00182209 0.00000000 0.00500545)
(0.00232746 -0.00204184 0.00000000 0.00190930 0.00000000 0.00377879)
(0.00238018 -0.00206669 0.00000000 0.00190355 0.00000000 0.00361164)
(0.00253742 -0.00205681 0.00000000 0.00175870 0.00000000 0.00337703)
(0.00269773 -0.00216160 0.00000000 0.00182843 0.00000000 0.00333319)
(0.00295653 -0.00230281 0.00000000 0.00189132 0.00000000 0.00328494)
(0.00353080 -0.00235370 0.00000000 0.00167518 0.00000000 0.00362563)
(0.00402348 -0.00251314 0.00000000 0.00169988 0.00000000 0.00412068)
(0.00446421 -0.00273858 0.00000000 0.00186412 0.00000000 0.00492612)
(0.00518939 -0.00246757 0.00000000 0.00138666 0.00000000 0.00550581)
(0.00576622 -0.00227776 0.00000000 0.00117670 0.00000000 0.00621511)
(0.00661996 -0.00180180 0.00000000 0.00082242 0.00000000 0.00643858)
(0.00710550 -0.00124204 0.00000000 0.00058359 0.00000000 0.00666048)
(0.00757753 -0.00046569 0.00000000 0.00041131 0.00000000 0.00676923)
(0.00895586 -0.00003415 0.00000000 0.00034507 0.00000000 0.00670994)
(0.01064541 0.00000249 0.00000000 0.00042363 0.00000000 0.00801964)
(0.01161016 0.00004976 0.00000000 0.00049366 0.00000000 0.00950076)
(0.01198871 0.00007377 0.00000000 0.00057964 0.00000000 0.01098496)
(0.01224206 0.00004985 0.00000000 0.00064720 0.00000000 0.01248873)
(0.01254652 0.00002491 0.00000000 0.00069473 0.00000000 0.01383105)
(0.01271591 0.00000596 0.00000000 0.00072320 0.00000000 0.01498182)
(0.01313472 -0.00003074 0.00000000 0.00076258 0.00000000 0.01595108)
(0.01357336 -0.00005694 0.00000000 0.00080659 0.00000000 0.01640099)
(0.01403493 -0.00007252 0.00000000 0.00081875 0.00000000 0.01669669)
(0.01432990 -0.00009210 0.00000000 0.00082077 0.00000000 0.01676013)
(0.01440633 -0.00011212 0.00000000 0.00085310 0.00000000 0.01697843)
(0.01444137 -0.00008880 0.00000000 0.00085984 0.00000000 0.01714686)
(0.01424747 -0.00014293 0.00000000 0.00088390 0.00000000 0.01747785)
(0.01417375 -0.00013562 0.00000000 0.00088757 0.00000000 0.01776765)
(0.01396695 -0.00014412 0.00000000 0.00087272 0.00000000 0.01801278)
(0.01397149 -0.00016746 0.00000000 0.00085929 0.00000000 0.01789755)
(0.01405697 -0.00021627 0.00000000 0.00085096 0.00000000 0.01778862)
(0.01426815 -0.00021966 0.00000000 0.00083463 0.00000000 0.01752699)
(0.01461556 -0.00023570 0.00000000 0.00080068 0.00000000 0.01732755)
(0.01479185 -0.00024548 0.00000000 0.00078732 0.00000000 0.01685556)
(0.01478235 -0.00024618 0.00000000 0.00076660 0.00000000 0.01645959)
(0.01439856 -0.00023797 0.00000000 0.00076983 0.00000000 0.01618536)
(0.01420607 -0.00026257 0.00000000 0.00074558 0.00000000 0.01612869)
(0.01409119 -0.00026587 0.00000000 0.00073387 0.00000000 0.01574122)
(0.01394678 -0.00026924 0.00000000 0.00070181 0.00000000 0.01552663)
(0.01376673 -0.00029241 0.00000000 0.00068493 0.00000000 0.01550756)
(0.01388812 -0.00029981 0.00000000 0.00067078 0.00000000 0.01545542)
(0.01382740 -0.00028920 0.00000000 0.00065926 0.00000000 0.01543049)
(0.01341760 -0.00029435 0.00000000 0.00064975 0.00000000 0.01514618)
(0.01308502 -0.00029778 0.00000000 0.00061996 0.00000000 0.01477058)
(0.01287224 -0.00031868 0.00000000 0.00060546 0.00000000 0.01461433)
(0.01280758 -0.00033337 0.00000000 0.00057498 0.00000000 0.01450176)
(0.01278371 -0.00034909 0.00000000 0.00056423 0.00000000 0.01443191)
(0.01289095 -0.00036777 0.00000000 0.00054919 0.00000000 0.01405357)
(0.01297293 -0.00036885 0.00000000 0.00053506 0.00000000 0.01372257)
(0.01265233 -0.00032382 0.00000000 0.00051552 0.00000000 0.01360706)
(0.01226203 -0.00032467 0.00000000 0.00048454 0.00000000 0.01319468)
(0.01212225 -0.00035025 0.00000000 0.00046602 0.00000000 0.01283134)
(0.01199954 -0.00033161 0.00000000 0.00045655 0.00000000 0.01261244)
(0.01168577 -0.00033353 0.00000000 0.00043504 0.00000000 0.01236366)
(0.01147259 -0.00033708 0.00000000 0.00041378 0.00000000 0.01209116)
(0.01121337 -0.00033674 0.00000000 0.00040465 0.00000000 0.01192772)
(0.01112778 -0.00035444 0.00000000 0.00038832 0.00000000 0.01171705)
(0.01104857 -0.00034261 0.00000000 0.00036381 0.00000000 0.01144997)
(0.01097662 -0.00034276 0.00000000 0.00035780 0.00000000 0.01115601)
(0.01084243 -0.00032685 0.00000000 0.00034836 0.00000000 0.01095169)
(0.01067431 -0.00034181 0.00000000 0.00033516 0.00000000 0.01067470)
(0.01062847 -0.00033376 0.00000000 0.00032249 0.00000000 0.01046562)
(0.01050425 -0.00033280 0.00000000 0.00031477 0.00000000 0.01023164)
(0.01038370 -0.00033559 0.00000000 0.00030623 0.00000000 0.01014573)
(0.01030063 -0.00033843 0.00000000 0.00030189 0.00000000 0.01007449)
(0.01011433 -0.00033522 0.00000000 0.00029543 0.00000000 0.01003396)
(0.00998418 -0.00033518 0.00000000 0.00027884 0.00000000 0.00986585)
(0.00992581 -0.00034305 0.00000000 0.00027641 0.00000000 0.00965406)
(0.00981857 -0.00033373 0.00000000 0.00026737 0.00000000 0.00945022)
(0.00969063 -0.00032810 0.00000000 0.00025807 0.00000000 0.00920397)
(0.00954236 -0.00032259 0.00000000 0.00024719 0.00000000 0.00902568)
(0.00938945 -0.00032312 0.00000000 0.00023611 0.00000000 0.00880092)
(0.00927115 -0.00031968 0.00000000 0.00023606 0.00000000 0.00868239)
(0.00907040 -0.00031300 0.00000000 0.00022994 0.00000000 0.00855466)
(0.00890316 -0.00030478 0.00000000 0.00022100 0.00000000 0.00835628)
(0.00875934 -0.00030398 0.00000000 0.00021676 0.00000000 0.00816334)
(0.00858164 -0.00029577 0.00000000 0.00021129 0.00000000 0.00795159)
(0.00841986 -0.00028869 0.00000000 0.00020379 0.00000000 0.00775167)
(0.00824352 -0.00028280 0.00000000 0.00019702 0.00000000 0.00754647)
(0.00808220 -0.00027423 0.00000000 0.00019518 0.00000000 0.00738442)
(0.00785945 -0.00026276 0.00000000 0.00018931 0.00000000 0.00721372)
(0.00764641 -0.00025940 0.00000000 0.00018648 0.00000000 0.00707845)
(0.00743048 -0.00025037 0.00000000 0.00018442 0.00000000 0.00695854)
(0.00716469 -0.00024060 0.00000000 0.00017724 0.00000000 0.00678637)
(0.00694720 -0.00023078 0.00000000 0.00016969 0.00000000 0.00664518)
(0.00668350 -0.00021685 0.00000000 0.00016815 0.00000000 0.00659912)
(0.00634581 -0.00020025 0.00000000 0.00016951 0.00000000 0.00661323)
(0.00603333 -0.00019623 0.00000000 0.00017415 0.00000000 0.00677827)
(0.00563432 -0.00018008 0.00000000 0.00018562 0.00000000 0.00708869)
(0.00519977 -0.00016755 0.00000000 0.00019323 0.00000000 0.00750315)
(0.00479109 -0.00016350 0.00000000 0.00021217 0.00000000 0.00824199)
(0.00495306 0.00021501 0.00000000 0.00034238 0.00000000 0.01122199)
(0.00501200 0.00073842 0.00000000 0.00043672 0.00000000 0.01363921)
(0.00480408 0.00116705 0.00000000 0.00057991 0.00000000 0.01549048)
(0.00433663 0.00171005 0.00000000 0.00089026 0.00000000 0.01516548)
(0.00402980 0.00181110 0.00000000 0.00097244 0.00000000 0.01396406)
(0.00352617 0.00208993 0.00000000 0.00133941 0.00000000 0.01175130)
(0.00291979 0.00180095 0.00000000 0.00119617 0.00000000 0.01165332)
(0.00228448 0.00151812 0.00000000 0.00107657 0.00000000 0.01012624)
(0.00176342 0.00141842 0.00000000 0.00117761 0.00000000 0.00658396)
(0.00152779 0.00117843 0.00000000 0.00094850 0.00000000 0.00627575)
(0.00114461 0.00086260 0.00000000 0.00067889 0.00000000 0.00515256)
(0.00089988 0.00072625 0.00000000 0.00060580 0.00000000 0.00415418)
(0.00087733 0.00079203 0.00000000 0.00071345 0.00000000 0.00364448)
(0.00067487 0.00050094 0.00000000 0.00037800 0.00000000 0.00580164)
(0.00057783 0.00031635 0.00000000 0.00013483 0.00000000 0.00290098)
(0.00030902 0.00018817 0.00000000 0.00011111 0.00000000 0.00175886)
(0.00092202 0.00060460 0.00000000 0.00038987 0.00000000 0.00147168)
(0.00212701 0.00095961 0.00000000 0.00047463 0.00000000 0.00417113)
(0.00326836 0.00056613 0.00000000 0.00010139 0.00000000 0.00183715)
(0.00978542 0.00031665 0.00000000 0.00005279 0.00000000 0.00459743)
(0.01134022 0.00000699 0.00000000 0.00014491 0.00000000 0.00704627)
(0.02192609 -0.00079642 0.00000000 0.00086360 0.00000000 0.01060807)
(0.02712198 -0.00121955 0.00000000 0.00139630 0.00000000 0.01406004)
(0.01553949 -0.00308493 0.00000000 0.00150578 0.00000000 0.01056263)
(0.01130941 -0.00489770 0.00000000 0.00330439 0.00000000 0.01355192)
(0.00697095 -0.00449122 0.00000000 0.00343900 0.00000000 0.00881838)
(0.00671396 -0.00452926 0.00000000 0.00355455 0.00000000 0.00870292)
(0.00526828 -0.00405624 0.00000000 0.00354871 0.00000000 0.00783781)
(0.00432534 -0.00336888 0.00000000 0.00295196 0.00000000 0.00726118)
(0.00410747 -0.00338202 0.00000000 0.00304682 0.00000000 0.00569471)
(0.00410309 -0.00324729 0.00000000 0.00282084 0.00000000 0.00548921)
(0.00420913 -0.00318026 0.00000000 0.00262224 0.00000000 0.00502531)
(0.00443344 -0.00332786 0.00000000 0.00272343 0.00000000 0.00492385)
(0.00483904 -0.00358279 0.00000000 0.00288952 0.00000000 0.00485131)
(0.00539648 -0.00364950 0.00000000 0.00273491 0.00000000 0.00524332)
(0.00588178 -0.00371671 0.00000000 0.00266970 0.00000000 0.00584450)
(0.00639064 -0.00366560 0.00000000 0.00251368 0.00000000 0.00673974)
(0.00714266 -0.00324201 0.00000000 0.00196698 0.00000000 0.00731529)
(0.00776238 -0.00288527 0.00000000 0.00166360 0.00000000 0.00789233)
(0.00865682 -0.00222221 0.00000000 0.00125628 0.00000000 0.00806986)
(0.00934857 -0.00149160 0.00000000 0.00099138 0.00000000 0.00830356)
(0.01018984 -0.00062718 0.00000000 0.00082648 0.00000000 0.00849210)
(0.01204479 -0.00014279 0.00000000 0.00082452 0.00000000 0.00900303)
(0.01377423 -0.00010124 0.00000000 0.00100433 0.00000000 0.01065982)
(0.01457946 -0.00003369 0.00000000 0.00115880 0.00000000 0.01246649)
(0.01483069 -0.00002881 0.00000000 0.00134100 0.00000000 0.01428914)
(0.01505507 -0.00010021 0.00000000 0.00148592 0.00000000 0.01609838)
(0.01544114 -0.00015194 0.00000000 0.00158481 0.00000000 0.01771988)
(0.01567130 -0.00018519 0.00000000 0.00164954 0.00000000 0.01911573)
(0.01624508 -0.00025623 0.00000000 0.00172600 0.00000000 0.02017887)
(0.01678472 -0.00029570 0.00000000 0.00181919 0.00000000 0.02079249)
(0.01739190 -0.00032620 0.00000000 0.00184525 0.00000000 0.02110218)
(0.01788092 -0.00034113 0.00000000 0.00184719 0.00000000 0.02127823)
(0.01804761 -0.00036375 0.00000000 0.00190713 0.00000000 0.02158570)
(0.01802871 -0.00031949 0.00000000 0.00192390 0.00000000 0.02184930)
(0.01782756 -0.00040671 0.00000000 0.00196604 0.00000000 0.02225127)
(0.01770079 -0.00038987 0.00000000 0.00198097 0.00000000 0.02259206)
(0.01752169 -0.00039688 0.00000000 0.00195075 0.00000000 0.02286376)
(0.01763165 -0.00042819 0.00000000 0.00193031 0.00000000 0.02265908)
(0.01782717 -0.00049359 0.00000000 0.00191346 0.00000000 0.02251119)
(0.01823006 -0.00050204 0.00000000 0.00187967 0.00000000 0.02228747)
(0.01868383 -0.00050706 0.00000000 0.00181400 0.00000000 0.02210233)
(0.01887876 -0.00051835 0.00000000 0.00178355 0.00000000 0.02159082)
(0.01889040 -0.00049539 0.00000000 0.00174793 0.00000000 0.02110731)
(0.01851168 -0.00047874 0.00000000 0.00174779 0.00000000 0.02077325)
(0.01825748 -0.00051412 0.00000000 0.00169633 0.00000000 0.02074007)
(0.01810509 -0.00052591 0.00000000 0.00166465 0.00000000 0.02031637)
(0.01800070 -0.00051830 0.00000000 0.00160257 0.00000000 0.01994930)
(0.01792591 -0.00055340 0.00000000 0.00156834 0.00000000 0.01997384)
(0.01809780 -0.00056510 0.00000000 0.00153598 0.00000000 0.01993778)
(0.01804021 -0.00053019 0.00000000 0.00151462 0.00000000 0.01989976)
(0.01762426 -0.00053196 0.00000000 0.00149717 0.00000000 0.01958219)
(0.01730640 -0.00054274 0.00000000 0.00143572 0.00000000 0.01925970)
(0.01711762 -0.00056491 0.00000000 0.00139340 0.00000000 0.01910577)
(0.01711773 -0.00059612 0.00000000 0.00133483 0.00000000 0.01894294)
(0.01716823 -0.00061423 0.00000000 0.00130472 0.00000000 0.01894847)
(0.01727800 -0.00064098 0.00000000 0.00127211 0.00000000 0.01848490)
(0.01738352 -0.00063835 0.00000000 0.00125160 0.00000000 0.01809432)
(0.01707450 -0.00057041 0.00000000 0.00120581 0.00000000 0.01798375)
(0.01670385 -0.00056556 0.00000000 0.00113694 0.00000000 0.01751766)
(0.01660265 -0.00060974 0.00000000 0.00109681 0.00000000 0.01707682)
(0.01643908 -0.00057128 0.00000000 0.00107503 0.00000000 0.01680941)
(0.01608822 -0.00057739 0.00000000 0.00102791 0.00000000 0.01655230)
(0.01586089 -0.00058012 0.00000000 0.00098265 0.00000000 0.01624870)
(0.01557818 -0.00058409 0.00000000 0.00096146 0.00000000 0.01604718)