/*--------------------------------*- C++ -*----------------------------------*\
  =========                 |
  \\      /  F ield         | OpenFOAM: The Open Source CFD Toolbox
   \\    /   O peration     | Website:  https://openfoam.org
    \\  /    A nd           | Version:  7
     \\/     M anipulation  |
\*---------------------------------------------------------------------------*/
FoamFile
{
    version     2.0;
    format      ascii;
    class       volVectorField;
    location    "0";
    object      U_LES;
}
// * * * * * * * * * * * * * * * * * * * * * * * * * * * * * * * * * * * * * //

dimensions      [0 1 -1 0 0 0 0];

internalField   nonuniform List<vector>
15600
(
(-0.00950349 0.00037055 0.00000000)
(-0.01295607 0.00003645 0.00000000)
(0.00080701 0.00042046 0.00000000)
(-0.00780229 0.00127259 0.00000000)
(-0.00184688 0.00137425 0.00000000)
(-0.00282635 0.00129395 0.00000000)
(-0.00346961 0.00430460 0.00000000)
(-0.00443895 0.00281581 0.00000000)
(-0.00416716 0.00291800 0.00000000)
(-0.00475820 0.00358392 0.00000000)
(-0.00569248 0.00430225 0.00000000)
(-0.00745082 0.00549963 0.00000000)
(-0.00934834 0.00625773 0.00000000)
(-0.01095874 0.00542204 0.00000000)
(-0.01445651 0.00782597 0.00000000)
(-0.01641608 0.01105402 0.00000000)
(-0.02030469 0.01030206 0.00000000)
(-0.02272386 0.01065532 0.00000000)
(-0.02197368 0.00722059 0.00000000)
(-0.02333968 0.00383007 0.00000000)
(-0.02302718 0.00116415 0.00000000)
(-0.01988370 0.00011677 0.00000000)
(-0.02588992 0.00008716 0.00000000)
(-0.03101222 0.00006708 0.00000000)
(-0.03496058 0.00004950 0.00000000)
(-0.03756809 0.00003109 0.00000000)
(-0.03868846 0.00000912 0.00000000)
(-0.03949635 0.00000365 0.00000000)
(-0.03870270 -0.00002071 0.00000000)
(-0.03776859 -0.00001479 0.00000000)
(-0.03601758 -0.00002802 0.00000000)
(-0.03428526 -0.00001738 0.00000000)
(-0.03293320 -0.00002027 0.00000000)
(-0.03197376 -0.00001357 0.00000000)
(-0.03034366 -0.00002507 0.00000000)
(-0.02900252 -0.00003160 0.00000000)
(-0.02617441 -0.00004015 0.00000000)
(-0.02336997 -0.00003500 0.00000000)
(-0.02091855 -0.00003768 0.00000000)
(-0.01847941 -0.00002559 0.00000000)
(-0.01645712 -0.00002738 0.00000000)
(-0.01484333 -0.00002437 0.00000000)
(-0.01309741 -0.00001766 0.00000000)
(-0.01125253 -0.00003323 0.00000000)
(-0.00911641 -0.00001863 0.00000000)
(-0.00750560 -0.00003205 0.00000000)
(-0.00560053 -0.00002410 0.00000000)
(-0.00351523 -0.00002774 0.00000000)
(-0.00202777 -0.00001778 0.00000000)
(-0.00060659 -0.00002206 0.00000000)
(0.00147773 -0.00002805 0.00000000)
(0.00313736 -0.00001849 0.00000000)
(0.00462388 -0.00002378 0.00000000)
(0.00611324 -0.00002007 0.00000000)
(0.00736641 -0.00001850 0.00000000)
(0.00870581 -0.00001821 0.00000000)
(0.00975842 -0.00000929 0.00000000)
(0.01078722 -0.00002426 0.00000000)
(0.01197208 -0.00001330 0.00000000)
(0.01282468 -0.00001113 0.00000000)
(0.01376595 -0.00001697 0.00000000)
(0.01500869 -0.00001463 0.00000000)
(0.01584042 -0.00001110 0.00000000)
(0.01674364 -0.00001441 0.00000000)
(0.01750764 -0.00000896 0.00000000)
(0.01811433 -0.00000761 0.00000000)
(0.01867116 -0.00000701 0.00000000)
(0.01929966 -0.00001338 0.00000000)
(0.02007505 -0.00000739 0.00000000)
(0.02036141 -0.00000357 0.00000000)
(0.02054445 -0.00000215 0.00000000)
(0.02091956 -0.00000561 0.00000000)
(0.02117397 -0.00000265 0.00000000)
(0.02160801 -0.00000834 0.00000000)
(0.02205009 -0.00000496 0.00000000)
(0.02227317 -0.00000119 0.00000000)
(0.02247670 -0.00000258 0.00000000)
(0.02258236 -0.00000185 0.00000000)
(0.02277246 -0.00000252 0.00000000)
(0.02283962 0.00000056 0.00000000)
(0.02275720 0.00000145 0.00000000)
(0.02276330 -0.00000013 0.00000000)
(0.02261131 0.00000322 0.00000000)
(0.02240584 0.00000453 0.00000000)
(0.02210858 0.00000480 0.00000000)
(0.02163349 0.00000747 0.00000000)
(0.02111054 0.00001001 0.00000000)
(0.02034741 0.00001086 0.00000000)
(0.01954755 0.00001243 0.00000000)
(0.01856396 0.00001564 0.00000000)
(0.01740820 0.00001919 0.00000000)
(0.01605493 0.00002074 0.00000000)
(0.01449739 0.00002399 0.00000000)
(0.01278474 0.00002796 0.00000000)
(0.01077049 0.00002974 0.00000000)
(0.00846296 0.00003638 0.00000000)
(0.00578196 0.00003882 0.00000000)
(0.00291079 0.00003934 0.00000000)
(-0.00050422 0.00007141 0.00000000)
(-0.00325114 -0.00118658 0.00000000)
(-0.00088424 -0.00047729 0.00000000)
(0.00201352 0.00047834 0.00000000)
(0.00291922 0.00142909 0.00000000)
(0.00241625 0.00115949 0.00000000)
(0.00002218 0.00041352 0.00000000)
(-0.00004171 0.00020830 0.00000000)
(-0.00090284 0.00004428 0.00000000)
(0.00109203 0.00064312 0.00000000)
(0.00151941 0.00171912 0.00000000)
(-0.00047787 -0.00006288 0.00000000)
(0.00123082 0.00121082 0.00000000)
(0.00158105 0.00101059 0.00000000)
(0.00503437 0.00243779 0.00000000)
(-0.01704057 -0.01713270 0.00000000)
(-0.02538030 -0.01540150 0.00000000)
(-0.00744476 -0.00503413 0.00000000)
(-0.00208954 0.00729006 0.00000000)
(-0.01212718 -0.00357162 0.00000000)
(0.01080503 0.00093613 0.00000000)
(-0.00514769 0.00031214 0.00000000)
(-0.00548949 0.00069714 0.00000000)
(-0.01760956 -0.00000203 0.00000000)
(-0.00986505 0.00374746 0.00000000)
(-0.01979732 0.00576110 0.00000000)
(-0.01154393 0.00759248 0.00000000)
(-0.01212031 0.00749857 0.00000000)
(-0.00938265 0.00985833 0.00000000)
(-0.01044749 0.00721688 0.00000000)
(-0.00935180 0.00858638 0.00000000)
(-0.01078606 0.01037381 0.00000000)
(-0.01352703 0.01233502 0.00000000)
(-0.01887425 0.01636655 0.00000000)
(-0.02296390 0.01910781 0.00000000)
(-0.03171674 0.02111110 0.00000000)
(-0.03860069 0.02448767 0.00000000)
(-0.04170019 0.03044245 0.00000000)
(-0.04743763 0.02456985 0.00000000)
(-0.04934360 0.02226649 0.00000000)
(-0.05059400 0.01667523 0.00000000)
(-0.04942227 0.01020281 0.00000000)
(-0.04952596 0.00438998 0.00000000)
(-0.05804520 0.00122957 0.00000000)
(-0.07442570 0.00090603 0.00000000)
(-0.08677418 0.00064528 0.00000000)
(-0.09557999 0.00047185 0.00000000)
(-0.10101084 0.00029659 0.00000000)
(-0.10369676 0.00006417 0.00000000)
(-0.10420812 0.00000530 0.00000000)
(-0.10224099 -0.00020695 0.00000000)
(-0.09824346 -0.00019073 0.00000000)
(-0.09317868 -0.00031052 0.00000000)
(-0.08885786 -0.00018778 0.00000000)
(-0.08535552 -0.00019904 0.00000000)
(-0.08166337 -0.00016475 0.00000000)
(-0.07745937 -0.00025064 0.00000000)
(-0.07256895 -0.00036349 0.00000000)
(-0.06527971 -0.00043356 0.00000000)
(-0.05774495 -0.00039870 0.00000000)
(-0.05117630 -0.00042015 0.00000000)
(-0.04491843 -0.00028694 0.00000000)
(-0.03943609 -0.00031761 0.00000000)
(-0.03501423 -0.00027757 0.00000000)
(-0.03023472 -0.00022372 0.00000000)
(-0.02492764 -0.00035899 0.00000000)
(-0.01947873 -0.00021639 0.00000000)
(-0.01484116 -0.00033934 0.00000000)
(-0.00967319 -0.00028147 0.00000000)
(-0.00429899 -0.00029662 0.00000000)
(-0.00020038 -0.00020123 0.00000000)
(0.00409116 -0.00027957 0.00000000)
(0.00964414 -0.00031969 0.00000000)
(0.01409479 -0.00021636 0.00000000)
(0.01798230 -0.00024059 0.00000000)
(0.02200793 -0.00020642 0.00000000)
(0.02564673 -0.00021773 0.00000000)
(0.02918155 -0.00018163 0.00000000)
(0.03222013 -0.00011668 0.00000000)
(0.03528069 -0.00022242 0.00000000)
(0.03845400 -0.00015310 0.00000000)
(0.04079558 -0.00012512 0.00000000)
(0.04351311 -0.00018868 0.00000000)
(0.04681125 -0.00014415 0.00000000)
(0.04917001 -0.00011343 0.00000000)
(0.05174831 -0.00015484 0.00000000)
(0.05391471 -0.00010040 0.00000000)
(0.05570624 -0.00008841 0.00000000)
(0.05733609 -0.00007683 0.00000000)
(0.05918362 -0.00013687 0.00000000)
(0.06127577 -0.00008522 0.00000000)
(0.06225404 -0.00004487 0.00000000)
(0.06295067 -0.00003333 0.00000000)
(0.06401809 -0.00006381 0.00000000)
(0.06489339 -0.00004096 0.00000000)
(0.06617163 -0.00008777 0.00000000)
(0.06741972 -0.00006200 0.00000000)
(0.06814025 -0.00001972 0.00000000)
(0.06878919 -0.00003410 0.00000000)
(0.06921253 -0.00002214 0.00000000)
(0.06978053 -0.00003132 0.00000000)
(0.07006153 0.00000410 0.00000000)
(0.07001564 0.00000756 0.00000000)
(0.07011003 0.00000414 0.00000000)
(0.06972402 0.00002984 0.00000000)
(0.06918576 0.00004447 0.00000000)
(0.06843909 0.00005054 0.00000000)
(0.06728584 0.00007865 0.00000000)
(0.06585891 0.00010474 0.00000000)
(0.06391214 0.00011825 0.00000000)
(0.06178612 0.00013413 0.00000000)
(0.05921164 0.00016842 0.00000000)
(0.05614156 0.00020035 0.00000000)
(0.05249636 0.00022570 0.00000000)
(0.04826005 0.00026182 0.00000000)
(0.04346212 0.00029551 0.00000000)
(0.03799815 0.00033063 0.00000000)
(0.03163371 0.00040963 0.00000000)
(0.02433968 0.00043588 0.00000000)
(0.01615973 0.00048881 0.00000000)
(0.00675575 0.00067926 0.00000000)
(0.00008588 -0.00054456 0.00000000)
(0.00443020 0.00034829 0.00000000)
(0.01460159 0.00360847 0.00000000)
(0.02425617 0.01078534 0.00000000)
(0.03027468 0.01535057 0.00000000)
(0.02250046 0.01570211 0.00000000)
(0.02877330 0.01711969 0.00000000)
(0.02966854 0.01982454 0.00000000)
(0.01252534 0.01359673 0.00000000)
(0.01688641 0.01715283 0.00000000)
(0.01098771 0.01139933 0.00000000)
(0.00649267 0.00817714 0.00000000)
(0.00195497 0.00481700 0.00000000)
(0.03036137 0.02207057 0.00000000)
(0.00351897 -0.00238838 0.00000000)
(-0.00482528 -0.00144925 0.00000000)
(0.02636611 0.01778401 0.00000000)
(0.03854183 0.02683143 0.00000000)
(0.02999576 0.00435227 0.00000000)
(0.04007297 0.00403750 0.00000000)
(0.00736405 0.00096421 0.00000000)
(0.00723391 0.00116565 0.00000000)
(-0.01230741 -0.00017362 0.00000000)
(-0.02401256 0.00717753 0.00000000)
(-0.03517787 0.01215127 0.00000000)
(-0.02540104 0.01655153 0.00000000)
(-0.02320795 0.01564225 0.00000000)
(-0.01796434 0.01624787 0.00000000)
(-0.01797769 0.01327214 0.00000000)
(-0.01672981 0.01591578 0.00000000)
(-0.01970368 0.01830495 0.00000000)
(-0.02484643 0.02158484 0.00000000)
(-0.03291526 0.02828875 0.00000000)
(-0.04070613 0.03416123 0.00000000)
(-0.05016758 0.03592991 0.00000000)
(-0.05858586 0.03967393 0.00000000)
(-0.06539334 0.04407570 0.00000000)
(-0.07069642 0.03757238 0.00000000)
(-0.07317919 0.03241590 0.00000000)
(-0.07465267 0.02390389 0.00000000)
(-0.07477334 0.01584746 0.00000000)
(-0.07741096 0.00710142 0.00000000)
(-0.09316730 0.00310848 0.00000000)
(-0.11482795 0.00223288 0.00000000)
(-0.13014061 0.00154944 0.00000000)
(-0.14056418 0.00107931 0.00000000)
(-0.14679333 0.00064224 0.00000000)
(-0.14848534 0.00008580 0.00000000)
(-0.14803365 -0.00007616 0.00000000)
(-0.14390007 -0.00059350 0.00000000)
(-0.13773407 -0.00058751 0.00000000)
(-0.13022240 -0.00082689 0.00000000)
(-0.12368545 -0.00055068 0.00000000)
(-0.11802029 -0.00056629 0.00000000)
(-0.11237459 -0.00049963 0.00000000)
(-0.10584796 -0.00069248 0.00000000)
(-0.09814436 -0.00100663 0.00000000)
(-0.08796243 -0.00112930 0.00000000)
(-0.07772972 -0.00105883 0.00000000)
(-0.06835884 -0.00108300 0.00000000)
(-0.05944199 -0.00078017 0.00000000)
(-0.05152115 -0.00084550 0.00000000)
(-0.04480863 -0.00075457 0.00000000)
(-0.03781439 -0.00066929 0.00000000)
(-0.02993758 -0.00090633 0.00000000)
(-0.02220670 -0.00061642 0.00000000)
(-0.01522207 -0.00086836 0.00000000)
(-0.00777210 -0.00077036 0.00000000)
(-0.00022493 -0.00077384 0.00000000)
(0.00598669 -0.00056653 0.00000000)
(0.01247453 -0.00078083 0.00000000)
(0.02046530 -0.00082994 0.00000000)
(0.02710489 -0.00060684 0.00000000)
(0.03281700 -0.00063953 0.00000000)
(0.03867146 -0.00057291 0.00000000)
(0.04417096 -0.00059115 0.00000000)
(0.04940315 -0.00049697 0.00000000)
(0.05398578 -0.00036730 0.00000000)
(0.05893379 -0.00057498 0.00000000)
(0.06356758 -0.00042404 0.00000000)
(0.06717420 -0.00034545 0.00000000)
(0.07133959 -0.00052094 0.00000000)
(0.07621497 -0.00041431 0.00000000)
(0.07995428 -0.00033119 0.00000000)
(0.08387897 -0.00041250 0.00000000)
(0.08719335 -0.00028786 0.00000000)
(0.09016680 -0.00024963 0.00000000)
(0.09270038 -0.00022508 0.00000000)
(0.09570864 -0.00036786 0.00000000)
(0.09879933 -0.00024379 0.00000000)
(0.10072477 -0.00014170 0.00000000)
(0.10214419 -0.00011323 0.00000000)
(0.10384371 -0.00018323 0.00000000)
(0.10545770 -0.00013718 0.00000000)
(0.10750257 -0.00022883 0.00000000)
(0.10945392 -0.00017916 0.00000000)
(0.11079879 -0.00007825 0.00000000)
(0.11196167 -0.00010338 0.00000000)
(0.11287140 -0.00007381 0.00000000)
(0.11379510 -0.00009096 0.00000000)
(0.11455358 -0.00001067 0.00000000)
(0.11480971 0.00000152 0.00000000)
(0.11500410 0.00000819 0.00000000)
(0.11476348 0.00006715 0.00000000)
(0.11414290 0.00010344 0.00000000)
(0.11322643 0.00013261 0.00000000)
(0.11173815 0.00019973 0.00000000)
(0.10978367 0.00027002 0.00000000)
(0.10724470 0.00030720 0.00000000)
(0.10430351 0.00035123 0.00000000)
(0.10083736 0.00043656 0.00000000)
(0.09654073 0.00052328 0.00000000)
(0.09138698 0.00060566 0.00000000)
(0.08525856 0.00070172 0.00000000)
(0.07822300 0.00079620 0.00000000)
(0.07019295 0.00090128 0.00000000)
(0.06075610 0.00109826 0.00000000)
(0.04998487 0.00119830 0.00000000)
(0.03757111 0.00134594 0.00000000)
(0.02334857 0.00182052 0.00000000)
(0.01469990 0.00115578 0.00000000)
(0.02062845 0.00284774 0.00000000)
(0.03430634 0.00902943 0.00000000)
(0.04833200 0.02027189 0.00000000)
(0.06052086 0.03006550 0.00000000)
(0.07059627 0.04382512 0.00000000)
(0.07492591 0.04960668 0.00000000)
(0.07634735 0.05612822 0.00000000)
(0.07348805 0.05764392 0.00000000)
(0.07992259 0.05937971 0.00000000)
(0.07552352 0.05478708 0.00000000)
(0.06869361 0.05175821 0.00000000)
(0.05528359 0.04887707 0.00000000)
(0.08271596 0.06493187 0.00000000)
(0.08388940 0.05258940 0.00000000)
(0.07992314 0.05377105 0.00000000)
(0.07779713 0.05137168 0.00000000)
(0.16645324 0.08978298 0.00000000)
(0.14017671 0.02828618 0.00000000)
(0.09704294 0.01065412 0.00000000)
(0.03207313 0.00223028 0.00000000)
(0.03102944 0.00188573 0.00000000)
(0.00369519 -0.00044521 0.00000000)
(-0.02984289 0.00915589 0.00000000)
(-0.04662754 0.01947896 0.00000000)
(-0.03711875 0.02378192 0.00000000)
(-0.03193563 0.02259260 0.00000000)
(-0.02695668 0.02204020 0.00000000)
(-0.02532099 0.01906423 0.00000000)
(-0.02491791 0.02280310 0.00000000)
(-0.02916075 0.02500034 0.00000000)
(-0.03567138 0.02953643 0.00000000)
(-0.04579104 0.03757429 0.00000000)
(-0.05613563 0.04548800 0.00000000)
(-0.06687673 0.04973654 0.00000000)
(-0.07651739 0.05378999 0.00000000)
(-0.08424333 0.05518939 0.00000000)
(-0.09031748 0.04795683 0.00000000)
(-0.09315149 0.04094701 0.00000000)
(-0.09548211 0.03047570 0.00000000)
(-0.09744048 0.02041252 0.00000000)
(-0.10292050 0.01025709 0.00000000)
(-0.12282468 0.00535914 0.00000000)
(-0.14616176 0.00379352 0.00000000)
(-0.16192876 0.00256625 0.00000000)
(-0.17206328 0.00172836 0.00000000)
(-0.17747922 0.00093454 0.00000000)
(-0.17779116 0.00001288 0.00000000)
(-0.17570068 -0.00028609 0.00000000)
(-0.16996447 -0.00114321 0.00000000)
(-0.16216801 -0.00119463 0.00000000)
(-0.15304630 -0.00151214 0.00000000)
(-0.14486703 -0.00109301 0.00000000)
(-0.13748473 -0.00111565 0.00000000)
(-0.13021748 -0.00101285 0.00000000)
(-0.12200073 -0.00131384 0.00000000)
(-0.11212890 -0.00188578 0.00000000)
(-0.10028862 -0.00203454 0.00000000)
(-0.08816206 -0.00194435 0.00000000)
(-0.07701687 -0.00194716 0.00000000)
(-0.06656566 -0.00148126 0.00000000)
(-0.05687661 -0.00155698 0.00000000)
(-0.04857067 -0.00140165 0.00000000)
(-0.04008655 -0.00132612 0.00000000)
(-0.03035173 -0.00162029 0.00000000)
(-0.02113338 -0.00121438 0.00000000)
(-0.01248140 -0.00155738 0.00000000)
(-0.00358044 -0.00144110 0.00000000)
(0.00537865 -0.00141677 0.00000000)
(0.01318278 -0.00108948 0.00000000)
(0.02125709 -0.00148881 0.00000000)
(0.03080961 -0.00150659 0.00000000)
(0.03901955 -0.00116247 0.00000000)
(0.04610733 -0.00117623 0.00000000)
(0.05303817 -0.00108660 0.00000000)
(0.05999209 -0.00111424 0.00000000)
(0.06641651 -0.00093619 0.00000000)
(0.07205806 -0.00076990 0.00000000)
(0.07844570 -0.00104007 0.00000000)
(0.08415905 -0.00082026 0.00000000)
(0.08883198 -0.00066660 0.00000000)
(0.09417070 -0.00098142 0.00000000)
(0.10008100 -0.00081159 0.00000000)
(0.10503058 -0.00066438 0.00000000)
(0.10992263 -0.00076638 0.00000000)
(0.11418266 -0.00057235 0.00000000)
(0.11799269 -0.00049610 0.00000000)
(0.12150473 -0.00045573 0.00000000)
(0.12530917 -0.00068627 0.00000000)
(0.12920881 -0.00047960 0.00000000)
(0.13193212 -0.00030712 0.00000000)
(0.13420293 -0.00025513 0.00000000)
(0.13650065 -0.00035953 0.00000000)
(0.13885671 -0.00030420 0.00000000)
(0.14153159 -0.00041934 0.00000000)
(0.14406985 -0.00035133 0.00000000)
(0.14596717 -0.00018903 0.00000000)
(0.14769350 -0.00021961 0.00000000)
(0.14912201 -0.00016763 0.00000000)
(0.15047240 -0.00018429 0.00000000)
(0.15162057 -0.00006552 0.00000000)
(0.15243449 -0.00002993 0.00000000)
(0.15291177 -0.00000558 0.00000000)
(0.15291707 0.00009405 0.00000000)
(0.15254756 0.00015847 0.00000000)
(0.15172652 0.00022722 0.00000000)
(0.15034511 0.00034251 0.00000000)
(0.14817603 0.00047050 0.00000000)
(0.14550303 0.00054153 0.00000000)
(0.14228979 0.00062309 0.00000000)
(0.13839805 0.00077503 0.00000000)
(0.13364782 0.00093737 0.00000000)
(0.12774282 0.00110661 0.00000000)
(0.12054214 0.00129196 0.00000000)
(0.11214330 0.00147586 0.00000000)
(0.10255344 0.00168048 0.00000000)
(0.09121925 0.00202714 0.00000000)
(0.07823562 0.00225542 0.00000000)
(0.06294162 0.00255739 0.00000000)
(0.04537142 0.00335034 0.00000000)
(0.03529480 0.00336117 0.00000000)
(0.04092489 0.00601432 0.00000000)
(0.05551608 0.01459417 0.00000000)
(0.07171714 0.02874052 0.00000000)
(0.08683374 0.04391136 0.00000000)
(0.10192058 0.06187880 0.00000000)
(0.11284572 0.07513923 0.00000000)
(0.12562665 0.09133024 0.00000000)
(0.14117122 0.10429148 0.00000000)
(0.14805854 0.11179165 0.00000000)
(0.15210923 0.11395162 0.00000000)
(0.15569655 0.12120694 0.00000000)
(0.15340782 0.11771694 0.00000000)
(0.15542262 0.14196248 0.00000000)
(0.18288984 0.13318464 0.00000000)
(0.21833310 0.15194355 0.00000000)
(0.23189187 0.15269193 0.00000000)
(0.37146855 0.16764702 0.00000000)
(0.32056376 0.07630355 0.00000000)
(0.18435738 0.02229196 0.00000000)
(0.07110301 0.00465486 0.00000000)
(0.06393504 0.00291295 0.00000000)
(0.02932856 -0.00083168 0.00000000)
(-0.02440588 0.01029653 0.00000000)
(-0.05388355 0.02363497 0.00000000)
(-0.04922861 0.03096741 0.00000000)
(-0.04077851 0.02918381 0.00000000)
(-0.03475636 0.02796875 0.00000000)
(-0.03219760 0.02532308 0.00000000)
(-0.03306896 0.02868781 0.00000000)
(-0.03758671 0.03168523 0.00000000)
(-0.04540227 0.03758080 0.00000000)
(-0.05694697 0.04676023 0.00000000)
(-0.06931480 0.05610422 0.00000000)
(-0.08134026 0.06173736 0.00000000)
(-0.09160521 0.06510278 0.00000000)
(-0.09953783 0.06460495 0.00000000)
(-0.10564624 0.05676163 0.00000000)
(-0.10940387 0.04791672 0.00000000)
(-0.11302885 0.03621689 0.00000000)
(-0.11680655 0.02458205 0.00000000)
(-0.12526360 0.01336216 0.00000000)
(-0.14695297 0.00776993 0.00000000)
(-0.16986273 0.00539803 0.00000000)
(-0.18473103 0.00356914 0.00000000)
(-0.19376199 0.00233288 0.00000000)
(-0.19784544 0.00109185 0.00000000)
(-0.19661393 -0.00017983 0.00000000)
(-0.19296097 -0.00063696 0.00000000)
(-0.18596818 -0.00181856 0.00000000)
(-0.17700116 -0.00196697 0.00000000)
(-0.16680550 -0.00231123 0.00000000)
(-0.15731515 -0.00181168 0.00000000)
(-0.14862264 -0.00182035 0.00000000)
(-0.13998309 -0.00168957 0.00000000)
(-0.13063461 -0.00209445 0.00000000)
(-0.11926115 -0.00293540 0.00000000)
(-0.10641591 -0.00308541 0.00000000)
(-0.09312072 -0.00299668 0.00000000)
(-0.08084763 -0.00294366 0.00000000)
(-0.06932778 -0.00235934 0.00000000)
(-0.05839592 -0.00239833 0.00000000)
(-0.04900985 -0.00216763 0.00000000)
(-0.03940779 -0.00214685 0.00000000)
(-0.02836924 -0.00247726 0.00000000)
(-0.01816663 -0.00198551 0.00000000)
(-0.00834269 -0.00235351 0.00000000)
(0.00150913 -0.00224490 0.00000000)
(0.01143721 -0.00219398 0.00000000)
(0.02045167 -0.00174325 0.00000000)
(0.02966310 -0.00234412 0.00000000)
(0.04019876 -0.00231321 0.00000000)
(0.04948449 -0.00184156 0.00000000)
(0.05753766 -0.00181905 0.00000000)
(0.06514964 -0.00170690 0.00000000)
(0.07313005 -0.00175925 0.00000000)
(0.08042792 -0.00147588 0.00000000)
(0.08686278 -0.00129441 0.00000000)
(0.09408357 -0.00158724 0.00000000)
(0.10059697 -0.00132263 0.00000000)
(0.10616542 -0.00107990 0.00000000)
(0.11237202 -0.00153504 0.00000000)
(0.11893179 -0.00130909 0.00000000)
(0.12475775 -0.00110808 0.00000000)
(0.13036460 -0.00120002 0.00000000)
(0.13535189 -0.00094174 0.00000000)
(0.13981715 -0.00081990 0.00000000)
(0.14402002 -0.00076237 0.00000000)
(0.14842218 -0.00107241 0.00000000)
(0.15289066 -0.00078628 0.00000000)
(0.15635270 -0.00054201 0.00000000)
(0.15942983 -0.00046353 0.00000000)
(0.16220445 -0.00058171 0.00000000)
(0.16520436 -0.00054740 0.00000000)
(0.16837616 -0.00065067 0.00000000)
(0.17131187 -0.00056870 0.00000000)
(0.17378860 -0.00035602 0.00000000)
(0.17600265 -0.00038314 0.00000000)
(0.17796619 -0.00030417 0.00000000)
(0.17968463 -0.00030587 0.00000000)
(0.18119908 -0.00016657 0.00000000)
(0.18230952 -0.00009420 0.00000000)
(0.18322234 -0.00005112 0.00000000)
(0.18357509 0.00009441 0.00000000)
(0.18358108 0.00019374 0.00000000)
(0.18301613 0.00031433 0.00000000)
(0.18169579 0.00048358 0.00000000)
(0.17980089 0.00067658 0.00000000)
(0.17714718 0.00078735 0.00000000)
(0.17407606 0.00091427 0.00000000)
(0.17022661 0.00114143 0.00000000)
(0.16530225 0.00139691 0.00000000)
(0.15916922 0.00167361 0.00000000)
(0.15162968 0.00197202 0.00000000)
(0.14269555 0.00226298 0.00000000)
(0.13233810 0.00260017 0.00000000)
(0.12004795 0.00310463 0.00000000)
(0.10593739 0.00351065 0.00000000)
(0.08903103 0.00402375 0.00000000)
(0.06955199 0.00513838 0.00000000)
(0.05803287 0.00574238 0.00000000)
(0.06211028 0.00935800 0.00000000)
(0.07561136 0.01949542 0.00000000)
(0.09204713 0.03566918 0.00000000)
(0.10902636 0.05386597 0.00000000)
(0.12608698 0.07634644 0.00000000)
(0.14119287 0.09532560 0.00000000)
(0.15951299 0.11439013 0.00000000)
(0.18034372 0.13370665 0.00000000)
(0.19708020 0.14781790 0.00000000)
(0.21188241 0.15945708 0.00000000)
(0.21932139 0.17125747 0.00000000)
(0.24108160 0.18547716 0.00000000)
(0.24734542 0.22042539 0.00000000)
(0.29298530 0.22539422 0.00000000)
(0.35525391 0.24914094 0.00000000)
(0.42045854 0.27763260 0.00000000)
(0.52641676 0.24194544 0.00000000)
(0.53040910 0.13521338 0.00000000)
(0.29372649 0.03857990 0.00000000)
(0.12420080 0.00854910 0.00000000)
(0.10576332 0.00442315 0.00000000)
(0.06228145 -0.00125742 0.00000000)
(-0.00739935 0.00867034 0.00000000)
(-0.05723151 0.02626933 0.00000000)
(-0.05633296 0.03462234 0.00000000)
(-0.04938825 0.03575671 0.00000000)
(-0.04178665 0.03372104 0.00000000)
(-0.03906941 0.03171990 0.00000000)
(-0.04090309 0.03468610 0.00000000)
(-0.04601236 0.03864578 0.00000000)
(-0.05534644 0.04604262 0.00000000)
(-0.06770151 0.05592122 0.00000000)
(-0.08064678 0.06562734 0.00000000)
(-0.09273928 0.07158147 0.00000000)
(-0.10301169 0.07423699 0.00000000)
(-0.11107176 0.07225654 0.00000000)
(-0.11786734 0.06387009 0.00000000)
(-0.12260974 0.05375933 0.00000000)
(-0.12729911 0.04108679 0.00000000)
(-0.13316485 0.02836272 0.00000000)
(-0.14411476 0.01638460 0.00000000)
(-0.16602875 0.01016320 0.00000000)
(-0.18749385 0.00695428 0.00000000)
(-0.20088409 0.00449752 0.00000000)
(-0.20847961 0.00284883 0.00000000)
(-0.21106090 0.00109422 0.00000000)
(-0.20845575 -0.00049149 0.00000000)
(-0.20348348 -0.00112928 0.00000000)
(-0.19559982 -0.00258955 0.00000000)
(-0.18575275 -0.00286889 0.00000000)
(-0.17486990 -0.00319626 0.00000000)
(-0.16446781 -0.00268037 0.00000000)
(-0.15462157 -0.00264234 0.00000000)
(-0.14493182 -0.00250592 0.00000000)
(-0.13465290 -0.00301853 0.00000000)
(-0.12230643 -0.00410900 0.00000000)
(-0.10877917 -0.00424542 0.00000000)
(-0.09475261 -0.00417278 0.00000000)
(-0.08177190 -0.00404610 0.00000000)
(-0.06947304 -0.00338538 0.00000000)
(-0.05768244 -0.00332870 0.00000000)
(-0.04749818 -0.00302625 0.00000000)
(-0.03710637 -0.00309787 0.00000000)
(-0.02513691 -0.00346469 0.00000000)
(-0.01421085 -0.00290065 0.00000000)
(-0.00351494 -0.00323440 0.00000000)
(0.00700269 -0.00315204 0.00000000)
(0.01759148 -0.00307977 0.00000000)
(0.02755239 -0.00251519 0.00000000)
(0.03762573 -0.00329819 0.00000000)
(0.04871546 -0.00323302 0.00000000)
(0.05873930 -0.00261270 0.00000000)
(0.06745345 -0.00254702 0.00000000)
(0.07558626 -0.00240961 0.00000000)
(0.08428959 -0.00249739 0.00000000)
(0.09218870 -0.00209760 0.00000000)
(0.09922869 -0.00190975 0.00000000)
(0.10686493 -0.00220073 0.00000000)
(0.11399692 -0.00191092 0.00000000)
(0.12029460 -0.00157999 0.00000000)
(0.12708406 -0.00216293 0.00000000)
(0.13412450 -0.00187383 0.00000000)
(0.14057609 -0.00164244 0.00000000)
(0.14666778 -0.00169840 0.00000000)
(0.15212767 -0.00137817 0.00000000)
(0.15711083 -0.00121267 0.00000000)
(0.16180494 -0.00113313 0.00000000)
(0.16661383 -0.00151151 0.00000000)
(0.17152691 -0.00115648 0.00000000)
(0.17558217 -0.00084337 0.00000000)
(0.17931164 -0.00073699 0.00000000)
(0.18251636 -0.00084278 0.00000000)
(0.18602959 -0.00086000 0.00000000)
(0.18959843 -0.00091944 0.00000000)
(0.19277968 -0.00082684 0.00000000)
(0.19574592 -0.00057776 0.00000000)
(0.19841412 -0.00058978 0.00000000)
(0.20080547 -0.00047986 0.00000000)
(0.20276914 -0.00045391 0.00000000)
(0.20457543 -0.00030800 0.00000000)
(0.20611259 -0.00019125 0.00000000)
(0.20725256 -0.00013402 0.00000000)
(0.20814423 0.00006115 0.00000000)
(0.20841437 0.00020480 0.00000000)
(0.20808748 0.00038312 0.00000000)
(0.20709031 0.00060937 0.00000000)
(0.20536401 0.00087049 0.00000000)
(0.20299057 0.00102754 0.00000000)
(0.20009787 0.00120450 0.00000000)
(0.19643455 0.00151229 0.00000000)
(0.19167370 0.00187025 0.00000000)
(0.18564496 0.00226771 0.00000000)
(0.17813510 0.00269918 0.00000000)
(0.16909676 0.00310646 0.00000000)
(0.15853132 0.00360666 0.00000000)
(0.14598140 0.00426389 0.00000000)
(0.13150588 0.00488881 0.00000000)
(0.11392481 0.00565696 0.00000000)
(0.09365762 0.00708292 0.00000000)
(0.08082344 0.00824204 0.00000000)
(0.08268859 0.01270815 0.00000000)
(0.09434000 0.02393530 0.00000000)
(0.10985034 0.04142895 0.00000000)
(0.12663596 0.06174513 0.00000000)
(0.14583733 0.08643712 0.00000000)
(0.16531644 0.10899940 0.00000000)
(0.18613881 0.13089713 0.00000000)
(0.20883353 0.15308462 0.00000000)
(0.22449588 0.17052118 0.00000000)
(0.24377648 0.18423433 0.00000000)
(0.26195028 0.20454802 0.00000000)
(0.29013963 0.22604234 0.00000000)
(0.31117254 0.26921044 0.00000000)
(0.35875634 0.28326260 0.00000000)
(0.44491581 0.31038911 0.00000000)
(0.56795677 0.37513172 0.00000000)
(0.66359755 0.30186950 0.00000000)
(0.67446980 0.18001570 0.00000000)
(0.41505815 0.05933411 0.00000000)
(0.19098207 0.01446868 0.00000000)
(0.15681870 0.00653046 0.00000000)
(0.10164474 -0.00151904 0.00000000)
(0.01780237 0.00614033 0.00000000)
(-0.05511753 0.02747492 0.00000000)
(-0.06246542 0.03919067 0.00000000)
(-0.05721356 0.04118504 0.00000000)
(-0.04979281 0.03983657 0.00000000)
(-0.04687396 0.03846890 0.00000000)
(-0.04911647 0.04124462 0.00000000)
(-0.05465364 0.04595894 0.00000000)
(-0.06450996 0.05400761 0.00000000)
(-0.07718334 0.06421653 0.00000000)
(-0.09027241 0.07382619 0.00000000)
(-0.10219432 0.07954709 0.00000000)
(-0.11244345 0.08150535 0.00000000)
(-0.12047425 0.07855517 0.00000000)
(-0.12744735 0.06966144 0.00000000)
(-0.13316191 0.05847075 0.00000000)
(-0.13919247 0.04520251 0.00000000)
(-0.14678164 0.03177386 0.00000000)
(-0.15951825 0.01925942 0.00000000)
(-0.18080957 0.01244068 0.00000000)
(-0.20030864 0.00841668 0.00000000)
(-0.21203667 0.00531845 0.00000000)
(-0.21813214 0.00325040 0.00000000)
(-0.21925552 0.00094688 0.00000000)
(-0.21550395 -0.00091474 0.00000000)
(-0.20946519 -0.00174909 0.00000000)
(-0.20095841 -0.00343138 0.00000000)
(-0.19041865 -0.00388139 0.00000000)
(-0.17914645 -0.00415529 0.00000000)
(-0.16805328 -0.00367574 0.00000000)
(-0.15732135 -0.00355957 0.00000000)
(-0.14667690 -0.00345727 0.00000000)
(-0.13563533 -0.00407142 0.00000000)
(-0.12263371 -0.00537370 0.00000000)
(-0.10866033 -0.00549873 0.00000000)
(-0.09435095 -0.00543224 0.00000000)
(-0.08087464 -0.00524746 0.00000000)
(-0.06801132 -0.00453230 0.00000000)
(-0.05565176 -0.00432274 0.00000000)
(-0.04489035 -0.00396530 0.00000000)
(-0.03389937 -0.00416595 0.00000000)
(-0.02120897 -0.00457157 0.00000000)
(-0.00969180 -0.00393476 0.00000000)
(0.00164649 -0.00419390 0.00000000)
(0.01267141 -0.00414063 0.00000000)
(0.02370434 -0.00405518 0.00000000)
(0.03440658 -0.00339769 0.00000000)
(0.04514173 -0.00432572 0.00000000)
(0.05650471 -0.00424371 0.00000000)
(0.06698200 -0.00345267 0.00000000)
(0.07615849 -0.00334867 0.00000000)
(0.08478672 -0.00318837 0.00000000)
(0.09388146 -0.00330465 0.00000000)
(0.10225324 -0.00278984 0.00000000)
(0.10974615 -0.00258711 0.00000000)
(0.11755760 -0.00287371 0.00000000)
(0.12516211 -0.00257191 0.00000000)
(0.13200949 -0.00216968 0.00000000)
(0.13928343 -0.00284876 0.00000000)
(0.14664044 -0.00248827 0.00000000)
(0.15346962 -0.00224574 0.00000000)
(0.15990018 -0.00224979 0.00000000)
(0.16571832 -0.00186962 0.00000000)
(0.17106278 -0.00166662 0.00000000)
(0.17612043 -0.00156216 0.00000000)
(0.18123653 -0.00199398 0.00000000)
(0.18648479 -0.00158496 0.00000000)
(0.19099503 -0.00120825 0.00000000)
(0.19526744 -0.00107224 0.00000000)
(0.19886571 -0.00114217 0.00000000)
(0.20275936 -0.00122737 0.00000000)
(0.20659745 -0.00122605 0.00000000)
(0.21000889 -0.00112106 0.00000000)
(0.21339017 -0.00084786 0.00000000)
(0.21631954 -0.00083224 0.00000000)
(0.21905357 -0.00069414 0.00000000)
(0.22134444 -0.00063017 0.00000000)
(0.22334745 -0.00047845 0.00000000)
(0.22517838 -0.00032488 0.00000000)
(0.22670639 -0.00025298 0.00000000)
(0.22789153 -0.00000791 0.00000000)
(0.22847792 0.00019124 0.00000000)
(0.22833949 0.00043296 0.00000000)
(0.22763074 0.00071301 0.00000000)
(0.22619430 0.00104301 0.00000000)
(0.22410312 0.00125449 0.00000000)
(0.22147592 0.00148493 0.00000000)
(0.21802214 0.00187856 0.00000000)
(0.21348456 0.00234149 0.00000000)
(0.20774056 0.00286716 0.00000000)
(0.20047048 0.00344342 0.00000000)
(0.19163143 0.00397425 0.00000000)
(0.18117807 0.00465727 0.00000000)
(0.16878322 0.00546028 0.00000000)