# Probe 0 (0.0005 0.0001 0.0003)
# Probe 1 (0.0005 0.0001 0.0027)
# Probe 2 (0.0005 0.0009 0.0027)
# Probe 3 (0.0005 0.0009 0.0003)
# Probe 4 (0.0005 0.0005 0.0015)
#       Probe             0             1             2             3             4
#        Time
            1     0.0200004          0.02          0.02          0.02     0.0200001
            2     0.0200027          0.02     0.0200002     0.0200523     0.0200009
            3     0.0200059     0.0200003      0.020002     0.0199117     0.0200033
            4     0.0200091     0.0200009     0.0200013     0.0197774     0.0200058
            5      0.020015      0.020002     0.0200045     0.0195815     0.0200102
            6     0.0200211     0.0200034     0.0201115     0.0194008     0.0200148
            7     0.0200274     0.0200048     0.0203614     0.0193048     0.0200197
            8     0.0200365     0.0200064     0.0207862     0.0193495     0.0200266
            9     0.0200457     0.0200081     0.0213257      0.019571     0.0200344
           10     0.0200548       0.02001     0.0219496     0.0198975     0.0200441
           11     0.0200653     0.0200119     0.0226471      0.020315      0.020056
           12     0.0200773     0.0200139     0.0233954     0.0208249     0.0200722
           13     0.0200904     0.0200161     0.0241871     0.0214236     0.0200972
           14     0.0201042     0.0200183     0.0250116     0.0221084      0.020138
           15     0.0201186     0.0200207     0.0258626      0.022875     0.0202076
           16     0.0201332     0.0200233     0.0267514     0.0237349     0.0203353
           17      0.020148     0.0200261     0.0276589     0.0246787     0.0205531
           18     0.0201659     0.0200291     0.0285678     0.0257025     0.0209369
           19     0.0201879     0.0200324     0.0294807     0.0268071     0.0215829
           20     0.0202141     0.0200359     0.0304001     0.0279953      0.022588
           21     0.0202463     0.0200397     0.0313295     0.0292733     0.0240303
           22     0.0202895      0.020044     0.0322701     0.0306477     0.0259254
           23     0.0203624     0.0200487     0.0332273     0.0321301     0.0280404
           24     0.0205225      0.020054     0.0342045     0.0337278     0.0303509
           25     0.0206226       0.02006     0.0352041     0.0354461     0.0328526
           26     0.0207657     0.0200669     0.0362292     0.0372957     0.0355874
           27     0.0209372     0.0200748     0.0372824     0.0392909     0.0386748
           28     0.0211658     0.0200841     0.0383665     0.0414477     0.0422068
           29     0.0215059     0.0200951     0.0394835     0.0437861     0.0462299
           30      0.021878     0.0201082     0.0406355     0.0463309     0.0507694
           31     0.0223164     0.0201242     0.0418248     0.0491154     0.0558501
           32     0.0228392     0.0201437     0.0430536     0.0521825     0.0615217
           33     0.0233911     0.0201678     0.0443242     0.0555872     0.0678853
           34     0.0239924      0.020198     0.0456391     0.0594001     0.0751228
           35      0.024659     0.0202359     0.0470009     0.0637104     0.0835305
           36     0.0254053      0.020284     0.0484126     0.0686292     0.0935742
           37     0.0262432     0.0203455     0.0498775     0.0742941      0.105958
           38     0.0271179     0.0204243     0.0513995     0.0807006      0.121415
           39     0.0280862     0.0205259     0.0529818     0.0881745      0.141624
           40     0.0291617     0.0206575     0.0546289     0.0969565      0.168416
           41     0.0303593     0.0208286     0.0563455      0.107345      0.203865
           42     0.0317023     0.0210518     0.0581371       0.11971       0.24945
           43     0.0332216     0.0213441     0.0600097      0.134514      0.306338
           44     0.0349787     0.0217284     0.0619702      0.152333      0.371776
           45     0.0370781     0.0222351      0.064026      0.173885      0.447978
           46     0.0396899     0.0229041     0.0661857      0.200055      0.536746
           47     0.0429455      0.023787     0.0684587      0.231908      0.639548
           48     0.0472555     0.0249402     0.0708553      0.270723      0.757321
           49     0.0531831     0.0262452     0.0733871         0.318        0.8911
           50     0.0615625     0.0275972      0.076058      0.375467        1.0417
           51     0.0735611     0.0289988     0.0788894      0.445034       1.20933
           52     0.0908597     0.0304537     0.0818984      0.528773       1.39407
           53      0.114078     0.0319646     0.0851033      0.628789       1.59548
           54      0.144495     0.0335334     0.0885246      0.746937       1.81226
           55        0.1835     0.0351616     0.0921846      0.884599       2.03817
           56      0.232377     0.0368504     0.0961083        1.0424        2.2656
           57       0.29209     0.0386006      0.100323       1.22018       2.48779
           58      0.362432      0.040413      0.104859       1.41681       2.70708
           59      0.443327      0.042288       0.10975       1.63054       2.92572
           60      0.534226     0.0442262      0.115032       1.85895       3.14453
           61      0.633987     0.0462278      0.120746       2.09949       3.36351
           62      0.741187     0.0482936      0.126935       2.34967       3.58295
           63      0.854418     0.0504241      0.133649       2.60683       3.80299
           64      0.972751     0.0526201      0.140939       2.86887        4.0236
           65       1.09464     0.0548832      0.148864       3.13415       4.24438
           66       1.21862     0.0572158      0.157488       3.40071       4.46502
           67       1.34379     0.0596213      0.166882       3.66745       4.68538
           68       1.46965     0.0621043      0.177123       3.93376       4.90524
           69        1.5959     0.0646718      0.188296       4.19924       5.12422
           70       1.72233     0.0673329      0.200493       4.46369       5.34198
           71        1.8488     0.0701003      0.213816       4.72694       5.55819
           72       1.97516      0.072991      0.228374       4.98849       5.77253
           73        2.1013     0.0760268      0.244284       5.24776       5.98473
           74       2.22709     0.0792352      0.261673       5.50467       6.19455
           75        2.3524     0.0826502      0.280675       5.75919       6.40173
           76       2.47685      0.086302      0.301438       6.01119       6.60618
           77       2.60047     0.0902431      0.324103       6.26073       6.80764
           78       2.72324     0.0945274      0.348824       6.50774       7.00593
           79       2.84506     0.0992156      0.375758       6.75211       7.20087
           80       2.96585      0.104375      0.405063        6.9937       7.39235
           81       3.08583      0.110089      0.436894       7.23209          7.58
           82       3.20469      0.116431      0.471413       7.46704       7.76385
           83       3.32225      0.123483      0.508772       7.69851       7.94386
           84        3.4384       0.13133      0.549115       7.92645          8.12
           85       3.55305      0.140057      0.592574       8.15082       8.29225
           86       3.66616      0.149745      0.639268       8.37153       8.46063
           87       3.77766      0.160468      0.689297       8.58849       8.62514
           88       3.88755      0.172277      0.742743       8.80161       8.78581
           89       3.99579      0.185196      0.799662       9.01078       8.94269
           90       4.10238      0.199202       0.86009        9.2159       9.09583
           91       4.20733      0.214199      0.924032        9.4169       9.24526
           92       4.31063      0.230146      0.991468       9.61364       9.39107
           93       4.40745      0.247214       1.06267       9.80709       9.53321
           94       4.50306      0.265348       1.13727       9.99633       9.67187
           95       4.59722      0.284574       1.21516        10.181       9.80741
           96       4.68975      0.304933       1.29621       10.3614        9.9397
           97       4.78072      0.326463       1.38026       10.5374       10.0688
           98       4.87024      0.349197       1.46712       10.7092       10.1946
           99       4.95839      0.373165       1.55659       10.8768       10.3173
          100       5.04525      0.398395       1.64846         11.04       10.4369
          101       5.13084      0.424908       1.74249       11.1991       10.5533
          102       5.21522      0.452722       1.83845       11.3539       10.6668
          103       5.29841      0.481848       1.93608       11.5045       10.7772
          104       5.38044      0.512294       2.03513        11.651       10.8847
          105       5.46131      0.544063       2.13537       11.7935       10.9893
          106       5.54104      0.577151       2.23655       11.9318       11.0911
          107       5.61964      0.611552       2.33843       12.0662       11.1901
          108       5.69713      0.647253       2.44078       12.1967       11.2864
          109       5.77346       0.68424        2.5434       12.3233       11.3799
          110        5.8486      0.722491       2.64607       12.4461       11.4708
          111       5.92253      0.761984        2.7486       12.5653        11.559
          112       5.99522      0.802693       2.85083       12.6808       11.6446
          113       6.06649      0.844588        2.9526       12.7927       11.7277
          114       6.13627      0.887638       3.05375       12.9011       11.8082
          115       6.20455      0.931809       3.15417       13.0061       11.8861
          116       6.27134      0.977068       3.25374       13.1078       11.9617
          117       6.33665       1.02338       3.35237       13.2063       12.0347
          118       6.40049        1.0707       3.44996       13.3015       12.1054
          119       6.46285         1.119       3.54646       13.3937       12.1737
          120       6.52374       1.16824       3.64179       13.4828       12.2396
          121       6.58315       1.21839       3.73592        13.569       12.3033
          122        6.6411       1.26939       3.82881       13.6522       12.3648
          123       6.69759       1.32123       3.92043       13.7326        12.424
          124       6.75261       1.37385       4.01076       13.8103        12.481
          125       6.80617       1.42723       4.09978       13.8852       12.5359
          126       6.85825       1.48133       4.18749       13.9576       12.5886
          127        6.9088       1.53611       4.27389       14.0273       12.6393
          128       6.95777       1.59153       4.35899       14.0946       12.6878
          129       7.00516       1.64757       4.44278       14.1594       12.7344
          130       7.05095        1.7042       4.52528       14.2218       12.7789
          131       7.09518       1.76137       4.60649       14.2819       12.8214
          132       7.13785       1.81905       4.68644       14.3397        12.862
          133       7.17898       1.87723       4.76514       14.3953       12.9006
          134       7.21857       1.93585       4.84261       14.4488       12.9373
          135       7.25665       1.99491       4.91886       14.5001       12.9721
          136       7.29322       2.05435       4.99392       14.5494        13.005
          137       7.32831       2.11417        5.0678       14.5967       13.0361
          138       7.36192       2.17431       5.14053        14.642       13.0655
          139       7.39407       2.23471       5.21213       14.6854       13.0931
          140       7.42474       2.29529       5.28261        14.727        13.119
          141       7.45392       2.35598       5.35201       14.7668       13.1432
          142       7.48164       2.41672       5.42034       14.8048       13.1659
          143        7.5079       2.47746       5.48763       14.8411       13.1869
          144       7.53272        2.5382       5.55389       14.8757       13.2064
          145       7.55614       2.59893       5.61915       14.9086       13.2244
          146       7.57819       2.65951       5.68343         14.94       13.2409
          147       7.59889       2.71995       5.74676       14.9699        13.256
          148       7.61827       2.78021       5.80915       14.9982       13.2697
          149       7.63636       2.84031       5.87062       15.0251        13.282
          150        7.6532        2.9002       5.93119       15.0505        13.293
          151       7.66881       2.95988       5.99088       15.0746       13.3028
          152        7.6832       3.01932       6.04972       15.0973       13.3113
          153       7.69639       3.07852       6.10771       15.1187       13.3185
          154       7.70843       3.13745       6.16488       15.1388       13.3246
          155       7.71932        3.1961       6.22124       15.1577       13.3296
          156       7.72911       3.25447        6.2768       15.1754       13.3335
          157       7.73782       3.31253       6.33159        15.192       13.3363
          158       7.74549       3.37029       6.38562       15.2074        13.338
          159       7.75216       3.42772       6.43889       15.2217       13.3388
          160       7.75786       3.48482       6.49144       15.2349       13.3386
          161       7.76261       3.54158       6.54326       15.2471       13.3375
          162       7.76645       3.59799       6.59438       15.2583       13.3355
          163        7.7694       3.65403       6.64481       15.2686       13.3328
          164        7.7715       3.70972       6.69455       15.2779       13.3292
          165       7.77275       3.76503       6.74363       15.2863       13.3249
          166        7.7732       3.81997       6.79204       15.2938       13.3198
          167       7.77286       3.87454       6.83982       15.3005       13.3139
          168       7.77176       3.92872       6.88696       15.3064       13.3073
          169       7.76994       3.98252       6.93347       15.3115       13.2999
          170       7.76741       4.03595       6.97937       15.3158       13.2919
          171       7.76421       4.08898       7.02467       15.3194       13.2832
          172       7.76036       4.14163       7.06937       15.3224       13.2739
          173       7.75588        4.1939       7.11349       15.3246       13.2639
          174       7.75081       4.24578       7.15704       15.3262       13.2534
          175       7.74515       4.29726       7.20002       15.3271       13.2421
          176       7.73895       4.34835       7.24245       15.3275       13.2302
          177       7.73221       4.39904       7.28432       15.3273       13.2177
          178       7.72496       4.44935       7.32566       15.3265       13.2048
          179       7.71722       4.49927       7.36646       15.3252       13.1913
          180       7.70901        4.5488       7.40674       15.3235       13.1774
          181       7.70036       4.59796       7.44651       15.3212        13.163
          182       7.69128       4.64674       7.48576       15.3185       13.1483
          183        7.6818       4.69514       7.52451       15.3154       13.1331
          184       7.67195       4.74318       7.56277       15.3119       13.1175
          185       7.66173       4.79085       7.60054        15.308       13.1015
          186       7.65118       4.83816       7.63782       15.3037       13.0852
          187        7.6403       4.88512       7.67463       15.2991       13.0685
          188       7.62913       4.93174       7.71097       15.2942       13.0513
          189       7.61768       4.97799       7.74685       15.2889       13.0339
          190       7.60597       5.02389       7.78226       15.2834       13.0162
          191       7.59402       5.06946       7.81723       15.2777       12.9983
          192       7.58185       5.11468       7.85175       15.2717       12.9801
          193       7.56947       5.15957       7.88582       15.2655       12.9616
          194        7.5569       5.20411       7.91946       15.2591        12.943
          195       7.54416       5.24833       7.95267       15.2525       12.9242
          196       7.53126       5.29221       7.98546       15.2457       12.9052
          197       7.51823       5.33578       8.01782       15.2388       12.8861
          198       7.50506       5.37902       8.04977       15.2318       12.8668
          199       7.49179       5.42193       8.08131       15.2246       12.8473
          200       7.47842       5.46452       8.11244       15.2173       12.8277
          201       7.46496       5.50679       8.14316         15.21        12.808
          202       7.45144       5.54876        8.1735       15.2026       12.7882
          203       7.43786       5.59042       8.20343       15.1951       12.7684
          204       7.42424       5.63179       8.23298       15.1876       12.7484
          205       7.41059       5.67285       8.26215         15.18       12.7284
          206       7.39692       5.71362       8.29093       15.1724       12.7084
          207       7.38324       5.75409       8.31934       15.1649       12.6884
          208       7.36957       5.79427       8.34738       15.1573       12.6684
          209       7.35592       5.83417       8.37505       15.1497       12.6483
          210       7.34229       5.87379       8.40235       15.1422       12.6283
          211       7.32869       5.91313       8.42929       15.1347       12.6083
          212       7.31515       5.95219       8.45588       15.1273       12.5884
          213       7.30165         5.991       8.48211       15.1199       12.5685
          214       7.28822       6.02954         8.508       15.1125       12.5486
          215       7.27487       6.06783       8.53354       15.1053       12.5288
          216       7.26159       6.10587       8.55873       15.0981       12.5091
          217        7.2484       6.14365       8.58359        15.091       12.4894
          218       7.23531        6.1812       8.60811        15.084       12.4698
          219       7.22231        6.2185        8.6323       15.0772       12.4503
          220       7.20943       6.25556       8.65616       15.0704       12.4309
          221       7.19666       6.29238       8.67969       15.0637       12.4116
          222       7.18402       6.32898        8.7029       15.0572       12.3925
          223       7.17149       6.36534       8.72579       15.0508       12.3734
          224        7.1591       6.40149       8.74837       15.0445       12.3545
          225       7.14685       6.43741       8.77063       15.0384       12.3357
          226       7.13473       6.47312       8.79258       15.0324       12.3171
          227       7.12276       6.50861       8.81422       15.0266       12.2986
          228       7.11094       6.54388       8.83556       15.0209       12.2802
          229       7.09928       6.57895        8.8566       15.0153        12.262
          230       7.08777       6.61382       8.87734       15.0099        12.244
          231       7.07642       6.64848       8.89779       15.0047       12.2262
          232       7.06523       6.68294       8.91794       14.9996       12.2085
          233       7.05422        6.7172        8.9378       14.9947       12.1909
          234       7.04337       6.75127       8.95737         14.99       12.1736
          235        7.0327       6.78516       8.97666       14.9854       12.1564
          236        7.0222       6.81886       8.99567        14.981       12.1395
          237       7.01188       6.85237        9.0144       14.9768       12.1227
          238       7.00174       6.88571       9.03285       14.9727       12.1061
          239       6.99178       6.91887       9.05102       14.9688       12.0897
          240       6.98201       6.95186       9.06893       14.9651       12.0735
          241       6.97243       6.98468       9.08657       14.9616       12.0574
          242       6.96303       7.01734       9.10394       14.9583       12.0416
          243       6.95382       7.04982       9.12104       14.9551        12.026
          244       6.94479       7.08215       9.13789       14.9521       12.0106
          245       6.93596       7.11431       9.15447       14.9493       11.9954
          246       6.92733       7.14632        9.1708       14.9467       11.9804
          247       6.91888       7.17818       9.18688       14.9442       11.9656
          248       6.91062       7.20988        9.2027       14.9419        11.951
          249       6.90256       7.24143       9.21827       14.9398       11.9366
          250       6.89469       7.27283        9.2336       14.9379       11.9224
          251       6.88702       7.30408       9.24868       14.9362       11.9085
          252       6.87954        7.3352       9.26352       14.9346       11.8947
          253       6.87225       7.36617       9.27812       14.9333       11.8812
          254       6.86515         7.397       9.29249       14.9321       11.8678
          255       6.85824       7.42769       9.30661        14.931       11.8547
          256       6.85153       7.45825       9.32051       14.9302       11.8418
          257         6.845       7.48867       9.33417       14.9295       11.8291
          258       6.83867       7.51897       9.34761        14.929       11.8166
          259       6.83252       7.54913       9.36081       14.9287       11.8043
          260       6.82656       7.57916        9.3738       14.9285       11.7922
          261       6.82079       7.60907       9.38656       14.9285       11.7804
          262        6.8152       7.63884        9.3991       14.9287       11.7687
          263       6.80979        7.6685       9.41143        14.929       11.7573
          264       6.80457       7.69803       9.42354       14.9295        11.746
          265       6.79952       7.72744       9.43544       14.9302        11.735
          266       6.79464       7.75672       9.44712        14.931       11.7241
          267       6.78995       7.78589        9.4586        14.932       11.7135
          268       6.78542       7.81494       9.46987       14.9331       11.7031
          269       6.78106       7.84387       9.48094       14.9344       11.6928
          270       6.77687       7.87268        9.4918       14.9358       11.6828
          271       6.77285       7.90138       9.50247       14.9373       11.6729
          272       6.76898       7.92996       9.51294       14.9391       11.6633
          273       6.76528       7.95843       9.52321       14.9409       11.6538
          274       6.76174       7.98679       9.53328       14.9429       11.6446
          275       6.75836       8.01503       9.54317       14.9451       11.6355
          276       6.75514       8.04316       9.55287       14.9473       11.6267
          277       6.75206       8.07118       9.56237       14.9497        11.618
          278       6.74914        8.0991        9.5717       14.9523       11.6095
          279       6.74637        8.1269       9.58084       14.9549       11.6012
          280       6.74375       8.15459        9.5898       14.9577       11.5931
          281       6.74127       8.18218       9.59856       14.9606       11.5851
          282       6.73895       8.20966       9.60714       14.9637       11.5773
          283       6.73679       8.23703       9.61553       14.9668       11.5697
          284       6.73477        8.2643       9.62374       14.9701       11.5623
          285       6.73291       8.29146       9.63178       14.9735        11.555
          286        6.7312       8.31852       9.63964        14.977        11.548
          287       6.72963       8.34547       9.64734       14.9806       11.5411
          288        6.7282       8.37231       9.65486       14.9843       11.5343
          289        6.7269       8.39905       9.66223       14.9881       11.5277
          290       6.72575       8.42569       9.66943       14.9921       11.5213
          291       6.72472       8.45222       9.67647       14.9961       11.5151
          292       6.72382       8.47864       9.68335       15.0003        11.509
          293       6.72304       8.50497       9.69008       15.0045       11.5031
          294       6.72239       8.53118       9.69666       15.0089       11.4973
          295       6.72185        8.5573       9.70309       15.0133       11.4917
          296       6.72143        8.5833       9.70936       15.0178       11.4863
          297       6.72112       8.60921       9.71549       15.0225        11.481
          298       6.72092       8.63501       9.72148       15.0272       11.4758
          299       6.72082        8.6607       9.72732        15.032       11.4708
          300       6.72082        8.6863       9.73303       15.0369        11.466
          301       6.72093       8.71178       9.73859       15.0418       11.4613
          302       6.72113       8.73717       9.74402       15.0469       11.4567
          303       6.72143       8.76245       9.74931        15.052       11.4523
          304       6.72182       8.78762       9.75447       15.0572        11.448
          305        6.7223       8.81269        9.7595       15.0624       11.4438
          306       6.72286       8.83766        9.7644       15.0677       11.4398
          307       6.72352       8.86252       9.76918       15.0731       11.4359
          308       6.72425       8.88728       9.77382       15.0786       11.4321
          309       6.72507       8.91193       9.77835       15.0841       11.4285
          310       6.72596       8.93648       9.78275       15.0897        11.425
          311       6.72693       8.96093       9.78703       15.0953       11.4215
          312       6.72797       8.98527        9.7912        15.101       11.4183
          313       6.72908        9.0095       9.79525       15.1067       11.4151
          314       6.73027       9.03363       9.79918       15.1125        11.412
          315       6.73152       9.05766         9.803       15.1184       11.4091
          316       6.73284       9.08158        9.8067       15.1242       11.4063
          317       6.73422        9.1054        9.8103       15.1302       11.4036
          318       6.73566       9.12911       9.81379       15.1361       11.4009
          319       6.73716       9.15271       9.81718       15.1422       11.3984
          320       6.73872       9.17621       9.82046       15.1482        11.396
          321       6.74033       9.19961       9.82363       15.1543       11.3937
          322         6.742        9.2229       9.82671       15.1604       11.3915
          323       6.74372       9.24608       9.82968       15.1666       11.3894
          324       6.74549       9.26916       9.83256       15.1728       11.3873
          325       6.74731       9.29213       9.83534        15.179       11.3854
          326       6.74918         9.315       9.83803       15.1852       11.3836
          327       6.75109       9.33776       9.84062       15.1915       11.3818
          328       6.75305       9.36041       9.84312       15.1978       11.3801
          329       6.75504       9.38296       9.84553       15.2041       11.3786
          330       6.75708        9.4054       9.84785       15.2105       11.3771
          331       6.75916       9.42774       9.85008       15.2168       11.3756
          332       6.76127       9.44996       9.85222       15.2232       11.3743
          333       6.76342       9.47209       9.85428       15.2296        11.373
          334        6.7656        9.4941       9.85626       15.2361       11.3718
          335       6.76782       9.51601       9.85816       15.2425       11.3707
          336       6.77006       9.53781       9.85997        15.249       11.3697
          337       6.77234       9.55951        9.8617       15.2554       11.3687
          338       6.77465        9.5811       9.86336       15.2619       11.3678
          339       6.77698       9.60258       9.86494       15.2684       11.3669
          340       6.77933       9.62396       9.86645       15.2749       11.3662
          341       6.78172       9.64522       9.86788       15.2814       11.3654
          342       6.78412       9.66639       9.86924        15.288       11.3648
          343       6.78655       9.68744       9.87052       15.2945       11.3642
          344       6.78899       9.70839       9.87174        15.301       11.3637
          345       6.79146       9.72923       9.87289       15.3076       11.3632
          346       6.79394       9.74996       9.87397       15.3141       11.3628
          347       6.79644       9.77059       9.87498       15.3206       11.3624
          348       6.79896       9.79111       9.87593       15.3272       11.3621
          349       6.80149       9.81152       9.87682       15.3337       11.3618
          350       6.80403       9.83183       9.87764       15.3403       11.3616
          351       6.80659       9.85203        9.8784       15.3468       11.3615
          352       6.80916       9.87212       9.87911       15.3534       11.3614
          353       6.81174       9.89211       9.87975       15.3599       11.3613
          354       6.81432       9.91199       9.88033       15.3664       11.3613