# Probe 0 (0.0005 0.0001 0.0003)
# Probe 1 (0.0005 0.0001 0.0027)
# Probe 2 (0.0005 0.0009 0.0027)
# Probe 3 (0.0005 0.0009 0.0003)
# Probe 4 (0.0005 0.0005 0.0015)
#       Probe             0             1             2             3             4
#        Time
            1       10.0038            10       20.3752       814.006       10.0006
            2       10.1547       10.0003       33.9432       1980.65       10.0297
            3       10.4123       10.0078       104.518       5417.14        10.103
            4       10.6353       10.0396       413.536         10967       10.1942
            5       10.7932       10.0995       1155.66       19301.4        10.305
            6       10.9664       10.1877       2368.86       30106.1       10.4362
            7       11.1501       10.3037       4686.69       42925.9       10.5908
            8       11.3437        10.448       8394.36         57362       10.7752
            9        11.517       10.6222       13641.8       73202.8       10.9939
           10       11.7072       10.9087       24660.3       96746.7       11.4854
           11       11.9031       11.2464         38716        120465       12.1242
           12       12.2118       11.6379         55414        144027       13.0387
           13       12.6138        12.091       74356.5        167172       14.5071
           14       13.0881       12.6126       94957.3        189538       17.1301
           15       13.6055       13.2137        116746        210915       22.2778
           16       14.0789       13.9043        139153        231044       32.7101
           17       14.4795       14.6988        161739        249804       55.0589
           18       15.1455        15.646        185065        267143       123.932
           19       15.8711       16.7404        207441        282933       260.021
           20       16.9537       18.0082        228677        297217       489.721
           21        18.386       19.4826        248661        310078         852.1
           22       20.3583       21.2009        267325        321623       1375.25
           23       23.9397       23.2154        284667        331985       2067.21
           24       38.2013       25.5946        300712        341256       2884.92
           25       45.1152       28.4246        315502        349496       3834.96
           26       56.1941       31.8182        329092        356785       4922.09
           27       72.6036       35.9255        341553        363213       6159.78
           28       97.7118       40.9445        352955        368866       7558.06
           29       140.848        47.137        363372        373818       9114.99
           30       189.117       54.8494        372873        378135       10819.7
           31        247.03       64.5424        381526        381887       12654.9
           32       317.843       76.8293        389396        385140       14600.8
           33       394.048       92.5274        396544        387956       16640.4
           34       476.254       112.727        403025        390394         18763
           35       566.773       138.887        408892        392512       20965.9
           36       667.676        172.95        414193        394365         23248
           37       781.094       217.512        418975        396005       25609.4
           38        909.23       276.031        423279        397488       28051.5
           39          1054       353.118        427145        398866         30566
           40       1217.73       454.909        430608        400194         33125
           41       1433.08       589.199        433707        401545       35870.7
           42       1679.29       767.092        436465        402954       38468.7
           43       1959.42          1003        438912        404488       40891.6
           44       2280.41       1315.86        441074        406213       43176.5
           45       2652.85       1730.25        442977        408192       45343.4
           46       3091.84       2277.81        444642        410484       47436.2
           47       3604.52       2998.99        446092        413139       49453.8
           48       4216.57       3944.19        447345        416196       51379.7
           49       4956.18       5167.27        448420        419682       53207.2
           50       5856.09       6554.64        449281        423607       54927.1
           51        6952.6        7997.3        449964        427944       56528.9
           52       8264.27       9501.79        450501        432646       58008.7
           53       9754.43       11071.7        450913        437616       59357.5
           54       11406.7       12708.7        451220        442698       60564.4
           55       13194.3       14413.2        451434        447688       61544.9
           56       15079.8       16184.7        451570        452358       62315.5
           57         17016       18022.1        451636        456507       62989.4
           58       18859.1       19923.4        451643        459968       63626.9
           59       20562.1       21886.2        451599        462660       64272.5
           60       22095.7       23907.8        451511        464546         64928
           61       23442.3       25984.8        451386        465658       65581.1
           62       24598.3       28113.6        451231        466079       66220.9
           63         25575       30290.2        451051        465872       66839.6
           64       26291.7       32517.7        450851        465150       67407.5
           65       26906.8         34783        450639        464026       67948.8
           66       27429.9       37081.5        450420        462554       68459.4
           67       27876.8       39408.9        450198        460825       68937.7
           68         28264       41760.4        449979        458932       69383.3
           69       28605.3       44131.9        449767        456945       69795.6
           70       28910.9       46518.7        449567        454912       70174.2
           71       29187.7       48916.8        449383        452864       70519.6
           72       29440.4       51321.6        449219        450807       70832.7
           73         29672       53728.9        449079        448744       71114.8
           74       29884.4       56134.1        448965        446695       71367.3
           75         30079       58532.1        448880        444675       71591.5
           76       30254.8       60911.2        448836        442683         71790
           77         30414       63265.5        448826        440730       71963.7
           78       30557.5       65588.5        448848        438816         72114
           79       30685.8       67872.2        448899        436940       72241.8
           80       30799.2       70108.1        448979        435101       72348.1
           81       30899.3       72292.7        449079        433305       72432.1
           82       30984.8       74415.7        449200        431549       72495.2
           83       31055.1       76467.3        449342        429829       72538.9
           84       31110.3       78439.1        449500        428142       72564.3
           85       31150.6       80324.2        449670        426486       72572.7
           86       31176.3       82118.1        449845        424859         72565
           87       31187.9       83817.7        450019        423260       72542.3
           88       31185.7       85422.6        450185        421686       72505.5
           89       31170.1       86935.6        450335        420138       72455.5
           90       31141.7       88364.5        450463        418614       72393.1
           91       31100.7       89718.4        450559        417115         72319
           92       31047.7       91003.3        450618        415642       72233.9
           93       30983.1         92222        450633        414198       72138.5
           94       30909.1       93376.4        450596        412785       72033.6
           95       30824.7       94465.7        450502        411390       71921.4
           96       30730.3         95493        450346        410019       71801.9
           97       30626.7       96461.2        450123        408676         71675
           98       30515.4       97372.8        449829        407360       71540.6
           99       30397.9       98230.1        449463        406073         71399
          100         30275       99035.3        449021        404814       71250.3
          101       30147.4       99790.5        448504        403584       71094.7
          102       30015.9        100498        447911        402381       70932.6
          103       29880.8        101159        447244        401207       70764.3
          104       29742.8        101775        446505        400061       70590.1
          105       29602.5        102349        445695        398943       70410.3
          106       29460.3        102882        444818        397854       70225.3
          107       29316.9        103377        443877        396793       70035.3
          108       29176.5        103834        442877        395760       69840.6
          109       29037.7        104256        441821        394754       69641.4
          110       28899.9        104644        440713        393777         69438
          111       28762.8        105000        439559        392827       69230.5
          112       28626.5        105327        438362        391905       69019.2
          113       28490.7        105626        437127        391010       68804.1
          114         28355        105898        435859        390142       68585.5
          115       28220.3        106146        434563        389300       68363.6
          116       28086.9        106372        433242        388485       68138.6
          117       27955.4        106576        431900        387695       67910.8
          118         27826        106761        430543        386931       67680.5
          119       27698.9        106927        429173        386192       67447.8
          120       27574.3        107078        427794        385477         67213
          121       27452.2        107213        426410        384786       66976.3
          122       27332.7        107335        425024        384118         66738
          123         27216        107444        423637        383474       66498.3
          124         27102        107541        422255        382852       66257.3
          125       26990.8        107629        420877        382252       66015.3
          126       26882.4        107707        419508        381673       65772.4
          127       26776.6        107776        418148        381116       65528.8
          128       26673.2        107838        416799        380579       65284.7
          129       26572.2        107894        415464        380062       65040.1
          130       26473.7        107943        414143        379565       64795.1
          131       26377.8        107987        412837        379087         64550
          132       26284.6        108026        411548        378627       64304.7
          133         26194        108060        410277        378185       64059.4
          134       26106.1        108091        409023        377761       63814.2
          135       26020.8        108119        407788        377354       63569.1
          136         25938        108143        406572        376963       63324.2
          137       25857.6        108165        405376        376589       63079.8
          138       25779.5        108184        404199        376230       62836.1
          139       25703.7        108201        403042        375886         62593
          140       25629.8        108215        401905        375558       62350.9
          141       25557.8        108228        400788        375243       62109.8
          142       25487.4        108240        399691        374943         61870
          143       25418.5        108254        398614        374656       61631.5
          144       25351.1        108276        397557        374382       61394.5
          145       25285.1        108308        396519        374121         61159
          146       25220.5        108351        395501        373873       60925.4
          147         25157        108403        394502        373636       60693.6
          148       25094.7        108460        393522        373411       60463.8
          149       25033.5        108522        392561        373197       60236.1
          150       24973.4        108586        391619        372994       60010.7
          151       24914.1        108651        390694        372802       59787.4
          152       24855.8        108716        389788        372620       59566.5
          153       24798.2        108782        388900        372447       59347.9
          154       24741.3        108846        388028        372285       59131.7
          155         24685        108908        387174        372131       58917.9
          156       24629.4        108968        386336        371987       58706.7
          157       24574.4        109026        385514        371851         58498
          158         24520        109081        384708        371724         58292
          159       24466.1        109133        383918        371605       58088.8
          160       24412.8        109182        383143        371494       57888.5
          161       24360.1        109227        382383        371390       57691.4
          162       24307.9        109268        381637        371294       57497.3
          163       24256.2        109306        380905        371205       57307.4
          164         24205        109340        380187        371123       57120.7
          165       24154.2        109369        379482        371048       56937.2
          166       24103.9        109395        378790        370979       56756.8
          167       24054.1        109417        378111        370916       56579.3
          168       24004.7        109435        377445        370860       56404.8
          169       23955.8        109448        376790        370809       56233.1
          170       23907.3        109459        376147        370764       56064.2
          171       23859.3        109465        375516        370724       55898.3
          172       23811.7        109468        374895        370690       55735.2
          173       23764.7        109467        374286        370660         55575
          174       23718.1        109463        373687        370636       55417.6
          175       23671.9        109455        373098        370617       55263.2
          176       23626.3        109444        372520        370602       55111.7
          177       23581.1        109430        371951        370592       54962.8
          178       23536.4        109413        371391        370586       54816.7
          179       23492.1        109393        370841        370584       54673.3
          180       23448.4        109370        370299        370586       54532.5
          181       23405.1        109345        369767        370592       54394.2
          182       23362.3        109318        369243        370602       54258.5
          183         23320        109288        368727        370616       54125.2
          184       23278.2        109257        368219        370633       53994.2
          185       23236.9        109224        367719        370653       53865.6
          186       23196.1        109190        367227        370677       53739.3
          187       23155.8        109154        366742        370705       53614.7
          188         23116        109118        366264        370735       53492.2
          189       23076.8        109081        365793        370768         53372
          190       23038.1        109042        365330        370804       53253.9
          191       22999.9        109005        364872        370843       53138.1
          192       22962.2        108967        364422        370885       53024.4
          193       22925.1        108927        363977        370929       52912.9
          194       22888.6        108887        363539        370976       52803.5
          195       22852.5        108845        363107        371026       52696.3
          196         22817        108803        362680        371077         52591
          197       22782.1        108759        362259        371131       52487.8
          198       22747.7        108714        361844        371188       52386.6
          199       22713.9        108666        361434        371246       52287.2
          200       22680.6        108615        361029        371306       52189.7
          201       22647.8        108563        360630        371369       52094.1
          202       22615.6        108509        360235        371433       52000.3
          203         22584        108455        359845        371499       51908.5
          204       22552.9        108398        359460        371566       51818.4
          205       22522.4        108340        359080        371635       51730.3
          206       22492.4        108279        358704        371706       51643.9
          207         22463        108218        358332        371779       51559.3
          208       22434.1        108155        357965        371852       51476.6
          209       22405.9        108091        357602        371927       51395.5
          210       22378.1        108026        357243        372004       51316.2
          211       22350.9        107959        356887        372081       51238.6
          212       22324.3        107891        356536        372160       51162.7
          213       22298.2        107822        356188        372240       51088.4
          214       22272.7        107752        355844        372321       51015.8
          215       22247.7        107681        355504        372403       50944.7
          216       22223.3        107610        355167        372486       50875.3
          217       22199.5        107537        354833        372569       50807.3
          218       22176.1        107464        354503        372654       50740.9
          219       22153.4        107390        354176        372739         50676
          220       22131.1        107315        353852        372825       50612.5
          221       22109.4        107239        353532        372911       50550.6
          222       22088.2        107163        353214        372998       50490.1
          223       22067.6        107086        352899        373085         50431
          224       22047.5        107009        352587        373173       50373.4
          225       22027.9        106931        352278        373261       50317.1
          226       22008.8        106852        351972        373350       50262.3
          227       21990.2        106773        351668        373439       50208.7
          228       21972.1        106694        351367        373528       50156.6
          229       21954.6        106614        351069        373617       50105.7
          230       21937.5        106533        350773        373707       50056.1
          231       21920.9        106452        350479        373796       50007.8
          232       21904.8        106371        350188        373886       49960.8
          233       21889.2        106290        349899        373975         49915
          234       21874.1        106209        349613        374065       49870.4
          235       21859.4        106127        349328        374155         49827
          236       21845.3        106046        349046        374244       49784.7
          237       21831.5        105964        348767        374333       49743.7
          238       21818.3        105882        348489        374423       49703.7
          239       21805.5        105800        348213        374512       49664.9
          240       21793.1        105718        347940        374601       49627.1
          241       21781.2        105636        347668        374689       49590.4
          242       21769.8        105554        347398        374778       49554.8
          243       21758.7        105472        347131        374866       49520.3
          244       21748.1        105390        346865        374953       49486.7
          245         21738        105308        346601        375041       49454.1
          246       21728.2        105226        346339        375128       49422.6
          247       21718.9        105145        346078        375215         49392
          248       21709.9        105063        345820        375301       49362.3
          249       21701.4        104981        345563        375387       49333.5
          250       21693.2        104900        345308        375473       49305.7
          251       21685.5        104818        345054        375558       49278.8
          252       21678.1        104737        344802        375643       49252.7
          253       21671.1        104656        344552        375727       49227.5
          254       21664.5        104575        344303        375810       49203.2
          255       21658.2        104494        344056        375894       49179.6
          256       21652.3        104413        343811        375976       49156.9
          257       21646.8        104332        343567        376059         49135
          258       21641.6        104252        343324        376140       49113.8
          259       21636.7        104171        343083        376221       49093.4
          260       21632.2        104091        342843        376302       49073.8
          261         21628        104011        342605        376382       49054.9
          262       21624.2        103932        342368        376461       49036.6
          263       21620.6        103852        342133        376540       49019.1
          264       21617.3        103773        341899        376619       49002.3
          265       21614.4        103694        341666        376696       48986.1
          266       21611.7        103615        341435        376773       48970.5
          267       21609.3        103536        341205        376850       48955.6
          268       21607.2        103458        340976        376926       48941.4
          269       21605.4        103379        340749        377001       48927.7
          270       21603.8        103301        340523        377076       48914.6
          271       21602.5        103223        340298        377149       48902.1
          272       21601.4        103145        340075        377223       48890.1
          273       21600.6        103067        339852        377295       48878.8
          274         21600        102990        339631        377367       48867.9
          275       21599.6        102913        339411        377439       48857.6
          276       21599.5        102836        339193        377509       48847.8
          277       21599.6        102759        338975        377580       48838.5
          278         21600        102682        338759        377649       48829.6
          279       21600.5        102606        338544        377718       48821.3
          280       21601.3        102530        338330        377786       48813.4
          281         21602        102454        338125        377854       48806.8
          282       21602.9        102378        337919        377921       48800.4
          283       21603.9        102302        337714        377987       48794.4
          284       21605.1        102226        337508        378053       48788.8
          285       21606.5        102151        337303        378118       48783.4
          286         21608        102075        337099        378183       48778.4
          287       21609.7        102000        336895        378247       48773.7
          288       21611.6        101925        336692        378310       48769.4
          289       21613.6        101851        336490        378373       48765.3
          290       21615.8        101776        336288        378435       48761.6
          291       21618.1        101702        336088        378497       48758.2
          292       21620.6        101628        335888        378558       48755.1
          293       21623.3        101554        335690        378619       48752.2
          294       21626.1        101480        335492        378679       48749.7
          295         21629        101406        335296        378739       48747.4
          296       21632.1        101333        335100        378798       48745.4
          297       21635.3        101260        334906        378857       48743.7
          298       21638.6        101187        334712        378915       48742.2
          299       21642.1        101114        334520        378973         48741
          300       21645.7        101041        334328        379030         48740
          301       21649.4        100969        334138        379086       48739.3
          302       21653.2        100896        333948        379143       48738.7
          303       21657.1        100824        333760        379198       48738.4
          304       21661.1        100752        333572        379254       48738.3
          305       21665.2        100680        333386        379308       48738.4
          306       21669.4        100608        333201        379363       48738.7
          307       21673.6        100536        333016        379416       48739.1
          308         21678        100465        332833        379470       48739.8
          309       21682.4        100394        332651        379522       48740.6
          310         21687        100322        332469        379575       48741.6
          311       21691.5        100251        332289        379627       48742.8
          312       21696.2        100180        332109        379678       48744.1
          313       21700.9        100109        331931        379729       48745.5
          314       21705.7        100038        331754        379780       48747.1
          315       21710.5       99967.9        331577        379830       48748.8
          316       21715.4       99897.4        331402        379879       48750.7
          317       21720.3       99827.1        331227        379929       48752.7
          318       21725.3       99756.9        331054        379978       48754.8
          319       21730.3       99686.8        330881        380026         48757
          320       21735.4       99616.8        330710        380074       48759.3
          321       21740.5         99547        330540        380122       48761.7
          322       21745.6       99477.4        330370        380170       48764.2
          323       21750.8       99407.8        330201        380217       48766.8
          324         21756       99338.4        330034        380263       48769.5
          325       21761.2       99269.1        329867        380310       48772.2
          326       21766.4         99200        329702        380356         48775
          327       21771.6       99130.9        329537        380402       48777.9
          328       21776.9       99062.1        329373        380447       48780.9
          329       21782.2       98993.3        329210        380492       48783.9
          330       21787.5       98924.7        329048        380537         48787
          331       21792.8       98856.1        328888        380582       48790.1
          332       21798.1       98787.8        328728        380626       48793.2
          333       21803.4       98719.5        328568        380670       48796.4
          334       21808.7       98651.4        328410        380714       48799.7
          335         21814       98583.3        328253        380757       48802.9
          336       21819.3       98515.4        328097        380800       48806.2
          337       21824.6       98447.6        327942        380843       48809.6
          338       21829.9       98379.9        327787        380886       48812.9
          339       21835.2       98312.4        327634        380928       48816.3
          340       21840.4       98244.9        327482        380970       48819.7
          341       21845.7       98177.6        327330        381012         48823
          342       21850.9       98110.3        327179        381054       48826.4
          343       21856.2       98043.2        327030        381096       48829.8
          344       21861.4       97976.2        326881        381137       48833.3
          345       21866.6       97909.3        326733        381178       48836.7
          346       21871.8       97842.5        326586        381219       48840.1
          347         21877       97775.9        326440        381260       48843.5
          348       21882.1       97709.3        326295        381300       48846.8
          349       21887.2       97642.9        326151        381340       48850.2
          350       21892.3       97576.6        326007        381380       48853.6
          351       21897.4       97510.4        325865        381420       48856.9
          352       21902.4       97444.4        325723        381460       48860.3
          353       21907.5       97378.5        325583        381499       48863.6
          354       21912.4       97312.6        325443        381539       48866.9