# Probe 0 (0.0005 0.0001 0.0003)
# Probe 1 (0.0005 0.0001 0.0027)
# Probe 2 (0.0005 0.0009 0.0027)
# Probe 3 (0.0005 0.0009 0.0003)
# Probe 4 (0.0005 0.0005 0.0015)
#       Probe             0             1             2             3             4
#        Time
            1   5.16971e-14  -9.18933e-14   -1.9562e-13    8.2491e-14  -2.63129e-14
            2   1.33552e-15   4.84117e-14  -5.28248e-14  -8.13794e-14  -1.77004e-14
            3   4.67711e-15   6.34076e-15  -8.94514e-15   1.42893e-13   5.93411e-14
            4   1.14482e-14   5.39549e-14   1.12842e-13  -8.60141e-14    3.8715e-15
            5   3.05782e-15  -1.02841e-14   9.21038e-15   1.21776e-14  -1.50666e-14
            6  -4.84052e-15  -1.67794e-14  -7.10977e-14   4.34914e-14   1.62131e-15
            7  -4.04061e-15  -3.27011e-14  -4.42266e-16  -5.33118e-14  -1.98793e-14
            8  -1.11046e-14   8.07514e-16  -1.87414e-14    5.1513e-15   -6.5139e-15
            9  -9.49459e-15   1.11356e-14   2.52964e-14  -2.80469e-15   3.42988e-15
           10   1.12148e-14   2.25486e-14   2.88148e-14   4.72792e-16    1.9782e-14
           11  -9.11957e-15  -3.55355e-14   -5.2379e-14   -2.3489e-15  -2.90756e-14
           12  -3.31993e-15  -1.15363e-14  -1.34092e-15  -2.35899e-15   -3.0087e-15
           13   5.18239e-15   3.65672e-14   2.55092e-14   -1.8138e-15   1.95287e-14
           14   6.89155e-15   4.80529e-15   1.83768e-14   1.31169e-14   1.00853e-14
           15   1.22072e-14   5.99271e-17   -3.6422e-15   1.28265e-14   2.78676e-15
           16  -2.08508e-15   -9.6957e-15  -2.24307e-14  -9.22971e-15  -1.24147e-14
           17  -7.50416e-15  -1.09608e-14   3.04684e-15  -6.77799e-15  -4.89108e-15
           18   6.42776e-15   3.72861e-14   3.42648e-14    1.1394e-14   2.55613e-14
           19  -2.97775e-15  -3.16147e-14  -3.75712e-14   -7.1319e-15  -2.26565e-14
           20  -7.36815e-17  -6.54571e-16   6.65343e-15   2.02381e-15   1.92226e-15
           21    1.6831e-14   5.52449e-14   4.62007e-14   1.88052e-14   4.06323e-14
           22   4.83042e-15  -1.87538e-14  -1.04029e-14    1.9069e-15  -1.25709e-14
           23   3.84774e-16  -9.77485e-15  -1.35051e-14   8.06435e-16  -9.09657e-15
           24  -7.36694e-15  -8.87069e-15  -1.10403e-14  -1.22927e-14  -4.39492e-15
           25   9.05075e-16   1.36812e-14   1.63038e-14   6.26204e-15   8.09801e-15
           26   7.26185e-15   8.70385e-15   9.33448e-15   8.58453e-15   6.72719e-15
           27  -1.84968e-16  -7.03854e-15  -7.75013e-15  -6.82142e-15  -4.02821e-16
           28   7.59185e-15   1.95352e-14   1.76676e-14   1.50614e-14   1.51369e-14
           29  -5.39764e-15   -2.8334e-14  -2.23188e-14  -1.08633e-14  -2.29005e-14
           30    3.6557e-15   2.14976e-14   1.32633e-14   4.89717e-15   1.34899e-14
           31  -1.19733e-15  -3.26964e-16    3.2694e-15  -1.77816e-15   2.23321e-15
           32   4.39456e-15   1.55342e-15   4.39753e-15    7.6165e-15   3.80349e-15
           33   3.88378e-16  -3.52116e-15  -9.38033e-15  -3.52655e-15  -7.31035e-15
           34   7.47745e-15   1.68287e-15    5.9352e-15   8.83062e-15   9.53241e-15
           35   3.38262e-15   1.13855e-14   5.70584e-15   2.65611e-15   2.09839e-15
           36  -1.26966e-15  -4.71677e-15   5.79269e-16  -1.99257e-15  -1.29398e-15
           37   4.92487e-15   6.36465e-15    7.6884e-15   8.02569e-15    9.8067e-15
           38   6.27818e-16   4.63148e-16  -6.46173e-15  -5.41611e-15  -7.89056e-15
           39   -1.2126e-14  -2.17571e-14  -1.68961e-14  -1.05028e-14  -1.35065e-14
           40  -2.03787e-14  -2.17129e-14  -2.46425e-14  -1.83259e-14  -2.25632e-14
           41   -1.3818e-14  -1.20607e-14  -1.13456e-14  -1.78994e-14  -1.22233e-14
           42  -1.10418e-14  -3.35808e-15  -3.82322e-15   -7.0951e-15  -5.22003e-15
           43  -1.33138e-14   -1.4231e-14   -1.5875e-14  -1.59492e-14  -1.83389e-14
           44  -1.76399e-14  -2.10233e-14  -1.87351e-14  -1.65107e-14  -1.56675e-14
           45   4.68106e-16   1.54103e-14   1.10715e-14   6.08688e-15   1.00724e-14
           46  -1.06617e-14  -2.61238e-14  -2.24805e-14  -1.90833e-14   -2.4289e-14
           47  -1.55723e-14  -1.79629e-14  -1.77666e-14  -1.36386e-14  -1.64628e-14
           48  -2.34277e-15   2.32408e-14   1.91086e-14   4.31812e-15   1.72228e-14
           49  -4.94854e-15  -2.44004e-14  -1.94246e-14  -1.35553e-14   -2.1548e-14
           50  -1.85263e-14  -3.25568e-14  -3.21677e-14   -1.8389e-14  -2.77771e-14
           51  -1.62507e-14  -3.87467e-15  -8.98606e-15  -1.12639e-14  -3.86553e-15
           52  -8.16703e-15   7.67006e-15   1.01602e-14  -1.14235e-14   3.57838e-15
           53   7.71626e-15   1.16424e-14   1.24929e-14   9.66544e-15   3.18498e-15
           54  -1.08504e-14   -3.7545e-14  -3.94772e-14  -1.28387e-14  -3.06855e-14
           55  -1.39894e-14  -1.89558e-15  -3.95236e-15  -1.58843e-14   1.81578e-15
           56  -1.63149e-14  -9.32959e-15  -7.70727e-15  -1.49028e-14   -1.5948e-14
           57   1.49077e-15   2.36546e-15   4.85823e-15   8.82131e-15   1.96943e-15
           58   4.00642e-15   4.47843e-16  -3.97967e-15  -4.61135e-15     5.629e-15
           59   -2.1268e-14   -3.4788e-14  -3.54367e-14  -2.69929e-14  -3.66723e-14
           60  -8.73007e-15   4.41196e-15   7.43992e-15   3.77375e-15   1.84693e-15
           61    -1.478e-14  -3.34806e-14  -3.08865e-14  -2.27028e-14   -2.4653e-14
           62  -9.53653e-15   1.49318e-15  -6.77909e-15  -7.06652e-15  -5.04358e-15
           63   1.05844e-14   2.87681e-14   3.44751e-14    1.6085e-14   2.61788e-14
           64   1.23003e-14    1.3744e-14   1.63634e-14   9.29503e-15   1.33074e-14
           65   6.22083e-15    2.1865e-15   -7.5854e-15   3.48519e-15  -9.60324e-15
           66   4.59446e-15  -1.69342e-14  -7.61084e-15   3.23597e-15   1.91331e-15
           67   1.10161e-14    2.5255e-14   1.85609e-14   1.69494e-14   2.14539e-14
           68  -1.45714e-14   -1.9121e-14  -1.64372e-14  -2.44046e-14  -3.29088e-14
           69  -1.46244e-14  -1.25477e-14  -1.24738e-14  -1.52096e-14  -1.03829e-14
           70  -8.90493e-17  -2.24984e-15     1.907e-15   1.13855e-14   1.42265e-14
           71  -8.88298e-15  -5.91775e-16  -9.68227e-15  -1.34373e-14  -1.63536e-14
           72   4.35879e-15   6.65359e-15   7.04765e-15   -8.6694e-16   4.02029e-15
           73  -1.37436e-14  -5.42049e-14  -4.52976e-14  -1.40555e-14  -3.30697e-14
           74  -1.06963e-14   5.87373e-15  -3.05904e-15  -6.47022e-15  -5.16686e-18
           75  -1.32227e-15   3.41932e-14   3.21297e-14  -1.85412e-15   1.88532e-14
           76  -1.80918e-15   -2.7381e-14   -1.7036e-14   -5.9197e-15  -2.52512e-14
           77  -8.38667e-16  -1.19062e-14  -1.66527e-14   3.55889e-15  -6.51386e-15
           78    1.3759e-14   4.40871e-14   3.51334e-14   9.55308e-15   4.46534e-14
           79    1.7766e-15     5.999e-15   1.40943e-14  -2.07909e-16  -4.88125e-15
           80  -3.94758e-15  -3.29523e-14   -2.7848e-14  -4.28327e-15  -2.12138e-14
           81   -2.5211e-14  -4.65568e-14  -5.75565e-14  -2.65505e-14  -4.11086e-14
           82  -2.62889e-14  -1.74639e-14  -1.46521e-14  -2.60357e-14  -2.00887e-14
           83  -1.22254e-14   5.36182e-14   5.18242e-14  -7.33317e-15   2.22487e-14
           84  -1.96854e-14  -4.21352e-14  -3.84335e-14  -2.19557e-14  -2.77368e-14
           85  -4.28195e-14  -1.18808e-13  -1.16345e-13  -5.02881e-14  -9.47756e-14
           86  -5.27849e-14  -2.42331e-14  -3.42964e-14  -5.24689e-14  -4.30924e-14
           87  -4.47656e-14  -1.04671e-14  -3.06721e-15  -3.98891e-14  -5.60313e-15
           88  -1.05409e-14    1.5056e-14   1.44083e-14  -2.37718e-15    9.2726e-17
           89   9.29389e-15   9.75508e-15   1.38851e-14   1.07358e-14   6.10803e-15
           90    2.2709e-15  -3.31573e-14   -3.7655e-14  -7.28037e-15  -1.72084e-14
           91   -1.3699e-14  -4.12872e-14  -4.94644e-14  -2.04966e-14  -3.19707e-14
           92  -7.45948e-14  -9.61264e-14  -9.09853e-14   -8.2631e-14  -9.95721e-14
           93  -4.67173e-14   2.95034e-14   2.75951e-14  -2.57428e-14    8.3486e-15
           94   3.10727e-14   7.83292e-14   8.47229e-14   4.13163e-14   6.90254e-14
           95    1.7012e-14  -7.34868e-14  -7.02169e-14  -1.35179e-16  -4.93614e-14
           96  -2.04828e-14  -5.92821e-14  -7.25037e-14  -3.07879e-14   -4.5077e-14
           97   1.05548e-14   8.30685e-14   8.47833e-14   2.83681e-14   7.31002e-14
           98   5.94755e-14   1.16541e-13   1.24871e-13   6.26096e-14   9.13834e-14
           99   6.31145e-14   1.75366e-14   1.57942e-14   5.62813e-14    2.1961e-14
          100   2.55168e-14   8.15278e-15   1.99484e-15   2.00363e-14   1.17564e-14
          101  -3.42141e-14  -8.71856e-14  -7.65095e-14  -5.14331e-14  -6.86257e-14
          102  -6.28126e-14  -3.74537e-14  -5.24079e-14  -4.44995e-14  -4.35283e-14
          103  -2.39164e-14  -1.97991e-15   5.47138e-15  -2.41111e-14  -5.20288e-15
          104  -1.40783e-14   4.43156e-16   1.22226e-15  -1.79817e-14  -1.17113e-14
          105   1.08972e-14   1.11651e-14   1.01085e-14   1.48578e-14   7.53715e-15
          106   4.55428e-14    4.3355e-14   4.55993e-14   4.80886e-14   5.14463e-14
          107   3.78757e-15  -5.16302e-14  -5.24093e-14  -1.19154e-14  -3.96633e-14
          108  -1.48753e-14    -9.095e-15  -1.59694e-14  -7.46445e-15  -8.51596e-15
          109   1.69283e-14   1.28648e-13   1.29692e-13    2.7353e-14   8.78289e-14
          110  -4.60147e-14  -1.95496e-13  -1.80245e-13  -6.68547e-14  -1.47021e-13
          111  -4.89709e-14  -4.09939e-14  -6.38712e-14   -3.5192e-14   -3.1981e-14
          112  -9.58438e-15   9.34846e-14   9.88466e-14  -1.20846e-14   4.65718e-14
          113   3.55307e-14    6.8816e-14   8.11642e-14   4.76728e-14   5.64869e-14
          114   5.33025e-14  -1.18531e-14  -2.09797e-14    5.8588e-14   1.79162e-14
          115   7.63096e-14   5.55679e-14   4.52362e-14   5.41162e-14   6.39668e-14
          116    1.3869e-14   2.30654e-15   1.19506e-14  -1.42908e-15  -6.66133e-15
          117   2.15198e-14    5.9193e-14   6.58566e-14   4.99846e-14   4.90275e-14
          118  -2.70183e-14  -4.62031e-15  -1.53625e-14  -4.35662e-14  -2.14035e-14
          119  -5.52314e-14  -1.26923e-13  -1.15397e-13  -5.96493e-14   -9.4224e-14
          120  -1.78861e-14   1.15891e-14  -4.51442e-15  -1.87994e-16   1.60953e-14
          121  -4.62246e-14  -1.99298e-14  -2.34335e-14  -6.22514e-14  -6.36044e-14
          122  -6.50675e-14  -1.19764e-13  -9.72473e-14  -7.89266e-14  -1.09876e-13
          123  -1.37917e-13  -1.86025e-13  -1.85748e-13  -1.38442e-13  -1.42408e-13
          124  -8.94844e-14   1.04608e-14  -2.52806e-14  -6.13488e-14  -2.50817e-14
          125   1.45611e-14   6.66947e-14   8.51505e-14   2.39418e-14   5.89712e-14
          126  -1.85417e-14  -1.04705e-13   -7.4111e-14  -4.97999e-14  -9.18263e-14
          127  -3.46399e-14    -7.602e-14  -1.11971e-13  -3.67717e-14  -6.74176e-14
          128  -6.80363e-14  -1.84308e-14  -1.46186e-14  -5.84316e-14  -3.02582e-14
          129  -1.18843e-13  -1.15811e-13  -1.03565e-13  -1.30614e-13  -1.29379e-13
          130  -1.33236e-13  -1.44925e-13  -1.57569e-13  -1.24891e-13  -1.40219e-13
          131  -1.45026e-13     -1.62e-13  -1.62612e-13  -1.49759e-13  -1.51488e-13
          132  -1.07615e-13  -9.15922e-14  -8.38451e-14  -9.60223e-14  -9.32702e-14
          133    -1.046e-13    -1.073e-13  -1.11695e-13  -1.13953e-13  -1.17299e-13
          134  -7.16423e-14  -5.84853e-14  -5.83462e-14  -6.51218e-14  -6.12671e-14
          135   1.26198e-14   6.11234e-14   6.21433e-14   2.21202e-14   6.63867e-14
          136   9.01152e-14   1.53821e-13   1.41774e-13   9.78504e-14    1.1696e-13
          137    6.8816e-14  -2.60625e-15   1.27838e-14   4.93821e-14   4.25014e-15
          138   1.29065e-14   -1.2998e-13    -1.125e-13   -4.6232e-15  -5.74808e-14
          139  -5.70517e-14  -2.80337e-14  -7.84236e-14  -5.68212e-14  -4.36025e-14
          140   -2.2705e-14   1.35487e-13   1.60085e-13   5.98868e-15   7.48302e-14
          141   1.33594e-14  -3.07903e-14  -3.30429e-15   2.69492e-15  -2.32917e-14
          142   8.65806e-14   6.80205e-14   2.49501e-14   9.14809e-14   7.10539e-14
          143   3.52432e-14  -2.16262e-15   6.08268e-15   9.47341e-15   7.57097e-15
          144   8.48047e-15    1.5733e-14   2.60699e-14   1.02728e-14   1.65863e-14
          145    4.2691e-16   2.56524e-14   2.29519e-14   2.28086e-14   2.37056e-14
          146   2.74383e-14    4.3458e-14   4.93079e-14   2.06767e-14   5.45003e-14
          147   4.36256e-14   5.01899e-14   4.21599e-14   4.25275e-14   3.00845e-14
          148   6.39912e-14   5.54191e-14   5.50807e-14   6.97542e-14   3.75265e-14
          149  -7.57523e-15  -1.07741e-13  -9.98292e-14  -4.23187e-14  -6.98792e-14
          150  -9.80822e-14  -1.35792e-13  -1.43731e-13  -1.04887e-13  -1.08129e-13
          151  -7.20258e-14   9.85462e-14   8.76912e-14  -3.85394e-14   3.00779e-14
          152  -6.73584e-14  -1.01913e-13  -7.23924e-14  -7.81125e-14  -1.17555e-13
          153  -5.37877e-14  -1.32063e-13   -1.4996e-13  -4.84335e-14  -8.44047e-14
          154  -1.24053e-13  -1.78911e-13  -1.98004e-13  -1.50656e-13  -1.45206e-13
          155  -1.04468e-13  -4.49683e-17   1.53731e-14   -7.7018e-14  -5.11415e-14
          156  -8.70515e-14  -3.08935e-14  -1.09522e-14  -7.38844e-14  -5.86755e-14
          157   2.42872e-15  -8.92531e-15  -2.31861e-14   -6.2913e-15   1.49862e-14
          158   1.86179e-14  -2.57526e-14  -4.55619e-14   5.82744e-15  -9.20771e-15
          159   2.21773e-14    3.1348e-14   2.63863e-14   3.20418e-14   1.66422e-14
          160  -8.41298e-14  -1.38202e-13    -1.039e-13  -1.06668e-13  -1.37452e-13
          161  -7.27496e-14  -2.16037e-14  -4.16828e-14  -5.27133e-14  -3.34982e-14
          162  -1.80304e-13   -2.5065e-13  -2.64141e-13  -2.10592e-13  -2.41029e-13
          163  -1.62085e-13  -1.79544e-13  -1.52544e-13    -1.385e-13   -1.4457e-13
          164  -1.80283e-13  -1.21242e-13  -1.43662e-13   -1.8126e-13   -1.5411e-13
          165  -1.47189e-13  -9.85951e-14  -8.95055e-14  -1.47993e-13  -1.02619e-13
          166  -4.89453e-14    -1.122e-15  -3.33627e-15  -2.32786e-14  -2.77089e-14
          167   1.08623e-14   1.85547e-14   1.69683e-14   6.69099e-15   1.41134e-14
          168   4.03956e-14  -3.83462e-15  -3.93825e-16   1.89218e-14   8.84586e-15
          169  -2.42204e-14  -8.42287e-14  -8.47959e-14  -2.63609e-14  -6.05771e-14
          170  -2.73933e-14  -2.21777e-14  -4.01401e-14  -2.13107e-14  -3.71601e-14
          171  -6.67713e-14  -5.67295e-14  -3.90498e-14  -6.76581e-14  -5.21199e-14
          172  -7.87901e-14  -5.89402e-14  -6.03591e-14  -9.27177e-14  -6.60265e-14
          173  -5.11762e-14  -3.27028e-14  -4.24655e-14  -3.22152e-14  -3.94159e-14
          174  -4.92293e-14   -6.5246e-14  -5.89024e-14  -4.58782e-14  -5.58586e-14
          175  -7.17371e-14  -1.00438e-13  -1.03584e-13  -9.61444e-14  -1.06891e-13
          176  -5.65306e-14  -7.68926e-14  -7.04072e-14  -4.59722e-14  -5.99427e-14
          177  -8.72353e-14   -8.9518e-14  -9.88065e-14  -9.72871e-14  -1.05289e-13
          178  -3.87643e-14    3.6777e-14   3.24987e-14   -2.1624e-14   1.70289e-14
          179  -5.57075e-14  -9.13057e-14  -6.42256e-14  -5.96403e-14  -6.17132e-14
          180   1.05279e-15   3.00634e-14   1.10819e-14   1.17987e-14   1.41202e-14
          181   2.41756e-14   2.98292e-14   1.55297e-14   1.67289e-14   9.58997e-15
          182   2.56758e-14  -3.39597e-14  -1.06707e-14   1.38587e-14  -6.00544e-15
          183  -5.57976e-14  -3.93642e-14  -6.12911e-14  -6.07363e-14  -5.48359e-14
          184   -2.7289e-14   4.80469e-14   4.46863e-14  -1.32172e-14    2.0593e-14
          185   -1.2952e-13  -2.24265e-13  -1.82245e-13   -1.5193e-13  -1.96902e-13
          186  -5.07693e-14   9.89849e-15  -4.16425e-14  -1.96131e-14  -1.08733e-14
          187  -5.79529e-14   -7.4936e-14  -5.20995e-14  -6.94108e-14  -4.61233e-14
          188  -6.94696e-14  -6.85215e-14   -6.7215e-14   -7.7859e-14   -9.5964e-14
          189  -8.90701e-14  -1.29338e-13  -1.41586e-13  -9.33945e-14  -1.33807e-13
          190  -8.79424e-14  -1.41481e-13  -1.18775e-13  -8.44417e-14  -8.50733e-14
          191  -6.45039e-14   1.82022e-14   -1.3549e-14  -5.47242e-14  -8.67402e-15
          192  -4.13942e-14   2.01666e-14   1.64573e-14  -4.37202e-14  -3.83396e-14
          193   3.46775e-16  -6.58412e-14  -1.03424e-14   7.08503e-15  -1.63417e-14
          194   -5.1549e-15  -2.66734e-14  -6.36731e-14  -1.63494e-14  -2.06485e-14
          195    -5.667e-15   6.64238e-14   2.83297e-14  -1.35655e-14   7.48534e-15
          196  -7.97589e-14  -1.39089e-13  -8.54265e-14  -8.36208e-14  -1.28215e-13
          197  -1.50558e-13  -2.49457e-13  -2.39506e-13  -1.54591e-13    -1.795e-13
          198  -7.86792e-14   1.80455e-13   9.08789e-14   -5.9063e-14   6.71983e-14
          199   -8.1119e-15  -5.55836e-14   3.31887e-14   1.76906e-15  -2.94127e-14
          200   4.39318e-14  -1.05015e-13  -1.02856e-13    4.1935e-14   -2.8434e-14
          201  -2.41256e-14   -1.4166e-14  -9.15007e-14  -5.95456e-14  -5.59486e-14
          202  -4.48337e-14   5.22452e-14   8.80797e-14  -3.81424e-14   9.23655e-15
          203  -1.02258e-13  -1.77033e-13  -1.43141e-13  -9.53093e-14  -1.23462e-13
          204  -3.22411e-14   1.47939e-14  -2.94942e-14   -1.5064e-14   1.08994e-14
          205   4.99458e-14   8.45481e-14   9.80925e-14   5.64123e-14   6.36902e-14
          206   2.27462e-14  -2.64725e-14  -1.14035e-14  -4.13618e-15  -3.85687e-14
          207  -1.90095e-14  -7.33285e-15  -3.27348e-14  -1.93484e-14  -1.83568e-14
          208  -9.75547e-14  -1.21821e-13  -1.16273e-13  -1.06763e-13  -1.01596e-13
          209  -1.19679e-13  -1.66171e-13  -1.51106e-13  -1.07165e-13  -1.46718e-13
          210  -8.27704e-14  -4.86022e-14  -4.95824e-14  -6.69119e-14  -4.57212e-14
          211  -3.32615e-14   4.23031e-14   1.46455e-14  -4.82739e-14  -9.40357e-15
          212   3.99638e-14   5.01138e-14   7.46546e-14   4.51288e-14   7.14902e-14
          213   4.47712e-14  -1.48803e-14  -1.32974e-14   4.46258e-14  -1.80121e-14
          214  -5.58145e-15  -4.12458e-14  -7.12557e-14  -1.99799e-14  -4.43756e-14
          215  -1.65987e-14   7.17956e-15    2.0194e-14  -1.75022e-14   1.86519e-14
          216  -3.80583e-14  -1.79457e-15   2.31057e-14  -3.21946e-14  -1.58339e-14
          217   -8.8922e-14  -1.08905e-13   -1.1521e-13  -9.12755e-14  -1.05042e-13
          218  -4.56807e-14  -2.77503e-14  -5.29053e-14  -2.57594e-14  -2.07045e-14
          219  -2.60497e-14  -3.88493e-14  -2.34342e-14  -5.06109e-14  -4.13462e-14
          220  -2.51922e-14  -1.86881e-14  -2.90128e-14  -3.03708e-14  -6.10458e-14
          221   -3.4219e-14  -6.12338e-14  -4.16977e-14  -2.42443e-14  -2.06293e-14
          222  -1.24231e-14  -5.69371e-14  -4.57341e-14  -1.09452e-14   -9.9191e-15
          223  -1.20318e-14   9.12105e-14   1.53635e-14  -7.58853e-15   2.96659e-15
          224  -6.85811e-14  -2.05024e-13  -1.22608e-13  -1.04756e-13   -1.3245e-13
          225  -6.76628e-14  -6.56369e-14   -9.1688e-14  -4.80669e-14  -7.37136e-14
          226  -4.99043e-14   1.09395e-14  -2.30757e-14  -4.11607e-14  -2.04151e-14
          227  -8.95012e-14  -9.09514e-14  -5.24264e-14  -1.09818e-13  -8.75223e-14
          228  -3.81935e-14  -1.39415e-14  -1.17507e-14   -1.9478e-14  -1.86404e-14
          229    -3.306e-14  -1.52479e-14  -3.17853e-14  -3.52272e-14  -2.83736e-14
          230  -2.42496e-14  -1.15578e-14  -2.88028e-14  -3.97282e-14  -5.10724e-14
          231  -4.01923e-14  -1.07748e-13  -7.93896e-14  -4.11195e-14  -7.75226e-14
          232  -7.56231e-14  -9.62791e-14   -9.2305e-14  -7.12508e-14  -4.96792e-14
          233  -5.77497e-14   9.01722e-15  -3.86888e-14  -4.78149e-14  -3.83358e-14
          234  -6.80991e-14  -9.81415e-14  -6.46318e-14  -7.14331e-14   -9.7899e-14
          235   -2.5237e-14   1.17327e-14   9.29477e-15  -2.74859e-14   3.33371e-15
          236   5.16833e-14   1.38102e-13   1.33795e-13   6.90997e-14   1.24388e-13
          237   4.13519e-14  -3.64374e-14  -2.84419e-14   2.19978e-14  -2.40538e-14
          238  -2.25934e-14  -1.03391e-13  -1.27299e-13  -4.47376e-14  -1.02366e-13
          239  -9.55741e-14  -1.06496e-13  -9.64606e-14  -8.64592e-14   -7.6103e-14
          240  -8.44072e-14  -1.80603e-14  -6.80705e-15  -7.07555e-14  -3.13812e-14
          241  -4.54024e-14   5.98368e-14   2.78043e-14  -4.68552e-14  -1.29817e-14
          242  -1.34136e-14  -9.37691e-14  -3.47164e-14  -1.52178e-14  -3.74008e-14
          243   8.77197e-15  -3.21619e-14  -5.63515e-14   1.20311e-14  -2.28392e-14
          244   6.12924e-15  -2.53828e-16  -4.65734e-14   3.34248e-15  -9.60251e-15
          245   3.24932e-15  -1.58287e-15    3.4659e-14  -5.60524e-15   8.00402e-15
          246  -4.05548e-14  -2.89282e-14  -2.08392e-14  -5.04959e-14   -4.3366e-14
          247  -8.71478e-14  -1.06485e-13  -1.07497e-13  -8.29885e-14  -9.91664e-14
          248  -1.03149e-13  -1.17861e-13  -1.35444e-13  -9.09289e-14  -1.01845e-13
          249  -9.84297e-14  -2.21971e-14  -4.51192e-14  -9.75982e-14  -5.64726e-14
          250  -9.21425e-14  -1.22311e-13  -8.23233e-14  -1.00458e-13  -1.25406e-13
          251  -7.78826e-14  -1.17214e-13  -1.18195e-13  -7.59581e-14  -1.04842e-13
          252  -6.32138e-16    7.2919e-14   2.57135e-14   8.25923e-15   5.59948e-14
          253   4.00733e-14   9.68174e-14   1.09735e-13   5.85871e-14    1.0184e-13
          254  -5.36348e-14  -2.23407e-13  -1.69224e-13  -8.82087e-14   -2.0751e-13
          255  -9.63624e-14  -1.00589e-13  -1.37676e-13  -1.07405e-13  -9.46026e-14
          256  -4.68194e-14   1.04363e-13   7.29756e-14  -8.36043e-15   6.46056e-14
          257   1.81592e-14   3.31935e-14   6.55419e-14   2.37793e-14   1.95563e-14
          258   2.04254e-14  -5.99355e-14   -4.4317e-14  -9.77327e-15  -2.63588e-14
          259   2.15787e-14   3.36096e-15  -1.75858e-14    4.1764e-14   2.06446e-14
          260   5.72962e-14   1.22842e-13   9.08452e-14   5.86476e-14   9.50575e-14
          261  -1.29823e-14  -4.25582e-14   1.68879e-15  -4.54622e-14  -3.89716e-14
          262  -1.75994e-14  -3.73905e-14  -3.33062e-14   1.25117e-15  -4.33508e-14
          263  -6.98654e-14  -5.96832e-14  -9.34379e-14  -7.17315e-14   -7.8768e-14
          264  -1.04061e-13  -8.04768e-14  -9.27194e-14  -1.17714e-13  -8.06185e-14
          265  -7.80376e-14  -9.52179e-14  -5.20347e-14  -6.04869e-14  -7.11744e-14
          266   -8.3122e-14  -1.16289e-13  -1.39968e-13  -8.29225e-14  -1.17054e-13
          267  -3.50691e-14   1.59286e-14   8.45223e-15  -3.80426e-14   2.95652e-15
          268  -7.72333e-14  -1.10296e-13  -8.77399e-14  -1.00963e-13  -1.13669e-13
          269  -9.34916e-14  -1.27138e-13   -1.4288e-13  -8.89135e-14  -1.36861e-13
          270   -8.1131e-14   -7.5832e-14  -5.80215e-14   -5.4977e-14  -2.09612e-14
          271  -3.69698e-14   1.19119e-13   5.94727e-14  -3.60462e-14   2.98446e-14
          272  -8.27192e-14  -1.85679e-13  -1.23142e-13  -1.17975e-13  -1.76048e-13
          273  -5.06034e-14  -7.10699e-14  -8.68956e-14  -2.59845e-14  -4.27635e-14
          274   1.90362e-14   1.66688e-13   1.22903e-13   3.06248e-14   1.25035e-13
          275    6.3484e-14  -3.66241e-14   2.30069e-14   5.61627e-14   7.98584e-15
          276    3.9073e-14  -6.80483e-14   -7.9331e-14   3.36487e-14   -5.4409e-14
          277  -9.42801e-14  -1.00178e-13  -1.44674e-13  -1.24352e-13  -1.27815e-13
          278  -1.51011e-13  -1.02691e-13   -7.4483e-14  -1.47196e-13  -7.71187e-14
          279  -5.04503e-14   1.00422e-13   9.81388e-14  -1.06648e-15   5.16945e-14
          280   5.14378e-14   7.37118e-14   7.75931e-14    4.2972e-14    5.0215e-14
          281   3.78187e-14  -1.26171e-13  -1.27012e-13   9.95879e-15   -8.8883e-14
          282  -1.11895e-13  -2.15028e-13  -2.26785e-13  -1.35916e-13  -1.70857e-13
          283  -1.49869e-13  -4.36811e-14  -4.22906e-14  -1.28463e-13  -6.69247e-14
          284    -6.969e-15   1.80168e-13   1.56806e-13   3.83451e-14   1.08823e-13
          285   1.18466e-13   5.40678e-14    1.0667e-13    1.0062e-13   8.57344e-14
          286    3.4762e-14  -6.20072e-14  -9.05723e-14   6.17209e-15  -5.74776e-14
          287  -8.23215e-14  -1.24697e-13  -1.53945e-13  -9.90622e-14  -1.12498e-13
          288  -1.11755e-13  -9.21077e-14  -6.06547e-14  -9.66796e-14  -7.00563e-14
          289  -1.21736e-14   1.06993e-13   1.00065e-13   2.41151e-14   7.09361e-14
          290   8.57959e-14   1.23575e-13   1.19967e-13   6.64823e-14    8.6042e-14
          291   6.17636e-14  -7.71095e-14  -4.59664e-14   5.84399e-14  -1.99898e-14
          292  -8.16988e-15  -1.90479e-14  -6.70883e-14  -1.99871e-14   -2.3691e-14
          293   8.66116e-16   6.69795e-14   7.89355e-14   2.29605e-15   5.10007e-14
          294   2.42462e-14   4.53061e-14   6.55748e-14   3.12119e-14   2.80001e-14
          295   2.41076e-14  -5.34496e-14  -6.47036e-14   2.69063e-14  -2.70942e-14
          296   7.84496e-14   1.39352e-13   9.83616e-14   7.42516e-14   1.19192e-13
          297   7.51069e-14   8.97098e-14    1.4298e-13   8.61895e-14   1.07432e-13
          298  -5.96309e-16  -6.63572e-14  -7.24159e-14  -2.67836e-14  -1.01169e-13
          299  -3.90436e-14  -1.23187e-13   -1.3744e-13  -4.52256e-14  -8.30014e-14
          300  -8.11324e-14  -2.69496e-14  -4.38377e-14  -7.66104e-14   -1.2484e-14
          301  -1.21427e-13   -9.6657e-14  -8.10027e-14   -1.2286e-13  -1.16927e-13
          302  -7.05814e-16   1.47554e-13   1.36128e-13   4.74344e-14   7.64941e-14
          303   1.57053e-14  -1.07243e-13  -4.93335e-14  -2.45846e-14   -6.3626e-14
          304  -1.19342e-13  -2.16884e-13  -2.84861e-13  -1.49445e-13  -2.05687e-13
          305  -7.79363e-14   5.35012e-15  -1.11262e-14  -3.43969e-14   2.14983e-14
          306  -2.91276e-14   2.69372e-14   7.59534e-14  -2.87985e-14   1.41349e-14
          307   4.51523e-14    1.1288e-13   8.89179e-14   4.75821e-14   3.88901e-14
          308   1.05671e-13  -2.17211e-14   7.46073e-15   9.70901e-14   5.60409e-14
          309   7.52239e-14   4.08995e-14   1.02104e-14   7.49858e-14   6.97712e-14
          310   5.83623e-14    1.6925e-13   1.61965e-13   5.57629e-14   9.60112e-14
          311  -1.01594e-14  -2.71221e-14  -1.04607e-15  -2.96782e-14  -5.66381e-14
          312  -7.68302e-14  -1.59702e-13  -1.73833e-13  -7.61872e-14  -1.21926e-13
          313  -6.41157e-14  -1.08748e-13  -9.99232e-14  -4.77519e-14   -2.5905e-14
          314  -5.22403e-14   2.01616e-13   1.21316e-13  -5.78188e-14   3.04455e-14
          315  -3.63476e-14  -1.96471e-13  -7.97968e-14  -3.23484e-14  -1.21928e-13
          316  -2.91704e-14  -7.93242e-14  -1.26056e-13  -3.64161e-14  -4.39071e-14
          317  -5.35203e-14   4.98061e-14   4.86434e-16  -7.41659e-14  -1.47914e-14
          318  -1.63773e-14   1.26156e-14   6.88149e-14   1.38511e-14   7.27629e-15
          319  -4.14631e-14  -1.36766e-13  -1.22601e-13  -4.88881e-14  -8.13811e-14
          320  -3.95004e-14  -4.45339e-14  -1.00951e-13  -5.35596e-14  -5.85427e-14
          321  -1.28656e-14   3.24822e-14   2.46998e-14   4.46763e-15  -1.00543e-14
          322  -8.04647e-14  -1.68266e-13  -1.00867e-13  -1.05463e-13  -1.19092e-13
          323   -6.5523e-14  -3.20027e-14  -7.42095e-14  -6.23776e-14  -3.08493e-14
          324  -1.42316e-14   1.18626e-13   5.54511e-14   1.78899e-14   4.44721e-14
          325   -2.0986e-14  -1.00503e-13   8.99493e-17  -3.81255e-14  -5.42738e-14
          326  -4.61088e-14  -1.68188e-14  -5.58932e-14  -6.74136e-14  -6.47009e-14
          327   8.78239e-15    8.9225e-15     3.976e-15   3.17072e-14   3.64001e-14
          328  -6.91613e-14  -2.28935e-13  -2.11903e-13  -9.71621e-14  -1.62762e-13
          329  -7.08732e-14   3.72259e-14  -9.47938e-15  -6.66319e-14  -4.01861e-14
          330  -1.07639e-14   3.57404e-14   8.76708e-14   1.18667e-14   5.11792e-14
          331   4.29615e-14   3.56616e-14    3.5239e-14   4.62721e-14   5.19278e-14
          332   8.32732e-14   1.04602e-13   6.38423e-14   7.92676e-14   7.74169e-14
          333   1.04164e-13   1.07865e-13   1.06807e-13    9.3611e-14   7.87911e-14
          334   6.76424e-14   2.24728e-14   4.27143e-14   6.54514e-14   4.60702e-14
          335  -2.03316e-14  -1.06694e-13  -7.71081e-14  -3.86567e-14  -4.89809e-14
          336   2.52697e-14   2.23048e-13   1.35962e-13    5.7891e-14   1.00053e-13
          337   1.52512e-14  -1.09535e-13  -1.38292e-14   1.18967e-14  -1.93071e-14
          338  -8.96572e-15  -4.06823e-14  -9.09437e-14  -3.19819e-14  -5.59172e-14
          339  -1.59296e-14   4.27918e-14   1.70882e-14  -9.75674e-15   1.49423e-14
          340   2.50112e-14     5.175e-14   1.04429e-13    3.7899e-14   8.28831e-14
          341   9.54426e-15  -2.06471e-16  -3.98326e-14   2.54317e-15  -4.87041e-14
          342   1.02689e-15  -5.92093e-14  -3.92114e-14  -6.55848e-15  -1.82689e-14
          343  -1.24411e-14   2.34355e-14   3.50305e-15  -1.48142e-14     1.139e-14
          344   2.08267e-14   1.15476e-13   7.46602e-14   3.58539e-14   5.76705e-14
          345   9.41583e-15  -6.60429e-14   2.42803e-14    1.5626e-14   7.43064e-15
          346  -3.54844e-14  -7.85657e-14  -1.13469e-13  -6.96924e-14  -1.05307e-13
          347   -8.9928e-14  -1.55512e-13  -1.88277e-13  -1.01491e-13  -1.54867e-13
          348  -1.95246e-13  -2.62781e-13  -2.18362e-13  -1.94395e-13  -1.97613e-13
          349  -1.76516e-13   3.83871e-14  -2.51857e-14  -1.58539e-13  -8.58709e-14
          350  -9.52313e-14  -7.14274e-14  -1.02685e-15  -8.16273e-14  -5.39528e-14
          351   2.08782e-14  -6.42801e-15   -1.7682e-14   3.78243e-14   2.12508e-14
          352   4.75329e-15  -8.47411e-14  -1.38724e-13  -4.25072e-14     -7.32e-14
          353   5.90966e-16   2.18234e-14   4.17555e-14   2.02917e-14   2.74157e-14
          354  -2.48705e-14   3.16226e-14   5.22376e-14  -1.75559e-14   4.60128e-15