# Probe 0 (0.0005 0.0001 0.0003)
# Probe 1 (0.0005 0.0001 0.0027)
# Probe 2 (0.0005 0.0009 0.0027)
# Probe 3 (0.0005 0.0009 0.0003)
# Probe 4 (0.0005 0.0005 0.0015)
#       Probe             0             1             2             3             4
#        Time
            1             (38.7451 3.21599e-17 -1.3724e-17)             (38.716 -1.65154e-17 2.89509e-17)             (38.7155 3.92241e-18 6.72145e-18)             (38.7159 -2.72589e-17 3.86493e-18)             (38.7255 3.85752e-17 2.80533e-17)
            2             (39.2917 2.78646e-15 3.44129e-16)             (38.7208 -2.74615e-16 5.47099e-16)             (38.7183 1.48722e-16 1.9313e-16)             (38.8131 -2.44351e-15 1.23375e-15)             (38.8685 1.33382e-15 1.50221e-15)
            3             (39.3339 2.81029e-15 4.76507e-15)             (38.7364 1.17826e-15 -2.65473e-15)             (38.7274 7.44231e-16 7.67385e-16)             (38.8873 1.04384e-14 -1.14863e-15)             (39.0907 -5.46656e-15 -9.56724e-16)
            4             (39.5125 1.5529e-15 -1.88617e-15)             (38.7569 -2.42278e-15 1.00661e-14)             (38.7382 6.15485e-16 1.50056e-16)             (38.9128 -9.71023e-15 3.16103e-16)             (39.2183 3.57984e-15 1.89113e-15)
            5             (39.6665 -7.85247e-16 -3.2105e-15)             (38.7851 1.84156e-15 -1.11887e-14)             (38.7442 -6.19712e-16 -7.84806e-17)             (38.9095 3.34344e-15 -2.29481e-16)             (39.344 -1.22042e-15 -1.09095e-15)
            6             (39.8218 -3.01569e-16 1.13525e-15)             (38.8176 4.19613e-16 5.13114e-15)             (38.7412 -1.98605e-15 -3.12355e-16)             (38.8643 2.37818e-15 -1.65233e-16)             (39.472 -2.05086e-15 -1.43971e-15)
            7             (39.9797 1.284e-15 1.5422e-15)             (38.8535 -1.3665e-15 1.75958e-15)             (38.72 1.59996e-15 -7.05728e-16)             (38.7678 -5.63316e-15 1.27983e-15)             (39.6033 2.03185e-15 9.18217e-16)
            8             (40.1412 2.09646e-16 3.33439e-16)             (38.8889 8.77493e-16 -4.67049e-15)             (38.6532 -1.20189e-15 9.10476e-16)             (38.6036 2.37581e-15 1.2753e-15)             (39.7455 -2.05607e-15 1.04171e-15)
            9             (40.3038 6.4398e-16 7.21597e-16)             (38.9265 1.29011e-16 4.61286e-15)             (38.5465 2.15402e-16 4.34168e-16)             (38.3786 -6.42519e-16 9.11921e-16)             (39.893 -2.68391e-17 2.52258e-16)
           10             (40.4527 4.79202e-16 2.9823e-16)             (38.9661 -6.43198e-16 -8.80715e-16)             (38.4004 -1.6048e-16 2.78858e-17)             (38.093 -9.00591e-16 3.49229e-16)             (40.0453 1.79225e-16 -4.72399e-16)
           11             (40.6085 -5.51356e-16 -2.18161e-15)             (39.0078 1.65906e-16 -1.17439e-15)             (38.2161 -9.61889e-16 1.20896e-16)             (37.7502 8.16564e-16 4.25071e-18)             (40.2025 -1.13607e-15 -7.41339e-16)
           12             (40.7747 6.31411e-16 8.96835e-16)             (39.048 -1.25988e-16 2.05695e-15)             (37.9897 4.94243e-16 -1.51315e-17)             (37.3528 -1.60999e-15 8.13144e-16)             (40.3702 3.77739e-16 5.78152e-16)
           13             (40.9533 3.75198e-18 1.18316e-15)             (39.0901 -2.35909e-16 -6.75439e-16)             (37.7298 -4.51622e-16 5.68156e-16)             (36.9083 2.93352e-16 1.13521e-15)             (40.5426 -5.29649e-16 5.26544e-16)
           14             (41.1388 9.07537e-17 -1.34078e-15)             (39.1337 1.91157e-16 2.41538e-16)             (37.4386 -2.06128e-16 4.67564e-16)             (36.4245 3.84839e-16 3.42839e-16)             (40.7187 -2.01569e-16 -2.03326e-16)
           15             (41.3313 2.21204e-16 -1.58304e-15)             (39.1792 -1.07382e-16 5.89537e-16)             (37.1199 -6.74691e-17 -1.32227e-16)             (35.9091 -1.01169e-15 3.00654e-17)             (40.899 2.97753e-16 -8.99658e-16)
           16             (41.5197 -1.13121e-16 -2.36113e-16)             (39.2259 1.23983e-17 -4.51091e-16)             (36.7764 -4.01496e-16 2.83712e-16)             (35.3683 1.28739e-16 6.07909e-16)             (41.0806 -5.59356e-16 2.08893e-16)
           17             (41.7033 6.50413e-16 1.52618e-15)             (39.2743 9.82612e-17 6.72023e-16)             (36.4127 1.71901e-16 6.59392e-16)             (34.809 -1.38437e-16 9.1301e-16)             (41.2647 3.59592e-16 5.11222e-16)
           18             (41.8958 8.45048e-16 6.68483e-16)             (39.3243 -2.62578e-16 9.04884e-17)             (36.0319 -3.21111e-16 1.73413e-16)             (34.2367 -2.80723e-16 4.10178e-16)             (41.4501 -2.90344e-16 3.67943e-16)
           19             (42.0889 -8.09267e-17 -1.8032e-15)             (39.3756 -4.06344e-18 1.34423e-16)             (35.6375 -1.02692e-16 1.31114e-16)             (33.6561 -1.75764e-17 6.235e-17)             (41.6354 -5.29086e-16 -9.3886e-16)
           20             (42.2927 5.0487e-16 7.88206e-16)             (39.4281 9.43069e-17 3.71999e-16)             (35.2325 -5.01336e-17 4.22938e-16)             (33.0713 -2.6134e-16 5.73413e-16)             (41.8194 3.56301e-17 4.3854e-16)
           21             (42.5089 6.93049e-16 2.93103e-16)             (39.482 -2.66104e-16 -8.7348e-17)             (34.82 -1.18585e-16 3.5959e-16)             (32.4862 -1.58455e-16 5.74454e-16)             (42.0026 -3.52643e-16 3.69234e-16)
           22             (42.7275 -7.42733e-17 -2.31198e-15)             (39.5356 6.41041e-17 2.1894e-16)             (34.4064 -4.96413e-17 1.40513e-16)             (31.9042 3.77833e-17 6.23658e-17)             (42.1824 -9.85259e-17 -9.47612e-16)
           23             (42.9335 1.70468e-16 3.6833e-16)             (39.5904 2.18764e-17 1.32004e-16)             (33.9901 -1.90207e-16 3.42465e-16)             (31.3273 -1.99643e-16 2.35864e-16)             (42.3589 -1.49935e-16 -7.15153e-16)
           24             (43.0806 3.6655e-16 8.78207e-16)             (39.6466 9.13524e-17 -1.8605e-16)             (33.5732 -5.42517e-18 4.27158e-16)             (30.7577 -2.04582e-16 7.01357e-16)             (42.5316 -1.91367e-16 1.92098e-16)
           25             (43.3096 8.98797e-16 7.42611e-16)             (39.7032 4.7778e-17 3.60647e-16)             (33.1565 -3.10663e-17 2.6196e-16)             (30.1961 2.54617e-16 4.099e-16)             (42.6952 -2.97431e-16 6.81163e-16)
           26             (43.5473 -5.35317e-17 -1.10204e-15)             (39.7602 -1.33334e-16 4.91186e-17)             (32.7419 -1.58038e-16 2.1169e-16)             (29.6441 -2.42103e-16 7.16365e-17)             (42.8511 -1.84537e-16 -1.28083e-16)
           27             (43.7844 -2.29559e-16 -1.02565e-15)             (39.818 -1.0294e-16 -4.23807e-17)             (32.3307 -4.52836e-17 2.78401e-16)             (29.1035 -3.26676e-16 3.82563e-16)             (43.0029 -4.83926e-17 -4.03504e-16)
           28             (44.013 6.74476e-16 2.88556e-16)             (39.8766 5.93879e-17 4.68767e-16)             (31.9241 -2.02414e-17 2.50934e-16)             (28.5752 1.52509e-16 3.51676e-16)             (43.1509 -5.26726e-17 -2.30761e-17)
           29             (44.2332 -4.08831e-16 -8.25702e-16)             (39.9358 -8.54948e-17 -7.49466e-17)             (31.5226 -6.58717e-17 2.56443e-16)             (28.0598 -1.51877e-16 1.07002e-16)             (43.295 -1.42945e-16 -5.72079e-16)
           30             (44.4579 4.38381e-16 7.07881e-16)             (39.9951 -1.94265e-16 5.66389e-16)             (31.1269 -7.04054e-17 2.99725e-16)             (27.5575 -1.24703e-16 2.42795e-16)             (43.4341 -2.60672e-16 5.24507e-16)
           31             (44.685 6.53499e-16 -7.12114e-16)             (40.0547 3.68434e-17 1.05219e-16)             (30.7374 -2.20799e-18 2.35411e-16)             (27.0688 -3.63004e-17 3.33406e-16)             (43.5681 -5.87937e-17 -1.80898e-16)
           32             (44.9127 8.2886e-17 -4.08947e-16)             (40.1144 -1.55916e-16 -1.19144e-17)             (30.3548 -4.17101e-17 2.49924e-16)             (26.5941 1.15912e-16 1.8709e-16)             (43.6963 -2.94067e-16 -5.37799e-16)
           33             (45.1437 -6.22828e-17 -5.8996e-16)             (40.1744 7.9885e-17 3.80697e-16)             (29.9793 -3.69486e-17 1.82393e-16)             (26.1338 -2.03318e-16 1.45446e-16)             (43.818 -3.53548e-16 -9.61364e-17)
           34             (45.3774 6.27758e-16 4.66374e-16)             (40.2344 8.28887e-17 1.40476e-16)             (29.6112 -1.24231e-16 1.78407e-16)             (25.6881 4.29774e-17 2.49372e-16)             (43.9326 3.70515e-17 3.03855e-16)
           35             (45.613 4.37496e-16 -2.39492e-16)             (40.2946 -2.82453e-16 4.16317e-16)             (29.2508 3.39301e-17 2.9158e-16)             (25.2573 2.61342e-17 3.33078e-16)             (44.0395 8.60727e-17 -1.43838e-17)
           36             (45.8497 8.44563e-17 -4.20953e-17)             (40.355 2.02735e-16 -5.15321e-19)             (28.8982 -8.13563e-18 2.07878e-16)             (24.8415 3.09633e-17 2.48438e-16)             (44.1379 -2.29436e-16 9.39342e-17)
           37             (46.0866 5.69093e-16 3.85796e-16)             (40.4155 -2.21428e-16 2.08666e-16)             (28.5536 -9.42344e-17 1.81202e-16)             (24.4412 -4.82971e-17 1.81008e-16)             (44.2267 -2.40475e-17 -1.91961e-16)
           38             (46.3231 1.98981e-16 -6.55364e-16)             (40.4761 -9.70996e-17 1.81033e-16)             (28.2169 -1.94335e-17 2.0365e-16)             (24.0565 -8.53848e-17 2.29257e-16)             (44.3049 4.11231e-18 -1.65733e-16)
           39             (46.5586 8.95988e-16 4.87842e-16)             (40.5369 8.64357e-17 4.3834e-17)             (27.8883 2.30202e-17 1.35989e-16)             (23.6878 7.29287e-17 1.92289e-16)             (44.3712 -4.55063e-16 4.73751e-16)
           40             (46.7927 9.52852e-16 2.1858e-15)             (40.5978 -2.42547e-16 3.78438e-16)             (27.5676 -9.23406e-17 1.99065e-16)             (23.3356 -7.66003e-18 3.51575e-16)             (44.4246 1.39451e-16 5.78286e-18)
           41             (47.0251 7.54913e-16 2.20528e-15)             (40.6589 5.04719e-17 3.88516e-16)             (27.2549 2.14556e-17 2.64627e-16)             (23.0003 7.15629e-18 3.82876e-16)             (44.4652 -1.85583e-16 2.47998e-16)
           42             (47.2553 1.30981e-15 3.30591e-18)             (40.7201 -5.66243e-18 2.3293e-16)             (26.9502 4.88472e-17 1.46338e-16)             (22.6827 -2.3648e-17 2.4351e-16)             (44.4973 6.94646e-17 7.64867e-16)
           43             (47.4831 7.63499e-16 -3.678e-16)             (40.7815 -8.05365e-18 1.51149e-16)             (26.6535 -1.11739e-16 1.61046e-16)             (22.3834 1.48468e-17 1.51082e-16)             (44.5218 3.34984e-16 3.25728e-16)
           44             (47.7076 5.57653e-16 1.13856e-15)             (40.8432 1.94752e-16 1.22674e-16)             (26.3645 2.30956e-17 2.0526e-16)             (22.1036 7.81543e-17 2.03187e-16)             (44.5397 -4.81272e-16 8.24692e-17)
           45             (47.9278 9.17836e-16 1.06554e-15)             (40.9051 -1.58338e-16 1.93912e-16)             (26.0834 1.75873e-17 2.43136e-16)             (21.8441 -5.67817e-17 2.69417e-16)             (44.5496 1.87276e-16 3.05904e-16)
           46             (48.1419 -2.6331e-17 -1.42402e-15)             (40.9674 4.20942e-18 2.04928e-16)             (25.8101 -2.47814e-17 1.76684e-16)             (21.6063 -7.80994e-17 1.73482e-16)             (44.5478 5.06511e-17 1.0655e-18)
           47             (48.3538 5.10741e-16 1.10328e-15)             (41.0301 -8.07851e-17 2.18309e-16)             (25.5444 -1.07197e-17 7.45615e-17)             (21.3914 1.38187e-16 7.10449e-17)             (44.5363 -3.153e-16 2.81327e-16)
           48             (48.5607 6.38856e-16 1.68486e-15)             (41.0933 -1.47165e-16 1.65466e-16)             (25.2863 1.81171e-17 1.76275e-16)             (21.2006 -1.03815e-16 3.07369e-16)             (44.5141 -1.23351e-16 3.31151e-16)
           49             (48.76 -3.33459e-16 -1.00673e-15)             (41.1571 1.72307e-16 1.44992e-16)             (25.0357 2.47999e-17 2.28904e-16)             (21.0352 1.09299e-16 1.65344e-16)             (44.4825 2.90617e-17 -3.65347e-16)
           50             (48.944 7.5955e-16 4.12818e-16)             (41.2237 2.25241e-17 1.56111e-16)             (24.7843 -6.51782e-17 2.28952e-17)             (20.8964 5.00424e-17 8.64477e-17)             (44.4444 -2.12562e-16 2.26678e-16)
           51             (49.1196 1.69294e-15 2.39889e-15)             (41.2912 -1.34627e-16 2.32528e-16)             (24.5409 -7.63448e-17 3.96332e-17)             (20.7852 -1.23133e-16 3.15923e-16)             (44.3975 -1.39888e-16 8.76851e-16)
           52             (49.2824 6.0514e-16 8.89981e-16)             (41.3594 -3.71654e-17 4.7181e-16)             (24.3053 1.31823e-16 2.99765e-16)             (20.7017 3.00464e-17 3.58292e-16)             (44.3431 -9.94269e-17 3.71544e-16)
           53             (49.4335 -3.5323e-17 -1.53025e-15)             (41.4285 -1.37432e-16 8.37977e-17)             (24.0772 2.81038e-17 2.21127e-16)             (20.6458 1.16171e-16 -1.6807e-17)             (44.2823 -8.50562e-17 -4.5395e-16)
           54             (49.571 -1.1966e-16 -1.5679e-15)             (41.4984 -2.17209e-16 1.85874e-16)             (23.8566 -6.24289e-17 3.75095e-17)             (20.6161 -9.38417e-18 5.73458e-18)             (44.2169 -1.00637e-17 2.95046e-18)
           55             (49.693 5.69332e-16 2.1228e-15)             (41.5691 2.06356e-17 3.16429e-16)             (23.6432 -4.59442e-17 1.08863e-16)             (20.6107 -9.24436e-17 3.58874e-16)             (44.1556 1.30196e-16 5.12629e-16)
           56             (49.7985 1.20614e-15 1.45158e-15)             (41.6406 1.73574e-16 2.82827e-16)             (23.4368 1.41762e-16 2.8098e-16)             (20.6265 1.73075e-17 1.97227e-16)             (44.1081 -2.33512e-16 -5.03066e-16)
           57             (49.8876 2.72347e-16 5.6427e-16)             (41.7129 -1.82083e-16 -2.7157e-17)             (23.2372 5.73626e-17 2.18615e-16)             (20.66 1.97391e-16 2.89954e-17)             (44.0713 -4.7459e-17 -8.22216e-17)
           58             (49.9611 -2.81102e-16 -1.08088e-15)             (41.7861 -3.53647e-17 2.07678e-16)             (23.0444 -1.30525e-16 -3.29728e-17)             (20.7074 -2.35768e-16 2.36267e-16)             (44.0403 2.51363e-16 1.09254e-16)
           59             (50.0205 4.59054e-16 -1.88718e-16)             (41.8601 1.56694e-16 1.95229e-16)             (22.8582 7.90564e-17 1.58155e-16)             (20.7652 5.64052e-17 2.5162e-16)             (44.0103 1.45549e-17 7.66774e-17)
           60             (50.0672 1.27957e-15 2.51952e-15)             (41.9348 -8.66192e-17 1.92968e-16)             (22.6785 5.77568e-17 2.32978e-16)             (20.83 1.30807e-16 1.06019e-16)             (43.9814 -1.52425e-16 4.05538e-16)
           61             (50.1032 6.83294e-16 3.61014e-16)             (42.0104 -7.92389e-17 2.32163e-16)             (22.5051 -9.76094e-17 4.43862e-17)             (20.8994 -1.77131e-16 2.33061e-16)             (43.9528 9.77283e-17 2.06791e-16)
           62             (50.1301 7.13503e-16 4.78839e-16)             (42.0867 1.30626e-16 1.55274e-16)             (22.3379 -5.18085e-17 7.23424e-17)             (20.9716 1.04746e-16 2.61903e-16)             (43.9244 -5.30053e-17 4.47779e-16)
           63             (50.1492 2.18904e-16 -9.87913e-17)             (42.1638 1.39898e-17 5.61096e-16)             (22.1767 1.98105e-16 1.64179e-16)             (21.0447 -7.72427e-17 1.411e-16)             (43.8966 -1.22025e-16 8.73532e-17)
           64             (50.1612 -4.59963e-16 -1.64182e-15)             (42.2416 -1.13751e-16 2.20581e-16)             (22.0216 -7.8075e-17 1.13423e-16)             (21.1181 5.98782e-18 4.06982e-17)             (43.8695 9.65675e-17 -7.56421e-17)
           65             (50.1677 -1.56297e-16 -1.00291e-15)             (42.32 -8.07687e-17 5.8602e-17)             (21.8723 -6.3894e-17 6.34118e-17)             (21.1914 1.08419e-16 4.53479e-17)             (43.8431 2.24172e-16 -8.72211e-17)
           66             (50.1694 2.65542e-16 6.42418e-16)             (42.3992 1.51159e-16 1.68012e-16)             (21.7289 1.42284e-16 5.11294e-17)             (21.2637 -1.106e-16 2.15443e-16)             (43.8176 -1.39752e-16 1.33211e-16)
           67             (50.1665 4.49377e-16 2.41083e-16)             (42.4789 -5.85987e-17 4.87466e-16)             (21.5913 -1.214e-16 8.45329e-17)             (21.3353 3.84661e-17 2.87025e-16)             (43.7932 1.06923e-16 5.28017e-16)
           68             (50.159 2.81446e-16 -3.05635e-16)             (42.5594 -2.53484e-17 2.79615e-16)             (21.4594 1.53041e-16 8.46334e-17)             (21.4064 -3.71571e-17 1.12731e-16)             (43.77 1.31732e-16 3.27825e-16)
           69             (50.1472 1.11862e-15 1.49071e-15)             (42.6404 4.14978e-17 2.53181e-17)             (21.3333 -6.83541e-18 1.14574e-16)             (21.4777 1.25963e-18 8.02885e-17)             (43.748 -1.90754e-16 -1.05802e-16)
           70             (50.1311 9.92295e-16 9.31127e-16)             (42.7221 3.60675e-17 4.10426e-16)             (21.2128 -3.48065e-17 8.59516e-17)             (21.5494 -1.32288e-17 2.51186e-16)             (43.7272 1.97515e-16 -1.84662e-17)
           71             (50.111 -1.61603e-16 -9.01305e-16)             (42.8044 -1.82492e-16 2.44043e-16)             (21.0981 6.12369e-17 4.87444e-17)             (21.6221 4.4128e-17 1.66052e-16)             (43.7077 3.46877e-16 4.62818e-16)
           72             (50.0873 8.713e-17 -8.17397e-17)             (42.8873 1.14228e-16 -1.91037e-16)             (20.989 1.11612e-17 6.29065e-17)             (21.6955 -4.40084e-17 -1.31293e-18)             (43.6893 -2.26856e-17 1.9051e-16)
           73             (50.0602 3.58095e-16 1.86177e-16)             (42.9707 1.40117e-16 1.98055e-16)             (20.8856 -2.59687e-17 1.25336e-16)             (21.7693 -5.29388e-17 1.59933e-16)             (43.6722 -8.72901e-17 1.67332e-16)
           74             (50.03 4.12219e-16 1.46342e-15)             (43.0548 -1.07125e-16 3.09646e-16)             (20.7879 4.77634e-17 7.7189e-17)             (21.8439 1.42356e-16 3.53291e-16)             (43.6562 -4.48146e-17 9.6447e-16)
           75             (49.9969 6.25161e-16 5.31631e-16)             (43.1394 -1.68688e-17 5.57303e-17)             (20.6959 3.76599e-17 9.41072e-17)             (21.9194 -7.39628e-17 2.23371e-16)             (43.6414 1.3182e-16 5.75755e-16)
           76             (49.9639 4.70627e-16 -5.26276e-16)             (43.2237 6.12636e-17 2.79289e-16)             (20.6102 3.48738e-17 1.3449e-16)             (21.9959 2.95006e-17 5.03723e-19)             (43.628 3.19684e-16 -9.17199e-17)
           77             (49.9281 3.1582e-17 5.36468e-16)             (43.3083 -2.03226e-17 -5.16334e-17)             (20.53 -3.54734e-17 -4.15254e-17)             (22.0736 6.19567e-17 1.81497e-16)             (43.6156 2.14996e-16 2.69621e-16)
           78             (49.89 4.22899e-16 4.56732e-16)             (43.3933 -6.34117e-17 4.48062e-16)             (20.4554 -2.5471e-17 -6.9662e-19)             (22.1526 -1.97285e-16 4.40345e-16)             (43.604 4.18708e-17 1.60858e-16)
           79             (49.8499 3.577e-16 -9.56292e-16)             (43.4786 1.20026e-16 2.48986e-16)             (20.3863 8.29629e-17 3.04533e-16)             (22.2327 7.4238e-17 5.35261e-17)             (43.5932 1.09213e-16 -3.58281e-17)
           80             (49.8082 4.26474e-16 8.52872e-17)             (43.5641 -1.38816e-16 5.69894e-17)             (20.3227 3.24573e-18 4.87301e-18)             (22.314 2.07911e-18 -1.071e-16)             (43.5831 -2.18949e-16 -5.77055e-17)
           81             (49.7626 5.26171e-16 1.03432e-15)             (43.6506 -5.79345e-17 9.59045e-17)             (20.2641 -8.4798e-17 -8.81722e-17)             (22.3959 -1.49581e-16 2.25255e-16)             (43.5736 -4.51496e-17 2.82262e-16)
           82             (49.7163 7.40309e-16 1.58111e-15)             (43.7372 1.01634e-16 4.44361e-16)             (20.2111 5.58561e-17 1.74856e-16)             (22.4784 7.36458e-17 4.70038e-16)             (43.5648 -2.05499e-17 7.29405e-16)
           83             (49.6693 6.62997e-16 6.84893e-16)             (43.8238 -7.68616e-17 3.53701e-16)             (20.1634 1.39797e-16 2.37923e-16)             (22.5616 -4.56666e-17 2.38018e-16)             (43.5566 1.06504e-16 5.59204e-16)
           84             (49.6214 2.61972e-16 -2.91648e-16)             (43.9103 2.73273e-16 -1.68908e-16)             (20.121 -5.56881e-17 -1.14907e-16)             (22.6454 -8.46762e-17 3.34775e-17)             (43.5489 3.16249e-16 -8.30376e-16)
           85             (49.5728 3.07661e-16 5.3517e-16)             (43.9966 1.00411e-17 4.10182e-16)             (20.0837 -2.29735e-17 2.96065e-17)             (22.7298 -2.53173e-17 8.95333e-17)             (43.5418 2.81357e-16 -4.87073e-16)
           86             (49.5237 9.04595e-16 2.37101e-15)             (44.0825 -2.0414e-16 4.48587e-16)             (20.0514 9.01494e-17 1.65662e-16)             (22.8148 2.54309e-18 5.06228e-16)             (43.5352 -2.46177e-16 6.38234e-16)
           87             (49.474 1.06883e-15 1.74291e-15)             (44.1677 2.83407e-16 -2.3293e-16)             (20.0238 3.43173e-17 1.1564e-16)             (22.9003 5.1233e-17 4.25198e-16)             (43.5291 -2.75915e-16 2.14367e-16)
           88             (49.424 6.92863e-16 -1.25004e-16)             (44.2522 1.15481e-16 3.50868e-16)             (20.0009 -6.51179e-17 -1.23681e-17)             (22.9861 -1.67829e-17 8.28193e-17)             (43.5233 2.33537e-16 -1.18388e-16)
           89             (49.3736 -1.56339e-16 -1.01058e-15)             (44.3357 -1.67758e-16 1.59842e-16)             (19.9824 5.652e-17 -1.09567e-17)             (23.0723 -8.82808e-17 4.94263e-17)             (43.518 -2.76215e-16 -2.22858e-16)
           90             (49.323 -9.12965e-17 -9.36762e-16)             (44.4178 5.72839e-17 -1.05956e-17)             (19.9681 -4.17061e-17 2.76398e-17)             (23.1586 -8.20926e-17 2.56827e-16)             (43.513 -1.3545e-16 -1.18284e-16)
           91             (49.2723 5.21171e-16 4.10899e-16)             (44.4986 1.22636e-16 4.57492e-16)             (19.9578 -1.33864e-17 5.61928e-17)             (23.245 7.46404e-17 3.47225e-16)             (43.5083 1.4723e-16 2.49591e-16)
           92             (49.2214 9.19137e-16 1.73375e-15)             (44.5782 1.11478e-16 2.59645e-16)             (19.9511 1.21536e-16 6.0005e-17)             (23.3314 -2.31533e-17 2.51948e-16)             (43.504 1.97025e-16 6.96985e-16)
           93             (49.1706 1.37507e-15 2.81627e-15)             (44.6569 -2.56538e-16 4.66356e-16)             (19.9478 2.23852e-17 1.26561e-16)             (23.4176 -9.47476e-17 2.38768e-16)             (43.5 -9.84878e-17 6.41491e-16)
           94             (49.1198 4.39784e-16 -3.18185e-16)             (44.7345 1.52481e-16 1.82475e-16)             (19.9478 5.69222e-17 5.49984e-18)             (23.5035 -6.04481e-17 1.84257e-16)             (43.4962 6.57885e-17 -4.32884e-16)
           95             (49.0703 -1.04902e-15 -2.6351e-15)             (44.8104 1.43797e-17 1.01047e-16)             (19.9507 -1.76252e-17 -7.54835e-17)             (23.5891 1.44295e-16 -1.34287e-16)             (43.4925 1.98859e-16 -7.54037e-16)
           96             (49.0211 7.97589e-18 1.13372e-16)             (44.8851 -1.09493e-16 1.78883e-16)             (19.9562 -9.27033e-17 8.76368e-17)             (23.6744 -1.18561e-16 8.23882e-17)             (43.489 -5.43332e-17 7.3793e-16)
           97             (48.9722 1.41761e-15 1.65355e-15)             (44.9586 8.01061e-17 4.32056e-16)             (19.9641 1.38341e-16 2.3044e-16)             (23.7594 -2.47571e-16 3.75853e-16)             (43.4858 -7.55963e-17 1.01598e-15)
           98             (48.9237 -1.42374e-16 -9.32224e-16)             (45.0306 7.27017e-17 3.84854e-16)             (19.9742 8.19572e-17 3.67747e-17)             (23.844 3.16296e-16 -1.82014e-17)             (43.4828 -5.2206e-17 1.1505e-16)
           99             (48.8755 -1.02447e-15 -2.3867e-15)             (45.1012 -1.80385e-16 3.48228e-16)             (19.9862 1.85601e-18 -1.59533e-17)             (23.9282 -8.6461e-17 -2.35739e-16)             (43.4801 1.52782e-17 -7.04387e-16)
          100             (48.8277 -2.98303e-16 -8.57022e-16)             (45.1702 -2.79131e-18 8.21114e-17)             (19.9998 -7.70387e-17 7.00689e-17)             (24.0119 -2.13483e-16 2.09095e-16)             (43.4776 2.01488e-16 -8.31293e-17)
          101             (48.7802 6.75568e-16 1.079e-15)             (45.2377 -6.66443e-17 2.12438e-16)             (20.0148 1.87471e-16 6.86338e-17)             (24.0952 9.85015e-18 2.34057e-16)             (43.4754 1.5249e-16 5.00911e-17)
          102             (48.7332 1.26707e-15 2.75879e-15)             (45.3035 2.1963e-17 2.45837e-16)             (20.031 -5.33084e-17 -2.80893e-17)             (24.178 2.16323e-16 1.33722e-16)             (43.4734 5.86531e-17 5.24327e-16)
          103             (48.6865 9.85716e-16 1.75933e-15)             (45.3675 1.59922e-16 3.97167e-16)             (20.0483 4.92855e-17 1.45418e-16)             (24.2603 -3.60086e-16 2.7032e-16)             (43.4716 1.73505e-16 2.6838e-16)
          104             (48.6402 7.28563e-17 -3.82788e-16)             (45.4297 -2.01892e-17 1.72161e-16)             (20.0663 7.52068e-17 2.49107e-16)             (24.3421 1.43545e-16 1.57911e-16)             (43.4701 1.30885e-17 2.50025e-17)
          105             (48.5943 9.79881e-17 -7.92412e-16)             (45.4901 6.73085e-17 3.29243e-16)             (20.085 3.02925e-17 -7.09176e-17)             (24.4232 1.59311e-16 2.33733e-17)             (43.4688 1.72019e-16 -1.14373e-16)
          106             (48.5488 3.49221e-16 -9.7257e-16)             (45.5485 -1.6658e-16 4.53934e-16)             (20.1042 -3.42862e-17 -1.10715e-16)             (24.5038 -1.90286e-16 8.58416e-17)             (43.4677 2.06032e-16 4.14222e-17)
          107             (48.5038 -2.35393e-16 -1.12012e-15)             (45.6049 -1.50091e-16 1.9739e-16)             (20.1238 1.07882e-17 1.48485e-16)             (24.5837 2.67351e-17 7.05041e-17)             (43.4668 1.17076e-16 1.6248e-16)
          108             (48.4592 4.55754e-16 1.1757e-15)             (45.6593 1.09994e-17 1.56298e-18)             (20.1436 3.84468e-17 1.27825e-16)             (24.663 5.47172e-17 1.73063e-16)             (43.466 -2.62874e-17 4.46852e-16)
          109             (48.415 9.97162e-16 9.85632e-16)             (45.7116 -1.74003e-16 7.00936e-16)             (20.1636 1.35434e-16 1.39399e-17)             (24.7416 -3.15331e-16 2.97932e-16)             (43.4655 3.57544e-16 3.19252e-16)
          110             (48.3712 1.54233e-16 -4.13022e-16)             (45.7618 -2.39287e-17 -7.16399e-17)             (20.1837 -5.22016e-17 7.73732e-17)             (24.8195 1.91937e-16 2.40716e-17)             (43.4652 1.47969e-16 -5.57946e-16)
          111             (48.3279 3.00543e-16 2.08837e-15)             (45.8098 4.49596e-17 3.89481e-16)             (20.2038 -8.21921e-17 -2.38392e-17)             (24.8967 2.71964e-17 2.01441e-16)             (43.465 7.18336e-17 1.36709e-15)
          112             (48.2851 6.64797e-16 9.25212e-16)             (45.8556 6.6489e-17 6.95697e-16)             (20.2238 2.33163e-16 1.59743e-16)             (24.9732 -4.14143e-16 4.09788e-16)             (43.465 -1.00909e-16 9.85206e-16)
          113             (48.2428 -3.92453e-17 -1.03893e-15)             (45.8992 5.65717e-17 -2.65897e-16)             (20.2437 -5.21343e-17 7.1522e-17)             (25.049 3.24607e-16 5.43051e-17)             (43.4652 -1.85481e-18 -5.89497e-17)
          114             (48.2011 -7.04792e-16 -1.58848e-15)             (45.9406 -1.81335e-16 4.03357e-16)             (20.2634 -1.08031e-16 -1.35224e-16)             (25.124 -6.91697e-17 -1.52317e-16)             (43.4655 2.24122e-16 -3.32406e-16)
          115             (48.1601 -3.30017e-16 -8.6904e-16)             (45.9797 -1.38048e-16 4.19809e-16)             (20.283 1.09479e-16 7.12984e-17)             (25.1983 -3.49091e-16 2.58605e-16)             (43.4661 5.33401e-17 2.31569e-16)
          116             (48.1197 3.26383e-16 -8.13122e-16)             (46.0166 1.88321e-16 1.15526e-16)             (20.3024 1.61846e-16 2.26313e-16)             (25.2718 1.93487e-16 2.80956e-16)             (43.4667 2.41343e-16 5.70025e-16)
          117             (48.0798 6.55253e-16 9.27697e-16)             (46.0512 4.31458e-17 3.22181e-16)             (20.3216 -5.45427e-18 -7.3121e-18)             (25.3445 8.21676e-17 -8.44756e-17)             (43.4676 6.13591e-17 4.80255e-16)
          118             (48.0405 2.74957e-16 7.06011e-16)             (46.0836 -7.65236e-17 2.47247e-16)             (20.3405 1.87736e-17 -2.07134e-17)             (25.4165 -3.24922e-16 1.2519e-16)             (43.4686 -1.7015e-16 -2.96314e-16)
          119             (48.0018 6.5947e-16 1.29654e-15)             (46.1138 1.09012e-16 3.13618e-16)             (20.3593 5.46164e-17 1.24661e-16)             (25.4876 2.31342e-16 2.49902e-16)             (43.4698 3.2557e-17 -4.91798e-16)
          120             (47.9637 7.26588e-16 1.30868e-15)             (46.1417 -1.68198e-16 3.31218e-16)             (20.3778 -6.50472e-17 2.70647e-17)             (25.558 5.0941e-17 1.76604e-16)             (43.4712 2.06629e-16 7.07367e-16)