/*--------------------------------*- C++ -*----------------------------------*\
  =========                 |
  \\      /  F ield         | OpenFOAM: The Open Source CFD Toolbox
   \\    /   O peration     | Website:  https://openfoam.org
    \\  /    A nd           | Version:  7
     \\/     M anipulation  |
\*---------------------------------------------------------------------------*/
FoamFile
{
    version     2.0;
    format      ascii;
    class       volScalarField;
    location    "20000";
    object      Cz;
}
// * * * * * * * * * * * * * * * * * * * * * * * * * * * * * * * * * * * * * //

dimensions      [0 1 0 0 0 0 0];

internalField   nonuniform List<scalar> 
15600
(
-2.59095232924867e-18
2.49457880269694e-18
9.63401330111219e-20
2.6854279933314e-18
-9.6111605372365e-20
-2.68381185656268e-18
-2.59440954724168e-18
0
1.90732885154432e-19
-2.69668716528361e-18
2.57776354234219e-18
0
7.57478820523565e-18
4.96894410066865e-18
2.56393459917351e-18
-7.01139800377028e-18
-9.51706510180521e-20
0
4.29681378180811e-18
0
-1.98774009143315e-18
0
0
-1.94248337982766e-18
3.51709760923502e-18
9.02973301315383e-18
-1.26762312049168e-15
-1.26289226980799e-15
-1.5571010398985e-18
6.64997417732409e-18
6.50055273234969e-18
0
0
-5.98149842407308e-18
8.83171259543208e-18
-4.23454119966474e-18
5.73795370867357e-18
0
2.21241493318185e-16
2.19993743409232e-16
-9.61653092629666e-20
-2.80604995429861e-18
0
0
0
0
-2.33871457205741e-16
-2.43528545826936e-16
0
0
0
0
-2.36558783061539e-16
-2.32816781759964e-16
5.56739876470068e-18
-9.63735265517995e-20
-8.0619775673963e-18
0
0
0
-2.6873258557988e-18
0
9.63735265518062e-20
5.37465171159751e-18
9.63735265518028e-20
5.37465171159697e-18
9.63735265518032e-20
-5.47102523814918e-18
0
-9.63735265518018e-20
2.68732585579881e-18
-2.68732585579873e-18
2.28593179020692e-16
4.7214275749306e-16
2.32705817431319e-16
2.78366486360803e-18
2.68900354909364e-18
-2.79305284248196e-18
-2.61371574740089e-18
2.16602181311233e-16
2.13961976726637e-16
0
0
9.67857314485456e-20
-2.9202260443459e-18
5.95451311439258e-18
-2.94325278480241e-18
9.69968956103237e-20
3.08209042334303e-18
0
-9.71303588050616e-20
1.75009061411167e-18
0
8.74596964381977e-18
0
1.80653840841918e-18
-2.0419104346157e-18
1.40082104848959e-15
1.39107270445997e-15
-1.89068449850657e-18
-2.04238433483131e-18
2.19864818202039e-18
0
-4.37096750845196e-18
7.01525387003797e-18
0
0
5.08484700461122e-18
2.54117128838005e-18
9.75937796832286e-20
2.69909968615513e-18
-5.22062606601332e-18
-5.30954212693142e-18
-9.69946024576809e-20
0
-9.66343465074726e-20
-5.37142292602049e-18
0
0
-5.37465171160114e-18
0
-1.92755999670059e-19
5.38435467420152e-18
0
2.68874872362011e-18
-1.92327284104756e-19
-2.50295550395576e-18
2.51409643633086e-18
1.9173776062515e-19
-1.91605470052853e-19
4.97212807924978e-18
2.45035652766996e-18
0
-2.54140384753175e-18
-4.57808537060729e-18
0
-2.1541506254066e-18
-1.89580544485601e-18
-3.83269231527002e-19
3.93868063722534e-18
1.72530725162651e-18
-3.73704832813376e-18
-1.82343306985645e-18
-9.29060452168895e-18
0
1.91857194267114e-19
1.24474952209986e-15
1.18362177029334e-15
1.9194624162872e-19
0
0
1.67834577741317e-18
0
0
-2.77833347857928e-18
0
1.92339266267979e-19
3.0174900511644e-18
-2.09729593691691e-16
-2.11243253228019e-16
-5.46672774518061e-18
0
0
-5.58099187674453e-18
2.88534510180622e-18
-1.92755999670063e-19
2.31545164195748e-16
2.29587156000674e-16
0
0
1.92755999670066e-19
2.69266111308083e-18
2.26352597969254e-16
2.22278765210464e-16
0
2.49990511341086e-18
2.88541711275109e-18
-2.49990511341075e-18
0
2.69266111308081e-18
0
-2.88541711275088e-18
2.88541711275108e-18
-2.69266111308084e-18
-2.49990511341085e-18
-2.88541711275098e-18
-5.38532222616173e-18
1.92755999670064e-19
0
-5.19256622649124e-18
8.07798333924251e-18
-1.92755999670065e-19
-2.23659936856195e-16
-4.49198803001277e-16
-2.22842217154614e-16
2.49985409087982e-18
-5.58138302553425e-18
-2.89444411698252e-18
-2.521844577288e-18
-2.08537938583897e-16
-2.10394022560313e-16
2.78960729874044e-18
1.93113466395139e-19
1.93163927877151e-19
5.79644790469383e-19
0
-1.61294549125288e-18
-1.45227421933681e-18
0
-1.9345961768815e-19
3.30882592791328e-18
3.18855298871554e-18
-1.63125214976731e-18
3.33663488041743e-18
7.01437656262421e-18
1.54870832833813e-18
0
-1.31544228603748e-15
-1.38391520937008e-15
0
-6.1028622263435e-18
6.27287611589914e-18
-1.70004077487614e-18
1.96066071839782e-18
7.05875620538111e-18
2.28945380010777e-18
2.54438971356572e-18
-2.59869117045712e-18
2.25662923281008e-18
-7.84675903523845e-18
5.0184547605662e-18
2.51785254072515e-18
0
3.86745492039139e-19
0
1.93015998283238e-19
0
0
-2.49990511340864e-18
8.07798333923523e-18
0
0
-5.20872349235537e-18
-4.82080063977884e-18
0
0
-2.60686146658707e-18
0
0
-2.61159340674192e-18
-1.91513801338886e-19
2.55449144858194e-18
-2.31854701818484e-18
0
-4.60607462966397e-18
-6.81438147739598e-18
-3.96308174965622e-18
0
3.90757490271095e-18
-1.89922760649956e-18
0
0
-7.22617397821349e-18
0
3.55222130945474e-18
1.83623107176648e-18
-5.21025384279579e-18
-1.91912090600806e-19
1.72942175045954e-18
1.91984229565046e-19
3.12705209754888e-18
0
0
0
-8.42524028869043e-18
0
5.3543789049144e-18
-1.92392176055238e-19
0
0
-4.90299277931239e-18
-1.92598101284524e-19
1.92648890892899e-19
0
2.79751940287667e-18
-2.79758823183159e-18
-4.8241511461031e-18
-2.6048319024414e-18
0
-5.20966380488285e-18
0
0
0
-1.92756329390094e-19
0
-5.20966380488283e-18
0
-2.6048319024414e-18
1.92756329390102e-19
0
-2.60483190244141e-18
2.6048319024416e-18
-1.92756329390089e-19
-5.01690747549272e-18
2.60483190244145e-18
5.2096638048828e-18
0
-2.79758823183179e-18
0
5.40242013427297e-18
0
0
7.42898304854409e-18
1.92756329390103e-19
0
1.92766238216586e-19
5.2128074926422e-18
5.03400922840772e-18
2.62613419014159e-18
-1.92963912691346e-19
0
-2.31211045009526e-18
-2.73337329503928e-18
2.77444725763059e-18
-1.93215078854243e-19
0
5.47785673225125e-18
-1.40090672260203e-18
8.99000028422038e-18
0
-3.19834933615497e-18
6.3443439074457e-18
0
-3.41171112648739e-18
0
3.55450199315529e-18
3.43665473304555e-18
3.51773623229882e-18
-1.80235183305797e-18
0
7.79204944476073e-18
1.93834203122133e-19
-4.41452482788074e-18
1.93932244674462e-19
-1.93981196307786e-19
6.81714946171013e-18
-4.5329046881286e-18
2.51290357026404e-18
7.47793899862456e-18
-3.87915784950339e-19
-1.93872516023946e-19
-2.42865949028461e-18
-1.93578670656722e-19
2.60803537751253e-18
-4.81788118976954e-18
-2.79453551150956e-18
2.60330492587545e-18
2.60443416082457e-18
-5.01690747549197e-18
2.60483190244063e-18
0
0
-1.92723217048242e-19
-4.84405542802776e-18
5.03267258684323e-18
1.92327638842372e-19
2.32962884989587e-18
0
2.34262928777843e-18
1.91605325017356e-19
-2.3122729561946e-18
-2.27879713956714e-18
-7.09027205051334e-18
-1.99373705613771e-18
-4.25695127479976e-18
-1.07192395538211e-17
-2.38624292998152e-18
-1.91585763610838e-19
0
0
-7.32372795323381e-18
-6.9517935769714e-18
0
-1.91810480642763e-19
-8.4860207646944e-18
1.96965025110387e-18
8.14212756650512e-18
-4.55170249374949e-18
6.12358198159773e-18
0
-1.92026184675286e-19
5.9157160511946e-18
-2.70228886691459e-18
-1.92175763350033e-19
0
0
-2.87475899420523e-18
0
-1.92444495074819e-19
0
4.92321224746546e-18
2.1550424118645e-18
-5.05625860614198e-18
4.85028282724072e-18
0
0
5.04021336012229e-18
5.04021336012193e-18
0
0
0
-2.87377781243037e-16
-2.89211376906658e-16
0
-2.52010668006098e-18
0
2.52010668006097e-18
-2.52010668006097e-18
0
4.84745668878478e-18
1.92756671336874e-19
0
0
0
-4.84745668878507e-18
0
-4.84745668878507e-18
2.87377781243038e-16
2.91538726915369e-16
4.84745668878509e-18
0
-5.040213360122e-18
0
-7.36756336884648e-18
0
-7.36744865060216e-18
-2.52162836705012e-18
0
2.34772783344216e-18
0
-4.77686396008226e-18
7.63722742263536e-18
-2.45082485829637e-18
0
0
0
-5.67093614792037e-18
1.93369428447457e-19
0
6.04977729290319e-18
0
-3.35332368555672e-18
0
6.59475983498583e-18
9.90417574338545e-18
3.24139764351591e-18
3.87328603455502e-19
-1.93690871954645e-19
1.54450709480109e-18
-1.97705759786951e-18
7.52146057313267e-18
-3.96289362027886e-18
0
2.00359052339359e-18
2.06765935500732e-18
6.580588171817e-18
-6.94461438310637e-18
-2.04208394248497e-18
0
5.20682355365702e-18
0
7.22160270458509e-18
-2.33956843031939e-18
-1.93373165325992e-19
-4.64837475069805e-18
-2.32384725958951e-18
-1.92889890628433e-19
-1.92789532357262e-19
0
0
2.34200223862622e-18
0
4.68313926510503e-18
-4.87329644192805e-18
-1.92493915202942e-19
2.43474579742545e-18
4.49506371882783e-18
0
0
-2.44273061271684e-18
-6.68986918210145e-18
6.59261357878138e-18
2.15598507315671e-18
-2.10710122350382e-18
-2.43531300553291e-18
1.80192969971195e-18
-8.30128141788317e-18
5.61590010787982e-18
0
-3.83355650397695e-19
-3.82247974568659e-18
-5.22005425891549e-18
5.09894323279944e-18
0
-1.75469256701296e-18
0
0
0
-6.48886650120121e-18
2.79506036495726e-18
-1.92026096767786e-19
0
0
0
0
0
2.59469355801743e-18
1.92392505735345e-19
-2.3318283061853e-18
0
-4.94952243340771e-18
0
0
4.87942578556691e-18
-1.92747357258482e-19
4.49123747848399e-18
4.87675153042322e-18
-2.43837576521162e-18
-2.24561873924234e-18
0
-7.3151272956348e-18
2.72693292269357e-16
2.7401289723155e-16
-1.9275702596945e-19
0
0
-2.63113279118107e-18
-2.24561873924234e-18
7.12237026966489e-18
-7.12237026966496e-18
2.24561873924217e-18
0
0
0
0
2.43837576521163e-18
0
-2.72693292269343e-16
-2.71960035518273e-16
0
0
0
2.43837576521167e-18
0
2.43837576521165e-18
-7.31503127898673e-18
9.37376791573467e-18
0
0
7.23295854861847e-18
0
-1.93064237072671e-19
0
-1.93164562396713e-19
-1.93215392863439e-19
1.93266851707247e-19
0
1.93369351330264e-19
5.52989190466897e-18
2.73107795645945e-18
-1.20423783801507e-18
-1.43048108109147e-18
0
1.49674732494571e-18
0
1.75671852347773e-18
0
-1.63597128034737e-18
-1.8700902486162e-18
-1.93753558348221e-19
-5.68756491932828e-18
3.63471663969101e-18
-3.5507919638425e-18
-1.93930252018236e-19
-1.93979031098546e-19
-4.29959696911881e-18
2.10744040794601e-18
-6.66289060810214e-18
0
-2.6180659065744e-18
-2.25125447051332e-18
1.93747210644696e-19
2.450485747815e-18
2.24746819698631e-18
2.24242932046179e-18
1.9301706695093e-19
7.11790070443477e-18
1.92789892981973e-19
0
-4.68399450445959e-18
9.63838671653583e-20
0
-2.3591012206255e-18
2.16522191717535e-18
0
-4.71175417151707e-18
0
6.72342679700798e-18
6.92214836164586e-18
0
0
8.85951761643241e-18
0
-1.91427094144064e-19
-1.78761426737129e-18
2.11365609632633e-18
-5.77960586519599e-18
1.99675913737901e-18
-1.56059090593751e-18
-5.30190795377753e-18
1.91716730269987e-19
1.80819070433725e-18
-3.53860300384083e-18
1.73303208017175e-18
1.89095067324541e-18
2.95036773974806e-18
-1.91881898851498e-19
-6.2211805478392e-18
-1.9194576439744e-19
-1.91983908098897e-19
0
2.76545185453622e-18
-5.60535270169867e-18
0
-2.79080856459155e-18
-2.5514466855015e-18
0
0
-4.69207234111063e-18
2.41579625571417e-18
0
-2.37821873543701e-18
4.73396979510174e-18
0
0
0
2.16677595968967e-18
0
2.35953335345453e-18
2.35953335345436e-18
0
1.92757393764538e-19
0
0
-1.92757393764541e-19
0
0
4.71906670690903e-18
0
1.92757393764534e-19
2.16677595968985e-18
0
0
-1.92757393764545e-19
1.92757393764536e-19
0
0
-2.16677595968979e-18
0
1.92757393764544e-19
-2.16677595968984e-18
-4.71906670690902e-18
0
6.88584266659796e-18
1.92757393764545e-19
0
0
1.92865018642379e-19
2.18570049153514e-18
2.39512189087796e-18
-4.83294810754988e-18
4.69303653025857e-18
0
2.31796326883465e-18
2.74589012476422e-18
-5.19983034247202e-18
-2.65204868976288e-18
0
0
0
0
-1.93533727152643e-19
4.23471941961332e-18
-2.88710214337064e-18
-1.93618225662186e-19
0
-6.35945620705966e-18
0
0
-1.46481304615569e-18
0
-5.45151363556635e-18
5.61046443102709e-18
-8.03407986080234e-18
7.88417924558971e-18
2.17342682408102e-18
-2.22615554517742e-18
2.07927872427628e-18
6.55219839024292e-18
0
2.17126851707516e-18
-2.17955060048881e-18
-2.17716678095077e-18
-6.69820120937445e-18
0
0
0
0
1.92757393764533e-19
-4.52630931314113e-18
0
-4.37419698412472e-18
0
4.56365248340539e-18
0
-1.89513916937799e-18
2.09193902141978e-18
1.91914773351002e-19
2.294055646841e-18
2.09398717107933e-18
-2.26546173735956e-18
0
-7.82741745132171e-18
-6.0688933630381e-18
-6.10775394685601e-18
3.82960992615948e-19
-1.98768100124229e-18
-6.96296558310964e-18
4.8775557641193e-18
3.47706981726494e-18
0
1.5588859320243e-18
-1.71315698908529e-18
1.48638785944517e-18
6.0065129923753e-18
3.03730767419666e-18
-5.95191598009212e-18
-1.91911556068333e-19
5.51398232652101e-18
-8.37669889441077e-18
-2.73254323608105e-18
2.86638965816818e-18
0
-2.56370546660006e-18
0
0
0
4.40164469318659e-18
-1.92445136976474e-19
2.53015946124761e-18
0
-4.21775588403717e-18
4.77396706354663e-18
0
1.08389050612792e-17
2.2834773796708e-18
0
0
0
2.09071960445354e-18
4.56695475934143e-18
-4.37419698412412e-18
0
-1.92757775217249e-19
0
-1.92757775217249e-19
-2.09071960445328e-18
2.28347737967081e-18
0
0
2.28347737967075e-18
2.28347737967058e-18
-1.92757775217247e-19
-2.28347737967067e-18
-6.65767436379477e-18
-4.56695475934131e-18
0
6.65767436379466e-18
2.28347737967068e-18
-4.37419698412416e-18
0
4.5669547593413e-18
-1.92757775217249e-19
0
-4.18143920890704e-18
0
-1.92814967025215e-19
0
0
1.92965382393887e-19
2.33833450854308e-18
-2.36392831415415e-18
4.59519747003677e-18
7.28845284629881e-18
-2.27627417801785e-18
-1.93267038420875e-19
2.56517115983952e-18
3.86738377070561e-19
0
0
-2.79412897706493e-18
0
0
0
4.26876720666028e-18
-9.11052424851688e-18
0
0
-3.1182719552693e-18
3.58647166073385e-18
-1.44919689270673e-18
1.8838840092926e-18
-1.74108350116241e-18
1.60258896679877e-18
-5.7554357709001e-18
4.20528385323923e-18
1.76544131260995e-18
-2.19902165460092e-18
0
-4.148265573768e-18
0
-1.93746697643934e-19
-4.39406755184623e-18
6.66239403838549e-18
-1.93180435255582e-19
0
-1.92891050008384e-19
-1.92790654887056e-19
0
4.56695475934218e-18
2.11373585931368e-18
2.2101093859372e-18
0
-1.92623478383203e-19
0
-4.22047734401596e-18
2.21037036356206e-18
0
-1.54344588260024e-15
-1.53299989733517e-15
2.00005475879279e-18
1.97059009150611e-18
5.79918469329658e-18
1.91426901060766e-19
1.91444580809265e-19
-9.12733341925598e-18
-1.22934444930498e-15
-1.221520008439e-15
0
1.96748281678199e-18
1.73394712311878e-18
-1.31161554429164e-18
0
1.24168187739865e-18
1.40195232608644e-18
0
0
0
-1.91945499024343e-19
5.39991939340256e-18
-1.92025813375528e-19
-2.39433228671751e-18
1.92121865546099e-19
-2.2877342817401e-18
-7.10293169504278e-18
2.3880387918949e-18
1.92340044137248e-19
-6.56254393490516e-18
2.28682267233344e-18
-4.52458031777545e-18
0
4.26229633398622e-18
0
1.92701405985893e-19
2.2100645452761e-18
0
1.70048995737913e-16
1.71057678114483e-16
0
0
0
-2.21010938593586e-18
2.21010938593586e-18
0
-1.92758170841777e-19
1.92758170841772e-19
0
4.42021877187195e-18
0
-1.9275817084177e-19
4.22746060103033e-18
0
-4.22746060103024e-18
-8.64767937290082e-18
0
2.01735121509409e-18
-4.42021877187172e-18
-1.92758170841774e-19
-2.21010938593585e-18
1.92758170841774e-19
-2.01735121509408e-18
1.92758170841775e-19
1.92758170841771e-19
0
0
2.21008557229843e-18
4.61571056804472e-18
1.92865841179938e-19
0
-6.34352350801535e-18
0
7.05587213888991e-18
-2.12359442281289e-18
0
0
0
-7.25077217512688e-18
0
-2.39467652707038e-18
-2.83772073735334e-18
-2.70184137021527e-18
-2.56688945946403e-18
5.63927375565541e-18
1.9359298520867e-19
-2.5510047796766e-18
-4.20644875425431e-18
1.43370202210587e-18
-2.93487822091332e-18
1.9371802892371e-19
-4.82122058767953e-18
3.16881499267377e-18
-1.93829889466399e-19
-1.48504008691351e-18
5.19694098658934e-18
-3.96298807331742e-18
2.2283693292991e-18
0
-1.93333284765339e-18
8.2712911723659e-18
-4.00046703406626e-18
0
0
-2.219619100938e-18
-2.01818803867329e-18
2.207267119734e-18
-1.93018258905551e-19
0
0
-4.4202187718747e-18
0
0
0
-2.1389363695602e-18
-6.02801515353072e-18
-6.02263915382591e-18
0
3.89429775275446e-18
-8.20166336589276e-18
1.50781306556142e-15
1.46669882653484e-15
0
1.90022443287656e-18
-1.91429962504473e-19
-7.66879020032453e-18
-3.54832615831024e-18
-2.10618640467556e-18
1.2195765896266e-15
1.1541754082051e-15
8.04807511765864e-18
3.05526004270696e-18
-1.9171626310382e-19
5.99099104428125e-18
-7.458406500398e-18
-5.52986052525734e-18
0
-2.83846688130752e-18
5.56294809696964e-18
0
0
9.31685311048354e-16
9.47649281227801e-16
-5.00319465846766e-18
0
-4.41380013379727e-18
0
0
0
-4.48214963905372e-18
-8.66035390126453e-18
0
2.4174718523219e-16
2.4705200143587e-16
1.92650965705016e-19
1.92701803655812e-19
0
-1.92758581172207e-19
-1.6833133281196e-16
-1.6485141398021e-16
-4.08591020694935e-18
0
-2.13933439406094e-18
-2.13933439406065e-18
1.94657581288859e-18
2.13933439406082e-18
0
-1.9465758128886e-18
0
0
2.1393343940607e-18
-4.08591020694907e-18
-2.13933439406093e-18
-1.94657581288847e-18
0
0
0
0
2.13933439406081e-18
0
0
-1.92758581172212e-19
-1.94657581288845e-18
0
4.08591020694967e-18
4.27866878812136e-18
3.22265600608986e-16
3.1890680703959e-16
1.92815807629904e-19
0
-1.69950433106541e-16
-1.65264134284787e-16
1.93015911299727e-19
-4.23488180331684e-18
4.4839998040279e-18
2.08158497476285e-18
-1.93216093265793e-19
0
2.40051794293846e-18
-2.45067789500267e-18
0
1.93457857475794e-19
2.61281515309957e-18
2.66924298076542e-18
0
2.5899578607495e-18
0
0
0
-2.83036994783389e-18
-3.0938014889023e-18
-1.68126064491051e-18
-3.44337360458339e-18
0
-1.81282091623556e-18
1.67037969305123e-18
-1.93974216145049e-19
-3.54896213104506e-18
0
7.65084975581148e-18
0
-1.9395317244982e-19
-2.14174441156807e-18
-1.9374614660016e-19
-1.93578771863882e-19
-1.93374356495243e-19
0
1.93018686064305e-19
4.2760705212801e-18
1.92791474454005e-19
-3.89315162577222e-18
0
0
1.87830177587706e-18
-3.94862116273273e-18
0
0
0
0
-2.26923456795343e-18
2.07833164554336e-18
-7.89720268388292e-18
2.05152356400952e-18
2.02380309061616e-18
3.78596884561197e-18
-3.32112649429317e-18
5.32334996991605e-18
7.02912679587111e-18
5.02245118070696e-18
-6.43474540065285e-18
0
2.94625777955385e-18
-3.06018267481141e-18
-2.98804292162407e-18
-2.9209199985221e-18
9.64304775226428e-16
9.69572689447359e-16
-2.74428539016529e-18
0
-4.88463315274186e-18
0
-9.31049976130976e-16
-8.90044562662799e-16
0
0
0
0
4.47195228237827e-18
-2.00809222659223e-18
6.31464534950187e-18
1.9244585282218e-19
4.04638721181659e-18
-2.3321327716314e-16
-2.3422119814127e-16
0
-1.8794818803969e-18
0
0
1.92759006763359e-19
0
1.87830177587661e-18
0
6.02042334115699e-18
0
-4.14212156528019e-18
0
-1.9275900676336e-19
-5.82766433439312e-18
2.07106078264023e-18
3.94936255851656e-18
0
0
0
-2.26381978940333e-18
1.68554276911323e-18
-1.87830177587685e-18
2.07106078263996e-18
0
1.92759006763354e-19
0
-1.92759006763364e-19
0
6.02042334115696e-18
-1.92759006763363e-19
2.07106078264007e-18
3.94936255851688e-18
-3.13344561009888e-16
-3.15583088832177e-16
2.26513296847725e-18
-1.92866725995e-19
1.59073143784817e-16
1.66641365459668e-16
0
0
-4.14674528092865e-18
0
1.93216284775858e-19
0
0
2.37081525582501e-18
2.22803484644399e-18
0
1.93496553404663e-19
0
0
5.18924542386158e-18
-2.55278172495896e-18
0
5.33374857238896e-18
2.9232421838547e-18
0
-1.62822338664726e-18
0
-1.93827939330491e-19
-1.9387382079911e-19
3.22126999196026e-18
4.98559362618711e-18
-1.71094170210745e-18
3.51311965111354e-18
-3.59504477862448e-18
0
-1.86017824259368e-18
-1.8786108405219e-18
0
-2.07898510574616e-18
-2.07189533537727e-18
1.93181580652924e-19
0
2.06979501385802e-18
2.07074473012253e-18
-1.92759006763378e-19
2.0710607826406e-18
-3.72126736202858e-18
-1.81244072025218e-18
-4.00964581175003e-18
-2.00368605853566e-18
0
-2.00142376284026e-18
-1.62028248140719e-18
-2.01070656354048e-18
0
-4.00657910954087e-18
0
-1.95832380865437e-18
0
-3.57817495127051e-18
-2.03224159360589e-18
-3.39555589675263e-18
-1.74421704714806e-18
-1.88816551887618e-18
-1.46107152767071e-18
0
5.91575274624981e-18
2.88836672555231e-18
-1.91781859376489e-19
-9.56605415905457e-16
-9.06218963709056e-16
-1.00381622777633e-17
-2.6004938207651e-18
-2.35546637232138e-18
2.30256978593044e-18
7.13476202175243e-18
-1.92025497914542e-19
0
2.10008450832113e-18
0
4.21357698203287e-18
0
-4.06713898475922e-18
1.92393651256347e-19
3.9548898620286e-18
-2.05178227497124e-18
2.0342296633171e-18
3.84878267610248e-18
-2.01139140338026e-18
0
0
3.62488144050612e-18
5.82284105714278e-18
-1.92759448191568e-19
0
0
1.92759448191568e-19
-1.92759448191563e-19
0
-3.81764088869771e-18
0
0
-1.92759448191563e-19
0
4.01040033688923e-18
-1.92759448191569e-19
-1.92759448191559e-19
0
-1.92759448191566e-19
2.00520016844478e-18
5.82284105714235e-18
3.62488144050615e-18
1.81244072025306e-18
-1.92759448191568e-19
0
3.81764088869766e-18
3.81764088869795e-18
0
0
-2.0052001684448e-18
5.82284105714207e-18
-3.81759806090645e-18
1.92816711930047e-19
-3.83044374694845e-18
-7.89138348538123e-18
1.84178327987767e-18
-2.05243294457081e-18
2.07443082487971e-18
-1.90729199786902e-18
1.93166058260171e-19
1.93216483340005e-19
4.21511289939425e-18
-2.24729626590755e-18
2.29377483438315e-18
4.2982084244575e-18
4.78532889165576e-18
0
-1.935315199441e-19
0
-5.01149480344503e-18
0
2.70901155806978e-18
2.95921266765769e-18
0
-1.9371571031107e-19
0
0
-2.92269921311225e-18
3.20445325984167e-18
-1.93923359387685e-19
0
0
3.58131919540528e-18
-5.58763606163724e-18
-1.94000992795417e-19
0
2.00566248727824e-18
1.9374555471064e-19
1.81879428511312e-18
-5.82384975553251e-18
-2.00228897124166e-18
-1.93019588560982e-19
0
0
0
-2.00520016844384e-18
3.59420115127727e-18
0
0
1.94018441162524e-18
1.93837078204294e-18
0
-3.49718487093297e-18
1.94644735139503e-18
1.91737197914189e-19
0
1.91512963654443e-19
-1.89515905989075e-18
-7.2579212514483e-18
0
-6.55239414861888e-18
0
0
0
0
0
0
2.60046284642424e-18
2.92166531449072e-18
-8.01514553429425e-18
0
-2.37393478505252e-18
0
0
0
0
0
2.26473876286547e-18
1.92121707671007e-19
-4.15444881626299e-18
-1.9223169607393e-19
-2.09447106883699e-18
0
2.03243920424559e-18
1.9244637534764e-19
-1.98651329770687e-18
0
0
0
-1.92703087669183e-19
3.49776397289453e-18
-7.16304929744352e-16
-7.18261184915484e-16
1.748907385951e-18
0
1.74890738595107e-18
0
1.94166729200674e-18
-1.92759906055582e-19
0
-7.10479927868327e-16
-7.16566922498879e-16
1.94166729200667e-18
-1.94166729200679e-18
1.94166729200666e-18
0
0
-1.94166729200683e-18
1.94166729200679e-18
0
-1.74890738595111e-18
3.69057467795756e-18
0
3.4978147719024e-18
3.88333458401357e-18
7.23493319194206e-16
7.1821468018598e-16
0
0
0
5.43948206390904e-18
-1.92769847238027e-19
1.94284668386605e-18
-5.4579491803656e-18
-1.95696717619465e-18
-1.97013462795136e-18
1.9871591266698e-18
0
0
-2.06255817958301e-18
6.28691445448857e-18
-6.0131688543472e-18
0
0
0
2.31465481741754e-18
1.97718106012669e-18
0
2.27202370794746e-18
-5.22720743185671e-18
0
-2.61942868444378e-18
0
-2.73217472345004e-18
-2.40716308309489e-18
0
-3.12772587366653e-18
-4.42123150903777e-18
1.93871517082574e-19
-1.49740677893418e-18
1.93970135006304e-19
-3.37504913471187e-18
-3.45994099971922e-18
-1.94022447012369e-19
5.30571068916497e-18
0
-1.93867391771747e-19
1.93745242517578e-19
3.70265126512054e-18
-3.49710086213469e-18
-1.93873444917026e-18
-1.74588079334941e-18
-3.88092941048822e-18
0
0
0
-9.63868542751898e-20
0
0
-1.87892712849634e-18
-3.56177023708334e-18
1.92329596578512e-19
-5.44534467376964e-18
-1.91914805409489e-19
0
0
-3.5274419789336e-18
-1.83422707370726e-18
1.91429539467427e-19
-1.38273559559362e-18
-4.79107945384876e-18
-1.91479701421619e-19
-1.02281799815795e-15
-1.03249499155173e-15
0
2.64182752764434e-18
-1.91715557983538e-19
0
-2.25583601906738e-18
0
0
0
4.86415970246572e-18
-1.99895510864312e-18
4.66746475611418e-18
0
6.136948891612e-18
0
0
2.10331276782059e-18
0
-3.86260627523902e-18
0
3.74310703892097e-18
-5.44657937890397e-18
0
-1.71473899270517e-18
-1.70214459881644e-18
1.69347449538026e-18
-1.92703547943904e-19
-1.68759636078135e-18
6.96396988894625e-16
6.86548898486058e-16
-1.92760380977555e-19
0
-1.88037990724914e-18
0
0
0
1.88037990724925e-18
6.90948609553861e-16
6.91924971915961e-16
0
-1.88037990724912e-18
0
1.92760380977554e-19
0
0
0
0
1.92760380977558e-19
0
1.88037990724924e-18
1.9276038097755e-19
3.56799943352097e-18
-6.92828989461102e-16
-7.00532641592608e-16
0
-3.56799943352044e-18
-1.92760380977551e-19
0
3.56796559211145e-18
-5.06611610210218e-18
0
0
-1.90780259519924e-18
0
-1.93067160040085e-19
-1.77553046884944e-18
0
0
-3.93630556093879e-18
-1.93319101746188e-19
-1.95439661512883e-18
0
2.04594534762855e-18
-4.76765421604717e-18
-4.47772875589299e-18
0
0
0
-1.93635153710144e-19
0
-1.93684577715551e-19
0
-2.76644511909952e-18
0
-8.54024836992126e-18
0
0
6.3461593670799e-18
0
-3.14883226789847e-18
-5.22189764016461e-18
0
-5.19830177487858e-18
0
5.46632845827357e-18
-1.69254892503541e-18
0
1.87742603677792e-18
0
0
-5.64027903327036e-18
1.92760380977488e-19
1.68761952626989e-18
0
0
0
3.44704395312116e-18
1.81806016441909e-18
0
1.62764071093738e-18
1.63274631995187e-18
5.09043471081227e-18
-1.62508145048019e-18
-1.60842028469377e-18
0
1.7447521932531e-18
-6.45364366582065e-18
-2.95640449375596e-18
-3.25466631792381e-18
1.0116995433689e-15
9.6389836876146e-16
0
2.73911474830385e-18
2.48043143133109e-18
1.91750244367098e-19
-2.74389376659513e-18
-7.49427735424856e-18
0
-2.39968943364908e-18
-2.16042962138781e-18
0
4.51515445276008e-18
-4.42181086931283e-18
4.13816030468954e-18
-2.3125262774471e-18
0
0
-1.99749859700139e-18
-3.73329427329053e-18
5.60456140423173e-18
1.92394324727273e-19
0
3.53312906397797e-18
1.84716374006183e-18
1.92601992512976e-19
-8.55601857481186e-18
1.62953259555429e-18
0
1.82125867501539e-18
0
0
0
0
0
-1.82125867501535e-18
1.8212586750153e-18
-6.8995129528541e-18
1.92760873603876e-19
0
3.44975647642707e-18
1.92760873603886e-19
0
0
3.44975647642706e-18
-6.89951295285412e-18
-3.44975647642704e-18
3.44975647642687e-18
6.64825910152753e-16
6.67440303703408e-16
6.89951295285334e-18
-1.92760873603886e-19
-1.92760873603881e-19
3.44975647642679e-18
0
3.44975647642704e-18
1.82125867501529e-18
-1.9276087360388e-19
0
-1.43570721313517e-18
-3.45191552029462e-18
-5.09542634305066e-18
0
5.35005218703903e-18
0
0
0
-3.86660050618027e-18
0
-5.80300453371574e-18
-4.26767293709233e-18
1.93368517249459e-19
1.93414188971963e-19
0
1.93494900082436e-19
-4.32539512207892e-18
1.93561513140424e-19
4.51505486645313e-18
0
-4.70566412524226e-18
0
-2.55437445221503e-18
-5.22466070903885e-18
0
0
5.43453632125823e-18
1.93869045921914e-19
1.93919329522473e-19
-6.13246045933147e-18
-1.47846670691911e-18
1.71196291797211e-18
4.85464748160181e-18
-3.55635605081782e-18
-1.80251692889611e-18
0
-1.63290452854042e-18
5.09183536632071e-18
0
1.62510105152064e-18
0
0
-1.92793805583411e-19
-8.52801075425914e-18
0
3.23931920937938e-18
0
-1.76388705674498e-18
0
0
-1.92330125802016e-19
0
3.34203811311405e-18
0
0
0
-3.24604072682679e-18
1.91429304685953e-19
1.65465604507156e-18
-3.04171883526084e-18
-1.91479397199452e-19
-1.91530284887304e-19
-2.79329868187457e-18
-2.717769538992e-18
-2.64806184815305e-18
-1.91715166338736e-19
5.04733686650551e-18
-4.93582203434994e-18
-2.41585584302453e-18
4.73425547986165e-18
0
4.16695881971259e-18
0
0
0
-1.92025021136951e-19
1.66797156226435e-18
0
1.97064728420994e-18
0
-1.90041954470348e-18
7.2919935748949e-18
3.30551269989113e-18
0
0
0
-1.92602430020453e-19
-1.76956104585212e-18
3.33763912844459e-18
0
0
1.57146567575614e-18
-3.33569273611847e-18
-1.95698844496864e-18
0
-1.9276138460633e-19
1.9276138460632e-19
0
4.90715841187397e-18
0
-1.9276138460633e-19
-1.9276138460632e-19
1.92761384606319e-19
0
0
1.7642270603624e-18
0
0
0
-6.43370147719336e-16
-6.47149862560352e-16
0
0
6.48277306131192e-16
6.47519272697989e-16
3.33569273611846e-18
-1.92761384606321e-19
0
-1.92761384606327e-19
-5.09991979648051e-18
0
-1.7653015254879e-18
1.76981851113943e-18
0
3.57933944143678e-18
-5.22154941248815e-18
0
5.15186969541942e-18
5.42306294285723e-18
0
0
7.03902658597853e-16
6.86743885782852e-16
1.66689249500225e-18
-2.09678046484712e-18
0
-2.37951672628725e-18
0
0
-4.45251851588171e-18
0
6.86677123183811e-18
0
-2.33228940187419e-18
-1.93745029328078e-19
0
-5.247052094253e-18
-1.93867743886006e-19
2.87819241046914e-18
-1.9396560287109e-19
-1.93999969732443e-19
3.12095118779337e-18
4.68754242943007e-18
-1.7214703342521e-18
4.84732062571711e-18
-3.1346459780928e-18
0
0
0
0
-1.76160582042847e-18
-3.33332712082349e-18
3.14232717851254e-18
1.92761384606323e-19
1.76422706036439e-18
-3.1292870255213e-18
-6.64408301925637e-18
-6.45006225767953e-18
-4.93090033986366e-18
0
0
-6.44460589925314e-18
0
1.91736910134708e-19
1.91604200692718e-19
-4.48671400757152e-18
1.66405273076799e-18
1.91429181004806e-19
0
-3.82887133124928e-19
1.9147923695239e-19
1.91530106780078e-19
0
7.69044586598441e-18
1.9167593012466e-19
2.4980960794226e-18
0
0
7.68838065570965e-16
7.88818579671748e-16
-1.91854879696032e-19
4.59413819088588e-18
0
-1.92130180353207e-18
1.91982550513301e-19
0
0
3.50780599001353e-18
-1.92175822840121e-19
0
-1.84025263872884e-18
-3.43171860610014e-18
0
-1.76576544453153e-18
4.8581124803525e-18
1.92551474574009e-19
-1.92602883844747e-19
6.17830600908639e-16
6.2323565028821e-16
0
-6.25855918989113e-18
3.41842246697026e-18
0
1.92761914683004e-19
1.92761914683004e-19
-7.96777042337668e-18
0
1.92761914683013e-19
0
-1.70921123348526e-18
1.92761914682997e-19
3.22566055228706e-18
1.92761914683005e-19
-1.70921123348492e-18
0
3.2256605522874e-18
1.92761914683003e-19
-1.92761914683012e-19
0
0
-1.70921123348509e-18
1.92761914683005e-19
0
-6.22411850523495e-16
-6.20725927029258e-16
1.92761914683004e-19
0
0
-6.25855918989157e-18
1.92761914683005e-19
1.5164335937627e-18
1.92819284510272e-19
3.23634109448996e-18
1.72240650596105e-18
-1.73371595081722e-18
-1.93019103997163e-19
-1.93068495096448e-19
0
1.93167579014932e-19
1.64816842857231e-18
0
-6.4938873454613e-16
-6.82899759244864e-16
-3.78215559367574e-18
4.05845430130161e-18
1.87827112954732e-18
0
-4.3179894857706e-18
0
2.05354912454665e-18
-4.38968471872675e-18
0
2.38892038423724e-18
0
5.00101802326844e-18
-2.75652631651836e-18
1.93821194148989e-19
-5.40571347461857e-18
2.78190912858603e-18
3.05769445431124e-18
3.1363859460456e-18
0