/*--------------------------------*- C++ -*----------------------------------*\
  =========                 |
  \\      /  F ield         | OpenFOAM: The Open Source CFD Toolbox
   \\    /   O peration     | Website:  https://openfoam.org
    \\  /    A nd           | Version:  7
     \\/     M anipulation  |
\*---------------------------------------------------------------------------*/
FoamFile
{
    version     2.0;
    format      ascii;
    class       volScalarField;
    location    "20000";
    object      Dk;
}
// * * * * * * * * * * * * * * * * * * * * * * * * * * * * * * * * * * * * * //

dimensions      [0 2 -3 0 0 0 0];

internalField   nonuniform List<scalar> 
15600
(
0.000870274551098451
0.000921087622042296
0.000878319934909227
0.000731281054304777
0.000554865353956698
0.000367621271619934
0.000210895123384568
0.000106535036106055
5.56715917580481e-05
4.03444848909174e-05
3.42790326050578e-05
2.7741986138307e-05
2.06893146181072e-05
1.52817989484824e-05
1.17826899723214e-05
9.60725980405112e-06
8.24432364078616e-06
7.43314499151344e-06
6.9516911340118e-06
6.64446022439254e-06
6.46386646708568e-06
6.40943525087011e-06
6.49645698730671e-06
6.7473323180624e-06
7.18192298859972e-06
7.80662165892376e-06
8.60456721281116e-06
9.59796435813421e-06
1.08141531000946e-05
1.22670059411238e-05
1.39618750146368e-05
1.58947923601295e-05
1.80577552867506e-05
2.04557431181484e-05
2.31607781699205e-05
2.62433032817676e-05
2.96686241544902e-05
3.33975824211716e-05
3.73829843525175e-05
4.15700921497238e-05
4.59132538994787e-05
5.04253371768693e-05
5.52892873183696e-05
6.09900648671758e-05
6.90435293365021e-05
8.23924145502216e-05
9.62026709023195e-05
0.000109165261699653
0.000121385230878185
0.000133025030488699
0.000144136467970111
0.000154788256665728
0.000165007988664359
0.000174820845065832
0.000184238762506798
0.000193272385522668
0.000201936314123217
0.000210247739576222
0.000218186167937243
0.000225596419236292
0.000232345917672498
0.000238389225419215
0.000243698916259852
0.0002482619636113
0.000252087798357901
0.000255217059537914
0.000257732760395663
0.00025977281017075
0.000261550646350973
0.000263367781530162
0.00026565158174071
0.000268952181503302
0.0002740155329699
0.000281148499323911
0.000290863290807576
0.00029616406685514
0.000282169275342238
0.000281021119852585
0.000291257069161017
0.000307862062229224
0.000329694601223992
0.0003558387536127
0.000386135877105632
0.000420449226111005
0.000458972220719407
0.000501899987289044
0.000550134824912257
0.000605417203993676
0.000667499808075985
0.000734617319508504
0.000804957062698809
0.000876536505500873
0.000946579305933413
0.00101165775987068
0.00106837097546691
0.00111088795632631
0.0011465765054172
0.00117963986305475
0.00121294029085407
0.00124950399046155
0.00129201223065473
0.00134464520169353
0.00141405180538887
0.00151785472932752
0.00165916191107619
0.0018095696225348
0.00196893386853509
0.00213439671822108
0.00230692699387448
0.00246963910214992
0.00259747648651908
0.0026056953436862
0.00237752343967475
0.00200855274887513
0.00165967198502418
0.00135624353161379
0.00112030991134932
0.000927746843228581
0.000847600297048833
0.000842959041841516
0.00475689991578676
0.00502006210411811
0.0048037937521123
0.00402140629659939
0.00305884592377707
0.00203114255900279
0.00116721322367141
0.000590762850527217
0.000308083360551384
0.00022171042925362
0.000188036756352942
0.000152558840498174
0.000114097324045049
8.43461907786801e-05
6.49795340278197e-05
5.29101559059482e-05
4.53384193205815e-05
4.08192532400504e-05
3.81313157114305e-05
3.6416873508067e-05
3.54005984209978e-05
3.50735098124612e-05
3.55169072837075e-05
3.68527340319989e-05
3.91912345876262e-05
4.25730830420699e-05
4.69082603492169e-05
5.23133891621468e-05
5.89395299054416e-05
6.68672177104043e-05
7.61302223505985e-05
8.67112299592497e-05
9.8569791433469e-05
0.000111732355841737
0.000126585389857579
0.000143516521656862
0.000162351151922067
0.000182874765803481
0.000204827919618396
0.000227908979434317
0.000251871639678932
0.000276798576800969
0.000303708067051931
0.000335478987191433
0.00038069983222257
0.000453689689616265
0.000529062101394899
0.000599917180083557
0.00066671704745822
0.000730331673802735
0.000791042132581171
0.000849217241439362
0.00090500412345143
0.000958537181086931
0.00100987973743134
0.00105908862611519
0.00110624361940707
0.0011514410383687
0.00119457551383264
0.00123444951890167
0.00127064281346457
0.00130298214215958
0.00133133525846684
0.00135565041353156
0.00137599895989491
0.00139262196884817
0.00140598926139788
0.00141686674678183
0.00142642033214901
0.00143628762441943
0.0014487512109601
0.00146669057893907
0.00149387329014828
0.00153183489407001
0.00157996459650323
0.00160114722638294
0.00153436260390934
0.0015334193107186
0.00159102790381647
0.00168221644799267
0.00180105056747149
0.00194283726337993
0.00210670326233772
0.00229200759818182
0.00249976870461712
0.0027312673915487
0.00299151950589235
0.00328885736495102
0.00362135217147307
0.00397981421164469
0.00435484293538066
0.00473616279085847
0.00510901367138205
0.00545571984422412
0.0057585548074786
0.00598976827802584
0.00618712342867877
0.00637186563642374
0.00655883727666465
0.00676386594022674
0.00700139398193387
0.00729372435150196
0.00767685233197198
0.00824078937485923
0.00900014527024743
0.00981306312964762
0.0106750606438112
0.011570978396941
0.0125035813819717
0.0133857405530152
0.0140860988784953
0.0141760030585845
0.013058434461816
0.0110882025166358
0.00918814956578054
0.00750947987244247
0.00619334536078794
0.00512314607588656
0.00466225418223744
0.00461871887255514
0.0116351940102541
0.0121363484299067
0.0117086472277387
0.00997930130940513
0.0076807953525644
0.00513213913300148
0.00293724636604012
0.0014759660114593
0.000757982728153679
0.000538847739624468
0.000454647168883772
0.000369419587987187
0.000277157129665687
0.000205235757268613
0.000158112718493924
0.000128652844584677
0.000110155860094896
9.90730291552231e-05
9.2447612613662e-05
8.82202936706837e-05
8.56949539258774e-05
8.48364799205429e-05
8.58380404881665e-05
8.89943524394306e-05
9.45739559784777e-05
0.00010268369670258
0.000113122299771723
0.000126164125364267
0.000142174429679259
0.00016135586784303
0.000183796352765473
0.000209460987254776
0.000238266505132667
0.00027031433648932
0.000306522871248754
0.000347762911399616
0.000393633494659044
0.000443611621691936
0.000497074112529955
0.000553325272114953
0.000611874067332172
0.000673123502965179
0.000739971452796833
0.000820901820282873
0.000936980977997984
0.00111008139386028
0.00128602709404076
0.00145116443826623
0.00160615799021163
0.00175310973665777
0.00189273510255827
0.00202592920843322
0.00215307302708967
0.00227451768824924
0.00239045174631587
0.00250104707795976
0.00260654195187041
0.00270726745788245
0.00280085565005813
0.00288621691343943
0.00296321386103214
0.00303158437547868
0.0030911789165927
0.00314202842694635
0.00318442906024179
0.00321903663427699
0.00324698391981966
0.00327001631587093
0.00329067296449744
0.00331241730087384
0.00333982232532671
0.00337829681677101
0.00343365067942913
0.00350550958194976
0.00357980587374425
0.0035918906535084
0.00349333751794574
0.00352096074035245
0.00365808398372796
0.00386300429842746
0.00412441027277047
0.00443386292287491
0.00478974253478968
0.00519146804171674
0.0056415679636128
0.00614414068316762
0.00671036000281453
0.00735320853371374
0.00806672482709282
0.00883393603351084
0.00963738166764644
0.0104578711442931
0.011265588498907
0.0120267647649002
0.0127086315554601
0.013265835425051
0.0137641242872905
0.0142437435375939
0.0147340546232443
0.0152667803844058
0.0158728032210785
0.0165982242395448
0.0175170804903125
0.0188001724961351
0.0204833696152616
0.0223160037449183
0.0242653156202977
0.0262932280793913
0.0283926892877379
0.0303933346732483
0.0320447200594787
0.032578684823626
0.0309119511016217
0.0270158639346084
0.0229063059405751
0.018990270067842
0.0157332572915306
0.0130218309708519
0.0117120303337998
0.0114514731618232
0.0204597166739489
0.0207848180698341
0.020085288917102
0.017664667892665
0.0141336503254197
0.00978687932226074
0.00564366415999926
0.00278250237557164
0.00136884798630713
0.000943564805612766
0.000787515262960117
0.000639558689231379
0.000481506590822024
0.000357502253122606
0.000275653463575857
0.000224276228249847
0.000192021140903586
0.000172586476321418
0.000160893667093841
0.000153422473366935
0.000148928949119463
0.000147334587766838
0.000148973663742062
0.000154356835174805
0.000163941077673359
0.000177905091080283
0.000195946773399813
0.000218526909712769
0.000246244794928708
0.000279421209243319
0.000318164710947701
0.000362374021223381
0.000411901721936082
0.000466981277989844
0.000528997250736938
0.000599017468145254
0.000676245919571799
0.000759705680177984
0.000848368493249316
0.000941304558284035
0.00103824323687506
0.00114077317894654
0.00125503290418808
0.00139593936509968
0.00158967417919379
0.00184021514676625
0.00208772669208902
0.00231719503016116
0.00252906506911559
0.0027271292285197
0.00291293265242674
0.00308805789926085
0.00325337807138119
0.00340963877714133
0.00355736039433251
0.00369700158912606
0.00382916925020486
0.00395118409414657
0.00406228127394337
0.00416306090240949
0.00425344870673092
0.00433340604586522
0.004403020094668
0.00446257574525798
0.0045126411008651
0.00455416428923181
0.0045885866119564
0.0046179672290716
0.0046451017209539
0.00467356299896305
0.00470755367978212
0.00475114361814624
0.00480607390698912
0.00486559152272943
0.00490614447684411
0.00489243312634957
0.00485757323782338
0.00494112810257786
0.00513171425039774
0.00539856910468887
0.0057306710525678
0.00612153284768314
0.00657027933418631
0.007078166421772
0.0076494774858068
0.00829144280586815
0.00901708723726935
0.00983387020323704
0.0107327052563668
0.0116984146980138
0.0127146278522676
0.0137629361978486
0.0148108710161446
0.0158229724195375
0.0167756685985367
0.0176341793030688
0.0184555791962711
0.0192803236401349
0.0201402353705116
0.0210701610593797
0.022107320400253
0.0233038360621069
0.0247410090229677
0.0265804315727727
0.0288592244511719
0.0313581392836068
0.0339991223460514
0.0367137525938746
0.0394505082149321
0.0420156399474388
0.0441386187284913
0.04517145185524
0.0442659191301373
0.0408842469066013
0.0367295280603167
0.0321720423705934
0.0278081189871109
0.0237905338140227
0.0214729902917731
0.0206312690435846
0.0282244113651938
0.0277745130753689
0.0265725555292881
0.0242226563619838
0.0207380840754769
0.0157290830961321
0.00970711785756488
0.00481303588904627
0.00222049546983519
0.00142631549895315
0.00116248925884321
0.000939697967821328
0.000710265318302739
0.000529481526184955
0.000409096862340858
0.000333111002695403
0.000285439622687706
0.00025644332544084
0.000238876445829594
0.000227613126094288
0.000220789930018824
0.00021826853005541
0.000220537399500369
0.000228326793893886
0.000242250452068246
0.000262505613865608
0.000288699348153111
0.000321402579749568
0.000361286029003373
0.000408578548275615
0.000463151360966216
0.000524582443399207
0.00059246169135841
0.000666942649021322
0.000749197392673572
0.000839658162694634
0.00093700705675606
0.00103992088183061
0.00114745369085527
0.0012593346189479
0.00137668078803717
0.00150324539876065
0.00164760417753507
0.00182425421181686
0.00204566004346107
0.00228183919080607
0.00251640044942743
0.00273158450936161
0.00292879979225675
0.00311164526701626
0.00328230330881351
0.00344221283125968
0.00359249883857215
0.00373391818088699
0.00386712879894006
0.00399265704292133
0.00410867343358948
0.00421475554053271
0.00431174779188829
0.00439983877487028
0.00447908661674868
0.00454960294803871
0.00461160409154093
0.00466546504798434
0.00471177744976905
0.0047514134815804
0.00478558796079472
0.00481590982613342
0.00484437188120855
0.00487323452426745
0.00490457093455336
0.00493928735122695
0.00497462145646147
0.00500179192010436
0.00500458499133579
0.00499011491689892
0.00502863142610987
0.00514106252030276
0.00533358876225204
0.0055912498336263
0.00590593953624238
0.00627492968705381
0.0066980895649948
0.00717783769174363
0.0077186293703869
0.00832789019390336
0.00901551541773709
0.00978212989156653
0.0106188478385263
0.0115157198238004
0.0124610563777152
0.0134413737283951
0.014427140934707
0.0153968012105834
0.0163391695922241
0.0172409981848561
0.0181397001391099
0.019066369737481
0.0200479477558104
0.0211134312856391
0.0222957310478013
0.0236362141475953
0.0251961488616184
0.0270656256722298
0.029247079043674
0.0316263864368499
0.0341093933992983
0.0366201458060709
0.0390618570062955
0.0412908206086749
0.0430664422141621
0.0441083520892452
0.0439875359690608
0.0427623817789307
0.0409048387049449
0.0384810082959393
0.0355728729529095
0.0325505433769235
0.030343893705385
0.0290478716906035
0.0314953503236448
0.0303517162117229
0.0286563017938738
0.026790377328604
0.0244860247153544
0.0209251950353491
0.0147757918900608
0.00792316333240431
0.003562424118174
0.00202206718077629
0.00156515359577535
0.00124696230585837
0.000945630356193847
0.000708845731462726
0.000549614925874838
0.000448357218059758
0.000384817184931657
0.000345595648994821
0.000321618031820438
0.000306127401725048
0.00029662713689762
0.0002928841127728
0.000295500785066429
0.000305338142411046
0.000323020371806837
0.000348607660936486
0.000381544753261858
0.000422220148830627
0.000470953304495606
0.000527456450244644
0.00059098886302462
0.000660592817212517
0.000735548515352197
0.00081583998968839
0.000901970283820039
0.000993695580573213
0.00109009078112177
0.00119046561019077
0.00129500683415883
0.00140493716702704
0.00152306610389488
0.00165449573258069
0.0018071230786584
0.00198878419808159
0.00219416193201683
0.0023784089670221
0.00257501444488591
0.00275402825414956
0.00292067956185269
0.00307541894555029
0.0032207773854402
0.00335724866315476
0.00348589214129359
0.00360712815229156
0.00372153573367985
0.0038282376712585
0.00392648009212245
0.00401700186709908
0.00410012558586051
0.00417596305159644
0.00424460633220164
0.00430620332458284
0.00436098992678825
0.00440932643114163
0.00445173189762331
0.00448891847705101
0.00452181120819817
0.0045515412128236
0.0045793567043563
0.00460642103425167
0.00463328549240962
0.00465903500250268
0.00467954961564513
0.00468796597792365
0.00467797792374783
0.00467520461257386
0.00474450754725429
0.00485939999808616
0.00503649338789507
0.00526752825088649
0.00554633800602669
0.00587198286906581
0.00624442969387745
0.00666609142842316
0.00714070793091592
0.00767439640053589
0.0082737155273231
0.00893642144708349
0.00965503008624804
0.0104225942500392
0.0112302956310645
0.0120671147277787
0.0129055722362982
0.0137376935573495
0.014555869349502
0.0153582037319003
0.0161689613089477
0.0170108834694915
0.0179053244441787
0.0188748070136803
0.0199455148743986
0.0211474024178575
0.0225233787774899
0.0241155859340373
0.0258999302559182
0.0278290307822644
0.0298212760860074
0.031816172492
0.0337039022713604
0.0354027695969209
0.0366896114635386
0.0375278051948349
0.0375922407502934
0.0375310598279493
0.0372242786405786
0.0368035639970935
0.0357897421977085
0.0348626650831552
0.0337897411145913
0.0326357744771375
0.0307877589742961
0.0294886914882227
0.0276304647634251
0.0261411747048295
0.024862685591897
0.02348798542457
0.0194366197825521
0.0120196391422279
0.00569287945100844
0.00284164294306355
0.00198944965548008
0.00153846412736149
0.00116519113207572
0.000878197399316118
0.000683895329942051
0.000559330785840813
0.000480770994939025
0.000431620681900512
0.000401061229542756
0.000381055040609998
0.00036852464874072
0.000363065032448826
0.000365263038612977
0.000375907313980261
0.000395397185962269
0.000423471589573835
0.000459337738231718
0.000502893913436941
0.000553828573634187
0.000611271697596745
0.000674068007361531
0.000741188371188517
0.00081214596978623
0.000887120666867644
0.000966245380923091
0.00104932158631679
0.00113648053396004
0.00122791285315871
0.00132481422199839
0.0014292732034559
0.00154464420039775
0.00167562989198497
0.00182741396628335
0.00200101973188344
0.00218163485534035
0.00232942782167521
0.00249964629982495
0.00265241946454681
0.00279767411707658
0.00293265967816182
0.0030603839082758
0.00318055995104752
0.00329420909192168
0.00340148600567947
0.00350256787726377
0.00359625041197244
0.00368308571766867
0.0037634284737648
0.00383746191677432
0.00390527929926504
0.00396698676901633
0.00402274119466897
0.00407277214257439
0.00411740550514461
0.00415708226628346
0.0041923728041915
0.00422397057175768
0.00425265229263563
0.00427915742620489
0.00430396658525814
0.00432683162163014
0.00434616500855528
0.00435814696162006
0.00435856367480979
0.00434779025028187
0.0043554568842485
0.00443218266960005
0.0045412194131512
0.0047019797828885
0.00490873833308211
0.00515649311343595
0.00544489156026356
0.00577381792923967
0.00614533105157986
0.00656242174637522
0.0070298553127056
0.00755188051351394
0.0081254402990199
0.00874434130207102
0.00940316356598907
0.0100946657757276
0.0108075674983798
0.0115194216413862
0.0122282640434012
0.0129280812110764
0.0136213531268654
0.0143246716387457
0.0150548281225377
0.015828566554977
0.0166633243297937
0.0175795226305589
0.0185990459934983
0.0197528300531279
0.0210606654114372
0.0224879020946347
0.0240158771047179
0.0255803188880387
0.0271382626065411
0.0285843908588704
0.0298788399725107
0.0308107948107005
0.0314553757091602
0.0314812627092475
0.0317245413867858
0.0318766068624695
0.0322974598222306
0.0321823360024826
0.0325674549214599
0.0325078055526905
0.0318100209379927
0.0282117173394352
0.0270956242618859
0.0253739833859564
0.0241344543369567
0.0233779365737034
0.0233912378940707
0.0224160460485153
0.0163709166133308
0.00872533977980378
0.00407780166583999
0.00247647889339467
0.00180965990363431
0.00135295044536846
0.00102098248367291
0.000797271983317909
0.000653292616257956
0.000561708919383629
0.000503818508509389
0.000467027453606397
0.000442567671807887
0.000426880717670436
0.000419281916924877
0.000420165148834466
0.000430037514181495
0.00044892983954954
0.000476256098750667
0.000511094365230339
0.000552868265409425
0.000600836280168143
0.000653957674383124
0.00071118811908485
0.000771893293410836
0.000836032395652089
0.00090396343148377
0.000975624114435771
0.00105109174486724
0.00113121853155945
0.00121663845756355
0.00130896303367137
0.00141041747044162
0.00152407366240217
0.00165343696882517
0.00180089931942052
0.00196313795034042
0.00212310757026966
0.00225174124959132
0.00240532611717624
0.00254147211363404
0.00267295937685881
0.00279509297286407
0.00291120808596678
0.00302058589581122
0.00312422289852534
0.0032221799465679
0.00331384447683615
0.00339912268942043
0.00347843841456249
0.00355201284629709
0.00361998163731492
0.00368243661975032
0.00373949206067026
0.00379130543924127
0.00383809302423546
0.00388014445307174
0.00391783118502702
0.00395160773877505
0.00398199021286808
0.00400950031128649
0.00403453899511161
0.00405717965645656
0.00407679697772947
0.00409169571147379
0.00409885455748127
0.00409628771290468
0.0040881501718276
0.00410259908481098
0.00417787597935115
0.0042796384024523
0.00442627519217185
0.00461337507157619
0.00483669506437823
0.00509599972830309
0.00539107853480658
0.00572360221730116
0.00609595042276961
0.00651179801515854
0.0069738896608636
0.00747910049670009
0.00802221766409724
0.00859868260927888
0.00920217305654796
0.00981956525410699
0.0104359862420606
0.0110501785512289
0.0116575112115363
0.012262047494892
0.0128758596825359
0.0135117403896054
0.0141830614112543
0.0149036731750142
0.0156897849130406
0.0165580439751057
0.0175317365236359
0.0186204156997839
0.019787342528932
0.0210247987038451
0.0222824792087969
0.0235301343114787
0.0246718102944801
0.0256907883766918
0.026390383336444
0.0268880460106088
0.0268504275367149
0.0271041557556721
0.0272768057108132
0.0279012240179598
0.0280361651619835
0.0288549541609848
0.0292904509383947
0.0289737459649387
0.025224676584542
0.024362607073406
0.022898850359699
0.0218521284964981
0.0213539125036773
0.0217189841300366
0.0233169642085661
0.0200869351488783
0.0124185869728396
0.0059146144842832
0.00311811447230303
0.00208664956597336
0.00151507598380151
0.00113429451249437
0.00088354913819968
0.000723016714085075
0.000620480780500134
0.000555402023712958
0.000513233756995838
0.00048492886145753
0.000466515165379358
0.000456922626770729
0.000456211475061209
0.000464513658430719
0.000481530375578648
0.000506513801045763
0.000538585539995921
0.000576892179045236
0.000620570204010169
0.000668700171606681
0.000720534201767455
0.000775814027650202
0.000834745419528405
0.000897681994964623
0.000964467335415231
0.00103542411016822
0.00111171287109305
0.00119412322051212
0.00128434039162786
0.00138439736671408
0.00149678967515373
0.00162375524200231
0.00176558195583713
0.00191686799189613
0.00206188550814376
0.002181074824667
0.00232328251245174
0.00244879349683629
0.00257102075142876
0.00268454076616905
0.00279273093070449
0.002894709202326
0.0029914168041488
0.00308267824755037
0.0031679293957171
0.00324746487964791
0.00332159176172321
0.00339047364954485
0.00345422791817557
0.00351294919772156
0.00356675570133547
0.00361580129354048
0.00366028645359592
0.00370046634352856
0.003736652281304
0.00376920453277481
0.00379850250721727
0.00382488265311227
0.00384851911016285
0.00386924638704151
0.0038862902350087
0.00389809356056013
0.00390248168501841
0.00389910753486563
0.00389405330090067
0.00391232583137398
0.0039830848983695
0.00407792576165038
0.00421274348251047
0.00438406013182486
0.00458816215372786
0.00482475719753502
0.005093553135785
0.00539587128692963
0.0057336077347968
0.00610959510647033
0.00652558892369435
0.00697864626491712
0.0074642748233938
0.00797844180234177
0.00851475370156088
0.00905979182458951
0.00960443984134595
0.010146984691518
0.0106838523178515
0.0112195660883356
0.0117634127776622
0.0123254848900253
0.0129167359611601
0.013548509068905
0.0142340076462333
0.0149864593666118
0.0158240530132968
0.0167513317540523
0.017733077759892
0.018765211349657
0.0198075500967369
0.0208379378761228
0.0217701951761292
0.0225988956180109
0.0231433128501808
0.0235304457770673
0.0234433217709549
0.0236301837016745
0.023719495116459
0.0243117070222235
0.0244677478492096
0.0252996150541594
0.0258743588760114
0.0257731951428779
0.0224620460937227
0.0218148855109999
0.0206046565420748
0.0197238029592104
0.0193825820695507
0.0195765120761794
0.0224597200271169
0.0225310597342522
0.0163011499743826
0.00840819397082814
0.00403855294194207
0.00242442322825222
0.00167860566225845
0.00123277950663238
0.000950399498150763
0.000772160951463146
0.000659736912932149
0.000588405848531828
0.000541728367493893
0.000510423247839647
0.000490055877803108
0.000479076135152662
0.000477131893135283
0.000483985597763359
0.000499116072115644
0.000521750695270289
0.000551119542970377
0.000586254173030795
0.000626333587338116
0.000670621181817448
0.000718618521927107
0.000770285828385239
0.000825901734606497
0.00088575662233243
0.000949701639622267
0.00101823626178483
0.00109259671066404
0.00117360583193857
0.00126286286470306
0.00136209484008286
0.00147317819744876
0.00159728513049274
0.00173334569154468
0.00187533649175584
0.00201002667974714
0.00212461674001519
0.00225854355184925
0.00237713318914984
0.00249289962218972
0.00260051912261894
0.00270316918291595
0.00279997590253451
0.00289182074303847
0.00297821547248474
0.00305901761761403
0.00313453419191465
0.00320501122372822
0.00327058507500866
0.00333136567185054
0.00338745064365459
0.00343895912394734
0.00348603900816265
0.00352887433419487
0.00356768860017881
0.00360274145584354
0.00363431616947865
0.00366268581041275
0.00368805092185705
0.00371043318631201
0.00372953223955228
0.00374454769933571
0.00375415498565757
0.00375692742358181
0.00375365165103111
0.00375123839903732
0.00377130400507776
0.00383666737585825
0.00392527515189491
0.00405018679794163
0.0042086744515408
0.00439741431363557
0.00461599616817136
0.00486405618454425
0.00514261390215816
0.00545317736149445
0.0057979278989925
0.00617795549420412
0.00659056722308359
0.00703180016964002
0.00749794302113927
0.00798164113945233
0.00847124802372669
0.00896087027450141
0.00944834009732038
0.00993088872624338
0.0104130222454553
0.0109022198987809
0.0114067056655422
0.01193567264053
0.0124986652017664
0.0131067014249709
0.0137706960932944
0.0145052644494311
0.0153123097634902
0.0161595196250514
0.0170434945536759
0.0179312561278958
0.0188054466777144
0.0195887954746767
0.0202802891961783
0.0207157028529224
0.0210164355180984
0.0208936712906932
0.0210016526950985
0.0210029183840825
0.021492537791951
0.0216105871522153
0.022320732434318
0.0228738017744347
0.0228767404593189
0.0201017779240105
0.0196145766677461
0.0186068496448882
0.0178782998762792
0.0176177528081449
0.0176196608775318
0.0204965108957039
0.0234392043473862
0.0196644203631632
0.0114480003434796
0.00537585896281231
0.00289453832775706
0.00187700140378062
0.00133709578943284
0.00101234224604393
0.000812547708760834
0.00068877145948375
0.000610838623487675
0.000559892211573041
0.000526046237480058
0.00050424393177815
0.00049236624970524
0.000489608269847128
0.000495395740543909
0.000509058557522776
0.000529845852895103
0.000557078426797614
0.000589772289214538
0.00062720621643782
0.000668803973293554
0.000714238045969422
0.000763576228602924
0.00081709793891523
0.000875045918195643
0.000937340794076819
0.00100459137980459
0.00107799760190091
0.00115836030751602
0.00124711874149079
0.00134567248893959
0.00145533705278382
0.00157648186667462
0.00170727132330615
0.00184185486227726
0.00196957961743409
0.00208202382441751
0.00220981821861554
0.00232391936163432
0.00243514864135592
0.00253874475088871
0.00263753627440008
0.00273075040640404
0.00281916953396213
0.00290212747663474
0.0029798471103358
0.00305256938971083
0.00312050306046718
0.0031837711843695
0.00324248052914061
0.00329673085496351
0.00334664017718074
0.00339234919485386
0.00343402580646244
0.00347186493124483
0.00350608193743099
0.00353689694273143
0.00356449974178022
0.00358899067630229
0.00361028969080708
0.00362802689196139
0.0036414407036641
0.00364946183622173
0.00365127711794517
0.00364842153347336
0.00364800010580909
0.00366851493923088
0.00372844100007333
0.00381147947481568
0.00392800733809414
0.00407590517285116
0.00425214970173814
0.00445619679857003
0.00468761516681135
0.00494716459550967
0.00523603431042988
0.00555589570067702
0.00590738002685372
0.00628804379543498
0.00669431157705279
0.00712250999087187
0.00756413235594564
0.00801051458492994
0.00845702407675376
0.00890129445798661
0.00934117507367124
0.00978094750024641
0.0102268583953209
0.010685801146579
0.0111656562758147
0.0116746316666659
0.0122221105763742
0.012817377174152
0.0134724261077425
0.0141876925749926
0.0149341772721267
0.0157079902321741
0.0164812860268654
0.0172393087414026
0.0179125339506763
0.0185005022885654
0.0188550167344428
0.0190853278263287
0.0189359635972765
0.0189719555821038
0.0189001554425101
0.0192754019688203
0.0193467159434479
0.0199141204507782
0.0203888699809262
0.0204386291513549
0.0181371294315219
0.017766818913915
0.0169071671975102
0.0163238366476311
0.0160632668021248
0.0160632320952142
0.018108575451385
0.0229581584308658
0.0219082803155145
0.0147437354480774
0.00722101306511074
0.003578666552788
0.00214835422912306
0.00146895056957766
0.0010849181262989
0.000855972727317335
0.000717164145867899
0.00063093186637535
0.000575063237666655
0.000538445512127124
0.000515169800056967
0.000502453731366163
0.000499007734456301
0.000503939228529512
0.000516451063569943
0.000535802073933145
0.000561363370633022
0.000592189804113151
0.000627667431355641
0.000667345494320507
0.000711009045716644
0.000758774702911094
0.000810903672901195
0.00086761914432982
0.00092893271604411
0.000995506898274441
0.00106845502880141
0.0011485272333757
0.00123697333197634
0.00133488550616687
0.00144311265824156
0.00156146581286834
0.00168775846970054
0.00181668376476686
0.00193983592396209
0.00205147772207273
0.00217481055674924
0.00228611638995797
0.00239425121566577
0.00249521527452846
0.00259142309527473
0.00268224458570982
0.00276829560776541
0.00284897698699803
0.00292464341231142
0.00299550425037677
0.0030617441673204
0.00312347981689065
0.00318081653157136
0.0032338551943827
0.00328271140565145
0.0033275181491613
0.00336842800171366
0.00340561037021365
0.00343924273917108
0.00346949332102107
0.00349648649087051
0.00352024873888701
0.00354063349541622
0.00355724263785931
0.00356938557245441
0.00357623743542775
0.00357746737117231
0.00357507713735653
0.00357601024374966
0.00359608804521321
0.00365084396031855
0.00372887836631742
0.00383823059125004
0.00397726038271003
0.00414318515751077
0.00433532906309248
0.00455319378595169
0.00479731354368248
0.0050686092695362
0.00536834692621596
0.0056968337858958
0.00605184953289911
0.00643009170333706
0.00682742840924135
0.00723514707893026
0.00764710911980339
0.00805916949125795
0.0084689079146951
0.00887464987789745
0.00928036748411854
0.00969142681069093
0.0101137461768239
0.0105542026011356
0.0110199742549833
0.01151918637763
0.0120599261826916
0.0126521957692982
0.0132956031128009
0.0139644379180343
0.0146538949537567
0.015339785370886
0.0160085106138314
0.0165971366149465
0.0171036849903012
0.017394923050952
0.017565772395464
0.0173951937037889
0.017369034887554
0.0172402621614274
0.0175087216083074
0.0175365603996066
0.0179756256587391
0.0183596976556066
0.0184279344702006
0.0165080019221436
0.0162237955580415
0.0154696931834256
0.0150237480842303
0.0147002514003714
0.0148692593312759
0.0158232558705389
0.0214803352380098
0.0229535714323089
0.0177537686595492
0.00961668947153329
0.00457708257270223
0.00253566249056785
0.00164913854912855
0.00118096059262115
0.000911651689852604
0.000752139398565739
0.000654687497815587
0.000592382489856904
0.000552101250166161
0.000526786605926962
0.000512873777265732
0.00050854380516624
0.000512578506538609
0.000524038765256408
0.00054215597494765
0.000566311559014219
0.000595621287681601
0.000629564536971777
0.000667784841610236
0.00071014086805429
0.000756768936933386
0.000807912042595451