/*--------------------------------*- C++ -*----------------------------------*\
  =========                 |
  \\      /  F ield         | OpenFOAM: The Open Source CFD Toolbox
   \\    /   O peration     | Website:  https://openfoam.org
    \\  /    A nd           | Version:  7
     \\/     M anipulation  |
\*---------------------------------------------------------------------------*/
FoamFile
{
    version     2.0;
    format      ascii;
    class       volTensorField;
    location    "20000";
    object      gradU;
}
// * * * * * * * * * * * * * * * * * * * * * * * * * * * * * * * * * * * * * //

dimensions      [0 0 -1 0 0 0 0];

internalField   nonuniform List<tensor> 
15600
(
(0.0340061699347631 -0.000154931723475104 -4.45478850493062e-23 20.0294333717807 -0.0336367285447894 -5.71787098068185e-23 -1.19689354331767e-21 1.24685785276214e-24 7.70872136517967e-44)
(0.0510669997037169 -0.00390862991358873 2.07987400075511e-20 21.1921470332236 -0.0589651448113944 -4.55777151640054e-22 3.80668795046823e-21 -2.027361210408e-23 8.77449289554717e-41)
(0.27737234634847 -0.017022398136904 6.43728854992133e-20 22.9050036137163 -0.294484866681834 9.00406165295338e-19 -2.60932656103967e-21 1.90233434106193e-23 -8.78062727110948e-41)
(0.921443380200081 -0.0599087186141076 -3.47335581396006e-19 21.6331739822443 -0.913195726762456 -4.01140455183807e-19 0 0 0)
(1.36351261155924 -0.132599986948163 1.48169126470873e-19 16.7216583525622 -1.37937802406219 2.17042458889538e-18 5.62324919358248e-21 -6.61446190156031e-22 -5.14076705842573e-39)
(1.25235350230886 -0.176197872569705 4.81484863972547e-18 9.67590780989349 -1.27376374161313 1.18477237412477e-19 -7.56867623701968e-21 1.02786049357608e-21 -6.94925966341647e-38)
(0.28043992331781 -0.0372912135530957 -7.78930433775962e-18 2.07125634547136 -0.329864431087689 -3.47152778279111e-17 -8.27646478378652e-18 1.31858446753883e-18 1.38543929599899e-34)
(-1.07821232842255 0.346264689946589 2.9691934552647e-18 -3.22712007830445 1.02093553335845 1.09952517170276e-19 1.51023577473643e-21 -5.63049288165629e-22 -4.58848825166126e-38)
(-1.88732590166119 0.708976772313457 4.49473909275185e-17 -4.97593985886673 1.83893650016345 1.19558479949528e-16 -2.62640858899211e-21 8.06668430278165e-22 1.20228691435688e-37)
(-2.10485098620675 0.904659465644445 1.67673991954722e-18 -4.86935149218625 2.06961483795038 1.07709736447384e-20 0 0 0)
(-2.13368261917622 1.01028572734873 6.45350003182173e-17 -4.46696997689567 2.10011076723089 1.34015362811237e-16 2.42365466722345e-21 -1.14899504524245e-21 -1.38391463400984e-37)
(-2.00825023574456 1.01949973918855 -9.2422760432621e-18 -3.91912986057894 1.97956763360309 -2.38052201246921e-19 -2.38897497318188e-21 1.13255425556925e-21 1.3641124168309e-37)
(-1.83820327790436 0.981018826188871 4.54350650484468e-17 -3.4121447296203 1.81457962179171 3.13198911013214e-19 9.33584453796966e-22 -4.94989602988674e-22 -3.18881014035886e-37)
(-1.66965810119761 0.921455450704456 6.42478533121932e-17 -2.99806233184767 1.65086281285728 1.54755960203615e-16 2.67574669698657e-17 -1.47337039208796e-17 -1.38271653737246e-33)
(-1.52325808491995 0.855723283294179 8.82789298853156e-18 -2.68716746487226 1.50798837255115 1.39783895561254e-16 -2.40783831391589e-17 1.35122926076118e-17 1.25127745842016e-33)
(-1.39247810356202 0.784460992433649 7.7408523203852e-17 -2.44953153737288 1.3800426570785 1.42663062889167e-16 -2.19576913397244e-17 1.23707081913621e-17 1.27656163450467e-33)
(-1.27850777209091 0.712599464106306 -4.06181677538437e-16 -2.27383167985079 1.26848558682468 -7.63630572736066e-16 0 0 0)
(-1.19233688952882 0.654321897691161 -2.58363662352373e-16 -2.15546969969376 1.18424771372033 -4.62216259761446e-16 1.20706204340528e-21 -6.49820290708803e-22 3.48505501125567e-37)
(-1.12910654487911 0.610466551597871 3.35861654882291e-16 -2.07310566298004 1.12212611486147 6.19294107150986e-16 -1.83815606777292e-17 9.94941225319403e-18 5.48861672259921e-33)
(-1.0768024117158 0.574384535771905 5.80258725321076e-17 -2.00541291703914 1.07082535281579 -1.11285986441546e-18 0 0 0)
(-1.03430194968408 0.545314407371465 -7.99981370342175e-17 -1.9503159916758 1.02918475983459 -1.53095050852772e-16 1.71834844503639e-17 -9.06766375376354e-18 1.34864613037956e-33)
(-1.00132223608464 0.522911697273928 -2.97899948444124e-17 -1.90779373353012 0.997020565021082 5.3079539365518e-19 2.10614612068387e-21 -1.09530613124161e-21 -6.81646683995626e-37)
(-0.979496672267181 0.507821309972421 2.88767812587866e-16 -1.88139118866121 0.975957577863935 4.91700082643562e-16 -1.65074640266047e-17 8.56304972925454e-18 4.32164698491408e-33)
(-0.970614533613596 0.50072457697624 1.76191686628218e-16 -1.87511737939225 0.967735221319315 3.39898087774012e-16 -4.15991958908475e-21 2.12683270298484e-21 1.43498038069431e-36)
(-0.975601647953123 0.501759382272357 -3.2376680463625e-16 -1.89182287828959 0.973288026076398 -4.97481286105188e-16 4.06813002134801e-21 -2.07990365777743e-21 -1.40331721364651e-36)
(-0.98958936207793 0.507485569645365 -1.03761011568529e-14 -1.9246467092389 0.987546701589792 9.96954764884409e-20 -1.68284901484374e-17 8.63472822023392e-18 -2.59581926615359e-33)
(-1.00556552881257 0.511696219329749 1.22026032190159e-14 -1.97051967833703 1.0039112307755 4.59585246124064e-14 -4.89515029785735e-15 2.49392662653218e-15 1.15220010721275e-28)
(-1.02387465309188 0.513440487483791 3.17224186120735e-14 -2.03504360123026 1.02256629591131 4.37290163685469e-14 -5.10246770632669e-15 2.5637831055432e-15 1.08422503949231e-28)
(-1.04320456272208 0.511677915344957 1.04710525735513e-14 -2.11844688542113 1.04216383718612 -3.89416068630151e-16 0 0 0)
(-1.06068381383116 0.504675950801039 1.05554292032049e-16 -2.21837499240944 1.0598448428108 1.79083254771992e-16 0 0 0)
(-1.0726155336508 0.490526890306657 -5.38514317101779e-17 -2.33118379777193 1.07193186275139 -7.69869604410584e-17 9.98476552976506e-18 -4.59061212629736e-18 3.30886771038418e-34)
(-1.07491308982119 0.467543073749183 1.2470348406474e-18 -2.452576504923 1.07442926459086 9.53419250658752e-20 -9.99589343663293e-21 4.44333390254807e-21 1.47013680671221e-36)
(-1.0637301331328 0.434732707981527 -3.14008534420552e-17 -2.57797025662067 1.06347274754306 -7.84441518856809e-17 1.08411065850033e-17 -4.47151067980723e-18 3.29685664230739e-34)
(-1.03879507200468 0.393428487874133 -2.02222591445706e-17 -2.71036943288876 1.03898059190721 8.38493790217517e-19 0 0 0)
(-1.00515586925781 0.348261358401081 -9.37411273311434e-17 -2.85966360707805 1.00590695402918 -2.70125718294369e-16 1.20724520154718e-20 -4.00247345316373e-21 -3.04156810017625e-39)
(-0.964105105961378 0.302111090913157 8.56556971331505e-17 -3.02282911149244 0.965155563477264 2.72539317170936e-16 7.90091087085597e-22 1.49174681702798e-22 6.00851158609882e-39)
(-0.911508975806004 0.254758828326227 -2.24052093532254e-17 -3.18982183966186 0.912913952798265 1.03695431907223e-18 -1.24000850339595e-20 3.70725972012139e-21 -2.97348538646517e-39)
(-0.845740464926709 0.207103060270693 2.85492843646772e-15 -3.35565526554573 0.847506044643868 -3.23232321763963e-17 -1.34585177701911e-17 3.39808720339923e-18 3.07581057422163e-34)
(-0.765779449834987 0.160415344441166 8.56800288934844e-16 -3.51559716361721 0.767978274982454 -1.01288895348846e-14 1.76222804711892e-15 -3.84904100786896e-16 5.14165428079704e-30)
(-0.671671639705971 0.116317503280163 -4.45833018365489e-15 -3.66656260586203 0.674364242646291 -9.19665277211908e-15 1.8468889766106e-15 -3.39609790746629e-16 4.57011135929572e-30)
(-0.564684288797192 0.076635648788275 -2.8893238012409e-15 -3.80862253918277 0.567817458685213 2.82926397585888e-16 -7.50455533601082e-18 1.11854449086993e-18 5.51294385350256e-34)
(-0.446518375786313 0.0430371147957484 -1.02133408396422e-17 -3.94999552503246 0.450518797542132 -1.43708161320266e-16 0 0 0)
(-0.317195304023119 0.0167540315560206 -9.54480619302501e-18 -4.09229418930459 0.322491954206993 -1.26358179667924e-16 0 0 0)
(-0.188343007470157 0.000108931815435103 5.14489579939356e-18 -4.26815973535973 0.19001328759248 3.32906965872341e-19 8.57705826873828e-21 -2.22233306671949e-22 2.60480213582432e-38)
(-0.0677588904279194 -0.00397067201621645 -4.9235163885323e-20 -4.72637989594964 0.0771362361446155 -7.18746992646477e-18 -1.83432660270398e-20 2.91997488211808e-22 -5.20644640498986e-38)
(-0.0378272709821542 -0.00105589507286003 -3.55073226415914e-15 -5.37828700336878 0.0422158208677068 8.96608175882692e-17 9.77188050323159e-21 -6.99072034081332e-23 2.60335917717382e-38)
(-0.0288724794153117 -0.000135457646221132 -3.615044899791e-15 -5.86319175220174 0.0330562304361017 9.64564960708514e-15 -3.35173088222137e-15 1.89087857104784e-17 5.57297632517105e-30)
(-0.0229205098583697 -0.000102313489713482 3.5515490124086e-15 -6.24452304169482 0.0263949926296528 8.96318462510573e-15 -3.57941662003552e-15 1.51196085704368e-17 5.08620318537439e-30)
(-0.0184532535075779 -8.00920626555345e-05 3.61502157950281e-15 -6.54599235058837 0.0216217950431006 -7.78862012252691e-17 1.28045446337321e-20 -2.61307727544783e-23 1.22328067120085e-34)
(-0.0150565380889456 -7.08353175203855e-05 1.34752848182686e-21 -6.78947636050351 0.0178654380689548 2.82434170166797e-19 0 0 0)
(-0.012310094933382 -6.39457956561522e-05 -2.5411359238273e-20 -6.98582942786991 0.0148616288179339 2.3103497794724e-19 1.43550458933304e-20 -1.88596694242164e-23 -9.56611623099439e-43)
(-0.0100542102269373 -6.06864566839579e-05 -3.79349418134418e-15 -7.14428232562957 0.0123473028767363 5.43603064028529e-17 -1.43550458925565e-20 1.88596694225711e-23 9.56611597595447e-43)
(-0.00812963609011108 -5.87868596905718e-05 -3.88647978992303e-15 -7.27054380585888 0.0101876805748633 9.2078211904153e-15 -4.00099440936453e-15 5.60718653397155e-18 5.1014995785158e-30)
(-0.0064543724941106 -5.80828169314588e-05 3.79346874171532e-15 -7.36908797175064 0.00827912779036769 9.01097208599394e-15 -4.06137274598879e-15 4.56219011364171e-18 4.93989578109636e-30)
(-0.00496184673977939 -5.79369587640402e-05 3.88650520128237e-15 -7.44309440430209 0.00655795745967105 -4.19869636322963e-17 0 0 0)
(-0.00360997796672777 -5.81855652047795e-05 -8.33391912564894e-31 -7.49504091663173 0.00497734058579712 5.98015012015671e-33 0 0 0)
(-0.00236828809132921 -5.86549127305879e-05 3.70442979992949e-21 -7.52684115945365 0.00350557685838285 -1.99363383102428e-23 -8.32440002886069e-31 3.87657852037656e-34 2.15421509420752e-61)
(-0.00121841606324268 -5.92338354717718e-05 -3.70430946291538e-21 -7.54008049896891 0.00212097928640532 7.58222687861827e-20 1.95002659229755e-21 -6.1657761991286e-25 -5.0900769782249e-46)
(-0.000149176474812567 -5.97039152743702e-05 -3.7044297999293e-21 -7.53614853049859 0.000812116563592089 -5.41869020919134e-20 -1.95002659229755e-21 6.16577619912859e-25 5.0900769782249e-46)
(0.000844273556799622 -5.98832232649384e-05 3.70430946374856e-21 -7.51630486466672 -0.000424418551692504 -2.15980178599211e-20 0 0 0)
(0.00176092310956755 -5.96912101321456e-05 4.05533148194388e-21 -7.48180518034894 -0.00158607735541673 7.274935921311e-24 0 0 0)
(0.00259581506962925 -5.90896239550849e-05 -4.05642622302416e-21 -7.43395431598514 -0.00266702541279725 3.67493328317108e-20 1.92865793142506e-21 3.91690485955498e-25 4.63062425404186e-45)
(0.00334067004109063 -5.80136120215215e-05 -4.05533148194397e-21 -7.37415246380443 -0.00365800599054129 -3.67883609537567e-20 -1.92865793142493e-21 -3.91690485955473e-25 -4.63062425404156e-45)
(0.00398384978928585 -5.6402425023853e-05 4.05642622302439e-21 -7.30394557351659 -0.00454577525920591 2.18306993992499e-23 0 0 0)
(0.00451126069019346 -5.42200204896979e-05 0 -7.22506383598065 -0.00531462166832073 1.98039809798798e-19 0 0 0)
(0.00490737745347965 -5.14688273924706e-05 0 -7.13944076372093 -0.0059468027818283 -1.98400952621004e-19 0 0 0)
(0.00515553571630364 -4.80976151595274e-05 0 -7.04921832547988 -0.00642442539151095 0 0 0 0)
(0.0052418997482382 -4.42837539343814e-05 0 -6.95673776024777 -0.00672824684203174 0 0 0 0)
(0.00515840555650926 -4.0006925645147e-05 0 -6.86442944710693 -0.00685130299958674 0 0 0 0)
(0.00490545474806415 -3.56188132174913e-05 -3.91215250203728e-20 -6.77468784651818 -0.00678898758430519 -7.01808443995807e-22 0 0 0)
(0.00454531854293982 -3.16768885004359e-05 3.91406041340335e-20 -6.68951159907218 -0.00659683623634147 -3.53886511577453e-19 -1.4016490976659e-20 -1.73387792542726e-23 6.45619009134698e-43)
(0.00429585324570418 -3.7025986231104e-05 5.84914801949209e-15 -6.60897358203495 -0.00638027520640246 1.26269530104436e-16 1.40164909766585e-20 1.7338779254272e-23 -6.45619009134676e-43)
(0.00398818694055085 -2.76147988623562e-05 1.18869112180491e-14 -6.52938793075708 -0.00660676219747622 -1.40172588187466e-14 3.60108476588901e-15 3.64535577301933e-18 7.65087452920036e-30)
(0.00514787612018927 -5.16673084159903e-05 1.89417488872731e-16 -6.448023755812 -0.00742923743264681 -2.9907882000799e-14 7.10247871819696e-15 8.18237488383926e-18 3.29655159662748e-29)
(0.0138091521206904 -0.0014225326100277 -1.18852911502384e-14 -6.31088012885477 -0.0141302880611182 -1.59766864610444e-14 3.47014325275991e-15 7.75221286224943e-18 8.88883865995127e-30)
(0.0641540730647874 -0.00616573509137 -6.0386714159023e-15 -5.99640864814546 -0.0683493663934417 -1.65969719075533e-16 7.29283358249643e-19 8.28909178504647e-21 4.23024410858066e-37)
(0.244876687521689 -0.00112873079697908 -1.26214061949718e-17 -5.66374436077944 -0.240433467047602 -3.82673236678551e-19 0 0 0)
(0.426425695189225 0.020892973239597 7.78734624205859e-18 -5.51012993491869 -0.419629759444287 -1.02124699198537e-16 -5.37629501104841e-18 -4.09085478256021e-19 -9.96321839350683e-35)
(0.607085533600546 0.0557908176858907 5.97390066638162e-15 -5.40455248927713 -0.597406299476087 -6.72044892947135e-17 0 0 0)
(0.783088520704436 0.102443327019219 8.10223220601234e-15 -5.31681129713541 -0.770556883499914 -1.54617483767418e-14 2.6815384071638e-15 3.88504377610256e-16 7.67889720227781e-30)
(0.951638677418606 0.159734878300097 -2.94907366956718e-15 -5.22532203333896 -0.936207874325477 -1.76481565347671e-14 2.62059283104859e-15 4.69470424726177e-16 8.97965010690966e-30)
(1.10909586835827 0.225896981716256 -5.8345533296578e-15 -5.11760793517549 -1.09056384322944 -6.48515310881036e-16 -2.03956826252268e-17 -4.34422189628934e-18 -1.30005456836767e-33)
(1.25156866806272 0.298645417849613 4.76940815305833e-17 -4.98568573065007 -1.22985786359743 9.77603972606352e-19 -2.17053384021845e-20 -5.45673933580008e-21 -2.64311637862333e-41)
(1.37466823959986 0.37500891192994 -1.62554451575393e-16 -4.82292356077598 -1.34962299691301 5.77311348850439e-16 2.20570478716553e-20 5.5451593761272e-21 2.68594496954646e-41)
(1.47367373525346 0.451414403203982 1.8366645933124e-16 -4.62402518204356 -1.44528323997807 -5.84042308389133e-16 2.05574051356087e-20 6.40675145244163e-21 -3.39682870220281e-41)
(1.54343727607194 0.523537826434726 2.06441224701081e-16 -4.38447879522284 -1.51176257851465 -5.94808568511365e-16 -2.09722645247084e-20 -6.53604311041792e-21 3.46537851532252e-41)
(1.57930505308612 0.58659179959275 9.48058800154443e-20 -4.10326502875505 -1.54427949664656 3.9268298354761e-21 0 0 0)
(1.56933497674135 0.629903356968505 -4.88343950837995e-17 -3.77595656358123 -1.53139686159907 -2.01017609959272e-18 0 0 0)
(1.50138999214835 0.642277483226895 -2.38682401918445e-17 -3.38823144655411 -1.46138604514758 1.73352925599165e-16 -1.43843748261225e-17 -6.20323912917407e-18 7.26839256061517e-34)
(1.36912454527154 0.617152655556311 -1.60834667696161e-16 -2.92657137736188 -1.32813994971476 4.60874244144531e-16 6.83703907734983e-21 2.89687352778069e-21 -1.87405249597125e-36)
(1.16867025784945 0.550146071411517 5.67176314869357e-16 -2.38226189719203 -1.1281409431167 -1.304909638859e-15 1.02566433300963e-17 4.85712087474758e-18 5.61436748911273e-33)
(0.898973140988971 0.4392597777079 3.25176830494686e-16 -1.75022571143251 -0.860420650073933 -6.66027665651467e-16 5.70063393183671e-21 2.46543488951278e-21 1.41201517342702e-39)
(0.56056526546254 0.284662758593504 -9.85844621156522e-17 -1.02605629551799 -0.52583354950691 -2.15480313766309e-18 0 0 0)
(0.158476234567506 0.0899159874719627 4.92629255692322e-16 -0.211118338292705 -0.129205830649719 -9.66501540289057e-16 3.07118865233496e-22 -6.21034606910786e-24 4.03001474068445e-36)
(-0.301515711646175 -0.13952092996371 9.97304520308074e-17 0.694078038658665 0.323257022518439 2.89212761551674e-18 -3.13909787500447e-22 6.3476674198302e-24 -4.11912524458608e-36)
(-0.800691173867986 -0.391943122280426 9.39980339229455e-17 1.66438545629517 0.814574802657481 2.81631887934219e-18 0 0 0)
(-1.3304944690845 -0.662661015504413 2.64135373023073e-14 2.68256929671855 1.33576624181584 3.31802670076424e-16 -2.34884870708792e-17 -1.16960110377422e-17 3.48577340043355e-33)
(-1.89694540688758 -0.956642752105591 8.11511758715272e-14 3.75379344069435 1.89317428854094 -1.08543772125805e-13 -9.37554019150583e-15 -4.72854216144447e-15 2.68912279469671e-28)
(-2.50629374647209 -1.27920608706767 3.07770468355769e-14 4.88252227070172 2.49285201024191 -1.12022919600197e-13 -1.2220107199438e-14 -6.23912536048088e-15 2.82176170776332e-28)
(-3.16936347547076 -1.63825677246863 -2.51874099476365e-14 6.08135404599701 3.14522648252498 -1.93782201058119e-15 7.45741409515492e-21 3.85770632841969e-21 -5.7611126373854e-40)
(-3.90021096926617 -2.04401843316687 7.87118232608837e-16 7.36775869150779 3.86410786897938 -1.31499022037465e-15 -6.51067647698952e-17 -3.41456655724312e-17 1.16314068705658e-32)
(-4.72029959461438 -2.51102338680445 1.87712776485496e-16 8.7713502872695 4.67001606887992 -3.50644249415836e-16 0 0 0)
(-5.65863074398035 -3.05873846976401 -8.41390369210622e-17 10.334684228071 5.59135283692696 8.19672355469626e-19 9.19718084077176e-17 4.9758871536078e-17 1.7989547900623e-35)
(-6.77673772029492 -3.72439932764539 6.89219708183255e-17 12.1586311280758 6.68587902132521 5.44034842908699e-19 -3.85162201160333e-21 -2.0800372654705e-21 -4.4632614109816e-37)
(-8.13750041046781 -4.52232367506501 8.91886484939805e-16 14.4215681481074 8.0121414724538 -1.45815648236e-15 -1.29270462909195e-16 -7.18180889936233e-17 1.30680944695876e-32)
(-9.66739542133306 -5.36361352306035 -1.15006596958559e-15 17.1538315707658 9.5045458754819 1.89318073670084e-15 0 0 0)
(-11.2802654725381 -6.1589062021201 5.47193903015504e-16 20.3346505350199 11.0761362755913 -1.00397434280647e-15 6.54104445708093e-21 3.38901010534071e-21 3.54811717807021e-37)
(-12.897674712757 -6.82413993640811 -3.28988784657656e-16 23.9986287753926 12.6524515867057 6.82175171590754e-16 9.86129174255378e-22 3.41626045640719e-22 3.06736655174136e-37)
(-14.4235534512484 -7.26725643949035 4.71160285202774e-17 28.2006850002208 14.1374196856357 -1.92324560443305e-16 -2.47094530468709e-16 -1.23867907079683e-16 1.68805878823258e-33)
(-15.677251102127 -7.36461705669619 -4.28976243811974e-17 32.9251555733278 15.3572976889393 6.81304888102995e-19 -1.81138113724091e-20 -8.44055092461402e-21 -6.36750240295275e-37)
(-16.3874879180445 -6.97299221355183 7.05495620614796e-18 38.0920996245159 16.0431829394051 -1.06727442782648e-19 -2.31088878975778e-20 -8.73007515088585e-21 -1.10760306846313e-37)
(-16.1132345831787 -5.97487531496179 -4.14459272877676e-17 43.1959517986909 15.7731210166933 1.10351820373778e-16 -1.79580211039695e-16 -6.55658058588866e-17 -4.58710751097341e-34)
(-14.3512809691246 -4.38088356657335 -4.99069316346928e-18 47.1454533305748 14.0499903387833 1.07567980234588e-19 0 0 0)
(-10.7287326052644 -2.49356443440097 2.26739851266486e-18 47.2536346107317 10.5467724014936 -1.0133859793586e-17 1.88478169874223e-16 4.20601411502056e-17 -4.04759431955618e-35)
(-6.76112892254434 -1.12152352060569 5.10697786165293e-18 43.1440134409797 6.66166051299833 -4.69751598685178e-17 3.4958123857862e-21 1.83525243126425e-21 3.34555417595136e-38)
(-3.63306307354931 -0.407622007478005 -3.12676734934573e-18 36.925541334833 3.59893040113204 2.79968939946029e-17 2.77511877088063e-20 3.0056276302952e-21 -4.52710468839894e-39)
(-1.65132966792889 -0.121011417320749 -7.65599165524087e-19 30.8224821715332 1.63114279187959 1.6251167085312e-17 -1.50170428907229e-17 -7.94661052440348e-19 -7.91125468885005e-36)
(-0.448281098760964 -0.0258371979253953 5.09981994608699e-19 24.6433620069629 0.462198484022052 2.70052081870659e-18 0 0 0)
(-0.0689332081814462 -0.00478714614845275 0 20.2671098297254 0.06154102707821 -9.98920085260875e-22 0 0 0)
(0.00921494981106253 -0.000265648578824153 8.09900260098253e-24 19.4819252473417 -0.0140762866089607 1.0102624872405e-21 0 0 0)
(0.062526694539092 -0.00240502305257274 -4.61898886678023e-23 21.2476045248629 -0.056435989788299 -1.48805060855339e-22 3.61240384509069e-21 -9.55453933558556e-24 -1.41236425453817e-46)
(0.111907372506895 -0.0108629467328823 2.99173408150875e-20 21.7548636690373 -0.111047629282663 1.0009498788529e-21 -3.61240384509061e-21 9.55453933558534e-24 1.41236425453814e-46)
(0.285326895968078 -0.0383992018020164 -8.81688561741232e-20 22.6359751035841 -0.296901170914603 -8.25071454976282e-19 -5.4257537710732e-18 7.02033438979973e-20 -5.72456170903665e-39)
(0.7950069546801 -0.0821492334950077 4.87973792669523e-19 21.9648139277659 -0.77964697701107 1.55979536007418e-18 2.08370119843542e-17 -8.07284128725154e-19 5.68001610248548e-37)
(1.24707903689036 -0.132366649744882 -5.04627614727716e-20 18.7420350057655 -1.24900749998645 -1.39788177378899e-18 -3.40787328274439e-17 2.52004210885703e-18 -6.7667051104695e-37)
(1.35202221952284 -0.158145660351358 -7.20191870323462e-18 13.0270974229924 -1.32506307810228 -1.64796660412406e-19 0 0 0)
(0.7228167246452 -0.0526906505243215 -1.76380062208528e-17 5.81512732858715 -0.682820722033787 -7.8980090929336e-17 7.9876640807154e-18 -1.27269077550015e-18 -1.33659226823431e-34)
(-0.461646771078138 0.256075401319162 6.80710279894485e-18 -0.386374948643684 0.510816445609308 1.41742426663388e-19 5.49397927482682e-21 -2.02758866034999e-21 5.05979302392999e-43)
(-1.3435316166584 0.573209188128686 2.07506283903203e-17 -3.31668387486842 1.38530942864666 5.59909429990669e-17 -5.50221988193274e-21 2.03062990981354e-21 -5.06738238025292e-43)
(-1.66131186948603 0.754164346987348 6.08782638335791e-21 -3.85452159974214 1.69918015448397 1.14073094313967e-22 0 0 0)
(-1.74517619228623 0.852547673610526 -6.2070516866449e-17 -3.71288342518198 1.77583778714519 -1.29274684411037e-16 6.3791816990812e-21 -3.13578899489899e-21 2.80459860007872e-41)
(-1.68284937593386 0.870808178802369 2.05307786628394e-16 -3.35224458753969 1.70888376383729 3.99811558997245e-16 -9.12820286782787e-21 4.57360316693785e-21 -5.27753143406499e-41)
(-1.57563487503324 0.851744069066687 -3.45471870552768e-17 -2.98442940673498 1.59669584954926 -1.96395367575277e-19 2.78727898605286e-21 -1.45499556294723e-21 2.46600005160941e-41)
(-1.45993681963182 0.8132190189 -5.22070123581891e-16 -2.66889102611821 1.47710888556774 -9.99575594243813e-16 -2.58040691611929e-17 1.42087128341805e-17 1.33367737166171e-33)
(-1.35279279883231 0.765206927469977 4.88623452826181e-16 -2.42298791747945 1.36680827742887 7.33293590508936e-16 2.32195467923569e-17 -1.30303302994146e-17 -1.20662042722254e-33)
(-1.25313321131916 0.709243491064476 1.00309864993094e-16 -2.23251662429297 1.26450572826969 3.08656384084486e-16 2.11741847268289e-17 -1.19292896686143e-17 -1.23101064888745e-33)
(-1.16458905193557 0.651340985207746 7.94248005465756e-17 -2.09177105297878 1.17369433020123 2.8308948148361e-16 -3.8284436675242e-17 2.14177305277288e-17 -4.0565747700456e-33)
(-1.09611042489835 0.603749329207075 3.66828254992776e-16 -1.99599419683281 1.10381780368065 4.38176482875723e-16 -3.62569126028681e-17 1.99836851321633e-17 -5.49242085636497e-35)
(-1.04469716481853 0.567017587246631 -2.30653898558555e-17 -1.92923263135539 1.05120209392349 -1.21486747087033e-16 5.2550715458945e-17 -2.85056215764239e-17 -9.51667487739062e-33)
(-1.00235500215724 0.536621317043549 -3.80608222522327e-16 -1.87598822794266 1.00796080427304 -4.66464438480083e-16 0 0 0)
(-0.968833878191246 0.512641769824345 -4.27572943582525e-16 -1.83420041158637 0.973605453611371 -8.08865118645272e-16 -1.65742512221949e-17 8.74615761145229e-18 -1.29999241687073e-33)
(-0.9444213729381 0.495137175045892 9.37468236962715e-17 -1.80432875081263 0.948420154584042 -2.61826430710797e-18 -1.19342887170236e-20 6.23312534507903e-21 2.11273866387122e-36)
(-0.930638007989831 0.48480405263543 9.60087545616023e-18 -1.7892793894348 0.933919569266367 1.7643056552259e-17 1.59441019678163e-17 -8.27085546783567e-18 -4.17215960339025e-33)
(-0.928776359955399 0.482076733888649 -5.17481826435243e-16 -1.79208935262463 0.931401987674794 -8.10465854004193e-16 2.94136291188913e-22 -1.26466312788726e-22 4.1693996259475e-36)
(-0.938495941046644 0.486285255024751 2.39520984687431e-16 -1.8139386313446 0.940813573119565 4.69810854996119e-16 -3.18681182006826e-17 1.6461547289144e-17 -1.10570099954108e-34)
(-0.955983388100591 0.49408827593129 1.59037160408148e-14 -1.85029706405482 0.957901494946983 2.98706802752391e-16 -1.61689846780631e-17 8.37049931482277e-18 7.19612728611588e-33)
(-0.975753904909016 0.500268701749136 6.69189723776103e-14 -1.899643726972 0.97739334442013 1.00060446207416e-13 4.75907125524784e-15 -2.42446581024336e-15 -1.12121432143978e-28)
(-0.997239893902975 0.503686573816589 3.65543718298424e-14 -1.96544716120273 0.998661182112885 1.03904598236133e-13 4.88440081031488e-15 -2.45408429880512e-15 -1.03602682420313e-28)
(-1.0186871017053 0.502946409931307 -1.55326217208843e-14 -2.04769353086101 1.01997657290317 5.77615226699307e-16 0 0 0)
(-1.03724365069199 0.496211400130845 -1.1167804374013e-16 -2.14430109321749 1.03849619387204 -1.72857725900154e-16 0 0 0)
(-1.04953352182232 0.481659594022634 -8.44660308555735e-17 -2.2522742168455 1.05080324946313 -1.84822442721069e-16 -9.62112280385936e-18 4.42357362796933e-18 -3.20614670378863e-34)
(-1.05206168806631 0.457871152070032 -1.63687941922957e-18 -2.36837184113297 1.05342230793995 -4.30323092597734e-20 3.05871852951406e-20 -1.30392135962209e-20 2.17737544637025e-36)
(-1.04249057803106 0.424589084023536 2.40430243853386e-17 -2.49052955862207 1.04369754614489 6.10701066955327e-17 -1.04875503963054e-17 4.32609680085463e-18 -3.20152249483897e-34)
(-1.02088964735974 0.383594977022391 9.4226792226674e-17 -2.62143954252541 1.02183140319976 2.53114501930986e-16 0 0 0)
(-0.989742326077974 0.33863439102011 1.14944675513555e-16 -2.76538041925966 0.990655698501888 2.41869844161499e-16 -2.27350217120051e-17 8.06806702562515e-18 -7.19341313252841e-35)
(-0.949556518690834 0.291947044124245 -1.2520918470826e-16 -2.91889874032822 0.950315184161029 -4.99690178939079e-16 2.37462162221396e-17 -7.65305814981543e-18 9.63103683595683e-34)
(-0.897443169436624 0.243664063361992 1.35939553403761e-18 -3.0751139886699 0.898125332774101 3.71618536859613e-19 3.55955065282648e-20 -1.07989079900608e-20 -2.11164016623605e-36)
(-0.832415043180431 0.195004301664663 -4.10455600571631e-15 -3.23008108930994 0.83295198931247 1.06935519593787e-16 1.30238955812072e-17 -3.28770086872962e-18 -2.43919520282356e-35)
(-0.753995401464762 0.147427169347116 -9.7446556152298e-15 -3.38082758125013 0.75434495015511 -2.57756758927938e-14 -1.71534413745626e-15 3.7439854744145e-16 -5.00967795434341e-30)
(-0.662743406330271 0.102692007026105 -7.63169738366461e-16 -3.52629322607565 0.662801080207388 -2.68781486684776e-14 -1.76694900447454e-15 3.24658768316031e-16 -4.36114529628554e-30)
(-0.5603133410926 0.0626429562731187 4.06385797080565e-15 -3.66857584163808 0.559788199365553 -1.6244667215083e-16 2.16285904832703e-17 -3.24654833797403e-18 -9.12973630785823e-34)
(-0.447943922444726 0.0287690535057754 -2.71399482826774e-17 -3.81361937785551 0.447395106755362 1.25800679660725e-16 -1.49304873318045e-17 1.72522397839511e-18 -2.74336913826504e-35)
(-0.329449170454504 0.00294477602550898 2.97164540348224e-17 -3.97600768668797 0.32892253452369 1.76372170488812e-16 -7.78008888786682e-18 6.26552733520548e-19 5.31422580335486e-35)
(-0.222856263727266 -0.0117244320992012 8.29708430326756e-18 -4.21256024396632 0.214828136301212 -4.47798985647409e-19 2.14542440008833e-20 -2.09910363500981e-21 5.42045533073421e-37)
(-0.12132632804887 -0.0113938685667699 4.67700324365449e-20 -4.58082939950447 0.122220048247966 6.9318590566407e-18 -2.94242356958696e-21 -3.99072855170936e-22 -1.65837871592026e-41)
(-0.0907287091633232 -0.0039332481129797 4.7765501531838e-15 -4.99238186779874 0.0863198955835413 -1.20156666992105e-16 2.79619409340013e-20 -3.75143120274443e-22 -1.01897272764135e-39)
(-0.069085652380517 -0.00166622635702235 4.78341605805249e-15 -5.29767757309866 0.0660095093751858 3.24203888466462e-14 3.25212337776633e-15 -1.83343768217362e-17 -5.41244183250865e-30)
(-0.05429386305656 -0.00120164121179241 -4.77658242964712e-15 -5.53126224115062 0.0513332330268052 3.32005197172459e-14 3.43544816762964e-15 -1.44982193550866e-17 -4.87228740428156e-30)
(-0.0431694769990638 -0.000892485619104886 -4.78341517168044e-15 -5.71007765368148 0.0406398521310909 1.02989014492038e-16 -3.63603159046839e-20 1.23999129955097e-22 -5.70121684478727e-42)
(-0.0346754511227797 -0.000699738751320323 3.2479168567077e-20 -5.84837245518121 0.0323908225094257 9.32051868224655e-21 3.63603159046834e-20 -1.23999129955095e-22 5.70121684478718e-42)
(-0.0278022590077331 -0.000564830151817836 -1.52768141696122e-20 -5.95396762156008 0.0258260990047617 -4.68780964227422e-19 -7.45478807968356e-31 1.58582249493975e-33 2.46076866067087e-50)
(-0.0221279229844547 -0.00047165980641335 4.98142008770684e-15 -6.03290758628976 0.0204221934597315 -7.10177281229048e-17 1.95610584872777e-20 -3.36615091588253e-23 -8.1305096648459e-35)
(-0.0172738708075399 -0.000404343507577171 5.066394585827e-15 -6.08915509684349 0.0158500635232921 3.46474866166421e-14 3.87176560672453e-15 -5.42453816589267e-18 -4.94050040890174e-30)
(-0.0130361731182112 -0.00035492404249108 -4.98143776182206e-15 -6.1257497648739 0.0118892984291685 3.56132449811712e-14 3.90728687992918e-15 -4.38746967627867e-18 -4.74803724368724e-30)