/*--------------------------------*- C++ -*----------------------------------*\
  =========                 |
  \\      /  F ield         | OpenFOAM: The Open Source CFD Toolbox
   \\    /   O peration     | Website:  https://openfoam.org
    \\  /    A nd           | Version:  7
     \\/     M anipulation  |
\*---------------------------------------------------------------------------*/
FoamFile
{
    version     2.0;
    format      ascii;
    class       volScalarField;
    location    "20000";
    object      k_conv;
}
// * * * * * * * * * * * * * * * * * * * * * * * * * * * * * * * * * * * * * //

dimensions      [0 2 -3 0 0 0 0];

internalField   nonuniform List<scalar> 
15600
(
-2.37514781109424e-06
-4.43046081009127e-06
-1.53885517531859e-06
-2.76173003221709e-07
-2.71124564865133e-07
-1.87251106601351e-07
-3.07208901118562e-08
2.43117135686609e-08
7.92450696917541e-09
-1.40736518305273e-08
-3.30802464802173e-08
-3.27561955720219e-08
-2.21676616257838e-08
-1.21701212365459e-08
-6.42381754234175e-09
-3.4003081283732e-09
-1.21921051484287e-09
2.240640356612e-11
-3.54036564286694e-11
-8.15066202435127e-11
-1.36228265968908e-10
-2.08957644786929e-10
-3.07553534854087e-10
-4.37324967120602e-10
-5.9985241701912e-10
-7.94583466317631e-10
-1.05247792735635e-09
-1.39191086966619e-09
-1.82133737301032e-09
-2.34925409064141e-09
-2.97651009131665e-09
-3.70027628845858e-09
-4.53182569028488e-09
-5.56252803688305e-09
-6.82049368473742e-09
-8.15154941162416e-09
-9.49812853818819e-09
-1.07725159126359e-08
-1.18824653355195e-08
-1.27695218346773e-08
-1.35363356423578e-08
-1.46472866820849e-08
-1.69939515246207e-08
-2.42298200827099e-08
-4.59459393326251e-08
-5.36811135381192e-08
-5.48455890691513e-08
-5.50200579698806e-08
-5.49621640124462e-08
-5.4452624220698e-08
-5.37583268425983e-08
-5.27982732210448e-08
-5.16442056839595e-08
-5.02879330727969e-08
-4.87686095157063e-08
-4.71444444597571e-08
-4.54602030564995e-08
-4.35349301263897e-08
-4.0651387368619e-08
-1.07957129972746e-07
-1.85301122000523e-07
-2.59087909002973e-07
-3.27455992545487e-07
-3.88317826396119e-07
-4.39524166820523e-07
-4.78980074739963e-07
-5.04859363955506e-07
-5.1566025963633e-07
-5.11379099504049e-07
-4.92810382904295e-07
-4.66069116395819e-07
-4.47049275817611e-07
-4.75156024091663e-07
-5.56044382491149e-07
-1.27438963946539e-06
-2.76092971611435e-06
-1.65460413319896e-06
-9.39391900239338e-07
-7.77281319597581e-07
-8.12202728980668e-07
-9.91703415716387e-07
-1.26526328013554e-06
-1.63209117980568e-06
-2.07593464849831e-06
-2.60349358001348e-06
-3.19007608820502e-06
-3.80491514163009e-06
-4.5653741875089e-06
-5.52503841107708e-06
-6.61794577574429e-06
-7.77333925957021e-06
-8.90702077307857e-06
-9.95900530916784e-06
-1.07940069934092e-05
-1.13130770035386e-05
-1.11716507190668e-05
-1.08703936968268e-05
-1.0506059710287e-05
-1.01502058028266e-05
-9.89332430243002e-06
-9.77715436027826e-06
-9.9390731629373e-06
-1.06128889883349e-05
-1.26348954955699e-05
-1.57035298578446e-05
-1.78848953172234e-05
-2.02310745704336e-05
-2.27309357090336e-05
-2.56615460090408e-05
-2.80283985471814e-05
-2.84490328062991e-05
-2.10493821509928e-05
-1.00460011805628e-06
-1.59678048991568e-06
-1.40694242333571e-06
-1.05870775083366e-06
-6.72473721710718e-07
-4.36940070828744e-07
-1.39519186830915e-07
-9.71298720703713e-07
-3.97547534568947e-05
-8.12736541225578e-05
-3.48200594591119e-05
-1.91194327619654e-05
-1.87315781054729e-05
-1.3902232007986e-05
-4.9933691365189e-06
2.60969052250381e-06
7.64614152773487e-07
2.47327254006948e-07
-4.31533595438115e-07
-5.10095276893327e-07
-3.50678885683925e-07
-1.90083848308062e-07
-9.65982180521613e-08
-4.73245352017582e-08
-1.00246258409504e-08
2.92242524571096e-09
-1.95112282132638e-09
-5.99866468495432e-09
-1.08095548622461e-08
-1.71150948985718e-08
-2.54963425787534e-08
-3.6338388674945e-08
-4.98399444327379e-08
-6.64897187595283e-08
-8.82618468085691e-08
-1.1655594688112e-07
-1.52284078634959e-07
-1.96316892955094e-07
-2.49002735563661e-07
-3.10519852640284e-07
-3.8225993534932e-07
-4.69282502147031e-07
-5.72542428364689e-07
-6.83517663753917e-07
-7.9739398167946e-07
-9.07181775782931e-07
-1.00548744511595e-06
-1.08782440214598e-06
-1.16084009358536e-06
-1.26111119587832e-06
-1.48778333563596e-06
-2.07536398935107e-06
-3.41179228469557e-06
-3.91850147804185e-06
-4.06201374201387e-06
-4.1302446145781e-06
-4.17448415475589e-06
-4.18238660160401e-06
-4.17398552889304e-06
-4.14381402837907e-06
-4.09826828110691e-06
-4.03739057195468e-06
-3.96488788035894e-06
-3.88619632084621e-06
-3.80530516790257e-06
-3.70638879588027e-06
-4.88739495672981e-06
-6.40711360379396e-06
-7.83866105554041e-06
-9.16327278247602e-06
-1.03493589811099e-05
-1.13644410820572e-05
-1.21785732896001e-05
-1.27676371414789e-05
-1.31184207769562e-05
-1.32339029072894e-05
-1.31515223063198e-05
-1.29529031425294e-05
-1.28344411901956e-05
-1.31625390965412e-05
-1.48227389867199e-05
-1.91360246480657e-05
-3.17032855542854e-05
-4.84560822956101e-05
-3.337525450689e-05
-2.3447230128294e-05
-2.24291150562852e-05
-2.48949828438775e-05
-2.99193235908819e-05
-3.67415262059395e-05
-4.52681885203204e-05
-5.52769889463679e-05
-6.67991301861879e-05
-7.95470978780812e-05
-9.33571435733069e-05
-0.000109821792335628
-0.000129503333277621
-0.000151253849540969
-0.000173811095720569
-0.000195770628228306
-0.000216021287747701
-0.00023251314463183
-0.000242488703397908
-0.000240786272349874
-0.000235978459762088
-0.000229912014918234
-0.000223857823709564
-0.000219376686860583
-0.000217455506055727
-0.000220505862873003
-0.000233184916762368
-0.000269198061604739
-0.000324214571197441
-0.000369992016607855
-0.000417257324333252
-0.000467444225756993
-0.000523891935436253
-0.000573840282210512
-0.000591385152766612
-0.000491411928602458
-0.000168474031134092
-0.000110788203812524
-9.35195335226524e-05
-7.18192461799319e-05
-4.66522612983217e-05
-2.96548871321824e-05
-1.02612516567974e-05
-8.66638397764328e-07
-0.000146025096839715
-0.000358969369967619
-0.000208600033370647
-0.000157997863988461
-0.000137278338335451
-0.000104884266576174
-4.35235249893246e-05
2.25280658503046e-05
1.15024613823623e-05
2.93406373487155e-06
-5.66060464712182e-07
-1.66836971198767e-06
-1.18307461658214e-06
-5.98601891141939e-07
-2.63201690424022e-07
-9.208770992402e-08
5.69193072619355e-08
5.21094043221083e-08
1.04620135092595e-09
-4.32811439699149e-08
-9.55712877041455e-08
-1.62790606342646e-07
-2.50003494573699e-07
-3.6070878809525e-07
-4.98545822104727e-07
-6.71398795794294e-07
-8.94553574039313e-07
-1.18042681949749e-06
-1.54032696892759e-06
-1.98490014215485e-06
-2.5200886224548e-06
-3.15020416733513e-06
-3.88602677864428e-06
-4.75890857348173e-06
-5.77566965968396e-06
-6.88051522373414e-06
-8.03109346171153e-06
-9.15651875686502e-06
-1.01819821911715e-05
-1.10511390321914e-05
-1.18038172591124e-05
-1.27694776837599e-05
-1.47531568493801e-05
-1.93885176681266e-05
-2.96036065607284e-05
-3.32761852420495e-05
-3.53741060190878e-05
-3.66917908254129e-05
-3.77777795066869e-05
-3.84730325933112e-05
-3.90139045392107e-05
-3.9338220448684e-05
-3.95275578716978e-05
-3.95846228602099e-05
-3.95513165506675e-05
-3.94872279403227e-05
-3.94452060071394e-05
-4.44469337719226e-05
-5.10903152245167e-05
-5.68394013353421e-05
-6.20008096815063e-05
-6.64884605624539e-05
-7.02219976265173e-05
-7.31367081741833e-05
-7.51990818858095e-05
-7.64254418976579e-05
-7.6908398720058e-05
-7.68538752920876e-05
-7.66521105114889e-05
-7.69680904466099e-05
-7.89552754622179e-05
-8.45070383109646e-05
-9.70165137747438e-05
-0.000120606129568763
-0.00015998145475798
-0.000193591008331978
-0.000158100464736071
-0.000136243323107555
-0.000143010496224666
-0.000162343307148678
-0.000190720292613314
-0.000225875314903553
-0.000267299417241929
-0.000314488059394337
-0.000367592431135971
-0.000426485013727614
-0.000491695660616464
-0.00056692763289844
-0.000652773029577971
-0.00074537741960857
-0.000840514511787728
-0.000933646815586827
-0.00102132793867831
-0.00109944146484542
-0.00114679781366156
-0.00115450341212124
-0.00115040504958204
-0.00114094022431005
-0.00113048600292636
-0.00112464704078271
-0.00112810167065894
-0.00115041575647519
-0.00121157833572129
-0.00136162807880165
-0.00158839089049639
-0.00180141992161503
-0.00201380189872605
-0.00223242326567964
-0.00246169283388618
-0.00267160322801317
-0.00276158597658171
-0.00249996706905547
-0.00147620043857348
-0.000951168112474743
-0.000705992494804864
-0.000514114037523938
-0.000317307275828896
-0.000194730092060536
-5.2429959358658e-05
-6.84408023991966e-06
-0.000147632064656761
-0.000648949758011327
-0.000563825993382869
-0.000528272027200485
-0.000373232849012301
-0.000288882860973129
-0.000153255155271289
5.9171447526396e-05
7.55933143493528e-05
1.81626506548598e-05
6.39450776661098e-06
-4.75905705449705e-07
-6.1580881794067e-07
9.39421720591043e-09
3.22769495310793e-07
4.40061747229264e-07
6.76948893742512e-07
3.66660171861581e-07
1.24602575154139e-07
-8.88262223031657e-08
-3.36942037387997e-07
-6.50976829863929e-07
-1.05202105405631e-06
-1.55553269941962e-06
-2.18336031215341e-06
-2.9711827621086e-06
-3.97510211999715e-06
-5.24281490221692e-06
-6.82551849322867e-06
-8.76906728877027e-06
-1.10955864710154e-05
-1.38123030107016e-05
-1.69276198501786e-05
-2.05260526293646e-05
-2.46298847375332e-05
-2.90339239657018e-05
-3.35766937061894e-05
-3.79525921317563e-05
-4.18504828379756e-05
-4.49960306888168e-05
-4.74323204108473e-05
-5.00927158658018e-05
-5.5191224377184e-05
-6.84712952451259e-05
-9.98583849369015e-05
-0.000107031066922473
-0.00011583291075349
-0.000121311909320591
-0.000126296664130681
-0.000129761365300663
-0.000132849628054031
-0.00013522560460256
-0.000137266888642089
-0.000138962292075242
-0.000140456144942216
-0.000141972959069234
-0.000153066430828723
-0.000164532395345791
-0.000171856758054808
-0.000177865385866733
-0.00018248477333159
-0.00018568691340263
-0.000187481103073013
-0.000187938423941967
-0.000187220679679147
-0.000185619822078983
-0.000183609208282039
-0.000181916479012083
-0.000181615137851729
-0.000184257629131655
-0.000191974743552195
-0.000207496561568052
-0.000233260834955739
-0.000268680866427896
-0.000304692265490571
-0.000327887193416846
-0.000324042986196807
-0.000326008217139412
-0.000360203225294465
-0.00040986857590309
-0.00047017071580882
-0.000539202585951353
-0.000616338639459226
-0.000701594068210153
-0.00079565637941817
-0.000899932739796724
-0.00101560755768151
-0.0011439164411789
-0.00128399386905371
-0.00143168225305952
-0.0015825019757342
-0.00173204881728213
-0.00189090568868047
-0.00202287179347841
-0.00211643495848412
-0.00216335111150435
-0.00219751366584411
-0.00222600477353654
-0.00225373848456114
-0.00228744994836255
-0.00233461764863374
-0.00240878873725578
-0.00254129399287898
-0.00279880943032109
-0.00317313035678159
-0.00357311360526897
-0.00397092444292542
-0.00437541624342396
-0.00477184886084142
-0.00516551447128271
-0.00538824427097188
-0.0052896866926594
-0.00420283055419195
-0.00302371057508569
-0.00202494240938215
-0.00126961518652464
-0.000592889850783442
-0.000292424791354097
8.65149878225235e-05
0.000107192343596062
0.000138749785265425
-0.000651279563164233
-0.000906584635585094
-0.000914124815099596
-0.000374375493533947
-0.00015432718372152
-0.000141090657262
5.30871113418541e-05
0.0003064139046346
7.66934669888342e-05
4.19756089031529e-05
1.35982588499171e-05
7.99618132372047e-06
5.81923918864882e-06
4.31374135803875e-06
3.29740267604e-06
3.0035720491173e-06
1.59001488872903e-06
8.14840550503142e-07
1.41582344099803e-07
-6.23514024485382e-07
-1.57792959443828e-06
-2.78353231211111e-06
-4.28411647594801e-06
-6.14396646890865e-06
-8.44254984512329e-06
-1.13090136150186e-05
-1.48396563080061e-05
-1.91371812221923e-05
-2.42709919342322e-05
-3.02200617245698e-05
-3.68942475163511e-05
-4.41769648892948e-05
-5.21866530489834e-05
-6.09067469778591e-05
-6.98327841462335e-05
-7.8699026414081e-05
-8.68792509837891e-05
-9.38431122700196e-05
-9.9116954212406e-05
-0.000102788220003734
-0.000106381413375702
-0.000113952058292477
-0.000136286474123824
-0.000182798104084749
-0.000185595987802521
-0.000207981653847354
-0.000220307735029769
-0.000232085588441084
-0.000240109734434643
-0.000247362052736259
-0.000253023321978636
-0.000257982101839924
-0.000262219454574237
-0.000265966638646933
-0.000279969606676222
-0.00029181868948673
-0.000295598369860276
-0.000298008954329184
-0.000298802324774865
-0.000297990918803314
-0.000295639954407105
-0.000291878656549898
-0.000286930847763301
-0.000281147310511641
-0.000275049917650901
-0.000269382682683212
-0.000265172980850745
-0.000263773350431626
-0.000266888021998895
-0.000276377135036911
-0.000293765338753486
-0.00031826728130068
-0.000344374910646377
-0.000364650047130228
-0.000395885006893994
-0.000441389489898033
-0.000477996148655457
-0.000539056588674275
-0.000611212243668441
-0.000690806220582166
-0.000777089235339328
-0.000869819085682965
-0.00096956894580818
-0.00107742049809446
-0.00119546214950104
-0.0013236140901193
-0.00146015894067826
-0.00160384782050731
-0.00175196223778097
-0.00190173726205622
-0.00205831714540671
-0.00224258402347744
-0.00236857641529691
-0.00247226476908185
-0.00254151854658491
-0.00260302030493809
-0.0026616251619436
-0.00272114571000767
-0.00278669824296475
-0.00286535385329163
-0.00296828450283824
-0.00312447394217262
-0.00338653805537464
-0.00375537627410331
-0.00420287590887664
-0.00467125480155282
-0.00517139621996105
-0.00566481716498421
-0.00622879574163922
-0.00665876511847172
-0.00703951029195103
-0.00657104833527679
-0.00541483621364612
-0.00375101377481421
-0.00222972167894191
-0.000596336681630693
9.66489582912842e-05
0.000754136425590318
0.000600209102919223
0.00027705820777813
-0.000611815083764047
-0.0011415065453354
-0.00122840039020894
-0.000172461684727733
0.000604477133995877
0.000504051078497415
0.000369666850861286
0.000603538188688212
0.000251767535272657
0.000100550626287845
6.2639377246806e-05
3.86347423456528e-05
2.56888322285527e-05
1.73014917974702e-05
1.20969984252224e-05
8.33957427264102e-06
5.16102318746609e-06
3.21376114065555e-06
1.58958679888702e-06
-1.91649836829075e-07
-2.37058873110967e-06
-5.08627608663579e-06
-8.41515939078286e-06
-1.24541306875174e-05
-1.72787517927289e-05
-2.30694660698475e-05
-2.98836737994515e-05
-3.77737009088033e-05
-4.67081523839391e-05
-5.64780193411503e-05
-6.67962501664188e-05
-7.74390539023571e-05
-8.86900969217922e-05
-0.000100543379594133
-0.000112471614044448
-0.000124505676812643
-0.000135941759081743
-0.000146377500136678
-0.000155479207818787
-0.000163767705645868
-0.000173640172914925
-0.000190548599427191
-0.000224183123130944
-0.000269580351603371
-0.000270371687982729
-0.000307551273718583
-0.000324677564048822
-0.000340765674524056
-0.000350560442283119
-0.000358941542337095
-0.000364834341765643
-0.000369551452169868
-0.000373195985457273
-0.000381775335896144
-0.00039360868653725
-0.000392982471944741
-0.000391460235391652
-0.000388518946032419
-0.000384077295353541
-0.000378189505657717
-0.000370968161927328
-0.000362601152907924
-0.000353380441208253
-0.000343730900203488
-0.000334245707015966
-0.000325720926483542
-0.000319181994075919
-0.00031586612180411
-0.000317130528850829
-0.00032409359789407
-0.000336965053786428
-0.000353543745295432
-0.00036837175316777
-0.000384951235183208
-0.000439987255495794
-0.000515648563082936
-0.000576223686153786
-0.000655012138837439
-0.00074016905247103
-0.000829770205256274
-0.000923552234857019
-0.00102170150187457
-0.00112497371636031
-0.00123454615906029
-0.00135226793926601
-0.00147657077121773
-0.00160456076424623
-0.00173531224625915
-0.00186724525955444
-0.00199898695725171
-0.00217185588690068
-0.00232107721025411
-0.00243307039210734
-0.00252761558197025
-0.00259778157581575
-0.00266293957002941
-0.00272549342708585
-0.0027880350948373
-0.00285402582787095
-0.00292909137118322
-0.00302122316869011
-0.00315356328705921
-0.00336533169523062
-0.00366309684678232
-0.00406333466629718
-0.00451318472744349
-0.00502848619939609
-0.0055626143138563
-0.00624036262378877
-0.00684975420213378
-0.00764389412186042
-0.00779984442230298
-0.00732646727088109
-0.00582066539909959
-0.0041557939247876
-0.00167261777768365
-0.000277722061124897
0.000963132628541723
0.000998729209528222
0.000111221227252835
-0.00072818482290582
-0.0013557081246409
-0.00166262732938304
-0.000391544620275324
0.00125987904460538
0.00153146682697473
0.00128929155190409
0.00104401848733705
0.000680325377908339
0.000241043276079461
0.000175731321573799
0.000110512264869545
7.26466081867677e-05
4.78312791769279e-05
3.25721897518802e-05
2.04731581875065e-05
1.36341387288989e-05
9.52798708703655e-06
6.29431086444533e-06
2.92946624290659e-06
-1.06686812101913e-06
-5.94804193838926e-06
-1.17835742186661e-05
-1.86151557750162e-05
-2.64067770964767e-05
-3.53304140890864e-05
-4.52756002512236e-05
-5.61936417480997e-05
-6.79882988948474e-05
-8.04131309936153e-05
-9.32763097581109e-05
-0.000106594397453482
-0.000120894930677046
-0.000136111646912681
-0.000151925887969177
-0.000168633526704896
-0.000185458336077799
-0.000202241899319479
-0.000219010462746084
-0.000236943023621923
-0.000258999565516283
-0.000289846156464441
-0.000332730367282267
-0.000368403185023177
-0.00037184712966774
-0.000413697427635657
-0.000429671618898856
-0.00044428656088277
-0.000451613061444791
-0.000457310185317597
-0.000460308388647559
-0.000461966754648921
-0.000461140288825956
-0.000475419776257019
-0.000471121221558087
-0.000466537143450303
-0.000460916891644002
-0.000454013696217048
-0.000445803190321323
-0.000436354444846169
-0.000425795580742074
-0.000414331424109481
-0.000402267964848175
-0.000390035747378795
-0.000378213184028576
-0.000367543090337744
-0.000358928844716271
-0.000353378123005961
-0.00035184989090026
-0.000354882125400971
-0.000362041399157495
-0.000371344320473327
-0.000379693521934962
-0.000400168173599894
-0.000477278954749949
-0.000568606970485597
-0.00064490643192645
-0.000735342591013207
-0.000828664463577224
-0.000924327753600052
-0.00102212869212934
-0.00112257260745982
-0.00122641029784437
-0.00133475683285137
-0.00144896871761169
-0.00156651429503604
-0.00168425209676191
-0.00180161634933617
-0.00191778271785363
-0.00203244595425013
-0.0022299598124259
-0.0023324097923988
-0.00242934914000424
-0.00251252872590753
-0.00257756294231829
-0.00263879709481669
-0.00269646464759667
-0.00275198463513336
-0.0028074950801869
-0.00286714987442178
-0.00293647721211586
-0.00303342671695791
-0.00319009477313222
-0.00341739869910242
-0.00374996115410919
-0.00415162309024756
-0.00464276343220725
-0.00518191597026704
-0.00591254750944727
-0.00664121651186983
-0.00769361939589342
-0.00831041277360963
-0.0085166500353276
-0.00757009529196091
-0.00626428109110275
-0.00366860902417169
-0.00188259680214773
-4.82043969903999e-05
0.000621920570779355
-0.000402627482986697
-0.0010713502531052
-0.00163927882249983
-0.00214099366808289
-0.00100032313065443
0.00132780576019939
0.00226074700151384
0.0024712691682028
0.00182800451641569
0.00131143564658274
0.000497273464020658
0.000320964917496885
0.00023409723304891
0.000156257272603375
0.000103395759349017
6.8376288996023e-05
4.29332611279285e-05
3.01656979796899e-05
2.25782997574578e-05
1.69378824823e-05
1.14410062486898e-05
5.16427389362359e-06
-2.3139435993438e-06
-1.10113890961784e-05
-2.08337300848256e-05
-3.16301426317583e-05
-4.35876626454231e-05
-5.64268554476385e-05
-7.01183786674793e-05
-8.4665892521954e-05
-9.99772232182441e-05
-0.000116095538855633
-0.000133241323569265
-0.000151844473605618
-0.000171606271087182
-0.000192473698481252
-0.000214876138767921
-0.000238132172188768
-0.00026244119413924
-0.00028824547009443
-0.000317103767460734
-0.000351590117566011
-0.000393974392819588
-0.000441068855283039
-0.000466120032592355
-0.00047317145948952
-0.000511420331751095
-0.000523380419311111
-0.000533670049422082
-0.000537038818471784
-0.000538861275213457
-0.000538263257123064
-0.000536639073074331
-0.000542940944540521
-0.000538879330426366
-0.000531872526217398
-0.000524310532404821
-0.000515758968597686
-0.000506079128228826
-0.000495267613038722
-0.000483394536092312
-0.000470586259934863
-0.000457041595443132
-0.000443051899265494
-0.000429019302972955
-0.000415469137030512
-0.000403052369690416
-0.000392523046608763
-0.000384666349695857
-0.000380137326918498
-0.000379161510535501
-0.000381224255853277
-0.000385303377025622
-0.000391015930185151
-0.000417631046130495
-0.000510963901203138
-0.000610682816096418
-0.000697770551540685
-0.000796297866561936
-0.000895307463662706
-0.000995179158688717
-0.00109561378521039
-0.00119731774975188
-0.00130096651022065
-0.00140753895241643
-0.00151789449903258
-0.0016290024801557
-0.00173784972698341
-0.00184414411185452
-0.00194758333622729
-0.0020864294886396
-0.00224018867291344
-0.00233029347507898
-0.00241508407444916
-0.00248887676054216
-0.00254845492655233
-0.00260488334217874
-0.00265660155578304
-0.00270399834761772
-0.00274820306903006
-0.00279217014115794
-0.00283966135343058
-0.00290466190481088
-0.00301608259719623
-0.00318897834427897
-0.00346231864595143
-0.00381658092044035
-0.00427522836683865
-0.00480867010720424
-0.00556276259723898
-0.00637773905132017
-0.0075926878209341
-0.00855073338211364
-0.0095049567865785
-0.0088586618281817
-0.00789144644614589
-0.00555336184029437
-0.00374350183998686
-0.00170467193711345
-0.000470632952835175
-0.00129003468424771
-0.00166154928648102
-0.00208787500652524
-0.00261369183415124
-0.00168137763843819
0.00088322411329233
0.00255087985684595
0.00334865136504092
0.00312964004233726
0.0018159577576042
0.000906337357704286
0.000481498197726605
0.00038431599607901
0.000272727091454049
0.000181844846750712
0.000112756226292886
7.75895241875902e-05
5.64418822038643e-05
4.376006253868e-05
3.47054693450606e-05
2.64483729436934e-05
1.74441174583483e-05
7.00644795343456e-06
-4.85277429167554e-06
-1.79127141126207e-05
-3.20076057346233e-05
-4.73355676858547e-05
-6.34532431535014e-05
-8.03911730103756e-05
-9.82660502925838e-05
-0.00011714552570942
-0.0001372445638593
-0.000158841323018767
-0.000182102848130585
-0.000206596824278324
-0.000232612267924898
-0.000260678947482538
-0.000290347839119489
-0.000322120415713651
-0.000356663894684857
-0.000395428381858753
-0.000439910838964393
-0.0004898017464776
-0.000537723164236461
-0.000554214653338637
-0.00056363146284667
-0.000595144799460301
-0.000602846702774269
-0.000608418291653475
-0.000608015892802259
-0.000606205381265079
-0.000602375074010807
-0.000596491225764857
-0.000600748106122572
-0.000591584267164785
-0.000582450720041401
-0.000572707973789179
-0.000562071213027431
-0.000550447742078696
-0.000537839479666625
-0.000524308934517326
-0.000509969958932286
-0.000495001558823093
-0.000479664302104992
-0.000464314492520624
-0.000449408238858607
-0.000435494852146638
-0.000423186568905981
-0.000413088907047529
-0.000405665512116376
-0.000401048332165924
-0.000398976827157744
-0.000399598855716542
-0.000404881956875959
-0.000437535021195514
-0.000541833553575858
-0.000646283768072436
-0.000740987000858866
-0.000845359756799297
-0.00094859216629097
-0.00105161146330802
-0.00115397871451728
-0.00125650191313106
-0.00135975399673448
-0.00146454321693191
-0.00157129077717305
-0.00167677916350804
-0.00177827568307778
-0.00187567790984586
-0.0019690216609121
-0.0021400884394209
-0.00224622219018311
-0.00232686317023138
-0.00240237009320896
-0.00246900887828917
-0.0025240350704325
-0.00257633960111444
-0.00262290574351424
-0.00266324176534647
-0.00269770410771897
-0.00272834535631177
-0.00275763985116624
-0.00279669354117693
-0.00287335047130635
-0.0030064699633573
-0.00323358925610556
-0.00354906075834188
-0.00397835794901071
-0.00450625470976812
-0.00527391588877966
-0.00616113836997569
-0.00749273959738084
-0.00871906675493389
-0.0101455185763487
-0.0097794934349618
-0.00906607136518217
-0.00704790764147614
-0.00530736544223674
-0.00334388920425693
-0.00186381899354903
-0.00233430464443157
-0.00242018500416779
-0.00264315991963173
-0.00309311359282586
-0.00226422252089025
0.000118037204753519
0.00260607777483328
0.00369040230234171
0.0046859045358892
0.00226503648469276
0.00150384323341603
0.000717109071969336
0.000502531633622798
0.000371292915841843
0.000254678096088704
0.000174661437454163
0.000122751969986015
9.10440693249701e-05
7.15580811993044e-05
5.79358339558157e-05
4.62235949061808e-05
3.40821045333232e-05
2.04409381490811e-05
5.24712456903136e-06
-1.12235681452273e-05
-2.88723269877908e-05
-4.78298793816597e-05
-6.74951385648164e-05
-8.79479801499971e-05
-0.000109397299480846
-0.000132054027657952
-0.000156247456373102
-0.000182251088413885
-0.000209987368966863
-0.000239022109332579
-0.000269967012646113
-0.000303420939079
-0.000339176995794323
-0.000377891901373737
-0.000420219772118521
-0.000467151445228199
-0.000518907639297407
-0.000573150419385208
-0.000620407007398856
-0.000630658757196327
-0.000641081719698404
-0.000665768401594487
-0.000669839248621559
-0.000671236956563359
-0.000667686460927981
-0.000662846631557984
-0.000656547044281676
-0.00065152889821948
-0.000647652156063392
-0.000637042786607569
-0.000626302357510683
-0.000614982047197658
-0.000602873531957729
-0.000589902965736819
-0.000576068752117514
-0.000561419826210039
-0.000546050347890334
-0.000530110851127936
-0.000513821783607034
-0.000497485022878516
-0.000481482302914645
-0.0004662642380719
-0.000452320903288504
-0.000440126723629976
-0.000430049662865416
-0.000422277921155874
-0.000416970190357669
-0.000415398446792888
-0.000421349014993692
-0.000459123454594125
-0.000570399709054518
-0.000677554564594166
-0.000777664216426643
-0.000886326465078558
-0.000992788242318504
-0.00109823742787851
-0.00120208833153197
-0.00130517106500898
-0.00140794400845598
-0.00151103042419393
-0.0016144810798321
-0.00171509176927407
-0.00181047124903798
-0.00190063233438064
-0.00200179798021655
-0.00217863183153555
-0.0022511175528097
-0.00232418042788096
-0.0023926276805563
-0.00245388540975218
-0.00250532442551018
-0.00255435305556689
-0.00259677427370752
-0.00263134106581122
-0.00265780314628808
-0.00267756522323783
-0.00269211420557188
-0.00271053548715088
-0.00276076282027588
-0.00286482978905088
-0.00305677879487169
-0.00334211340950688
-0.00374774862465833
-0.00427310714181872
-0.0050526533514265
-0.00600614970131603
-0.0074343648208743
-0.00888183417639797
-0.0104155177589505
-0.0104470063908954
-0.00992000041850266
-0.00819989425158554
-0.00653331859257224
-0.00471497398119184
-0.00322413055407724
-0.0033616772486118
-0.00323560319764476
-0.00323765441103602
-0.00359040009315484
-0.00272251738855518
-0.000790079053691521
0.00256365869981799
0.00354672399475726
0.00608045044010162
0.0031547412682098
0.001779678883976
0.0010195367586343
0.000675544109827602
0.000493612042909208
0.000351745794979874
0.000245525763119884
0.000174912075823888
0.000130969203579203
0.000103164351596503
8.39099620375385e-05
6.81603873129043e-05
5.26770131725808e-05
3.58850904961694e-05
1.75210267261181e-05
-2.19349155997249e-06
-2.32819193133791e-05
-4.57473811977077e-05
-6.88757783968974e-05
-9.2782587118924e-05
-0.000117746877497886
-0.000144094499226222
-0.000172222358928691
-0.000202383152171893
-0.000234323168627608
-0.000267671867725314
-0.000303291135797305
-0.000341820418293172
-0.000383235897312098
-0.000428207717059136
-0.000477200799752516
-0.000530596220527798
-0.000587456075585228
-0.0006440991313158
-0.000690333534459988
-0.000696280452641222
-0.00070679671777289
-0.000725686233924571
-0.000726830808506659
-0.000724802661006591
-0.00071871813895027
-0.000711424481574519
-0.000702990780891459
-0.000701406011028932
-0.000688999776118592
-0.000677259622209589
-0.000665343948487913
-0.000652912215608218
-0.000639796427282852
-0.00062592775359659
-0.000611295313766674
-0.000595930228584053
-0.000579902098567212
-0.000563327566120024
-0.000546381767318612
-0.000529308645901957
-0.000512416214790101
-0.000496065046561545
-0.000480645749458962
-0.00046654577537604
-0.000454109844488787
-0.000443674259062421
-0.000435874329692165
-0.000432955098104276
-0.000440019064406699
-0.000481806478946023
-0.000597134976678944
-0.000705722547003305
-0.000809608409844959
-0.000921391090184379
-0.00103032938708791
-0.00113765669208818
-0.00124264370979096
-0.00134608007471691
-0.00144830271295694
-0.00154974646758983
-0.00165015356731846
-0.00174646103056617
-0.00183663824864394
-0.00192070769406102
-0.00206152380696795
-0.00218751249569128
-0.00225496931008852
-0.00232194847160371
-0.00238497234037471
-0.00244214666425272
-0.00249077760153652
-0.00253723150073207
-0.00257635495488591
-0.0026062435769937
-0.00262615980656396
-0.00263706839087126
-0.00263964766125954
-0.00264163323663283
-0.00267169723212432
-0.0027542067653743
-0.00291926697311145
-0.0031814198550482
-0.00356878258041359
-0.00409464420598348
-0.00488739613129052
-0.00590448153842207
-0.00742179362208069
-0.00905716145227002
-0.0106771313727337
-0.0109678252261185
-0.0105592980659277
-0.00908507289465085
-0.00749278023021407
-0.00580550554099112
-0.0044038123108686
-0.00428404378132113
-0.00404623216160863
-0.00385158352220077
-0.00409672268214315
-0.00309453262604699
-0.00168709131985506
0.00237807025300629
0.00305243574790421
0.00671816990299795
0.00449766328644434
0.00188538154667108
0.00141812865534532
0.000874015139877398
0.000633228584656134
0.000456665332623738
0.000322671690371113
0.00023174428003996
0.000174218397929398
0.000136828052371131
0.000111022525723131
9.0771642611429e-05
7.18970520466979e-05
5.22112934789425e-05
3.10763082691083e-05
8.53470469026617e-06
-1.56085644235635e-05
-4.12217546419137e-05
-6.75330690261457e-05
-9.46743779069533e-05
-0.000122966287967522
-0.000152812671603041
-0.000184642963537982
-0.000218692005237958
-0.000254593781296316
-0.000292053288014953
-0.000332101824927714
-0.000375392521090877
-0.000422006075974957
-0.000472524575276405
-0.000527128613430522
-0.000585584760471997
-0.000646040742362536
-0.000704036279161608