/*--------------------------------*- C++ -*----------------------------------*\
  =========                 |
  \\      /  F ield         | OpenFOAM: The Open Source CFD Toolbox
   \\    /   O peration     | Website:  https://openfoam.org
    \\  /    A nd           | Version:  7
     \\/     M anipulation  |
\*---------------------------------------------------------------------------*/
FoamFile
{
    version     2.0;
    format      ascii;
    class       volScalarField;
    location    "20000";
    object      k_diff;
}
// * * * * * * * * * * * * * * * * * * * * * * * * * * * * * * * * * * * * * //

dimensions      [0 2 -3 0 0 0 0];

internalField   nonuniform List<scalar> 
15600
(
0.000867621391805891
0.000916328042212585
0.000876414313633749
0.000730731230396229
0.000554468603728171
0.000367405594845775
0.000210863649164591
0.000106558294823614
5.56781359065197e-05
4.03293636295431e-05
3.42451205637194e-05
2.77086497171836e-05
2.06667773212043e-05
1.52693905157022e-05
1.17760992528541e-05
9.60373194333916e-06
8.24299846015148e-06
7.43307144277702e-06
6.95156348107871e-06
6.6442874553685e-06
6.46363771176501e-06
6.40912986829191e-06
6.4960453230562e-06
6.74677762138162e-06
7.18118450373977e-06
7.80565745613231e-06
8.60330209876872e-06
9.59629876716344e-06
1.08119715640916e-05
1.22641757018754e-05
1.39582524566878e-05
1.58902263183127e-05
1.80520735755544e-05
2.04486648798878e-05
2.31519573943144e-05
2.62325145177826e-05
2.96556865345347e-05
3.33823924721133e-05
3.73655332832706e-05
4.1550443439952e-05
4.58913823294645e-05
5.04007233703034e-05
5.52604745670991e-05
6.09516076970824e-05
6.89778878582326e-05
8.23083659106867e-05
9.61057050297999e-05
0.000109056030111882
0.000121264030136144
0.000132892488412555
0.000143993133692041
0.000154634850083933
0.000164845269691246
0.000174649665548715
0.000184060018064221
0.0001930869825635
0.000201745169271834
0.000210051989739305
0.000217987719071671
0.000225326164266231
0.000231994993952423
0.000237962373732249
0.000243202707971437
0.000247704991580959
0.000251480699991222
0.000254572422384801
0.000257064812544299
0.000259097055399352
0.000260882326489695
0.00026272104523044
0.000265034131690911
0.000268355538398713
0.000273391615821646
0.000280443600407181
0.000289441317815124
0.000293267159715147
0.000280398780168773
0.000279972858960541
0.000290372116580759
0.000306941105670927
0.000328592326167768
0.000354461485778154
0.000384391431778455
0.000418262305914718
0.000456261266365082
0.000498608455833137
0.000546236849202778
0.000600769382829281
0.000661905500995935
0.00072794574442598
0.000797147093505202
0.000867609215264862
0.00093661312293451
0.00100086335589279
0.00105705516105238
0.0010997004934285
0.0011356666146646
0.00116906040209083
0.00120267295230472
0.00123943971662546
0.00128199914822712
0.00133439110648436
0.00140302467400646
0.00150466872577954
0.00164270351510074
0.00179065049757862
0.00194730123030497
0.0021097900633133
0.00227877831014352
0.00243836954000286
0.00256491770925655
0.00257981037384093
0.00237164407505085
0.00200304615578462
0.00165568028553374
0.00135367964023129
0.00111878485309186
0.000926861402416283
0.000847183806818352
0.00084173311154455
0.0046575947057637
0.00487284721257574
0.00470087167502017
0.00394889734063838
0.00301035430762292
0.00200755721799699
0.00116109134051168
0.000593357071661744
0.00030872279924142
0.000221830050903875
0.000187494670965797
0.00015196723868022
0.000113692280545838
8.41197618295784e-05
6.48568144329253e-05
5.28424399853908e-05
4.5311134595549e-05
4.08063382290473e-05
3.81139937757523e-05
3.63955184682801e-05
3.53740611681884e-05
3.50398258926306e-05
3.54733244625569e-05
3.67958022762805e-05
3.91169076309252e-05
4.2476466883072e-05
4.67820008041563e-05
5.21477066214444e-05
5.8722428681604e-05
6.65842865036186e-05
7.57649283874008e-05
8.62449587095984e-05
9.79803974434929e-05
0.000110989276475968
0.000125651528946487
0.000142358042867164
0.000160936462449048
0.000181177378741719
0.000202828434965898
0.000225593257493051
0.000249218649732002
0.000273745355056142
0.000300069024718221
0.000330736732920074
0.00037375334171309
0.000444789275020414
0.000518456302848616
0.000587692765861643
0.000652951014363603
0.000715122053761853
0.000774483520157257
0.000831417233402167
0.000886073604392085
0.000938593928556761
0.000989044452327095
0.00103748155292166
0.00108398408675882
0.00112866528674907
0.0011701242329019
0.00120812235384443
0.00124266867079968
0.00127360449536022
0.00130082189948601
0.00132429093488326
0.00134409866361539
0.00136049254021
0.00137393449905251
0.00138516338035985
0.00139528081019409
0.00140581447046613
0.00141882227867895
0.00143679492840249
0.00146259955977831
0.00149652620423836
0.00153253783801391
0.00153789932852191
0.00148783535543315
0.00149758354721442
0.00155646836406753
0.00164528376560858
0.00175916474138211
0.00189428607243807
0.00204993078144499
0.00222573136804647
0.00242270262713267
0.00264242400634145
0.00289005892233936
0.00317231560848119
0.00348667710530721
0.00382502218494905
0.0041790496315223
0.00453965253728101
0.00489289895375453
0.00522286458325649
0.00551432323876173
0.00574458308646068
0.00594286219232884
0.00612859161562801
0.0063153631255403
0.00651739067827618
0.00674798482769122
0.00702668093972974
0.00738410402900872
0.00789464270125625
0.00857439387174797
0.00930882536173501
0.0100811118928413
0.0108729418219216
0.0116808708764596
0.0124302748370936
0.0130185989856992
0.0131260076791544
0.0123107865393085
0.0104710000061504
0.00870905723569742
0.00717783295302542
0.00598066447080934
0.00499365613083539
0.00458395589894343
0.00455903728014419
0.0101410381545288
0.0103751013994315
0.0101389653688644
0.00872717420632419
0.00683661725606324
0.00472546188242629
0.00282978566130686
0.00149578207879886
0.00076872999755649
0.000540264368218022
0.000452543448510418
0.000366517407794891
0.0002750961212411
0.000204020658465077
0.000157390780095355
0.000128192666532006
0.000109893963478143
9.88278471932108e-05
9.21567777504207e-05
8.78820732876455e-05
8.5293863083567e-05
8.43480598258342e-05
8.52285625259047e-05
8.82204167820098e-05
9.3581022780139e-05
0.000101401153410563
0.000111453311547304
0.000123979808809988
0.000139309331557743
0.000157604117905356
0.000178911951408291
0.000203155799629375
0.000230195404016168
0.000260038068848388
0.000293510970625478
0.000331457790682017
0.000373476865466496
0.000419088716656246
0.000467735481229602
0.000518774476168589
0.000571646357387122
0.000626306083610935
0.000684313104965376
0.000751359411647264
0.000845493779623756
0.000997582935587256
0.00115332094076839
0.00130021056895407
0.00143863825717538
0.00157081093525155
0.0016972576185171
0.00181891821710707
0.00193610193873572
0.0020491468088741
0.00215818821270165
0.00226331458065984
0.00236467085457238
0.00245748995623994
0.00254291524980963
0.00262238291084551
0.00269535318304564
0.00276155040829848
0.00282078760765606
0.00287302529395433
0.00291844202502142
0.00295751308000306
0.00299110490181367
0.00302057923193325
0.00304790818808153
0.00307572869071746
0.00310732941535592
0.00314614617254563
0.0031946188155072
0.00324880378224168
0.00328936409335497
0.00327190776617737
0.00321725875028175
0.00327383448190069
0.00340888022778938
0.00359880955017849
0.00383658336436432
0.00411662379119433
0.00443809890905645
0.00480108011863516
0.00520790971929362
0.00566264065435513
0.00617561953810258
0.0067555691393746
0.00739500078897536
0.00807945738306691
0.00879393636224156
0.00952162725810874
0.0102337904156383
0.010898477159511
0.0115022512242153
0.0120080423205466
0.0124534898202191
0.0128721480474633
0.0132884909116601
0.0137274842677522
0.0142133134969153
0.0147785218836672
0.0154696084985311
0.0163898919650848
0.0175658909313401
0.0188293967439312
0.0201167888863738
0.0213711339272669
0.0225624663641016
0.0235574450380556
0.024235780738634
0.0242338738746682
0.0232101253292052
0.0201559513460034
0.0170154012408803
0.0143585907736538
0.0123605765620839
0.0106974053418436
0.0100330079035073
0.0100391069973716
0.0117881643076739
0.0117189220360706
0.0116622288627378
0.0106581993548545
0.00901161857933833
0.00691049754981156
0.0046545265505946
0.00274071601831179
0.00144309467424739
0.000957192321726618
0.000787322756126797
0.000632937377483057
0.000476052495151372
0.000353862328373384
0.00027312501932894
0.000222343564662958
0.000190583795940555
0.000170943516443703
0.000159018115147034
0.000151286874995929
0.000146446428774831
0.000144370780942357
0.000145343123444081
0.000149816230397063
0.000158174920397201
0.000170499650868836
0.000186353324042897
0.000206024886340253
0.000229904852486606
0.000258089771980243
0.000290469170084791
0.000326722160129748
0.000366442329330879
0.000409515299919691
0.000457031814392045
0.000509995319732457
0.000567716409331012
0.000629563285354912
0.000694890576991819
0.000763081462482321
0.000833727416623279
0.000907085454947603
0.000985743754278608
0.00107933707127875
0.00121299674773784
0.00141915087964561
0.00162190518053576
0.00181644165238733
0.00199998620618101
0.00217638983806658
0.00234557667101634
0.00250895528315557
0.00266664513664278
0.00281903596640361
0.00296617314976071
0.003107968149484
0.00323508949096232
0.00335403490844673
0.00346831918657554
0.00357535355267009
0.00367484823318339
0.00376651443560114
0.00385016484171564
0.00392576512868641
0.00399349527184288
0.00405381283732379
0.00410752165193437
0.00415583043912586
0.004200386608161
0.00424319093107543
0.00428634646749334
0.00433117377153532
0.00437684170752571
0.00441626996863554
0.00442925047365074
0.00438753499112194
0.00435742086633042
0.00445255339592951
0.00462336848828657
0.00485639361594938
0.00514488957371537
0.00548415034262089
0.0058735816710214
0.00631393808265825
0.0068081443727287
0.00736114109043547
0.00798357855591162
0.00867960852729072
0.0094381674398349
0.0102452882887241
0.0110858814364273
0.0119424203399086
0.0127681888692255
0.0135602929789593
0.014303522754592
0.0149680206407345
0.0155720092252837
0.0161446634604778
0.0167076924212835
0.0172827972321777
0.0178914989439088
0.0185607157283451
0.0193220466078306
0.0202422995229132
0.0213483639713054
0.0224997650219177
0.0236009692869886
0.0245616865309071
0.0253377082747245
0.0257853287896736
0.0258755560873199
0.0253416353023215
0.024258085884556
0.0214334381485699
0.0179434269722923
0.0149731530747366
0.0131281507621996
0.0118834658389613
0.0114918454043351
0.0116497718859814
0.00704350047805712
0.00681376483504173
0.00704589909330655
0.00731649851361297
0.00709104535749358
0.00641645016730017
0.00527746060163427
0.00387662206861031
0.00246559611241471
0.00150044142588347
0.00119347535379115
0.00093888463604593
0.000704620349269642
0.00052374243033578
0.000403683651707966
0.000327889081335018
0.000280570558085261
0.000250376947858493
0.000231949341153183
0.000219726738286154
0.000211656422495045
0.000207434138891533
0.00020737381462174
0.00021201018778622
0.000221717487172331
0.000236380865204763
0.00025522192973039
0.000278367646112961
0.000305977211691992
0.000337813154955487
0.000373403719295003
0.000412106254339976
0.000453362977762241
0.000497241617709178
0.000545195774374979
0.000598318308391213
0.000656077887501523
0.000718327225042208
0.000784987189952968
0.000856343553290866
0.00093337609506892
0.00101860932541639
0.00111825966310458
0.00124629576308335
0.00142806481060868
0.00167594732913201
0.0018999320389537
0.00211573754332912
0.00231557759038999
0.00250574912835541
0.00268532677888941
0.00285637911997857
0.00301897485998092
0.00317371027707291
0.00332083128210564
0.00344990956347928
0.00357143937828104
0.00369085489251177
0.00380218066604277
0.00390574913795054
0.00400152636724604
0.00408950052110703
0.0041697225632564
0.00424232952955316
0.00430756950431734
0.00436581995347598
0.00441759631942558
0.00446353502777603
0.00450433212667643
0.00454057490138925
0.00457244531838847
0.00459908448084468
0.00461801813137572
0.0046246474537549
0.00460672772160693
0.00455212507909182
0.0045404470109323
0.0046233080313599
0.00476304856784475
0.00495694919749751
0.00519907857821332
0.00548669793679137
0.00581917179856595
0.00619757264138584
0.00662436523435319
0.00710370827785083
0.0076436128381385
0.00824371834899553
0.0088946356750828
0.00958806999046607
0.0103138002704188
0.0110517211610479
0.0117500408854636
0.012471011198073
0.0131656974218038
0.013826322082606
0.0144532538259883
0.0150645331275737
0.015673645141381
0.0162933393137241
0.0169364387910019
0.0176185018613349
0.0183542138699572
0.0191773883514172
0.0201266074470475
0.0211222006464635
0.0220826205023937
0.0229209377256845
0.0236090921094253
0.0240187961889187
0.0241828411883766
0.0237879714359188
0.0229520872201257
0.0207872701523783
0.0170663440420087
0.0129867922616199
0.010132458914788
0.00828650678049826
0.00730470496551458
0.00695505547721724
0.00288460467340695
0.00266561011543763
0.00292145731907288
0.00363452290760641
0.00406065555291996
0.00425207015092191
0.00412971548841631
0.00404167892976059
0.00350892531042811
0.00224196349646832
0.00166267888512652
0.00129525103002935
0.000963334618555441
0.000712408547387321
0.000545781948791941
0.000440426661991081
0.000373694226053592
0.000331265723981831
0.000304752622055444
0.000286619577530877
0.000273873252414007
0.000265865960625864
0.000262810890090215
0.000265181758976005
0.000273170405232189
0.000286311302385846
0.000303514910307675
0.000324770008629661
0.000350047848097401
0.00037901029213744
0.000411255904010702
0.000446441058960134
0.000484600558794188
0.000526644467980215
0.000574538128853856
0.000629191887837321
0.000690032718997652
0.000757133877638461
0.000830726714575747
0.000911904627004027
0.00100304437939233
0.00110869446623289
0.00123656318385393
0.00139871354469167
0.00161415798718287
0.00186237278652864
0.00206611381706977
0.00226092119157304
0.00243733217125374
0.00260331543956535
0.00275789887030145
0.00290352321760694
0.0030404620304614
0.00316938474718347
0.00328509155374904
0.00338855730099253
0.00349492267781801
0.00359347889938615
0.00368515082717348
0.0037702107347217
0.00384877193415448
0.0039209415689502
0.00398683530274161
0.00404658249708602
0.00410032775269527
0.00414822447798338
0.00419041327625763
0.00422697978654712
0.00425787477963541
0.00428279878868934
0.00430103721235652
0.00431135709744593
0.00431192593706788
0.00430187794742767
0.00427371489301695
0.0042200558705226
0.00421869467399174
0.0042733330335379
0.00436894193912655
0.00450908136702282
0.0046891975656486
0.0049081793620402
0.00516526228287296
0.00546144051343008
0.00579841092465159
0.0061792427383949
0.00660977676031296
0.00708827208603785
0.00760834313231928
0.00816565768836415
0.00875338278504667
0.00931963104475954
0.00990259355730917
0.0105075949804538
0.0111079930119767
0.0117026773935687
0.0122855087370527
0.0128689314134521
0.0134633556370622
0.0140782016266757
0.0147232182800197
0.0154094426951184
0.0161457187741658
0.0169477511778127
0.01785166951184
0.0188228227148706
0.0198034182015555
0.0207221161479751
0.0215549233046282
0.0221820918559064
0.0226417245628745
0.0226258519007842
0.0223230977935279
0.0212831012340355
0.0186557890858866
0.0145077323412008
0.0106106172873088
0.00721170179393799
0.00483451006383574
0.00342999354379432
0.00260816138973774
0.00209331114797785
0.00207434071930315
0.00247729682779907
0.00271716312621059
0.00280543764283017
0.0026144132832539
0.00303975675649431
0.00377847956197352
0.00314149929170185
0.00220360716434373
0.00171322739674425
0.00126280297626581
0.000927162705413814
0.000702680986672138
0.000560361242175266
0.000468114168958047
0.000410619146404574
0.000374025242753161
0.000348381856978365
0.000329512190128013
0.000316226344346076
0.000308528787788872
0.000306788427705585
0.000311043535009392
0.000320629231912447
0.000334529842727681
0.000352999810864009
0.00037618248009286
0.00040395664731073
0.000436147957278366
0.000472622339525561
0.000513589252763551
0.000560002311089084
0.000613315070844797
0.000673407346698332
0.000739189038234779
0.000810743573868624
0.000888631410338863
0.000974602559870782
0.00107162132613736
0.00118413868456712
0.00131759261593926
0.00147840834461381
0.00167930144068681
0.00187700540019242
0.0020358156832735
0.00219158846161695
0.0023344472528501
0.00247009223488955
0.00259724837437976
0.00271752273422741
0.00283107362475421
0.0029395301660332
0.00302570890621214
0.00312225897229251
0.00321156211031153
0.00329482669849015
0.00337257423405529
0.0034450022127084
0.00351221706826361
0.00357430569103181
0.00363133699396576
0.00368335702766274
0.00373037862976582
0.0037723661071489
0.00380920617956159
0.00384067060352553
0.00386635535771569
0.00388564748436486
0.00389767687931237
0.00390155966296054
0.00389627951637376
0.00388255531874557
0.00385341915203478
0.00380242580505958
0.00380399208955332
0.00383500408506293
0.00389678879119991
0.00399575243527441
0.00412850171698221
0.00429477752228694
0.00449364347743497
0.00472580997747546
0.00499229862065488
0.00529528295181156
0.00563903890116814
0.0060214795654652
0.00643838722706194
0.00688750508580519
0.0073637348197032
0.00777313463330615
0.00827362548041225
0.00877504054854848
0.00928228517727841
0.00979768219569435
0.0103124340977052
0.0108354344679342
0.0113752487524113
0.0119394228695845
0.0125361107430754
0.0131739188410562
0.0138587666662597
0.0145930257694136
0.0154001103317905
0.0162692463225029
0.017155255054891
0.0180004403207508
0.0187764214570752
0.019376098539895
0.0198197155398196
0.0198589610430144
0.0197411016308726
0.01947715180364
0.018390675302036
0.0159036651026955
0.0128130253917076
0.00913021414303112
0.00602438701039063
0.00387112016372843
0.00420360131960248
0.00325019385549123
0.00286440846475959
0.00281482560343155
0.0027648314894641
0.00252308505646298
0.00185296455895253
0.0017993659161365
0.0029139216567822
0.0037218935782081
0.00270362704090267
0.00209804751298162
0.00158684341797768
0.00116833734401336
0.000879109150070902
0.000690717072171744
0.0005672659869885
0.000491939219009511
0.000443428814035507
0.000409237753472108
0.000383752051809103
0.00036503131686911
0.000352787245610502
0.000347310129848205
0.000348607009263173
0.000355980416277306
0.000368621302627361
0.000386995672300439
0.00041113185896793
0.00044062865451295
0.000474918491862322
0.000513463105359404
0.000556104453550383
0.000603428531403671
0.000656298945376905
0.000714084612261724
0.000775969636499341
0.000842526813504493
0.000914802201191864
0.000994786117191328
0.00108506902466457
0.00118876003723334
0.00130853991487395
0.00144701349542973
0.00161498929237074
0.00176175155240316
0.00188758947531788
0.00201494573085472
0.00213543770191869
0.0022511492605793
0.00236092492302824
0.00246537206988709
0.0025643836068049
0.00264925186373432
0.002737786521763
0.00282254544456279
0.00290163636939478
0.00297578751240134
0.0030453369158624
0.00311043243450867
0.00317116040117747
0.00322758085375439
0.00327972253253194
0.00332757262746833
0.00337106068152542
0.00341004142320052
0.00344426724852912
0.00347336292608987
0.00349678753031819
0.00351386216511238
0.00352377404589629
0.00352596698340704
0.00351980690267705
0.00350619279219975
0.00347749014466206
0.00342836461143279
0.00342963300193763
0.00344303768220913
0.00347987662380745
0.00354801676673049
0.00364512844983338
0.00377139754208521
0.0039257874659929
0.00410869841764389
0.00432063386681442
0.00456307497616736
0.00483904005316717
0.00514625951278677
0.00548200785038351
0.00584526601855178
0.0061941514173067
0.00653871796147788
0.00694629615957251
0.00736003728194768
0.00778497003024755
0.00822518253597337
0.00867021070093646
0.0091260024002915
0.00959913588002784
0.0100949987442059
0.0106196483082146
0.0111789420941028
0.0117755945673023
0.0124017846863
0.0130699348144405
0.0137837535763471
0.0145035910948806
0.0151830055938353
0.0157901536476995
0.0162372896326649
0.016520934638242
0.0164585056036708
0.0162880529557918
0.0160100296504124
0.0159332628038893
0.0150056209507748
0.0134715066580037
0.0108719920457172
0.00808552371897519
0.00580473020286915
0.00573899319430839
0.0045777671898225
0.00390354660258993
0.00352573382048547
0.00331746033835292
0.0028476747603223
0.00192907004676621
0.00105410814541035
0.00190394709309566
0.0033451096825738
0.00306835804113181
0.00235646636427176
0.00186198569141017
0.00140571762804705
0.00106103988233612
0.000820548184654028
0.000672847844174993
0.000578935721839524
0.00051791071295229
0.000475202638357585
0.000443663062005369
0.000420374234036971
0.000404564812021735
0.00039631873178552
0.000395540638107696
0.000401403885185757
0.000413082511932919
0.000430876031756625
0.00045436442745399
0.000482683135053439
0.000514903039758502
0.00055030840970809
0.000588676604823895
0.000630546230006524
0.000676595123145744
0.000726267620071333
0.000779338792271886
0.000836691614184093
0.000899457873327111
0.000969315538002808
0.00104805181690217
0.00113750136990245
0.00123876097967834
0.00135300439222931
0.00149150531005382
0.00160301375101248
0.00170900987348881
0.00181816022688416
0.00192476454390147
0.00202779977537532
0.00212656436094986
0.00222092096655379
0.0023119682580672
0.00238739937396131
0.0024702481980485
0.00254737731215603
0.00261977047638867
0.00268791778989043
0.00275206655768265
0.00281233867301135
0.00286880925773204
0.00292152343438286
0.00297048818672292
0.00301565943340839
0.00305692311257534
0.00309407866604032
0.00312681552941933
0.00315469876704698
0.00317714677660869
0.00319349331355601
0.003202995163288
0.00320525805871922
0.00319971099424646
0.00318695289263735
0.00315875066420717
0.00311130269301048
0.00311134897275605
0.00311172206785635
0.00312956471943003
0.00317362194963416
0.00324265345089942
0.00333710488911614
0.00345593529238856
0.00359926265145806
0.00376719814125617
0.00396067271716834
0.00418162513735828
0.00442759461121008
0.00469695304661843
0.00498957411276041
0.00522067705592897
0.00552308345825024
0.005852954169469
0.00619211072934233
0.00654561757006384
0.00691849832696738
0.00729902951041539
0.00769065064206508
0.00809791176656767
0.00852387929279548
0.00897220916198729
0.00944582021769195
0.00994398555311961
0.0104511009625766
0.0109724552351328
0.0115225872484901
0.0120650394056414
0.0125636905043866
0.0129867160786061
0.0132691721146631
0.0133852815584597
0.0132127939119766
0.0129539219954917
0.0125851262409758
0.0128935392796467
0.0127943081572744
0.0123792186234126
0.0111035854357395
0.00919235601671566
0.00729244231767161
0.00654285508409215
0.00542635615946958
0.00466188937994275
0.00410601056569211
0.00387123908474121
0.0032791445900323
0.00251671390611357
0.000936388939208927
0.00110034788582143
0.00205973999955597
0.00331847425293187
0.00255067139284574
0.00201232419755752
0.00156562352118605
0.00120126047858019
0.000945619522749034
0.000775112872879168
0.000664995120489588
0.000592571561162658
0.000542281823926314
0.000505643297299502
0.000478617598564972
0.000459727939216284
0.00044865316688557
0.000445092555338085
0.000448061550080343
0.00045669498785011
0.000471053572363841
0.00049041907824662
0.000513777242607161
0.000540199049652048
0.00056908912533406
0.000600332015004849
0.000634505428754186
0.000672193497945357
0.000712993232959591
0.000757062839632824
0.000805262556153322
0.000858523010155116
0.000918050749703787
0.00098494945498728
0.00106030377735516
0.00114461741823232
0.00123875182778515
0.0013547699100883
0.0014429311351931
0.00153582020593591
0.0016323734220172
0.00172933128952748
0.00182341531253325
0.00191435391599952
0.00200132196728782
0.00208245489372368
0.00215736957739712
0.00223376699036315
0.00230533440013251
0.00237276998954886
0.00243643263182213
0.00249652083338089
0.0025531438547291
0.00260637291848233
0.00265624790333139
0.00270276782579242
0.00274587679927897
0.00278544351366426
0.0028212457370211
0.00285295066722315
0.00288010803189307
0.00290213525618497
0.00291839337491713
0.00292817259526131
0.00293110580356316
0.00292653998572984
0.00291474738789427
0.0028872196987961
0.00284168936414504
0.00284041793247346
0.00283106821538504
0.00283404216535183
0.00285858895228384
0.00290460533122947
0.00297270505295181
0.00306192648796036
0.00317214429570454
0.00330316778199204
0.0034554736529568
0.00363004582442856
0.00382420569099932
0.0040371973378756
0.00425360924466974
0.00440544581186265
0.00466555524998752
0.00492884352331846
0.00520319100311101
0.00549395280246276
0.00580661277240207
0.00612842916368292
0.0064606996832075
0.00680601386541891
0.00716511974861776
0.00753920726718502
0.00792831053343302
0.00832830843389606
0.00871764020232339
0.00909766259513985
0.0094918073041511
0.00986645112132305
0.0101957555376602
0.0104518585781727
0.0105930946536963
0.0105748967155292
0.0103259586534004
0.0100124113885901
0.00979009063793285
0.0100726952563656
0.0103308002014794
0.0104836972302786
0.0101525208036346
0.00911247156788728
0.00778530293033889
0.00660946747481315
0.00568862875080593
0.00500598407257326
0.00439735702537991
0.00422873114856266
0.00357697304249115
0.00325922737431935
0.00121528092723671
0.000502192082854599
0.0010035136362421
0.00291202107824213
0.00271714682408439
0.00215177203478387
0.00169598984899668
0.0013252884276431
0.00105050536927572
0.000862887221805456
0.000739796145587282
0.000657748193686331
0.000601055375644399
0.000560211321133159
0.000530051281193646
0.000508272784729599
0.000494033344516168
0.000486818163129297
0.000485590355327341
0.000489590389752741
0.000498751071738758
0.000512305310730024
0.000529330452385507
0.000549044384190064
0.000571001537779663
0.000595150212965355
0.000622049837713277
0.000652166326478397
0.000685176447054609
0.000721403868418935
0.000761543147074327
0.000806267762371626
0.000856397694992697
0.00091261210957472
0.000975659389383288
0.00104590107728582
0.00112418576020771
0.00122312461684888
0.00129503542250267
0.00137785190310498
0.00146477617109389
0.00155415127959205
0.00164122906625751
0.00172600614320731
0.00180730247637381
0.00187780360054436
0.00195439408264726
0.00202573080195932
0.00209283798990594
0.00215623741196965
0.00221620880881378
0.00227292229764342
0.00232648181272469
0.0023769594792678
0.00242439658947711
0.00246879364889019
0.00251009622319175
0.00254817316893134
0.00258280153431308
0.00261364973699917
0.00264027461377116
0.00266210739318187
0.00267853039349385
0.00268883256594217
0.00269259784227146
0.00268906427564914
0.00267831941014122
0.00265185544244353
0.00260862818976646
0.00260620956783906
0.00258954848385597
0.00258067192122157
0.00258900086180495
0.00261559911826858
0.00266119857590153
0.00272498287476137
0.00280662258504849
0.002905690628555
0.00302227799268046
0.0031565149622097
0.00330549513188801
0.00346923840641266
0.00358621670898622
0.00372417168371847
0.00392350081590347
0.00412818131065353
0.00434498350192634
0.0045796008027668
0.00483764856697204
0.00510553787356426
0.00538272901828422
0.00566995834807797
0.00596573807117358
0.00626884307350167
0.00657660007057404
0.00688171571339232
0.0071580892807234
0.00740545278471831
0.00765466783607849
0.007875319769669
0.00805234920483889
0.00816577787781887
0.00819586418657988
0.0080826538347199
0.00779409291630249
0.00746967833671011
0.00737079209117157
0.00764164895185847
0.0080578151549078
0.00845672485252254
0.00866642389083272
0.00826310891200072
0.00746464979774244
0.0061647080710405
0.00546291640017041
0.00494830750408792
0.00439915216398201
0.00434015662767923
0.00369550233894215
0.0038551298674219
0.00168222402094516
0.000161616102567267
0.000418993025233092
0.00174542480922725
0.00288913737626718
0.002282759999121
0.00181357047852041
0.00143003998833151
0.00113851004510926
0.000935714927064082
0.000801130385580103
0.000710401192844576
0.000647892134741932
0.000603266712474014
0.000570289675819549
0.000545797828237355
0.000528372491525561
0.000517287072241626
0.000511531718326697
0.000510552735123718
0.000514249890089983
0.000521944196525217
0.000532876937165954
0.000546409516006683
0.000562189609305057
0.000580169597173809
0.000600846611256932
0.00062455270639994
0.000650982306483015
0.000680506932893349
0.00071364546094902
0.000750857488307238
0.00079271061415797
0.000839661223685084
0.000892332198505842
0.000951055373369362
0.00101669490963828
0.00110220110877538
0.00116202414414156
0.00123618618375123
0.00131514131665414
0.00139798875548781
0.00147913707649182
0.00155866771861961
0.00163576482516214
0.00170259062915434
0.00177417005556002
0.00184123318892718
0.00190450095270375
0.00196437805580865
0.00202109253583788
0.00207479672394456
0.00212559335179018
0.0021735585346604
0.0022187394166644
0.00226114432061614
0.00230072925191053
0.00233737482914389
0.00237087052198302
0.00240089949541116
0.00242703685513141
0.00244873213524216
0.00246537965636398
0.00247624769735817
0.00248084515884064
0.00247833954740765
0.00246880848909085
0.00244391998110523
0.00240340259422829
0.00240008720634525
0.00237790668119947
0.00235948457556923
0.00235409444304988
0.00236396667576092
0.00238992248507348
0.00243134062514514
0.00248772554699358
0.00255846391473139
0.00264331514932836
0.00274164737727831
0.00285033983971703
0.00297004441518589
0.00298971167715325
0.0031228162899478
0.00326824205381347
0.00342033910893345
0.0035851849548602
0.00376875586804756
0.00397653774623748
0.00419422699563496
0.00441970450241568
0.00465197695711923
0.00488745089952893
0.00512259847700875
0.00535228629538626
0.00556638112381204
0.00573535050282887
0.00585887864795353
0.00597398457869495
0.00605414325640693
0.00609592748825265
0.00609093465749134
0.00603900046086603
0.00586707198515527
0.0055694863081038
0.00527134549714521
0.00529236029323268
0.00558263393564658
0.00608200827627407
0.00657961181415165
0.00706869201900646
0.00706943225860418
0.00667311668863241
0.0054370246551934
0.00492242727817016
0.0046039570194179
0.00417700909218103
0.00421990576883436
0.00367964533413511
0.00411020541917951
0.00225171766603589
0.000239521238823245
-9.5026292043054e-05
0.000625924840514281
0.00284894588651185
0.00243255298900921
0.00193285499470475
0.00153073621298114
0.00122013385193532
0.00100071634766794
0.000853974929919118
0.000754199161018004
0.000685531842454432
0.000636869595576259