/*--------------------------------*- C++ -*----------------------------------*\
  =========                 |
  \\      /  F ield         | OpenFOAM: The Open Source CFD Toolbox
   \\    /   O peration     | Website:  https://openfoam.org
    \\  /    A nd           | Version:  7
     \\/     M anipulation  |
\*---------------------------------------------------------------------------*/
FoamFile
{
    version     2.0;
    format      ascii;
    class       volScalarField;
    location    "20000";
    object      nut;
}
// * * * * * * * * * * * * * * * * * * * * * * * * * * * * * * * * * * * * * //

dimensions      [0 2 -1 0 0 0 0];

internalField   nonuniform List<scalar> 
15600
(
6.92630231551598e-10
7.3307111201739e-10
6.99692759075384e-10
5.83767666864324e-10
4.44353455487817e-10
2.94194804097896e-10
1.67130197096977e-10
8.28765127487613e-11
4.30104584571085e-11
3.16036649216241e-11
2.78392492354537e-11
2.38624223133234e-11
1.91940700158799e-11
1.55331216391373e-11
1.33030583120062e-11
1.21915234093679e-11
1.18703727036069e-11
1.21404223118303e-11
1.27961866726033e-11
1.36998126019396e-11
1.4844253543133e-11
1.63092957643699e-11
1.82287021320562e-11
2.07850184048236e-11
2.41891662602829e-11
2.8661051343627e-11
3.44806023981795e-11
4.20798496320196e-11
5.19688704054083e-11
6.47014338314752e-11
8.08819683881467e-11
1.01136217247434e-10
1.26101286304431e-10
1.56491343112731e-10
1.93232690317804e-10
2.3706438885131e-10
2.87987666475829e-10
3.45638079297111e-10
4.09164453620976e-10
4.77188246651361e-10
5.47998326251432e-10
6.20230533278452e-10
6.94434747487055e-10
7.74930759041652e-10
8.79368343654922e-10
1.04918572367556e-09
1.22504564820893e-09
1.39011139219339e-09
1.54572058602336e-09
1.69394189552706e-09
1.83543503708215e-09
1.97107500699986e-09
2.10121316317958e-09
2.22617016196543e-09
2.34609800459197e-09
2.46113223866652e-09
2.57145878083974e-09
2.67729654486519e-09
2.77838456067742e-09
2.87274676518613e-09
2.95869493699186e-09
3.035650470414e-09
3.10326411977121e-09
3.16137000444242e-09
3.21008821738976e-09
3.24993625647953e-09
3.28197121308826e-09
3.30794922467214e-09
3.33058820605733e-09
3.35372762123827e-09
3.38280955298736e-09
3.42483941907879e-09
3.48931618070367e-09
3.5801474363113e-09
3.70385567558064e-09
3.77208122363583e-09
3.58504434054207e-09
3.52926622361082e-09
3.58187434128689e-09
3.67368613097585e-09
3.7835649980907e-09
3.89344783924458e-09
3.99467321012301e-09
4.07945944777338e-09
4.14405560346244e-09
4.18519129873495e-09
4.20626611966316e-09
4.22527996883999e-09
4.24466886561813e-09
4.25312795197952e-09
4.24314509705247e-09
4.20981373163092e-09
4.14761054392408e-09
4.05163662479177e-09
3.92020519436576e-09
3.73942536920463e-09
3.52992088196675e-09
3.30796182918864e-09
3.08442338894766e-09
2.86753628887006e-09
2.66202306270969e-09
2.47327162539319e-09
2.30771837851213e-09
2.18363493160198e-09
2.10379752776587e-09
2.04158609645602e-09
2.00002112789649e-09
1.97904037719633e-09
1.98341837780793e-09
2.00502666994347e-09
2.03433825635789e-09
2.01299346364283e-09
1.84967455596046e-09
1.59186378100586e-09
1.3281967362366e-09
1.08609966431168e-09
8.94298012431223e-10
7.39059963745705e-10
6.74584347281141e-10
6.70890485769114e-10
1.31930481952511e-07
1.39454420749466e-07
1.33274856710106e-07
1.10920722509364e-07
8.44136558197228e-08
5.6044031320222e-08
3.20765230693711e-08
1.60566980351952e-08
8.35961326673146e-09
6.10864887037546e-09
5.37192658818752e-09
4.61485482202454e-09
3.72046121912923e-09
3.01119583984512e-09
2.57489088761814e-09
2.35493002417845e-09
2.28836894842756e-09
2.33654999157169e-09
2.45991950093868e-09
2.63161735320895e-09
2.84940630984408e-09
3.12803755392517e-09
3.49276593835928e-09
3.97829574473886e-09
4.624992204016e-09
5.47525880684328e-09
6.5818972853921e-09
8.02670926902752e-09
9.90721805093655e-09
1.23295869325132e-08
1.54099379958767e-08
1.92687924577032e-08
2.4028628199167e-08
2.98231999966696e-08
3.68275966012302e-08
4.51896648243572e-08
5.49137702419745e-08
6.59320819341451e-08
7.80832304397854e-08
9.11030651850931e-08
1.04658066752864e-07
1.18473137763716e-07
1.32640792440509e-07
1.47863435116096e-07
1.67142347086967e-07
1.99320215575911e-07
2.32864118694687e-07
2.64348446446501e-07
2.94018987306113e-07
3.22281553405707e-07
3.49262787274912e-07
3.75134306712008e-07
3.99965401203704e-07
4.2381971847211e-07
4.46727833535602e-07
4.68716818719584e-07
4.89822744745437e-07
5.10087811410998e-07
5.29463191090825e-07
5.47415202944483e-07
5.63752825335673e-07
5.78393244338509e-07
5.9127084925483e-07
6.02354873882749e-07
6.11668807708883e-07
6.19311577488907e-07
6.25484510684325e-07
6.30521857025238e-07
6.34939582068629e-07
6.3946731194402e-07
6.45134948271354e-07
6.53259172572469e-07
6.65613298711127e-07
6.82980061133643e-07
7.05907414266755e-07
7.17397625530899e-07
6.83378546927663e-07
6.73788929849106e-07
6.84290716300553e-07
7.0208025172083e-07
7.23199465745525e-07
7.44265105171583e-07
7.63638687766741e-07
7.79864778209373e-07
7.92232707468397e-07
8.00163863232493e-07
8.04387394921321e-07
8.08221021230537e-07
8.12001917138186e-07
8.13583591712924e-07
8.11570972936721e-07
8.05046093384363e-07
7.92943584304804e-07
7.74364616594817e-07
7.48968258834271e-07
7.14320892501907e-07
6.74307702056425e-07
6.31961259852621e-07
5.89323348964007e-07
5.47942097973983e-07
5.08721946248606e-07
4.72692595364018e-07
4.41115067893987e-07
4.17342211912395e-07
4.01767169905928e-07
3.89522891266427e-07
3.81126012121614e-07
3.76550885202323e-07
3.76615230729815e-07
3.79764087515111e-07
3.8414371698771e-07
3.79116608615334e-07
3.48374364669809e-07
2.97747993007371e-07
2.48180898341976e-07
2.03494560564933e-07
1.68299504247538e-07
1.39614900354361e-07
1.28232198725342e-07
1.27854889825033e-07
2.7883887425574e-06
2.93904631623801e-06
2.82277987034145e-06
2.3376421982031e-06
1.77503349165933e-06
1.18631856664303e-06
6.92299115683133e-07
3.56265261504667e-07
1.87484428196088e-07
1.36722369751125e-07
1.19966736918574e-07
1.03297278925851e-07
8.35003491372908e-08
6.76282947306734e-08
5.77704332495486e-08
5.27501624290201e-08
5.11746743983106e-08
5.21607047091794e-08
5.48359123652455e-08
5.86034493688505e-08
6.33892925810672e-08
6.95048155178022e-08
7.74969424932803e-08
8.81240109436749e-08
1.0227665458258e-07
1.20903953411399e-07
1.45142806134655e-07
1.76755881777073e-07
2.1787235907646e-07
2.70812242164514e-07
3.38112186096492e-07
4.22395711909498e-07
5.26279322987254e-07
6.52445459452991e-07
8.04514916002964e-07
9.85864070974539e-07
1.19661707429102e-06
1.43524220947708e-06
1.6981564619063e-06
1.97941467875642e-06
2.27124404202803e-06
2.56645648677693e-06
2.86399487967897e-06
3.1720261622255e-06
3.55065001775515e-06
4.23014282539366e-06
4.94754563365411e-06
5.61990245764525e-06
6.25298732311036e-06
6.85593490632356e-06
7.43157639211201e-06
7.98391565834077e-06
8.51457718176926e-06
9.02508996394313e-06
9.51619809421574e-06
9.98852382610453e-06
1.0442826172655e-05
1.08800228554904e-05
1.12902793542732e-05
1.16687563318589e-05
1.20142823848562e-05
1.23251302062854e-05
1.259998157126e-05
1.28382286778833e-05
1.30403709580613e-05
1.320845198028e-05
1.33466157295053e-05
1.34617439326485e-05
1.35644284366546e-05
1.36696541775891e-05
1.37983848598593e-05
1.3977081069005e-05
1.42404727034595e-05
1.46019198920393e-05
1.50456336053163e-05
1.52207017966369e-05
1.45742608308842e-05
1.44290436238311e-05
1.46691785792509e-05
1.50494419645829e-05
1.54929784072803e-05
1.59325576500149e-05
1.63353948953181e-05
1.66727014651859e-05
1.6930252397558e-05
1.70975929623163e-05
1.71914496443944e-05
1.72758904126214e-05
1.73545073173392e-05
1.73841157823016e-05
1.73371429152154e-05
1.71951311709458e-05
1.69350282136986e-05
1.65388737684202e-05
1.60010998348236e-05
1.52772915167942e-05
1.44398775694428e-05
1.35497055253263e-05
1.264886596423e-05
1.17697249177401e-05
1.09320695745185e-05
1.01578790508955e-05
9.47380074640874e-06
8.94527816328572e-06
8.58050091524699e-06
8.28590116181324e-06
8.06790941823145e-06
7.92434371907041e-06
7.86912492339457e-06
7.86954897106129e-06
7.8906956544944e-06
7.73641971948113e-06
7.11785475231952e-06
5.99204894306499e-06
4.94641577862204e-06
4.06091611694469e-06
3.393434832141e-06
2.85299879147661e-06
2.67102454219851e-06
2.70193529789324e-06
1.91204578423511e-05
2.01425760670125e-05
1.96278788739508e-05
1.63252675525941e-05
1.24211633899061e-05
8.43365622461284e-06
5.13874794512764e-06
2.83113396386854e-06
1.54371774035002e-06
1.13027567332301e-06
9.91563924298542e-07
8.55859225624859e-07
6.93879130167211e-07
5.62484756974732e-07
4.80022764241989e-07
4.37546354609977e-07
4.23687073959956e-07
4.30807529095375e-07
4.51971501162473e-07
4.822340716353e-07
5.20713822107313e-07
5.69760089849921e-07
6.33655485299233e-07
7.18415316756973e-07
8.31175794114815e-07
9.79593886677158e-07
1.17229196064685e-06
1.42272085847335e-06
1.74731314382419e-06
2.16378771222324e-06
2.69124944069087e-06
3.34888706780024e-06
4.1546050380958e-06
5.12473994886195e-06
6.28380178380628e-06
7.65713458491716e-06
9.24259018136358e-06
1.10246803068964e-05
1.29718062918465e-05
1.50329533113918e-05
1.71399454036133e-05
1.92202757852286e-05
2.12305964360158e-05
2.32151109493125e-05
2.57104050803738e-05
3.05924124662356e-05
3.56737045411827e-05
4.03923002908526e-05
4.47980923545341e-05
4.89663742729203e-05
5.29193521457034e-05
5.66927544228629e-05
6.03006135323354e-05
6.37576264108023e-05
6.70712504199513e-05
7.02473485285122e-05
7.32912540745168e-05
7.61487544639279e-05
7.88008922519751e-05
8.12523279982881e-05
8.34943082134285e-05
8.55183570697366e-05
8.73182409470623e-05
8.88917084842158e-05
9.02428148680953e-05
9.13844839211778e-05
9.23418256082809e-05
9.31559773135445e-05
9.38898683134424e-05
9.4632317941873e-05
9.55068813714936e-05
9.66673421774227e-05
9.8310890054448e-05
0.000100489890652217
0.000102969355582674
0.000103605486220193
9.98467365006649e-05
9.92983042524428e-05
0.000100855824490677
0.000103180294580263
0.000105851488412798
0.000108481246383011
0.000110887184588731
0.000112908256697007
0.000114466757565063
0.000115508832682614
0.000116140787980107
0.000116712092929183
0.000117219471637415
0.000117414822823337
0.000117142205726097
0.000116293037253986
0.000114718679177211
0.000112303597313888
0.000109054946600851
0.000104691928559622
9.95813722003344e-05
9.40657889222875e-05
8.83912102655951e-05
8.2756321911087e-05
7.72923185791528e-05
7.21480497861558e-05
6.74994920846784e-05
6.37623141122026e-05
6.10305696021183e-05
5.87314128719379e-05
5.68851361878677e-05
5.54636981426019e-05
5.45560042171527e-05
5.3934731304865e-05
5.34353009594446e-05
5.18992951074565e-05
4.78181153515045e-05
3.9720788716613e-05
3.21235513994918e-05
2.60372886647724e-05
2.18237075892803e-05
1.85864167979635e-05
1.77704486142755e-05
1.83716318205195e-05
6.46194152993065e-05
6.8205599692145e-05
6.80702821863138e-05
5.800929332905e-05
4.47503491015752e-05
3.09424558102118e-05
1.98805309984295e-05
1.22242680907058e-05
7.31842990522813e-06
5.47581080493873e-06
4.83680599146867e-06
4.18753136202044e-06
3.40635047140713e-06
2.76395640451257e-06
2.35583530307012e-06
2.14252118210987e-06
2.06950880655837e-06
2.09668146747719e-06
2.19302546793725e-06
2.33356174795026e-06
2.51221381307578e-06
2.73880437811168e-06
3.03237597590713e-06
3.42019276798392e-06
3.93476016290004e-06
4.61045675958122e-06
5.48243636590392e-06
6.60683864295131e-06
8.05236553570368e-06
9.89039728780372e-06
1.21943128368713e-05
1.50312921480368e-05
1.84536676684505e-05
2.2498860926707e-05
2.72470891381731e-05
3.27855238046549e-05
3.90685859973404e-05
4.59981848321578e-05
5.34112938171339e-05
6.10711496735417e-05
6.86783834084659e-05
7.5920753329538e-05
8.2641364606433e-05
8.926738161901e-05
9.82774951074821e-05
0.000116270540158208
0.000133861284100911
0.000149957264498302
0.00016465982935827
0.00017836137049812
0.000191147093966623
0.000203196356405322
0.000214573368829748
0.000225355178452651
0.000235581997214814
0.000245285233783075
0.0002543546603668
0.000262772795613483
0.000270579735670975
0.000277770108018882
0.000284329829031534
0.00029024527974205
0.000295507740484881
0.000300117945806156
0.000304092243331585
0.000307469340820933
0.000310319259242731
0.000312753871592808
0.00031494278567013
0.000317124983151281
0.000319632913420681
0.000322877161031879
0.00032736987871256
0.000333168279053255
0.000339264436309274
0.000339665981981376
0.000329275909755443
0.000328246185276946
0.000332414074513803
0.000338539664479635
0.000345572264517816
0.000352492431177326
0.000358845102316427
0.000364221866850122
0.000368432207647154
0.000371351063460168
0.000373280244758283
0.000375068244555481
0.000376639964539183
0.000377355479202258
0.00037681422857239
0.000374720309057256
0.000370590626114923
0.000364257183749579
0.000355701088227181
0.000344114169279696
0.000330343659162035
0.000315242293181775
0.000299427547370134
0.000283420896209024
0.000267583493100917
0.000252355350385051
0.000238252452325716
0.000226550528045015
0.000217748085696368
0.000210120472376113
0.000203695739600613
0.000198344364473235
0.000194439036486147
0.000191179277294464
0.00018837435711129
0.000182274736607562
0.000169211804971717
0.000141087256787017
0.000112593986942237
8.90919043479355e-05
7.34684407440525e-05
6.19701969519414e-05
5.90679439390802e-05
6.1501148088988e-05
0.000142626122366889
0.000150253517173655
0.00015316721572198
0.00013513303789836
0.000106881685513809
7.4771934659333e-05
4.93782761129141e-05
3.36276312452268e-05
2.36010846917078e-05
1.87339400418338e-05
1.69885382912173e-05
1.48174777709659e-05
1.21232834580793e-05
9.85815505471247e-06
8.39340935120583e-06
7.61155805886415e-06
7.32624537416725e-06
7.38354853086901e-06
7.68847597509694e-06
8.14572935160085e-06
8.72586125462598e-06
9.45572974794623e-06
1.03936186893437e-05
1.16253755466537e-05
1.32525378205291e-05
1.53771252046044e-05
1.80887720920149e-05
2.15407538179734e-05
2.59176318033298e-05
3.13960312504398e-05
3.81391152322796e-05
4.62662877340674e-05
5.58313727524096e-05
6.6846542088544e-05
7.94790252147238e-05
9.38930195989135e-05
0.000109846953369594
0.000126999779876671
0.000144863112886841
0.000162816177517713
0.000180159874624674
0.000196289078767674
0.000211221037190434
0.000226771551948866
0.000249179059890459
0.000291167542147209
0.000329002537706689
0.000363406444206963
0.000394030769391979
0.000422212893304705
0.000448097107252509
0.000472214236374786
0.000494723255095259
0.000515844775872622
0.000535690739115613
0.00055420041086704
0.000571335262010241
0.000587224295729563
0.000601898633441655
0.000615359173470741
0.000627596837663424
0.000638601429238998
0.00064836940038058
0.000656912057579998
0.000664266645860649
0.000670508514883554
0.000675767504226125
0.000680247573673449
0.000684255809415407
0.000688224299392398
0.000692750351074694
0.000698556833927207
0.000706474921620659
0.000716373843170723
0.000725761533588228
0.000723985341054074
0.000705278286523204
0.000703833957128424
0.000710928852041154
0.000721470853160748
0.000733672543542287
0.000745761289578536
0.000756961957020217
0.000766572845325743
0.000774270137165828
0.000779862689335
0.000783917626362672
0.000787790951992945
0.000791241398349403
0.00079316292879147
0.000792851191987451
0.000789714601721216
0.000782758942709417
0.00077211378663748
0.000757466798994101
0.000737363067537783
0.000713170238860784
0.000686345068264921
0.000657930030643877
0.000628823433813393
0.000599656401581885
0.000571246438150084
0.000544539721408129
0.000522021004006787
0.000505061008181578
0.000490271802714983
0.000477605135480696
0.000466655305567124
0.000458425104099821
0.000450997380989034
0.000444796904303669
0.000431321588639329
0.00040549275928688
0.000345009926522717
0.000277875976462278
0.000217080417177104
0.000175487145641317
0.000143910384930185
0.000133089656534141
0.000136069945763949
0.00025261009373651
0.000263704706978779
0.000271669240010408
0.000247213977217438
0.000201564204999807
0.000142709364435517
9.33154447936382e-05
6.67618680854982e-05
5.44185662153666e-05
4.82456289758636e-05
4.62659406185442e-05
4.14248933009128e-05
3.43669913377668e-05
2.81397169538295e-05
2.3983545171755e-05
2.16920759280014e-05
2.07757108676299e-05
2.08026964776835e-05
2.15290016175314e-05
2.26633891235682e-05
2.40979805516299e-05
2.58832238432171e-05
2.81550134927428e-05
3.11214900440905e-05
3.50219466537459e-05
4.00742320703802e-05
4.64301626201561e-05
5.43968585525756e-05
6.43294010839195e-05
7.65239938812966e-05
9.12064095666444e-05
0.000108467698943401
0.00012825364119918
0.000150478226803206
0.000175431794957129
0.000203295734628954
0.000233402365926227
0.000265011309528583
0.000297160867660895
0.000328785444560174
0.000358851984390236
0.000386752713512568
0.00041330624828949
0.000442629551854702
0.00048521257196257
0.000557669907704223
0.00061886756140854
0.000674796826941304
0.000723598616815547
0.000768279003811782
0.000808900949830531
0.00084651881569419
0.000881386749730188
0.000913919758685766
0.000944238120824755
0.000972243420507876
0.000998189096391579
0.00102219577826341
0.00104430540771197
0.00106453391273036
0.0010828821804985
0.00109934772721109
0.00111393596490127
0.00112667259120523
0.00113762012581862
0.00114689623031808
0.00115469837626031
0.00116133358310301
0.00116726033840685
0.00117311935015467
0.00117977947816344
0.00118824982691235
0.00119954051593639
0.00121304927251671
0.00122431745734287
0.00121860680648009
0.0011919258117296
0.0011902114763037
0.00120016498222859
0.00121520681737296
0.0012327905894506
0.00125039833557426
0.00126691268720846
0.00128133046269378
0.00129318396720201
0.00130223620543022
0.00130934451889932
0.00131627052322519
0.00132252856233374
0.00132654014825861
0.00132726194601987
0.00132357064790814
0.00131425259994003
0.0012997534388573
0.0012793147270606
0.00125084896712731
0.00121621750384277
0.00117751865677243
0.00113624055060854
0.00109367272596539
0.00105072734569362
0.0010086269818236
0.000968762868908988
0.000934894737679238
0.000909611030729798
0.000887749250726116
0.000869031161019212
0.000852523229233562
0.000840150005974386
0.000828302896587868
0.000818939883468227
0.000796892828129146
0.000758030337352316
0.00066084862428319
0.000545554903868414
0.000429664600659592
0.000345966051243391
0.000277419892932498
0.000247319770986297
0.000244893003063477
0.000399617555206139
0.000410938463953024
0.000423374923008946
0.000393723861808021
0.000330489204549694
0.000239903974279991
0.000152222039252383
0.00010797251687953
9.572061330477e-05
9.60329283349652e-05
9.99942548027261e-05
9.44261505259298e-05
8.06313610153011e-05
6.71383914907633e-05
5.76080046454788e-05
5.20915714501526e-05
4.96307955292327e-05
4.93480666090295e-05
5.0690021202367e-05
5.29214831113656e-05
5.57368136514006e-05
5.92005821189291e-05
6.35740750044768e-05
6.92752615264483e-05
7.67609666911881e-05
8.6392138257605e-05
9.8349004370289e-05
0.000113137384233585
0.00013129709416677
0.000153194379083753
0.000179019893241583
0.000208703295809572
0.000241974244193596
0.000278622635036159
0.000319080227308391
0.000363409043047921
0.00041034336584945
0.000458700310310756
0.000507047838978428
0.000554007138960913
0.000598472139962982
0.000640252291463198
0.00068145064758764
0.000728679868135536
0.000795803665115922
0.000899824227539823
0.00098455770173592
0.00106270212465585
0.0011301099537682
0.00119180307914452
0.00124760526829381
0.00129915028428455
0.00134676619462345
0.00139108865215513
0.00143201578994481
0.0014698697892438
0.00150492177320476
0.0015373068626087
0.00156708657479603
0.00159429420930784
0.00161894206813436
0.00164103715894009
0.00166059589685722
0.00167766097889644
0.00169232353387176
0.00170474788817853
0.00171520449813141
0.00172410932462179
0.00173207582883306
0.00173994933357778
0.00174884219423542
0.00175997244746314
0.0017743398725787
0.0017906327364451
0.00180231281700489
0.00179174829834789
0.00175840463072467
0.00175660463212981
0.00176940408333001
0.00178901150163233
0.00181212678475292
0.00183554114890378
0.00185777566598396
0.00187753134846469
0.00189418983835872
0.00190748888912933
0.00191856743715795
0.00192946594555848
0.00193940322501334
0.00194634667093873
0.00194887659819825
0.00194497868414807
0.00193398738346233
0.00191623761600286
0.00189054213224583
0.00185425817551798
0.00180968624076956
0.00175957274855602
0.00170586474999048
0.00165024841734342
0.00159392687439888
0.00153853269471503
0.00148590235429632
0.00144098383123818
0.00140772440868904
0.00137937241138163
0.00135527647041618
0.00133375282145011
0.0013177886206679
0.00130165507512846
0.00128956542518755
0.00125850286133587
0.00120752123180853
0.00107477162475256
0.000911254494370159
0.000732057904446079
0.000596219619862449
0.000475814078170867
0.000413076350754964
0.000396161618298668
0.000590772923035081
0.000597091963754983
0.000611128589459688
0.000575710303719272
0.00049432069489581
0.000373368477128167
0.000230981440532821
0.000155978415518745
0.000138123131726213
0.000154131199843277
0.000174836697733487
0.000177767495027395
0.000159103326102838
0.000136337157634485
0.000118753779364296
0.000107853104674652
0.000102434275362306
0.000101244203580046
0.000103206834830528
0.000106792814665821
0.00011132227896047
0.00011684723159925
0.000123810769883403
0.00013294460512264
0.000144997201912668
0.00016046935628365
0.000179517958277445
0.000202880497777968
0.000231245392094408
0.0002649521520361
0.000304033902429533
0.000348148658615088
0.00039676839718876
0.000449584089907749
0.000507143060693109
0.000569252866328786
0.000634022490642721
0.000699890418074591
0.000765070245120788
0.000828079201944346
0.000888013129923124
0.000945401727465543
0.00100377262945909
0.00107184992663025
0.00116549572908706
0.00129950380787304
0.00140732279669006
0.00150742767693525
0.00159341575659604
0.00167219944009053
0.00174332724586095
0.00180897048714396
0.00186952343548341
0.00192570885374529
0.00197746629264593
0.00202538282914358
0.00206972946112384
0.00211066781145913
0.00214828298425694
0.00218262666399141
0.00221372401813565
0.00224159352865953
0.00226626507266809
0.00228780135034887
0.00230632551059276
0.00232205219151134
0.00233532793434969
0.00234667850847171
0.0023568665993022
0.00236692259771609
0.00237815256433948
0.00239188569799023
0.00240893888699583
0.00242716012758238
0.00243810885143625
0.0024225334660062
0.0023841524619457
0.00238249019823508
0.00239821759136112
0.00242249329565347
0.00245128914153384
0.00248077545112449
0.00250909720266175
0.0025346715431451
0.00255672592317931
0.0025749878350321
0.00259084567025476
0.00260649625308003
0.00262083435192562
0.00263139777830362
0.00263618355925688
0.00263247271755732
0.0026203907610701
0.00259991989867712
0.00256947883390154
0.00252597195617626
0.00247207278111122
0.00241115383536928
0.00234562291741049
0.00227755958797217
0.00220846382380723
0.00214036837110814
0.00207555271663848
0.00202001184409438
0.00197902739341212
0.00194458694016819
0.00191557137575352
0.00188942054638248
0.00187018328126081
0.00184982087858769
0.00183512194595404
0.00179484110466793
0.0017323959371674
0.00156652556081829
0.00135906340311618
0.00111631351737654
0.000925426136141515
0.000745329256934982
0.000639174648878538
0.000598263662219203
0.000830957819943455
0.000826355140911292
0.000838061841839574
0.000794550745257256
0.000693401898145114
0.000547130539160841
0.000338848993663215
0.000213341039465652
0.000183974226077173
0.000211522726115943
0.000257225504634705
0.000282961825091773
0.000268844464916753
0.000239290645800516
0.000213117717756149
0.00019533723594714
0.000185756412187639
0.000182963140178838
0.000185337278622465
0.000190249641626381
0.000196477331695316
0.000204033084932188
0.00021360431742043
0.000226338739224508
0.000243333217777757
0.000265211388744906
0.00029207623011591
0.000324910786003505
0.000364480876486043
0.000411000301943518
0.000464254360535054
0.00052358643507865
0.000588232481727295
0.000657820035964818
0.000732948504734608
0.00081309037676158
0.000895806099418884
0.00097925262364592
0.00106143526943955
0.00114095216161517
0.0012172925496579
0.00129182982543288
0.00136938635878704
0.0014601654448518
0.00158075764193462
0.00174247628079985
0.00187300709910073
0.00199449973704184
0.00209897573060457
0.00219478659844811
0.00228129952436711
0.00236112169779148
0.00243474641001532
0.00250280361156988
0.00256556327354047
0.00262368290614869
0.00267745490547166
0.00272707370440736
0.00277265064672188
0.00281425722691427
0.00285193372544709
0.00288571277590594
0.0029156407741669
0.00294180370624526
0.00296435984626366
0.00298357647844121
0.00299987643793633
0.00301389093157567
0.00302651798704852
0.00303894243601432
0.00305260379706289
0.0030688455255648
0.00308817390506287
0.00310757432019262
0.00311705067018033
0.00309684867410143
0.00305508513258233
0.00305383860489573
0.00307262943688684
0.00310168079336427
0.00313627921726772
0.0031720488680785
0.00320675277671988
0.00323853960910752
0.00326648209387826
0.00329030514223075
0.00331159872520023
0.00333260646471034
0.00335188712095128
0.00336656876909839
0.00337370163157507
0.00337058637614192
0.00335785255826325
0.00333507512280185
0.00330032478469202
0.00325016521827111
0.00318757440624212
0.00311650456840744
0.0030398120330458
0.00295995714474912
0.00287873444392933
0.00279855503617025
0.0027221342437333
0.00265635550120725
0.00260770078004144
0.00256727576485263
0.00253345234043892
0.00250278042147792
0.00248027054576893
0.00245562219882838
0.0024381280819402
0.00238860405870312
0.00231492246190138
0.00211849467921691
0.00187218011774595
0.00156976942226555
0.00132502816598875
0.00108392074340708
0.000928315423232635
0.000855586143631735
0.0011216185266714
0.00110046956607605
0.00110617714784948
0.00105065496662217
0.000929303926164903
0.000758539217793861
0.000488196740335715
0.000285870013711201
0.000236633864235235
0.000252481929602342
0.000334363238294357
0.000393981990195515
0.000398926614573895
0.000370553102991339
0.000338935309318602
0.000315093448248094
0.000301230712183414
0.000296571898936961
0.000299195361522348
0.000305289709689718
0.00031300160902166
0.000322294477069009
0.000334157015867736
0.000350232785648847
0.00037200845588779
0.000400228744785851
0.00043495617582304
0.000477413490535385
0.000528372813084657
0.000587856695216614
0.000655363226956532
0.000729930955228505
0.000810600946138641
0.000896950243740871
0.00098955111113898
0.00108751741440815
0.00118797580678742
0.00128889044731963
0.00138819108803224
0.00148468374247057
0.00157834617900741
0.0016713734411498
0.00176960689552626
0.00188407485174842
0.00203114909274026
0.0022183678308799
0.00237128612318659
0.00251346404586018
0.00263629040073537
0.00274896733898133
0.00285084661912816
0.00294484170941046
0.0030315532084781
0.00311149552300786
0.00318533311622122
0.00325371932914835
0.00331698127179252
0.00337534973472568
0.00342896475166934
0.00347791972001868
0.00352227293939836
0.00356207435793105
0.00359739020942974
0.00362833289588869
0.00365509812894064
0.00367800640532037
0.00369755396517999
0.00371446831953757
0.00372976272759039
0.00374473931631998
0.00376090902885829
0.00377954595538453
0.00380076956355134
0.00382076662085629
0.00382840505163229
0.00380430972743234
0.00376073174706731
0.00376024084172272
0.00378224804245864
0.0038161586897386
0.00385663001441296
0.00389881540640815
0.0039401006805921
0.00397838360943438
0.00401258427351346
0.00404242557066658
0.00406964155479031
0.00409642841002576
0.00412100693674431
0.00414003206368654
0.00414938824730943
0.00414722737766913
0.00413413685874677
0.00410935309903881
0.00407065239332221
0.00401437095716798
0.00394372536288935
0.00386318203196801
0.00377601980110632
0.00368505851776686
0.00359237457238579
0.00350072613065167
0.00341324878286427
0.00333754782082167
0.00328110939071858
0.00323454085190142
0.00319571354522831
0.00316037891566433
0.00313435783879562
0.00310532363008441
0.00308470206575811
0.00302611853637947
0.00294119189233196
0.00271700149250488
0.00243639544240763
0.00208002429859263
0.0017844006733415
0.0014847608014379
0.0012779911660692
0.00116807499457534
0.00146141757005249
0.00141888276267367
0.00141600926668257
0.00134309487924133
0.00120471116756353
0.00100011065194308
0.000691385443093995
0.000381175795656775
0.000294325155552904
0.000286265911808495
0.000398605956301714
0.000495654797683853
0.000534368086197846
0.000518903735989577
0.000488483159148332
0.000461953362213243
0.000445345658035227
0.00043948382053949
0.000442625603129136
0.000449986976101228
0.000459106034611768
0.000469906676126484
0.000483718608643446
0.000502731005424987
0.000528859039782828
0.000563001380914392
0.000605236560323098
0.000657010962867889
0.000719057460261214
0.000791180930798473
0.000872590870485635
0.000962052744715761
0.00105844496645059
0.00116128269319189
0.00127103852434912
0.00138648572743529
0.00150443217557776
0.00162271991561381
0.00173930741373611
0.00185327741390923
0.00196511153808378
0.00207771054253674
0.0021976074837027
0.00233609005200601
0.00250869975558869
0.00271945667780254
0.00289434747055033
0.00305643484022807
0.00319737982900187
0.0033266577127127
0.00344378185527047
0.00355184397621119
0.00365149486518283
0.00374332059713869
0.00382821063445002
0.00390683957934352
0.00397957813959968
0.00404669581601226
0.00410836386757054
0.00416470021074563
0.00421578443588626
0.00426168715358276
0.00430249767091204
0.0043383574365056
0.00436950082125352
0.0043963001883632
0.00441931940685145
0.004439369318403
0.00445755420526136
0.00447525382975838
0.00449399278215476
0.0045149114977369
0.00453771418819709
0.00455791210571948
0.00456366423731018
0.00453661644264032
0.00449266131844933
0.00449332271507614
0.00451869365949494
0.0045575062112365
0.00460385446084173
0.00465249528130087
0.00470045280757799
0.00474539317864971
0.00478608807921715
0.00482225293958785
0.00485570356536493
0.00488850991494659
0.00491855395871471
0.0049417385467306
0.00495325697336588
0.00495224355036089
0.00493895715264106
0.00491236265446162
0.0048699999094933
0.00480808651302766
0.00473001708861149
0.00464069287982975
0.00454377704934223
0.00444242021246057
0.00433895621359557
0.00423645177583391
0.00413843628762149