/*--------------------------------*- C++ -*----------------------------------*\
  =========                 |
  \\      /  F ield         | OpenFOAM: The Open Source CFD Toolbox
   \\    /   O peration     | Website:  https://openfoam.org
    \\  /    A nd           | Version:  7
     \\/     M anipulation  |
\*---------------------------------------------------------------------------*/
FoamFile
{
    version     2.0;
    format      ascii;
    class       volScalarField;
    location    "20000";
    object      omega;
}
// * * * * * * * * * * * * * * * * * * * * * * * * * * * * * * * * * * * * * //

dimensions      [0 0 -1 0 0 0 0];

internalField   nonuniform List<scalar> 
15600
(
3736.42410747304
3736.42410747389
3734.66305510647
3730.7907196831
3724.84554079545
3726.16054268482
3744.41995762024
3779.28148319261
3792.35101958521
3766.1889814807
3698.82908778469
3594.10082956723
3460.73432017446
3306.25704306891
3137.07732191188
2959.03106424721
2777.94782001931
2608.24359949229
2456.87859015903
2321.40697491589
2199.61033468037
2089.63783627436
1989.9362100916
1899.19513363281
1816.30453556612
1739.65949909701
1665.15949694618
1591.95659370016
1520.55930639774
1451.41324031646
1384.92023979932
1321.45634879138
1261.39431289478
1205.15031024388
1154.02447218511
1109.05947070906
1069.89338989345
1036.15676991582
1007.55040331755
983.839759992557
964.846366207209
950.444101066261
940.553533767628
935.140450225264
934.017091123973
934.106026867028
934.106026867013
934.106026867025
934.106026867046
934.106026867011
934.106026866987
934.106026867017
934.106026867
934.106026866972
934.106026867018
934.106026866972
934.106026867
934.10602686707
934.106026866954
934.10602686707
934.10602686704
934.106026867009
934.106026867074
934.106026866996
934.106026866947
934.10602686699
934.106026866961
934.106026866961
934.106026867031
934.106026866957
934.106026867026
934.106026867
934.106026867087
934.106026866999
934.106026866982
934.01620224468
935.160901513764
940.602254652519
950.521204816412
964.952216481738
983.974998008978
1007.71607644541
1036.35415837534
1070.12427007724
1109.32591486757
1154.32919738402
1205.49368926347
1261.76471683116
1321.85071403199
1385.33594434083
1451.8480359377
1521.01083970062
1592.4223457266
1665.63680870158
1740.1447912459
1816.81806470465
1899.75579851324
1990.55059385143
2090.31367941114
2200.35678938428
2322.23491730758
2457.80085495778
2609.27588910883
2779.09781521857
2960.20071821435
3138.21391754241
3307.32610111361
3461.69650855093
3594.91399061474
3699.43511683631
3766.54338811415
3792.44578799709
3779.14441034118
3744.27221675589
3726.13574608299
3724.88393963647
3730.84066336994
3734.68218259773
3736.42410747304
3736.42410747389
632.94821266006
632.436821302508
632.844207974101
634.689592896123
634.52858509562
634.576908793989
635.858090365611
639.377300913097
639.91129138211
635.037286062588
623.641613148028
606.063896023206
583.738158549293
557.881527497157
529.526411398481
499.642373214042
469.190175417227
440.578940547687
415.010603421139
392.119737597147
371.541094559786
352.965599137522
336.133327308642
320.822684942606
306.844056212434
293.930037474429
281.402439755084
269.101678925234
257.102451848329
245.477170214788
234.291670419356
223.608943173431
213.494246352787
204.028624984612
195.426677410953
187.849539702247
181.244902673233
175.552590306083
170.723944356454
166.722022047925
163.52419727765
161.120472281189
159.502816133856
158.774594116423
159.084123607506
159.031269591466
158.884226587407
158.794703847838
158.731030775688
158.679597114146
158.636235479531
158.596922311938
158.559698742943
158.523133266209
158.486424758576
158.449045968002
158.410753916871
158.371534315501
158.331622815309
158.291277961089
158.250875665684
158.210889119467
158.171862368941
158.134411380086
158.099184968925
158.066838427157
158.037979051627
158.013130100505
157.992439421174
157.975696887078
157.961179039811
157.944765806979
157.915453274906
157.863130868125
157.698859088886
157.47601328677
157.947253088463
159.018361285569
160.730138713164
163.164736579158
166.346110332258
170.307247041578
175.079971736917
180.707891519306
187.241570198902
194.747274379583
203.278775774732
212.635706141167
222.605350465818
233.135845986774
244.175305972185
255.671125102265
267.563046911707
279.789895154962
292.283158096119
305.236932002055
319.296439063536
334.708561882447
351.65382797034
370.34706465522
391.048628453026
414.060706452847
439.738400334815
468.400117827389
498.903191407485
529.07172109629
557.865655620158
584.321612786178
607.361163202912
625.810722883965
638.303527403045
644.568739355578
645.358756767506
643.257559318128
641.36993383403
640.335045805014
639.440259341418
638.529886734518
635.591637309313
633.549917280007
215.322245174121
214.200040396629
214.680995270264
217.790932264903
219.269671682082
219.243785659786
217.121106922638
214.550823038013
211.946280204353
209.262779452968
205.203879769277
199.339912998448
192.042622098003
183.628903530308
174.385084399578
164.617704430351
154.651808892533
145.272945105576
136.865522145281
129.330633621259
122.559905530493
116.456200825564
110.936984972959
105.928504525982
101.362255564592
97.1424923718536
93.058296992754
89.0552954329676
85.1507396464909
81.3648785627468
77.7171342406767
74.2284800980806
70.9254482056174
67.8486449630742
65.0643562991919
62.605408995269
60.4570804223037
58.6026970433373
57.0296186019643
55.7314837023999
54.7114050800874
53.9832677459082
53.5796792522266
53.6236009239781
54.1489698739703
53.9981202275613
53.7413906287145
53.5639591287596
53.4231021007534
53.3027914414908
53.1965160477325
53.0985801168233
53.0061891689169
52.9172948365486
52.8307771184317
52.7459384513922
52.6625737592565
52.5810704079523
52.5015064270576
52.4240951844348
52.3493538841329
52.2778619198285
52.2102606847502
52.1472302991383
52.0894247818069
52.0374185421126
51.9916063684514
51.9520922527823
51.9182873201391
51.8886657590563
51.8592581688469
51.8226246934751
51.7600393258623
51.6475046949828
51.4165867118296
51.2062485813413
51.6066597884796
52.070357972047
52.6384004229308
53.4049044908361
54.3866385530059
55.6067005996821
57.0781661138672
58.8194353043988
60.848088702202
63.1890511503327
65.8560086245689
68.7696741132507
71.8656275160467
75.1414493269218
78.5904019508686
82.2048879896297
85.9731273390883
89.8876832856845
93.9405767710976
98.2251871545981
102.913247420321
108.075160610155
113.766418919108
120.051977477475
127.014811463989
134.743567097596
143.333427064676
152.813856971031
162.863260543785
172.988440628802
182.806321959496
192.007877659566
200.225224951632
207.153845765756
212.421924831331
216.309457322371
219.668302194755
223.820828717538
226.835469302119
227.946173651194
226.969923377055
225.197714335637
220.727223459267
217.006105321504
109.038384716071
107.076545812087
106.630415691344
109.648155377816
112.441020665105
113.551510262
110.4665188599
104.500004044183
99.2595743377446
96.310230406833
93.9394204056155
91.1208534892564
87.8087815052749
84.0354941160002
79.8784364575992
75.4672165451453
70.9627865415217
66.717610541365
62.8916073996485
59.4558085288683
56.3726894502845
53.6025053729648
51.1101193631062
48.8600476907157
46.8140478368735
44.9210501381317
43.095300183697
41.3115374548418
39.5709888398165
37.8792266774584
36.2433032828777
34.6742456606951
33.1902617426831
31.8194423226152
30.5839950104504
29.4825706971196
28.5124295833287
27.6705906584202
26.9569518907391
26.376773610141
25.9432023811209
25.6802110563698
25.6286189423553
25.847981887999
26.2106834680196
25.8527164414487
25.5000752283264
25.2470561696589
25.0454584957115
24.8761192708588
24.7307170022018
24.6012788506262
24.4841565318646
24.3762480592104
24.2758517447549
24.1817983687996
24.0937805376609
24.0110402434347
23.933056893129
23.8598231833394
23.7914499122552
23.7281436716137
23.6701816043686
23.6178803950754
23.5715328706301
23.5313509086396
23.4973553051578
23.4692280701845
23.4459046649443
23.4251864867551
23.4023275533205
23.3688819940862
23.3062904144658
23.1945195781308
23.0088500879344
22.9060296066644
23.2499212719313
23.5136952937767
23.7771329422997
24.111248330769
24.5263544762792
25.0398373907174
25.6584243711076
26.3922416548924
27.2492742674136
28.24139872835
29.3710516377424
30.5972963317271
31.8957976135737
33.2721440832655
34.7275282471192
36.2624745448034
37.8749419735069
39.5663462197132
41.3424280844835
43.2613204763919
45.3788548085997
47.7221557737195
50.3160425750558
53.1878068319095
56.3739713457362
59.907356393513
63.817119356938
68.0577714614963
72.4848695400467
77.0226866660052
81.4916661542992
85.7607799354725
89.6362685939926
93.0357744005354
95.8018695954535
98.3399629506927
101.418518166283
106.94188004026
112.713164513516
117.171012372755
118.987210946831
119.256759072448
115.871282342814
111.703774917026
69.6642041227658
67.2654351955123
65.85922736485
68.1146990062418
71.7570947329565
75.1541658740151
73.6563012819225
66.1419298551741
58.0623664254479
53.7975290595305
51.6765944945051
49.9337120807331
48.1331611574621
46.1358532442917
43.9257673263975
41.5633622148718
39.1473379630432
36.8644888940814
34.789130310852
32.9206004961698
31.2492844018987
29.7573189815366
28.4268243669318
27.2352829988593
26.1548305370015
25.1522051386128
24.1888291564849
23.2491229549704
22.3276280328232
21.4244487917067
20.54289050699
19.6918928143771
18.8871980676843
18.1485831167836
17.4790094699188
16.8689844972691
16.3243662339068
15.8492438663971
15.4500461046023
15.1367022641245
14.9240033959189
14.8324684251741
14.883547149518
15.0686736051133
15.2078716016654
14.7668008438436
14.4524384650468
14.2266389896383
14.05820128724
13.92269743724
13.8128803751893
13.7195430496418
13.639208035297
13.5683604659913
13.5052309108535
13.4485061744127
13.3970663297058
13.3497993938114
13.3063145628275
13.266439255134
13.2300737092217
13.1972338056567
13.1680153034078
13.14256800082
13.1210460200497
13.1035584329996
13.0900718964497
13.0802658611156
13.0731923261378
13.0668881261823
13.0573037948678
13.0374371750675
12.9938965815792
12.9154556618235
12.8024654206803
12.7763850485671
13.0263777686339
13.191839055389
13.3520763474741
13.5465409660946
13.7801455277028
14.0639812616214
14.4012672208087
14.7976432905626
15.2570315716321
15.7853386849418
16.3816077364577
17.0231650535493
17.6992247454766
18.4140348229342
19.1686941956667
19.9639722605168
20.798004483695
21.6715479853389
22.5918158110856
23.5943854813999
24.7007880729746
25.923313477171
27.2751928356625
28.7701563046881
30.4270567358648
32.2597832314577
34.2789206169772
36.4338647184513
38.6316112293119
40.8949185584782
43.1345002244317
45.2927663707195
47.2458272919855
48.987479478216
50.4007908898899
51.8532428501515
53.7437830944294
58.0317669097404
63.5343350071237
69.2760067341598
73.3479203283159
76.3952626692412
75.550696501337
72.4426439562414
49.5338893248116
47.3759627200716
45.5938123551874
46.9339807024348
50.4529122910604
55.7627513293703
57.661530576627
51.1658167992134
40.9529861778311
34.6307560068462
31.9947867762335
30.5786470258157
29.4394246495031
28.2655074769798
26.973593125437
25.5831516950583
24.1582373784329
22.8050123337427
21.5590097742273
20.4345397216812
19.4347981147598
18.5515041086699
17.7735702417734
17.0830644441881
16.456753933087
15.8711952137901
15.3090042887847
14.7576692900131
14.2092125792109
13.6626414976633
13.1214879747024
12.5954399486937
12.0988823541943
11.6450609667474
11.2291942361546
10.8439815835394
10.500647279465
10.2055329270431
9.96634389734629
9.79170721265503
9.69190361061101
9.67750718783359
9.74998676085496
9.8713895242029
9.89138968315973
9.52687642306787
9.3254319263266
9.17627940724524
9.07518804522931
8.99632512376214
8.93661460517581
8.88793688657606
8.84819235118979
8.81454730727834
8.78582953551662
8.76082025114224
8.73846056603993
8.71821859862411
8.6999277559708
8.683458426678
8.66876202376661
8.65587683375684
8.64490115422896
8.63597257389901
8.6292295670882
8.62476867579434
8.62256161276684
8.62232690003087
8.62326505919085
8.62373811515721
8.62054848129131
8.6084677947317
8.57891566424451
8.52709518342756
8.46273723008004
8.47059992791137
8.6455785209217
8.75860542641002
8.87216907423639
9.00684702694272
9.1649643170235
9.35343681777965
9.57388284279801
9.82964113607516
10.1228575536942
10.4566311202901
10.8291363696796
11.2267763764192
11.6439695244277
12.0832971846215
12.5452262477441
13.0300289945543
13.5348472653654
14.0603134924629
14.6122138266392
15.2127688643754
15.8716910251079
16.5947579169854
17.3892154264235
18.2623072968233
19.224282242582
20.2812868475076
21.4378255777162
22.6560224146778
23.8702035230964
25.1136205345052
26.3394900846696
27.5235600732153
28.5814753258304
29.5331896785658
30.2739733042644
31.0924346345561
32.0949201966147
34.7662912590088
38.5803701072282
43.4023615167023
47.6031153006819
51.8815532577355
53.1127789863343
51.6231618665905
36.7995437542031
35.2490612457593
33.6165086514875
34.2771562527638
37.0208221559409
42.7637117641623
48.1074513782039
44.7260165111971
34.0934688982369
25.5820010585402
21.858206471416
20.3138262336023
19.4091525693869
18.6215126437409
17.7998718067048
16.9263200799451
16.0350355936166
15.1834356184516
14.3870628404463
13.6681637423825
13.0353198190642
12.4842303320957
12.0061492884893
11.5848107128173
11.2001900297414
10.8357326315846
10.484427157514
10.13514637083
9.78051380690662
9.42100154789638
9.06187199184982
8.71350390568797
8.38804863905118
8.0934420463604
7.82290951999667
7.57301671632675
7.35541394752709
7.17513891840074
7.03818093349496
6.94992438575118
6.91568650861236
6.93826862520324
7.00908343355129
7.08735567140338
7.06811740215532
6.81262947583973
6.69914172656509
6.60865883626209
6.55433211467604
6.51253539994829
6.48364200864407
6.46118580825636
6.44423051972643
6.43071194181164
6.41994430661243
6.41085864649256
6.40292253671434
6.39592757045095
6.38979641134715
6.38447284799229
6.37996825332414
6.376351507363
6.37373039396605
6.37223378823175
6.37198025660828
6.37303979253454
6.37536288251539
6.37867081981732
6.38225294991683
6.38472346072417
6.3835655750325
6.37496743895676
6.35363438576719
6.31845973045862
6.28153836211947
6.30178823351458
6.42780892841079
6.5110783500099
6.59779243325329
6.69944132248478
6.81728281468043
6.95583336188412
7.11601647702979
7.29996556288135
7.50897499837662
7.74474380120268
8.00533172568372
8.28189307701786
8.57116321868816
8.87473801258738
9.19277003622141
9.52509157766325
9.86857986861026
10.2242312002693
10.5963691938658
10.9998416719876
11.4397216738734
11.918805910839
12.4412608654211
13.0111558232589
13.6344387900658
14.3139266888147
15.0516692545083
15.8209818372069
16.57392453319
17.3373538992067
18.0848140518865
18.8068757326528
19.4430681638078
20.020089808628
20.4458036130897
20.9423891116464
21.4813476420462
23.0953967063179
25.4797731129815
28.9000198744537
32.1492455206124
36.1161838991671
38.2158174827571
37.9902834872303
28.0072990064483
27.0669879307951
25.8053946659421
26.0976630299985
28.0351700303375
32.9144518538229
40.4500890911002
41.0448460390607
31.8249099198211
21.7210946848814
16.5885542205971
14.5925464585684
13.6542451194787
12.9987749505385
12.4005395065135
11.8045351746077
11.2139544334359
10.6507632990393
10.1178611276584
9.63945733345816
9.22488467601066
8.87092327093344
8.56936681782159
8.30506105755413
8.0611641376654
7.8263976254048
7.59878764416016
7.36862592310762
7.13065233587459
6.8870327830295
6.64385804803047
6.41051211611693
6.1959189417193
6.00407320450569
5.8286779761017
5.66893128576845
5.53449873618275
5.42868945047643
5.35572128711
5.31857030102118
5.31936455806823
5.35669595230324
5.41883912668588
5.47124004090234
5.44454732624695
5.27301669077656
5.21008899686065
5.15484540505355
5.12642460420467
5.10475170529857
5.09186369821497
5.0827019574811
5.07695889941728
5.07313286469501
5.07073486669354
5.06900516367238
5.06773552432522
5.06682291760824
5.06623620307536
5.06596460700944
5.06604914926472
5.06656856987691
5.0676255057363
5.06933031681984
5.07177417212676
5.07499452849693
5.07891431394774
5.08325001614632
5.08735745158141
5.09005604039938
5.0893577015221
5.08250102932983
5.06630805500472
5.04162699998142
5.02027005766194
5.04393851971625
5.13803558489447
5.20289751535466
5.27210970198429
5.35280670940684
5.44576390744459
5.55407040786876
5.67832099517843
5.81995823925322
5.9798144349375
6.15882972696717
6.35517840301737
6.56273504224886
6.77941014987267
7.0062334871298
7.24322161424441
7.48975225662082
7.74316789072213
8.00458300442638
8.27729599864047
8.57186141505543
8.89129911402389
9.2369964730974
9.61150595695688
10.0173014222243
10.4581061045373
10.9352797118131
11.4497519331687
11.9824017747787
12.4972270637997
13.0137931884865
13.5159492081196
14.000813571908
14.4230256970229
14.8087875652038
15.0792556530339
15.4074675931373
15.7183501858425
16.739350054128
18.2370949308324
20.578686739816
22.8578257939047
25.9579442787909
28.0689785333202
28.5065638278712
21.7811726554936
21.2921742989004
20.4041864910662
20.5363670029159
21.9085219161764
25.4231684515717
33.490852733472
37.8271247618499
31.3386368761917
20.6488888681996
14.0769469919246
11.4202951629659
10.2862321786953
9.61467354861686
9.09222928452495
8.63051254507664
8.20389819411242
7.80723748158088
7.43330790122416
7.10308063918231
6.82371035559574
6.59160028762669
6.39856572986322
6.23078305691046
6.07450338807908
5.92213538652197
5.77367242070942
5.6209007905477
5.46056600829137
5.29554590266965
5.13150833333041
4.97594070052039
4.8348970502994
4.71014780581171
4.59681751452947
4.49557522295157
4.41390244504582
4.35399868124487
4.31885039032966
4.30995949854627
4.32762320713446
4.368484836658
4.42084218214437
4.45766940601143
4.43359149358881
4.31842368836483
4.28285031037989
4.24850940991087
4.23415724572951
4.22347288290496
4.21894471063228
4.21662981643497
4.21649658515952
4.21742657846809
4.21902353003964
4.22082566755159
4.22274719229758
4.22473029001921
4.22676882885378
4.22887600835399
4.23110388754452
4.23352950716736
4.23624363957231
4.23933579945774
4.24287060074989
4.24685672123898
4.25119490788286
4.25560200758375
4.259494561808
4.26186717243902
4.26114688417982
4.2553438982502
4.24264106115032
4.22485820001806
4.21262834462208
4.23605276555856
4.30845453930472
4.36096741440002
4.41791098149953
4.48420753942886
4.56037812371993
4.64860611109712
4.74930895709892
4.86349743879856
4.99172494225681
5.13449067351923
5.29014808642568
5.45425935810036
5.62539171946364
5.80422893891828
5.9906916546294
6.18380683706606
6.38163169224846
6.58517413780296
6.79704524899611
7.02510004621875
7.27134560796515
7.53647550817881
7.82214816882305
8.12998275391235
8.46247108685441
8.82031312828197
9.20387529440609
9.59901028963058
9.97803221273515
10.354801859118
10.7187701313559
11.0698515748235
11.3728109902235
11.6508474240655
11.837474157633
12.069264893598
12.2620968288979
12.9462369478351
13.9255259395225
15.5558368713403
17.1397649963049
19.4205541179049
21.2081981922102
21.8784506546259
17.3306125346225
17.126627328435
16.5281178794258
16.6078438644359
17.623495337389
19.9388876098182
27.1379985114889
34.2556609415026
31.1508363163531
21.0160739887603
13.2079258334547
9.75706143312972
8.32918555780124
7.56586499485607
7.03917992406746
6.62735361662633
6.28191752313784
5.97771813366698
5.69886203710653
5.45986676497228
5.26435685132792
5.10776274247603
4.9818764819087
4.87433662123192
4.7739605200966
4.67535054540305
4.57881971246222
4.47754185724452
4.36962555448202
4.25790833999453
4.14715199583974
4.04306297492222
3.94973931859076
3.86796379833736
3.79433443813602
3.73021285459472
3.68130399431709
3.64915661488304
3.63588454874428
3.6420734617281
3.66698306852824
3.70652826294435
3.75023376187744
3.77761169518917
3.75878089927345
3.68074395290411
3.66035551232535
3.63905409438317
3.63268242361657
3.62837880411159
3.6284755764394
3.62991709394317
3.63276715656457
3.636163613275
3.63980711321889
3.64342285377248
3.64697209351445
3.65042166001372
3.65377939549974
3.65707054797177
3.66034935418523
3.6636865945911
3.66715979265763
3.67083927986654
3.67476721230014
3.67892988684459
3.68321350884306
3.68734211584375
3.69079074958068
3.69270565332624
3.69184287205704
3.68678091088707
3.67658214332798
3.66348962990384
3.65674054285935
3.67844718035806
3.73546061276228
3.77912065180677
3.82702393729171
3.88287010065334
3.947026825565
4.02106904553876
4.10530375957007
4.20045269890722
4.30688639118175
4.42483481292848
4.55283886118135
4.6875738854596
4.82800057442283
4.97457597453574
5.12709669968689
5.28444903074204
5.4453152662308
5.61052747669051
5.78221801847
5.96642827539616
6.16461627463119
6.37712572247757
6.60509137185053
6.84964164732716
7.11253876298538
7.39417570222279
7.69461334373189
8.00305866019473
8.29782153436884
8.58858875083567
8.86804182879316
9.13711724185093
9.36770235582624
9.57932795237605
9.71628675082427
9.88749307060808
10.0142377937417
10.495225944035
11.1646407531175
12.3340203954035
13.4616865373199
15.1263519899742
16.5462712216292
17.2362961160243
14.111506935134
14.0727572640616
13.671080112553
13.7502880173608
14.5135988563776
16.0652873613186
21.5983849060194
30.1832413683078
30.3865134600475
21.9971837729233
13.3657525702291
9.03504276947218
7.23043686491529
6.33191066188222
5.76081618790051
5.35283052897451
5.04041960957338
4.78384380428748
4.55988122362745
4.37556985517374
4.23083219470319
4.11999274628382
4.03485401107915
3.96439098754217
3.89929605828872
3.83530031918084
3.77236897716097
3.70487520143708
3.63173114686606
3.55543246049515
3.47983939938562
3.40929086014682
3.34666506028085
3.29238027273675
3.24420574539722
3.20372594910834
3.17529328160996
3.1600399753482
3.15942479527984
3.17344850634809
3.20080640165258
3.23732638399327
3.27409756729925
3.29577360576934
3.28242350819238
3.22927338533585
3.21784440327809
3.20518376164529
3.20364849373388
3.20334322889241
3.20620317514836
3.20987980894005
3.2144505152241
3.21923290067466
3.2240243101354
3.22865376153223
3.23310301067531
3.23735465850869
3.2414245966755
3.24534382976613
3.24916489583289
3.25295106372495
3.25676744670789
3.26066808513693
3.26467726963516
3.26876506271286
3.27280988710712
3.27654835044689
3.27951157880086
3.28097709733832
3.27996305713347
3.27546786761944
3.26712215898158
3.25728676699301
3.25384773494445
3.27330110725973
3.3189919928652
3.35596719493505
3.39695573033484
3.44490752361125
3.50008853363442
3.56364627431019
3.63580900503255
3.7170944519829
3.80774541445287
3.90782197910032
4.01604084218505
4.12984583033328
4.24844532541292
4.37213362232588
4.50055702376012
4.6326557540548
4.76754832616476
4.90589895845411
5.04948971692398
5.20307945786928
5.36780258126168
5.54382743173621
5.73196778573377
5.93305186282297
6.14838483513808
6.37821653856192
6.62243460469139
6.87259705170705
7.1114644192024
7.3456923642673
7.56990399811904
7.78518776040657
7.9686173033122
8.13611486064302
8.24110778374662
8.37115897219233
8.45786541569065
8.80825454089301
9.28405156801874
10.1472009939835
10.9757999721859
12.2076217242269
13.3140872167334
13.9434185355727
11.7429134295374
11.7953362777587
11.5181073339722
11.620813161946
12.1717833495115
13.3589149858915
17.05928296966
25.8692961013994
28.7586965748236
22.9574560684949
14.1875014415755
8.95673459178978
6.68361514254141
5.60839944288476
4.96766647610891
4.53742691529779
4.22999075941475
3.9939123627056
3.79942855230419
3.64627696565812
3.53099776544649
3.44683882004557
3.38560265290103
3.33733646166655
3.2939982740538
3.25181784788408
3.21024518803062
3.1646297030789
3.11430931135386
3.06137270651782
3.00892231975325
2.96030000210405
2.91762343100978
2.88120613979047
2.84964996891792
2.82451041532354
2.80912175046523
2.80432026828347
2.81106404015397
2.82898430224565
2.85650678873303
2.8896980416042
2.9211834444361
2.93950107116793
2.93114228321424
2.89515003807372
2.88944297434034
2.88283869752837
2.88447306671196
2.88687976626574
2.89154590267227
2.8966831557777
2.90234897289705
2.90800202035039
2.913515237107
2.91877707126593
2.92377990297975
2.92851745618931
2.93301041205994
2.93729223655908
2.94141226674459
2.94542642665932
2.94938901116444
2.95334076349498
2.95729226371915
2.96120247387921
2.96494728930467
2.96827943352705
2.97078290090427
2.97184841390716
2.97070339084901
2.96665672791092
2.95970221135288
2.952150409491
2.95067434112916
2.96775381656158
3.00485514465202
3.03657525237838
3.07211753124361
3.11391764765754
3.16216933900064
3.21770931831619
3.28070336554135
3.35151908274396
3.43030557109337
3.51701353013338
3.61051735266673
3.70880974930936
3.81126027796357
3.9180271448751
4.02862642888153
4.14215543124567
4.25800591845727
4.37670464665468
4.4997655128981
4.63100441941463
4.77134972955259
4.92088659284364
5.08022505284935
5.24999895558333
5.43121523743262
5.62405988609405
5.82832230463655
6.03727767698556
6.23706623324921
6.43211993856341
6.61825249921604
6.7962701211359
6.94710980024977
7.08342325339824
7.16627642659316
7.26658011296985
7.32720431603574
7.58883640919276
7.93782057438354
8.59035870779972
9.21720054714836
10.147753853678
11.0099438828666
11.5581609247678
9.96450340655233
10.0649050318441
9.8637314341367
9.99753952769837
10.360471224715
11.4252636457127
13.5694340259767
21.6638871229214
26.5201603748408
23.3770002890293
15.4195739198267
9.37245002596716
6.53017448566326
5.22501047980992
4.48976631667775
4.01843144189689
3.69768993690517
3.46467742434077
3.28308246282972
3.14574697496431
3.04613291743542
2.97642901001907
2.92836868787384
2.89278159913987
2.86243034974996
2.83369645258231
2.8055267576288
2.77401939962919
2.73869769533284
2.7012609341859
2.66420091810712
2.63013227586408
2.60068194333112
2.57615236497607
2.55570689972201
2.5407544333972
2.53386019297648
2.53563600679634
2.54666061403149
2.56634358891392
2.59302685177719
2.62316467376138
2.65074890603146
2.6671987059262
2.66318733977056
2.63940223736514
2.63768596468283
2.63554452290035
2.63944278033464
2.64383897137618
2.64980952372372
2.65600569198307
2.66245501042961
2.66873519555406
2.67476941369425
2.68048360288595
2.68587693686846
2.69095146944365
2.69573085999759
2.70024933908838
2.7045526668624
2.70869015949083
2.7127070375248
2.71663346665602
2.72046982046548
2.72416803830581
2.72760535652265
2.7305526365359
2.73264289771275
2.73336397452874
2.7321103501314
2.72841990901998
2.7225124745087
2.71655959261964
2.71618337096728
2.73095157320181
2.76136678086224
2.78882457357365
2.81997364372073
2.85685943137926
2.89962140726476
2.94886408027935
3.00469992443966
3.06738222340067
3.13698864122035
3.21339871847215
3.29562524911065
3.38206326215523
3.47218915429941
3.56602721006233
3.66303075899055
3.76246389139521
3.86388629244139
3.96771783082446
4.07525923135901
4.18961202658772
4.3115634592055
4.44116522919992
4.5788944433197
4.72525234321492
4.8810462182177
5.04643771688118
5.22116508718149
5.39980954512934
5.57112004203355
5.73786746342259
5.896590703739
6.04759845651605
6.17474769350429
6.28785027672339
6.35432524627428
6.43204761968108
6.47454494839659
6.67303243080112
6.93526162165508
7.43801764309616
7.92368566374744
8.64160025185075
9.31855240360868
9.78785945450846
8.60115923498021
8.72447520604107
8.57011325683888
8.73174707432588
8.93831921577774
9.97256935587949
11.0287149453211
17.8559293065509
23.9053006335742
23.2117206303419
16.7418048627698
10.1865514829552
6.69735647627906
5.0927857120052
4.23143894375349
3.70059387088304
3.35191764029751
3.109191671509
2.92876009301489
2.79670231641113
2.70347615850308
2.64014150809608
2.59824126034644
2.56911874852057
2.54600700628225
2.52524519272815
2.50532465116791
2.48288066988516
2.45746687753574
2.43042690680116
2.40375896257221
2.37953622836237
2.35905328181532
2.34262650717728
2.32978678831469
2.32175321153927
2.32050548498542
2.32648019378227
2.33997453979622
2.36027930377521
2.38576700322971
2.41332949718037
2.43811466219819
2.45365981476758
2.45338919463465
2.43857539818054
2.43989629279341
2.44119689433821
2.44685951861536
2.45282870104228
2.45984149953238
2.46689092513727
2.47397505374627
2.48077384395287
2.48724152075752
2.49332979937955
2.49904313241676
2.5043900897204
2.50939631639271
2.51409598588224
2.51853144019466
2.52274632248924
2.52677844711814
2.5306497593174
2.534353305143
2.53783717458705
2.54098270078288
2.54357977932803
2.54530627313091
2.54573289830864
2.54438725463472
2.5409750335273
2.53584964243037
2.53100126104021
2.53115865024972
2.54375425076526
2.56884855991287
2.59276351029152
2.62029713312896
2.65317594350862
2.69149632282674
2.7356854558997
2.78580834074088
2.84202864346115
2.90436783950345
2.97265906429189
3.0460351024139
3.12319166960986
3.20367252773047
3.28737348124287
3.37375388777262
3.46221141157614
3.55241128697329
3.64469188539012
3.74017939704455
3.84142119079029
3.94910084505152
4.06326343956629
4.1842971650741
4.31260819791138
4.44886911814718
4.59323726245649
4.74543269454187
4.9010686741768
5.05092742484123
5.19650846040943
5.33477126771007
5.46542449157862
5.574553597601
5.66957612175761
5.72319273628489
5.7830956025233
5.81226186913257
5.96413680419399
6.16468034411681
6.55772827780829
6.94104191894717
7.50544936806264
8.04232751557678
8.44178220772089
7.5351455647657
7.6665210472212
7.54270766763137
7.72237796784157
7.81368952924533
8.81288489584963
9.25190815358334
14.551452311966
21.1083959654134
22.5396097103154
17.8214381136991
11.2874003813012
7.16064846131562
5.1725091123952
4.14250345960489
3.53023815228151
3.13913495088978
2.87555931481016
2.68690995468933
2.55217354368724
2.45858656757763
2.39589132772604
2.35526590312175
2.32832277213966
2.30851766222678
2.29202908059532
2.27692862049905
2.26020148690657
2.24132534506869
2.2213145847183
2.201757806682
2.18431164506705
2.17003172445478
2.15924647141984
2.15172118824714
2.14848000184105
2.15105265289303
2.15973786979525
2.17462938177849
2.19496986926643
2.21922908712149
2.24473185099294
2.2675757418656
2.28284940940889
2.28580708067947
2.27780703143651
2.28162466834071
2.28569633071732
2.29284833848016
2.30014899178742
2.30807335332912
2.31587754311343
2.32353630578845
2.33081563899616
2.33768885804078
2.34412669735572