/*--------------------------------*- C++ -*----------------------------------*\
  =========                 |
  \\      /  F ield         | OpenFOAM: The Open Source CFD Toolbox
   \\    /   O peration     | Website:  https://openfoam.org
    \\  /    A nd           | Version:  7
     \\/     M anipulation  |
\*---------------------------------------------------------------------------*/
FoamFile
{
    version     2.0;
    format      ascii;
    class       volScalarField;
    location    "20000";
    object      p;
}
// * * * * * * * * * * * * * * * * * * * * * * * * * * * * * * * * * * * * * //

dimensions      [0 2 -2 0 0 0 0];

internalField   nonuniform List<scalar> 
15600
(
1.07949058298654e-08
0.00376492526171611
0.00472242597333477
0.00305001695701792
0.00865640539431052
0.0180646268585329
0.0308908539688113
0.0420727373596709
0.0494620961550208
0.0539146220857266
0.0575322870905777
0.0604595684658145
0.0628173120388985
0.0646979018287872
0.0662547141468894
0.0675781011068542
0.0687158661208188
0.0697106551787323
0.0706237973798577
0.071467341748814
0.0722524113090986
0.0729835370037459
0.073665201215223
0.0743034172240032
0.0749069550845535
0.0754945403099624
0.0760633083236045
0.076618098317868
0.0771663012345593
0.0777151224746889
0.0782708857454505
0.0788373406141789
0.0794159600080165
0.0799958502770954
0.0805747347209347
0.0811685365970694
0.0817796342747781
0.0824100155363843
0.0830574556707933
0.083717610315048
0.0843812527416837
0.085033933370471
0.0856850152738215
0.086286744765164
0.0866080131590995
0.0873933751945703
0.0884733100712465
0.0898097354312999
0.091350401660103
0.0930681277968542
0.0949359700002212
0.0969352392985787
0.0990495655965851
0.101265688737778
0.103571953648571
0.105958138511752
0.108414924983868
0.110933668015564
0.113506152903282
0.116124496786756
0.118781103953478
0.121468660515128
0.124180170845605
0.126909029817751
0.129649163520379
0.13239520336976
0.135142716051784
0.137888444700221
0.14063078059201
0.143369858606309
0.146108267547923
0.148852222015204
0.151610824517627
0.154375411702605
0.157224092746834
0.16016722745959
0.162659887130038
0.165058253188205
0.167442515847038
0.169864148547309
0.172354007002976
0.174927352469375
0.177596423077173
0.180364975322553
0.183235240334276
0.186201455560072
0.189253591624263
0.192390699958554
0.195591503564331
0.198807718393674
0.201974230875401
0.205009042570809
0.207824220340356
0.210317689243097
0.212400642499779
0.213970670214877
0.215005143767435
0.215453105553717
0.215261633263715
0.214365886686994
0.212669589038161
0.210049520199506
0.206308773856625
0.201172863457429
0.194062971947558
0.184133404385541
0.171128533722789
0.15459129679549
0.134200572817415
0.109577556111172
0.0808792420436056
0.0485574842500781
0.0152877725112914
-0.0143103593018099
-0.0296362086970125
-0.0343634335510019
-0.0310114124012471
-0.0253612857227833
-0.013606091759128
-0.00496986457661472
-4.08723670339157e-06
0.00375626585710744
0.00472787181929273
0.00308212845424322
0.00866596007793372
0.0180187108565718
0.0307753010345576
0.0419333038647076
0.0493411069080173
0.0538136740070065
0.0574393572180016
0.0603790228314936
0.0627507652418195
0.0646440200591699
0.0662105690628367
0.0675419501794227
0.0686866795846528
0.0696866410873928
0.0706032841126627
0.0714497470087886
0.0722374127318533
0.0729709936286766
0.073654967363468
0.0742952425315078
0.0749002417358935
0.0754888017670365
0.0760585179148811
0.0766140579381647
0.0771626997687392
0.0777116345250227
0.0782672484732777
0.0788334205353081
0.0794119829296247
0.0799922531404398
0.0805714387520009
0.0811651755761136
0.0817761100872718
0.0824063595956069
0.0830538195536801
0.0837142526711132
0.0843784775443006
0.0850318991692791
0.0856847456269803
0.0862890348958427
0.0866164817882471
0.0874038737529847
0.0884828998403393
0.0898184230883565
0.0913583032931896
0.0930753060297376
0.0949424439150412
0.0969410092919391
0.0990546203656166
0.101270012294982
0.103575527952414
0.105960945396854
0.108416947138164
0.110934891594098
0.113506569714124
0.116124104094784
0.118779904638169
0.121466663609452
0.124177392074701
0.126905491659877
0.129644894835102
0.132390238488626
0.135137093342433
0.137882203273547
0.140623956938868
0.143362474127832
0.146100314822503
0.148843649508881
0.15160147471439
0.154364867651175
0.157210257213776
0.16014735422083
0.162648818595346
0.165056783848599
0.167450052996725
0.169880851554894
0.172380277437189
0.174963672324277
0.177643230060582
0.180422572553299
0.183303720426817
0.186280570263058
0.189343125461646
0.192489395828321
0.195696504555708
0.198915169323059
0.202079538862482
0.205107209291737
0.207910003516085
0.210386227729314
0.212447684503492
0.213994104758629
0.215003958449917
0.215425525365821
0.215205485134224
0.214277969409885
0.212545390257091
0.209882314406063
0.206088518304778
0.200881918658072
0.193676526292996
0.18364029689866
0.170529270155001
0.153891447433546
0.13341517561122
0.108740652009537
0.0800501873931533
0.047835027746339
0.0147984207809209
-0.014464760684086
-0.0295810198262048
-0.0342510818689585
-0.0309131181566778
-0.0252898325439668
-0.0135761017546886
-0.00496361336845486
-2.72162830868149e-06
0.00375519377612395
0.00475397074536827
0.00314933202679171
0.00871040325076072
0.0179962124697563
0.0306747891150088
0.0418066925697437
0.0492306810553831
0.0537184246717489
0.0573497273034002
0.0603004076629519
0.0626853222645117
0.064590670671356
0.0661665886445504
0.0675056898690713
0.068657277134864
0.0696624076042561
0.0705825945499229
0.0714320125531061
0.0722223200318804
0.0729584097508881
0.0736447532694365
0.074287152648012
0.0748936645136395
0.07548318041111
0.0760537373146
0.0766098579726177
0.077158698290832
0.0777074133850601
0.0782624337149733
0.0788277507040398
0.0794055507609812
0.0799854087858052
0.0805640941953672
0.0811569214054402
0.0817667692594586
0.0823959106699221
0.0830423952454575
0.0837021413424283
0.0843660639469963
0.0850194729356954
0.0856735585625563
0.0862800041137845
0.0866177696652278
0.087410735743484
0.0884899963965657
0.0898252361088607
0.0913646792420505
0.0930811785882047
0.0949477329847516
0.0969456554401171
0.099058569024003
0.101273218648897
0.103577952401151
0.105962553355507
0.108417711566385
0.110934798552607
0.11350561644234
0.116122294208868
0.118777248404445
0.121463180136508
0.124173109641159
0.126900446887154
0.129639131401502
0.132383804614078
0.135130039092389
0.13787457215624
0.140615780598313
0.143353745478578
0.146090980795038
0.148833471846519
0.151590195043494
0.154352080412298
0.157191374085403
0.160112954084391
0.162620458049683
0.165037708670984
0.167440171219328
0.169880559861307
0.172390140270388
0.174984267686523
0.177675085751296
0.180466025163662
0.183358875392747
0.186347118053189
0.189420917666076
0.192577050317256
0.19579080104419
0.199011885501164
0.202173776369231
0.205193723945909
0.207983443283265
0.210441894654209
0.212481614570034
0.214004412503638
0.214989828237382
0.215385112299334
0.215136501510744
0.214177027782717
0.212407697107294
0.209700835381449
0.205852796462649
0.2005745752525
0.193276187636326
0.183141384145443
0.1699378096118
0.153219837462997
0.132688597110033
0.108007529984235
0.0793898331515678
0.0473627675592852
0.0146421182143681
-0.014257436963076
-0.0292421465189613
-0.0339606166216648
-0.030713472419624
-0.0251658224989769
-0.013525894163638
-0.00494801558763402
1.406105996622e-05
0.00376922012510165
0.00481328372024348
0.00327907100692072
0.00881669077422164
0.0180150880991718
0.0305931545459192
0.0416892857150966
0.0491327545792432
0.0536328688937475
0.0572672220987291
0.0602272483145678
0.062623926527932
0.0645401535991501
0.0661244875325941
0.0674705445515997
0.0686285092901314
0.0696385611454286
0.0705621863375108
0.0714145225311208
0.0722074642786841
0.0729460708858532
0.0736347925021085
0.074279317131843
0.0748873418972412
0.0754776937297038
0.0760488248785764
0.0766051294149238
0.0771536402775548
0.0777014494895528
0.078255003109444
0.0788183778395653
0.0793940648276258
0.0799719848044779
0.0805486401114798
0.081138956423916
0.0817460268292865
0.0823723050024926
0.083016056744557
0.0836734309121186
0.0843355732199614
0.0849878814831983
0.085642190554841
0.086250225836451
0.0866067373344242
0.0874100018199627
0.0884915949082779
0.0898278393168053
0.0913675305249528
0.0930838709514806
0.094949965374893
0.0969472280198083
0.0990593342870968
0.101273069239276
0.103576804574043
0.105960346469798
0.108414421190893
0.110930426146675
0.113500167298177
0.116115785413122
0.11876971560892
0.121454675361144
0.124163700101827
0.12689021215217
0.12962815951753
0.132372185433658
0.135117857081287
0.137861886864147
0.140602612163235
0.14334001885834
0.146076521071371
0.148817661596706
0.151572407741088
0.154331685284199
0.157161103788528
0.160056943253565
0.162568376237416
0.164994059915352
0.167405549147733
0.169855622019646
0.172375515951538
0.174980500676543
0.177682629958573
0.180485073799566
0.183389360677473
0.18638848930686
0.189472824787408
0.19263765147093
0.19585632642997
0.19907772309421
0.202234824379709
0.205244714568722
0.208019415410952
0.210458539948827
0.212475584261598
0.213974816943314
0.214936307506674
0.215305846705024
0.215029129683744
0.214037945432095
0.212231770074371
0.209480654655555
0.205577548822272
0.200227405307102
0.192840355397532
0.182619177442702
0.169342498531201
0.152572863905615
0.132027902751672
0.10739940346953
0.0789373316156544
0.0472010078301799
0.0149044861181503
-0.013567438106889
-0.0284829033943081
-0.0333710449336333
-0.0303261534400422
-0.0249313216751594
-0.0134307602229303
-0.00491063684510894
6.04122647983196e-05
0.0038057614888858
0.00491328682923221
0.00349159565288215
0.00901398895006707
0.0181051068873255
0.0305453835472673
0.0415773017735886
0.0490405517068938
0.0535522615848227
0.0571876180175106
0.0601560544699595
0.0625638356595285
0.0644902837870716
0.0660824176502551
0.0674348920875574
0.0685989860944874
0.0696139053375103
0.0705409961978655
0.0713963502715995
0.0721920609044844
0.0729333434296192
0.073624604621312
0.0742713996045231
0.0748810459182389
0.0754721397597812
0.0760435515479479
0.0765995529931113
0.0771470390647066
0.0776930013207325
0.0782438698164964
0.078803781283763
0.0793755046418244
0.0799494853970953
0.0805221547717696
0.081107922041158
0.0817101185750188
0.082331439387925
0.0829704712906165
0.0836237174112381
0.0842828002223156
0.0849334763421467
0.0855878235402829
0.0861989208744085
0.0865851213590006
0.0874029585971573
0.0884888412180177
0.0898273274716422
0.0913676794386375
0.0930838232649067
0.0949491424913503
0.0969452611606985
0.0990559712449767
0.101268135969403
0.10357018028941
0.105951976010703
0.108404296422356
0.110918546363803
0.113486553883213
0.116100497218354
0.118752844005402
0.121436340326864
0.124144048065405
0.126869410548715
0.129606389115362
0.132349627404975
0.135094678160641
0.137838203765517
0.140578461042122
0.143315258103234
0.146050819141106
0.148789937409978
0.15154141791462
0.154296031138635
0.157111852325458
0.159975784918323
0.162491569817798
0.164925820008775
0.167346455958647
0.169806077595916
0.172335831865233
0.174950862405963
0.177663122423561
0.180475472213368
0.183389163976369
0.186396661510161
0.189488411047097
0.192657896603928
0.195876607303611
0.199092867735358
0.202239453904962
0.205233586899705
0.207987857509891
0.210402810945918
0.212393591971936
0.213867155729505
0.21480333328415
0.215145775325109
0.2148394191681
0.213814497056731
0.211968670096925
0.209169452462385
0.205206103465398
0.199777616454114
0.192297790149802
0.181992956993424
0.168652778896037
0.151849640299833
0.131321016352301
0.106792285295022
0.0785558267322585
0.0472031853225007
0.0154421002646842
-0.0125011780788989
-0.0273298964408623
-0.0324442636783654
-0.0296878960191736
-0.0245235134237341
-0.0132525439358947
-0.00483090113630807
0.000151951796454211
0.00387689963494465
0.00506164067502056
0.00379092846412036
0.00931049346692319
0.0182864666963765
0.0305546421430431
0.0414843914118007
0.0489565239351615
0.0534786743386424
0.0571106987831574
0.060086054773499
0.0625044393711011
0.0644406211786957
0.0660400032419266
0.0673983516697227
0.0685683469229889
0.0695881057946948
0.0705187064343989
0.0713772149358341
0.0721758917784888
0.0729200948976633
0.0736141582045528
0.0742634746646753
0.0748749394004959
0.0754667117740722
0.0760380950418097
0.0765932438875385
0.0771388923205954
0.0776818950417624
0.0782286494762528
0.0787833522307386
0.079349066934057
0.0799170120534499
0.0804837587151458
0.0810630635524947
0.08165855591112
0.0822732457492939
0.0829061515823567
0.0835542536291636
0.0842099218322297
0.0848595634526266
0.0855151326775483
0.0861323963310406
0.0865580156795592
0.0873933428513494
0.0884850005512578
0.0898262882473398
0.0913670601855756
0.0930823521338722
0.0949460197822841
0.0969400011976964
0.0990482674849681
0.10125779483968
0.103557097813437
0.105936123226538
0.108385675418537
0.110897189310853
0.113462543634242
0.116073963076195
0.118723957252259
0.121405311516978
0.124111123905516
0.126834865861688
0.129570515246003
0.13231271283603
0.13505698557989
0.137799918761023
0.140539646398684
0.143275716681039
0.146010079517873
0.148746561012019
0.151493683241422
0.154241810285597
0.157042001607892
0.159872486870631
0.162393665168322
0.164836411056489
0.167266025869918
0.169734397827434
0.172272717616507
0.174895968413532
0.177616033336914
0.180435424282308
0.183355105882929
0.186366943557727
0.189461274821688
0.192629580531617
0.19584166759847
0.199045601283318
0.20217419884318
0.20514510581918
0.207871783250998
0.210256091285226
0.212215427718754
0.213659467868422
0.214567169653495
0.214879377662342
0.214540018686175
0.213477409819652
0.211587047673299
0.208733539273699
0.204702047232613
0.199185432204285
0.191603776690313
0.181211096981302
0.167808722469289
0.150980384238769
0.130485873534633
0.106088450070459
0.0781263736593492
0.0472253135505386
0.0160867215161313
-0.0112325004455084
-0.0259122411253534
-0.0312427971924964
-0.0288076192283529
-0.0239237092706685
-0.0129682575184475
-0.00469108392646446
0.000295608998740378
0.00399210786797509
0.00526485190013475
0.00417064699132545
0.00969229278994812
0.0185545205748319
0.0306306290288231
0.0414273448809961
0.0488909078302189
0.053422136643171
0.057040831833982
0.0600185560688846
0.0624462823080704
0.0643915483886704
0.0659975370078942
0.0673611155741455
0.0685367192064669
0.0695612453615498
0.0704953662955474
0.0713571681020096
0.0721590519115596
0.0729064967975582
0.0736037210867282
0.0742559114818301
0.0748694810975076
0.0754619260922217
0.0760330045452619
0.0765867627900053
0.0771297610929011
0.0776687060138349
0.0782099843717164
0.0787578941614774
0.0793158431828883
0.0798760682153878
0.0804354667707208
0.0810070268715346
0.0815947278339451
0.0822019292947586
0.0828281544755256
0.0834709325351055
0.0841235658571021
0.0847732897301847
0.0854316728974303
0.0860580368064895
0.0865289733909692
0.0873829886040961
0.0884812567737204
0.0898252002075355
0.0913657520964898
0.0930793092326504
0.0949403440982304
0.0969311746381795
0.0990359911252859
0.101241904737195
0.103537529069636
0.105912873326462
0.108358783880436
0.110866749941771
0.113428703184393
0.116036916684363
0.118683946347209
0.121362621188328
0.124066078944429
0.126787820609129
0.129521839050264
0.132262766012325
0.135006091111048
0.137748300863923
0.140487378568748
0.143222561127169
0.145955490187764
0.148688954766875
0.151431219670769
0.154172048256164
0.15695639291084
0.159754033277833
0.162280785595094
0.164731054826158
0.167169180306423
0.16964531133682
0.172190891374915
0.174820623340798
0.177546354764084
0.180370193358521
0.183292794171424
0.186305344552344
0.189397931856948
0.192559967054964
0.195759765976965
0.198945306171866
0.202049561553532
0.204990840024854
0.207683696874447
0.210031592186042
0.21195429283544
0.213364157585234
0.214239015715769
0.214516488951135
0.214139292015209
0.213033543149375
0.211092270769734
0.2081768609124
0.204068126895165
0.198453008807168
0.190759592291947
0.180272032868786
0.166804217371149
0.149952868856171
0.129502094063262
0.105256311179743
0.0776008678063556
0.0471961749986411
0.0167356914230011
-0.00989336108724095
-0.0243611496726456
-0.0298671548893888
-0.0277458600265026
-0.0231610444402082
-0.0125827978886253
-0.00448867015988884
0.000488378363031945
0.00415245356386581
0.00552310251377128
0.00462104711455571
0.0101392848559802
0.0188878559210121
0.0307639613938477
0.0414104686664401
0.0488525950446897
0.0533969386056986
0.056987967459862
0.0599572644954187
0.0623907637010033
0.0643438542269018
0.0659555935575071
0.0673236355772991
0.0685044774156183
0.0695336381663464
0.070471247192772
0.0713364825622824
0.0721418655519321
0.0728929626800304
0.0735938146335616
0.0742493395406931
0.0748654006842666
0.0754586141852317
0.0760292195573132
0.076581167067767
0.077120852198649
0.0776548511895556
0.0781895888255711
0.0787295189762666
0.0792784317031412
0.0798297573980876
0.0803808573803409
0.080943875569757
0.0815231693143129
0.0821224471185362
0.0827417792744933
0.0833792697939693
0.0840292354123911
0.0846798059294494
0.0853421443618435
0.0859795072103964
0.0864980133233677
0.0873707108148691
0.0884762753657857
0.0898227415203544
0.0913626563771937
0.0930739096388181
0.0949316790306942
0.0969187089546111
0.0990194336143516
0.10122111099658
0.103512449610864
0.105883524541598
0.108325244079398
0.110829153812762
0.113387237687212
0.115991817965298
0.118635498240236
0.121311152021844
0.124011956846485
0.12673144175237
0.129463611269051
0.132203082117351
0.134945298239567
0.137686634439409
0.140424911944634
0.143159035429839
0.145890345895192
0.148620604542963
0.151357881891988
0.154091158885162
0.156860198168461
0.159625944361106
0.162157987211783
0.164614432002397
0.167060595746909
0.169543681870897
0.172095610166409
0.17473061054519
0.177460523380208
0.180286984592543
0.183210316996226
0.186220956274629
0.189308666984692
0.192460776959511
0.195644251747895
0.198807068576824
0.201882405298439
0.204789470594613
0.207443840753621
0.209750822214293
0.211632563216714
0.21300390183465
0.213841528185372
0.214079634763668
0.213659574578225
0.212505062323323
0.210506418075594
0.207521600257244
0.203327019570715
0.197604362476284
0.189791064057916
0.179202411262575
0.165665570499255
0.148791996997086
0.128392007583439
0.104313576543299
0.0769891718451918
0.0471118234664254
0.0173622946378717
-0.00854081787154166
-0.0227538788544315
-0.0283944534557425
-0.0265653299336901
-0.022278658682811
-0.0121135558655032
-0.00423119475429774
0.000723893550944051
0.00435370620511488
0.00583110027697777
0.00513229491278705
0.0106379891504815
0.019263433697847
0.030938596814804
0.0414264160360843
0.0488440186556999
0.0534124191282391
0.0569668752443252
0.0599092716843093
0.062340725565129
0.0642990303745477
0.0659152107097509
0.0672867596260327
0.0684723584114825
0.0695059361851253
0.0704469439880588
0.0713157362510984
0.0721249408976141
0.072880165513018
0.0735851905294724
0.074244586805739
0.0748636006795713
0.0754577807793506
0.0760278664974375
0.0765777210367083
0.0771135999001736
0.0776419782750416
0.0781693678137662
0.0787004212397787
0.079239327739659
0.0797808170355015
0.0803228207375314
0.0808766197095922
0.0814469687334256
0.0820379118319749
0.0826500922524353
0.0832821920067409
0.0839295721326666
0.0845812971637068
0.0852483342670014
0.0858978282262805
0.0864641312695873
0.0873550518522586
0.0884687544084293
0.089817898324462
0.0913571141826561
0.0930658553989457
0.0949200652091943
0.0969029622743319
0.0989992440044123
0.101196320667775
0.103483003714257
0.105849452794179
0.108286642768125
0.110786176748824
0.113340091860116
0.115940760615766
0.118580834874114
0.121253232499124
0.123951170025538
0.126668202462829
0.129398342825627
0.132136188291248
0.134877132021843
0.137617430406004
0.140354740851403
0.143087629839854
0.145817158996594
0.148544086268841
0.151276318072636
0.154001845735408
0.156756208611905
0.159491026914355
0.162028171746518
0.164489506096154
0.16694334384619
0.169432773817864
0.171990431498957
0.174629849875955
0.177362889657332
0.180190645372016
0.183113090886651
0.186119849512403
0.189200328140054
0.192339763438658
0.195503875434869
0.198640689127076
0.201683654663018
0.204552970247893
0.207165250500425
0.209427768204657
0.211265036594526
0.212594080305455
0.213390534014061
0.213585067352511
0.213117561370007
0.211909179934161
0.209847342257153
0.206786465174288
0.202498636120598
0.196661191101225
0.188722233363232
0.178028443532302
0.164420718497538
0.147526920369554
0.127185420641947
0.103289359630153
0.0763180222368206
0.0469923541146693
0.0179745632956725
-0.00718610990847651
-0.0211208806958139
-0.0268661886413383
-0.0253086239882977
-0.0213113917120117
-0.0115766732978292
-0.00392669920104361
0.000996374998304699
0.00459084879657094
0.00618190343518119
0.00569464235352014
0.01118186612532
0.0196626047842604
0.0311420977999276
0.0414672617322869
0.0488715439109578
0.0534572840221322
0.0569909494626241
0.0598841316672478
0.0623007087026152
0.0642594760035475
0.0658780033695401
0.0672517642502002
0.0684414476711012
0.0694791002465214
0.0704233295251311
0.0712957350379104
0.0721090457770414
0.0728688585488961
0.0735785975142414
0.07424239756776
0.0748648260626971
0.0754602107475559
0.0760297908284123
0.0765773438485696
0.0771090177792291
0.0776312161172265
0.0781505786989466
0.0786719904591557
0.0792000499056184
0.079730846325158
0.0802629707617366
0.0808068670458149
0.0813677065720458
0.0819498516710949
0.0825545356339279
0.0831810185023451
0.0838257267683691
0.0844787135222716
0.0851510794449964
0.0858134592093198
0.0864268617998987
0.0873353916349349
0.0884581469794921
0.0898102844568517
0.0913489540830342
0.0930551837039917
0.094905734563162
0.0968843459910202
0.0989759896233886
0.101168244435851
0.103450037514896
0.105811630818608
0.10824406520316
0.110739004723633
0.113288541374918
0.115885098854983
0.118521377459509
0.12119033883052
0.123885237348429
0.126599651776083
0.129327600754272
0.132063658498079
0.13480316421905
0.137542252477175
0.140278419063168
0.143009891419599
0.145737471988945
0.148460935533018
0.151188026850634
0.153905533631669
0.156645815721088
0.159350783208569
0.16189304370186
0.164358123274203
0.166819367304862
0.16931465235561
0.171877588403745
0.174520776686444
0.177256126811263
0.180084123400326
0.183004379982169
0.186005656368458
0.189076983738267
0.192201500104192
0.195343766125746
0.198451877126007
0.201459697677732
0.20428829211826
0.20685551934479
0.20907063298363
0.210860446053026
0.21214384811366
0.212895542207845
0.213042644658774
0.212523488972516
0.211256587492516
0.209126301879468
0.205983468764989
0.201596022232039
0.195637941861286
0.187569343151609
0.176768262847306
0.163089606457351
0.146179200231282
0.125905217574369
0.102206919133297
0.075609999075685
0.0468567004233919
0.0185848464874285
-0.0058270402410036
-0.0194712701351174
-0.0253010678731769
-0.0239998747803423
-0.0202829338496899
-0.0109850249469663
-0.00358156307039417
0.0013013426812775
0.00485985877412984
0.00656913540478765
0.00629892611571154
0.011766387874408
0.0200734806612495
0.0313652283525168
0.041530305199088
0.0489353216740866
0.0535051334087357
0.0570623507656193
0.0598903911806443
0.06227602903686
0.0642281234709149
0.0658459470130041
0.0672201587859772
0.0684129706879161
0.069454174063498
0.0704013139357361
0.0712772576790619
0.0720948348653571
0.0728595864876505
0.0735744843960229
0.0742431371992769
0.0748693775307787
0.075466189808537
0.0760352938651916
0.0765803733424979
0.0771075018692909
0.0776230363038934
0.0781337787535581
0.0786448754173055
0.0791613447543038
0.0796806636809208
0.0802021554394135
0.0807354796117284
0.0812862460664128
0.081859119079909
0.0824559376007378
0.083076546783044
0.0837184641348356
0.084372790492591
0.0850511133827543
0.0857269086266823
0.0863861832397481
0.0873116005969679
0.0884442804517239
0.0897997635098108
0.091338151898981
0.0930419821288495
0.0948888906745225
0.0968631734556599
0.0989500807869719
0.101137385410646
0.103414149723747
0.105770741798541
0.108198272304059
0.110688470048193
0.113233483431104
0.115825787871685
0.11845813183404
0.121123519691741
0.123815242140054
0.126526899229101
0.129252512432111
0.131986630175774
0.134724535508847
0.137462239348812
0.140197079258948
0.142926944249633
0.145652392749842
0.14837223159217
0.151094038781148
0.153803205627298
0.156529995620893
0.159206329201222
0.161753856539471
0.164221662463935
0.166690120053095
0.169190863398014
0.171758748755355
0.174405207728174
0.177142227282265
0.179969615259905
0.182886616874793
0.185881084010036
0.188941663395996
0.192049391368261
0.195167737719919
0.198244901915799
0.201215265722889
0.204000634341457
0.206520326984183
0.208685536619027
0.210425277342631
0.211659975732439
0.212363552186036
0.212459580820125
0.211884803547345
0.210555021602613
0.20835141160977
0.205121257607774
0.200628585283829
0.19454505051349
0.186344113928282
0.175434986348738
0.161686778239325
0.144764734506987
0.124568432629748
0.101083715397232
0.0748821022150423
0.0467191484785589
0.019202658360634
-0.00446044543049524
-0.0178078995490125
-0.0237075181639638
-0.0226518703536335
-0.0192081616129916
-0.0103483502706569
-0.00320077503404193
0.00163561233159011
0.00515794910496993
0.00698757406206119
0.00693745604857124
0.0123858258143063
0.0204936369268506
0.0315967405001397
0.0416102528949356
0.0490112916325342
0.0535543433693058
0.0571514374801678
0.059934412533176
0.06227128630624
0.0642076688295012
0.0658208760476615
0.0671933454767677
0.0683880212364994
0.0694320347319753
0.0703816099317989
0.0712608477949769
0.0720826761771011
0.0728525524916369
0.0735729124712434
0.0742467528279597
0.0748771218929223
0.0754755629887705
0.0760442411229699
0.0765867246314416
0.0771090402850789
0.0776175161881063
0.0781191438405783
0.078619356697494
0.0791236041606174
0.0796307530435852
0.0801409159419012
0.0806630381022777
0.0812031946321335
0.0817663404817484
0.0823549387285427
0.0829694350633177
0.0836084656095425
0.0842642259567825
0.0849491168331545
0.0856386642068204
0.0863422036623983
0.0872837102507195
0.0884270933089323
0.0897862635139774
0.0913247060837948
0.0930263215262396
0.0948696900566986
0.0968396815779961
0.0989218344251877
0.101104136968531
0.103375810106754
0.10572732507026
0.108149869029854
0.110635238846429
0.113175640556944
0.115763601439473
0.118391917442635
0.121053634181716
0.123742076778187
0.126450863804885
0.129174016682255
0.131906055504415
0.134642205307211
0.137378352224579
0.140111678754287
0.142839736250676
0.145562848886182
0.148278869054563
0.150995207434751
0.153695704627487
0.156409599661258
0.159058629227434
0.161611653772236
0.164081290910298
0.166556832639795
0.169062721184771
0.171635332244741
0.174284693352276
0.177022895387682
0.179849004794498
0.182761892463756
0.185748463351729
0.188796976664828
0.19188636937165
0.194979061123184
0.198023470110207
0.200954399266717
0.203694474930672
0.206164549346481
0.208277709597657
0.209965048344294
0.211148207527587
0.211800489716558
0.211841964806984
0.211207767656452
0.209810965543445
0.20752944724511
0.204207033115002
0.199604150076193
0.193391178236791
0.185056216709069
0.174039389983861
0.160224181733034
0.143296616862646
0.123189081110865
0.0999341521959619
0.0741482773730908
0.0465913512640298
0.0198355939404052
-0.00308361667957989
-0.0161318893028051
-0.0220898237430857
-0.0212715258277456
-0.0180958631480031
-0.00967315621771683
-0.00278777899360302
0.00199723722754325
0.00548342638173952
0.00743316818397352
0.00760436638218162
0.0130329894774039
0.0209285917565107
0.0318207884632877
0.0416925140723664
0.0490740078841168
0.0536246138743847
0.0572107086746245
0.0600242385012962
0.0622896332250746
0.064200203405321
0.0658041433800179
0.0671723790748276
0.0683674083826697
0.0694132890879023
0.0703646646327564
0.0712467898753971
0.072072677881793
0.0728476962656938
0.0735736798561356
0.0742529360388177
0.0748876854016318
0.0754879511755462
0.0760562942145106
0.0765961303296482
0.0771134572897921
0.0776145837431327
0.0781067112116479
0.0785955831188107
0.0790870903893273
0.0795814717688589
0.0800796739739358
0.0805900107480369
0.0811190547525383
0.0816720475968227
0.082252098477022
0.0828602747030907
0.0834963557750964
0.0841536570432593
0.0848456702683846
0.08554912984455
0.0862950588984421
0.0872518222614604
0.088406574615895
0.0897697494877736
0.0913086292491644
0.0930082666727193
0.0948482665312837
0.096814066677608
0.0988915155398318
0.101068832771217
0.103335414989733
0.105681837124696
0.10809936915174
0.110579878716404
0.11311563046754
0.115699203321724
0.118323439670628
0.120981424502331
0.123666515169112
0.126372345684049
0.129092934331287
0.131822770397465
0.134557019001684
0.137291440445612
0.140023064285883
0.14274910478545
0.145469656894615
0.148181633683423
0.150892288580215
0.153583803829468
0.156285411529453
0.158908551700342
0.161467346661021
0.163938052762677
0.166420603131403
0.168931403154277
0.17150860881426
0.174160619808921
0.176899653716005
0.179723974043486
0.182632072057555
0.185609871503711
0.188645243826102
0.191715031433911
0.194780628635652
0.197790840695629
0.200680653229805
0.203373741020172
0.205792445723532
0.207851705074614
0.20948454854342
0.21061352953537
0.211211505651985
0.211195095879206
0.210497839142691
0.20903007884079
0.206666333981634
0.203247107672375
0.198529589726731
0.192183930502101
0.183714120418309
0.172590901760013
0.158712306569982
0.141786368835001
0.121779403573715
0.0987707927511042
0.0734206313153031
0.0464834088976629
0.0204901768645888
-0.00169393644538203
-0.0144435332973112
-0.0204503603045757
-0.0198628258570435
-0.0169511266820845
-0.00896326865940285
-0.00234444264234446
0.00238532205110345
0.00583547116962767
0.00790294458891319
0.00829531871809502
0.0137003820296738
0.0213857569942319
0.0320209382395886
0.0417605027310301
0.0491269687034165
0.0537203917732411
0.0572473684476707
0.0601494516618605
0.0623339479654078
0.0642072798035933
0.0657966728978482
0.0671579699556451
0.0683516840559504
0.0693983259089936
0.0703507319901688
0.0712352064909815