/*--------------------------------*- C++ -*----------------------------------*\
  =========                 |
  \\      /  F ield         | OpenFOAM: The Open Source CFD Toolbox
   \\    /   O peration     | Website:  https://openfoam.org
    \\  /    A nd           | Version:  7
     \\/     M anipulation  |
\*---------------------------------------------------------------------------*/
FoamFile
{
    version     2.0;
    format      ascii;
    class       surfaceScalarField;
    location    "20000";
    object      phi;
}
// * * * * * * * * * * * * * * * * * * * * * * * * * * * * * * * * * * * * * //

dimensions      [0 3 -1 0 0 0 0];

internalField   nonuniform List<scalar> 
30950
(
3.07465286391154e-05
-1.62853632359022e-06
3.36257137385315e-05
-2.87918488751895e-06
3.45999923174074e-05
-9.74278601455884e-07
2.8299261350673e-05
6.30073097747132e-06
1.82756875902096e-05
1.00235737725665e-05
6.08473135276712e-06
1.21909562563111e-05
-3.80905849705616e-06
9.89378989057095e-06
-8.77346139056703e-06
4.96440294734815e-06
-9.72145515312343e-06
9.47993807329409e-07
-9.47788337629583e-06
-2.43571733755788e-07
-8.87294585464078e-06
-6.04937434217742e-07
-8.14357180462355e-06
-7.29373950167468e-07
-7.49375062412775e-06
-6.49821155736215e-07
-7.01935515405614e-06
-4.74395527212978e-07
-6.70162899202293e-06
-3.17726244254771e-07
-6.50140055353131e-06
-2.00228500230199e-07
-6.41928175557817e-06
-8.2118818521989e-08
-6.45188925919438e-06
3.26075297936292e-08
-6.53314737463127e-06
8.12581852785966e-08
-6.63912358487373e-06
1.05976314219658e-07
-6.77080705736687e-06
1.31683596077271e-07
-6.94159049566592e-06
1.70783566615757e-07
-7.17454984005709e-06
2.32959466083922e-07
-7.49435282903561e-06
3.19803100538586e-07
-7.91183016285518e-06
4.17477440019241e-07
-8.39885091737346e-06
4.87020865248787e-07
-8.97358534079885e-06
5.74734548017322e-07
-9.65724177013343e-06
6.8365657048089e-07
-1.04508235281426e-05
7.9358191009955e-07
-1.13437105126611e-05
8.92887136987172e-07
-1.23152223463233e-05
9.71511976662579e-07
-1.33388323062525e-05
1.02361008872006e-06
-1.43915515844906e-05
1.05271939375123e-06
-1.5514193391167e-05
1.12264191320721e-06
-1.67485188824996e-05
1.23432559288202e-06
-1.80380172128202e-05
1.28949842831131e-06
-1.93343064097732e-05
1.29628929085129e-06
-2.05957507441083e-05
1.26144442266407e-06
-2.17867774567326e-05
1.19102679405717e-06
-2.28813949193292e-05
1.09461753645419e-06
-2.38859275811593e-05
1.0045327278841e-06
-2.48563263560941e-05
9.70398833569064e-07
-2.58043724250686e-05
9.48046121926248e-07
-2.72950605840709e-05
1.49068820874617e-06
-3.1548867405414e-05
4.25380687359172e-06
-3.56105014453821e-05
4.06163408716979e-06
-3.87621811375076e-05
3.15167972662161e-06
-4.1248602987573e-05
2.48642186482949e-06
-4.32590152205295e-05
2.01041221932441e-06
-4.48959195656518e-05
1.63690429325083e-06
-4.62361323219911e-05
1.34021265566308e-06
-4.73302174498134e-05
1.0940849683279e-06
-4.82152512466027e-05
8.85033570395207e-07
-4.89178281984447e-05
7.02576653872527e-07
-4.94580118081034e-05
5.40183239786107e-07
-4.98510009349827e-05
3.92988689369805e-07
-5.01088069486945e-05
2.57805517240499e-07
-5.02413739353e-05
1.32566443571912e-07
-5.02574673803237e-05
1.60928702041158e-08
-5.01653262206832e-05
-9.21417500214148e-08
-4.99733035005303e-05
-1.92023309457763e-07
-4.96902932258277e-05
-2.83010847195378e-07
-4.93260770195375e-05
-3.64216747505877e-07
-4.88917191941194e-05
-4.34358322636909e-07
-4.83998098048444e-05
-4.91909831672455e-07
-4.78646492180359e-05
-5.3516096543038e-07
-4.73022597121541e-05
-5.62389813620932e-07
-4.67304297507033e-05
-5.71830192932622e-07
-4.61674035409013e-05
-5.63026361360414e-07
-4.56314467414505e-05
-5.35956868970332e-07
-4.51350536577907e-05
-4.9639307034571e-07
-4.46747030506239e-05
-4.60350511496422e-07
-4.42031444990629e-05
-4.71558375748796e-07
-4.36714534793522e-05
-5.31690767163906e-07
-4.24088471028936e-05
-1.26260605015744e-06
-3.95981617906954e-05
-2.81068491647528e-06
-3.78632820817015e-05
-1.73487926198862e-06
-3.69109993388157e-05
-9.52282251704241e-07
-3.61708052389438e-05
-7.40193569460182e-07
-3.54432348153506e-05
-7.27569859430644e-07
-3.45995607150308e-05
-8.43673508260193e-07
-3.35780347805899e-05
-1.02152532118615e-06
-3.23310432551023e-05
-1.24699089825516e-06
-3.08357092142519e-05
-1.495333406926e-06
-2.90717662875432e-05
-1.76394229283426e-06
-2.70437654250259e-05
-2.02800023447763e-06
-2.47808673900804e-05
-2.26289741766606e-06
-2.22474721029662e-05
-2.53339468444482e-06
-1.9388779446714e-05
-2.8586920707875e-06
-1.618998327441e-05
-3.19879560583748e-06
-1.2666910948014e-05
-3.52307178034993e-06
-8.86124370577575e-06
-3.80566671790022e-06
-4.82060121460173e-06
-4.04064198979585e-06
-6.24059205493504e-07
-4.19654153350602e-06
3.63516320511464e-06
-4.25922196665567e-06
7.76740742122974e-06
-4.1322438111349e-06
1.17465289038714e-05
-3.97912112252068e-06
1.55668487844859e-05
-3.82031957004354e-06
1.92390822696666e-05
-3.6722332285462e-06
2.2798593704633e-05
-3.55951123525767e-06
2.62895681255547e-05
-3.49097427829588e-06
2.97964959160185e-05
-3.50692770144027e-06
3.34694016855364e-05
-3.67290572639221e-06
3.76924650679148e-05
-4.22306337330191e-06
4.26735943644078e-05
-4.98112930623846e-06
4.80377468775445e-05
-5.36415252440525e-06
5.37744856571319e-05
-5.73673877570528e-06
5.98708021203302e-05
-6.09631643084485e-06
6.63791703774504e-05
-6.50836818958665e-06
7.31282125027796e-05
-6.74904202164353e-06
7.97025887506633e-05
-6.57437611623189e-06
8.45018886787453e-05
-4.79929978403053e-06
8.43741303817831e-05
1.27758431646493e-07
7.58907997114206e-05
8.48333078264504e-06
6.39421983623013e-05
1.19486014414128e-05
5.17062810168101e-05
1.22359174222425e-05
4.13159337148224e-05
1.03903473559604e-05
3.17248039060222e-05
9.59112984512884e-06
2.84497100944085e-05
3.27509383430888e-06
-6.69209670856328e-07
9.98519433591824e-05
-4.81126032057525e-06
0.000106316116270368
-9.34335744859834e-06
0.000108326468589902
-2.984630874942e-06
9.38175229654469e-05
2.08096766756349e-05
6.70190722937881e-05
3.68220245188646e-05
3.17871694226617e-05
4.74228592070305e-05
-4.8487807611856e-07
4.21658374827561e-05
-1.97541854264279e-05
2.42337104037547e-05
-2.58156346848705e-05
7.0094431827834e-06
-2.63025626931495e-05
2.4335639515901e-07
-2.51022609755307e-05
-1.80523901608644e-06
-2.33594722025941e-05
-2.47216256018407e-06
-2.17523372549667e-05
-2.25695594283481e-06
-2.05576287708519e-05
-1.66910388253462e-06
-1.97674186467761e-05
-1.10793626837786e-06
-1.93026399032688e-05
-6.65007157562265e-07
-1.91647599008972e-05
-2.19998735529555e-07
-1.93292561520629e-05
1.9710387644075e-07
-1.96396592014984e-05
3.91661350650241e-07
-2.00281488408651e-05
4.94466099516982e-07
-2.05015079600732e-05
6.05042897383306e-07
-2.10997885504995e-05
7.69064376673425e-07
-2.18882831242665e-05
1.02145429293788e-06
-2.29324109922277e-05
1.36393124785444e-06
-2.42540793352712e-05
1.73914608185343e-06
-2.58008358192768e-05
2.03377766445422e-06
-2.76158479434833e-05
2.38974700623791e-06
-2.97529698460712e-05
2.82077883109123e-06
-3.22138648425353e-05
3.25447729181291e-06
-3.49674313890162e-05
3.6464540931267e-06
-3.79569223339416e-05
3.96100334564003e-06
-4.11153393592049e-05
4.18202753730435e-06
-4.44038559247816e-05
4.34123636552679e-06
-4.79117635757355e-05
4.63054993942781e-06
-5.17061981676042e-05
5.02876051981107e-06
-5.5648443692968e-05
5.23174424432911e-06
-5.9602363490628e-05
5.25020933534885e-06
-6.34574622702272e-05
5.11654340939332e-06
-6.71236372910889e-05
4.85720198827211e-06
-7.05525775549313e-05
4.52355794568387e-06
-7.37757796911816e-05
4.22773498567171e-06
-7.69534634697445e-05
4.14808271171775e-06
-8.05411262216132e-05
4.53570895093138e-06
-8.6151796014784e-05
7.10135805229805e-06
-9.68896797983103e-05
1.49916906779449e-05
-0.000107037402794254
1.42093570628524e-05
-0.000114843820982626
1.09580978390105e-05
-0.000120955912698367
8.59851343265243e-06
-0.000125828135603817
6.88263488790352e-06
-0.000129737013854671
5.54578220195774e-06
-0.000132873843013121
4.47704135267328e-06
-0.000135369754488976
3.58999585401984e-06
-0.000137318667431796
2.8339457915217e-06
-0.000138789316310916
2.17322468489855e-06
-0.000139833505039632
1.58437100716547e-06
-0.000140491246005007
1.05072860069047e-06
-0.000140794800507322
5.61358899717054e-07
-0.000140771739421964
1.09504203269329e-07
-0.000140446763001253
-3.08884707838296e-07
-0.000139843444708199
-6.95461170252725e-07
-0.0001389858283112
-1.04964077388284e-06
-0.000137899238646819
-1.36960149255596e-06
-0.000136611121827233
-1.65233443870332e-06
-0.000135151839956788
-1.89364093642543e-06
-0.000133555091696434
-2.08865869217953e-06
-0.00013185809787706
-2.23215523065159e-06
-0.000130101255047199
-2.31923292740913e-06
-0.000128327433750328
-2.34565160752167e-06
-0.000126578643084399
-2.31181697752157e-06
-0.000124891485942185
-2.22311379538014e-06
-0.000123281427698105
-2.10645093646786e-06
-0.000121727037071629
-2.01474060417098e-06
-0.000120063820353349
-2.13477441299486e-06
-0.000117890660013162
-2.70485028910682e-06
-0.000114031159063913
-5.12210605466461e-06
-0.000107814975306417
-9.02686761196328e-06
-0.000103574550346154
-5.9753030587605e-06
-0.000100875284678209
-3.65154667233961e-06
-9.85028122995692e-05
-3.11266463811199e-06
-9.60170757278948e-05
-3.21330507918518e-06
-9.31344470969551e-05
-3.726300764136e-06
-8.97141630845391e-05
-4.44180795291575e-06
-8.56587729047285e-05
-5.30237970741514e-06
-8.09219147292094e-05
-6.23219023552193e-06
-7.54748790934387e-05
-7.21097661698254e-06
-6.93367756781511e-05
-8.166102383121e-06
-6.25541336729517e-05
-9.04553820936112e-06
-5.50644265858577e-05
-1.00231006173688e-05
-4.67816344576044e-05
-1.11414831088571e-05
-3.76996435775755e-05
-1.22807854634393e-05
-2.78772315440297e-05
-1.33454828624976e-05
-1.74202114578961e-05
-1.426268592645e-05
-6.45360638183612e-06
-1.50072462651624e-05
4.84231445790034e-06
-1.54924616548288e-05
1.62238233255008e-05
-1.56407302042247e-05
2.72916646984326e-05
-1.52000846437099e-05
3.79680414062481e-05
-1.46554973742168e-05
4.82384270866555e-05
-1.40907048694154e-05
5.81267910627463e-05
-1.35605968872841e-05
6.77088711565102e-05
-1.31415910618352e-05
7.70920776741233e-05
-1.28741805641072e-05
8.64708013001984e-05
-1.28856511161092e-05
9.62146189618363e-05
-1.34167231831813e-05
0.000107171794081405
-1.51802382834452e-05
0.000119830805532116
-1.76401405354642e-05
0.000133607023004904
-1.91403697599236e-05
0.000148416878350859
-2.05465938688724e-05
0.000164250752901473
-2.19301907178912e-05
0.000181212484862714
-2.34700998847818e-05
0.000199022145455384
-2.45587023556611e-05
0.000216748047020806
-2.43002774418945e-05
0.00023110217060176
-1.91534231543968e-05
0.00023494406505124
-3.71413584178903e-06
0.000220397882824524
2.30295131539908e-05
0.000194191771023139
3.81547133682183e-05
0.000163960680569591
4.24670079848555e-05
0.00013554998037638
3.88010476334531e-05
0.00010963272044749
3.55083898351424e-05
9.77121558541639e-05
1.51956584699554e-05
3.73727854667951e-07
0.000179652612423706
-7.43466939917688e-06
0.000187493615614881
-1.71843603287933e-05
0.000189752098378906
-5.24311357281882e-06
0.000170180443422751
4.03813317244327e-05
0.00013007012231923
7.69323457206701e-05
7.30783024353838e-05
0.000104414679192337
1.55208424220472e-05
9.97232976106358e-05
-2.32800446832091e-05
6.30345976365753e-05
-3.84309141646802e-05
2.21603128122811e-05
-4.13553015625349e-05
3.16774395205872e-06
-4.03060399909351e-05
-2.85450042595479e-06
-3.80235752211554e-05
-4.75462714326745e-06
-3.57920978745181e-05
-4.48843307622984e-06
-3.40975649025467e-05
-3.36363664329139e-06
-3.2987235215177e-05
-2.21826576747788e-06
-3.23794626284755e-05
-1.27277958228913e-06
-3.22833617835115e-05
-3.16099438927143e-07
-3.26523530464307e-05
5.66095271480495e-07
-3.32638957389451e-05
1.00320418067955e-06
-3.4013590988899e-05
1.24416150990794e-06
-3.49165949575166e-05
1.50804706559541e-06
-3.60405892449358e-05
1.89305891372048e-06
-3.74903138179609e-05
2.4711791676418e-06
-3.93647947593221e-05
3.23841253637143e-06
-4.16933922628695e-05
4.06774396654137e-06
-4.44163862290943e-05
4.75677203547681e-06
-4.75974006188841e-05
5.57076182099867e-06
-5.13145762765531e-05
6.53795493776113e-06
-5.55678535187692e-05
7.50775501360679e-06
-6.03054455038137e-05
8.38404659055817e-06
-6.54386007765006e-05
9.0941591562907e-06
-7.08720098087062e-05
9.61543711586557e-06
-7.65655005532069e-05
1.00347276418899e-05
-8.26286353080417e-05
1.0693685189244e-05
-8.9114125534316e-05
1.15142511874213e-05
-9.58135816376325e-05
1.1931200727021e-05
-0.000102515858901014
1.19524869160641e-05
-0.000109056122225611
1.16568069952824e-05
-0.000115310497209951
1.11115771868459e-05
-0.000121232387001546
1.04454479135526e-05
-0.000126899108792002
9.89445692162973e-06
-0.000132649960910539
9.89893494942365e-06
-0.000139451196415599
1.13369445492595e-05
-0.00014927896854666
1.69291302451197e-05
-0.000164539531508908
3.02522536650486e-05
-0.00017856238668541
2.8232212215061e-05
-0.000189231744282831
2.16274553473745e-05
-0.000197469202735858
1.68359717130091e-05
-0.000203909995740227
1.33234276160253e-05
-0.000208957982983264
1.0593769046045e-05
-0.000212884459274387
8.40351710614257e-06
-0.00021587805329043
6.58358918355989e-06
-0.000218073460209719
5.02935187340851e-06
-0.000219570458073437
3.67022156751078e-06
-0.000220444786476257
2.45869830145418e-06
-0.000220755836407441
1.36177732098971e-06
-0.000220552293349989
3.57814561216878e-07
-0.000219876932470451
-5.65857991651414e-07
-0.000218770040118326
-1.41577837323702e-06
-0.000217270383494849
-2.19511906940326e-06
-0.000215416264652348
-2.90376082151139e-06
-0.000213247361208391
-3.53850604211011e-06
-0.000210805855610898
-4.0938410174549e-06
-0.000208137210485965
-4.56228689784756e-06
-0.000205290403744346
-4.93546610937104e-06
-0.000202317706849782
-5.20485262774032e-06
-0.000199273563865307
-5.36337623301631e-06
-0.000196212560616179
-5.4066549915136e-06
-0.000193183815080514
-5.34056246021765e-06
-0.000190222095382065
-5.18483325446829e-06
-0.000187325594633296
-5.00295126369782e-06
-0.000184427954978453
-4.91237966228415e-06
-0.000181245949096008
-5.31677953302878e-06
-0.000177181652472937
-6.7691459953315e-06
-0.000171189731945761
-1.11140255241899e-05
-0.000163206164507246
-1.70104338636996e-05
-0.000157315566605535
-1.18658996493747e-05
-0.000152943923109532
-8.0231887524612e-06
-0.000148736561179274
-7.32002507563179e-06
-0.000144178150884347
-7.77171383111158e-06
-0.000138933640634282
-8.970809444308e-06
-0.000132837548151006
-1.05378988604919e-05
-0.000125782946502341
-1.23569797928643e-05
-0.000117723349491782
-1.42917857110854e-05
-0.000108638010505529
-1.62963141097572e-05
-9.85535732838127e-05
-1.82505381642629e-05
-8.75046866607764e-05
-2.00944234545504e-05
-7.5425500655656e-05
-2.21022853157111e-05
-6.22486125886658e-05
-2.43183699471685e-05
-4.79975106622192e-05
-2.65318862451592e-05
-3.27695503333334e-05
-2.85734421354478e-05
-1.671124504388e-05
-3.03209902528318e-05
2.36922828127375e-09
-3.17208596721598e-05
1.71331873682484e-05
-3.26232790362544e-05
3.43407466321111e-05
-3.2848288821249e-05
5.11374459874647e-05
-3.19967834573222e-05
6.73998800372389e-05
-3.09179309736348e-05
8.31028273616474e-05
-2.9793651818555e-05
9.82739564947304e-05
-2.87317257015178e-05
0.000113005511006623
-2.78731452911858e-05
0.000127441284283593
-2.73099535751393e-05
0.000141839088208602
-2.72834547744704e-05
0.000156703372447694
-2.8281007142144e-05
0.000173123639670961
-3.16005052063228e-05
0.000191782995107688
-3.62994956510986e-05
0.000212147084747562
-3.95044590628224e-05
0.000234070497718398
-4.24700064956637e-05
0.000257528367645526
-4.53880603055651e-05
0.000282622646085091
-4.85643780015975e-05
0.000309050748529435
-5.09868045046342e-05
0.000335662147978593
-5.09116766311421e-05
0.000358607538399113
-4.20988133530682e-05
0.000369049999196215
-1.4156596452176e-05
0.000356470035228641
3.5609477281446e-05
0.000325492133854516
6.91326148813969e-05
0.000284911570720195
8.30475712370184e-05
0.000243090870651546
8.06217477909295e-05
0.000203869188931362
7.47300716171016e-05
0.000182406119080378
3.66587283585824e-05
5.75064382226154e-06
0.000267977959947119
-7.330708363788e-06
0.000274914776762216
-2.41211768893092e-05
0.000276637111017581
-6.96544775427745e-06
0.000254655481554824
6.23629612710678e-05
0.0002058858013804
0.000125702025992517
0.000130530574383118
0.000179769906287759
4.65962597931778e-05
0.000183657612313107
-1.68608632042254e-05
0.00012649172076269
-4.59843871841161e-05
5.12838369467704e-05
-5.37455615760712e-05
1.09289185150322e-05
-5.38804752062295e-05
-2.71958662221029e-06
-5.16858237476157e-05
-6.94927840419556e-06
-4.92651371421545e-05
-6.90911945005812e-06
-4.73680899074706e-05
-5.26068363755088e-06
-4.61441417321065e-05
-3.44221372172955e-06
-4.55514026969058e-05
-1.86551842694713e-06
-4.56187831212701e-05
-2.48718852425017e-07
-4.62862302443905e-05
1.23354253860222e-06
-4.72852511200715e-05
2.00222519816371e-06
-4.84872087567686e-05
2.44611930644556e-06
-4.99180246586356e-05
2.93886316542819e-06
-5.16734286105107e-05
3.64846311682289e-06
-5.3893222629936e-05
4.69097349689053e-06
-5.67020481377893e-05
6.04723840717649e-06
-6.01369511360698e-05
7.50264736781153e-06
-6.41402807386624e-05
8.76010206739374e-06
-6.87927874066783e-05
1.0223268937697e-05
-7.41864474689267e-05
1.19316154702307e-05
-8.03146965144413e-05
1.36360045582486e-05
-8.71037721985166e-05
1.51731228074158e-05
-9.44365531881348e-05
1.64269407074313e-05
-0.000102198214894955
1.73770993962977e-05
-0.000110344513519938
1.81810268278989e-05
-0.000118971643809302
1.93208160013383e-05
-0.000128086391046059
2.06289988886544e-05
-0.000137416815813103
2.12616258901759e-05
-0.000146694212364758
2.12298837951454e-05
-0.000155718271558964
2.06808664551326e-05
-0.00016435608323858
1.97493890807758e-05
-0.000172586516345901
1.867588119474e-05
-0.000180557543077417
1.7865483795866e-05
-0.000188778115018832
1.81195070089037e-05
-0.00019840147112285
2.09603007482492e-05
-0.000211050585364994
2.95782445551429e-05
-0.000228056608157408
4.72582764935109e-05
-0.000242997767639207
4.31733716889077e-05
-0.000254085753574421
3.2715441216897e-05
-0.000262402805947751
2.51530239465431e-05
-0.000268663215911349
1.9583837348468e-05
-0.000273332614727613
1.52631675236247e-05
-0.000276719259955271
1.17901618745781e-05
-0.000279039154455845
8.90348309684379e-06
-0.000280447195522474
6.43739222427226e-06
-0.000281059337905565
4.28236311377416e-06
-0.000280964409185609
2.36376863898179e-06
-0.000280232819021277
6.30186131707944e-07
-0.000278925795587631
-9.49209952877797e-07
-0.000277099755113254
-2.3918995724773e-06
-0.000274805227036151
-3.71030755156219e-06
-0.000272089413284168
-4.91093388856857e-06
-0.000268999140152929
-5.99403495958316e-06
-0.00026558220295383
-6.95544416448068e-06
-0.000261888253443406
-7.78779134783937e-06
-0.000257969265203672
-8.48127583803235e-06
-0.000253879323911483
-9.02540796971046e-06
-0.000249673763126064
-9.41041383942488e-06
-0.000245407136502411
-9.63000313441598e-06
-0.000241129793236579
-9.68399838264395e-06
-0.000236880594897755
-9.58976077048034e-06
-0.000232675694094472
-9.38973387642073e-06
-0.000228484119861281
-9.19452516623435e-06
-0.000224198149148998
-9.19834990042967e-06
-0.000219519940612628
-9.99498745984804e-06
-0.000213926154845691
-1.23629310274098e-05
-0.000206733971751332
-1.83062077703057e-05
-0.000198296913019225
-2.54474916437005e-05
-0.000191506494291363
-1.86563173181741e-05
-0.000185657548341527
-1.38721335530488e-05
-0.000179648119949762
-1.33294522540071e-05
-0.0001730390332237
-1.43807993031066e-05
-0.00016553489089917
-1.64749504940618e-05
-0.000156992800027755
-1.90799884539589e-05
-0.00014732377636615
-2.20260021881745e-05
-0.000136492512422569
-2.51230484125675e-05
-0.000124485892851754
-2.83029324731727e-05
-0.000111324131713033
-3.14122981394098e-05
-9.70156714832682e-05
-3.44028825727081e-05
-8.15064457657898e-05
-3.76115099811741e-05
-6.47694506191416e-05
-4.10553641080534e-05
-4.68564731362554e-05
-4.44448628137931e-05
-2.78831017519885e-05
-4.75468126810526e-05
-8.00478347142302e-06
-5.0199307773735e-05
1.25895823041112e-05
-5.231522477352e-05
3.3654735822733e-05
-5.36884319731987e-05
5.48305169738695e-05
-5.4024069481706e-05
7.56366345030745e-05
-5.28029005772711e-05
9.59216916765051e-05
-5.12029878063556e-05
0.000115648704701767
-4.95206645570557e-05
0.000134837387508372
-4.7920408258827e-05
0.000153573230668295
-4.66089882218142e-05
0.000172002489292644
-4.57392119735528e-05
0.00019039175043206
-4.56727156774448e-05
0.000209268495840888
-4.71577522949582e-05
0.000229749602413729
-5.20816115006123e-05
0.000252627945333853
-5.91778382728201e-05
0.000277551971597515
-6.44284850153652e-05
0.000304369706062138
-6.92877406467049e-05
0.000333040682921498
-7.40590368603833e-05
0.00036363232602635
-7.91560208214834e-05
0.000395857557184708
-8.32120354057086e-05
0.000428603105150549
-8.36572243715698e-05
0.000458301689721688
-7.17973977280301e-05
0.000476454225265554
-3.23091318222519e-05
0.000471621783121517
4.04419195825176e-05
0.000444994430034002
9.57599681071233e-05
0.000403562271885161
0.000124479729500327
0.00035606545854613
0.000128118561214374
0.000308772736350402
0.000122022793870082
0.000279182149020204
6.62493157188849e-05
1.68508717971723e-05
0.00035668898082808
-3.12368209698538e-06
0.000360900462498721
-2.83326583616357e-05
0.000361602798406469
-7.66778357602887e-06
0.000340019249976268
8.39465097811423e-05
0.00028859076213069
0.000177130513932524
0.000201528534201248
0.000266832134310138
9.3825084812834e-05
0.000291361061808246
2.19043213173924e-06
0.000218126373570554
-4.64177816330439e-05
9.98920508701838e-05
-6.22774458381063e-05
2.67885828991049e-05
-6.5050468186718e-05
5.34359105952425e-08
-6.37803959477964e-05
-8.21935042890232e-06
-6.17420767853843e-05
-8.94743835606038e-06
-6.00345800615216e-05
-6.968180091305e-06
-5.89674974273943e-05
-4.50929610684095e-06
-5.85883051577687e-05
-2.24471048438743e-06
-5.89656730870938e-05
1.28649253612134e-07
-6.00413023941474e-05
2.30917199841302e-06
-6.15238769439125e-05
3.48479989498563e-06
-6.32738718385228e-05
4.19611436530463e-06
-6.53304045557333e-05
4.99539608665629e-06
-6.78157703644669e-05
6.13382918640385e-06
-7.08981108021331e-05
7.77331425836695e-06
-7.47190658558883e-05
9.8681938415954e-06
-7.93221865891063e-05
1.21057685236652e-05
-8.46564273779815e-05
1.40943433048824e-05
-9.081082265344e-05
1.63776646788633e-05
-9.7875614211347e-05
1.89964075120489e-05
-0.000105826861694013
2.15872525502034e-05
-0.000114561811488384
2.39080731412933e-05
-0.000123932093717056
2.57972235006601e-05
-0.000133799481272387
2.72444875236765e-05
-0.000144097385050053
2.84789311592311e-05
-0.000154871281848778
3.00947133089232e-05
-0.00016605652678981
3.18142442742917e-05
-0.000177331223910185
3.25363233824419e-05
-0.000188398194147322
3.22968543333127e-05
-0.000199055369000367
3.13380415472434e-05
-0.000209196515293211
2.98905355625715e-05
-0.000218853425722766
2.83327917748815e-05
-0.000228244145045133
2.72562032401899e-05
-0.000237918469951302
2.77938320147704e-05
-0.000248851528281424
3.18933591569458e-05
-0.000262046039365048
4.27727556935874e-05
-0.000277797497444403
6.30097345990784e-05
-0.000290868878067094
5.62447522991009e-05
-0.000300258448675063
4.21050117637408e-05
-0.000307055177089611
3.19497522402499e-05
-0.000311905693280453
2.44343533476737e-05
-0.000315244769074287
1.86022430454165e-05
-0.000317357173038259
1.39025654793094e-05
-0.00031844436996457
9.99067957407828e-06
-0.000318651880829027
6.64490255214423e-06
-0.00031808978066672
3.72026233501201e-06
-0.000316843676431116
1.11766372013813e-06
-0.000314985353412368
-1.22813762067137e-06
-0.000312577360005552
-3.35720412378608e-06
-0.000309673166583303
-5.29609376759588e-06
-0.00030632145380241
-7.06202109398316e-06
-0.000302569706059807
-8.66268236225226e-06
-0.00029846525575151
-1.00984859513319e-05
-0.000294056270814874
-1.13644297220273e-05
-0.000289392380901419
-1.24516818072089e-05
-0.000284524829539457
-1.33488276608783e-05
-0.000279505898538884
-1.404433933841e-05
-0.000274387582077872
-1.45287305702161e-05
-0.000269219045792918
-1.47985395871473e-05
-0.00026404247806802
-1.48605661714229e-05
-0.000258885505387165
-1.47467334110539e-05
-0.000253750075892476
-1.45251632280305e-05
-0.000248590714774816
-1.43538860410649e-05
-0.000243292025704689
-1.4497038632735e-05
-0.000237612637308236
-1.56743754298751e-05
-0.000231167493611138
-1.88080742172464e-05
-0.000223519466408022
-2.59542343929081e-05
-0.000215152021205542
-3.38149361961387e-05
-0.00020783805070779
-2.5970287093445e-05
-0.000200919366722839
-2.07908167573892e-05
-0.000193591377443475
-2.06574407140337e-05
-0.000185502859513865
-2.24693163912361e-05
-0.000176409764928253
-2.55680442297006e-05
-0.000166192268823273
-2.92974837120986e-05
-0.000154776739229478
-3.344153094779e-05
-0.000142133402022327
-3.7766384806048e-05
-0.000128250522340658
-4.21858113680898e-05
-0.00011313857757098
-4.65242421547586e-05
-9.67881267516786e-05
-5.07533326751769e-05
-7.91620487982681e-05
-5.52375872601737e-05
-6.02654645916538e-05
-5.99519476867894e-05
-4.01657512015703e-05
-6.45445756254854e-05
-1.89833413508693e-05
-6.87292220048838e-05
3.12967158496118e-06
-7.23123202366845e-05
2.5987821358937e-05
-7.51733741325931e-05
4.93545200672088e-05
-7.70551303263024e-05
7.28786492653069e-05
-7.7548198380595e-05
9.61229644352249e-05
-7.60472154968715e-05
0.000118925088751556
-7.40051119128918e-05
0.000141243651134028
-7.18392267608147e-05
0.000163093580675616
-6.97703376418578e-05
0.000184552983906766
-6.80683913027349e-05
0.000205762352405461
-6.69485803189272e-05
0.000226975661461575
-6.68860245675488e-05
0.000248688144747333
-6.88702353959013e-05
0.000271925894009747
-7.53193605579303e-05
0.000297498029632885
-8.47499736732901e-05
0.000325243154572698
-9.21736097209312e-05
0.000355027310579466
-9.90718964162402e-05
0.000386811107218675
-0.000105842833268744
0.000420612074679823
-0.000112956988066655
0.000456156801486408
-0.000118756762017526
0.000492433517213313
-0.000119933939927386
0.000526408300897735
-0.000105772181261013
0.000550948706409535
-5.68495371946906e-05
0.000555582590328436
3.58080357953189e-05
0.00053878850601358
0.000112554052540428
0.000504644428718833
0.000158623806894063
0.000460082141709399
0.000172680848299053
0.000411713893596665
0.000170391042035869
0.00037743248856623
0.000100530720778187
3.33873533023483e-05
0.000437820074893976
5.14238464574551e-06
0.000438573851708959
-2.90864350365472e-05
0.000437983745099424
-7.07767688044502e-06
0.000418634418352999
0.000103295836603763
0.000370076882079854
0.000225688050294031
0.000279904117601051
0.000357004898876019
0.000155303929793514
0.000415961249714416
3.56333629735337e-05
0.000337796940511099
-3.73189703544099e-05
0.000172844384355134
-6.54051745992285e-05
5.48747873251662e-05
-7.28048793716128e-05
7.45314087162595e-06
-7.35513317354377e-05
-7.47289784055021e-06
-7.26307616296658e-05
-9.86800818443145e-06
-7.16226357016583e-05
-7.97630572189489e-06
-7.10618981848464e-05
-5.07003334893172e-06
-7.114076332298e-05
-2.16584511478725e-06
-7.19978188396963e-05
9.85704959262564e-07
-7.36004865498929e-05
3.91183986797223e-06
-7.56615871406808e-05
5.54590063646811e-06
-7.80445937998787e-05
6.5791211920291e-06
-8.08033835631503e-05
7.75418605891345e-06
-8.40821693829278e-05
9.41261527477549e-06
-8.80673366889779e-05
1.17584818985388e-05
-9.2906975260601e-05
1.47078328053196e-05
-9.86458470761655e-05
1.78446407723151e-05
-0.000105236629962994
2.06851266477386e-05
-0.000112760326386756
2.39013615710524e-05
-0.000121283819227363
2.75199008333869e-05
-0.000130749741933723
3.10531757556956e-05
-0.000141016886978665
3.4175218707355e-05
-0.000151902254670342
3.66825917290622e-05
-0.000163240637515706
3.85828709033874e-05
-0.00017493422035877
4.01725145094611e-05
-0.000186967906388021
4.21283997945847e-05
-0.000199216111915186
4.40624501916453e-05
-0.000211351685239186
4.46718970257733e-05
-0.0002231024417912
4.40476111384871e-05
-0.000234309110001037
4.25447099543369e-05
-0.000244919800881391
4.050122659625e-05
-0.000255019005753487
3.84319967674486e-05
-0.000264850410431839
3.7087608014914e-05
-0.000274881618879103
3.78250405396668e-05
-0.000285774179567519
4.27859199050672e-05
-0.000298031652666117
5.50302288319842e-05
-0.000311318714035875
7.62967959839561e-05
-0.000321851831599655
6.6777869847283e-05
-0.000329299442472966
4.95526225850026e-05
-0.000334556370410907
3.72066800832895e-05
-0.000338115721840695
2.79937046335752e-05
-0.000340327981353923
2.08145023607717e-05
-0.000341426067427139
1.50006512975777e-05
-0.000341578873260742
1.01434850952287e-05
-0.000340911166918999
5.97719584305769e-06
-0.000339519429236911
2.32852423656845e-06
-0.000337481524025445
-9.20241947944209e-07
-0.000334863007815646
-3.84665431588695e-06
-0.000331719150876387
-6.50106156439731e-06
-0.000328098622487128
-8.91662266123888e-06
-0.000324047884602418
-1.11127594733092e-05
-0.000319612632566783
-1.30979348707802e-05
-0.000314838701209005
-1.48724177495706e-05
-0.000309772872241489
-1.64302590883625e-05
-0.000304463304869366
-1.7761249528855e-05
-0.000298959484959868
-1.88526478644909e-05
-0.000293311442508205
-1.96923820241205e-05
-0.000287568198921626
-2.02719743274575e-05
-0.000281775070624167
-2.05916679898013e-05
-0.00027596936479452
-2.06662720398319e-05
-0.00027017322914345
-2.0542869034517e-05
-0.000264383633644057
-2.03147586345488e-05
-0.00025855464838155
-2.01828711476328e-05
-0.000252581396146175
-2.04702906524545e-05
-0.000246279733780097
-2.19760375249813e-05
-0.000239368067958708
-2.57197397173423e-05
-0.000231535950895164
-3.37863510888872e-05
-0.000223226504077418
-4.21243826006225e-05
-0.00021550152251408
-3.36952681966473e-05
-0.000207818378986119
-2.8473959789395e-05
-0.000199577231465378
-2.88985877157601e-05
-0.000190477273074172
-3.15692742510441e-05
-0.000180306737940155
-3.57385788286733e-05
-0.000168957263275075
-4.06469578458958e-05
-0.000156362924202613
-4.60358694987621e-05