/*--------------------------------*- C++ -*----------------------------------*\
  =========                 |
  \\      /  F ield         | OpenFOAM: The Open Source CFD Toolbox
   \\    /   O peration     | Website:  https://openfoam.org
    \\  /    A nd           | Version:  7
     \\/     M anipulation  |
\*---------------------------------------------------------------------------*/
FoamFile
{
    version     2.0;
    format      ascii;
    class       volScalarField;
    location    "20000";
    object      Pk_bouss;
}
// * * * * * * * * * * * * * * * * * * * * * * * * * * * * * * * * * * * * * //

dimensions      [0 2 -3 0 0 0 0];

internalField   nonuniform List<scalar> 
15600
(
2.77896388939854e-07
3.29114889002841e-07
3.66769710770684e-07
2.73653759833703e-07
1.25627782166574e-07
2.84268404171545e-08
7.53806986050465e-10
1.05309863315954e-09
1.38032534817062e-09
1.04751484013581e-09
8.31670961949102e-10
5.80114961143176e-10
3.6955074463563e-10
2.38251294539423e-10
1.66856581964745e-10
1.27515834923312e-10
1.05938984495934e-10
9.59290063400711e-11
9.22269312525924e-11
9.1242900385377e-11
9.25095814882589e-11
9.64087473236256e-11
1.04094958846059e-10
1.17355461847329e-10
1.38614750309089e-10
1.69599263270497e-10
2.12612978509247e-10
2.7365348328643e-10
3.60168512408199e-10
4.80951944673288e-10
6.46012375136799e-10
8.65728964624326e-10
1.1498493171833e-09
1.5156759607325e-09
2.00025096188107e-09
2.63718792671538e-09
3.43946950341886e-09
4.41741543765216e-09
5.56858864305669e-09
6.87917193533784e-09
8.33521304208437e-09
9.96648735445682e-09
1.18187491398508e-08
1.42272729161822e-08
1.969542393494e-08
3.0367362014181e-08
4.21200667931897e-08
5.42112607296546e-08
6.62382601490815e-08
7.8089091654484e-08
8.95755570611804e-08
1.00607889545159e-07
1.11074330843315e-07
1.20891132053146e-07
1.29975360151884e-07
1.3825801035076e-07
1.45684090713118e-07
1.52214272714401e-07
1.57796792194012e-07
1.62297966010802e-07
1.65622761717899e-07
1.67763967354869e-07
1.68752499720991e-07
1.68654412697842e-07
1.67574406150257e-07
1.65657277281203e-07
1.63088676761517e-07
1.60094692101989e-07
1.56940936418437e-07
1.53926091537639e-07
1.51381115556495e-07
1.49594027100454e-07
1.48761345814025e-07
1.48854779875621e-07
1.47583624618223e-07
1.35977719082307e-07
1.15891280211485e-07
1.08869197987378e-07
1.07671429654397e-07
1.08753953902894e-07
1.10571711447278e-07
1.12004563903989e-07
1.12354088655166e-07
1.10985415194959e-07
1.07460560600975e-07
1.01455067164469e-07
9.30601668806566e-08
8.24464644195451e-08
6.92680416050529e-08
5.36285607693248e-08
3.66290840820174e-08
2.02685161389586e-08
7.17670377212533e-09
3.95966832559157e-10
2.73640384811088e-09
1.58112314613275e-08
3.94962104033777e-08
7.34005585449432e-08
1.17132215462417e-07
1.70949178902932e-07
2.3592788635489e-07
3.15021996411986e-07
4.14242429491782e-07
5.51108114187387e-07
7.54866142182622e-07
1.03422957376866e-06
1.40156343777535e-06
1.87571876438431e-06
2.48713703921761e-06
3.2411626380915e-06
4.10974322618103e-06
4.8355862471229e-06
4.8747634508387e-06
3.90981169625284e-06
2.58475615762965e-06
1.50518267430443e-06
8.52583540035192e-07
4.48499694666425e-07
2.76970005656354e-07
2.54626829945663e-07
5.95498123800473e-05
6.59412005130839e-05
6.81020484571714e-05
5.33895409368555e-05
2.97600516642122e-05
9.68311661952594e-06
1.12851705658504e-06
1.54701108904205e-08
1.25175241604444e-07
1.27704962692635e-07
1.10550877973056e-07
8.15057435953962e-08
5.43640332665974e-08
3.63446928536713e-08
2.61210648871314e-08
2.03911260238846e-08
1.72598744688624e-08
1.58372511957399e-08
1.53706524536404e-08
1.53562328101091e-08
1.57275681886995e-08
1.65687027896045e-08
1.80863583588836e-08
2.05932424955775e-08
2.44868768037224e-08
3.01262871358815e-08
3.7997522041045e-08
4.91263908876245e-08
6.48169145651874e-08
8.66140575658204e-08
1.16290950983569e-07
1.5575110794953e-07
2.07133763201953e-07
2.73796580910914e-07
3.6131821914552e-07
4.74960890207863e-07
6.1729529011655e-07
7.90205122357879e-07
9.93997079439756e-07
1.22789743883684e-06
1.49214976573904e-06
1.79211045160309e-06
2.15125886114843e-06
2.66689006656032e-06
3.5346978798043e-06
4.98191260518641e-06
6.54378414035881e-06
8.09416881503981e-06
9.59154805724394e-06
1.10272325153051e-05
1.23846259860016e-05
1.36561931670563e-05
1.48322500335441e-05
1.59058612900921e-05
1.68703965478958e-05
1.77208760758779e-05
1.84542263690609e-05
1.90693612074877e-05
1.95638982677921e-05
1.99200630610776e-05
2.01354929083605e-05
2.0214384676555e-05
2.01640097125863e-05
1.99950460703187e-05
1.97217300764098e-05
1.93617970151583e-05
1.8936345430999e-05
1.8469465693902e-05
1.79880001726713e-05
1.75202497544516e-05
1.70944885561806e-05
1.67331075495421e-05
1.64509862513515e-05
1.61726589104708e-05
1.57234657240389e-05
1.47918077677377e-05
1.31519851953805e-05
1.238852364288e-05
1.21304138892453e-05
1.20376876616615e-05
1.19664895656089e-05
1.18096508307251e-05
1.15042776090795e-05
1.0999225711796e-05
1.02669312435179e-05
9.29627084535437e-06
8.10342311626565e-06
6.71994695423078e-06
5.17171555472662e-06
3.53815984875713e-06
1.98219117221263e-06
7.3960897283445e-07
9.34146261394864e-08
3.42102345211874e-07
1.74285313432243e-06
4.39890900105402e-06
8.28276838195335e-06
1.33619997358311e-05
1.96163230445131e-05
2.70985722487276e-05
3.59536465611655e-05
4.65375478349328e-05
5.95633851447095e-05
7.69486103047877e-05
0.000101536824326298
0.000134245746725817
0.000176691420024316
0.000230592340289419
0.000298818558577083
0.000381625419656127
0.00047611472384868
0.000558583433701123
0.000579173874875414
0.000506414297504246
0.000385572787907844
0.000259827664485991
0.000166028619874072
9.98350485567325e-05
6.80370222564183e-05
5.88149381283772e-05
0.00134812900947108
0.00140227750129957
0.00136108195575113
0.00109412930392968
0.000706899805025594
0.000301793009549946
6.39371897271816e-05
2.71200037009625e-06
7.55191216364116e-07
1.51743265994826e-06
1.53765647067454e-06
1.233807445083e-06
8.77931630039461e-07
6.16495365391941e-07
4.58735505235672e-07
3.68089334470301e-07
3.18815048876952e-07
2.9729065724244e-07
2.91880437499696e-07
2.94938668131415e-07
3.05519018501429e-07
3.25628969745387e-07
3.59473947439136e-07
4.13226326667496e-07
4.94386789356531e-07
6.11143842354441e-07
7.74433909987736e-07
1.00388889303805e-06
1.32477020224476e-06
1.76684873918152e-06
2.36431158561553e-06
3.15498223825595e-06
4.18507307515017e-06
5.51735779155939e-06
7.23622970071343e-06
9.42460426562511e-06
1.21255345625212e-05
1.53663852048875e-05
1.91566481788568e-05
2.34996561952503e-05
2.8423892261236e-05
3.40479416267048e-05
4.0905191392187e-05
5.01538918756391e-05
6.18835932044723e-05
7.92222748457985e-05
9.73320498180275e-05
0.000114262082026953
0.000129741958260732
0.000143825774937235
0.000156463587210016
0.00016767278030283
0.000177443541617363
0.000185786269082137
0.000192712230488537
0.000198245283050647
0.000202425904314664
0.000205330640778465
0.000206850145807466
0.00020699466125474
0.00020585992591462
0.000203545560333038
0.000200169359752462
0.000195866466821158
0.000190787987975652
0.000185098138991311
0.000178970637484732
0.00017258321829874
0.000166112667121685
0.000159720512799868
0.000153537619903244
0.000147643584150122
0.000142015321786789
0.000136099635799594
0.000130460286406249
0.000126391836662474
0.00011797825593036
0.000110882883295865
0.000106193202638303
0.000101851379393691
9.7106549910295e-05
9.13637473572742e-05
8.43441362527202e-05
7.5899789416703e-05
6.60657376219188e-05
5.50149389901734e-05
4.30447278951631e-05
3.07116856579109e-05
1.89509340563731e-05
9.10115851883136e-06
2.9307247836665e-06
2.59700623220995e-06
1.04700857669959e-05
2.88460894753582e-05
5.95824742653513e-05
0.000103289656545532
0.000160229388523182
0.000230655243218345
0.000315077690607864
0.000414649060806019
0.0005313880397043
0.000669286584017087
0.000835893636826064
0.0010486524267148
0.00132908775925303
0.00168518703589331
0.00213472478193828
0.00268967082365907
0.00336853001839704
0.00416428632884284
0.0050473532617571
0.00584484379772878
0.00622562525715982
0.00590874442251613
0.00518491215480286
0.00411756520644509
0.00305537340314115
0.00212969548080054
0.00162659241331918
0.00140552194808068
0.00852391790207115
0.00841694605805989
0.00785923451830642
0.00647819678127068
0.00474879905516514
0.00258749898532679
0.000835882477118608
0.000100957807037379
1.34662465059033e-06
4.5351277861886e-06
6.58700547144368e-06
6.14539768163361e-06
4.83828081660764e-06
3.64931458692318e-06
2.85121027412402e-06
2.37272242042962e-06
2.11429134592939e-06
2.00961803421595e-06
2.00015271432629e-06
2.04677046937531e-06
2.14557669281503e-06
2.31282839675128e-06
2.57851761336119e-06
2.98507036423652e-06
3.58279511529339e-06
4.43425541301665e-06
5.6183449661585e-06
7.25920592448848e-06
9.51442109904308e-06
1.25623668099529e-05
1.6599950924043e-05
2.18395543396642e-05
2.85317687711837e-05
3.69399212445584e-05
4.73355472032834e-05
5.9988219816761e-05
7.49528116799556e-05
9.21897976761047e-05
0.000111627428407661
0.000133227060390395
0.000157083495795254
0.000183595005182265
0.000214097923986157
0.000248130998479999
0.000276819047567842
0.000314033201521856
0.000349988603533698
0.000379441473487142
0.000402782206956921
0.000420978037158034
0.000434506369883863
0.000443877033015293
0.0004494660726169
0.000451640549457008
0.000450731133282245
0.00044706051643026
0.00044101347187804
0.000432616882856538
0.000422105423086144
0.000409842056120958
0.000396115788369424
0.000381204778450632
0.000365374222653163
0.000348872254681737
0.000331925199156859
0.000314731666304873
0.00029745577421858
0.000280220319172482
0.000263099969080262
0.000246114419268409
0.000229232436312304
0.000212473240584246
0.000195971309037641
0.000180640622482201
0.000172201665140637
0.000177010865659012
0.000176109302656165
0.000162566398376123
0.000148142437495531
0.00013230680612554
0.000115610649806468
9.81798004469935e-05
8.03589008023678e-05
6.26341450221817e-05
4.56766059947996e-05
3.0368847437173e-05
1.7900995739002e-05
1.03451081403682e-05
1.05438237979862e-05
2.14440369166067e-05
4.62443277228915e-05
8.84669369905838e-05
0.000151776363806246
0.000239807568153018
0.000355710818786608
0.000502807494854904
0.000686056258403695
0.000909655367340273
0.00117880443017276
0.00149991384527209
0.00188120377138726
0.00233433155188896
0.00287766836514078
0.00353932254610707
0.00433773003030377
0.00528526054445364
0.0064272284864748
0.00777664967542787
0.00934095092541171
0.0110647965280003
0.0128748182132255
0.014540129710521
0.0158050025516106
0.0164270980690732
0.0167611585694821
0.0159292739950089
0.0140870782503871
0.0116146430321787
0.0100676597194353
0.00908868902974559
0.0213196594347407
0.0203094691198629
0.0186200729719645
0.0159920338573116
0.0132726637039697
0.0091583059653377
0.00428856665627664
0.00098950093288523
6.13132532389736e-05
2.56752523075446e-06
1.09894951521535e-05
1.44115717695522e-05
1.36411364776708e-05
1.15583248134296e-05
9.72694380518091e-06
8.51931717382542e-06
7.87263135034907e-06
7.6563877520321e-06
7.7419409556243e-06
8.02796612681501e-06
8.5099895657623e-06
9.25645761749247e-06
1.03800484940915e-05
1.20324853427686e-05
1.43889938331953e-05
1.76821938279746e-05
2.21683993452908e-05
2.81952713099712e-05
3.61716294364709e-05
4.6494394039882e-05
5.95275718759381e-05
7.55819327379434e-05
9.49217391570137e-05
0.00011751436792294
0.000143094860071713
0.00017150705781602
0.00020223012926426
0.00023471439098125
0.000268623372744513
0.000303874094881897
0.000340516456243262
0.000378254643566645
0.000415392440267631
0.000441671959159796
0.000434797113518064
0.000420295857777803
0.000408486742463507
0.000395539220772189
0.000381136608834525
0.000365786406595205
0.000349614487545049
0.000332810408157648
0.000315541903749431
0.000297988482839678
0.000280330916108241
0.000262778030664923
0.000245415435991755
0.000228302352337375
0.000211558246156158
0.000195287384381451
0.000179569397780459
0.000164462531855876
0.000150002921011469
0.000136204707994188
0.00012306065886371
0.000110543619987625
9.86089533239172e-05
8.72017971950383e-05
7.6266369195925e-05
6.57715520985334e-05
5.57484194444991e-05
4.64374582821916e-05
3.83359602097362e-05
3.27694637148071e-05
3.32071250968837e-05
4.21047325597493e-05
4.6794823290344e-05
3.97582314724584e-05
3.14834902502705e-05
2.3088271048732e-05
1.60546110143408e-05
1.11423846344893e-05
9.09854784752286e-06
1.06959703230931e-05
1.68435035643327e-05
2.87196332703538e-05
4.82883580013007e-05
7.82524732296987e-05
0.000120364218667517
0.000175687476645806
0.000245518734979165
0.000331335315583252
0.000434515941490666
0.00055721352538771
0.000701207341693549
0.00087315750612137
0.00108342596749979
0.00134021141512552
0.00165315687540021
0.00203339369994264
0.00249393837014815
0.00304942773908264
0.00371746098930367
0.00450169918575245
0.00536509522104285
0.0063013097594131
0.00735551795562661
0.00852781170773119
0.00978794757196673
0.0110432285165439
0.0122248357491903
0.0132808702103154
0.0144644002709721
0.01656027528503
0.0200874807730756
0.023264494244762
0.0248440772416553
0.0243606854077824
0.023793325046915
0.0226930247060421
0.0288878059810569
0.0270742923918933
0.0245933398278433
0.0219274555153261
0.0202529084515041
0.0172776025369992
0.0111501276428631
0.00425115125410293
0.000657036972690382
3.18711907917579e-05
3.02529856958327e-06
1.43506158970758e-05
2.09304517651421e-05
2.2125995380997e-05
2.11344521225448e-05
2.00275405574043e-05
1.94625220437394e-05
1.94909386225177e-05
2.00791621950023e-05
2.10974027220311e-05
2.25622265035573e-05
2.46475551946525e-05
2.76036104239386e-05
3.17412152007527e-05
3.73958265638926e-05
4.50175968562379e-05
5.49603663089306e-05
6.7566455026789e-05
8.31317431579823e-05
0.000101737992277016
0.000123254924981806
0.000147355492053386
0.000173508885188439
0.000200505405742581
0.000226888754511087
0.000252032055701418
0.000275552359956533
0.00029738994568434
0.000317902589375339
0.000337553300181923
0.000356253985291476
0.000372161058677485
0.000380011259738666
0.000365887494372813
0.000310423558299879
0.000245664458793779
0.000201349324490827
0.000168429474576696
0.000142581699059927
0.000121543054415758
0.000103936971719656
8.88911107384149e-05
7.58786724077587e-05
6.45474380312556e-05
5.46689683365327e-05
4.60717132094568e-05
3.85749772885398e-05
3.20627686489782e-05
2.64558475365992e-05
2.16750525347412e-05
1.76449172479561e-05
1.42936103532657e-05
1.15534778445721e-05
9.36348829082996e-06
7.67322800605477e-06
6.44826269936573e-06
5.67696343679689e-06
5.37937788520549e-06
5.61573704816414e-06
6.49164035520758e-06
8.15459660720781e-06
1.0712758035815e-05
1.40798339882878e-05
1.77161737554374e-05
1.93116900946607e-05
1.51613832529368e-05
1.01642067618457e-05
9.843172242641e-06
1.2539201048652e-05
1.82777202330196e-05
2.73701222909208e-05
4.02511584690513e-05
5.74657954087457e-05
7.96770857143647e-05
0.000107750735773115
0.000142885613686664
0.000187367888916491
0.00024358849257608
0.000311374606927064
0.000389691204684442
0.000477925798848751
0.000575627706408131
0.000681901402362519
0.000797028127860305
0.000920260707884003
0.00105774472248264
0.00122051296932472
0.00141645860409262
0.00165393369191918
0.00194257954034028
0.00229320520224004
0.00271673652444641
0.0032240966732976
0.00380250300108969
0.00438516381776034
0.00494287330240876
0.00550467304100636
0.0060655700141289
0.00658636451098056
0.00698031496614001
0.00719813253957689
0.00725805900658405
0.00746929836534097
0.00892149115614442
0.012747824011378
0.0181400376160754
0.0235065070515037
0.0273732411697346
0.0299183637405234
0.0302045098753895
0.0282908192216798
0.0266671972138342
0.0242004181319556
0.0220012524576675
0.0217539792740571
0.0219424277321815
0.0183536736981869
0.0102691739741466
0.0029584183290704
0.000380468977692896
2.68856999913263e-05
9.67986232310743e-07
1.29003681743981e-05
2.36812630069275e-05
2.90455914347528e-05
3.15417080351352e-05
3.31299639583405e-05
3.46356568314122e-05
3.65639580983087e-05
3.89674795556509e-05
4.19419102128632e-05
4.57718053122956e-05
5.07861939654671e-05
5.73352967417585e-05
6.5738479389883e-05
7.64355642198565e-05
8.94774644008514e-05
0.000104618484428506
0.000121452432714953
0.00013932673079878
0.000157506896710216
0.000175289697560897
0.000191962293150349
0.000206223396488014
0.000216818632158767
0.000223988317998585
0.000228657932555653
0.00023171090389718
0.000233940870287744
0.000235660136275339
0.000236079803822882
0.000232491593101462
0.000219975143554022
0.000189880969182136
0.000133930179679695
8.05752422845146e-05
5.01331414406209e-05
3.11593393060142e-05
1.89402622481595e-05
1.09543448729161e-05
5.82531610501755e-06
2.72879979717126e-06
1.16868654673625e-06
8.15525983333561e-07
1.43916948288476e-06
2.8701987253144e-06
4.98644710237735e-06
7.68486659830425e-06
1.0873967245617e-05
1.44738730284234e-05
1.84152271590052e-05
2.26398872447162e-05
2.71036808750642e-05
3.17804603140487e-05
3.66678277488911e-05
4.17934425258925e-05
4.72212226025556e-05
5.3052757039136e-05
5.94238510021928e-05
6.64691096221946e-05
7.42725120562768e-05
8.25638386087161e-05
9.05230154871418e-05
9.63147248612352e-05
9.42028171682918e-05
7.57520220607283e-05
5.95835104323385e-05
6.13087981614735e-05
6.98483033500391e-05
8.43213375374388e-05
0.000103663546892464
0.000127985250908931
0.000157601750780895
0.000193110684390122
0.000235366202870797
0.00028560355544198
0.000346327231005871
0.000419708551675981
0.000504337641877679
0.000597875678733354
0.00069848492444426
0.000804472972446547
0.000913386311954187
0.0010238743049823
0.00113326726474032
0.00124610795127087
0.00137344041504505
0.00152292898351433
0.00170133314925059
0.00191640636517449
0.00217626199854314
0.00248864991984431
0.00286063663891742
0.00327754482352065
0.00367039300017565
0.00399666954548532
0.0042734406409731
0.00449505873250293
0.00462605329099037
0.00459019376165512
0.00434986257393236
0.00390279506051919
0.00342974807369566
0.00373073930181823
0.00591583603926849
0.0101295134343756
0.0157007014503216
0.0215546439159763
0.0264352142911239
0.0285608214142639
0.023605488836958
0.0227740816179206
0.0208702982181247
0.0191786371049686
0.0196127836716189
0.0221959598705157
0.0228238291510295
0.0170428200099011
0.00763942260540623
0.00166734363931305
0.000270125212002022
3.25772010959628e-05
2.04170880884099e-07
8.90234450633073e-06
2.15585394677399e-05
3.0951792920491e-05
3.73761595921657e-05
4.20449585322256e-05
4.61769133454514e-05
5.02677765334879e-05
5.45696486788056e-05
5.9414850887896e-05
6.50639366196892e-05
7.17159720967408e-05
7.94890768105551e-05
8.86455160518209e-05
9.88853755431969e-05
0.000109445712228549
0.000119586015562105
0.000128663098334038
0.000136292372590172
0.000142334615229907
0.000146686582010668
0.000148690387410165
0.000147718856284667
0.000144533389656274
0.000140372708914408
0.000135979421503184
0.0001317195849636
0.000127385826787764
0.000121900810938566
0.000113086751753607
9.83849466827498e-05
7.5055532182299e-05
4.19981754110431e-05
1.68181635132941e-05
6.3162330905917e-06
3.14588430454526e-06
3.85154542953154e-06
6.90481360084617e-06
1.14218080622843e-05
1.69504894049851e-05
2.3200137453283e-05
2.99871346678364e-05
3.71785444337003e-05
4.4704641819135e-05
5.24914370514628e-05
6.04662889423257e-05
6.85655149607387e-05
7.67364909224834e-05
8.49370381051048e-05
9.31382354376653e-05
0.000101328800759765
0.000109519825161799
0.000117751093656677
0.000126097066223244
0.000134670477413197
0.00014361421724799
0.000153084990715877
0.000163180038277155
0.000173861294772701
0.000184504346751588
0.000193744154750891
0.000199078871217322
0.000193028866920034
0.000163270466069592
0.00013756006145992
0.000138830073079036
0.0001501006094464
0.000170050751580431
0.000196387368653427
0.000228988316074109
0.000267973236366479
0.000313937208924185
0.000367777525013443
0.000430828463392716
0.000505847051718166
0.000594991180962229
0.000696065625404136
0.000805833175985331
0.000921592063980098
0.00104065855851657
0.00115939655515791
0.00127505714773782
0.00138366437887322
0.00148840999481558
0.00160076560770931
0.00172913640969628
0.00187992716577738
0.00206047134873144
0.00227796645288992
0.00253944051276713
0.00285148002826104
0.00320254838024008
0.00352842931631532
0.00377872640774197
0.00396230709739839
0.00407190023009335
0.00407298639073546
0.00389073596498044
0.00349170942592709
0.00283685232255289
0.00201164089481327
0.00158916896056901
0.00248488074529189
0.00500415631194738
0.00901129640696271
0.014239460105049
0.019500255349435
0.0226983829411526
0.0181956486028594
0.0181232915546311
0.0169074304180646
0.0157127047792778
0.016355076352241
0.0197545350265034
0.023938774988213
0.0223814786969906
0.0136442799702757
0.00438546242903751
0.000956093644920546
0.00021168124263259
3.74061481792221e-05
1.30386736147543e-06
4.35402040584669e-06
1.52246895207945e-05
2.52224070040526e-05
3.29081389103736e-05
3.90830665964773e-05
4.44316557055462e-05
4.93004415536698e-05
5.39924766522244e-05
5.86530781516825e-05
6.33421198274074e-05
6.80769908478191e-05
7.31022772873769e-05
7.81674267893701e-05
8.25628691971374e-05
8.58145665736944e-05
8.77509466704293e-05
8.8485593755875e-05
8.82610085301345e-05
8.72274432428835e-05
8.50328656052873e-05
8.12753339458533e-05
7.65441651264e-05
7.16950710896036e-05
6.70837035298818e-05
6.27620352490769e-05
5.84178627931857e-05
5.33094010017453e-05
4.63429532740738e-05
3.70191449300165e-05
2.61403450573562e-05
1.61654471154113e-05
1.44295033978476e-05
1.91277244623156e-05
2.77864455840287e-05
3.78377895311075e-05
4.87249681245666e-05
5.99610561598909e-05
7.14130268104804e-05
8.2957180470691e-05
9.45306246901096e-05
0.000106096793326521
0.000117636712052227
0.000129113176623786
0.000140484511241703
0.000151713481866706
0.000162770906709847
0.000173637368425866
0.000184307756853607
0.000194796561766647
0.000205142458835584
0.000215414524348818
0.00022571747375437
0.000236191969911513
0.000246997160673294
0.000258283270360483
0.000270087406827938
0.000282246587973107
0.0002938585274381
0.00030317169346294
0.000307272550706276
0.000297767489246563
0.000259189469437882
0.000225452051146144
0.000225216593407742
0.000237818912240052
0.000261845926471445
0.000293897154010704
0.000333673511874526
0.000381115851424049
0.000436854562762392
0.000501866303026433
0.000577631540722263
0.000667184551842301
0.000772775898760152
0.000891643793592708
0.00101984595251103
0.00115398812261069
0.00129048612011049
0.0014246224537701
0.00155250382551009
0.00166922583053021
0.0017770326556229
0.00188804363644744
0.00201192848287224
0.00215558241415519
0.00232692565913744
0.00253345312225839
0.00278299928921233
0.00308337390331215
0.00342688029249783
0.00375415251549651
0.00400903477799446
0.00419344984012833
0.00429588929995157
0.00427722422844608
0.00405580741097479
0.00359689266439909
0.00282491195094585
0.00177033264422628
0.000899538468269133
0.00104646196523456
0.00245132707233226
0.00504062119171488
0.00888866385333769
0.0133381135514655
0.0166169338200464
0.0135848858077034
0.0139683447345391
0.0132996085817797
0.0125246804883495
0.0132471222461322
0.0164154063802069
0.0225490851441861
0.0252850736600245
0.019886706707489
0.0086134903221755
0.00222392174451861
0.000590860699496931
0.000168812901455996
3.84487425302577e-05
3.81699047368453e-06
1.20276675481842e-06
7.37592996247411e-06
1.44547302372104e-05
2.07148287410527e-05
2.60772046057651e-05
3.06361258192103e-05
3.45405940382442e-05
3.78448466057061e-05
4.057951088759e-05
4.27999043816779e-05
4.48167736642394e-05
4.65946302973096e-05
4.77054149972321e-05
4.7966479394326e-05
4.74465871358051e-05
4.63653886775701e-05
4.49491873942277e-05
4.33185687193497e-05
4.12637590620308e-05
3.84859635960387e-05
3.52759439358191e-05
3.21128558646231e-05
2.91661996512569e-05
2.64478681451675e-05
2.3824228075934e-05
2.10772013667002e-05
1.80736116201328e-05
1.55777443436803e-05
1.61775379094458e-05
2.45978818562515e-05
4.0603740018597e-05
5.69547876698999e-05
7.49203518359168e-05
9.23312017211711e-05
0.000109417168674379
0.0001259684501394
0.000142106700989486
0.000157836815329508
0.00017319354283265
0.000188207647512648
0.000202897241940336
0.000217258994925948
0.000231278719103343
0.000244941680277211
0.000258237843785844
0.000271166185488035
0.000283740562370242
0.000295995461984335
0.000307989821530588
0.00031981272346051
0.000331587934161811
0.000343470710908783
0.00035562179454128
0.000368171017523095
0.000381089017199836
0.000394097004080925
0.000406078819987507
0.000414988827741397
0.000417555094677762
0.00040489510364201
0.000359214803655143
0.000318694762084331
0.000316542612683462
0.000329818067734418
0.000357297163650738
0.000394571466784464
0.000441202700829787
0.000496958553117437
0.000562525523423185
0.000638979083913471
0.000727973097675203
0.000832817832558932
0.000955890214085659
0.00109397042692208
0.00124253570542682
0.00139756343721479
0.00155457517256974
0.00170784628271763
0.00185252137740033
0.00198305048211316
0.00210108501910505
0.00221943765686339
0.00234923169442197
0.00249831770198101
0.00267574230621947
0.00288992893836117
0.00315027135586615
0.00346642052366844
0.00383390672448289
0.00419702720540524
0.00449490839666583
0.00472269151011627
0.00486194239293714
0.00486382958773427
0.00463454096931513
0.00413465614709574
0.00325611167948929
0.0019994252837386
0.000796043802459652
0.000483216203831258
0.0012417366336537
0.00292699514863962
0.00563489256357828
0.00904635593126426
0.0118673067438218
0.010130632250784
0.0106903445821144
0.0103632120154471
0.00989054411318808
0.0106665059004905
0.0132526104945705
0.0198009436841101
0.0257706482249753
0.0252426788617384
0.0135992279067755
0.00424351655079866
0.00119692800958301
0.000400773220916434
0.000134717765484507
3.8799437839319e-05
7.56796154483182e-06
7.96199487334969e-07
2.01158600493437e-06
5.30828631931157e-06
8.90074916020116e-06
1.21929291341126e-05
1.49919170622068e-05
1.72205138444083e-05
1.8883362709466e-05
2.00468435825872e-05
2.09735189432127e-05
2.17405956873474e-05
2.21453771737574e-05
2.21182540748353e-05
2.17265756412621e-05
2.10990912090262e-05
2.03522569498287e-05
1.95644953391976e-05
1.86728299338592e-05
1.7502514211775e-05
1.61237070936532e-05
1.47732206235185e-05
1.35811632827237e-05
1.26431563190678e-05
1.20738819013273e-05
1.2128603079303e-05
1.33662738032729e-05
1.72709770052805e-05
2.73354176874681e-05
5.01743821199787e-05
8.01915000819031e-05
0.000106279882859376
0.000132312170542226
0.000156194479209164
0.000178797315968148
0.000200105413321309
0.000220456906535863
0.000239959671659324
0.000258733369843916
0.000276856439268068
0.000294387204632252
0.000311353186478903
0.000327765702235677
0.000343630232330876
0.000358953483454787
0.000373750224984856
0.000388050263351436
0.000401904349200317
0.000415386700132336
0.00042859988418832
0.000441678958047069
0.000454784726233784
0.000468070085602756
0.000481636300375915
0.000495386438924822
0.000508933671739708
0.000520989466841052
0.000529257557697904
0.000530082884955069
0.000514338024813422
0.000462751629781371
0.000416508756232872
0.000412322463787879
0.000425944219136343
0.000456574824858081
0.000498893799597116
0.00055235442758041
0.000616552137898554
0.000692239223255847
0.000780597144308358
0.000883464074654404
0.00100440396919283
0.00114591034943532
0.00130436541065076
0.00147476939050685
0.00165244812811567
0.00183204442170539
0.00200689426508836
0.00217133859112915
0.00231942758686426
0.00245252131581757
0.00258408901152264
0.00272671717304526
0.00288945435785454
0.00308273380365275
0.00331619913193855
0.00360112946044958
0.00394907717029579
0.0043579060631108
0.00477451770296266
0.00513405538011581
0.00542454632692904
0.00561817684034396
0.00565211169916988
0.00541724173856354
0.00486788104963495
0.00386944088597659
0.00240912331138718
0.000924031552340017
0.000290680646023165
0.000658288110516542
0.00180491755930672
0.00375491571988548
0.00632025505840842
0.00857016659498295
0.00768837632717819
0.00825766989605167
0.00810727656360161
0.0078279627912055
0.00862857895261502
0.0106806400713092
0.0166315174337413
0.0243283711949416
0.0284648344563695
0.0188224056498625
0.00736096958842097
0.00210765754712011
0.000739609054586418
0.000288608396501998
0.00011154323877534
4.01341830009007e-05
1.31933443005983e-05
4.01974883375719e-06
1.48998413146306e-06
1.57580190852425e-06
2.67463753406073e-06
4.06102121894972e-06
5.421117760923e-06
6.6429662110254e-06
7.69861855502821e-06
8.66171420958366e-06
9.58880342643822e-06
1.04067660441024e-05
1.10487754760142e-05
1.15021844997958e-05
1.17867697639435e-05
1.1942037939062e-05
1.20419745614363e-05
1.21786519246713e-05
1.23266174342796e-05
1.24226577071328e-05
1.25554600441577e-05
1.28755753445472e-05
1.35911401912298e-05
1.50461424572367e-05
1.78665290788108e-05
2.30927168404296e-05
3.26666499862434e-05
5.05778247308132e-05
8.51030385364524e-05
0.000126800640680679
0.000161622150866457
0.000195152192813289
0.000225176218355942
0.000253088433488331
0.000279010248614731
0.00030347241926204
0.000326666389260474
0.000348790297048354
0.000369963811038835
0.000390287759647752
0.000409819188546813
0.000428594331949213
0.000446637940887941
0.000463972350958383
0.000480626748870501
0.000496645153072873
0.00051209226315204
0.000527054159593373
0.000541642110316887
0.000555996778655259
0.00057027791849788
0.000584623868493288
0.00059910149831581
0.000613546048567876
0.000627465425884108
0.000639419923578601
0.000646875150849826
0.000645753178658887
0.000626841417254803
0.000570213465273152
0.000519169103278638
0.000512978645675421
0.000526788425829805
0.000560415675240278
0.000607729514090382
0.000668101788871023
0.000740955545708331
0.000827110423426392
0.000927851604789227
0.00104519900579673
0.00118293151806968
0.0013436217030371
0.00152330012865762
0.0017165637706375
0.00191804368396304
0.0021214889496728
0.00231942940925064
0.00250554096598732
0.00267370277938557
0.00282524539905475
0.00297422465584105
0.00313460192224799
0.00331673486728219
0.00353252851253071
0.00379293769291002
0.00411121627099681
0.00450058269336327
0.004960407931287