/*--------------------------------*- C++ -*----------------------------------*\
  =========                 |
  \\      /  F ield         | OpenFOAM: The Open Source CFD Toolbox
   \\    /   O peration     | Website:  https://openfoam.org
    \\  /    A nd           | Version:  7
     \\/     M anipulation  |
\*---------------------------------------------------------------------------*/
FoamFile
{
    version     2.0;
    format      ascii;
    class       volVectorField;
    location    "20000";
    object      U;
}
// * * * * * * * * * * * * * * * * * * * * * * * * * * * * * * * * * * * * * //

dimensions      [0 1 -1 0 0 0 0];

internalField   nonuniform List<vector> 
15600
(
(0.0379642663911059 -2.89975615737601e-05 1.12828536087267e-24)
(0.0408754054496016 -5.31332716090256e-05 -6.20603906867183e-24)
(0.0450783245181476 -0.000573494229871928 2.89851777657001e-21)
(0.0419340777517355 -0.00194022032136074 7.47905787324289e-21)
(0.0306861756952121 -0.00288767760729181 -4.26922696677746e-20)
(0.0157230480602206 -0.0025672644353909 1.83130774437181e-22)
(0.000384974270656904 -0.000463230532089227 6.11801108864242e-19)
(-0.00940966764851019 0.00242400004760971 4.47201324679755e-23)
(-0.0120341788551916 0.00415484701054287 9.74784146122835e-19)
(-0.0114365003194055 0.00468521424452741 0)
(-0.0105968336959651 0.00484162400774411 1.14850796241634e-18)
(-0.00946396986174954 0.00466779203147956 -2.91667244781461e-22)
(-0.00841279188090364 0.00438239087261725 1.60626413820933e-22)
(-0.00756249915544077 0.00408796150674945 5.46380391612054e-18)
(-0.00694704545672986 0.00383274225357361 -2.8718009012045e-18)
(-0.00649086284759648 0.00360017638367468 -3.01584987603945e-18)
(-0.00617208230854844 0.00339411991083255 -3.16521999601186e-18)
(-0.00599344017865763 0.00324885334175729 4.07035383399775e-22)
(-0.00590267621592619 0.00315512725852103 -3.45668537644101e-18)
(-0.00583969878179151 0.00308281077439084 0)
(-0.00580241584988986 0.00303055120244726 3.73318620938568e-18)
(-0.0057931349073694 0.00299961044549838 9.39710702093181e-22)
(-0.00582665017078089 0.00299719237030589 2.727917624764e-22)
(-0.00592066350655255 0.00303161255272994 4.12481873844081e-18)
(-0.0060918160749021 0.00310994378427894 2.06751407357845e-21)
(-0.00631885500912112 0.0032177396783205 -4.37270604592317e-18)
(-0.00659118010531834 0.00333279100876723 -1.27854162958755e-15)
(-0.00693300704848417 0.00345669393393468 -1.33713206549031e-15)
(-0.00734802571576226 0.00358532941118874 0)
(-0.00782975471128863 0.00370839562518707 2.45549202807669e-18)
(-0.00836542017467222 0.00381167728138022 2.5334048919453e-18)
(-0.0089378684656316 0.00387872920687052 -5.06706649546011e-21)
(-0.00952403731609677 0.00389156774331903 2.68041497447875e-18)
(-0.0101326896700392 0.00384655541902091 0)
(-0.0108111599675546 0.0037637066971551 5.55634720794351e-21)
(-0.0115497875130758 0.00364756325839085 4.21552937753485e-23)
(-0.0123034274878681 0.00348168194492734 -5.79331075091068e-21)
(-0.0130494189966943 0.00325840227765513 -3.04332762554405e-18)
(-0.0137638948474779 0.00297305424648861 3.87136814204984e-16)
(-0.0144282744562017 0.00262496020528385 4.03689269127539e-16)
(-0.0150349989560339 0.00221800055628345 -1.61378206136743e-18)
(-0.0156220004640569 0.00176258056893593 0)
(-0.0161677012243037 0.00125522556053543 -8.24652847923135e-19)
(-0.0166869297497501 0.000702106911390578 3.25402804426628e-21)
(-0.018602271546896 0.000212210954700084 -1.10431743061223e-19)
(-0.0216273424074827 7.55959615276145e-05 3.24878771306669e-21)
(-0.0238721975116756 6.51058525761804e-05 -4.94768772623032e-16)
(-0.0256496149589728 5.67251342443675e-05 -5.03614596555021e-16)
(-0.0270652914037322 5.08523921995351e-05 3.35631007017033e-21)
(-0.0282203680280664 4.55673773860877e-05 0)
(-0.0291628424662668 4.09842077169944e-05 3.54403647727366e-21)
(-0.0299353075815656 3.66589835155433e-05 -3.54009821220989e-21)
(-0.0305635110143671 3.25298777144994e-05 -5.28474363952735e-16)
(-0.0310678605441467 2.84692894916764e-05 -5.41435426015364e-16)
(-0.0314626802525462 2.44382650443112e-05 0)
(-0.0317591035669261 2.03979965624692e-05 0)
(-0.0319655922151159 1.63323383433246e-05 -1.16101196794593e-31)
(-0.0320890336725699 1.22266842864156e-05 5.16070202661008e-22)
(-0.0321353317590265 8.08037538889429e-06 -5.16053438429912e-22)
(-0.0321098156924074 3.90923374223534e-06 0)
(-0.032017714622491 -2.62054846095732e-07 0)
(-0.0318644986004113 -4.40644682770407e-06 5.6495489259484e-22)
(-0.0316560873596186 -8.49392745716394e-06 -5.65107402773707e-22)
(-0.0313991043674939 -1.24884184481702e-05 0)
(-0.0311010906990918 -1.63514419694366e-05 0)
(-0.030770633227701 -2.00418985985929e-05 0)
(-0.0304174358820942 -2.35216488886397e-05 0)
(-0.0300524070753274 -2.67424564019442e-05 0)
(-0.0296871782145171 -2.96908914176636e-05 0)
(-0.0293337811207997 -3.23158869541786e-05 0)
(-0.0290037912527677 -3.46530068169178e-05 -5.45008393627962e-21)
(-0.028700565325577 -3.67288463436114e-05 5.45274187895428e-21)
(-0.0284053288780307 -3.98111578010105e-05 8.14848972011147e-16)
(-0.0281449644493776 -4.05759093506118e-05 1.65599058746586e-15)
(-0.027688169796579 -4.70090154377501e-05 8.41237033642643e-16)
(-0.0262211170128906 -0.000238760644600757 1.90006064412278e-19)
(-0.0245740064929369 -0.000972271963442691 0)
(-0.0238726640780919 -0.00174232251557003 -1.56858004788427e-18)
(-0.023410262669466 -0.00249142831802483 0)
(-0.0230340186051917 -0.00321489676017145 8.24081682728517e-16)
(-0.0226383443592859 -0.00390071592564427 8.13747936594295e-16)
(-0.0221641278480447 -0.0045327269915049 -6.46825727762927e-18)
(-0.0215758286400358 -0.0050944856916336 -1.27402123571843e-20)
(-0.0208457592036944 -0.00556703546318144 1.25613064250397e-20)
(-0.0199540582685109 -0.00593172607676297 1.27589092325663e-20)
(-0.0188851328243895 -0.0061690572991873 -1.25386995780909e-20)
(-0.017646997675858 -0.00626409543183436 0)
(-0.0162335463319755 -0.00617486391139558 0)
(-0.014590172453203 -0.00585875817411764 -6.40631225782526e-18)
(-0.012670802815024 -0.0053003637255322 6.38475715353884e-18)
(-0.0104569881066265 -0.00449813797746321 -1.07760707566579e-20)
(-0.00795072490817498 -0.00346263893212368 6.12557702361549e-21)
(-0.00515903888345951 -0.00221227221950073 0)
(-0.00211490259828849 -0.000780927204001222 -1.24717455351211e-17)
(0.00115432719509107 0.000793508772228025 -5.99498108248416e-21)
(0.0045250839695522 0.00243452812125307 0)
(0.00790899946883113 0.00409969009331613 1.18955143094147e-17)
(0.0113140611089672 0.00580357101608499 3.31195249724912e-15)
(0.014740258677664 0.00755641948499876 3.20350673564814e-15)
(0.0182151643066673 0.00938097121046554 -2.66345136618633e-21)
(0.0217770443399756 0.0113064758687685 -4.39567100492776e-22)
(0.0254976862132993 0.0133783115550965 1.01231026988362e-17)
(0.0294770433526158 0.0156586377521652 5.05077795154905e-21)
(0.0339908080060208 0.0182918769885935 5.44894653333301e-22)
(0.0395270524709187 0.0214100476601248 8.46990369444313e-18)
(0.0460122113571085 0.0247662777986497 7.79699762879903e-18)
(0.0532423269463051 0.028097119379517 -4.09059719214717e-22)
(0.061251730847166 0.0312252071862199 6.2037117238084e-18)
(0.0701308812259835 0.0339480842140098 5.25532207654039e-18)
(0.0797888463430619 0.0359040376322683 5.74586288348735e-22)
(0.0900178121976159 0.0365535996275831 3.01931616296697e-22)
(0.0995407793583188 0.0350236992278505 9.14027701252867e-19)
(0.10572300691774 0.0303062253164632 0)
(0.102092005548921 0.021868877934004 2.74557848890789e-19)
(0.0891726135410144 0.013181209466563 -4.72045354422151e-23)
(0.0732984277604055 0.00676817617957329 2.28209515630771e-22)
(0.0593060737707263 0.00285918348842952 -7.53335615598782e-20)
(0.0457407897986236 0.000635330878893639 0)
(0.0366805165906382 8.01037846413549e-06 0)
(0.0361379500360068 -3.15494786231422e-05 0)
(0.120187188592843 -0.000237877597466648 -1.62398509739043e-24)
(0.12642894079094 -0.000414403711609429 1.61434299145016e-24)
(0.135773617290539 -0.00175084875213861 4.16518870142348e-21)
(0.129182059196431 -0.00527469019153183 -1.09188573035172e-20)
(0.102192138995643 -0.00805789807262971 6.16585657497133e-20)
(0.0618059005607067 -0.00761893927708453 0)
(0.0165264341740532 -0.0022165887822234 -9.17411761413397e-19)
(-0.0169558898688363 0.00593637100800853 3.34996668822234e-22)
(-0.0295634279326156 0.0112268391066384 -3.33995880676125e-22)
(-0.0302789276964643 0.0130497512126039 0)
(-0.028714304560519 0.0136442395751722 4.362304467696e-22)
(-0.0260332159509 0.0132654380361004 -6.74127032094571e-22)
(-0.0234307726925754 0.0125550439587306 2.36012719681634e-22)
(-0.0212796491036036 0.0117964314211615 -4.15954066495878e-18)
(-0.0196985630555566 0.0111226429839268 4.37532502131466e-18)
(-0.0185293939987976 0.0104980297217693 4.59518248562656e-18)
(-0.0177273518557898 0.0099401860706172 -4.81882423608896e-18)
(-0.0172897164635046 0.00954475089123828 -5.04104744849984e-18)
(-0.0170837412136842 0.00928822908900283 1.05128582765203e-17)
(-0.0169606759278453 0.00909300200157857 0)
(-0.0169130460160671 0.00895744694895757 -5.66864695616762e-18)
(-0.0169507171087648 0.00888731785551016 -2.87711508595449e-21)
(-0.0171141170437964 0.00890398571320797 6.06159571272622e-18)
(-0.0174500410708243 0.00903064644720233 2.55352703750886e-23)
(-0.0179954730616221 0.00928308136402566 -6.42075250564978e-18)
(-0.0187015132099467 0.00962111744420005 3.69958166392657e-21)
(-0.0195477329501321 0.00998471239822388 1.93518751551601e-15)
(-0.0205912586528879 0.0103741403518752 1.98746286935014e-15)
(-0.0218407805465726 0.0107743029841096 0)
(-0.0232778374835638 0.0111535311463081 0)
(-0.0248679336324396 0.0114695305008069 -3.74398619493369e-18)
(-0.0265663217392306 0.0116743844167038 7.52361833724718e-21)
(-0.0283247195922423 0.0117208331912872 -3.94025635910214e-18)
(-0.0301706827954903 0.0116016089589553 0)
(-0.032200177636852 0.0113639981957806 -4.10537079755971e-18)
(-0.0343786014422166 0.0110148079949407 4.17836356120937e-18)
(-0.036595134041241 0.0105106033357125 8.31114639240449e-21)
(-0.0387882295667989 0.00983120941086189 4.35029011664568e-18)
(-0.0408990603617518 0.00896521390117297 -5.58539055834174e-16)
(-0.0428878430026606 0.00791372675774532 -5.65234814235072e-16)
(-0.0447533066146766 0.00669240809911375 4.50971049022137e-18)
(-0.0465771216021762 0.00532814453757984 -2.28051883850464e-18)
(-0.0483993891896772 0.00382955362730259 -1.15700394108463e-18)
(-0.050721909627871 0.00229645964329562 4.44671908494208e-21)
(-0.0560321392266549 0.00100694519881638 -2.84458349366314e-23)
(-0.0632763210194797 0.000593746129623135 4.37601539278724e-21)
(-0.0686694612427763 0.000459090420421596 6.65292513315624e-16)
(-0.0728987823739692 0.000361669016998091 6.66253221832907e-16)
(-0.0762316768555119 0.000291722150397144 -4.52379812020355e-21)
(-0.0789115594094844 0.000237360885231801 4.49947200504383e-21)
(-0.0810613799397452 0.000194260392987149 -1.34223203398144e-31)
(-0.0827839432352345 0.000158689610944876 2.37167051657849e-21)
(-0.0841434248569785 0.000128566169898946 6.9382745378792e-16)
(-0.0851899008915731 0.000102371408227887 7.05665333933873e-16)
(-0.0859591429940751 7.91312617093249e-05 -2.46170490329621e-21)
(-0.0864790617932682 5.81399543188735e-05 0)
(-0.086771356004806 3.89092288830571e-05 1.51375670520227e-31)
(-0.0868541309340291 2.11087373510457e-05 6.72753177840758e-22)
(-0.0867433952900188 4.55705663226913e-06 -3.28496770412504e-22)
(-0.0864536840587678 -1.08165108828379e-05 -3.43996366626497e-22)
(-0.0859995738367949 -2.49969828477681e-05 0)
(-0.0853961743575117 -3.79194812931262e-05 0)
(-0.0846596474255817 -4.94676913519605e-05 0)
(-0.0838077460405021 -5.94680692929523e-05 0)
(-0.0828602053827603 -6.77102477820465e-05 3.15519426155243e-21)
(-0.0818389136839675 -7.39542191648972e-05 -3.16094803278368e-21)
(-0.0807679199816529 -7.79545158570974e-05 0)
(-0.0796731978537431 -7.94545919284037e-05 0)
(-0.0785813911481966 -7.8357470525129e-05 0)
(-0.0775181576663331 -7.46426503462186e-05 0)
(-0.0765033415159846 -6.91579053122633e-05 0)
(-0.0755346868077026 -6.35522469812652e-05 0)
(-0.0745728807003108 -6.39670384139238e-05 -1.0725499586162e-15)
(-0.0735471526845746 -7.62668984417469e-05 -2.19361568393142e-15)
(-0.0718396672598517 -0.000175769873432404 -1.12195381491988e-15)
(-0.0683617514849229 -0.000838442692517377 -2.52372391678403e-19)
(-0.06478294411628 -0.0028182405373616 0)
(-0.0629850998802643 -0.00486944788608165 1.29375214128199e-22)
(-0.0616139108471763 -0.00690456279480893 -4.28033985356166e-18)
(-0.0603489912651922 -0.0088681653002716 -1.10260043656148e-15)
(-0.0589614284778377 -0.010718910573624 -1.11862326797895e-15)
(-0.0573224439649154 -0.0124067691105891 -1.84988667294027e-20)
(-0.0553544403583849 -0.0138848247365064 0)
(-0.0529981832124771 -0.0151009743975707 8.91681290379317e-18)
(-0.0502129564673281 -0.0160051864860404 -8.96684595630315e-18)
(-0.0469719651055702 -0.0165456246478136 -9.01352760200247e-18)
(-0.0432830484980504 -0.0166762237806833 0)
(-0.0391215504287387 -0.016286246515966 0)
(-0.0343814892663633 -0.0152760746629995 9.14269111208778e-18)
(-0.0289794937032868 -0.013615453804026 -1.77623258164145e-20)
(-0.02288631468098 -0.0113066154843335 -1.84216068847907e-17)
(-0.0161123889499758 -0.00838175942700488 -9.26464713277235e-18)
(-0.00867788207608291 -0.00489328900399006 1.81434809675838e-20)
(-0.000657174867709332 -0.000931026167876599 -9.00190309759387e-21)
(0.00788480887593715 0.00340666574149158 0)
(0.0166711985662407 0.00793129334556712 0)
(0.0255202675828317 0.0125403727121847 -1.73362382081264e-17)
(0.0344438647514203 0.017270262356923 -4.77597581447179e-15)
(0.043444980943297 0.0221497868937511 -4.65949332145491e-15)
(0.052585159269712 0.0272375917806912 -1.57227655806744e-17)
(0.0619527569440857 0.0326104432722894 -1.51026320387094e-17)
(0.0717128795441489 0.0383850020231706 -1.44148366249386e-17)
(0.0821027814991324 0.0447192455229618 1.68003330613595e-20)
(0.093739503432124 0.0519596180260782 0)
(0.107700690138185 0.0604046066562895 -2.38105213499775e-17)
(0.123989167399534 0.069453799536989 1.08665082692712e-17)
(0.142274667246933 0.0784314850877563 -9.74532345748775e-18)
(0.16259623111538 0.086827431504779 0)
(0.185174381049811 0.0940796182670116 -7.21011923843611e-18)
(0.209858297739584 0.0992360884963572 0)
(0.23625135732445 0.100898108253064 0)
(0.261740009201817 0.0969310345357174 -1.52733016116585e-20)
(0.280819459752086 0.0849141076606999 0)
(0.279529044158505 0.0633239151327197 -3.67284288271364e-19)
(0.255618927085287 0.0400661616858799 -3.79301107801604e-19)
(0.219833580453429 0.021808683335759 2.24028250080135e-19)
(0.184472792679216 0.0100485378166235 2.07801756239019e-19)
(0.14892556258045 0.00302256211851755 2.15653327232874e-20)
(0.123408514922633 0.000481667485362466 -7.95745795748619e-24)
(0.117720031182434 -7.94247314214734e-05 8.0478122192746e-24)
(0.21039961682745 -0.000487320785105265 0)
(0.217373185092106 -0.000956260903729018 0)
(0.228725829327171 -0.00297990782610329 -3.9556561061386e-21)
(0.220477248443046 -0.00826335298600882 2.10086402886283e-20)
(0.18380158369384 -0.013070468225645 -5.81373568547617e-20)
(0.123096501196206 -0.0134725915049697 0)
(0.049064101661278 -0.00619025956502246 0)
(-0.01238673188496 0.00666232010005688 0)
(-0.0404226797301608 0.0160191118484187 1.5008759978717e-18)
(-0.045321334324629 0.0196167138254549 0)
(-0.0441428761552044 0.0208786851123272 -4.4505618999936e-22)
(-0.0406426511557188 0.0205547677547929 3.78974299373974e-18)
(-0.0370161042363957 0.0196796474218624 2.49302479470325e-22)
(-0.033931906959301 0.0186777395461658 -4.2476101038145e-18)
(-0.0316231093254697 0.0177489798481309 4.47195237601774e-18)
(-0.0299119526464484 0.0168630329095506 1.47299355477574e-22)
(-0.0287539231186246 0.0160623193350414 1.79120605305069e-21)
(-0.0281390381070244 0.0154936105833335 5.15649056776456e-18)
(-0.0278748350462306 0.0151254447645662 -5.37083946404467e-18)
(-0.0277483997758649 0.0148525587429477 -5.57729859921873e-18)
(-0.0277468125468303 0.0146772858986989 -5.77857359624548e-18)
(-0.0278896507192435 0.0146131164812895 -2.92999835758567e-21)
(-0.0282397421556239 0.014694897902399 2.9924309739476e-21)
(-0.0288673440035119 0.0149571975706011 -6.32873520783272e-18)
(-0.0298201337204946 0.015416659627288 6.49448757374622e-18)
(-0.0310325746918204 0.0160119609397931 6.65663595718407e-18)
(-0.0324823298061803 0.0166538309747816 0)
(-0.0342475990018104 0.0173347646754981 3.48447172150841e-18)
(-0.036339530559726 0.0180249780081346 0)
(-0.0387280883574129 0.0186704877763953 -7.13047261967354e-21)
(-0.0413599748943153 0.0192021583336001 7.22685864721924e-21)
(-0.0441693996331817 0.0195447987133189 -7.42545197192442e-21)
(-0.0470983558504489 0.019631848848782 3.86021825068541e-18)
(-0.050190048669087 0.019453762653434 3.93589886968502e-18)
(-0.0535530432770165 0.0190674245886821 3.98111228259254e-18)
(-0.0571231113052191 0.0184764089716405 -8.07399926602149e-18)
(-0.0607432501446432 0.0176198579915504 0)
(-0.0643211919985838 0.0164701437388588 -4.12773966755032e-18)
(-0.0677770171996899 0.015014317586984 0)
(-0.0710660791641362 0.0132598933437928 2.10512742082704e-18)
(-0.0742059896199624 0.0112361314029312 -2.12599713773928e-18)
(-0.0773224181636067 0.0089904677743705 2.13311547072997e-18)
(-0.0806258718578429 0.00657846949411257 2.10726619943286e-18)
(-0.0850524551597916 0.00418245368389662 0)
(-0.0929282641946789 0.00219597859168361 0)
(-0.102587970757629 0.00148046272691808 0)
(-0.109747826001211 0.0011401457337364 0)
(-0.115285353777151 0.00089287168185023 -3.95662067976188e-21)
(-0.119578375274032 0.000712887854847267 3.91350648138993e-21)
(-0.122957488701767 0.000573255257427173 0)
(-0.125596576229008 0.000461726078512793 -4.07294775079211e-21)
(-0.127635596584114 0.000369340567959702 4.044760537232e-21)
(-0.129164138794937 0.000290684165369667 2.09878726591969e-21)
(-0.130251608983979 0.000222044001272448 -2.08819005518657e-21)
(-0.130948420587763 0.00016094617405962 2.17490790530792e-21)
(-0.131294170087232 0.000105623838282876 -4.38463546992567e-21)
(-0.131320216996228 5.48757084568721e-05 2.21109997468247e-21)
(-0.131053154747104 8.04027034266858e-06 0)
(-0.130517456237933 -3.52075789690902e-05 0)
(-0.129736675895246 -7.50450913402454e-05 0)
(-0.128733417724142 -0.000111456470297164 -6.13920793357855e-22)
(-0.127530702591916 -0.000144263389800104 6.13497790489589e-22)
(-0.126152776327213 -0.000173161105538367 0)
(-0.124625666103462 -0.000197726229661751 2.62191819496094e-21)
(-0.122977503202283 -0.000217469795992832 -5.30597549660425e-21)
(-0.121238520736932 -0.00023186909621531 2.68548401316238e-21)
(-0.119440741997925 -0.00024044146237072 -2.80386635485025e-21)
(-0.117617145663964 -0.000242787681046079 2.81061627371829e-21)
(-0.115799497129404 -0.00023898625501239 0)
(-0.11401495701902 -0.000229706634970957 -5.99082567700567e-21)
(-0.112277933780793 -0.000217835461854927 6.00527952991562e-21)
(-0.110570743752921 -0.000208971236919223 -6.24529494674738e-21)
(-0.108817958395418 -0.000223521058325173 -1.14851877511042e-22)
(-0.10683638246444 -0.000290396714711116 6.36890934194076e-21)
(-0.103929308518788 -0.000539379232340717 0)
(-0.0993402017429142 -0.001611340672513 -2.13337309364938e-19)
(-0.0949047956166841 -0.00442660065508114 0)
(-0.0922469148442795 -0.007354880744923 1.81775617887071e-18)
(-0.0899545651789038 -0.0102891767860163 3.64376089660382e-18)
(-0.087671926938204 -0.0131010899842899 0)
(-0.0851316153969017 -0.0157201637252758 3.73986775599433e-18)
(-0.0821839398370848 -0.0180671308521773 1.50070331894204e-17)
(-0.0787373697552978 -0.0200730999489109 -1.46409156837952e-20)
(-0.0747233921956914 -0.0216638032648477 -7.61723928014561e-18)
(-0.0700948540809103 -0.022769707445555 7.66740686958341e-18)
(-0.0648215055157504 -0.0233183838716139 -2.24121242927456e-21)
(-0.0588963576956408 -0.0232386683091103 7.7468765920708e-18)
(-0.0522696754011999 -0.0223789616855904 1.51375745722335e-20)
(-0.0448232652829893 -0.0206202647830886 -7.87125701676327e-18)
(-0.0364723209127053 -0.0179373785366344 0)
(-0.0271881455611574 -0.0143440188169015 7.99820161655756e-18)
(-0.0169865901505805 -0.0098917150593912 8.0662160645682e-18)
(-0.00589267967547525 -0.00465871771122685 -1.0045805453864e-22)
(0.00600100578222497 0.0012334630102999 8.1094121084828e-18)
(0.018609894651248 0.00765070498253658 -7.75505346720894e-21)
(0.0315880489478126 0.0143579098892073 7.52951142221673e-21)
(0.0447185456579721 0.0212298110625003 0)
(0.0580095197180813 0.0283138391011804 0)
(0.0714688513687254 0.0356524419931999 -1.43305414162623e-17)
(0.0851761279196331 0.043324319716425 1.38907636403288e-17)
(0.0992488174265925 0.051434458574293 3.24892784147861e-21)
(0.113905300699583 0.0601371905293367 9.12159555913289e-21)
(0.129467884084687 0.0696386353375942 2.44282629163364e-17)
(0.146729075873753 0.0803566898954453 -1.1474024945824e-17)
(0.167063589408345 0.0926026379687152 2.33299274063753e-20)
(0.190644551018478 0.10560489590909 -9.73663080253422e-18)
(0.217165982826379 0.118458872289456 2.97628022101828e-20)
(0.246639278139154 0.130394456158212 -7.57727765969877e-18)
(0.279322877793035 0.14056187108984 6.35692252740884e-18)
(0.315029275362055 0.147620397161569 0)
(0.353277688455651 0.149626222537935 -1.80669344231071e-18)
(0.390980321489404 0.14385166909854 -1.07351813739623e-18)
(0.421719936428157 0.12731294520515 0)
(0.428680837022919 0.0979721549253826 0)
(0.405891445724715 0.0651519187472527 6.09873150169949e-21)
(0.362597228644549 0.0376993588474911 -2.009107826711e-19)
(0.31433021081187 0.0187521427921116 -9.38802273545754e-20)
(0.263095910370115 0.00671262499306267 -1.99316854640923e-20)
(0.223844832953199 0.00165272334344234 7.68550549814982e-23)
(0.210293523379217 0.000101673663654423 -1.5181820703745e-23)
(0.305158905312857 -0.000614735605349467 0)
(0.310202921174472 -0.00153289193659448 1.23253637806156e-23)
(0.320802645347512 -0.00418639789056168 -7.10406111295165e-25)
(0.311932828637085 -0.0109110119529938 -9.49205457493576e-21)
(0.271232954921211 -0.0176705192894608 0)
(0.197242012149553 -0.0196296397533354 0)
(0.0983354500790922 -0.0118958551200697 0)
(0.00632514576741252 0.00472037183561324 0)
(-0.043144208963387 0.0185442574176547 -1.50918772641549e-18)
(-0.0557593535566698 0.0243592753129739 1.67195413688944e-18)
(-0.0563904060298926 0.0265282195830264 1.80395482157502e-18)
(-0.0529311141168325 0.0265221321328771 -3.85051127993227e-18)
(-0.0488907509720834 0.0257433397400852 0)
(-0.0453001257037403 0.0247182829522409 4.32637983234238e-18)
(-0.0425443731618525 0.0237000259816437 -4.55962600248346e-18)
(-0.040491082207814 0.022684553375347 4.79105391994791e-18)
(-0.0391229991967137 0.0217484687438155 1.517043493633e-21)
(-0.0384265099444277 0.0210826624219629 6.36364513167964e-22)
(-0.0381714643291401 0.0206550405547266 0)
(-0.0381052041079286 0.0203497019472558 5.66782655388523e-18)
(-0.0382109449706408 0.0201776092558825 1.17256687300566e-17)
(-0.0385196175210934 0.0201626686916889 0)
(-0.0391127375523954 0.0203521823302164 0)
(-0.0400775572325881 0.0207882002082939 3.19146592377709e-18)
(-0.0414650468791893 0.0214825821718867 0)
(-0.0432023233877027 0.0223573025248224 0)
(-0.0452706203286779 0.023299530717403 0)
(-0.0477579536322928 0.0242884205112186 -6.91467877956464e-18)
(-0.0506741505535932 0.025276048148566 -3.51360940312672e-18)
(-0.0539772429031897 0.0261854409077528 0)
(-0.0575976690166065 0.0269224827468569 0)
(-0.0614550226518579 0.0273898200099355 3.65731862980997e-18)
(-0.0654896112806353 0.0275084880729527 -3.69561204336797e-18)
(-0.0697481679214716 0.0272638091592942 -3.72466638816243e-18)
(-0.0743213984258937 0.0267099220034155 0)
(-0.0791127524902977 0.025846826033196 3.75064974681347e-18)
(-0.0839360529463358 0.0246061965735219 7.35541769033682e-21)
(-0.0886791337119349 0.0229606614553559 -5.83075042457236e-21)
(-0.0932562221353188 0.0209032019409571 0)
(-0.0976329806865504 0.0184538878689336 -1.85505801312572e-18)
(-0.101856022121431 0.0156601884030009 -7.21045917242333e-21)
(-0.106105337361474 0.0126003706550265 0)
(-0.110730072223882 0.00938646288736545 -1.8274667970357e-18)
(-0.116721323290907 0.00624133769261031 6.9419643373944e-21)
(-0.125704054390851 0.00362508846599934 0)
(-0.135733846162295 0.00257744929755438 3.27775426344304e-21)
(-0.142999008018429 0.00196774463401417 -3.19113476001811e-21)
(-0.148476438442962 0.00152536057098695 0)
(-0.152582153710883 0.00120043061379029 0)
(-0.155678013824045 0.000948143704283095 0)
(-0.157958106120508 0.000745485957110476 -3.21675136093692e-21)
(-0.15957526811235 0.000577006951436485 -6.27019515090927e-16)
(-0.160629312013923 0.000433012964530376 -6.34500025286197e-16)
(-0.161197448155758 0.000307047102149053 0)
(-0.16133665951465 0.000194712547932394 0)
(-0.161091966068732 9.29482752563002e-05 1.69143675383979e-21)
(-0.160499447613244 -5.92526740805728e-08 -1.67571833219924e-21)
(-0.159593445151884 -8.53158195247419e-05 8.69231496033532e-22)
(-0.15840457597818 -0.000163530547083603 -8.62205467572761e-22)
(-0.156960290135 -0.000235054604485719 0)
(-0.155287389262484 -0.000299869808113035 0)
(-0.153412908490315 -0.000357691626981999 0)
(-0.151364757426494 -0.000408032893410381 0)
(-0.149172127027383 -0.00045024407239488 0)
(-0.146865581934512 -0.000483613300198973 0)
(-0.14447676180289 -0.000507442971143114 0)
(-0.142037639397728 -0.000521204987714044 0)
(-0.139579094050967 -0.000524681383376663 8.12151739263791e-16)
(-0.137127907712754 -0.000518651850451034 8.26237859256051e-16)
(-0.134702331024533 -0.000505317440236999 0)
(-0.132302550326856 -0.000490942495376396 0)
(-0.129892320733004 -0.000487190854437687 4.5155845504687e-21)
(-0.12737238549312 -0.000531313863525349 -4.50642059143945e-21)
(-0.124554194978391 -0.000672983029265054 0)
(-0.120903168389655 -0.00105767253971914 0)
(-0.116034239403839 -0.0023538646884943 1.52088307969375e-19)
(-0.111506448670952 -0.0055527532593743 6.31645709437051e-19)
(-0.108227022266436 -0.00891067850958324 -1.29240089594721e-18)
(-0.105097997110112 -0.0122972539279404 -2.61276993284276e-18)
(-0.101836080946364 -0.015515414577116 0)
(-0.0982051201614583 -0.0184746876821845 2.63471189570404e-18)
(-0.0940740841925124 -0.0210775562028844 -1.08870724269135e-20)
(-0.0893588400303751 -0.0232449234542855 1.02459061100552e-20)
(-0.0839960092642287 -0.0248930701443795 -5.29549388984518e-18)
(-0.0779381787973521 -0.0259446204477224 -5.29795046652927e-18)
(-0.071150873471152 -0.0263172912493637 5.32630812692663e-18)
(-0.0636051039599173 -0.0259260471450164 -5.36717281776464e-18)
(-0.0552299059493274 -0.02460545846454 1.03951367683021e-20)
(-0.0459201464714699 -0.0222411368177383 1.07725738419544e-17)
(-0.0356062863379529 -0.0188194501014347 0)
(-0.0242606089366474 -0.0143633130344486 -1.07185065750418e-20)
(-0.0118954744015859 -0.00893433469379967 1.06474381541022e-20)
(0.00147166162914906 -0.00262028597522045 5.40204687294431e-21)
(0.0157568220125071 0.00444997589474773 -1.08906814036795e-17)
(0.0308788653595077 0.0121336813226226 -4.33166647211188e-23)
(0.0465072014054847 0.0202067509657917 1.035818169135e-20)
(0.0624342898550925 0.0285507436474979 -5.117447305643e-21)
(0.078665875957938 0.0372179742292798 0)
(0.0952154464861309 0.0462596154000164 2.04801964789328e-17)
(0.112168110233114 0.0557627448166238 0)
(0.129651256349942 0.0658445664284112 -2.38770800341803e-21)
(0.14789707934667 0.0766691380495565 9.57463079495017e-18)
(0.167254510496958 0.0884482048148141 -1.44543137393969e-20)
(0.18852630748019 0.101563041727545 1.73773623766709e-20)
(0.213130114465185 0.116226145073961 8.18495377483954e-18)
(0.241432184286194 0.131609649832719 3.46217107102724e-22)
(0.273231503945752 0.146717733413808 6.7791223765413e-18)
(0.308532881208343 0.160619501146778 5.93865429432164e-18)
(0.347562072366697 0.172252874125734 -4.99980702817976e-18)
(0.390099318958232 0.180046821996233 1.97297528472917e-18)
(0.43564356516375 0.181767283921773 7.12776967528733e-21)
(0.481236587196978 0.174575335142754 1.36559300354096e-22)
(0.520981063346685 0.155588997630435 -1.39603383907332e-22)
(0.538876790271283 0.122864691350185 0)
(0.526008355245786 0.0853824330404639 5.47358243726975e-19)
(0.48734377455691 0.0523217676291991 -1.6456215634505e-19)
(0.437141506470618 0.0279417378892374 -7.03993523307742e-23)
(0.379180940302322 0.0113525061254032 7.37098144943917e-23)
(0.331253769389877 0.00356721100231886 0)
(0.309680660716773 0.000689641195838174 0)
(0.394420798043268 -0.00045276686327188 0)
(0.395570451141115 -0.00195179593762821 0)
(0.40353512389875 -0.00521857998631677 1.00134065403365e-23)
(0.395069712084325 -0.0130835054365193 -1.00586828536268e-23)
(0.35573532602729 -0.0215020913078694 4.60013853257591e-20)
(0.277572816415929 -0.0254203129181787 -1.92716080716119e-19)
(0.161798941808383 -0.0186545406723635 3.42890177728217e-22)
(0.0405670286091156 0.000229601123665606 -2.35148730241062e-22)
(-0.0358057463740049 0.0186212893951879 -1.46394950315376e-18)
(-0.0605150868289308 0.0271142584427938 -1.65846846957803e-18)
(-0.0648417735768927 0.0304675857933035 -1.80738975106806e-18)
(-0.0624679601082787 0.0310674387206779 1.92281335438285e-18)
(-0.0587311380623188 0.0306642480029945 -4.09986225080169e-18)
(-0.0551338727182587 0.0298488055673365 -4.35166731213677e-18)
(-0.0522630252892638 0.0289170355545195 4.59820988699759e-18)
(-0.0500988176171109 0.0279103780899572 -2.44527686898381e-21)
(-0.0486835121009914 0.0269480365773688 5.0854255247e-18)
(-0.0480117518444676 0.0262620099233896 1.30218891835505e-21)
(-0.047840240646379 0.0258286064850517 -1.33446293256357e-21)
(-0.0478997369354537 0.0255360873049928 -5.69452243483226e-18)
(-0.0481725532439198 0.0254084768036295 -5.88200688586153e-18)
(-0.0487015117020621 0.0254818974235871 -6.04601020454659e-18)
(-0.04958215060149 0.0258142598417293 3.09785151680945e-18)
(-0.0509114933709423 0.0264507711971892 3.1709687214611e-18)
(-0.0527383935913442 0.0273949126890838 -6.29723927491559e-21)
(-0.0549889179539666 0.0285554423521344 3.18374225415826e-21)
(-0.0576488247369173 0.0297986201495786 0)