2 	0.475703205083347 	0 	-0.0218086090128171 	0.0115022974287024 	-2.35614417547802e-18
2 	0.491332208666361 	-3.46944695195361e-18 	-0.0552695335434217 	0.0305429459913317 	4.78108175234989e-18
2 	0.507455078295235 	-6.93889390390723e-18 	-0.0743995892463589 	0.0409118264147646 	3.6984700764144e-20
2 	0.524087416970984 	-2.08166817117217e-17 	-0.0798536782465928 	0.0437234242117402 	-8.79804455168061e-19
2 	0.541245320476645 	-2.77555756156289e-17 	-0.0795900855906095 	0.0436373328451734 	-8.27705606043838e-21
2 	0.558945392930354 	-2.08166817117217e-17 	-0.0770149538536597 	0.0425080876763328 	-1.09314795050141e-23
2 	0.577204762828731 	-1.04083408558608e-17 	-0.0729360504566603 	0.0408424200949841 	1.71550277775832e-18
2 	0.596041099596002 	0 	-0.0672618390935166 	0.0387293456049258 	1.90211793559241e-16
2 	0.615472630654767 	0 	-0.0594008448976595 	0.0360834588271494 	-2.78905564820132e-16
2 	0.635518159034815 	0 	-0.0484404330836586 	0.0327616212086727 	-2.57890730792023e-18
2 	0.656197081536942 	6.93889390390723e-18 	-0.0332790577571934 	0.0287143991341414 	2.36431096990423e-19
2 	0.6775294074692 	6.93889390390723e-18 	-0.012579245880019 	0.0239010880195995 	-4.57040448550714e-19
2 	0.699535777973593 	6.93889390390723e-18 	0.0158939797781316 	0.0179785934576327 	2.2034598738797e-19
2 	0.722237485961785 	1.04083408558608e-17 	0.0553642562382241 	0.0103775648399538 	2.18428823222538e-19
2 	0.745656496678988 	1.04083408558608e-17 	0.107891461993075 	0.000826815036346474 	-5.6079398576553e-19
2 	0.769815468915766 	1.38777878078145e-17 	0.172631049993488 	-0.0101979856369291 	-1.80393275660858e-19
2 	0.79473777688813 	1.38777878078145e-17 	0.246632819149614 	-0.0216721281973066 	3.17310080650297e-19
2 	0.820447532806956 	6.93889390390723e-18 	0.325700889723899 	-0.0324994326410593 	1.70512822147835e-19
2 	0.846969610158369 	1.04083408558608e-17 	0.405256213516596 	-0.0418672738823745 	-1.69135010729713e-21
2 	0.874329667717482 	6.93889390390723e-18 	0.481721153861639 	-0.0494158032166222 	1.1975652586544e-19
2 	0.902554174318506 	0 	0.552547621029564 	-0.0550687416182765 	-2.2686092895836e-19
2 	0.931670434405035 	6.93889390390723e-18 	0.615498532513741 	-0.0590131479220047 	2.127684909779e-19
2 	0.961706614385029 	1.04083408558608e-17 	0.669006810431596 	-0.0614347684837958 	-9.88302442050116e-20
2 	0.992691769815773 	6.93889390390723e-18 	0.712490844310585 	-0.0626546051580169 	1.80062798188618e-21
2 	1.02465587344493 	6.93889390390723e-18 	0.746481333837825 	-0.0630936655210264 	8.5718890386725e-20
2 	1.05762984413455 	0 	0.772523354170184 	-0.0631684407284671 	-8.33138974394466e-20
2 	1.09164557669585 	-1.04083408558608e-17 	0.792622855436571 	-0.0632212918471038 	-2.83384804176765e-21
2 	1.12673597266335 	-1.73472347597681e-17 	0.808807576466931 	-0.063451556906761 	-6.29872165581942e-20
2 	1.16293497203787 	-2.42861286636753e-17 	0.822816818907841 	-0.0638818595896584 	6.06469469324998e-20
2 	1.20027758602891 	-2.08166817117217e-17 	0.835865659887977 	-0.0644512824181843 	-5.50313080267088e-20
2 	1.23879993082778 	-1.73472347597681e-17 	0.84863081134502 	-0.0650672650127124 	1.91130940961549e-19
2 	1.27853926244386 	-2.77555756156289e-17 	0.861362172278602 	-0.0656370615567817 	1.84440740111066e-17
2 	1.31953401263748 	-3.46944695195361e-17 	0.874052681202943 	-0.0660997150730895 	-5.92451828057437e-17
2 	1.36182382598375 	-3.81639164714898e-17 	0.886609623473044 	-0.0664372710863343 	-4.5156336242216e-19
2 	1.40544959810313 	-4.16333634234434e-17 	0.898968049322455 	-0.0666642609233499 	-8.61026818292792e-24
2 	1.45045351509516 	-4.5102810375397e-17 	0.911120779102575 	-0.0668078667103778 	-8.06366499453127e-24
2 	1.49687909421333 	-4.5102810375397e-17 	0.923081040239854 	-0.0668889942963347 	-8.95859696485602e-22
2 	1.54477122582011 	-3.81639164714898e-17 	0.934822085444115 	-0.0669133908309679 	-8.31213856148945e-22
2 	1.59417621666236 	-3.46944695195361e-17 	0.94623722825371 	-0.0668721437746485 	4.01804328526417e-22
2 	1.6451418345086 	-3.46944695195361e-17 	0.957134244117841 	-0.0667485246333046 	7.48568948554303e-22
2 	1.69771735419109 	-3.46944695195361e-17 	0.967273384053417 	-0.0665317719607735 	5.27372457171531e-20
2 	1.75195360509682 	-3.81639164714898e-17 	0.97648403837485 	-0.0662160602343632 	-5.42305936334731e-20
2 	1.80790302015302 	-4.5102810375397e-17 	0.984653856201571 	-0.0658007056315416 	4.06667454766518e-23
2 	1.86561968635427 	-4.85722573273506e-17 	0.99153892327796 	-0.0652713526816057 	4.09628928744798e-22
2 	1.92515939687956 	-4.5102810375397e-17 	0.996736746535915 	-0.0646170495731898 	-5.95366052870435e-22
2 	1.98657970484963 	-4.16333634234434e-17 	0.999922096955054 	-0.0638430913215839 	7.17361357227309e-23
2 	2.04993997877596 	-4.16333634234434e-17 	1.00117842499194 	-0.0629797456828262 	6.9813922666257e-22
2 	2.11530145975479 	-4.16333634234434e-17 	1.00108868084789 	-0.0620595860770742 	-3.7761904133482e-20
2 	2.18272732046126 	-4.16333634234434e-17 	1.00040361230701 	-0.0610975135616536 	7.86682654631549e-20
2 	2.2522827260001 	-4.16333634234434e-17 	0.99962969107242 	-0.0600968050970441 	-4.02298461123429e-20
2 	2.3240348966717 	-4.5102810375397e-17 	0.998926610862737 	-0.0590635729270383 	-4.49616131263717e-20
2 	2.39805317271374 	-5.20417042793042e-17 	0.998270345680582 	-0.0580089458973018 	4.29439800505989e-20
2 	2.47440908108066 	-5.89805981832114e-17 	0.997622265366902 	-0.0569412338603477 	6.07397051188202e-23
2 	2.55317640432547 	-6.24500451351651e-17 	0.996972208595713 	-0.0558623626978306 	3.12650867754395e-22
2 	2.63443125164993 	-6.24500451351651e-17 	0.996319223326452 	-0.0547728255392986 	-2.43729961099171e-22
2 	2.71825213219187 	-5.89805981832114e-17 	0.995669276840241 	-0.053673924404727 	-1.44967390427736e-22
2 	2.80472003061997 	-5.89805981832114e-17 	0.995030618214497 	-0.0525661927440477 	-1.35022153253095e-22
2 	2.89391848510918 	-7.28583859910259e-17 	0.994391661268202 	-0.0514486734597494 	-3.25844179959745e-19
2 	2.98593366777187 	-8.32667268468867e-17 	0.99372988198886 	-0.0503235375228581 	-7.11433534280985e-17
2 	3.08085446762226 	-7.97972798949331e-17 	0.993060165109364 	-0.0491935432581679 	-1.78074639287039e-16
2 	3.17877257615452 	-7.63278329429795e-17 	0.992433143535821 	-0.0480609819643473 	-7.20921935714213e-19
2 	3.27978257561694 	-7.63278329429795e-17 	0.991863905779388 	-0.0469212664156807 	-6.71608590277079e-20
2 	3.38398203006779 	-8.67361737988404e-17 	0.991257066296048 	-0.0457725236107328 	-2.85811689127562e-21
2 	3.49147157930068 	-9.36750677027476e-17 	0.990584803792199 	-0.0446239251459533 	6.86690302631852e-20
2 	3.60235503573069 	-1.04083408558608e-16 	0.98994300159227 	-0.0434720295515339 	-4.47587157473921e-23
2 	3.71673948433478 	-1.14491749414469e-16 	0.989393481390909 	-0.0423202865217536 	-4.77424735589525e-23
2 	3.8347353857436 	-1.11022302462516e-16 	0.988949864947542 	-0.0411650071417689 	-4.12536100026037e-19
2 	3.95645668258462 	-1.11022302462516e-16 	0.98846694240236 	-0.0400050178750914 	-1.79517494744187e-16
2 	4.0820209091797 	-1.04083408558608e-16 	0.987885816793525 	-0.0388404240323317 	-2.54470265362912e-16
2 	4.21154930470388 	-9.36750677027476e-17 	0.987291332975408 	-0.0376766515046581 	-3.84827260329083e-19
2 	4.34516692991511 	-8.67361737988404e-17 	0.986848700790051 	-0.0365107061534233 	-4.0370679222931e-20
2 	4.48300278756863 	-8.32667268468867e-17 	0.986531647022408 	-0.0353466572473743 	-4.15827789844714e-23
2 	4.62518994663324 	-8.67361737988404e-17 	0.986065679544327 	-0.0341745018340601 	6.3638324560104e-24
2 	4.77186567043029 	-9.36750677027476e-17 	0.985546428574044 	-0.0329965906445073 	3.98730820316819e-21
