8 	0.445235312119664 	-2.08166817117217e-17 	0.193975060127971 	0.0199073585013625 	1.8330292498945e-17
8 	0.455704834779478 	-2.77555756156289e-17 	0.198461380726546 	0.019920398994919 	5.10996538367751e-17
8 	0.469710606414533 	-2.42861286636753e-17 	0.204511212914905 	0.0199471448659321 	2.88518530536297e-17
8 	0.491846043955708 	-2.08166817117217e-17 	0.214175101528362 	0.0200058851151364 	3.67393811912923e-20
8 	0.514778287483577 	-2.77555756156289e-17 	0.224342352934528 	0.0200954073428459 	-3.66758076778488e-20
8 	0.538535484544895 	-3.12250225675825e-17 	0.235058271998732 	0.0202231882762578 	5.31691561141471e-17
8 	0.563146737069756 	-3.12250225675825e-17 	0.246403635472728 	0.0203922732794871 	9.58261466205571e-17
8 	0.588642130718527 	-2.42861286636753e-17 	0.258507597338603 	0.0206010638298273 	-1.11140593826684e-16
8 	0.615052764897376 	-1.04083408558608e-17 	0.271531013225113 	0.0208477435899917 	-4.62731888248949e-17
8 	0.642410783437945 	-1.04083408558608e-17 	0.2856474496869 	0.0211285641496682 	-6.74996794469002e-20
8 	0.670749405934574 	-1.04083408558608e-17 	0.301020488368151 	0.0214477132275196 	6.0457677307905e-21
8 	0.700102959730073 	-8.67361737988404e-18 	0.317795815767567 	0.0218175111894012 	1.88270373266399e-19
8 	0.730506912538453 	1.73472347597681e-18 	0.33608834111779 	0.0222562531351443 	-2.18266791603009e-19
8 	0.761997905690176 	1.21430643318376e-17 	0.355963812906521 	0.0227834804446518 	4.64052978820275e-21
8 	0.794613787982349 	1.21430643318376e-17 	0.377430812221459 	0.0234149417630858 	3.02453316205724e-20
8 	0.828393650112923 	1.38777878078145e-17 	0.400446353216135 	0.0241596082609774 	2.82803078525526e-19
8 	0.863377859674246 	1.47451495458029e-17 	0.424930744043114 	0.0250187794661486 	-6.83220541666467e-19
7.99999999999999 	0.899608096677278 	1.47451495458029e-17 	0.450783742788176 	0.0259869410809138 	3.04528561646986e-19
7.99999999999999 	0.937127389573462 	1.69135538907739e-17 	0.477894706423231 	0.0270534616392985 	3.79527054896359e-20
7.99999999999999 	0.975980151736475 	1.90819582357449e-17 	0.506143168795979 	0.0282039938959317 	-4.23049619570337e-17
7.99999999999999 	1.01621221836095 	1.25767452008319e-17 	0.535390822248391 	0.0294208335650347 	-3.52880273391453e-15
7.99999999999999 	1.05787088372979 	6.93889390390723e-18 	0.565519888807688 	0.0306916684054272 	3.26350412610643e-15
7.99999999999999 	1.1010049387955 	6.93889390390723e-18 	0.596280537350153 	0.031981296455179 	1.05830420608191e-16
7.99999999999999 	1.14566470901487 	1.04083408558608e-17 	0.627381649542083 	0.0332494136693281 	3.87683296397275e-19
7.99999999999999 	1.1919020923689 	1.38777878078145e-17 	0.65852252773732 	0.0344554602938828 	-3.72776240141813e-19
7.99999999999999 	1.23977059749267 	1.38777878078145e-17 	0.689375889220137 	0.0355547615332461 	-2.67034196913741e-20
7.99999999999999 	1.28932538183168 	1.38777878078145e-17 	0.719606700818545 	0.0365011672667255 	-9.92685798924247e-20
7.99999999999999 	1.34062328973247 	6.93889390390723e-18 	0.748896515279797 	0.0372497220849013 	7.37957878774505e-21
7.99999999999999 	1.39372289036593 	3.46944695195361e-18 	0.776978521015594 	0.0377620222985714 	1.39525578053611e-19
7.99999999999999 	1.44868451537184 	1.38777878078145e-17 	0.803671552445061 	0.0380119057162714 	5.5138699515295e-21
7.99999999999999 	1.50557029610222 	1.73472347597681e-17 	0.82888382280741 	0.0379877476514126 	4.74044102562893e-20
7.99999999999999 	1.56444420032979 	1.04083408558608e-17 	0.85258766331345 	0.0376904745628749 	4.71488438479933e-20
7.99999999999999 	1.60125821015668 	1.73472347597681e-18 	0.86644079213731 	0.0373967323047616 	3.72905437446645e-20
7.99999999999999 	1.63225974854651 	-5.20417042793042e-18 	0.877198447887047 	0.0370597319419679 	2.3336087375267e-20
7.99999999999999 	1.68846715954752 	-1.38777878078145e-17 	0.895602920281683 	0.0363390051535006 	7.91607776237796e-21
7.99999999999999 	1.75372829627876 	-1.73472347597681e-17 	0.914910487784722 	0.035311693977353 	1.04544088282552e-22
7.99999999999999 	1.82123614698517 	-1.21430643318376e-17 	0.932722101529494 	0.0340695551505906 	-3.69197058843532e-21
7.99999999999999 	1.89106286097981 	-1.56125112837913e-17 	0.949003079796735 	0.032627086252979 	-2.81546859847022e-20
7.99999999999999 	1.96328253671743 	-2.60208521396521e-17 	0.963459992439403 	0.0310286557796668 	4.3017635036397e-20
7.99999999999999 	2.02025965173184 	-2.77555756156289e-17 	0.973738283771294 	0.0296878543870311 	2.49914407836509e-21
7.99999999999999 	2.06006301192217 	-2.77555756156289e-17 	0.980578683016053 	0.0287451964760775 	0
7.99999999999999 	2.09845978584128 	-3.12250225675825e-17 	0.986625395440961 	0.0278537114581804 	0
7.99999999999999 	2.13549967996945 	-3.12250225675825e-17 	0.992118709239791 	0.0269972949602408 	0
7.99999999999999 	2.17123064424048 	-3.12250225675825e-17 	0.997087548333723 	0.0261746458219251 	0
7.99999999999999 	2.20569893411515 	-3.12250225675825e-17 	1.0015603197135 	0.0253823256033429 	0
7.99999999999999 	2.23894917046122 	-3.12250225675825e-17 	1.00556401440924 	0.0246181821671127 	0
7.99999999999999 	2.27102439731725 	-3.12250225675825e-17 	1.00912351709098 	0.0238806230526292 	0
7.99999999999999 	2.30196613761521 	-3.12250225675825e-17 	1.01226115738538 	0.0231682756399467 	0
7.99999999999999 	2.33181444693391 	-3.46944695195361e-17 	1.01499644923871 	0.022479924085154 	0
7.99999999999999 	2.3606079653529 	-3.81639164714898e-17 	1.01734595254077 	0.0218144668340668 	0
7.99999999999999 	2.3883839674739 	-4.16333634234434e-17 	1.01932320992219 	0.0211708772978383 	0
7.99999999999999 	2.41517841067461 	-4.85722573273506e-17 	1.02093872800126 	0.0205481770839687 	0
7.99999999999999 	2.44102598165722 	-5.20417042793042e-17 	1.02219998325052 	0.0199454196897259 	0
7.99999999999999 	2.46596014135207 	-5.55111512312578e-17 	1.02311144060492 	0.0193616809577114 	0
7.99999999999999 	2.49001316823443 	-5.3776427755281e-17 	1.02367457916522 	0.0187960539522491 	0
7.99999999999999 	2.51321620011054 	-4.85722573273506e-17 	1.02388792445317 	0.0182476467479464 	0
7.99999999999999 	2.535599274427 	-4.68375338513738e-17 	1.02374709106357 	0.0177155820702137 	0
7.99999999999999 	2.55719136715571 	-4.85722573273506e-17 	1.02324484348062 	0.0171989980449634 	0
7.99999999999999 	2.57802043030465 	-5.20417042793042e-17 	1.02237118633443 	0.0166970495402339 	0
7.99999999999999 	2.59811342810315 	-4.85722573273506e-17 	1.02111349830809 	0.0162089097273649 	0
7.99999999999999 	2.61749637190832 	-4.5102810375397e-17 	1.01945672587587 	0.0157337715735909 	0
7.99999999999999 	2.63619435387806 	-4.5102810375397e-17 	1.01738365346016 	0.015270849022231 	0
7.99999999999999 	2.65423157945406 	-4.85722573273506e-17 	1.01487526469812 	0.0148193776402427 	0
7.99999999999999 	2.67163139869691 	-5.55111512312578e-17 	1.01191120459491 	0.0143786145344772 	0
7.99999999999999 	2.68841633651388 	-5.89805981832114e-17 	1.00847034397313 	0.0139478373755213 	0
7.99999999999999 	2.7046081218185 	-5.89805981832114e-17 	1.00453143596936 	0.013526342436782 	0
7.99999999999999 	2.72022771565972 	-5.89805981832114e-17 	1.00007384040384 	0.0131134416657257 	0
7.99999999999999 	2.73529533835694 	-6.24500451351651e-17 	0.995078277625952 	0.012708458952367 	1.78167708372199e-16
7.99999999999999 	2.74983049567625 	-6.24500451351651e-17 	0.989527561561983 	0.0123107259215966 	1.71666913753547e-16
7.99999999999999 	2.76385200408156 	-6.24500451351651e-17 	0.983407254861768 	0.0119195776899406 	-1.91114777943917e-16
7.99999999999999 	2.77737801509343 	-6.59194920871187e-17 	0.976706189172683 	0.0115343491294265 	-1.84613983325286e-16
7.99999999999999 	2.79042603878708 	-6.59194920871187e-17 	0.969416801068619 	0.0111543727701521 	0
7.99999999999999 	2.80301296646003 	-6.24500451351651e-17 	0.961535247674493 	0.0107789802934173 	0
7.99999999999999 	2.81515509249872 	-5.89805981832114e-17 	0.95306128285194 	0.0104075028714578 	0
7.99999999999999 	2.82686813547237 	-6.24500451351651e-17 	0.943997891687307 	0.0100392428260529 	0
7.99999999999999 	2.83816725848142 	-6.59194920871187e-17 	0.93435069424607 	0.00967344687265211 	0
7.99999999999999 	2.84906708878691 	-6.59194920871187e-17 	0.924125011931282 	0.00930968164333425 	0
7.99999999999999 	2.85958173674616 	-6.59194920871187e-17 	0.913300316454807 	0.00894737776689684 	0
7.99999999999999 	2.86972481407933 	-7.28583859910259e-17 	0.901791624507406 	0.00858453804497264 	0
7.99999999999999 	2.87950945149043 	-8.32667268468867e-17 	0.889529326324504 	0.00821904323425308 	0
7.99999999999999 	2.88894831566566 	-8.50014503228635e-17 	0.87654058782704 	0.00785063577396081 	0
7.99999999999999 	2.89805362567106 	-8.32667268468867e-17 	0.862899303955274 	0.00747888248567355 	0
7.99999999999999 	2.90683716877067 	-8.32667268468867e-17 	0.848685568032955 	0.00710344247117479 	0
7.99999999999999 	2.91531031568569 	-8.32667268468867e-17 	0.833964726918425 	0.00672405828763835 	0
7.99999999999999 	2.92348403531448 	-8.32667268468867e-17 	0.818779335389008 	0.00634033502446208 	0
7.99999999999999 	2.93136890893229 	-8.32667268468867e-17 	0.803145619193685 	0.00595167580946923 	0
7.99999999999999 	2.93897514388925 	-7.97972798949331e-17 	0.787044432671095 	0.00555786076661612 	0
7.99999999999999 	2.94631258682425 	-7.63278329429795e-17 	0.770395364405031 	0.00516021824493239 	0
7.99999999999999 	2.95339073641193 	-7.97972798949331e-17 	0.753032065329632 	0.00475979745111131 	0
7.99999999999999 	2.96021875565915 	-8.32667268468867e-17 	0.734749881596633 	0.0043586961429556 	0
7.99999999999999 	2.96680548376697 	-8.67361737988404e-17 	0.71532755256517 	0.00395873185795364 	0
7.99999999999999 	2.97315944757337 	-8.67361737988404e-17 	0.694471916881579 	0.00356084742042654 	0
7.99999999999999 	2.97928887259171 	-7.97972798949331e-17 	0.671785118834442 	0.00316622792065794 	0
7.99999999999999 	2.98520169365902 	-7.63278329429795e-17 	0.64672195323051 	0.00277639475278395 	0
7.99999999999999 	2.99090556520806 	-7.63278329429795e-17 	0.618527238184112 	0.00239325583525222 	0
7.99999999999999 	2.99640787117633 	-7.63278329429795e-17 	0.586142026824863 	0.00201937846797054 	0
7.99999999999999 	3.00171573456492 	-7.28583859910259e-17 	0.548099929019554 	0.00165768661404245 	0
7.99999999999999 	3.00683602665962 	-7.28583859910259e-17 	0.502429707371843 	0.0013122632625871 	0
7.99999999999999 	3.01177537592612 	-7.63278329429795e-17 	0.446779509066863 	0.000987347286899626 	0
7.99999999999999 	3.01654017659085 	-7.63278329429795e-17 	0.379411652576447 	0.000689492647635554 	0
7.99999999999999 	3.02113659691864 	-7.97972798949331e-17 	0.30132247424659 	0.000430235492283408 	0
7.99999999999999 	3.02557058719784 	-7.97972798949331e-17 	0.216888431666113 	0.000224541615662425 	0
7.99999999999999 	3.02984788744324 	-7.63278329429795e-17 	0.13045984144871 	8.40085229925026e-05 	0
