3 	0.00391112967796273 	0 	-0.0327123065967382 	7.0617877585026e-05 	-9.01225844525513e-18
3 	0.0118766651674916 	-6.93889390390723e-18 	-0.0926701803757135 	0.000103059371622051 	-4.3195112047903e-17
3 	0.0201340015485762 	-1.38777878078145e-17 	-0.141293886963412 	0.000132395393813614 	-3.36587929375048e-17
3 	0.028693828342395 	-1.73472347597681e-17 	-0.17418719495955 	0.000150181949001109 	1.80875307154056e-22
3 	0.0375672266585909 	-1.73472347597681e-17 	-0.191134919279984 	9.55759160452852e-05 	3.81500620825629e-22
3 	0.0467656835403032 	-1.73472347597681e-17 	-0.197868529346997 	-2.16518537410468e-05 	1.32187818712926e-21
3 	0.0563011068347005 	-2.42861286636753e-17 	-0.199730157813247 	-0.000179729188219462 	4.01660693300574e-22
3 	0.0661858406082648 	-2.08166817117217e-17 	-0.199357080648219 	-0.000366754562697976 	-7.11272344823602e-22
3 	0.0764326811267816 	-2.08166817117217e-17 	-0.197832734563227 	-0.00057679911489207 	-4.33656063096101e-22
3 	0.0870548934207258 	-2.77555756156289e-17 	-0.195623026942595 	-0.000806558801779189 	-2.08790437211146e-22
3 	0.0980662284574838 	-2.77555756156289e-17 	-0.192948144974088 	-0.00105423566630721 	-5.16900923829416e-22
3 	0.109480940942647 	-2.77555756156289e-17 	-0.189920433142347 	-0.00131893122800275 	-7.44146347366794e-23
3 	0.121313807773416 	-2.77555756156289e-17 	-0.186599698931472 	-0.0016002764586472 	-5.61715294719463e-23
3 	0.13358014716801 	-2.42861286636753e-17 	-0.183017668807698 	-0.00189823709512667 	-1.07862321784452e-22
3 	0.146295838495838 	-2.08166817117217e-17 	-0.179189776343645 	-0.00221301597055586 	-5.15906235651352e-23
3 	0.159477342834115 	-2.77555756156289e-17 	-0.175121255070157 	-0.00254500196186523 	1.84525729029891e-24
3 	0.173141724277517 	-3.46944695195361e-17 	-0.170810460509477 	-0.00289474293015787 	6.1339160244881e-22
3 	0.18730667202848 	-3.81639164714898e-17 	-0.166250749315182 	-0.00326293289436872 	6.11928865006562e-22
3 	0.201990523296728 	-3.81639164714898e-17 	-0.161431560655909 	-0.00365040855124516 	6.10974375331553e-22
3 	0.217212287037676 	-3.81639164714898e-17 	-0.156339031521925 	-0.00405815242781221 	-6.66539137939955e-22
3 	0.232991668560441 	-4.5102810375397e-17 	-0.1509563245819 	-0.00448730114819555 	-4.72574893796836e-23
3 	0.249349095037321 	-5.55111512312578e-17 	-0.145263768331527 	-0.00493915798296732 	6.79381373580665e-22
3 	0.266305741947753 	-6.59194920871187e-17 	-0.139238866578801 	-0.00541520923753286 	7.26034086303534e-22
3 	0.283883560490998 	-6.59194920871187e-17 	-0.132856210101343 	-0.00591714424926322 	-5.81009152754521e-22
3 	0.30210530600303 	-6.24500451351651e-17 	-0.12608730891358 	-0.0064468788648722 	1.47137495319537e-21
3 	0.320994567414414 	-6.24500451351651e-17 	-0.118900354540018 	-0.0070065822877182 	-1.06443034981233e-18
3 	0.340575797787321 	-5.89805981832114e-17 	-0.11125991562087 	-0.00759870712702536 	-8.05555812963303e-19
3 	0.360874345971201 	-5.55111512312578e-17 	-0.103126565751692 	-0.00822602233985342 	-5.43381285086243e-19
3 	0.38191648941809 	-5.55111512312578e-17 	-0.0944564389096879 	-0.00889164850873564 	-4.19157918816323e-17
3 	0.403729468200046 	-5.45353692760209e-17 	-0.0852007046965567 	-0.00959909449778933 	4.57645724211957e-17
3 	0.426341520272733 	-5.12827627585644e-17 	-0.0752892704506388 	-0.0103521179790744 	-4.3103892861599e-17
3 	0.449781918030828 	-4.92227786308419e-17 	-0.064667151357043 	-0.0111553238741784 	4.39866672255513e-17
3 	0.474081006202548 	-5.24753851482984e-17 	-0.0532722292415253 	-0.0120137202302235 	7.7336702479521e-19
3 	0.499270241132363 	-5.29090660172926e-17 	-0.0410276847772752 	-0.012932738480847 	1.6845751091429e-21
3 	0.525382231502763 	-5.20417042793042e-17 	-0.0278472651585311 	-0.0139182950879668 	3.16692157195028e-21
3 	0.552450780547767 	-5.46437894932694e-17 	-0.0136339395106363 	-0.0149767234776347 	2.70546341351796e-21
3 	0.580510929812849 	-5.55111512312578e-17 	0.00172165343822215 	-0.0161148752900236 	-9.39889526683691e-25
3 	0.60959900451791 	-5.72458747072346e-17 	0.0183432098234665 	-0.0173407432350279 	0
3 	0.639752660582033 	-5.72458747072346e-17 	0.0363711037622691 	-0.0186614342424805 	-2.5845197914752e-22
3 	0.671010933370886 	-6.24500451351651e-17 	0.0560248399884275 	-0.02007688139075 	-2.61015708199677e-21
3 	0.7034142882299 	-6.59194920871187e-17 	0.077938216596076 	-0.0216143672033533 	5.2313232597526e-23
3 	0.737004672868606 	-6.59194920871187e-17 	0.10298708684695 	-0.0233044649521101 	3.82089255374588e-21
3 	0.771825571663976 	-6.93889390390723e-17 	0.13172186818096 	-0.0251529982504974 	3.97114371221298e-21
3 	0.807922061953053 	-7.63278329429795e-17 	0.164296597641896 	-0.0271322821775393 	-6.96305605840209e-21
3 	0.845340872387742 	-9.36750677027476e-17 	0.200588332080206 	-0.029189005322837 	-2.59590572056075e-21
3 	0.876395267235943 	-9.71445146547012e-17 	0.232218906832198 	-0.0308538999515522 	-1.18914249276727e-17
3 	0.896138906876707 	-9.0205620750794e-17 	0.252883776526425 	-0.031882108671775 	-3.24917515961452e-17
3 	0.924340990046897 	-1.07552855510562e-16 	0.283044917121978 	-0.0332697424785998 	-2.47844941931946e-17
3 	0.966024566743241 	-1.21430643318376e-16 	0.328425168265169 	-0.0351628578224387 	3.08971427896089e-17
3 	1.00923513492173 	-1.11022302462516e-16 	0.37592949932914 	-0.0368752125239918 	1.51005024030458e-17
3 	1.05402863275205 	-1.11022302462516e-16 	0.424877850139636 	-0.0383533410794591 	-3.45456319241506e-21
3 	1.10046304758287 	-1.17961196366423e-16 	0.474452318378803 	-0.0395487928236661 	-8.52979019541275e-22
3 	1.14859849100923 	-1.17961196366423e-16 	0.523694443894225 	-0.0404155478891481 	-1.36482763737763e-21
3 	1.19849727668994 	-1.21430643318376e-16 	0.571525322702582 	-0.040914303351026 	-9.88303000912663e-22
3 	1.25022400101563 	-1.28369537222284e-16 	0.616838417684331 	-0.0410277582383972 	-3.23964738862414e-22
3 	1.30384562673185 	-1.38777878078145e-16 	0.658718349692083 	-0.0407803329825359 	-2.3915712521085e-22
3 	1.35943156962565 	-1.44415729375069e-16 	0.696700842447711 	-0.0402368423456525 	2.77897926342804e-18
3 	1.41705378838762 	-1.44415729375069e-16 	0.731112870021142 	-0.0394110372694971 	-8.12958499593213e-18
3 	1.47678687776592 	-1.47451495458029e-16 	0.762907836259693 	-0.0383744504175222 	-1.88071058078509e-17
3 	1.53870816513277 	-1.40512601554121e-16 	0.792326711431174 	-0.0371693979458218 	-1.10618698886887e-20
3 	1.60289781058851 	-1.35308431126191e-16 	0.819418624748366 	-0.03589345612836 	-8.65457745332689e-21
3 	1.66943891073266 	-1.35308431126191e-16 	0.844417642946416 	-0.0346020532399464 	-2.95524720410673e-21
3 	1.73841760623657 	-1.2490009027033e-16 	0.867658435161244 	-0.0333209685713706 	-5.02485429699078e-21
3 	1.77894489321751 	-1.17961196366423e-16 	0.880463268456482 	-0.0325910708038201 	-6.71615987468247e-21
3 	1.81534077248513 	-1.14491749414469e-16 	0.891106321878581 	-0.0319578118209946 	-2.75835899503251e-21
3 	1.88404823953248 	-1.07552855510562e-16 	0.910304697874408 	-0.0307860128645741 	6.91534005091908e-21
3 	1.96088870322037 	-1.04083408558608e-16 	0.930154203550693 	-0.029509386553466 	-5.3417995517015e-23
3 	2.04004996790234 	-1.04083408558608e-16 	0.949019285200387 	-0.0282417006043216 	0
3 	2.11873460271874 	-1.04083408558608e-16 	0.966420628031648 	-0.0269282474198062 	0
3 	2.19463865000284 	-1.00613961606655e-16 	0.982099432472577 	-0.02568475065053 	0
3 	2.26786037121375 	-9.71445146547012e-17 	0.996182174466066 	-0.0244879898868831 	0
3 	2.33849455540975 	-9.71445146547012e-17 	1.00883104690131 	-0.0233385339348437 	0
3 	2.40663264195736 	-9.36750677027476e-17 	1.0201887903 	-0.0222407855341953 	0
3 	2.47236283890404 	-9.36750677027476e-17 	1.03038578769139 	-0.0211971291863595 	0
3 	2.5357702371677 	-9.36750677027476e-17 	1.03954174980047 	-0.020208683493996 	0
3 	2.59693692069107 	-9.0205620750794e-17 	1.04776539086337 	-0.0192752747272466 	0
3 	2.65594207270333 	-9.0205620750794e-17 	1.05515411726896 	-0.0183956524317142 	0
3 	2.71286207822658 	-9.0205620750794e-17 	1.06179421693825 	-0.0175678005470525 	0
3 	2.76777062295999 	-9.0205620750794e-17 	1.06776148002744 	-0.0167892098946528 	0
3 	2.82073878866949 	-9.0205620750794e-17 	1.07312206990119 	-0.01605708673976 	0
3 	2.87183514520654 	-9.0205620750794e-17 	1.07793348272921 	-0.0153685047078294 	0
3 	2.92112583927514 	-9.36750677027476e-17 	1.08224548924657 	-0.0147205124069174 	-7.34249589159529e-17
3 	2.96867468006189 	-9.71445146547012e-17 	1.08610100227075 	-0.0141102083344433 	-3.72056043720564e-16
