6 	0.00391112967796265 	1.73472347597681e-17 	0.253725002666669 	3.9963665035787e-05 	760.073739121923 	1.11991425960401e-06 	5.41416802808946e-38
6 	0.0118766651674913 	2.42861286636753e-17 	0.253726436703346 	0.000355022587591445 	304.406266431119 	6.49585896653063e-06 	0
6 	0.020134001548576 	2.42861286636753e-17 	0.25371949505937 	0.00145000377924884 	67.756009062321 	1.09090618283675e-05 	0
6 	0.028693828342395 	2.08166817117217e-17 	0.253706274769722 	0.00352473840429522 	26.7840675452247 	1.8863712545693e-05 	0
6 	0.0375672266585908 	2.42861286636753e-17 	0.253680299497492 	0.00599223786048054 	14.3065906265539 	7.90325105106194e-05 	0
6 	0.0467656835403032 	2.42861286636753e-17 	0.253638752686416 	0.00826916196756933 	9.34004772808058 	0.000182652224939584 	0
6 	0.0563011068347008 	2.42861286636753e-17 	0.25358401351094 	0.0102346755202133 	6.91556166833379 	0.000289572581075727 	0
6 	0.0661858406082648 	2.77555756156289e-17 	0.253519761770025 	0.0119577624155303 	5.52450747055867 	0.000389895858727448 	0
6 	0.0764326811267815 	2.77555756156289e-17 	0.253448456239594 	0.0135107148351585 	4.63157234731669 	0.000487682487885154 	0
6 	0.0870548934207258 	3.12250225675825e-17 	0.253371519759045 	0.0149436546967239 	4.01290620032778 	0.000586506880992542 	0
6 	0.0980662284574839 	3.81639164714898e-17 	0.253289980784137 	0.0162902484883364 	3.56076533142497 	0.000688610782972623 	0
6 	0.109480940942647 	4.16333634234434e-17 	0.253204716322939 	0.017573790171204 	3.21735161968923 	0.000795519201675406 	0
6 	0.121313807773417 	3.98986399474666e-17 	0.25311650284905 	0.0188110412591549 	2.94898905705128 	0.000908415398560069 	0
6 	0.13358014716801 	3.29597460435593e-17 	0.253026045199866 	0.0200145245392684 	2.73476042189868 	0.00102832825103277 	0
6 	0.146295838495838 	2.77555756156289e-17 	0.252934003209504 	0.0211939159898004 	2.56100036851148 	0.00115622770571722 	0
6 	0.159477342834115 	2.94902990916057e-17 	0.252841009089218 	0.0223569155817949 	2.41841129061315 	0.00129307672771805 	0
6 	0.173141724277517 	3.98986399474666e-17 	0.252747677038976 	0.0235098301131298 	2.30045431932421 	0.00143985864876073 	0
6 	0.18730667202848 	5.20417042793042e-17 	0.252654609449601 	0.0246580944723377 	2.20240384167973 	0.00159760833714634 	0
6 	0.201990523296728 	5.3776427755281e-17 	0.252562398122512 	0.0258062146488559 	2.12076641913913 	0.00176742084568929 	0
6 	0.217212287037676 	4.85722573273506e-17 	0.252471621380815 	0.0269580474145562 	2.05291009989893 	0.00195047023354426 	0
6 	0.232991668560441 	3.98986399474666e-17 	0.252382841255254 	0.0281169438602766 	1.99682068207573 	0.00214801656591357 	0
6 	0.249349095037321 	3.46944695195361e-17 	0.252296598460844 	0.0292858384373838 	1.95093670993139 	0.00236141321643961 	0
6 	0.266305741947753 	3.03576608295941e-17 	0.252213405171392 	0.0304672968218607 	1.91403487470273 	0.00259211247961132 	0
6 	0.283883560490998 	2.08166817117217e-17 	0.252133735748743 	0.0316635403914635 	1.88514854678349 	0.0028416690641738 	0
6 	0.30210530600303 	6.93889390390723e-18 	0.252058015336068 	0.0328764508383261 	1.86350857444868 	0.00311174048535088 	0
6 	0.320994567414413 	7.37257477290143e-18 	0.251986606091772 	0.0341075568834656 	1.84849931290659 	0.0034040832923319 	0
6 	0.340575797787321 	1.77809156287623e-17 	0.251919790785542 	0.0353580039368332 	1.83962520793734 	0.00372054367250538 	0
6 	0.360874345971201 	1.43114686768087e-17 	0.251857753414809 	0.0366285067436401 	1.83648474881628 	0.00406304051526937 	0
6 	0.38191648941809 	1.30104260698261e-18 	0.251800526454615 	0.0379192870379341 	1.8387525309639 	0.00443355843568678 	0
6 	0.403729468200045 	-6.93889390390723e-18 	0.251746653604461 	0.0392300906879389 	1.8462843346662 	0.0048350412708602 	0
6 	0.426341520272733 	-1.38777878078145e-17 	0.251697159380698 	0.0405596999675592 	1.85871004304233 	0.00526855922767025 	0
6 	0.449781918030828 	-2.08166817117217e-17 	0.251651532436018 	0.0419061842945473 	1.87582620229258 	0.00573588767411291 	0
6 	0.474081006202548 	-2.77555756156289e-17 	0.251608993200764 	0.0432666383256031 	1.89744295220827 	0.0062385514448049 	0
6 	0.499270241132363 	-3.81639164714898e-17 	0.251568447008134 	0.0446370116709792 	1.92337172217178 	0.00677767988442314 	0
6 	0.525382231502763 	-4.16333634234434e-17 	0.25152844181436 	0.0460119194817378 	1.95341294958914 	0.00735381673217165 	0
6 	0.552450780547767 	-4.16333634234434e-17 	0.251487046166479 	0.0473844385648856 	1.98734371324304 	0.00796668961269938 	0
6 	0.58051092981285 	-3.46944695195361e-17 	0.251441431479951 	0.0487458971503161 	2.02490541029325 	0.00861505127555866 	0
6 	0.609599004517911 	-2.77555756156289e-17 	0.251387982181409 	0.0500856664009617 	2.0657917561111 	0.00930447325608603 	0
6 	0.639752660582033 	-2.77555756156289e-17 	0.251326836246233 	0.051391611653488 	2.10966074674809 	0.0100936265224772 	0
6 	0.671010933370887 	-3.12250225675825e-17 	0.251264423073859 	0.0526540077856127 	2.156254718457 	0.0110502008315031 	0
6 	0.703414288229901 	-3.81639164714898e-17 	0.25118793478348 	0.0538642673796 	2.20514135964266 	0.0121189942889726 	0
6 	0.737004672868606 	-3.81639164714898e-17 	0.251066018455135 	0.0549925320146055 	2.25441296204734 	0.0132498807528666 	0
6 	0.771255893458755 	-3.81639164714898e-17 	0.250880624137769 	0.0559613163518195 	2.29954378697307 	0.0142671839839731 	0
6 	0.788979504711946 	-4.16333634234434e-17 	0.250767384837816 	0.0564073585917109 	2.32101238034103 	0.0147377685329616 	0
6 	0.807922061953054 	-4.5102810375397e-17 	0.250613929685693 	0.0567466251241754 	2.33836789811656 	0.0151038439283901 	0
6 	0.845340872387743 	-4.5102810375397e-17 	0.25027207860174 	0.0572444347471946 	2.36503499320594 	0.0156788340690861 	0
6 	0.88413044342731 	-3.46944695195361e-17 	0.249843519059132 	0.0574159593386264 	2.37706403671907 	0.0160100240352342 	0
6 	0.924340990046898 	-3.64291929955129e-17 	0.249318800077359 	0.0572296421422233 	2.37260803149371 	0.0161148099991458 	0
6 	0.966024566743242 	-5.03069808033274e-17 	0.248685403709807 	0.0566674854041548 	2.35079557156579 	0.0159985048596236 	0
6 	1.00923513492173 	-6.07153216591882e-17 	0.247928471770324 	0.0557238537214147 	2.31155929184174 	0.0156542893094154 	0
6 	1.05402863275206 	-6.24500451351651e-17 	0.247032028067321 	0.0544073968750482 	2.25553369619911 	0.0150755075774375 	0
6 	1.10046304758287 	-6.11490025281825e-17 	0.245980503056828 	0.0527442597753134 	2.1839993737523 	0.0142696115445351 	0
6 	1.14859849100923 	-5.91974386177085e-17 	0.2447602428761 	0.0507798950209711 	2.09883734997639 	0.0132664676337593 	0
6 	1.19849727668995 	-5.87637577487143e-17 	0.243353750901675 	0.0485741918813657 	2.00227537017075 	0.0121165907310932 	0
6 	1.25022400101563 	-6.24500451351651e-17 	0.241747399951868 	0.0462055578485546 	1.89712303566786 	0.0108897839140359 	0
6 	1.30384562673186 	-6.24500451351651e-17 	0.239953550984523 	0.0437604660487477 	1.78682839041648 	0.00965467747206568 	0
6 	1.35943156962566 	-5.89805981832114e-17 	0.237978470736288 	0.0413284130332309 	1.67750592940889 	0.00846616071016195 	0
6 	1.41705378838763 	-5.55111512312578e-17 	0.235834506623051 	0.0389740723469748 	1.57285168324949 	0.0073632293205835 	0
6 	1.47678687776592 	-5.20417042793042e-17 	0.233538129418744 	0.0367249916894121 	1.47318647142899 	0.00636739985953387 	0
6 	1.533710603315 	-5.55111512312578e-17 	0.231306104791552 	0.0347501236329283 	1.38502843297126 	0.00554924265367551 	0
6 	1.56522813627809 	-5.55111512312578e-17 	0.230059485800148 	0.0337039775598906 	1.33790863297532 	0.00513380830232112 	0
6 	1.60289781058851 	-5.20417042793042e-17 	0.228569716440015 	0.032529910625385 	1.28382602925353 	0.00469864844204053 	0
6 	1.66943891073267 	-5.3776427755281e-17 	0.225938941029475 	0.0305477444879116 	1.19122089085053 	0.00400446135523063 	0
6 	1.73841760623657 	-5.03069808033274e-17 	0.223235687429422 	0.0286295705280305 	1.10118067687059 	0.0033896886886245 	0
6 	1.8099231933566 	-5.29090660172926e-17 	0.22048371825468 	0.026772247812349 	1.01754478213329 	0.00284423528436482 	0
6 	1.88404823953249 	-5.18248638448071e-17 	0.217713618614022 	0.024979953009998 	0.944854548008463 	0.00236712198582771 	0
6 	1.96088870322038 	-4.74880551548651e-17 	0.214972807617166 	0.0232506102395618 	0.884684284852236 	0.0019642427321895 	0
6 	2.02025965173185 	-4.85722573273506e-17 	0.213112071323933 	0.0219647558996987 	0.847342754401364 	0.00166076652459309 	0
6 	2.06006301192217 	-4.5102810375397e-17 	0.211798689166685 	0.0210851510190673 	0.824410672490577 	0.00147721876102035 	0
6 	2.09845978584128 	-4.5102810375397e-17 	0.210609682596152 	0.0202638287627221 	0.80542202032914 	0.00131082436575725 	0
6 	2.13549967996946 	-5.20417042793042e-17 	0.209498284292252 	0.0194805014692935 	0.789570377990676 	0.00115614676410555 	0
6 	2.17123064424048 	-5.89805981832114e-17 	0.208457554543357 	0.0187337004287069 	0.776649029294246 	0.00101336458493555 	0
6 	2.20569893411516 	-6.59194920871187e-17 	0.207484030393314 	0.0180219718234531 	0.766497815452674 	0.000882342131880977 	0
6 	2.23894917046123 	-7.28583859910259e-17 	0.206574018556714 	0.017343896157816 	0.758997515511997 	0.000762671790086349 	0
6 	2.27102439731726 	-7.97972798949331e-17 	0.205723761594006 	0.0166980690943584 	0.754065713700869 	0.000653788830853561 	0
6 	2.30196613761522 	-8.67361737988404e-17 	0.20492966518574 	0.0160831246824178 	0.75165376148976 	0.000555065608039779 	0
6 	2.33181444693392 	-8.67361737988404e-17 	0.204188309296274 	0.0154977656338842 	0.751744702250145 	0.000465873409414533 	0
6.00000000000001 	2.3606079653529 	-8.32667268468867e-17 	0.203496440037134 	0.0149407792148524 	0.754352089228865 	0.000385620119511929 	0
6.00000000000001 	2.38838396747391 	-7.63278329429795e-17 	0.202850969924215 	0.0144110477773991 	0.759519653729056 	0.000313773332522736 	0
6.00000000000001 	2.41517841067461 	-6.93889390390723e-17 	0.202248977757585 	0.0139075568472429 	0.767321792086994 	0.000249874738180031 	0
6.00000000000001 	2.44102598165722 	-6.93889390390723e-17 	0.201687706257837 	0.0134294019242722 	0.77786484923416 	0.000193549600535244 	0
6.00000000000001 	2.46596014135208 	-6.93889390390723e-17 	0.201164558160964 	0.0129757947474149 	0.791289189215425 	0.000144513807096402 	0
6.00000000000001 	2.49001316823444 	-6.93889390390723e-17 	0.200677091185821 	0.0125460695241071 	0.807772056262705 	0.00010258009060233 	0
6.00000000000001 	2.51321620011054 	-6.93889390390723e-17 	0.200223011924309 	0.0121396884607155 	0.827531241930075 	6.76644968162429e-05 	0
6.00000000000001 	2.535599274427 	-6.93889390390723e-17 	0.199800169569829 	0.0117562414133105 	0.850829594135673 	3.97936404860816e-05 	0
6.00000000000001 	2.55719136715571 	-6.93889390390723e-17 	0.199406549549435 	0.0113954492187685 	0.877980408392953 	1.9113151259088e-05 	0
6.00000000000001 	2.57802043030466 	-6.93889390390723e-17 	0.199040266587918 	0.011057168003346 	0.909353720093504 	5.8975128550671e-06 	0
6.00000000000001 	2.59811342810315 	-7.28583859910259e-17 	0.1986995575937 	0.0107413917861473 	0.945383499480199 	5.61395728483836e-07 	0
6.00000000000001 	2.61749637190832 	-7.63278329429795e-17 	0.198382774598575 	0.0104482527869892 	0.986575716214754 	3.67232641064662e-06 	0
6.00000000000001 	2.63619435387806 	-7.63278329429795e-17 	0.198088377797035 	0.0101780189204521 	1.03351717838128 	1.59643127926558e-05 	0
6.00000000000001 	2.65423157945406 	-8.32667268468867e-17 	0.197814928715437 	0.00993108762068744 	1.08688496020726 	3.83517920009224e-05 	0
6.00000000000001 	2.67163139869691 	-9.0205620750794e-17 	0.197561083556621 	0.00970797474161112 	1.14745611290902 	7.19429586556603e-05 	0
6.00000000000001 	2.68841633651388 	-9.0205620750794e-17 	0.197325586777511 	0.00950929684967198 	1.21611720924519 	0.00011805120349784 	0
6.00000000000001 	2.70460812181851 	-9.0205620750794e-17 	0.197107264885949 	0.00933574507384578 	1.29387311797485 	0.000178203063289729 	0
6.00000000000001 	2.72022771565972 	-9.0205620750794e-17 	0.196905020455547 	0.00918805044771086 	1.3818542388853 	0.000254140801570061 	0
6.00000000000001 	2.73529533835695 	-9.0205620750794e-17 	0.196717826444872 	0.00906693945888872 	1.48132128951812 	0.000347817581825034 	0
6.00000000000001 	2.74983049567626 	-9.0205620750794e-17 	0.196544720879682 	0.00897307896559472 	1.59366669902878 	0.000461383296756 	0
6.00000000000001 	2.76385200408157 	-9.0205620750794e-17 	0.196384801935011 	0.00890701083359707 	1.72041178597692 	0.000597159553071147 	0
6.00000000000001 	2.77737801509344 	-8.32667268468867e-17 	0.196237223448198 	0.00886907807997913 	1.86319924098527 	0.000757603109990716 	0
6.00000000000001 	2.79042603878708 	-7.63278329429795e-17 	0.196101190884689 	0.00885934587653659 	2.0237810614501 	0.000945258206289003 	0
6.00000000000001 	2.80301296646003 	-6.59194920871187e-17 	0.195975957763093 	0.00887752231304373 	2.20400301855241 	0.0011626995855541 	0
6.00000000000001 	2.81515509249873 	-5.55111512312578e-17 	0.195860822543296 	0.00892288505158671 	2.40578794591941 	0.00141246952724098 	0
6.00000000000001 	2.82686813547238 	-5.55111512312578e-17 	0.195755125970802 	0.0089942204412365 	2.63112153729031 	0.00169701365509576 	0
6.00000000000001 	2.83816725848143 	-5.20417042793042e-17 	0.195658248847843 	0.00908978134372863 	2.8820457872309 	0.00201862158933312 	0
6.00000000000001 	2.84906708878692 	-5.20417042793042e-17 	0.195569610126725 	0.00920726872031394 	3.1606665334126 	0.0023793795432149 	0
6.00000000000001 	2.85958173674617 	-4.85722573273506e-17 	0.195488665045424 	0.00934383994048421 	3.46918262744803 	0.00278114274660409 	0
6.00000000000001 	2.86972481407933 	-3.46944695195361e-17 	0.195414903407875 	0.00949614403446002 	3.80994504811501 	0.00322553613600109 	0
6 	2.87950945149043 	-2.77555756156289e-17 	0.195347851036167 	0.0096603812266707 	4.18555491149276 	0.0037143675663837 	0
6 	2.88894831566567 	-2.77555756156289e-17 	0.195287077815823 	0.00983237958214062 	4.59903894070881 	0.00425714358229196 	0
6 	2.89805362567107 	-2.77555756156289e-17 	0.195232175296425 	0.0100076329962917 	5.05466465418218 	0.00487931050575607 	0
6 	2.90683716877067 	-2.77555756156289e-17 	0.195182716757738 	0.0101810586141026 	5.55962016232344 	0.005561516214177 	0
6 	2.9153103156857 	-2.77555756156289e-17 	0.195138260016044 	0.0103464539065813 	6.12032458699864 	0.00632321655944129 	0
6 	2.92348403531449 	-2.77555756156289e-17 	0.195098425214502 	0.0104944592775147 	6.73899020829933 	0.00712998433672168 	0
6 	2.9313689089323 	-2.77555756156289e-17 	0.195062929031694 	0.0106152804907134 	7.41779556275415 	0.00796285213838905 	0
6.00000000000001 	2.93897514388925 	-3.12250225675825e-17 	0.195031551051926 	0.0107001420235748 	8.16220208338223 	0.00881735574487891 	0
6.00000000000001 	2.94631258682425 	-3.46944695195361e-17 	0.195004111859872 	0.0107415322473527 	8.98317686291364 	0.0096986203339274 	0
6.00000000000001 	2.95339073641193 	-3.12250225675825e-17 	0.194980464518063 	0.0107327673724573 	9.89896828618057 	0.0106181644774143 	0
6 	2.96021875565916 	-2.77555756156289e-17 	0.194960488241565 	0.0106672404113973 	10.9373292935219 	0.0115925011345742 	0
6 	2.96680548376697 	-2.77555756156289e-17 	0.194944079077147 	0.0105374943168277 	12.1385604033257 	0.0126427103309761 	0
6.00000000000001 	2.97315944757337 	-3.12250225675825e-17 	0.194931135235049 	0.0103341015247833 	13.5601087756405 	0.0137936601865365 	0
6.00000000000001 	2.97928887259171 	-4.16333634234434e-17 	0.194921535235404 	0.0100441820773491 	15.2848784762049 	0.0150708582192493 	0
6.00000000000001 	2.98520169365903 	-5.55111512312578e-17 	0.19491510766868 	0.00964939923727533 	17.4347271686704 	0.0164914582798319 	0
6.00000000000001 	2.99090556520807 	-5.89805981832114e-17 	0.194911594854486 	0.00912340601527838 	20.1928228990087 	0.0180430597081213 	0
6.00000000000001 	2.99640787117633 	-5.55111512312578e-17 	0.19491062460424 	0.00842900507377068 	23.8439316522712 	0.0196372468372604 	0
6.00000000000001 	3.00171573456492 	-5.20417042793042e-17 	0.194911729679654 	0.00751646102168288 	28.8538493731446 	0.0210313510643786 	0
6.00000000000001 	3.00683602665963 	-5.20417042793042e-17 	0.194914383105052 	0.00632554693413433 	36.0493976317556 	0.0216337068912088 	0
6.00000000000001 	3.01177537592613 	-5.55111512312578e-17 	0.194917810572694 	0.00480147024003902 	47.0907690472625 	0.0196361590417291 	0
6.00000000000001 	3.01654017659085 	-4.85722573273506e-17 	0.194921017006786 	0.0030288544074646 	65.968877393315 	0.0135636768733239 	0
6 	3.02113659691864 	-4.85722573273506e-17 	0.194923411779331 	0.00140770048196348 	105.271875410345 	0.00558704530583439 	0
6 	3.02557058719784 	-5.20417042793042e-17 	0.194925209426532 	0.000424847749074531 	216.55800164027 	0.0010980319959475 	0
6 	3.02984788744324 	-5.20417042793042e-17 	0.19492699425927 	6.88547957923047e-05 	718.79329606116 	8.80076941312136e-05 	0
