/*--------------------------------*- C++ -*----------------------------------*\
  =========                 |
  \\      /  F ield         | OpenFOAM: The Open Source CFD Toolbox
   \\    /   O peration     | Website:  https://openfoam.org
    \\  /    A nd           | Version:  7
     \\/     M anipulation  |
\*---------------------------------------------------------------------------*/
FoamFile
{
    version     2.0;
    format      ascii;
    class       volScalarField;
    location    "0";
    object      Cy;
}
// * * * * * * * * * * * * * * * * * * * * * * * * * * * * * * * * * * * * * //

dimensions      [0 1 0 0 0 0 0];

internalField   nonuniform List<scalar> 
15600
(
0.9999912569191
0.976966159443465
0.920553807936117
0.846700342265985
0.768505718963588
0.689312944409038
0.610470274697217
0.532341985167283
0.454780756579694
0.377590101001895
0.300973685149338
0.225870993372555
0.154180660105066
0.0894465823630215
0.0380296860389687
0.0102966929331975
0.00391090191792224
0.00391090191792225
0.00391090191792213
0.00391090191792213
0.00391090191792204
0.00391090191792224
0.00391090191792215
0.00391090191792225
0.00391090191792212
0.00391090191792232
0.00391090191792225
0.00391090191792218
0.00391090191792237
0.00391090191792218
0.00391090191792222
0.00391090191792217
0.00391090191792214
0.00391090191792222
0.00391090191792213
0.00391090191792224
0.00391090191792207
0.00391090191792219
0.00391090191792225
0.00391090191792228
0.0039109019179223
0.00391090191792228
0.00391090191792223
0.0039109019179223
0.00391090191792225
0.00391090191792222
0.00391090191792216
0.00391090191792214
0.0039109019179222
0.00391090191792204
0.00391090191792217
0.00391090191792225
0.00391090191792219
0.00391090191792225
0.00391090191792236
0.00391090191792236
0.00391090191792212
0.00391090191792221
0.00391090191792212
0.00391090191792214
0.00391090191792212
0.00391090191792209
0.00391090191792221
0.00391090191792212
0.00391090191792237
0.00391090191792224
0.00391090191792228
0.00391090191792228
0.00391090191792223
0.00391090191792226
0.00391090191792207
0.00391090191792227
0.00391090191792213
0.00391090191792226
0.00391090191792207
0.00391090191792213
0.00391090191792237
0.00391090191792224
0.00391090191792228
0.00391090191792222
0.00391090191792226
0.00391090191792224
0.00391090191792215
0.00391090191792214
0.0039109019179222
0.00391090191792223
0.00391090191792215
0.00391090191792219
0.00391090191792224
0.00391090191792217
0.00391090191792226
0.00391090191792234
0.00391090191792217
0.00391090191792233
0.00391090191792211
0.00391090191792208
0.00391090191792206
0.00391090191792223
0.00391090191792218
0.00391090191792219
0.00391090191792219
0.00391090191792218
0.00391090191792224
0.00391090191792224
0.010227404880518
0.0378370722588685
0.0891711761974962
0.153861042146189
0.225528474392028
0.300620260186265
0.377232111557652
0.454421058348912
0.531980259009971
0.610105233708324
0.688944687341793
0.768138351447382
0.846343022557805
0.920233145688535
0.976777783964202
0.999949441660118
1.00398185423316
0.981048679417645
0.924862313126572
0.851304352057915
0.773421878255923
0.694544837257351
0.616016434370878
0.538199676650767
0.460947801260662
0.384065071008784
0.307754273832021
0.232951127413443
0.161546707018923
0.0970708147378038
0.0458590400071483
0.0182367242475906
0.0118764203276543
0.0118764203276542
0.0118764203276543
0.0118764203276541
0.0118764203276542
0.0118764203276542
0.0118764203276543
0.0118764203276544
0.0118764203276543
0.0118764203276543
0.0118764203276542
0.0118764203276542
0.0118764203276543
0.0118764203276543
0.0118764203276542
0.0118764203276541
0.0118764203276542
0.0118764203276542
0.0118764203276542
0.0118764203276542
0.0118764203276542
0.0118764203276544
0.0118764203276544
0.0118764203276543
0.0118764203276542
0.0118764203276543
0.0118764203276544
0.0118764203276542
0.0118764203276542
0.0118764203276543
0.0118764203276542
0.0118764203276541
0.0118764203276542
0.0118764203276542
0.0118764203276541
0.0118764203276543
0.0118764203276544
0.0118764203276543
0.0118764203276542
0.0118764203276543
0.0118764203276543
0.0118764203276541
0.0118764203276542
0.0118764203276542
0.0118764203276541
0.0118764203276542
0.0118764203276541
0.0118764203276542
0.0118764203276542
0.0118764203276543
0.0118764203276544
0.0118764203276544
0.0118764203276544
0.0118764203276542
0.0118764203276541
0.0118764203276541
0.0118764203276542
0.0118764203276542
0.0118764203276542
0.0118764203276542
0.0118764203276543
0.0118764203276543
0.0118764203276543
0.0118764203276542
0.0118764203276544
0.0118764203276543
0.0118764203276543
0.0118764203276542
0.0118764203276543
0.0118764203276542
0.0118764203276542
0.0118764203276543
0.0118764203276542
0.0118764203276542
0.0118764203276543
0.0118764203276543
0.0118764203276542
0.0118764203276542
0.0118764203276542
0.0118764203276542
0.0118764203276543
0.0118764203276542
0.0118764203276541
0.0118764203276543
0.0118764203276541
0.0118764203276543
0.0118764203276543
0.0118764203276542
0.0181677127518496
0.0456671947662843
0.0967965071003287
0.161228363715492
0.232609974451181
0.307402258514057
0.383708509569463
0.460589537729788
0.537839392936334
0.615652848556128
0.694178047678776
0.773055975789933
0.850948459826928
0.924542935626692
0.980861056883237
1.0039402058325
1.00811863849639
0.985280753986612
0.929328642797629
0.856077000647986
0.77851810974169
0.699968373111179
0.621765754811261
0.544271944529089
0.467340756896742
0.390777233519704
0.314783252115597
0.240290625780621
0.169182593340531
0.104974345115106
0.0539752058491509
0.026467621456126
0.0201337383446564
0.0201337383446564
0.0201337383446564
0.0201337383446565
0.0201337383446565
0.0201337383446564
0.0201337383446566
0.0201337383446565
0.0201337383446566
0.0201337383446564
0.0201337383446564
0.0201337383446565
0.0201337383446564
0.0201337383446565
0.0201337383446565
0.0201337383446565
0.0201337383446565
0.0201337383446564
0.0201337383446565
0.0201337383446564
0.0201337383446566
0.0201337383446566
0.0201337383446566
0.0201337383446565
0.0201337383446565
0.0201337383446564
0.0201337383446564
0.0201337383446564
0.0201337383446563
0.0201337383446565
0.0201337383446565
0.0201337383446565
0.0201337383446564
0.0201337383446564
0.0201337383446564
0.0201337383446566
0.0201337383446565
0.0201337383446566
0.0201337383446564
0.0201337383446565
0.0201337383446564
0.0201337383446565
0.0201337383446564
0.0201337383446564
0.0201337383446564
0.0201337383446564
0.0201337383446564
0.0201337383446564
0.0201337383446565
0.0201337383446564
0.0201337383446565
0.0201337383446566
0.0201337383446566
0.0201337383446564
0.0201337383446565
0.0201337383446564
0.0201337383446565
0.0201337383446564
0.0201337383446564
0.0201337383446565
0.0201337383446564
0.0201337383446564
0.0201337383446564
0.0201337383446565
0.0201337383446564
0.0201337383446567
0.0201337383446566
0.0201337383446566
0.0201337383446564
0.0201337383446565
0.0201337383446564
0.0201337383446564
0.0201337383446564
0.0201337383446565
0.0201337383446564
0.0201337383446564
0.0201337383446565
0.0201337383446564
0.0201337383446565
0.0201337383446565
0.0201337383446566
0.0201337383446566
0.0201337383446564
0.0201337383446564
0.0201337383446564
0.0201337383446565
0.0201337383446564
0.0201337383446565
0.0263988966482104
0.0537841572984996
0.104701176248121
0.168865571391488
0.23995088888491
0.314432698089709
0.390422152404035
0.466983980631668
0.543913156112063
0.621403677499477
0.699603104811044
0.778153726010694
0.855722588163634
0.929010597045757
0.985093911974651
1.008077163067
1.01240696494083
0.989667861768142
0.933958577920921
0.861024464463668
0.783801008592414
0.705590571305801
0.627725677622478
0.550566648812703
0.473967898854026
0.397735277268219
0.322069719011443
0.247898989626219
0.177098204044056
0.113167405001898
0.0623886903019733
0.0350000397747833
0.0286935453931388
0.0286935453931388
0.0286935453931388
0.0286935453931389
0.0286935453931389
0.0286935453931389
0.0286935453931388
0.0286935453931389
0.0286935453931388
0.0286935453931389
0.0286935453931389
0.0286935453931389
0.0286935453931389
0.0286935453931388
0.028693545393139
0.028693545393139
0.0286935453931389
0.0286935453931388
0.0286935453931389
0.0286935453931388
0.0286935453931389
0.0286935453931389
0.0286935453931388
0.0286935453931389
0.0286935453931388
0.0286935453931389
0.0286935453931389
0.0286935453931389
0.0286935453931388
0.0286935453931389
0.0286935453931389
0.0286935453931388
0.0286935453931389
0.0286935453931388
0.0286935453931389
0.0286935453931389
0.028693545393139
0.0286935453931389
0.0286935453931389
0.0286935453931388
0.0286935453931389
0.0286935453931389
0.0286935453931389
0.0286935453931388
0.0286935453931389
0.0286935453931389
0.0286935453931389
0.0286935453931389
0.0286935453931388
0.0286935453931389
0.0286935453931388
0.028693545393139
0.0286935453931389
0.0286935453931389
0.0286935453931388
0.0286935453931389
0.0286935453931389
0.0286935453931389
0.0286935453931389
0.0286935453931388
0.0286935453931389
0.0286935453931389
0.0286935453931389
0.0286935453931389
0.0286935453931389
0.0286935453931389
0.0286935453931389
0.0286935453931389
0.0286935453931389
0.0286935453931389
0.0286935453931389
0.0286935453931388
0.0286935453931389
0.0286935453931388
0.0286935453931389
0.0286935453931389
0.0286935453931389
0.0286935453931389
0.0286935453931389
0.0286935453931388
0.0286935453931389
0.0286935453931388
0.0286935453931389
0.0286935453931388
0.0286935453931389
0.0286935453931389
0.0286935453931389
0.0286935453931389
0.034931612156689
0.0621984676235524
0.112895416622045
0.176782551859377
0.247560720679301
0.321720679817001
0.397381730712008
0.473612664346867
0.550209410484772
0.627365164097472
0.705226880046329
0.783438199248822
0.860671585908717
0.933641912634818
0.989481828866147
1.01236566881964
1.01685238497453
0.994215682077477
0.938758111202114
0.866153146111499
0.789277411493543
0.711418708245512
0.633903916966679
0.557091937410958
0.480837805621863
0.404948209259882
0.329623106838833
0.255786068148845
0.185303786216822
0.121660600715443
0.0711103849935014
0.0438450247472073
0.0375669224784084
0.0375669224784084
0.0375669224784083
0.0375669224784084
0.0375669224784084
0.0375669224784085
0.0375669224784085
0.0375669224784084
0.0375669224784084
0.0375669224784082
0.0375669224784084
0.0375669224784084
0.0375669224784084
0.0375669224784085
0.0375669224784084
0.0375669224784084
0.0375669224784083
0.0375669224784084
0.0375669224784082
0.0375669224784085
0.0375669224784084
0.0375669224784083
0.0375669224784084
0.0375669224784084
0.0375669224784084
0.0375669224784083
0.0375669224784085
0.0375669224784085
0.0375669224784084
0.0375669224784084
0.0375669224784083
0.0375669224784084
0.0375669224784084
0.0375669224784084
0.0375669224784084
0.0375669224784084
0.0375669224784083
0.0375669224784084
0.0375669224784084
0.0375669224784084
0.0375669224784083
0.0375669224784084
0.0375669224784084
0.0375669224784083
0.0375669224784082
0.0375669224784084
0.0375669224784084
0.0375669224784085
0.0375669224784083
0.0375669224784084
0.0375669224784084
0.0375669224784083
0.0375669224784084
0.0375669224784084
0.0375669224784084
0.0375669224784084
0.0375669224784083
0.0375669224784083
0.0375669224784083
0.0375669224784084
0.0375669224784084
0.0375669224784084
0.0375669224784083
0.0375669224784083
0.0375669224784083
0.0375669224784083
0.0375669224784084
0.0375669224784084
0.0375669224784085
0.0375669224784084
0.0375669224784083
0.0375669224784084
0.0375669224784084
0.0375669224784084
0.0375669224784085
0.0375669224784085
0.0375669224784083
0.0375669224784084
0.0375669224784083
0.0375669224784084
0.0375669224784083
0.0375669224784084
0.0375669224784084
0.0375669224784083
0.0375669224784083
0.0375669224784083
0.0375669224784084
0.0375669224784084
0.0437769052056328
0.0709210184381146
0.121389836067573
0.184989553980243
0.255449320934075
0.329275637977136
0.404596253486204
0.480484169361571
0.556736305971926
0.633545024538965
0.711056651833789
0.788916234229556
0.865801857652036
0.938442876879686
0.994030487919797
1.01681127473065
1.02146065336793
0.998930102279418
0.943733454834835
0.871469682658179
0.794954405487096
0.717460326816916
0.640308469545728
0.563856256676467
0.487959369915414
0.4124253664301
0.337453193433987
0.26396207134297
0.19380996232439
0.130464927113725
0.0801515805420635
0.0530140265432356
0.0467653565313359
0.046765356531336
0.0467653565313359
0.0467653565313357
0.0467653565313359
0.0467653565313358
0.0467653565313358
0.0467653565313358
0.0467653565313358
0.0467653565313359
0.0467653565313359
0.0467653565313358
0.046765356531336
0.046765356531336
0.046765356531336
0.0467653565313359
0.0467653565313358
0.0467653565313359
0.0467653565313359
0.0467653565313359
0.0467653565313358
0.046765356531336
0.0467653565313358
0.0467653565313358
0.0467653565313359
0.0467653565313359
0.0467653565313359
0.0467653565313359
0.0467653565313358
0.0467653565313359
0.0467653565313358
0.0467653565313359
0.0467653565313359
0.046765356531336
0.046765356531336
0.0467653565313359
0.0467653565313359
0.0467653565313359
0.0467653565313358
0.0467653565313359
0.0467653565313359
0.0467653565313359
0.0467653565313358
0.0467653565313357
0.0467653565313357
0.0467653565313358
0.0467653565313358
0.0467653565313358
0.046765356531336
0.0467653565313359
0.0467653565313359
0.0467653565313359
0.0467653565313359
0.0467653565313359
0.0467653565313359
0.0467653565313358
0.0467653565313358
0.0467653565313358
0.0467653565313358
0.0467653565313359
0.0467653565313357
0.0467653565313358
0.0467653565313359
0.0467653565313358
0.0467653565313357
0.0467653565313358
0.0467653565313358
0.0467653565313359
0.0467653565313359
0.0467653565313358
0.046765356531336
0.0467653565313358
0.0467653565313359
0.0467653565313359
0.0467653565313361
0.046765356531336
0.0467653565313359
0.0467653565313359
0.0467653565313358
0.0467653565313358
0.0467653565313359
0.0467653565313358
0.0467653565313359
0.0467653565313359
0.0467653565313358
0.0467653565313358
0.046765356531336
0.0467653565313359
0.0529462263636736
0.0799631014684385
0.130195431026878
0.193497202058415
0.263626901614484
0.337107352440075
0.412075059722219
0.487607390460938
0.563502291007895
0.639951257626839
0.717099965179928
0.794594920109442
0.871120042516178
0.943419703819124
0.99874577758555
1.02141973581113
1.0262377357034
1.00381722540971
0.948891048538603
0.876980954214809
0.800839337138106
0.723723246146842
0.6469476249484
0.570868362335609
0.495341810184874
0.420176427728961
0.345570114806296
0.272437583215318
0.202627743961597
0.139591781828847
0.0895239811724786
0.0625189147811981
0.0563007552782801
0.0563007552782802
0.0563007552782802
0.0563007552782801
0.0563007552782799
0.05630075527828
0.05630075527828
0.0563007552782799
0.0563007552782801
0.05630075527828
0.05630075527828
0.0563007552782801
0.0563007552782801
0.0563007552782801
0.0563007552782801
0.0563007552782801
0.0563007552782802
0.0563007552782802
0.0563007552782801
0.05630075527828
0.0563007552782801
0.05630075527828
0.0563007552782801
0.0563007552782801
0.0563007552782801
0.0563007552782802
0.05630075527828
0.0563007552782801
0.0563007552782802
0.05630075527828
0.0563007552782802
0.05630075527828
0.05630075527828
0.0563007552782803
0.0563007552782801
0.0563007552782802
0.0563007552782802
0.0563007552782801
0.0563007552782802
0.05630075527828
0.0563007552782801
0.05630075527828
0.0563007552782801
0.0563007552782801
0.0563007552782801
0.05630075527828
0.0563007552782802
0.0563007552782801
0.05630075527828
0.0563007552782803
0.0563007552782802
0.0563007552782803
0.0563007552782801
0.0563007552782801
0.0563007552782802
0.0563007552782801
0.0563007552782801
0.05630075527828
0.0563007552782802
0.0563007552782801
0.0563007552782799
0.0563007552782799
0.0563007552782802
0.0563007552782801
0.0563007552782802
0.05630075527828
0.0563007552782801
0.0563007552782802
0.0563007552782801
0.0563007552782802
0.0563007552782801
0.0563007552782803
0.0563007552782801
0.0563007552782801
0.0563007552782802
0.0563007552782802
0.05630075527828
0.0563007552782801
0.0563007552782801
0.0563007552782801
0.05630075527828
0.05630075527828
0.05630075527828
0.0563007552782801
0.0563007552782801
0.0563007552782802
0.0563007552782801
0.0563007552782803
0.0624514456625429
0.0893364220878342
0.139323600774319
0.202316509594855
0.272104048770309
0.345225961323525
0.419827830505703
0.49499154824108
0.570516123477171
0.646592155128019
0.723364641409203
0.800481605645575
0.876633022743391
0.948578835084974
1.00363380202411
1.02619701789298
1.03118981609777
1.00888337807579
0.954237567890989
0.882694092835432
0.806939822036585
0.730215571717609
0.65382997637646
0.578137330819378
0.502994682546142
0.428211426648698
0.353984378258114
0.281223575485395
0.211768546107302
0.149052980021851
0.0992397198675315
0.0723719938931719
0.0661854626557147
0.0661854626557145
0.0661854626557149
0.0661854626557148
0.0661854626557147
0.0661854626557148
0.0661854626557148
0.0661854626557147
0.0661854626557146
0.0661854626557148
0.0661854626557148
0.0661854626557148
0.0661854626557145
0.0661854626557147
0.0661854626557148
0.0661854626557148
0.0661854626557148
0.0661854626557146
0.0661854626557149
0.0661854626557148
0.0661854626557147
0.0661854626557147
0.0661854626557147
0.0661854626557148
0.0661854626557149
0.0661854626557148
0.0661854626557147
0.0661854626557146
0.0661854626557149
0.0661854626557148
0.0661854626557147
0.0661854626557147
0.0661854626557147
0.0661854626557148
0.0661854626557146
0.0661854626557147
0.0661854626557148
0.0661854626557148
0.0661854626557147
0.0661854626557147
0.0661854626557147
0.0661854626557148
0.0661854626557148
0.0661854626557147
0.0661854626557147
0.0661854626557149
0.0661854626557149
0.0661854626557147
0.0661854626557147
0.0661854626557147
0.0661854626557148
0.0661854626557148
0.0661854626557147
0.0661854626557147
0.0661854626557148
0.0661854626557146
0.0661854626557147
0.0661854626557148
0.0661854626557149
0.0661854626557147
0.0661854626557146
0.0661854626557147
0.0661854626557148
0.0661854626557148
0.0661854626557147
0.0661854626557148
0.0661854626557147
0.0661854626557149
0.0661854626557148
0.0661854626557147
0.0661854626557147
0.0661854626557148
0.0661854626557148
0.0661854626557148
0.0661854626557147
0.0661854626557147
0.0661854626557149
0.0661854626557148
0.0661854626557147
0.0661854626557147
0.0661854626557147
0.0661854626557148
0.0661854626557146
0.0661854626557147
0.0661854626557147
0.0661854626557148
0.0661854626557148
0.0661854626557147
0.0723048679628623
0.0990531144696301
0.148786162173304
0.211458893544421
0.280891736239003
0.353641974115372
0.427864601542891
0.502646201042391
0.577786882047949
0.653476312502197
0.729858788282292
0.806583908700386
0.882347932596846
0.953926948236926
1.00870088900891
1.03114930535168
1.03632330520775
1.0141351186467
0.959779932964955
0.888616491741344
0.813263754647483
0.736945705852594
0.66096443176355
0.585672571009131
0.510927893148525
0.436540764209971
0.362706875985129
0.290331421787844
0.221244201901324
0.158860769678039
0.109311374074471
0.0825860190530821
0.0764322747895117
0.0764322747895118
0.0764322747895118
0.0764322747895117
0.0764322747895117
0.0764322747895118
0.0764322747895119
0.0764322747895118
0.0764322747895117
0.0764322747895117
0.0764322747895118
0.0764322747895116
0.0764322747895118
0.0764322747895118
0.0764322747895118
0.0764322747895116
0.0764322747895117
0.0764322747895119
0.0764322747895118
0.0764322747895118
0.0764322747895116
0.0764322747895117
0.0764322747895118
0.0764322747895119
0.0764322747895118
0.0764322747895116
0.0764322747895117
0.0764322747895117
0.0764322747895118
0.0764322747895118
0.0764322747895118
0.0764322747895118
0.0764322747895117
0.0764322747895118
0.0764322747895119
0.0764322747895116
0.0764322747895117
0.0764322747895118
0.0764322747895118
0.0764322747895118
0.0764322747895117
0.0764322747895118
0.0764322747895118
0.0764322747895117
0.0764322747895117
0.0764322747895118
0.0764322747895118
0.0764322747895117
0.0764322747895116
0.0764322747895118
0.0764322747895118
0.0764322747895117
0.0764322747895116
0.0764322747895118
0.0764322747895117
0.0764322747895118
0.0764322747895117
0.0764322747895118
0.0764322747895117
0.0764322747895118
0.0764322747895119
0.0764322747895118
0.0764322747895118
0.0764322747895116
0.0764322747895117
0.0764322747895118
0.0764322747895118
0.0764322747895117
0.0764322747895116
0.0764322747895117
0.0764322747895118
0.0764322747895117
0.0764322747895117
0.0764322747895118
0.0764322747895118
0.0764322747895117
0.0764322747895116
0.0764322747895118
0.0764322747895118
0.0764322747895116
0.0764322747895117
0.0764322747895118
0.0764322747895117
0.0764322747895117
0.0764322747895118
0.0764322747895117
0.0764322747895118
0.0764322747895117
0.0825192488827991
0.109125757295209
0.158595364973909
0.220936189095346
0.290001339850733
0.362366285277032
0.43619577614942
0.510581257320312
0.58532397792082
0.660612640023848
0.736590810484419
0.812909726094616
0.888272167587706
0.959470965402413
1.01395359811779
1.03628300911205
1.04164484852847
1.01957924574327
0.965525317282381
0.894755814883124
0.819819318521218
0.743922358585804
0.668360225301196
0.593483836412546
0.519151710995327
0.445175222423798
0.37174889917485
0.299772912395053
0.23106697796268
0.169027847462625
0.119751981986876
0.0931742126882648
0.0870544565595633
0.0870544565595634
0.0870544565595633
0.0870544565595632
0.0870544565595632
0.0870544565595631
0.0870544565595633
0.0870544565595633
0.0870544565595632
0.0870544565595632
0.0870544565595631
0.0870544565595634
0.0870544565595633
0.0870544565595631
0.0870544565595633
0.0870544565595633
0.0870544565595633
0.0870544565595632
0.0870544565595632
0.0870544565595632
0.0870544565595633
0.0870544565595631
0.0870544565595632
0.0870544565595633
0.0870544565595633
0.0870544565595632
0.0870544565595632
0.0870544565595632
0.0870544565595633
0.0870544565595632
0.0870544565595633
0.0870544565595634
0.0870544565595631
0.0870544565595632
0.0870544565595632
0.0870544565595633
0.0870544565595631
0.0870544565595632
0.0870544565595632
0.0870544565595634
0.0870544565595631
0.0870544565595633
0.0870544565595632
0.0870544565595632
0.0870544565595632
0.0870544565595632
0.0870544565595633
0.0870544565595633
0.0870544565595633
0.0870544565595633
0.0870544565595632
0.0870544565595631
0.0870544565595632
0.0870544565595632
0.0870544565595633
0.0870544565595632
0.0870544565595631
0.0870544565595632
0.0870544565595634
0.0870544565595631
0.0870544565595632
0.0870544565595633
0.0870544565595632
0.0870544565595632
0.0870544565595632
0.0870544565595632
0.0870544565595632
0.0870544565595631
0.0870544565595633
0.0870544565595632
0.0870544565595633
0.0870544565595631
0.0870544565595632
0.0870544565595632
0.0870544565595632
0.0870544565595632
0.0870544565595633
0.0870544565595631
0.0870544565595633
0.0870544565595632
0.0870544565595632
0.0870544565595631
0.0870544565595632
0.0870544565595632
0.0870544565595632
0.0870544565595632
0.0870544565595632
0.0870544565595632
0.0931078113102029
0.119567390037461
0.168763907670752
0.230760664990132
0.299444652153919
0.371410188344743
0.444832138715494
0.518806988468699
0.593137167007748
0.668010374311155
0.743569420498203
0.819467243820773
0.894413394040354
0.965218062232552
1.01939872922453
1.04160477494719
1.04716133499617
1.02522280703912
0.971481157095462
0.901120006852762
0.826614996878092
0.751154558929418
0.676026929386953
0.601581237785437
0.527676781234032
0.454125978246541
0.381122152621521
0.309560269479038
0.241249590268969
0.179567375157214
0.130575059422958
0.104150281595859
0.0980657587711814
0.0980657587711816
0.0980657587711815
0.0980657587711813
0.0980657587711817
0.0980657587711818
0.0980657587711815
0.0980657587711815
0.0980657587711815
0.0980657587711816
0.0980657587711817
0.0980657587711814
0.0980657587711815
0.0980657587711818
0.0980657587711817
0.0980657587711813
0.0980657587711815
0.0980657587711816
0.0980657587711814
0.0980657587711814
0.0980657587711813
0.0980657587711816
0.0980657587711815
0.0980657587711815
0.0980657587711815
0.0980657587711815
0.0980657587711817
0.0980657587711817
0.0980657587711814
0.0980657587711814
0.0980657587711815
0.0980657587711816
0.0980657587711815
0.0980657587711814
0.0980657587711814
0.0980657587711817
0.0980657587711817
0.0980657587711814
0.0980657587711815
0.0980657587711814
0.0980657587711816
0.0980657587711815
0.0980657587711814
0.0980657587711814
0.0980657587711817
0.0980657587711817
0.0980657587711815
0.0980657587711814
0.0980657587711816
0.0980657587711815
0.0980657587711815
0.0980657587711816
0.0980657587711813
0.0980657587711814
0.0980657587711815
0.0980657587711814
0.0980657587711816
0.0980657587711816
0.0980657587711817
0.0980657587711816
0.0980657587711813
0.0980657587711815
0.0980657587711814
0.0980657587711815
0.0980657587711813
0.0980657587711814
0.0980657587711815
0.0980657587711816
0.0980657587711814
0.0980657587711814
0.0980657587711815
0.0980657587711816
0.0980657587711815
0.0980657587711816
0.0980657587711818
0.0980657587711813
0.0980657587711815
0.0980657587711818
0.0980657587711816
0.0980657587711815
0.0980657587711814
0.0980657587711815
0.0980657587711816
0.0980657587711816
0.0980657587711815
0.0980657587711815
0.0980657587711816
0.0980657587711818
0.104084262519596
0.130391529840764
0.179304953941854
0.240945039407689
0.309233897680031
0.380785390547532
0.45378486866384
0.527334042113305
0.601236562556979
0.675679090277343
0.750803649874214
0.826264947630814
0.900779559007248
0.971175677186591
1.02504333130164
1.04712149208147
1.05287990590589
1.0310731083842
0.977655161007998
0.907717303158708
0.833659583580265
0.758651666553931
0.683974467010016
0.60997525621586
0.536514138933211
0.463404618045992
0.390838769876332
0.319706162932367
0.251805220617446
0.190492996698406
0.141794617322148
0.115528434686189
0.109480435955505
0.109480435955505
0.109480435955504
0.109480435955504
0.109480435955505
0.109480435955505
0.109480435955505
0.109480435955504
0.109480435955504
0.109480435955505
0.109480435955505
0.109480435955505
0.109480435955504
0.109480435955505
0.109480435955505
0.109480435955505
0.109480435955505
0.109480435955504
0.109480435955504
0.109480435955505
0.109480435955504
0.109480435955504
0.109480435955504
0.109480435955505
0.109480435955505
0.109480435955504
0.109480435955505
0.109480435955505
0.109480435955505
0.109480435955505
0.109480435955505
0.109480435955505
0.109480435955504
0.109480435955505
0.109480435955504
0.109480435955505
0.109480435955505
0.109480435955504
0.109480435955505
0.109480435955505
0.109480435955504
0.109480435955504
0.109480435955505
0.109480435955504
0.109480435955505
0.109480435955505
0.109480435955504
0.109480435955505
0.109480435955505
0.109480435955505
0.109480435955504
0.109480435955504
0.109480435955505
0.109480435955505
0.109480435955505
0.109480435955504
0.109480435955504
0.109480435955505
0.109480435955505
0.109480435955505
0.109480435955505
0.109480435955504
0.109480435955504
0.109480435955504
0.109480435955504
0.109480435955505
0.109480435955504
0.109480435955504
0.109480435955504
0.109480435955505
0.109480435955504
0.109480435955505
0.109480435955505
0.109480435955505
0.109480435955505
0.109480435955505
0.109480435955504
0.109480435955505
0.109480435955505
0.109480435955504
0.109480435955504
0.109480435955504
0.109480435955505
0.109480435955505
0.109480435955504
0.109480435955504
0.109480435955505
0.109480435955505
0.115462811916171
0.141612189019254
0.190232149689724
0.251502496427254
0.31938174876759
0.390504027960665
0.463065554919007
0.536173455891746
0.609632648240369
0.683628713519534
0.758302860914547
0.833311634011342
0.907378900547565
0.977351521155675
1.03089471154545
1.05284030210863
1.0588079641559
1.03713772326253
0.984055319948848
0.914556240877113
0.840962194505483
0.766423383896008
0.692213124590455
0.618676756687335
0.545675223364012
0.473023152597327
0.400911328952549
0.33022372676861
0.262747533689086
0.201818855840574
0.15342517988263
0.127323401376096
0.121313264821945
0.121313264821944
0.121313264821944
0.121313264821944
0.121313264821944
0.121313264821944
0.121313264821944
0.121313264821944
0.121313264821944
0.121313264821945
0.121313264821945
0.121313264821944
0.121313264821944
0.121313264821944
0.121313264821944
0.121313264821945
0.121313264821945
0.121313264821944
0.121313264821944
0.121313264821944
0.121313264821945
0.121313264821944
0.121313264821944
0.121313264821945
0.121313264821945
0.121313264821944
0.121313264821944
0.121313264821944
0.121313264821944
0.121313264821945
0.121313264821945
0.121313264821945
0.121313264821944
0.121313264821944
0.121313264821944
0.121313264821944
0.121313264821944
0.121313264821944
0.121313264821945
0.121313264821945
0.121313264821944
0.121313264821944
0.121313264821944
0.121313264821944
0.121313264821944
0.121313264821944
0.121313264821944
0.121313264821944
0.121313264821945
0.121313264821945
0.121313264821944
0.121313264821944
0.121313264821944
0.121313264821945
0.121313264821944
0.121313264821944
0.121313264821944
0.121313264821944
0.121313264821944
0.121313264821945
0.121313264821945
0.121313264821944
0.121313264821944
0.121313264821944
0.121313264821944
0.121313264821944
0.121313264821944
0.121313264821944
0.121313264821944
0.121313264821944
0.121313264821944
0.121313264821945
0.121313264821945
0.121313264821944
0.121313264821944
0.121313264821944
0.121313264821944
0.121313264821944
0.121313264821944
0.121313264821944
0.121313264821944
0.121313264821944
0.121313264821944
0.121313264821944
0.121313264821944
0.121313264821944
0.121313264821944
0.121313264821944
0.127258189429763
0.153243893196158
0.201559640706639
0.262446703095426
0.329901341965737
0.400578681214017
0.472686210906598
0.545336671738445
0.61833629171996
0.691869533161453
0.766076758783965
0.840616421560841
0.91421995838128
0.983753587439543
1.03696044483563
1.05876860823659
1.06495318383072
1.0434245025963
0.990689917510767
0.921645669693115
0.848532279337286
0.774479768709684
0.700753565288591
0.627697002138842
0.555171892804688
0.482994032628262
0.411352868605896
0.341126576123528
0.274090694737762
0.21355961446568
0.165481803363276