/*--------------------------------*- C++ -*----------------------------------*\
  =========                 |
  \\      /  F ield         | OpenFOAM: The Open Source CFD Toolbox
   \\    /   O peration     | Website:  https://openfoam.org
    \\  /    A nd           | Version:  7
     \\/     M anipulation  |
\*---------------------------------------------------------------------------*/
FoamFile
{
    version     2.0;
    format      ascii;
    class       volScalarField;
    location    "0";
    object      Cz;
}
// * * * * * * * * * * * * * * * * * * * * * * * * * * * * * * * * * * * * * //

dimensions      [0 1 0 0 0 0 0];

internalField   nonuniform List<scalar> 
15600
(
1.9606302401165e-18
4.28465531445943e-18
2.80975834292408e-17
2.96882509255082e-18
0
9.22711468570567e-20
4.79375066315208e-18
-9.31122561921053e-20
-1.14641557442395e-15
-1.14505738378448e-15
-1.17335577427679e-17
-5.90245557675926e-18
5.33486344476747e-18
2.33270662772012e-18
-2.05829740381952e-18
-3.98788897470424e-18
0
0
0
0
0
0
4.01376680808357e-18
-2.05507016742668e-18
0
-2.05507016742673e-18
-2.28430440058924e-16
-2.33148661542057e-16
0
-2.05507016742674e-18
9.63735267699758e-20
-2.38320296788982e-16
-2.43884065642562e-16
9.63735267699755e-20
9.63735267699746e-20
9.6373526769976e-20
9.63735267699779e-20
9.63735267699735e-20
2.36457973675091e-16
2.31803401926696e-16
0
4.11014033485365e-18
6.16521050228013e-18
-2.0550701674266e-18
0
0
-2.38416670315752e-16
-2.38905558440892e-16
-1.95869664065688e-18
0
9.63735267699759e-20
0
-2.32540580393779e-16
-2.32387900105471e-16
0
-2.05507016742683e-18
0
-9.63735267699764e-20
-4.01376680808355e-18
-9.63735267699766e-20
0
0
-1.9586966406568e-18
4.01376680808356e-18
0
0
-4.01376680808327e-18
2.1514436941968e-18
0
0
2.05507016742677e-18
-4.11014033485355e-18
2.32347833340251e-16
4.72319864777218e-16
2.33889145182791e-16
0
0
0
-2.05507016742683e-18
2.34402903507665e-16
2.33879678213474e-16
-4.01376680808328e-18
4.01376680808381e-18
9.63735267699745e-20
-2.05507016742688e-18
0
0
0
-2.05507016742662e-18
-2.05507016742673e-18
-9.63735267699744e-20
-9.63735267699754e-20
0
0
9.6373526769978e-20
9.63735267699752e-20
0
4.84475380140615e-16
4.7417103716849e-16
-4.11014033485375e-18
2.05507016742665e-18
4.0137668080835e-18
-1.95869664065687e-18
0
0
0
-6.89583632206355e-18
9.82148925538733e-20
-5.99355413629752e-18
0
3.47065775773034e-18
-3.7416789224723e-18
8.45320906901196e-18
-6.90879681292237e-18
1.05014289634548e-17
1.00827454670378e-19
-4.35192830016528e-18
0
4.3840008518762e-18
2.05726575459115e-18
9.63886113849178e-20
2.11185412905484e-18
5.37661254516148e-18
0
-3.10652949799933e-18
5.14836641789359e-18
0
-8.04833701633652e-18
1.18480901486686e-15
1.03896033711911e-15
1.44928294388561e-17
-2.69910025227831e-18
-1.90874297652851e-19
-9.38239739485972e-18
-6.34184554060031e-18
2.07036787383664e-18
0
-2.08291456813245e-18
2.08291456813241e-18
1.92762572515817e-19
0
-1.92762572515815e-19
0
4.16582913626448e-18
0
0
2.27316185807653e-16
2.22577623147618e-16
0
0
0
2.33564929512044e-16
2.36958843326869e-16
2.08291456813244e-18
4.16582913626506e-18
0
-1.92762572515813e-19
0
-2.23728644388914e-16
-2.24995783634059e-16
-2.08291456813245e-18
-2.27567714064837e-18
6.05598113188159e-18
0
0
0
2.35262318935129e-16
2.35596761565456e-16
-1.92762572515816e-19
-2.08291456813239e-18
0
-2.08291456813252e-18
2.22031254965809e-16
2.19724888531443e-16
0
-6.05598113188187e-18
0
1.92762572515821e-19
0
-1.89015199561649e-18
-6.05598113188165e-18
-3.78030399123337e-18
-2.08291456813228e-18
4.16582913626506e-18
-1.92762572515822e-19
-3.58754141871768e-18
0
0
3.78030399123344e-18
-1.92762572515812e-19
-5.86321855936584e-18
0
-2.15589748688928e-16
-4.50178758815984e-16
-2.25124792034744e-16
6.05598113188175e-18
0
-5.86321855936605e-18
0
-2.25811558957066e-16
-2.23127165211239e-16
0
0
-2.08291456813237e-18
0
2.08291456813244e-18
2.08291456813254e-18
2.27567714064821e-18
-3.78030399123327e-18
-1.92762572515817e-19
4.16582913626468e-18
1.92762572515816e-19
0
6.05598113188143e-18
-6.24874370439764e-18
0
-6.05598113188139e-18
-4.50466542479023e-16
-4.59163629395206e-16
3.97306656374902e-18
0
0
-1.92762572515806e-19
5.86321855936569e-18
0
1.79136106513167e-18
0
1.94566859106456e-19
1.24914450468201e-18
-3.37222594314712e-18
-1.95428234118919e-19
5.74507299705718e-18
-6.03349796340262e-18
4.63067981795349e-18
-2.28176871108935e-18
0
-5.51655076054597e-18
5.1837078436961e-18
0
0
1.72940160353357e-18
-2.22776966078335e-18
3.15532095307884e-18
-1.11857848428094e-17
5.06567074180032e-18
-2.38661641075865e-18
6.78503069844468e-18
-6.00209583406918e-18
5.53668257228357e-18
1.89945229031356e-19
5.93417519510864e-18
7.15230994321473e-18
-5.14942997458125e-18
9.06299075845332e-18
-2.10819457328582e-18
-3.81697019067866e-18
0
1.92763146983502e-19
0
0
-1.92763146983501e-19
1.82403009498485e-18
0
0
-4.03358648393695e-18
-2.01679324196835e-18
-1.92763146983502e-19
-1.82403009498494e-18
-1.92763146983507e-19
0
-2.01679324196852e-18
-3.84082333695353e-18
-5.85761657892148e-18
0
0
3.8408233369534e-18
0
0
-3.84082333695335e-18
1.92763146983502e-19
0
2.01679324196858e-18
1.82403009498485e-18
0
-3.84082333695321e-18
-2.0167932419686e-18
0
0
-1.92763146983502e-19
-4.0335864839367e-18
0
0
-1.92763146983508e-19
2.01679324196848e-18
0
0
-2.01679324196847e-18
-5.85761657892184e-18
0
1.92763146983503e-19
1.92763146983503e-19
0
1.92763146983505e-19
0
-3.84082333695338e-18
1.92763146983501e-19
5.85761657892165e-18
-5.85761657892232e-18
3.84082333695347e-18
4.03358648393694e-18
0
2.20955638895205e-18
-1.82403009498495e-18
4.03358648393693e-18
1.92763146983504e-19
1.92763146983496e-19
-2.01679324196837e-18
0
0
4.03358648393689e-18
1.92763146983507e-19
1.92763146983498e-19
-5.85761657892234e-18
2.01679324196849e-18
0
-3.84082333695339e-18
-4.03358648393712e-18
0
0
3.64806018996992e-18
0
-5.66485343193838e-18
0
-2.01679324196855e-18
1.92763146983504e-19
-1.92763146983504e-19
0
-1.92763146983492e-19
-2.01679324196856e-18
-1.92763146983499e-19
0
3.8408233369534e-18
-1.82403009498495e-18
0
-7.63491216449913e-18
5.74596461669068e-18
0
-1.94564826515017e-19
5.95646729034514e-18
-3.06089663203449e-18
3.31252288320272e-18
-1.78162550144489e-18
-4.06924642641008e-18
-8.7343745083702e-18
0
-5.25173642018481e-18
-8.44471168503335e-18
-9.96985638473317e-18
0
0
-1.76192406883626e-18
0
-5.17519426219418e-18
-8.12475586923719e-18
1.88180555735318e-19
2.29666231461822e-18
6.54569094428697e-18
0
1.52680355636676e-18
0
-1.66524779390116e-18
0
-7.55223055891487e-18
3.99475730381333e-18
-4.27376845080109e-18
0
1.76024534132477e-18
1.92763742943456e-19
0
1.76024534132487e-18
1.95300908426832e-18
0
-1.9276374294346e-19
0
0
0
0
-1.95300908426823e-18
3.71325442559319e-18
-3.71325442559301e-18
0
-1.95300908426836e-18
-1.92763742943459e-19
-1.95300908426842e-18
0
-1.95300908426842e-18
-3.90601816853646e-18
2.14577282721178e-18
-1.92763742943461e-19
1.92763742943455e-19
-3.71325442559297e-18
0
0
0
1.76024534132475e-18
1.95300908426831e-18
1.92763742943455e-19
0
3.71325442559318e-18
0
1.95300908426832e-18
-2.80548577623076e-16
-2.889917062349e-16
0
0
1.95300908426823e-18
0
5.47349976691775e-18
5.85902725280498e-18
0
-1.95300908426833e-18
2.14577282721177e-18
0
0
0
0
0
2.84069068305739e-16
2.85471215552237e-16
-1.95300908426833e-18
-1.76024534132479e-18
0
0
0
-1.9530090842683e-18
-1.76024534132476e-18
-1.95300908426822e-18
0
-1.95300908426834e-18
-1.92763742943458e-19
2.14577282721178e-18
-1.76024534132476e-18
-1.76024534132488e-18
-1.95300908426823e-18
5.47349976691807e-18
5.47349976691778e-18
1.92763742943458e-19
0
-1.95300908426831e-18
0
-5.47349976691778e-18
0
0
1.92763742943455e-19
2.14577282721176e-18
0
-1.9530090842683e-18
0
0
1.95300908426822e-18
1.92763742943451e-19
-1.95300908426822e-18
-1.95300908426831e-18
1.92763742943462e-19
-1.93011228774423e-19
2.23538120627478e-18
-8.56098544738782e-18
4.77743105685458e-18
0
-1.95188771788412e-19
0
-1.91148619322403e-18
0
8.21916772911619e-18
9.18145712598497e-18
0
1.97176488665535e-19
7.87780008203435e-18
0
-1.95493692041125e-18
1.70031480609238e-18
0
4.99042372973352e-18
5.4669850008908e-18
0
-6.62974460989705e-18
3.76874410909684e-18
-1.98577906701799e-18
-6.4225442374653e-18
-1.89949054501612e-19
-1.61120085433638e-18
-1.90493415292634e-19
-2.3041942119205e-18
-6.43890104472737e-18
-1.59231597575173e-18
-3.56822497815447e-18
0
5.28890984959158e-18
1.92764361216977e-19
0
-1.92764361216971e-19
-3.59019468680003e-18
1.8914795240085e-18
0
5.28890984959158e-18
0
0
0
0
0
-1.8914795240086e-18
1.92764361216971e-19
0
0
0
0
-9.26463325882554e-18
1.89147952400861e-18
-1.89147952400851e-18
0
0
-3.59019468680025e-18
0
-1.92764361216971e-19
0
-1.89147952400851e-18
0
0
0
0
0
2.76107570169744e-16
2.76620848734328e-16
-3.59019468680008e-18
0
-1.69871516279154e-18
0
0
0
0
0
0
0
0
0
0
1.89147952400854e-18
-2.72517375482961e-16
-2.82295287306339e-16
0
0
1.92764361216975e-19
1.89147952400862e-18
0
0
-7.18038937360018e-18
0
-1.8914795240085e-18
0
0
1.9276436121697e-19
1.69871516279155e-18
0
0
3.5901946868e-18
-3.59019468680009e-18
-1.89147952400864e-18
5.48167421080864e-18
0
0
5.28890984959148e-18
5.28890984959157e-18
0
1.9276436121697e-19
0
0
-7.18038937360046e-18
-7.37315373481694e-18
3.78295904801699e-18
0
0
0
-1.89147952400849e-18
0
1.93012016342164e-19
-3.56654794598455e-18
0
2.49736698271523e-18
0
-1.03332794315066e-17
1.95409369056852e-19
-1.45680631361623e-18
-5.77834400671005e-18
1.78165752446852e-18
-4.41734052450909e-18
4.86063925954314e-18
-5.2874554559166e-18
0
-5.88485125481423e-18
1.89332441984688e-18
0
-1.63648721273323e-18
-2.1229244484534e-18
9.98329878709046e-18
-7.20425340348993e-18
-6.37878468101316e-18
0
-9.21567881618107e-18
-3.79456784683515e-19
-1.67041682114154e-18
-5.28531137594e-18
-7.6661423026833e-18
4.44253587714718e-18
-4.08545797582126e-18
-3.8375691365935e-19
0
0
-1.83212490890108e-18
6.94296963028898e-18
1.76951915221984e-16
1.77911919019846e-16
0
0
-1.92765002658018e-19
-5.30360972404561e-18
-1.83212490890118e-18
0
0
1.6393599062431e-18
0
0
0
0
0
0
1.63935990624311e-18
0
0
-1.83212490890121e-18
0
-1.83212490890112e-18
0
3.47148481514425e-18
1.63935990624311e-18
0
0
-3.47148481514438e-18
0
1.83212490890111e-18
0
0
0
3.85701482046055e-18
-7.13573463294618e-18
0
3.47148481514422e-18
0
1.92765002658019e-19
0
-3.47148481514424e-18
-8.77509453919051e-18
0
-1.83212490890121e-18
1.83212490890121e-18
-1.92765002658016e-19
0
0
5.30360972404576e-18
-1.92765002658019e-19
0
-3.4714848151442e-18
0
5.1108447213878e-18
0
1.83212490890127e-18
-3.47148481514422e-18
-7.13573463294685e-18
-5.30360972404536e-18
0
0
1.92765002658025e-19
0
1.83212490890121e-18
0
-3.47148481514425e-18
3.4714848151444e-18
0
1.92765002658025e-19
-3.47148481514414e-18
0
1.83212490890111e-18
0
0
-5.11084472138723e-18
0
0
0
-3.4714848151445e-18
1.81869994940706e-16
1.7302552693705e-16
0
-5.30360972404548e-18
0
0
-1.82195321991808e-18
-8.54757975829878e-16
-7.91962917808616e-16
-6.85436393126567e-18
3.89805776989872e-19
0
6.31052064706694e-18
3.18248833226573e-18
5.18606463780998e-18
5.90739343159614e-18
-6.57186494716099e-18
7.01325799243107e-18
0
0
-7.51198290284777e-18
-1.64096813380416e-18
-9.63916124142659e-20
0
0
4.52318804180781e-18
8.99756327211993e-18
-6.13678158278171e-18
-5.68848600661815e-18
1.01793075159253e-17
0
2.66161957493705e-18
0
-4.99268707817531e-18
4.28254840987933e-18
3.94716147793416e-18
-7.02874061903536e-18
8.24562805245322e-18
1.58210273412879e-18
4.93907387054062e-18
1.77486840228344e-18
-1.73911368587489e-16
-1.70155871202613e-16
1.77486840228343e-18
-4.93907387054035e-18
0
0
0
0
1.92765668154659e-19
0
0
0
3.5497368045667e-18
0
-1.96763407043792e-18
1.92765668154659e-19
0
1.92765668154658e-19
-1.77486840228337e-18
-6.52117660466949e-18
1.92765668154659e-19
-1.77486840228333e-18
5.13183953869556e-18
1.77486840228337e-18
-1.92765668154657e-19
3.16420546825749e-18
0
1.77486840228335e-18
1.77486840228337e-18
0
-1.92765668154654e-19
0
0
0
0
-1.58210273412872e-18
-3.54973680456673e-18
0
0
3.54973680456682e-18
0
0
-1.77486840228331e-18
1.92765668154661e-19
0
3.54973680456673e-18
0
0
0
6.71394227282416e-18
-1.58210273412881e-18
0
-1.92765668154662e-19
3.35697113641226e-18
0
0
-1.92765668154662e-19
0
-1.77486840228337e-18
-1.7748684022834e-18
0
0
3.35697113641206e-18
0
0
0
0
6.71394227282402e-18
3.35697113641224e-18
1.58210273412869e-18
5.13183953869578e-18
0
-4.93907387054043e-18
-1.77486840228354e-18
-6.90670794097831e-18
-6.71394227282438e-18
0
1.77486840228331e-18
0
-1.70747163119213e-16
-1.7011980561536e-16
0
-1.77486840228345e-18
3.54973680456674e-18
0
-1.76512740180614e-18
7.86214221653498e-16
8.23883044770466e-16
-2.33455052144808e-18
2.39989870848004e-18
-8.103435456341e-18
1.81606202181153e-18
6.3245412678646e-18
8.71287223635558e-18
0
4.08890064800649e-18
2.24849555422748e-18
1.6685109828062e-17
-9.10545125500959e-18
0
0
0
0
6.61744330213216e-18
0
-1.97507613830354e-18
-8.05984740722697e-18
-1.8908582670632e-19
-3.58445991086025e-18
-8.90864023070646e-16
-9.09524004771388e-16
2.92056845415226e-18
2.12302808149513e-18
0
-1.61986737181022e-18
3.2060221671313e-18
1.92519292022359e-19
-2.37304120830478e-16
-2.43227749731341e-16
0
-3.05373905004519e-18
1.92766358630492e-19
0
-1.92766358630499e-19
0
3.24650540867546e-18
1.52686952502259e-18
-3.24650540867567e-18
0
1.927663586305e-19
0
1.74687208960528e-16
1.76123940335798e-16
-6.68577717598198e-18
3.43927176730623e-18
0
1.71963588365307e-18
0
-3.24650540867564e-18
0
1.92766358630498e-19
0
0
0
0
-1.52686952502261e-18
4.96614129232872e-18
1.69721067668191e-16
1.71620365122126e-16
1.92766358630496e-19
-1.71963588365302e-18
8.01988034237429e-18
4.77337493369834e-18
-6.49301081735135e-18
-6.68577717598177e-18
-1.71963588365297e-18
0
3.24650540867563e-18
-1.71963588365307e-18
1.71963588365307e-18
-1.71963588365304e-18
1.52686952502271e-18
0
1.92766358630493e-19
0
-1.71963588365308e-18
-1.71963588365303e-18
0
3.24650540867579e-18
0
-6.49301081735132e-18
0
0
-1.92766358630493e-19
0
0
0
3.24650540867572e-18
-4.96614129232873e-18
-3.24650540867571e-18
-1.92766358630491e-19
1.92766358630499e-19
0
0
0
6.68577717598195e-18
-1.92766358630495e-19
1.91240224228371e-18
-3.05373905004522e-18
1.92766358630491e-19
0
-1.52686952502248e-18
0
6.68577717598223e-18
-6.49301081735089e-18
8.21264670100487e-18
0
1.7196358836531e-18
0
-1.92766358630501e-19
0
0
3.2465054086757e-18
0
0
1.71031048310719e-18
-1.79583175337952e-18
0
0
2.31237467969435e-18
5.46858456788572e-18
2.74510360343051e-18
2.75504426431868e-18
-1.79791615548025e-18
7.24908144839889e-18
-1.17411840752772e-15
-1.2379770536207e-15
0
-4.48507060225884e-18
0
6.49914965814963e-18
-6.0923809113966e-18
-3.27874524196345e-18
1.68533399118652e-18
-2.55552522002114e-18
1.89205103251173e-18
-3.97422708808232e-18
0
-1.73224691576769e-18
9.32277530016037e-16
7.97454820579791e-16
4.70302347132618e-18
-4.26760922766663e-18
0
1.74685943109897e-18
4.83238266912517e-18
0
3.86174560359458e-16
3.81871871372226e-16
0
-1.53266109271179e-16
-1.55012410981532e-16
-6.08712218574392e-18
0
0
-1.66635585272063e-18
0
0
0
0
1.50126164640784e-16
-1.03786311403583e-17
-1.58472960803024e-16
-6.27988926078997e-18
0
0
1.47358877767443e-18
-4.80630048311587e-18
-1.92767075046219e-19
0
-1.60826820234608e-16
-6.6952793742405e-18
1.56343008078061e-16
6.27988926079005e-18
-1.66635585272063e-18
0
-6.27988926079008e-18
-1.62107641937226e-16
-1.64136792068895e-16
0
1.47358877767439e-18
0
-1.6663558527207e-18
3.13994463039504e-18
0
0
-4.61353340806996e-18
0
4.80630048311573e-18
0
1.92767075046217e-19
-1.9276707504622e-19
1.92767075046219e-19
-1.66635585272064e-18
-3.13994463039505e-18
-6.2798892607903e-18
0
0
0
0
0
0
0
0
0
3.24408050949511e-16
3.17259756013622e-16
0
1.92767075046218e-19
-1.54546930973806e-16
-1.52222078613552e-16
0
1.66635585272065e-18
1.6663558527207e-18
-1.66635585272062e-18
0
0
6.27988926079037e-18
0
1.66635585272064e-18
0
1.92767075046214e-19
0
0
-6.27988926079006e-18
1.60826820234619e-16
1.54070484466965e-16
1.66635585272061e-18
0
1.66635585272063e-18
0
-1.92767075046213e-19
0
0
1.4735887776744e-18
-1.65743150183235e-18
0
1.55162986621825e-18
1.98849470844384e-18
-4.45590017483308e-18
-2.83592256562892e-18
-5.28681677924224e-18
1.95587245815616e-19
3.08420222165954e-18
-5.09010408752842e-18
1.06892305417791e-15
1.23732992647019e-15
-6.73416575122164e-18
1.23855701017701e-17
-6.95351302422938e-18
0
0
1.58107395704923e-18
8.13216449004527e-18
-6.28723227736581e-18
-4.00047174782941e-18
1.88634149751907e-19
0
4.45481447353684e-18
5.28229735123511e-18
7.63871198013969e-18
1.90199269520772e-19
1.90497597402654e-19
1.7269946978111e-18
-5.2456981585927e-18
1.49264347650879e-18
6.03868214581394e-18
-1.50341082768586e-16
-1.48368122103541e-16
0
1.51956042105441e-16
1.48164474982838e-16
8.9186847475154e-18
-3.03715085530539e-18
1.54800425142346e-16
1.63472283251574e-16
0
0
-2.84438303690433e-18
0
-1.48918891250144e-16
-1.4887854126272e-16
0
2.84438303690414e-18
-4.26657455535649e-18
-1.22942370005087e-18
0
0
1.9276781840122e-19
3.03715085530536e-18
1.46460043850033e-16
-5.07679981987924e-18
-1.48507868959893e-16
3.03715085530535e-18
0
0
0
0
0
-1.92767818401221e-19
0
-4.65211019215875e-18
-5.88153389220979e-18
4.26657455535649e-18
-2.84438303690413e-18
0
0
-1.80772715525459e-18
1.92767818401216e-19
0
0
0
6.07430171061082e-18
4.65211019215856e-18
0
0
0
6.07430171061078e-18
1.80772715525457e-18
3.22991867370662e-18
0
0
-1.61495933685329e-18
0
3.22991867370663e-18
-3.10179153739911e-16
-3.13843378800993e-16
-4.45934237375753e-18
-6.26706952901198e-18
1.48075003186889e-16
3.12226978849771e-16
1.59051364147931e-16
0
1.61495933685331e-18
-1.92767818401224e-19
-1.63526342071468e-16
-1.71502003287798e-16
0
0
0
6.07430171061077e-18
0
1.6149593368533e-18
4.65211019215888e-18
-1.92767818401219e-19
-1.4484508451319e-16
-1.50379888335979e-16
6.07430171061072e-18
-2.84438303690438e-18
0
-1.92767818401214e-19
3.22991867370658e-18
0
0
-1.6149593368533e-18
0
1.93639819671639e-19
1.94135161854327e-19
1.94548443813893e-19
-2.34140087427618e-18
0
-5.09064757886518e-18
0
1.28844001829645e-18
9.99149389954827e-18
-5.85160839646369e-18
5.99833429481368e-18
2.09552907155852e-18
-1.96507741084652e-19
-6.52545524448844e-18
7.50338122599986e-18
0
1.10556744733566e-17
-4.01177638840761e-18
-1.63891595153008e-18
-4.03437932880669e-18
-1.88642062725557e-19
0
0
-2.63385673306385e-18
-2.45159972971636e-18
0
0
-1.84860762036528e-18
1.91339139993912e-19
-2.88073548262241e-18
1.92521357208987e-19
-3.13075960358408e-18
0
0
0
0
5.87598202769751e-18
0
-1.55035373710682e-16
-1.51974100648248e-16
-5.68321343796192e-18
-3.13075960358387e-18
0
2.93799101384875e-18
2.93799101384878e-18
1.92768589735268e-19
0
0
0
0
-2.93799101384873e-18
9.00674163128193e-18
-2.9379910138489e-18
2.74522242411348e-18
-2.93799101384894e-18
1.92768589735262e-19
0
0
2.74522242411334e-18
-2.93799101384875e-18
0
0
-3.13075960358405e-18
0
0
0
0
0
-1.92768589735264e-19
0
0
-2.74522242411362e-18
0
2.93799101384872e-18
0
0
0
1.92768589735266e-19
0
0
-5.87598202769751e-18
0
0
0
0
0
0
0
2.55245383437825e-18
1.92768589735269e-19
-2.93799101384887e-18
2.93799101384889e-18
0
0
-1.5248291987631e-16
-1.49546961572394e-16
1.19447326451301e-17
1.92768589735263e-19
2.74522242411364e-18
1.49352160272719e-16
1.57894848235892e-16
-2.93799101384873e-18
-1.92768589735255e-19
2.74522242411349e-18
0
0
-8.62120445181151e-18
8.62120445181094e-18
-5.87598202769751e-18
0
1.92768589735266e-19
-1.92768589735264e-19
0
0
1.92768589735272e-19
1.92768589735263e-19
0
0
8.62120445181011e-18
0
-6.14585039682283e-18
-1.6238985989651e-18
-3.69504413913497e-18
-2.4577267562578e-18
1.95147133193791e-19
-2.64608833418591e-18
0
1.82016392145565e-18
2.94522974679369e-18
3.89271888938925e-18
1.72535342200228e-18
4.03005059455597e-18
-5.73803786321903e-18
0
-3.13356894138984e-18
0
-6.07325208520081e-18
-1.88818346725574e-19
0
0
0
-4.5354031642663e-18
5.50135993022957e-18
0
-4.72064884944004e-18
-6.74628457002841e-18
0
1.97267117050295e-18
-8.21839684134126e-18
1.38993966095577e-18
-1.92522098225376e-19
6.97758950205139e-16
7.1677769037008e-16
-1.92769390130301e-19
5.68467348183882e-18
0
0
1.92769390130296e-19
-5.68467348183856e-18
-1.92769390130301e-19
0
0
2.84233674091942e-18
-5.68467348183853e-18
-2.64956735078909e-18
-2.84233674091938e-18
1.92769390130292e-19
0
0
-5.49190409170824e-18
1.92769390130295e-19
0
-5.49190409170794e-18
-2.84233674091928e-18
-1.92769390130294e-19
0
0
-5.49190409170848e-18
0
-5.49190409170796e-18
-7.08935527778709e-16
-7.14311304125331e-16
0
-3.85538780260602e-19
-1.92769390130296e-19
-5.68467348183853e-18
-5.6846734818388e-18
-2.64956735078924e-18
-1.92769390130301e-19
-7.13849123699981e-16
-7.14944582112551e-16
0
-3.22787552117987e-18
5.68467348183826e-18
-1.92769390130299e-19
-1.92769390130299e-19
0
-3.03510613104957e-18
5.68467348183882e-18
0
0
2.84233674091929e-18
-8.5270102227578e-18
0
7.16305921660647e-16
7.12554532727486e-16
2.84233674091927e-18
2.84233674091929e-18
3.03510613104983e-18
1.92769390130298e-19
-1.92769390130299e-19
0
-5.68467348183857e-18
-3.03510613104958e-18
-3.03510613104958e-18
5.49190409170854e-18
0
2.84233674091927e-18
-5.49190409170825e-18
0
0
-1.92769390130298e-19
2.84233674091913e-18
1.92769390130303e-19
0
0
0
-3.03510613104955e-18
5.68467348183882e-18
5.68467348183909e-18
2.84233674091926e-18
2.8423367409193e-18
2.64956735078895e-18
2.84233674091924e-18
0
0
0
5.29913470157843e-18
0
-5.65296181798991e-18
0
-1.94133924722315e-19
-5.73134565637125e-18
-3.98439795430157e-18
2.1844700600269e-18
0
0
2.74946416724785e-18
-1.31489810251729e-18
-1.87914605305454e-18
-3.49894934051064e-18
7.74963274945562e-18
-7.75660468510043e-18
-6.08294892768963e-18
0
-2.65580709730503e-18
3.21832813204692e-18
3.77647843171824e-19
5.7765160940394e-18
-7.10778889150952e-18
3.61467012516119e-18
1.89113782194426e-19
2.83637687026955e-18
4.69086185365186e-18
2.27229314207239e-18
2.1043837640403e-18
-9.79075282942662e-18
-1.33559108776313e-18
1.32008284317161e-18
0
2.73441689867342e-18
-6.9874614225942e-16
-6.74437402779023e-16
0
2.94283443041338e-18
2.75006420970111e-18
0
0
-5.30735819868993e-18
0
0
-2.94283443041335e-18
-1.9277022071228e-19
5.3073581986902e-18
-1.9277022071228e-19
1.9277022071228e-19
5.69289864011501e-18
-2.94283443041348e-18
1.92770220712281e-19
2.7500642097011e-18
1.9277022071229e-19
0
0
0
0
2.7500642097012e-18
-1.9277022071228e-19
0
1.92770220712282e-19
-2.75006420970095e-18
6.9420986494358e-16
6.84924992037497e-16
0
1.92770220712286e-19
-5.30735819868964e-18
1.9277022071228e-19
0
0
0
6.91652570954589e-16
6.85201828875384e-16
0
-2.94283443041339e-18
-1.92770220712285e-19
0
-1.92770220712285e-19
0
1.9277022071228e-19
2.94283443041353e-18
5.50012841940241e-18
0
-2.7500642097011e-18
-1.92770220712285e-19
0
-6.8890250674489e-16
-6.9569497777726e-16
2.55729398898896e-18
0
0
0
-2.75006420970134e-18
1.92770220712278e-19
0
0
-2.94283443041339e-18
-2.94283443041339e-18
-2.75006420970096e-18
0
0
0
-2.94283443041351e-18
2.75006420970114e-18
0
0
2.94283443041355e-18
-2.75006420970095e-18
0
-2.94283443041337e-18
-1.9277022071228e-19
5.50012841940253e-18
-1.92770220712278e-19
-2.94283443041338e-18
-2.94283443041353e-18
0
2.75006420970111e-18
0
0
0
-1.92770220712278e-19
-5.46980776018203e-18
2.68124934080665e-18
1.94133272383807e-19
-1.94540118690401e-19
6.34196214644979e-18
0
4.54297063104014e-18
3.91100768372847e-19
-8.32882316489282e-18
1.45352403220458e-18
0
-1.77624926771442e-18
-2.25661143380816e-18
1.96851099861086e-17
0
5.50492462496649e-18
0
2.73553513795243e-18
1.21159444149195e-15
1.14809303167694e-15
-3.22733455696379e-18
-3.11235233896129e-18
-1.77699496879367e-18
-2.73630562937685e-18
0
0
6.45925873210973e-18
-1.84952007805767e-18
1.65517560598737e-18
-1.45766939966183e-18
0
5.09963176447644e-18
-2.4682828887275e-18
-5.32210794276158e-18
0
0
0
-1.92771082653153e-19
5.51487902541448e-18
7.79039083148881e-18
0
0
-1.92771082653157e-19
-1.92771082653155e-19
1.92771082653153e-19
-2.46828288872741e-18
-1.92771082653153e-19
0
2.85382505403381e-18
-5.12933686010818e-18
1.92771082653157e-19
0
0
2.85382505403371e-18
2.66105397138069e-18
6.57598521032471e-16
6.7073214436662e-16
0
0
0
5.32210794276132e-18
-5.12933686010823e-18
0
-5.12933686010799e-18
-5.32210794276158e-18
-1.9277108265316e-19
0
-1.92771082653153e-19
0
-4.936565777455e-18
0
7.79039083148929e-18
-1.92771082653149e-19
0
-4.93656577745499e-18
1.92771082653154e-19
-7.98316191414274e-18
5.12933686010817e-18
1.9277108265316e-19
0
6.67857194752672e-16
6.64221029496336e-16
0
2.66105397138072e-18
0
0
5.51487902541461e-18
2.85382505403391e-18
2.46828288872742e-18
-2.66105397138061e-18
0
-5.32210794276183e-18
-4.93656577745504e-18
1.92771082653148e-19
0
-2.85382505403373e-18
6.75262043418861e-16
6.57941657471464e-16
0
-2.66105397138068e-18
-1.92771082653156e-19
-6.67278881504727e-16
-6.59932985831462e-16
0
-2.66105397138056e-18
-2.66105397138085e-18
0
0
0
-2.66105397138081e-18
0
2.85382505403396e-18
6.72215447282172e-16
6.49404718357868e-16
0
-2.66105397138056e-18
0
2.66105397138089e-18
5.32210794276144e-18
-2.66105397138053e-18
-6.68719214715e-16
-6.10201128995826e-16
0
0
1.8486251930532e-18
-2.41571519388714e-18
2.57729736584487e-18
-2.15223722644087e-18
2.74150341066583e-18
-8.78059834791009e-18
5.05905439295041e-18
3.4142726022491e-18
-9.34616328040039e-18
1.96459029615317e-19
-2.93286819433476e-18
0
0
0
-1.19509049133793e-15
-1.04537142239637e-15
4.92346419608747e-18
-2.99184207822824e-18
-1.89126209353417e-19
4.90064622369691e-18
2.26028828755487e-18
0
-1.90208202679497e-19
3.94398506400931e-18
0
0
0
0
-2.3824188233543e-18
0
-2.5751908005271e-18
4.95760962388151e-18
7.53280042440829e-18
0
0
0
0
5.15038160105458e-18
2.38241882335439e-18
2.57519080052706e-18
0
0
0
-2.57519080052723e-18
-6.34974269125773e-16
-6.55862504018861e-16
0
-5.15038160105476e-18
0
0
-4.9576096238814e-18
-6.43925628487813e-16
-6.40157323704788e-16
0
7.53280042440842e-18
7.34002844723513e-18
1.92771977172899e-19
-5.15038160105456e-18
0
-7.53280042440895e-18
0
0
4.95760962388146e-18
0
-1.92771977172881e-19
0
-2.57519080052688e-18
-2.76796277770015e-18
5.15038160105438e-18
2.57519080052718e-18
4.95760962388149e-18
2.57519080052698e-18
7.53280042440879e-18
-2.76796277769997e-18
1.92771977172896e-19
5.1503816010544e-18
-6.39353562818182e-16
-6.4320230861695e-16
0
4.95760962388195e-18
6.46693591265476e-16
6.40829100605226e-16
2.57519080052743e-18
0
-7.53280042440893e-18
5.15038160105478e-18
4.95760962388166e-18
0
5.34315357822685e-18
-2.38241882335421e-18
-7.53280042440897e-18
0
-6.34588725171478e-16
-6.51525214045911e-16
0
-4.95760962388196e-18
-5.15038160105473e-18
6.34974269125849e-16
1.29719496671385e-15
6.3632139989372e-16
1.92771977172898e-19
-2.38241882335422e-18
0
-1.92771977172896e-19
0
-1.92771977172898e-19
2.38241882335426e-18
0
-6.32206306348131e-16
-6.56154627007859e-16
1.92771977172899e-19
-1.92771977172903e-19
-1.92771977172891e-19
0
-1.92771977172894e-19
-7.53280042440815e-18
1.25396002178735e-15
1.21759436814095e-15
0
3.38311034684472e-18
1.58577267993858e-18
-1.95118694266259e-19
0
-1.95530133500417e-19
-2.44925298706249e-18
5.57442857623387e-18
-1.49511383887077e-18
-1.96871690156188e-19
7.08051802717196e-18
1.96445871780853e-19
0
0
-4.7955462023709e-18
5.27927059068059e-18
6.49915008522244e-18
-1.65403068089991e-18
-1.57690820348265e-18
6.12870127894951e-18
8.14018708731343e-18
2.54674992009447e-18
2.17506055213682e-18
6.45957854035959e-18
0
1.90503629979088e-19
1.72823605181648e-18
2.90293157233527e-18
2.41086477505322e-18
2.28613465715186e-18
0
0
2.29959064040233e-18
1.92772905541672e-19
2.49236354594389e-18
0
2.29959064040221e-18
6.05851992536214e-16
6.28745385193007e-16
-2.4923635459438e-18
0
4.98472709188759e-18
2.29959064040224e-18
1.92772905541682e-19
2.49236354594421e-18
0
6.23670398942777e-16
6.14569446307872e-16
0
0
-2.29959064040225e-18
0
-1.9277290554168e-19
0
0
-1.92772905541683e-19
6.19842309284227e-16
6.27165174149967e-16
4.98472709188784e-18
4.98472709188758e-18
-2.49236354594378e-18
0
0
-4.79195418634616e-18
-4.79195418634591e-18
-4.59918128080447e-18
-1.92772905541684e-19
0
2.68513645148565e-18
0
4.59918128080448e-18
2.49236354594379e-18
4.98472709188785e-18
0
0
4.98472709188756e-18
0
4.98472709188781e-18
2.49236354594381e-18
0
-5.17749999742987e-18
2.10681773486067e-18
-6.19842309284149e-16
-6.20842613832866e-16
9.58390837269232e-18
4.98472709188753e-18
0
-4.79195418634592e-18
2.49236354594392e-18
5.17749999742951e-18
-7.28431773228993e-18
0
0
4.59918128080447e-18
-4.98472709188761e-18
2.29959064040224e-18
0
2.29959064040226e-18
0
-4.98472709188761e-18
-6.07766037365511e-16
-6.17932806593722e-16
0
5.17749999742959e-18
4.79195418634606e-18
4.98472709188802e-18
0
2.29959064040241e-18
4.59918128080441e-18
4.59918128080423e-18
0
0
2.68513645148579e-18
0
-5.17749999742927e-18
-4.79195418634618e-18
-2.49236354594403e-18
0
-5.94542803437195e-16
-6.11557026925129e-16
0
-7.87692438964766e-18
0
0
8.49396243513225e-18
1.95519524343588e-19
3.91534766471432e-19
-2.3899473869514e-18
5.944734071745e-18
1.57629350256537e-18
6.81231899963087e-18
-1.96432301340692e-19
-2.74127273252777e-18
2.49441218979287e-18
-6.85691343381877e-18
0
0
0
6.0599284089165e-18
5.7160364179613e-18
-5.3539177029785e-18
0
0
3.79956060975218e-19
0
1.46207669294618e-18
-4.25379465664868e-18
0
2.51849760058372e-18
4.79872953586836e-18
4.82492997358548e-18
2.41246498679269e-18
0
0
-7.23739496037808e-18
0
0
-6.11070224549316e-16
-5.89041951457476e-16
0
4.82492997358538e-18
1.92773869082152e-19
0
-5.01770384266754e-18
1.92773869082148e-19
5.0177038426678e-18
-5.01770384266754e-18
-4.63215610450349e-18
2.41246498679282e-18
-9.2643122090065e-18
1.92773869082149e-19
2.41246498679281e-18
0
2.41246498679281e-18
0
-4.82492997358537e-18
-6.0238423394762e-16
-5.93795194167538e-16
-1.92773869082147e-19
0
-5.01770384266755e-18
0
0
2.41246498679282e-18
-2.41246498679271e-18
-2.21969111771066e-18
-7.0446210912963e-18
0
0
0
0
7.0446210912963e-18
-7.04462109129632e-18
0
0
1.92773869082152e-19
0
2.41246498679283e-18
-7.04462109129629e-18
0
-7.23739496037885e-18