/*--------------------------------*- C++ -*----------------------------------*\
  =========                 |
  \\      /  F ield         | OpenFOAM: The Open Source CFD Toolbox
   \\    /   O peration     | Website:  https://openfoam.org
    \\  /    A nd           | Version:  7
     \\/     M anipulation  |
\*---------------------------------------------------------------------------*/
FoamFile
{
    version     2.0;
    format      ascii;
    class       volScalarField;
    location    "0";
    object      k_LES;
}
// * * * * * * * * * * * * * * * * * * * * * * * * * * * * * * * * * * * * * //

dimensions      [0 2 -2 0 0 0 0];

internalField   nonuniform List<scalar>
15600
(
0.00232482
-0.00003490
0.00002720
0.00000445
0.00019006
0.00016429
0.00014269
0.00017308
0.00018851
0.00034517
0.00034869
0.00020447
0.00065956
0.00066247
0.00095389
0.00078359
0.00018368
0.00019390
0.00019760
0.00021823
0.00023691
0.00028525
0.00034047
0.00038304
0.00044711
0.00051069
0.00060707
0.00066509
0.00074923
0.00083922
0.00094112
0.00099707
0.00109509
0.00116514
0.00125353
0.00130344
0.00137505
0.00150669
0.00146855
0.00150405
0.00152506
0.00155936
0.00156166
0.00157648
0.00157696
0.00158511
0.00160737
0.00161177
0.00156632
0.00160072
0.00158197
0.00152181
0.00153275
0.00150082
0.00151650
0.00151383
0.00150732
0.00150678
0.00150049
0.00147300
0.00146605
0.00148474
0.00146080
0.00144398
0.00134157
0.00129854
0.00129358
0.00130834
0.00126883
0.00122213
0.00122482
0.00122416
0.00125143
0.00123073
0.00121536
0.00118274
0.00115273
0.00111456
0.00113318
0.00104243
0.00101444
0.00099600
0.00104436
0.00098033
0.00091326
0.00089067
0.00085941
0.00089525
0.00087671
0.00083565
0.00081888
0.00080804
0.00082777
0.00077772
0.00075931
0.00076361
0.00076069
0.00077335
0.00080390
0.00083040
0.00087404
0.00096280
0.00104585
0.00137126
0.00370042
0.00066576
0.00008799
0.00000181
-0.00000514
-0.00026003
-0.00008357
-0.00029914
0.00002770
-0.00014770
-0.00053083
-0.00036578
-0.00002907
-0.00009993
0.00009765
0.00156240
0.00520367
0.00028398
0.00021979
0.00032902
0.00041561
0.00049649
0.00029332
0.00054823
0.00076287
0.00082855
0.00114440
0.00123629
0.00176594
0.00219468
0.00215975
0.00181369
0.00102347
0.00103480
0.00111213
0.00123677
0.00137683
0.00157231
0.00186299
0.00220722
0.00255185
0.00290375
0.00324385
0.00359827
0.00400931
0.00442139
0.00479950
0.00515663
0.00551684
0.00588650
0.00624100
0.00646556
0.00669351
0.00696256
0.00709871
0.00720341
0.00727250
0.00738433
0.00736326
0.00742152
0.00751401
0.00754628
0.00762900
0.00762662
0.00754960
0.00765482
0.00762454
0.00751037
0.00742727
0.00743195
0.00742387
0.00743395
0.00735678
0.00731954
0.00733364
0.00720948
0.00713756
0.00714491
0.00698984
0.00687871
0.00667537
0.00649083
0.00647835
0.00646125
0.00637995
0.00625478
0.00622453
0.00618188
0.00616813
0.00618535
0.00615013
0.00603361
0.00593490
0.00576786
0.00564414
0.00551045
0.00536337
0.00526307
0.00520282
0.00508671
0.00490043
0.00478445
0.00466526
0.00460055
0.00452970
0.00445303
0.00439282
0.00429851
0.00426393
0.00422037
0.00416769
0.00413409
0.00413640
0.00412414
0.00420675
0.00439205
0.00454672
0.00487327
0.00543849
0.00682248
0.00991065
0.00557022
0.00303623
0.00074701
0.00025520
-0.00007319
-0.00033573
0.00029964
-0.00009704
-0.00060402
-0.00006063
-0.00014160
-0.00001192
-0.00000534
-0.00101766
0.00411112
0.00879920
0.00164711
0.00090803
0.00083287
0.00084227
0.00108978
0.00093707
0.00113600
0.00165258
0.00200667
0.00242827
0.00277405
0.00332203
0.00361922
0.00338547
0.00286356
0.00210571
0.00214071
0.00232248
0.00260844
0.00292904
0.00335947
0.00393897
0.00457924
0.00519346
0.00578093
0.00634861
0.00693038
0.00759280
0.00823601
0.00882263
0.00941627
0.00999595
0.01054922
0.01109133
0.01141528
0.01171955
0.01214000
0.01239170
0.01254986
0.01266239
0.01277517
0.01278611
0.01285266
0.01301808
0.01307348
0.01323071
0.01324768
0.01321092
0.01338414
0.01340199
0.01329077
0.01316284
0.01321611
0.01325612
0.01325420
0.01311851
0.01302924
0.01299951
0.01281782
0.01269920
0.01273631
0.01252105
0.01233260
0.01204554
0.01179543
0.01177629
0.01171982
0.01162131
0.01147102
0.01143754
0.01135657
0.01134372
0.01135722
0.01130161
0.01117088
0.01105901
0.01081199
0.01059357
0.01042426
0.01018165
0.01000916
0.00989826
0.00968386
0.00942230
0.00924153
0.00904283
0.00891778
0.00879392
0.00866719
0.00856669
0.00845152
0.00840109
0.00831995
0.00824324
0.00817840
0.00815231
0.00810665
0.00822490
0.00849517
0.00872416
0.00925842
0.01034672
0.01264888
0.01541448
0.01306331
0.01016134
0.00509979
0.00320352
0.00173092
0.00134264
0.00142193
0.00011215
-0.00058701
0.00143738
0.00090458
-0.00041089
-0.00014918
0.00044253
0.00826736
0.01228536
0.00448830
0.00196662
0.00152442
0.00140355
0.00176308
0.00179280
0.00222939
0.00280691
0.00342114
0.00388812
0.00434418
0.00475099
0.00473273
0.00436131
0.00379001
0.00314192
0.00323422
0.00354844
0.00400885
0.00451847
0.00516373
0.00596266
0.00679573
0.00755054
0.00823769
0.00890796
0.00958138
0.01035763
0.01110941
0.01182072
0.01252647
0.01318435
0.01382764
0.01449673
0.01485505
0.01522515
0.01573351
0.01604384
0.01624620
0.01641673
0.01652375
0.01652461
0.01661301
0.01681404
0.01690211
0.01713156
0.01716245
0.01719175
0.01742852
0.01750921
0.01736771
0.01726836
0.01739042
0.01749428
0.01745609
0.01730063
0.01718489
0.01709012
0.01690671
0.01674239
0.01679667
0.01657872
0.01638203
0.01604944
0.01579444
0.01573963
0.01567926
0.01561905
0.01542706
0.01542726
0.01535439
0.01533312
0.01532509
0.01526536
0.01517441
0.01505225
0.01478013
0.01449458
0.01434632
0.01404730
0.01385228
0.01372524
0.01344196
0.01314945
0.01294337
0.01269577
0.01252456
0.01237616
0.01224297
0.01212002
0.01200742
0.01195729
0.01183674
0.01177657
0.01171938
0.01165712
0.01159053
0.01173991
0.01203821
0.01232271
0.01296577
0.01444069
0.01722072
0.01964134
0.01900133
0.01747858
0.01362138
0.00983810
0.00747495
0.00610766
0.00432831
0.00342265
0.00223361
0.00333453
0.00180557
0.00046812
-0.00048407
0.00870187
0.01425073
0.01612345
0.00725132
0.00363988
0.00253716
0.00205401
0.00248455
0.00280997
0.00342869
0.00405326
0.00480482
0.00522263
0.00558069
0.00580947
0.00565434
0.00518696
0.00460326
0.00407553
0.00425661
0.00470919
0.00532981
0.00600640
0.00680966
0.00773226
0.00864547
0.00943158
0.01010668
0.01080088
0.01150523
0.01233454
0.01315316
0.01392742
0.01469643
0.01538103
0.01606372
0.01679152
0.01720611
0.01760231
0.01815612
0.01851744
0.01877780
0.01896692
0.01904634
0.01904641
0.01919514
0.01941748
0.01954811
0.01980532
0.01985696
0.01998736
0.02027406
0.02037240
0.02022674
0.02016478
0.02034386
0.02048978
0.02041770
0.02026249
0.02011927
0.01997055
0.01984000
0.01965821
0.01969633
0.01946854
0.01929683
0.01895513
0.01872553
0.01863829
0.01858272
0.01854831
0.01835514
0.01836845
0.01830727
0.01827778
0.01826742
0.01821509
0.01816741
0.01802612
0.01773802
0.01744048
0.01728681
0.01699362
0.01679426
0.01666573
0.01637719
0.01604557
0.01582643
0.01555949
0.01536174
0.01519967
0.01504911
0.01492053
0.01482453
0.01478114
0.01463191
0.01459413
0.01458810
0.01448604
0.01443374
0.01462753
0.01493937
0.01526316
0.01599639
0.01773555
0.02068374
0.02288296
0.02305458
0.02248512
0.02088405
0.01777329
0.01584109
0.01316758
0.01217252
0.01069839
0.00861647
0.00765436
0.00373126
0.00503435
0.00305742
0.02085203
0.02211405
0.02135093
0.00975242
0.00550958
0.00368954
0.00297992
0.00336252
0.00378390
0.00453821
0.00517903
0.00584830
0.00621617
0.00652442
0.00662998
0.00634660
0.00585436
0.00532327
0.00492123
0.00520486
0.00577853
0.00652969
0.00734326
0.00824107
0.00920279
0.01011780
0.01087084
0.01150181
0.01217713
0.01290679
0.01375716
0.01463133
0.01544683
0.01625082
0.01694735
0.01764647
0.01841550
0.01888738
0.01930612
0.01987898
0.02028225
0.02057490
0.02078611
0.02086684
0.02086325
0.02106576
0.02128702
0.02148525
0.02173959
0.02183649
0.02206924
0.02239441
0.02246742
0.02233062
0.02230487
0.02252297
0.02266690
0.02257454
0.02244078
0.02227868
0.02210340
0.02203806
0.02185719
0.02181446
0.02161270
0.02150148
0.02113613
0.02094473
0.02081615
0.02078228
0.02076461
0.02057676
0.02058307
0.02055523
0.02052498
0.02050537
0.02045868
0.02045156
0.02028751
0.01999932
0.01968483
0.01953336
0.01927082
0.01907212
0.01894058
0.01867155
0.01831989
0.01807706
0.01780609
0.01760576
0.01742887
0.01727336
0.01713681
0.01704474
0.01701310
0.01685630
0.01684422
0.01688428
0.01675367
0.01673922
0.01697358
0.01730703
0.01768328
0.01851750
0.02043219
0.02333643
0.02542175
0.02613799
0.02644757
0.02586534
0.02478285
0.02442186
0.02277007
0.02106448
0.02005251
0.01679455
0.01529933
0.00958919
0.01353512
0.01175200
0.03626925
0.03157824
0.02766131
0.01266735
0.00693249
0.00464465
0.00401906
0.00421324
0.00469555
0.00544203
0.00607426
0.00666287
0.00709604
0.00731220
0.00723704
0.00691596
0.00643976
0.00597270
0.00569523
0.00607988
0.00674461
0.00759840
0.00851569
0.00944968
0.01038668
0.01125077
0.01195742
0.01253009
0.01318785
0.01395271
0.01482701
0.01575205
0.01660528
0.01741768
0.01813453
0.01884379
0.01962254
0.02015847
0.02061747
0.02118210
0.02162856
0.02191849
0.02213738
0.02224235
0.02224612
0.02248924
0.02268357
0.02296982
0.02319710
0.02335838
0.02369631
0.02405109
0.02408726
0.02394998
0.02396105
0.02419742
0.02431239
0.02421616
0.02409975
0.02392871
0.02376232
0.02374786
0.02357998
0.02343971
0.02327364
0.02319996
0.02283883
0.02268019
0.02251745
0.02250703
0.02247742
0.02231787
0.02230095
0.02232177
0.02229357
0.02227190
0.02223017
0.02224641
0.02205191
0.02176961
0.02145105
0.02129937
0.02108001
0.02086894
0.02073106
0.02049626
0.02012370
0.01986522
0.01959730
0.01940414
0.01921854
0.01905577
0.01891330
0.01883394
0.01880286
0.01865702
0.01865274
0.01873494
0.01858818
0.01862841
0.01890175
0.01925474
0.01968011
0.02063916
0.02268161
0.02540731
0.02744010
0.02840281
0.02916111
0.02969574
0.02954349
0.03008621
0.03041895
0.02931055
0.02893561
0.02678168
0.02421363
0.01922948
0.02333583
0.03074474
0.04692253
0.04071970
0.03464139
0.01579220
0.00808549
0.00544825
0.00483974
0.00501080
0.00548365
0.00620729
0.00689629
0.00738390
0.00777873
0.00789348
0.00774972
0.00737998
0.00694712
0.00656682
0.00640687
0.00687742
0.00760683
0.00853750
0.00952310
0.01044838
0.01132069
0.01211372
0.01276587
0.01330385
0.01396502
0.01477543
0.01567673
0.01663867
0.01752937
0.01833812
0.01908923
0.01980897
0.02059228
0.02118038
0.02168586
0.02223579
0.02271454
0.02300435
0.02321596
0.02335494
0.02335535
0.02362164
0.02378969
0.02415350
0.02436495
0.02459597
0.02501223
0.02538463
0.02537926
0.02525115
0.02530112
0.02553244
0.02560932
0.02553070
0.02541912
0.02523893
0.02510434
0.02511861
0.02497434
0.02473086
0.02460307
0.02455342
0.02420667
0.02407789
0.02389587
0.02388769
0.02384825
0.02371643
0.02367673
0.02375184
0.02373095
0.02369949
0.02368457
0.02368988
0.02346923
0.02319411
0.02288404
0.02272653
0.02253656
0.02231868
0.02218459
0.02196478
0.02157768
0.02130580
0.02105597
0.02086375
0.02068088
0.02050467
0.02037851
0.02029902
0.02027124
0.02013433
0.02011785
0.02022883
0.02010123
0.02019420
0.02050342
0.02087077
0.02134537
0.02244556
0.02456480
0.02704349
0.02904868
0.03016901
0.03129808
0.03232497
0.03318453
0.03406516
0.03517746
0.03501919
0.03558965
0.03471861
0.03277031
0.03025550
0.03438162
0.04618376
0.05101606
0.04729551
0.04197583
0.01964562
0.00915042
0.00619530
0.00560641
0.00572663
0.00622905
0.00693797
0.00756350
0.00802793
0.00828818
0.00835817
0.00817800
0.00778299
0.00739129
0.00710472
0.00705730
0.00759117
0.00837310
0.00935201
0.01037050
0.01125476
0.01204921
0.01277332
0.01338197
0.01390539
0.01460493
0.01546023
0.01639321
0.01737998
0.01830046
0.01911528
0.01990283
0.02064060
0.02141999
0.02204434
0.02259603
0.02313748
0.02363658
0.02395024
0.02414599
0.02430965
0.02428889
0.02455863
0.02472045
0.02512462
0.02535497
0.02564500
0.02610318
0.02647656
0.02644911
0.02633940
0.02641608
0.02663749
0.02667312
0.02663062
0.02650584
0.02631375
0.02621425
0.02625017
0.02613535
0.02579371
0.02570001
0.02566038
0.02533968
0.02522978
0.02503610
0.02501785
0.02498120
0.02486658
0.02482083
0.02494099
0.02492714
0.02488898
0.02490205
0.02487536
0.02464300
0.02435956
0.02407133
0.02390153
0.02372617
0.02351029
0.02339000
0.02315757
0.02276600
0.02249823
0.02226254
0.02206984
0.02189322
0.02170047
0.02160239
0.02151911
0.02149579
0.02136574
0.02132610
0.02146254
0.02137257
0.02150538
0.02185131
0.02223244
0.02274643
0.02397981
0.02613155
0.02836473
0.03035773
0.03156323
0.03292621
0.03421703
0.03575178
0.03717258
0.03817581
0.03872603
0.04006402
0.04009894
0.04010533
0.03870534
0.04548022
0.05326424
0.05304397
0.05113138
0.04904571
0.02446419
0.01022998
0.00696214
0.00624097
0.00640230
0.00691766
0.00752895
0.00809871
0.00850224
0.00869755
0.00872104
0.00849319
0.00812678
0.00778515
0.00759119
0.00764806
0.00822444
0.00905118
0.01005062
0.01106496
0.01189274
0.01261564
0.01329021
0.01387240
0.01440003
0.01517046
0.01606771
0.01703503
0.01803097
0.01897984
0.01981567
0.02063835
0.02139861
0.02215618
0.02281062
0.02340141
0.02395379
0.02446665
0.02482392
0.02500694
0.02516454
0.02511012
0.02537070
0.02554990
0.02595433
0.02623073
0.02657036
0.02703808
0.02739170
0.02735523
0.02726837
0.02736737
0.02757146
0.02757289
0.02756609
0.02742225
0.02721264
0.02715014
0.02721368
0.02711356
0.02669477
0.02662311
0.02659691
0.02629788
0.02619221
0.02599671
0.02596309
0.02593886
0.02583368
0.02579267
0.02594786
0.02594570
0.02590065
0.02593484
0.02586718
0.02563938
0.02533055
0.02507015
0.02488428
0.02471017
0.02450291
0.02439153
0.02412958
0.02375062
0.02349566
0.02327668
0.02309069
0.02290847
0.02270759
0.02264042
0.02255092
0.02252656
0.02240618
0.02234611
0.02250075
0.02246271
0.02261508
0.02300615
0.02339393
0.02393531
0.02527491
0.02740835
0.02943354
0.03143357
0.03268312
0.03427966
0.03589842
0.03759068
0.03939541
0.04069214
0.04175317
0.04266261
0.04354311
0.04475379
0.04715026
0.05170433
0.05712220
0.05467779
0.05271750
0.05511857
0.03012210
0.01134475
0.00777494
0.00689812
0.00701172
0.00751087
0.00805189
0.00851297
0.00886834
0.00901497
0.00900164
0.00876980
0.00842578
0.00813227
0.00802699
0.00817935
0.00878557
0.00964570
0.01064111
0.01161947
0.01239538
0.01306522
0.01370965
0.01428704
0.01484433
0.01569333
0.01663664
0.01763453
0.01863821
0.01961301
0.02047637
0.02133487
0.02211796
0.02283857
0.02351945
0.02414279
0.02472391
0.02524243
0.02565095
0.02583937
0.02595646
0.02587941
0.02611895
0.02632197
0.02670644
0.02702837
0.02740723
0.02786668
0.02817788
0.02814708
0.02808084
0.02819308
0.02837305
0.02834912
0.02837384
0.02821605
0.02798633
0.02795921
0.02805731
0.02794479
0.02747497
0.02742021
0.02741018
0.02713422
0.02700867
0.02682392
0.02678657
0.02677058
0.02666887
0.02662193
0.02680916
0.02683715
0.02678893
0.02681641
0.02671581
0.02649013
0.02615996
0.02592405
0.02572554
0.02554396
0.02534198
0.02522404
0.02492587
0.02457655
0.02434654
0.02414356
0.02397351
0.02378411
0.02357754
0.02353421
0.02342637
0.02340124
0.02329931
0.02322879
0.02338818
0.02340977
0.02357278
0.02399807
0.02438999
0.02495611
0.02635339
0.02842226
0.03029680
0.03232315
0.03360627
0.03534291
0.03712217
0.03906846
0.04089147
0.04257717
0.04416018
0.04530072
0.04602683
0.04819406
0.05067837
0.05462527
0.05768824
0.05583515
0.05336916
0.05955838
0.03636740
0.01261415
0.00855430
0.00750940
0.00755581
0.00798167
0.00845761
0.00886792
0.00915002
0.00928237
0.00923180
0.00899698
0.00868860
0.00844110
0.00841676
0.00865036
0.00928475
0.01016084
0.01113513
0.01205413
0.01279637
0.01343183
0.01406340
0.01465978
0.01527336
0.01618908
0.01718825
0.01821058
0.01923396
0.02022336
0.02112178
0.02201381
0.02281542
0.02349980
0.02419809
0.02484680
0.02547080
0.02598230
0.02644332
0.02666058
0.02671258
0.02663870
0.02683288
0.02706653
0.02741706
0.02777245
0.02818123
0.02861342
0.02887631
0.02886440
0.02880983
0.02892365
0.02907845
0.02904143
0.02909406
0.02893233
0.02868476
0.02868182
0.02880977
0.02865523
0.02816353
0.02812713
0.02814188
0.02788144
0.02771652
0.02754202
0.02751365
0.02751454
0.02741157
0.02734309
0.02754577
0.02763413
0.02759380
0.02757683
0.02744911
0.02721618
0.02688637
0.02667127
0.02645805
0.02625899
0.02605374
0.02592210
0.02558787
0.02528105
0.02508910
0.02489971
0.02475287
0.02456257
0.02434034
0.02430611
0.02417767
0.02415146
0.02408266
0.02401432
0.02415290
0.02424193
0.02441561
0.02484298
0.02524834
0.02584420
0.02724514
0.02920190
0.03098194
0.03302654
0.03435309
0.03618387
0.03811387
0.04014431
0.04210594
0.04401168
0.04571734
0.04761446
0.04881400
0.05057253
0.05326886
0.05525055
0.05714016
0.05667235
0.05386260
0.06213157
0.04307900
0.01423042
0.00926939
0.00809699
0.00803026
0.00839141
0.00880129
0.00915071
0.00937769
0.00947759
0.00941996
0.00919171
0.00891417
0.00871474
0.00876081
0.00906656
0.00972762
0.01060255
0.01154442
0.01239730
0.01312378
0.01374268
0.01437978
0.01501363
0.01570470
0.01667699
0.01773031
0.01877804
0.01982791
0.02082239
0.02177077
0.02268636
0.02350256
0.02417036
0.02487517
0.02554388
0.02621176
0.02671242
0.02722047
0.02746717
0.02746009
0.02740240
0.02754358
0.02780421
0.02811858
0.02849837
0.02891675
0.02930681
0.02952004
0.02953259
0.02948864
0.02958688
0.02971215
0.02969296
0.02976014
0.02960416
0.02934050
0.02935399
0.02948813
0.02926319
0.02879239
0.02877676
0.02881556
0.02855239
0.02835151
0.02818643
0.02816409
0.02818602
0.02808901
0.02798912
0.02817542
0.02834974
0.02832624
0.02824229
0.02807909
0.02784044
0.02753459
0.02733493
0.02710274
0.02687714
0.02667157
0.02652220
0.02616063
0.02589669
0.02574149
0.02557449
0.02545745
0.02526646
0.02502307
0.02497577
0.02483791
0.02481577
0.02478251
0.02472681
0.02482803
0.02498683
0.02516241
0.02556488
0.02599916
0.02662133
0.02797794
0.02977694
0.03151377
0.03356655
0.03496823
0.03684853
0.03884379
0.04093560
0.04299275
0.04508387
0.04686056
0.04906800
0.05095298
0.05278999
0.05433708
0.05612488
0.05833587
0.05719717
0.05444221
0.06293650
0.04990447
0.01628879
0.00998463
0.00861436
0.00847469
0.00874609
0.00907437
0.00936802
0.00957053
0.00962351
0.00957121
0.00934737
0.00910635
0.00895572
0.00906576
0.00943187
0.01011079
0.01097799
0.01187836
0.01267765
0.01339842
0.01401891
0.01468092
0.01536690
0.01615319
0.01716748
0.01826843
0.01934054
0.02041645
0.02142863
0.02243183
0.02336306
0.02418680
0.02486845
0.02556682
0.02626313
0.02696306
0.02745502
0.02799188
0.02825804
0.02821869
0.02818527
0.02827991
0.02854394
0.02882940
0.02923559
0.02963577
0.02997864
0.03014144
0.03017181
0.03014396
0.03021122
0.03031123
0.03032210
0.03039194
0.03025004
0.02997832
0.03000824
0.03010258
0.02980396
0.02938842
0.02939626
0.02943447
0.02915877
0.02893706
0.02879159
0.02876232
0.02878982
0.02871892
0.02858854
0.02873483
0.02900696
0.02899511
0.02883587
0.02861827
0.02839355
0.02812011
0.02793202
0.02768112
0.02743094
0.02722729
0.02705487
0.02668413
0.02644812
0.02631628
0.02618768
0.02609930
0.02590831
0.02565278
0.02558326
0.02544015
0.02541636
0.02541142
0.02537723
0.02544802
0.02566095
0.02584021
0.02619049
0.02666163
0.02730015
0.02856901
0.03020581
0.03192915
0.03397562
0.03547427
0.03736472
0.03942849
0.04149371
0.04370015
0.04576130
0.04774646
0.05018465
0.05247637
0.05455311
0.05636906
0.05846590
0.06022350
0.05748836
0.05504358
0.06236804
0.05636909
0.01906155
0.01074292
0.00910640
0.00887090
0.00904950
0.00931144
0.00954001
0.00971860
0.00974159
0.00967813
0.00947823
0.00926668
0.00916768
0.00933267
0.00974296
0.01043499
0.01129450
0.01214909
0.01291838
0.01364043
0.01427948
0.01498399
0.01573241
0.01661906
0.01767053
0.01880830
0.01990191
0.02101158
0.02205369
0.02310348
0.02404580
0.02487077
0.02558205
0.02629162
0.02701823
0.02773829
0.02820482
0.02875651
0.02903897
0.02899507
0.02899504
0.02904739
0.02930197
0.02955779
0.02998571
0.03035711
0.03065422
0.03077684
0.03080904
0.03079656
0.03082305
0.03089437
0.03093973
0.03100195
0.03087701
0.03060907
0.03064610
0.03067655
0.03033574
0.02996834
0.02999909
0.03001395
0.02972892
0.02948958
0.02936142
0.02933485
0.02935222
0.02932040
0.02916056
0.02927035
0.02961951
0.02961296
0.02938402
0.02909866
0.02890368
0.02865813
0.02848432
0.02821898
0.02795288
0.02774305
0.02754697
0.02718786
0.02696632
0.02684221
0.02675620
0.02668631
0.02651104
0.02625755
0.02616314
0.02601161
0.02596643
0.02597885
0.02596773
0.02602541
0.02626087
0.02646477
0.02674517
0.02724380
0.02788894
0.02904416
0.03053184
0.03223824
0.03427536
0.03589191
0.03773746
0.03982824
0.04192483
0.04417383
0.04627324
0.04850902
0.05094230
0.05340122
0.05576919
0.05787538
0.06118461
0.06034589
0.05760439
0.05560177
0.06112200
0.06204289
0.02269767
0.01161198
0.00958885
0.00923399
0.00932213
0.00951079
0.00966886
0.00982523
0.00983889
0.00975212
0.00958137
0.00939796
0.00935130
0.00955885
0.01000358
0.01070934
0.01156162
0.01236893
0.01313480
0.01386748
0.01453925
0.01529790
0.01611001
0.01709427
0.01819493
0.01935558
0.02047652
0.02162258
0.02270687
0.02377813
0.02473776
0.02557624
0.02631419
0.02705441
0.02781028
0.02854496
0.02896230
0.02950111
0.02981662
0.02979264
0.02982259
0.02984233
0.03008402
0.03032595
0.03074051
0.03110004
0.03134555
0.03146014
0.03146940
0.03146124
0.03144056
0.03147753
0.03156185
0.03160270
0.03148606
0.03123987
0.03126300
0.03123660
0.03088379
0.03055312
0.03058520
0.03057870
0.03029264
0.03001981
0.02991376
0.02990226
0.02989965
0.02990519
0.02971751
0.02980100
0.03018463
0.03018415
0.02990622
0.02955965
0.02939030
0.02915299
0.02899992
0.02874249
0.02846155
0.02824006
0.02802078
0.02769282
0.02747633
0.02734868
0.02728942
0.02723202
0.02708822
0.02684566
0.02672891
0.02656360
0.02647727
0.02649826
0.02650563
0.02656284
0.02679617
0.02702705
0.02725557
0.02775167
0.02840100
0.02943697
0.03078781
0.03244716
0.03449125
0.03621386
0.03799561
0.04007227
0.04225398
0.04443385
0.04665572
0.04905479
0.05150126
0.05399787
0.05639726
0.05891014
0.06047063
0.05903992
0.05752368
0.05601947
0.05970203
0.06645421
0.02730860
0.01255906
0.01007589
0.00955905
0.00955221
0.00966845
0.00977869
0.00990904
0.00990370
0.00980772
0.00966185
0.00950367
0.00950624
0.00974352
0.01022354
0.01094630
0.01178173
0.01255415
0.01333762
0.01408631
0.01480186
0.01562164
0.01649711
0.01758492
0.01873783
0.01991421
0.02106898
0.02225262
0.02338896
0.02446293
0.02545713
0.02632315
0.02708637
0.02784887
0.02863907
0.02937326
0.02974614
0.03024333
0.03060641
0.03060292
0.03066628
0.03067901
0.03091753
0.03114637
0.03151738
0.03186829
0.03206633
0.03218382
0.03217642
0.03213394
0.03206721
0.03208018
0.03219674
0.03220099
0.03207932
0.03188930
0.03187210
0.03181231
0.03145001
0.03117366
0.03116852
0.03115344
0.03085435
0.03055671
0.03047654
0.03046393
0.03045739
0.03047289
0.03027319
0.03034533
0.03071945
0.03071520
0.03041424
0.03002098
0.02986133
0.02962407
0.02948093
0.02925354
0.02896115
0.02873068
0.02849483
0.02820231
0.02799642
0.02786020
0.02780431
0.02776386
0.02764841
0.02740707
0.02727225
0.02709419
0.02696048
0.02698130
0.02701108
0.02706273
0.02728681
0.02753477
0.02773000
0.02820594
0.02885067
0.02978355
0.03100152
0.03259201
0.03463569
0.03644604
0.03816062
0.04022011
0.04243275
0.04466545
0.04690547
0.04932913
0.05206009
0.05451144
0.05669146
0.05891730
0.05933544
0.05800634
0.05729433
0.05627440
0.05850606
0.06934832
0.03286520
0.01370485
0.01058635
0.00987631
0.00975935
0.00980592
0.00986605
0.00996398
0.00995310
0.00984772
0.00972572
0.00958960
0.00963703
0.00989891
0.01041219
0.01115200
0.01196128
0.01271783
0.01353044
0.01429485
0.01506816
0.01595260
0.01690993
0.01809702
0.01929490
0.02048902
0.02167295
0.02290188
0.02409661
0.02517401
0.02622037
0.02711844
0.02790757
0.02867808
0.02950427
0.03022746
0.03056505
0.03100674
0.03142149
0.03144478
0.03152679
0.03156151
0.03180575
0.03201526
0.03233800
0.03266046
0.03282083
0.03292684
0.03292628
0.03283387
0.03271239
0.03271950
0.03286009
0.03280969
0.03268979
0.03257241
0.03250136
0.03241803
0.03204932
0.03181604
0.03174029
0.03172419
0.03141847
0.03112871
0.03105335
0.03101201
0.03101894
0.03101228
0.03083108
0.03091067
0.03125166
0.03121836
0.03090363
0.03048189
0.03032804
0.03010357
0.02995305
0.02974102
0.02945456
0.02921777
0.02896926
0.02872055
0.02853444
0.02837930
0.02832067
0.02829223
0.02819140
0.02794068
0.02778653
0.02759930
0.02743249
0.02744200
0.02749972
0.02753364
0.02774989
0.02800376
0.02816254
0.02863886
0.02926256
0.03010936
0.03120895
0.03270884
0.03470122
0.03657306
0.03824130
0.04028962
0.04256789
0.04477278
0.04707686
0.04948697
0.05233910
0.05492806
0.05700303
0.05854971
0.05808909
0.05777504
0.05702115
0.05639569
0.05760559
0.07062683
0.03920385
0.01506530
0.01112563
0.01018494
0.00994806
0.00992716
0.00993202
0.01000170
0.00998345
0.00987851
0.00977496
0.00966524
0.00975073
0.01003449
0.01057669
0.01132851
0.01211765
0.01287464
0.01372095
0.01449985
0.01533571
0.01629309
0.01735900
0.01862945
0.01986530
0.02108893
0.02228162
0.02357026
0.02484799
0.02593308
0.02702365
0.02795169
0.02878829
0.02955955
0.03040076
0.03109870
0.03143406
0.03179434
0.03227192
0.03233644
0.03240916
0.03246907
0.03272462
0.03291599
0.03319599
0.03348218
0.03361461
0.03369678
0.03369277
0.03356303
0.03339580
0.03341315
0.03356279
0.03345258
0.03335732
0.03329355
0.03315172
0.03303644
0.03271254
0.03248166
0.03232781
0.03228293
0.03200096
0.03173178
0.03162956
0.03155512
0.03158523
0.03153603
0.03140442
0.03148592
0.03178135
0.03170064
0.03136632
0.03094922
0.03080508
0.03060527
0.03044278
0.03021697
0.02995189
0.02971525
0.02944987
0.02925213
0.02907756
0.02889974
0.02884348
0.02881838
0.02872045
0.02844629
0.02828730
0.02808549
0.02789774
0.02789898
0.02797187
0.02797879
0.02819336
0.02844891
0.02857072
0.02905910
0.02966378
0.03042791
0.03142695
0.03281583
0.03470075
0.03659446
0.03824274
0.04030389
0.04262722
0.04481389
0.04712947
0.04965343
0.05242105
0.05503463
0.05725666
0.05857987
0.05939574
0.05774683
0.05665472
0.05635710
0.05700001
0.07036791
0.04603209
0.01680572
0.01172155
0.01048835
0.01013391
0.01003625
0.00999285
0.01002554
0.01000317
0.00989872
0.00981077
0.00973490
0.00984615
0.01015599
0.01072281
0.01148177
0.01226273
0.01303521
0.01390954
0.01471379
0.01561272
0.01665178
0.01783657
0.01917849
0.02044851
0.02171085
0.02291454
0.02426649
0.02562880
0.02672857
0.02785506
0.02882362
0.02970156
0.03047563
0.03131818
0.03198801
0.03233577
0.03263365
0.03315278
0.03326442
0.03334759
0.03339917
0.03365480
0.03385037
0.03410388
0.03434217
0.03444800
0.03451527
0.03446601
0.03432600
0.03412445
0.03416048
0.03432177
0.03415115
0.03409409
0.03403585
0.03381304
0.03368902
0.03344454
0.03317847
0.03297297
0.03285710
0.03262250
0.03237246
0.03222042
0.03212885
0.03216869
0.03209206
0.03200645
0.03207168
0.03229852
0.03217933
0.03182030
0.03142750
0.03130345
0.03112982
0.03096713
0.03070839
0.03045251
0.03022176
0.02995563
0.02979427
0.02962644
0.02942469
0.02937022
0.02935082
0.02923860
0.02893532
0.02878323
0.02856834
0.02836638
0.02836161
0.02843086
0.02841801
0.02862084
0.02888205
0.02897811
0.02947831
0.03005189
0.03073584
0.03166870
0.03292955
0.03467725
0.03653527
0.03818973
0.04027819
0.04264378
0.04479399
0.04714997
0.04966967
0.05241057
0.05483772
0.05748530
0.05894939
0.05974248
0.05711884
0.05622048
0.05620799
0.05652264
0.06902128
0.05292161
0.01909559
0.01241626
0.01081923
0.01031507
0.01013735
0.01005064
0.01004412
0.01001548
0.00990788
0.00983336
0.00979404
0.00992397
0.01026160
0.01085456
0.01161886
0.01240558
0.01320483
0.01409707
0.01494439
0.01590403
0.01703798
0.01833217
0.01974459
0.02104167
0.02234420
0.02357398
0.02498896
0.02642070
0.02754166
0.02871272
0.02972242
0.03062534
0.03140168
0.03223255
0.03289760
0.03327433
0.03353513
0.03408733
0.03423322
0.03435141
0.03438390
0.03460966
0.03481431
0.03505543
0.03520966
0.03530959
0.03537137
0.03526655
0.03512212
0.03492382
0.03496308
0.03514576
0.03493931
0.03490527
0.03477813
0.03449940
0.03440608
0.03422997
0.03390720
0.03367810
0.03349349
0.03330671
0.03307867
0.03287560
0.03275361
0.03276895
0.03270081
0.03265085
0.03268378
0.03282196
0.03266425
0.03228813
0.03191525
0.03182895
0.03169503
0.03154044
0.03121987
0.03095444
0.03073530
0.03050013
0.03034527
0.03019182
0.02997788
0.02990228
0.02989591
0.02976168
0.02942561
0.02927048
0.02905447
0.02885222
0.02882834
0.02887598
0.02886573
0.02904166
0.02930942
0.02938802
0.02989324
0.03043199
0.03103790
0.03192974
0.03304665
0.03466555
0.03643638
0.03810232
0.04025420
0.04257374
0.04473832
0.04709193
0.04959012
0.05229368
0.05471526
0.05707215
0.05829018
0.05841828
0.05653937
0.05576059
0.05595606
0.05614826
0.06702211
0.05946325
0.02219973
0.01323482
0.01118839
0.01050253
0.01023602
0.01010346
0.01006332
0.01002655
0.00990723
0.00984595
0.00983864
0.00998425
0.01035360
0.01097300
0.01174701
0.01255274
0.01337504
0.01429464
0.01519145
0.01620981
0.01743565
0.01884744
0.02032795
0.02165307
0.02299348
0.02426701
0.02573649
0.02722949
0.02839749
0.02958973
0.03062749
0.03154250
0.03235885
0.03315347
0.03384628
0.03425334
0.03452100
0.03507414
0.03523269
0.03540791
0.03544375
0.03560273
0.03579674
0.03600598
0.03609749
0.03620924
0.03626277
0.03611911
0.03594398
0.03579399
0.03583193
0.03602152
0.03582283
0.03579066
0.03555060
0.03524352
0.03519430
0.03506161
0.03467061
0.03442470
0.03421466
0.03404278
0.03384045
0.03360790
0.03343962
0.03341784
0.03336801
0.03333472
0.03333274
0.03339330
0.03316967
0.03279215
0.03242230
0.03239242
0.03229998
0.03212910
0.03175610
0.03146434
0.03126641
0.03107261
0.03091178
0.03077855
0.03056195
0.03046933
0.03044236
0.03028892
0.02994947
0.02977242
0.02953860
0.02935699
0.02929334
0.02932264
0.02931760
0.02946989
0.02973158
0.02980677
0.03028335
0.03080371
0.03134013
0.03218162
0.03318037
0.03467074
0.03631063
0.03801881
0.04020737
0.04244568
0.04465841
0.04695298
0.04947057
0.05208637
0.05460689
0.05662892
0.05754927
0.05750378
0.05589706
0.05526106
0.05563527
0.05579046
0.06476515
0.06516556
0.02629466
0.01425544
0.01160968
0.01071048
0.01033821
0.01015947
0.01008607
0.01004052
0.00990330
0.00985360
0.00987520
0.01003212
0.01043775
0.01108452
0.01187905
0.01270152
0.01355024
0.01450914
0.01545602