/*--------------------------------*- C++ -*----------------------------------*\
  =========                 |
  \\      /  F ield         | OpenFOAM: The Open Source CFD Toolbox
   \\    /   O peration     | Website:  https://openfoam.org
    \\  /    A nd           | Version:  7
     \\/     M anipulation  |
\*---------------------------------------------------------------------------*/
FoamFile
{
    version     2.0;
    format      ascii;
    class       volSymmTensorField;
    location    "0";
    object      tauij_LES;
}
// * * * * * * * * * * * * * * * * * * * * * * * * * * * * * * * * * * * * * //

dimensions      [0 2 -2 0 0 0 0];

internalField   nonuniform List<symmTensor>
15600
(
(0.00230970 -0.00004266 0.00000000 0.00002254 0.00000000 0.00231739)
(-0.00003794 0.00000652 0.00000000 0.00000073 0.00000000 -0.00003258)
(0.00000469 0.00000172 0.00000000 -0.00000936 0.00000000 0.00005907)
(0.00000468 0.00002068 0.00000000 -0.00006141 0.00000000 0.00006562)
(0.00003048 -0.00004732 0.00000000 0.00007816 0.00000000 0.00027148)
(0.00001671 -0.00001721 0.00000000 0.00001476 0.00000000 0.00029711)
(-0.00000298 0.00000069 0.00000000 0.00000767 0.00000000 0.00028068)
(0.00002310 -0.00002081 0.00000000 0.00001818 0.00000000 0.00030489)
(0.00001392 -0.00002578 0.00000000 0.00005238 0.00000000 0.00031073)
(0.00000670 -0.00001920 0.00000000 0.00004450 0.00000000 0.00063913)
(0.00004827 -0.00006408 0.00000000 0.00009018 0.00000000 0.00055893)
(0.00003391 -0.00002925 0.00000000 0.00002715 0.00000000 0.00034789)
(0.00006387 -0.00007559 0.00000000 0.00009900 0.00000000 0.00115625)
(0.00020244 -0.00013869 0.00000000 0.00009781 0.00000000 0.00102468)
(0.00035057 -0.00022349 0.00000000 0.00015463 0.00000000 0.00140258)
(0.00046701 -0.00004314 0.00000000 0.00000890 0.00000000 0.00109127)
(0.00015759 -0.00000008 0.00000000 -0.00000014 0.00000000 0.00020990)
(0.00017649 -0.00000008 0.00000000 0.00000003 0.00000000 0.00021127)
(0.00019310 -0.00000014 0.00000000 -0.00000020 0.00000000 0.00020229)
(0.00022243 -0.00000019 0.00000000 -0.00000023 0.00000000 0.00021427)
(0.00024965 -0.00000019 0.00000000 -0.00000031 0.00000000 0.00022449)
(0.00031529 -0.00000016 0.00000000 0.00000003 0.00000000 0.00025518)
(0.00039433 -0.00000003 0.00000000 0.00000010 0.00000000 0.00028651)
(0.00045178 -0.00000002 0.00000000 -0.00000037 0.00000000 0.00031468)
(0.00052785 0.00000010 0.00000000 -0.00000051 0.00000000 0.00036688)
(0.00060121 0.00000033 0.00000000 -0.00000068 0.00000000 0.00042084)
(0.00070227 0.00000102 0.00000000 -0.00000022 0.00000000 0.00051209)
(0.00076129 0.00000096 0.00000000 -0.00000072 0.00000000 0.00056962)
(0.00084320 0.00000099 0.00000000 -0.00000087 0.00000000 0.00065613)
(0.00093123 0.00000146 0.00000000 -0.00000097 0.00000000 0.00074818)
(0.00103820 0.00000207 0.00000000 -0.00000069 0.00000000 0.00084472)
(0.00107114 0.00000220 0.00000000 -0.00000131 0.00000000 0.00092430)
(0.00115684 0.00000259 0.00000000 -0.00000101 0.00000000 0.00103436)
(0.00122875 0.00000235 0.00000000 -0.00000158 0.00000000 0.00110309)
(0.00131303 0.00000268 0.00000000 -0.00000151 0.00000000 0.00119554)
(0.00133431 0.00000321 0.00000000 -0.00000169 0.00000000 0.00127427)
(0.00137850 0.00000326 0.00000000 -0.00000207 0.00000000 0.00137367)
(0.00148157 0.00000449 0.00000000 0.00000029 0.00000000 0.00153153)
(0.00145598 0.00000285 0.00000000 -0.00000229 0.00000000 0.00148341)
(0.00148806 0.00000310 0.00000000 -0.00000187 0.00000000 0.00152192)
(0.00149318 0.00000366 0.00000000 -0.00000197 0.00000000 0.00155891)
(0.00153392 0.00000293 0.00000000 -0.00000157 0.00000000 0.00158637)
(0.00152128 0.00000353 0.00000000 -0.00000140 0.00000000 0.00160345)
(0.00151675 0.00000357 0.00000000 -0.00000131 0.00000000 0.00163751)
(0.00151966 0.00000272 0.00000000 -0.00000189 0.00000000 0.00163616)
(0.00150459 0.00000311 0.00000000 -0.00000204 0.00000000 0.00166767)
(0.00149321 0.00000267 0.00000000 -0.00000193 0.00000000 0.00172347)
(0.00150327 0.00000263 0.00000000 -0.00000147 0.00000000 0.00172173)
(0.00145010 0.00000196 0.00000000 -0.00000270 0.00000000 0.00168525)
(0.00148275 0.00000179 0.00000000 -0.00000169 0.00000000 0.00172037)
(0.00146332 0.00000188 0.00000000 -0.00000164 0.00000000 0.00170227)
(0.00141635 0.00000078 0.00000000 -0.00000195 0.00000000 0.00162921)
(0.00144996 0.00000149 0.00000000 -0.00000125 0.00000000 0.00161679)
(0.00142749 0.00000070 0.00000000 -0.00000217 0.00000000 0.00157632)
(0.00145570 0.00000079 0.00000000 -0.00000154 0.00000000 0.00157885)
(0.00148219 0.00000070 0.00000000 -0.00000149 0.00000000 0.00154695)
(0.00147923 0.00000134 0.00000000 -0.00000154 0.00000000 0.00153696)
(0.00146989 0.00000099 0.00000000 -0.00000182 0.00000000 0.00154550)
(0.00146020 0.00000112 0.00000000 -0.00000167 0.00000000 0.00154246)
(0.00141268 0.00000095 0.00000000 -0.00000215 0.00000000 0.00153547)
(0.00136955 0.00000098 0.00000000 -0.00000140 0.00000000 0.00156394)
(0.00138131 -0.00000002 0.00000000 -0.00000052 0.00000000 0.00158870)
(0.00136507 -0.00000036 0.00000000 -0.00000009 0.00000000 0.00155662)
(0.00134051 -0.00000057 0.00000000 -0.00000008 0.00000000 0.00154753)
(0.00123579 0.00000044 0.00000000 -0.00000195 0.00000000 0.00144929)
(0.00119552 -0.00000004 0.00000000 -0.00000142 0.00000000 0.00140298)
(0.00120654 -0.00000029 0.00000000 -0.00000176 0.00000000 0.00138238)
(0.00120850 -0.00000017 0.00000000 -0.00000123 0.00000000 0.00140941)
(0.00115783 -0.00000032 0.00000000 -0.00000132 0.00000000 0.00138115)
(0.00111456 0.00000040 0.00000000 -0.00000203 0.00000000 0.00133174)
(0.00112385 -0.00000027 0.00000000 -0.00000157 0.00000000 0.00132736)
(0.00114128 -0.00000023 0.00000000 -0.00000126 0.00000000 0.00130830)
(0.00114851 -0.00000181 0.00000000 0.00000005 0.00000000 0.00135430)
(0.00115071 0.00000029 0.00000000 -0.00000149 0.00000000 0.00131225)
(0.00113916 -0.00000071 0.00000000 -0.00000149 0.00000000 0.00129306)
(0.00109006 -0.00000031 0.00000000 -0.00000149 0.00000000 0.00127690)
(0.00106578 -0.00000103 0.00000000 -0.00000124 0.00000000 0.00124094)
(0.00102447 -0.00000062 0.00000000 -0.00000112 0.00000000 0.00120578)
(0.00103890 -0.00000198 0.00000000 0.00000024 0.00000000 0.00122722)
(0.00095811 -0.00000092 0.00000000 -0.00000117 0.00000000 0.00112791)
(0.00095201 -0.00000057 0.00000000 -0.00000107 0.00000000 0.00107795)
(0.00092965 -0.00000009 0.00000000 -0.00000137 0.00000000 0.00106371)
(0.00096175 -0.00000150 0.00000000 0.00000026 0.00000000 0.00112670)
(0.00089975 -0.00000070 0.00000000 -0.00000093 0.00000000 0.00106183)
(0.00082050 -0.00000035 0.00000000 -0.00000118 0.00000000 0.00100720)
(0.00081405 -0.00000035 0.00000000 -0.00000103 0.00000000 0.00096831)
(0.00079287 -0.00000047 0.00000000 -0.00000111 0.00000000 0.00092706)
(0.00083412 -0.00000160 0.00000000 0.00000006 0.00000000 0.00095632)
(0.00081679 -0.00000127 0.00000000 -0.00000009 0.00000000 0.00093673)
(0.00077801 -0.00000079 0.00000000 -0.00000075 0.00000000 0.00089404)
(0.00076011 -0.00000029 0.00000000 -0.00000096 0.00000000 0.00087861)
(0.00074316 -0.00000122 0.00000000 -0.00000051 0.00000000 0.00087343)
(0.00077669 -0.00000173 0.00000000 0.00000021 0.00000000 0.00087864)
(0.00072620 -0.00000048 0.00000000 -0.00000074 0.00000000 0.00082997)
(0.00070215 -0.00000024 0.00000000 -0.00000088 0.00000000 0.00081735)
(0.00070887 -0.00000025 0.00000000 -0.00000079 0.00000000 0.00081914)
(0.00070042 -0.00000004 0.00000000 -0.00000097 0.00000000 0.00082193)
(0.00069335 -0.00000005 0.00000000 -0.00000074 0.00000000 0.00085411)
(0.00071151 -0.00000005 0.00000000 -0.00000062 0.00000000 0.00089690)
(0.00071753 -0.00000005 0.00000000 -0.00000094 0.00000000 0.00094422)
(0.00074109 0.00000021 0.00000000 -0.00000094 0.00000000 0.00100793)
(0.00079108 0.00000021 0.00000000 -0.00000065 0.00000000 0.00113518)
(0.00085415 0.00000069 0.00000000 -0.00000126 0.00000000 0.00123881)
(0.00124625 -0.00000321 0.00000000 -0.00000014 0.00000000 0.00149641)
(0.00218867 0.00058337 0.00000000 0.00017926 0.00000000 0.00503292)
(-0.00001414 0.00008658 0.00000000 0.00012984 0.00000000 0.00121582)
(0.00001009 -0.00000155 0.00000000 -0.00001267 0.00000000 0.00017855)
(-0.00001426 -0.00002427 0.00000000 -0.00003506 0.00000000 0.00005294)
(0.00000241 -0.00000004 0.00000000 -0.00000314 0.00000000 -0.00000956)
(-0.00001125 -0.00003577 0.00000000 -0.00007781 0.00000000 -0.00043101)
(0.00002333 0.00002663 0.00000000 0.00003067 0.00000000 -0.00022113)
(-0.00001888 -0.00006084 0.00000000 -0.00012735 0.00000000 -0.00045204)
(0.00001295 0.00002011 0.00000000 0.00003018 0.00000000 0.00001226)
(0.00001932 0.00003061 0.00000000 0.00004885 0.00000000 -0.00036357)
(-0.00005764 -0.00009561 0.00000000 -0.00015166 0.00000000 -0.00085236)
(-0.00001800 -0.00007531 0.00000000 -0.00018154 0.00000000 -0.00053202)
(0.00002409 0.00004513 0.00000000 0.00008839 0.00000000 -0.00017061)
(-0.00002697 -0.00003762 0.00000000 -0.00005235 0.00000000 -0.00012055)
(0.00004899 0.00004003 0.00000000 0.00002440 0.00000000 0.00012190)
(0.00102305 0.00001004 0.00000000 0.00000874 0.00000000 0.00209301)
(0.00503976 -0.00018285 0.00000000 0.00015222 0.00000000 0.00521536)
(0.00022870 -0.00019445 0.00000000 0.00013205 0.00000000 0.00020722)
(0.00006470 -0.00003132 0.00000000 -0.00000606 0.00000000 0.00038093)
(0.00005601 -0.00005847 0.00000000 0.00006214 0.00000000 0.00053988)
(0.00008267 -0.00010859 0.00000000 0.00015261 0.00000000 0.00059595)
(0.00008793 -0.00010882 0.00000000 0.00013598 0.00000000 0.00076906)
(-0.00000968 -0.00002088 0.00000000 0.00010519 0.00000000 0.00049113)
(0.00004451 -0.00008565 0.00000000 0.00016715 0.00000000 0.00088480)
(0.00012888 -0.00017316 0.00000000 0.00024358 0.00000000 0.00115328)
(0.00008458 -0.00015241 0.00000000 0.00028764 0.00000000 0.00128488)
(0.00017262 -0.00022620 0.00000000 0.00031507 0.00000000 0.00180110)
(0.00020924 -0.00023859 0.00000000 0.00028890 0.00000000 0.00197443)
(0.00027268 -0.00033645 0.00000000 0.00047598 0.00000000 0.00278322)
(0.00060989 -0.00047624 0.00000000 0.00042631 0.00000000 0.00335316)
(0.00089242 -0.00049781 0.00000000 0.00035981 0.00000000 0.00306727)
(0.00108030 -0.00011159 0.00000000 0.00005103 0.00000000 0.00249605)
(0.00084558 0.00000717 0.00000000 0.00001277 0.00000000 0.00118860)
(0.00093139 0.00000373 0.00000000 0.00001299 0.00000000 0.00112522)
(0.00108590 0.00000360 0.00000000 0.00001417 0.00000000 0.00112418)
(0.00128261 0.00000317 0.00000000 0.00001584 0.00000000 0.00117509)
(0.00149178 0.00000412 0.00000000 0.00001754 0.00000000 0.00124434)
(0.00179262 0.00000194 0.00000000 0.00001895 0.00000000 0.00133304)
(0.00222522 0.00000504 0.00000000 0.00002239 0.00000000 0.00147838)
(0.00268467 0.00000942 0.00000000 0.00002772 0.00000000 0.00170205)
(0.00309094 0.00001731 0.00000000 0.00003389 0.00000000 0.00197887)
(0.00348751 0.00002404 0.00000000 0.00003896 0.00000000 0.00228102)
(0.00380753 0.00003141 0.00000000 0.00004393 0.00000000 0.00263624)
(0.00414967 0.00003525 0.00000000 0.00005096 0.00000000 0.00299591)
(0.00452024 0.00003781 0.00000000 0.00005977 0.00000000 0.00343861)
(0.00489004 0.00004578 0.00000000 0.00006879 0.00000000 0.00388394)
(0.00524552 0.00004826 0.00000000 0.00007517 0.00000000 0.00427831)
(0.00549067 0.00005680 0.00000000 0.00008409 0.00000000 0.00473851)
(0.00576588 0.00005305 0.00000000 0.00009317 0.00000000 0.00517464)
(0.00610365 0.00005237 0.00000000 0.00009767 0.00000000 0.00557168)
(0.00639207 0.00005286 0.00000000 0.00010574 0.00000000 0.00598419)
(0.00644362 0.00006541 0.00000000 0.00011084 0.00000000 0.00637666)
(0.00648445 0.00005437 0.00000000 0.00012639 0.00000000 0.00677619)
(0.00666140 0.00005010 0.00000000 0.00012816 0.00000000 0.00713556)
(0.00684142 0.00004458 0.00000000 0.00012816 0.00000000 0.00722783)
(0.00692890 0.00004156 0.00000000 0.00013402 0.00000000 0.00734390)
(0.00691329 0.00004450 0.00000000 0.00013755 0.00000000 0.00749416)
(0.00703343 0.00003056 0.00000000 0.00013773 0.00000000 0.00759750)
(0.00697119 0.00004264 0.00000000 0.00014177 0.00000000 0.00761356)
(0.00694317 0.00003534 0.00000000 0.00014074 0.00000000 0.00775914)
(0.00701316 0.00002517 0.00000000 0.00013884 0.00000000 0.00787602)
(0.00691475 0.00002709 0.00000000 0.00014201 0.00000000 0.00803580)
(0.00686592 0.00001843 0.00000000 0.00014523 0.00000000 0.00824684)
(0.00688554 0.00001458 0.00000000 0.00014294 0.00000000 0.00822477)
(0.00678063 0.00000198 0.00000000 0.00014727 0.00000000 0.00817131)
(0.00691193 -0.00000421 0.00000000 0.00014309 0.00000000 0.00825463)
(0.00692480 -0.00000511 0.00000000 0.00013602 0.00000000 0.00818826)
(0.00689953 -0.00001771 0.00000000 0.00013183 0.00000000 0.00798939)
(0.00691165 -0.00001028 0.00000000 0.00013039 0.00000000 0.00781249)
(0.00698869 -0.00002357 0.00000000 0.00013157 0.00000000 0.00774364)
(0.00699747 -0.00002154 0.00000000 0.00013132 0.00000000 0.00771896)
(0.00712035 -0.00002605 0.00000000 0.00012969 0.00000000 0.00761785)
(0.00705393 -0.00002157 0.00000000 0.00013143 0.00000000 0.00752819)
(0.00702417 -0.00002856 0.00000000 0.00013219 0.00000000 0.00748272)
(0.00698370 -0.00002802 0.00000000 0.00013032 0.00000000 0.00755327)
(0.00675988 -0.00002883 0.00000000 0.00013146 0.00000000 0.00752762)
(0.00654795 -0.00003291 0.00000000 0.00012737 0.00000000 0.00759980)
(0.00655168 -0.00004310 0.00000000 0.00012391 0.00000000 0.00761423)
(0.00644553 -0.00004609 0.00000000 0.00012487 0.00000000 0.00740928)
(0.00628315 -0.00004969 0.00000000 0.00012431 0.00000000 0.00734995)
(0.00607791 -0.00004303 0.00000000 0.00011809 0.00000000 0.00715474)
(0.00593799 -0.00004952 0.00000000 0.00010956 0.00000000 0.00693411)
(0.00599040 -0.00006102 0.00000000 0.00011263 0.00000000 0.00685367)
(0.00593118 -0.00005301 0.00000000 0.00011106 0.00000000 0.00688026)
(0.00581220 -0.00005595 0.00000000 0.00010596 0.00000000 0.00684174)
(0.00570138 -0.00005789 0.00000000 0.00010670 0.00000000 0.00670147)
(0.00572597 -0.00006285 0.00000000 0.00010466 0.00000000 0.00661844)
(0.00575767 -0.00006042 0.00000000 0.00009841 0.00000000 0.00650768)
(0.00571993 -0.00007214 0.00000000 0.00010006 0.00000000 0.00651626)
(0.00579566 -0.00006058 0.00000000 0.00010179 0.00000000 0.00647324)
(0.00577713 -0.00007139 0.00000000 0.00009886 0.00000000 0.00642428)
(0.00562648 -0.00006888 0.00000000 0.00009883 0.00000000 0.00634191)
(0.00556894 -0.00007570 0.00000000 0.00009332 0.00000000 0.00620754)
(0.00539040 -0.00007026 0.00000000 0.00009112 0.00000000 0.00605419)
(0.00526873 -0.00007316 0.00000000 0.00008454 0.00000000 0.00593500)
(0.00518729 -0.00007578 0.00000000 0.00008104 0.00000000 0.00575257)
(0.00513546 -0.00006698 0.00000000 0.00007866 0.00000000 0.00551262)
(0.00499401 -0.00006658 0.00000000 0.00007870 0.00000000 0.00545343)
(0.00484851 -0.00006481 0.00000000 0.00007738 0.00000000 0.00547976)
(0.00471800 -0.00006785 0.00000000 0.00007506 0.00000000 0.00538035)
(0.00449434 -0.00006847 0.00000000 0.00007134 0.00000000 0.00523517)
(0.00444230 -0.00006388 0.00000000 0.00006694 0.00000000 0.00505966)
(0.00439558 -0.00006963 0.00000000 0.00006503 0.00000000 0.00486990)
(0.00436855 -0.00006498 0.00000000 0.00006228 0.00000000 0.00477027)
(0.00430733 -0.00006115 0.00000000 0.00006203 0.00000000 0.00469004)
(0.00423081 -0.00006456 0.00000000 0.00006111 0.00000000 0.00461413)
(0.00414751 -0.00005828 0.00000000 0.00006284 0.00000000 0.00457530)
(0.00405596 -0.00006756 0.00000000 0.00005978 0.00000000 0.00448128)
(0.00408045 -0.00006157 0.00000000 0.00005612 0.00000000 0.00439129)
(0.00402408 -0.00005762 0.00000000 0.00005523 0.00000000 0.00436142)
(0.00393130 -0.00005371 0.00000000 0.00005401 0.00000000 0.00435008)
(0.00386679 -0.00005096 0.00000000 0.00005577 0.00000000 0.00434562)
(0.00381068 -0.00004636 0.00000000 0.00005434 0.00000000 0.00440777)
(0.00367701 -0.00004234 0.00000000 0.00005520 0.00000000 0.00451606)
(0.00365724 -0.00003894 0.00000000 0.00005709 0.00000000 0.00469917)
(0.00368107 -0.00004314 0.00000000 0.00006358 0.00000000 0.00503944)
(0.00362140 -0.00003674 0.00000000 0.00006326 0.00000000 0.00540878)
(0.00370033 -0.00004216 0.00000000 0.00007200 0.00000000 0.00597421)
(0.00406793 -0.00005595 0.00000000 0.00008629 0.00000000 0.00672276)
(0.00551463 -0.00011699 0.00000000 0.00010209 0.00000000 0.00802825)
(0.00595161 0.00111715 0.00000000 0.00039824 0.00000000 0.01347145)
(0.00280762 0.00178246 0.00000000 0.00120778 0.00000000 0.00712504)
(0.00054683 0.00055190 0.00000000 0.00058747 0.00000000 0.00493817)
(0.00005255 0.00012301 0.00000000 0.00024063 0.00000000 0.00120085)
(0.00000767 0.00000866 0.00000000 0.00000651 0.00000000 0.00049621)
(-0.00005514 -0.00013370 0.00000000 -0.00025158 0.00000000 0.00016035)
(0.00000019 -0.00002042 0.00000000 -0.00006444 0.00000000 -0.00060720)
(-0.00005100 -0.00010421 0.00000000 -0.00019359 0.00000000 0.00084388)
(0.00000185 0.00000269 0.00000000 -0.00000034 0.00000000 -0.00019558)
(-0.00000309 -0.00003194 0.00000000 -0.00011020 0.00000000 -0.00109475)
(-0.00005614 -0.00010186 0.00000000 -0.00016719 0.00000000 0.00010208)
(-0.00003399 -0.00011870 0.00000000 -0.00027552 0.00000000 0.00002631)
(0.00001803 0.00005063 0.00000000 0.00011099 0.00000000 -0.00015285)
(0.00001609 -0.00000857 0.00000000 -0.00003693 0.00000000 0.00001016)
(-0.00117549 -0.00048982 0.00000000 -0.00025363 0.00000000 -0.00060620)
(0.00340325 0.00004931 0.00000000 0.00005969 0.00000000 0.00475929)
(0.00874393 -0.00037337 0.00000000 0.00041195 0.00000000 0.00844252)
(0.00130994 -0.00085569 0.00000000 0.00060370 0.00000000 0.00138058)
(0.00025700 -0.00030282 0.00000000 0.00038459 0.00000000 0.00117447)
(0.00013640 -0.00020943 0.00000000 0.00032779 0.00000000 0.00120154)
(0.00012440 -0.00020076 0.00000000 0.00034145 0.00000000 0.00121870)
(0.00017406 -0.00026150 0.00000000 0.00040777 0.00000000 0.00159772)
(0.00018058 -0.00028981 0.00000000 0.00048607 0.00000000 0.00120751)
(0.00016939 -0.00029752 0.00000000 0.00055094 0.00000000 0.00155166)
(0.00029630 -0.00043831 0.00000000 0.00068628 0.00000000 0.00232258)
(0.00040473 -0.00055387 0.00000000 0.00080633 0.00000000 0.00280228)
(0.00043124 -0.00059441 0.00000000 0.00090082 0.00000000 0.00352448)
(0.00057913 -0.00065382 0.00000000 0.00082491 0.00000000 0.00414407)
(0.00076833 -0.00077817 0.00000000 0.00095828 0.00000000 0.00491747)
(0.00107269 -0.00075686 0.00000000 0.00072414 0.00000000 0.00544162)
(0.00142606 -0.00065319 0.00000000 0.00051157 0.00000000 0.00483332)
(0.00166640 -0.00014130 0.00000000 0.00013329 0.00000000 0.00392743)
(0.00170136 0.00002971 0.00000000 0.00006746 0.00000000 0.00244259)
(0.00194231 0.00001724 0.00000000 0.00006879 0.00000000 0.00227033)
(0.00231651 0.00001405 0.00000000 0.00007437 0.00000000 0.00225408)
(0.00279762 0.00001275 0.00000000 0.00008189 0.00000000 0.00233737)
(0.00329000 0.00001396 0.00000000 0.00008806 0.00000000 0.00248003)
(0.00396645 0.00000372 0.00000000 0.00010088 0.00000000 0.00265160)
(0.00483931 0.00001273 0.00000000 0.00011660 0.00000000 0.00292202)
(0.00568983 0.00002622 0.00000000 0.00014049 0.00000000 0.00332816)
(0.00638957 0.00005110 0.00000000 0.00016937 0.00000000 0.00382798)
(0.00699533 0.00006266 0.00000000 0.00019220 0.00000000 0.00437433)
(0.00746497 0.00008243 0.00000000 0.00022395 0.00000000 0.00500831)
(0.00792412 0.00008393 0.00000000 0.00025258 0.00000000 0.00568406)
(0.00845273 0.00008340 0.00000000 0.00029118 0.00000000 0.00644169)
(0.00896095 0.00009646 0.00000000 0.00032859 0.00000000 0.00718248)
(0.00943518 0.00009286 0.00000000 0.00036326 0.00000000 0.00784681)
(0.00979891 0.00010461 0.00000000 0.00039606 0.00000000 0.00863757)
(0.01018580 0.00008657 0.00000000 0.00042860 0.00000000 0.00937749)
(0.01060100 0.00008011 0.00000000 0.00045272 0.00000000 0.01004471)
(0.01096401 0.00007422 0.00000000 0.00048565 0.00000000 0.01073300)
(0.01095535 0.00010017 0.00000000 0.00050747 0.00000000 0.01136774)
(0.01092986 0.00006006 0.00000000 0.00055997 0.00000000 0.01194927)
(0.01123237 0.00003519 0.00000000 0.00057545 0.00000000 0.01247219)
(0.01157334 0.00003360 0.00000000 0.00057529 0.00000000 0.01263477)
(0.01169470 0.00002160 0.00000000 0.00059658 0.00000000 0.01280845)
(0.01167567 0.00001997 0.00000000 0.00061233 0.00000000 0.01303678)
(0.01177547 -0.00001074 0.00000000 0.00061807 0.00000000 0.01315681)
(0.01173265 0.00002597 0.00000000 0.00062268 0.00000000 0.01321689)
(0.01165632 0.00000307 0.00000000 0.00062783 0.00000000 0.01342117)
(0.01174998 -0.00002083 0.00000000 0.00061956 0.00000000 0.01366661)
(0.01159352 -0.00001611 0.00000000 0.00062942 0.00000000 0.01392400)
(0.01158482 -0.00003975 0.00000000 0.00064259 0.00000000 0.01423401)
(0.01163031 -0.00004462 0.00000000 0.00063230 0.00000000 0.01423275)
(0.01157310 -0.00007330 0.00000000 0.00064124 0.00000000 0.01420749)
(0.01183595 -0.00009806 0.00000000 0.00063681 0.00000000 0.01429551)
(0.01198580 -0.00009714 0.00000000 0.00061448 0.00000000 0.01420371)
(0.01205110 -0.00011121 0.00000000 0.00059097 0.00000000 0.01393947)
(0.01208641 -0.00010245 0.00000000 0.00059045 0.00000000 0.01364881)
(0.01228471 -0.00012943 0.00000000 0.00059533 0.00000000 0.01355218)
(0.01235453 -0.00012476 0.00000000 0.00059549 0.00000000 0.01356223)
(0.01249565 -0.00013343 0.00000000 0.00059397 0.00000000 0.01341879)
(0.01237323 -0.00012680 0.00000000 0.00059420 0.00000000 0.01326958)
(0.01231817 -0.00014236 0.00000000 0.00059713 0.00000000 0.01314319)
(0.01216680 -0.00013583 0.00000000 0.00058448 0.00000000 0.01324773)
(0.01182757 -0.00012749 0.00000000 0.00058812 0.00000000 0.01321996)
(0.01150072 -0.00015002 0.00000000 0.00057267 0.00000000 0.01332500)
(0.01154601 -0.00017387 0.00000000 0.00056309 0.00000000 0.01336351)
(0.01141954 -0.00017020 0.00000000 0.00056011 0.00000000 0.01306246)
(0.01112228 -0.00018048 0.00000000 0.00056046 0.00000000 0.01298245)
(0.01088529 -0.00016581 0.00000000 0.00053229 0.00000000 0.01267351)
(0.01074055 -0.00018396 0.00000000 0.00050776 0.00000000 0.01234255)
(0.01081133 -0.00020607 0.00000000 0.00050951 0.00000000 0.01223174)
(0.01070057 -0.00018230 0.00000000 0.00050261 0.00000000 0.01223646)
(0.01055851 -0.00019341 0.00000000 0.00049496 0.00000000 0.01218915)
(0.01045296 -0.00020667 0.00000000 0.00048301 0.00000000 0.01200607)
(0.01053653 -0.00021838 0.00000000 0.00048003 0.00000000 0.01185852)
(0.01056735 -0.00021085 0.00000000 0.00045911 0.00000000 0.01168668)
(0.01057867 -0.00023505 0.00000000 0.00046035 0.00000000 0.01164843)
(0.01066624 -0.00021470 0.00000000 0.00046653 0.00000000 0.01158167)
(0.01064980 -0.00022721 0.00000000 0.00045517 0.00000000 0.01149825)
(0.01050042 -0.00022990 0.00000000 0.00045187 0.00000000 0.01138947)
(0.01045318 -0.00023823 0.00000000 0.00043024 0.00000000 0.01123461)
(0.01020780 -0.00022633 0.00000000 0.00041176 0.00000000 0.01100442)
(0.01003468 -0.00023790 0.00000000 0.00039565 0.00000000 0.01075681)
(0.00996460 -0.00024401 0.00000000 0.00038383 0.00000000 0.01050008)
(0.00986864 -0.00021755 0.00000000 0.00036960 0.00000000 0.01012505)
(0.00961488 -0.00022099 0.00000000 0.00036571 0.00000000 0.01003773)
(0.00935633 -0.00021892 0.00000000 0.00036386 0.00000000 0.01007633)
(0.00908829 -0.00022099 0.00000000 0.00035110 0.00000000 0.00992831)
(0.00878816 -0.00022685 0.00000000 0.00033412 0.00000000 0.00972232)
(0.00870117 -0.00021551 0.00000000 0.00031644 0.00000000 0.00946545)
(0.00865566 -0.00023156 0.00000000 0.00030729 0.00000000 0.00912271)
(0.00861835 -0.00021823 0.00000000 0.00029813 0.00000000 0.00891910)
(0.00852661 -0.00020936 0.00000000 0.00029653 0.00000000 0.00876470)
(0.00838632 -0.00021648 0.00000000 0.00028937 0.00000000 0.00865869)
(0.00824118 -0.00020115 0.00000000 0.00029431 0.00000000 0.00859790)
(0.00816867 -0.00022504 0.00000000 0.00028141 0.00000000 0.00845295)
(0.00821136 -0.00021197 0.00000000 0.00027333 0.00000000 0.00831749)
(0.00809792 -0.00019993 0.00000000 0.00026332 0.00000000 0.00827866)
(0.00793736 -0.00018735 0.00000000 0.00025707 0.00000000 0.00829205)
(0.00777591 -0.00018006 0.00000000 0.00026097 0.00000000 0.00831991)
(0.00761018 -0.00016362 0.00000000 0.00025820 0.00000000 0.00843624)
(0.00730491 -0.00015683 0.00000000 0.00026184 0.00000000 0.00864655)
(0.00716953 -0.00014939 0.00000000 0.00026935 0.00000000 0.00901093)
(0.00706167 -0.00015312 0.00000000 0.00029098 0.00000000 0.00963770)
(0.00677659 -0.00013892 0.00000000 0.00029464 0.00000000 0.01037709)
(0.00673403 -0.00017436 0.00000000 0.00033456 0.00000000 0.01144825)
(0.00737858 -0.00024496 0.00000000 0.00039219 0.00000000 0.01292267)
(0.00922792 -0.00037935 0.00000000 0.00047317 0.00000000 0.01559667)
(0.00868179 0.00142473 0.00000000 0.00084247 0.00000000 0.02130471)
(0.00591739 0.00336946 0.00000000 0.00231720 0.00000000 0.01789204)
(0.00297594 0.00272756 0.00000000 0.00275522 0.00000000 0.01459152)
(0.00123800 0.00136031 0.00000000 0.00160688 0.00000000 0.00735471)
(0.00039523 0.00048599 0.00000000 0.00062805 0.00000000 0.00538376)
(0.00004155 0.00015229 0.00000000 0.00038350 0.00000000 0.00303679)
(0.00018441 0.00012854 0.00000000 0.00006527 0.00000000 0.00243559)
(-0.00009084 -0.00005787 0.00000000 0.00003438 0.00000000 0.00290032)
(0.00000757 0.00001247 0.00000000 0.00002725 0.00000000 0.00018949)
(-0.00007581 -0.00024462 0.00000000 -0.00052268 0.00000000 -0.00057554)
(-0.00002296 -0.00003259 0.00000000 -0.00002698 0.00000000 0.00292471)
(-0.00011027 -0.00015714 0.00000000 -0.00025701 0.00000000 0.00217645)
(-0.00001979 -0.00001864 0.00000000 -0.00001419 0.00000000 -0.00078780)
(-0.00009596 -0.00007393 0.00000000 -0.00005532 0.00000000 -0.00014707)
(0.00065788 -0.00006018 0.00000000 -0.00015640 0.00000000 0.00038358)
(0.00849516 0.00031569 0.00000000 0.00017922 0.00000000 0.00786033)
(0.01310459 -0.00052073 0.00000000 0.00081046 0.00000000 0.01065567)
(0.00357446 -0.00225260 0.00000000 0.00161007 0.00000000 0.00379208)
(0.00057713 -0.00078325 0.00000000 0.00110257 0.00000000 0.00225354)
(0.00035269 -0.00050168 0.00000000 0.00073966 0.00000000 0.00195649)
(0.00019670 -0.00036716 0.00000000 0.00072223 0.00000000 0.00188818)
(0.00029965 -0.00049163 0.00000000 0.00085395 0.00000000 0.00237257)
(0.00041451 -0.00060626 0.00000000 0.00092034 0.00000000 0.00225074)
(0.00052183 -0.00076043 0.00000000 0.00116311 0.00000000 0.00277384)
(0.00060475 -0.00088039 0.00000000 0.00138012 0.00000000 0.00362896)
(0.00074299 -0.00101399 0.00000000 0.00152493 0.00000000 0.00457435)
(0.00085390 -0.00109943 0.00000000 0.00160029 0.00000000 0.00532206)
(0.00097334 -0.00106777 0.00000000 0.00141744 0.00000000 0.00629758)
(0.00121555 -0.00108405 0.00000000 0.00131674 0.00000000 0.00696970)
(0.00147246 -0.00089527 0.00000000 0.00093826 0.00000000 0.00705475)
(0.00184470 -0.00066686 0.00000000 0.00062782 0.00000000 0.00625011)
(0.00217955 -0.00014598 0.00000000 0.00026218 0.00000000 0.00513830)
(0.00252948 0.00006407 0.00000000 0.00017689 0.00000000 0.00357746)
(0.00300785 0.00003783 0.00000000 0.00017828 0.00000000 0.00328232)
(0.00366244 0.00002473 0.00000000 0.00019174 0.00000000 0.00324271)
(0.00446501 0.00002082 0.00000000 0.00020793 0.00000000 0.00334475)
(0.00526173 0.00001958 0.00000000 0.00022557 0.00000000 0.00354965)
(0.00626890 -0.00000657 0.00000000 0.00025855 0.00000000 0.00380000)
(0.00746115 0.00000667 0.00000000 0.00029820 0.00000000 0.00416596)
(0.00853119 0.00003163 0.00000000 0.00035528 0.00000000 0.00470500)
(0.00932068 0.00007432 0.00000000 0.00042447 0.00000000 0.00535593)
(0.00991413 0.00007885 0.00000000 0.00047762 0.00000000 0.00608364)
(0.01034582 0.00010578 0.00000000 0.00055382 0.00000000 0.00691628)
(0.01072950 0.00008913 0.00000000 0.00062465 0.00000000 0.00780861)
(0.01125370 0.00007064 0.00000000 0.00071389 0.00000000 0.00874766)
(0.01176663 0.00007509 0.00000000 0.00079703 0.00000000 0.00965516)
(0.01225698 0.00005562 0.00000000 0.00087401 0.00000000 0.01051044)
(0.01261417 0.00005784 0.00000000 0.00094478 0.00000000 0.01149398)
(0.01296938 0.00001729 0.00000000 0.00101724 0.00000000 0.01238208)
(0.01336000 -0.00000111 0.00000000 0.00107043 0.00000000 0.01322485)
(0.01375101 -0.00001882 0.00000000 0.00113760 0.00000000 0.01410484)
(0.01368024 0.00001637 0.00000000 0.00119144 0.00000000 0.01483841)
(0.01365079 -0.00005891 0.00000000 0.00128559 0.00000000 0.01551392)
(0.01407114 -0.00011899 0.00000000 0.00132551 0.00000000 0.01607038)
(0.01450890 -0.00010941 0.00000000 0.00133221 0.00000000 0.01624659)
(0.01465638 -0.00012628 0.00000000 0.00137255 0.00000000 0.01646347)
(0.01466826 -0.00013431 0.00000000 0.00140052 0.00000000 0.01676468)
(0.01472799 -0.00017186 0.00000000 0.00141023 0.00000000 0.01690927)
(0.01465600 -0.00010836 0.00000000 0.00142399 0.00000000 0.01696923)
(0.01458607 -0.00014909 0.00000000 0.00143727 0.00000000 0.01720267)
(0.01466740 -0.00018437 0.00000000 0.00142366 0.00000000 0.01753702)
(0.01452954 -0.00017292 0.00000000 0.00144456 0.00000000 0.01783012)
(0.01461670 -0.00021232 0.00000000 0.00146631 0.00000000 0.01818011)
(0.01467475 -0.00020818 0.00000000 0.00144181 0.00000000 0.01820833)
(0.01468862 -0.00025518 0.00000000 0.00146918 0.00000000 0.01822570)
(0.01509076 -0.00030934 0.00000000 0.00145768 0.00000000 0.01830860)
(0.01538592 -0.00029410 0.00000000 0.00141546 0.00000000 0.01821705)
(0.01549728 -0.00029848 0.00000000 0.00136952 0.00000000 0.01786863)
(0.01561151 -0.00029120 0.00000000 0.00137332 0.00000000 0.01755190)
(0.01590501 -0.00032445 0.00000000 0.00137955 0.00000000 0.01749629)
(0.01608223 -0.00031696 0.00000000 0.00138414 0.00000000 0.01752219)
(0.01617817 -0.00031942 0.00000000 0.00137844 0.00000000 0.01735557)
(0.01602602 -0.00031041 0.00000000 0.00138110 0.00000000 0.01719414)
(0.01595400 -0.00033258 0.00000000 0.00137485 0.00000000 0.01704094)
(0.01570315 -0.00031173 0.00000000 0.00134454 0.00000000 0.01713256)
(0.01532470 -0.00028782 0.00000000 0.00135506 0.00000000 0.01713367)
(0.01493250 -0.00033628 0.00000000 0.00132568 0.00000000 0.01722660)
(0.01501036 -0.00036964 0.00000000 0.00130634 0.00000000 0.01727664)
(0.01489161 -0.00034365 0.00000000 0.00129466 0.00000000 0.01697117)
(0.01454904 -0.00035873 0.00000000 0.00128963 0.00000000 0.01692539)