# p  FACE_DATA 120
#  x  y  z  p
0.0400380444494785 1 0 0.930722400330595
0.12009112920742 0.999013462385996 0 0.940862511913933
0.199800917836694 0.993013560517572 0 0.940664588201193
0.277973123732253 0.977106876033293 0 0.970242745186699
0.352564097866706 0.949013650492265 0 0.98848997001636
0.422486414070752 0.91039554727693 0 0.996754720121251
0.488446790561577 0.865122145123153 0 1.00008865776155
0.551688813173322 0.81604113176491 0 1.00282583307247
0.613297699742015 0.764897295825243 0 1.00436399148478
0.674201235498126 0.712904702378629 0 1.00559659966787
0.735216308315269 0.661046928407308 0 1.00633575157312
0.796797078317622 0.609864836111352 0 1.00689346745128
0.858966466369658 0.559397322826611 0 1.00731075489807
0.921616477621152 0.509527559944007 0 1.00761519278202
0.984634961032464 0.460123833328764 0 1.00786670363775
1.04790613974615 0.411043598829386 0 1.00809677642567
1.11136985060649 0.362212077182988 0 1.00839604924083
1.17518185381746 0.313839079473219 0 1.00877473108216
1.2396924606703 0.266405449307991 0 1.00926088540443
1.30529509242489 0.220501965991461 0 1.00985159895606
1.37240134748204 0.176849229244556 0 1.01051619156929
1.44143170495553 0.136341536273978 0 1.01114727580534
1.51266509713844 0.0998773425148416 0 1.01170844737517
1.58612968841127 0.0681756110930992 0 1.01218323867299
1.66168425684219 0.0418782578209594 0 1.01250238133137
1.73906428853787 0.0216271800168675 0 1.01261419133869
1.81786953217539 0.00800903408646795 0 1.01255111316655
1.89756736919159 0.00146303547032983 0 1.01160135730463
1.97760319968291 -3.63526342361808e-09 0 1.01079345816316
2.05767928858186 0 0 1.01060443046659
2.13775537748081 0 0 1.01074890597969
2.21783146637977 0 0 1.0113152928742
2.29790755527873 0 0 1.01223167329448
2.37798364417732 0 0 1.01347907572476
2.45805973307649 -5.55111512312579e-17 0 1.01501944409183
2.53813582197588 -5.5511151231258e-17 0 1.01682974943179
2.61821191087462 0 0 1.01888625952179
2.69828799977351 0 0 1.02117081849809
2.77836408867247 0 0 1.02366659510542
2.85844017757143 1.11022302462516e-16 0 1.02635898214105
2.93851626647038 1.11022302462515e-16 0 1.0292343369452
3.01859235536903 0 0 1.03227988668303
3.09866844426811 0 0 1.03548327888174
3.17874453316752 0 0 1.03883238849905
3.25882062206635 0 0 1.04231518158926
3.33889671096517 0 0 1.04591953220085
3.41897279986412 0 0 1.04963286858893
3.49904888876308 0 0 1.05344274956049
3.57912497766204 0 0 1.0573371066462
3.65920106656099 -5.55111512312579e-17 0 1.06130391659624
3.73927715545964 -5.55111512312581e-17 0 1.0653313706328
3.81935324435873 0 0 1.06940795586028
3.89942933325814 0 0 1.07352249863813
3.97950542215697 0 0 1.07766421413201
4.05958151105578 1.11022302462516e-16 0 1.08182276539488
4.13965759995473 1.11022302462516e-16 0 1.0859883117495
4.21973368885369 0 0 1.09015155840901
4.29980977775265 0 0 1.09430379400288
4.37988586665137 0 0 1.0984369220838
4.45996195555033 0 0 1.10254348220448
4.54003804444975 0 0 1.10661666152807
4.6201141333487 0 0 1.11065030057734
4.70019022224743 0 0 1.11463888550084
4.78026631114639 0 0 1.11857754225853
4.86034240004534 0 0 1.1224620063495
4.9404184889443 0 0 1.12628860731802
5.02049457784312 0 0 1.13005420975955
5.10057066674195 0 0 1.13375618435643
5.18064675564136 0 0 1.13739234688503
5.26072284454044 0 0 1.14096092478297
5.34079893343909 0 0 1.14446058764024
5.42087502233805 0 0 1.14789046021505
5.500951111237 0 0 1.1512500736542
5.58102720013596 0 0 1.15453936660553
5.66110328903492 0 0 1.15775855011643
5.74117937793372 0 0 1.16090810579852
5.82125546683256 0 0 1.16398866490578
5.90133155573197 0 0 1.16700097003996
5.98140764463105 0 0 1.16994598255516
6.0614837335297 0 0 1.17282471693506
6.14155982242866 0 0 1.17563848531124
6.22163591132762 0 0 1.17838848272927
6.30171200022658 0 0 1.18107631927009
6.38178808912547 0 0 1.18370315048557
6.4618641780242 0 0 1.1862709490328
6.54194026692358 0 0 1.18878078697119
6.62201635582276 0 0 1.19123544820295
6.70209244472136 0 0 1.19363645293231
6.78216853362031 0 0 1.19598776415444
6.86224462251927 0 0 1.19829396953486
6.94232071141823 0 0 1.20055700206875
7.02239680031717 -3.63526342361807e-09 0 1.20279786887477
7.10243263080849 0.00146303547033333 0 1.20495275177499
7.1821304678247 0.00800903408647879 0 1.20724190361694
7.26093571146222 0.0216271800168856 0 1.20950478094602
7.3383157431579 0.0418782578209844 0 1.21193941341825
7.41387031158882 0.0681756110931304 0 1.21442123830974
7.48733490286163 0.099877342514878 0 1.21701369783912
7.55856829504453 0.136341536274018 0 1.21961778942462
7.62759865251803 0.1768492292446 0 1.22220688611523
7.69470490757518 0.220501965991509 0 1.22453453667735
7.76030753932977 0.26640544930804 0 1.22642176240033
7.82481814618261 0.313839079473269 0 1.22755157443675
7.88863014939358 0.36221207718304 0 1.22772005946681
7.95209386025392 0.411043598829439 0 1.22663228941977
8.01536503896843 0.460123833328065 0 1.22450216031566
8.07838352238016 0.509527559942774 0 1.22125095823919
8.14103353363065 0.559397322826346 0 1.21657158392735
8.20320292168145 0.609864836112581 0 1.21008433467143
8.26478369168456 0.661046928407631 0 1.2008645031017
8.32579876450242 0.712904702378101 0 1.18732892070043
8.38670230025682 0.764897295826315 0 1.16550422023185
8.44831118682623 0.816041131765091 0 1.13304616079546
8.51155320943899 0.865122145122566 0 1.08761880535588
8.57751358592881 0.910395547277781 0 1.02213504434696
8.64743590213252 0.949013650493603 0 0.941167592605808
8.72202687626766 0.977106876033628 0 0.854717948820537
8.80019908216363 0.993013560517177 0 0.843093600409144
8.87990887079258 0.999013462385921 0 0.865492403733422
8.95996195555052 1 0 0.911960230218786
