# wallShearStress  FACE_DATA 120
#  x  y  z  wallShearStress_x  wallShearStress_y  wallShearStress_z  
0.0400380444494785 1 0 -0.00281969927511649 1.95192454493138e-05 6.18101413325781e-23
0.12009112920742 0.999013462385996 0 -0.00336220593132144 8.74332876215271e-05 1.27310983185597e-19
0.199800917836694 0.993013560517572 0 -0.00193910635793503 0.000227649842171237 1.88079096131566e-37
0.277973123732253 0.977106876033293 0 0.000620826495804298 -9.93638159715315e-05 1.07760348770384e-18
0.352564097866706 0.949013650492265 0 0.00146554366542512 -0.000597717753898896 1.31831429015941e-22
0.422486414070752 0.91039554727693 0 0.00101610472867431 -0.000573133013643383 2.45833455047658e-22
0.488446790561577 0.865122145123153 0 0.000599107428452662 -0.000403922013690009 2.24498987421334e-18
0.551688813173322 0.81604113176491 0 0.00042551156382527 -0.000316611224904807 -2.25761262160374e-18
0.613297699742015 0.764897295825243 0 0.000299301453821238 -0.000237221512176031 6.36698937417167e-16
0.674201235498126 0.712904702378629 0 0.000223948503114233 -0.000181816456449693 6.36793797530442e-16
0.735216308315269 0.661046928407308 0 0.000166309807995371 -0.000136287978539466 -5.55005340164079e-22
0.796797078317622 0.609864836111352 0 0.000139313081558817 -0.000114225559524291 1.10930290977981e-21
0.858966466369658 0.559397322826611 0 0.000125339365978132 -0.000103389963009034 -1.10977391533224e-21
0.921616477621152 0.509527559944007 0 0.00012629849398815 -0.000104683475329823 2.26959910208695e-18
0.984634961032464 0.460123833328764 0 0.000142293398212961 -0.000117371599303616 2.26962754794668e-18
1.04790613974615 0.411043598829386 0 0.000171690071446459 -0.000139620273948701 2.20979244569427e-21
1.11136985060649 0.362212077182988 0 0.000208086990705915 -0.000165594679495419 2.2522477813493e-18
1.17518185381746 0.313839079473219 0 0.000243927258715342 -0.000187653870938424 -4.49787138765541e-18
1.2396924606703 0.266405449307991 0 0.000276677233552627 -0.00020246240924265 2.23856578632248e-18
1.30529509242489 0.220501965991461 0 0.000301312492220483 -0.000205976452666291 2.24508419575991e-18
1.37240134748204 0.176849229244556 0 0.00031257849726943 -0.000195526724031975 -2.2397874727485e-18
1.44143170495553 0.136341536273978 0 0.000312035163640497 -0.000173823762360915 2.23515728870657e-18
1.51266509713844 0.0998773425148416 0 0.000305750781364303 -0.000147153412265558 2.36698040008262e-24
1.58612968841127 0.0681756110930992 0 0.000291714725946237 -0.000117203329448457 -2.22524577070754e-18
1.66168425684219 0.0418782578209594 0 0.00026874397050853 -8.57462640968324e-05 3.91204519953657e-35
1.73906428853787 0.0216271800168675 0 0.000241770290588671 -5.53593483408145e-05 -2.88889491658085e-34
1.81786953217539 0.00800903408646795 0 0.000195323382810133 -2.64879166812798e-05 1.618381286036e-16
1.89756736919159 0.00146303547032983 0 0.000221258899928421 -1.31692931459883e-05 1.63696934421251e-16
1.97760319968291 -3.63526342361808e-09 0 0.000387430733929131 -8.287639542123e-06 -5.15541562350894e-25
2.05767928858186 0 0 0.000557159545161163 -7.92255811064865e-06 -1.51154972337086e-32
2.13775537748081 0 0 0.000689536331787484 -7.54510807915744e-06 0
2.21783146637977 0 0 0.000805162536859242 -7.29311626841543e-06 1.74318121169945e-16
2.29790755527873 0 0 0.000902293339657127 -7.08170675141914e-06 1.75211381731369e-16
2.37798364417732 0 0 0.00098611967387218 -6.90892586643287e-06 0
2.45805973307649 -5.55111512312579e-17 0 0.00105845293789312 -6.77216481440501e-06 -2.93892556252862e-53
2.53813582197588 -5.5511151231258e-17 0 0.00112154774595048 -6.64658307127211e-06 -1.87903054846002e-51
2.61821191087462 0 0 0.00117665009439414 -6.5237090376937e-06 -0
2.69828799977351 0 0 0.00122484919778568 -6.39156695020016e-06 1.96527176854734e-21
2.77836408867247 0 0 0.00126685154455789 -6.24463072556601e-06 -1.62329225585623e-16
2.85844017757143 1.11022302462516e-16 0 0.00130321995455247 -6.07822792898439e-06 -1.63845870305179e-16
2.93851626647038 1.11022302462515e-16 0 0.00133435563497521 -5.88986097212688e-06 1.95331052020175e-21
3.01859235536903 0 0 0.0013605724077957 -5.67799787428185e-06 1.95941534270331e-21
3.09866844426811 0 0 0.00138211212978642 -5.44217165153288e-06 -1.95485867346376e-21
3.17874453316752 0 0 0.00139917874447166 -5.18305454863979e-06 1.96378755772017e-21
3.25882062206635 0 0 0.00141195683638947 -4.90179063682076e-06 -1.96087927985053e-21
3.33889671096517 0 0 0.00142061180007217 -4.59830813975379e-06 -0
3.41897279986412 0 0 0.00142526169556907 -4.27218667778853e-06 1.70374040025175e-16
3.49904888876308 0 0 0.0014260007947872 -3.92761763797814e-06 1.72023567896268e-16
3.57912497766204 0 0 0.00142302025536191 -3.56819281926801e-06 1.98756513403654e-21
3.65920106656099 -5.55111512312579e-17 0 0.00141647943347915 -3.19700747550541e-06 -9.95713874225263e-22
3.73927715545964 -5.55111512312581e-17 0 0.00140655693718601 -2.81752258173092e-06 1.00372118517291e-21
3.81935324435873 0 0 0.00139343919192017 -2.43234690052601e-06 -2.01285968748429e-21
3.89942933325814 0 0 0.00137731639262859 -2.04393298506712e-06 1.68188164063322e-16
3.97950542215697 0 0 0.00135838320102814 -1.65470805019558e-06 1.69659959620678e-16
4.05958151105578 1.11022302462516e-16 0 0.00133683845766131 -1.26698364365756e-06 5.10213882292116e-22
4.13965759995473 1.11022302462516e-16 0 0.00131288415786174 -8.82941334383284e-07 2.64630836798219e-41
4.21973368885369 0 0 0.00128672433609245 -5.04578044119162e-07 -3.01105720282266e-32
4.29980977775265 0 0 0.00125856351079874 -1.33693748543514e-07 2.60761587367902e-22
4.37988586665137 0 0 0.0012286052561343 2.28127510278818e-07 -3.92679978897753e-22
4.45996195555033 0 0 0.0011970506690088 5.79523151387269e-07 1.31597969075443e-22
4.54003804444975 0 0 0.00116409705016444 9.19343099246525e-07 0
4.6201141333487 0 0 0.00112993653876121 1.24666596336917e-06 -2.6777450658915e-22
4.70019022224743 0 0 0.00109475493763301 1.56076398099253e-06 2.68674585795108e-22
4.78026631114639 0 0 0.00105873033279541 1.86115994352519e-06 -3.15543331352643e-32
4.86034240004534 0 0 0.00102203199396476 2.147541216188e-06 -0
4.9404184889443 0 0 0.000984819155583197 2.41987356526535e-06 5.50742738792861e-22
5.02049457784312 0 0 0.000947240648107399 2.67819571137873e-06 -5.52819715911791e-22
5.10057066674195 0 0 0.000909436187781211 2.92267977971599e-06 -0
5.18064675564136 0 0 0.000871538345541312 3.15337921240279e-06 0
5.26072284454044 0 0 0.000833678179296483 3.37010698329489e-06 0
5.34079893343909 0 0 0.000795985931352965 3.5728534041875e-06 0
5.42087502233805 0 0 0.000758585294464076 3.76200535021929e-06 0
5.500951111237 0 0 0.000721590780432739 3.93809016513851e-06 -1.93022864969917e-16
5.58102720013596 0 0 0.000685103560226981 4.10209175647841e-06 -3.8747372802517e-16
5.66110328903492 0 0 0.000649211977028677 4.25473959366909e-06 -1.94335477660881e-16
5.74117937793372 0 0 0.000613994737295173 4.39695743199536e-06 4.71359149603552e-21
5.82125546683256 0 0 0.000579523343789507 4.52920622429716e-06 -2.36898457657103e-21
5.90133155573197 0 0 0.000545875559232441 4.65149426358803e-06 2.39024437256223e-21
5.98140764463105 0 0 0.000513129574231796 4.76440279779114e-06 -2.39910871981722e-21
6.0614837335297 0 0 0.000481369385058544 4.86787455639832e-06 -2.02290323906413e-16
6.14155982242866 0 0 0.000450675519685387 4.96308443212778e-06 -2.01493050480536e-16
6.22163591132762 0 0 0.000421140259735111 5.04950885691299e-06 2.4424936995237e-21
6.30171200022658 0 0 0.000392854121948872 5.12876196740285e-06 -2.46190920496031e-21
6.38178808912547 0 0 0.000365951404752732 5.19840295319055e-06 4.945282209001e-21
6.4618641780242 0 0 0.000340578628498709 5.26063945055753e-06 -2.48311029729914e-21
6.54194026692358 0 0 0.000316986164864257 5.30954964346409e-06 5.00221033317082e-21
6.62201635582276 0 0 0.000295464674719857 5.34908704457592e-06 -1.00429785465989e-20
6.70209244472136 0 0 0.000276471220699743 5.3680510315686e-06 5.03987982947653e-21
6.78216853362031 0 0 0.000260662822938953 5.37159967449153e-06 5.07187609589762e-21
6.86224462251927 0 0 0.000248673436907909 5.35095123153293e-06 -1.01746760300427e-20
6.94232071141823 0 0 0.000242093140452385 5.35586916974122e-06 5.10090164291815e-21
7.02239680031717 -3.63526342361807e-09 0 0.000239134706658318 5.2521320926488e-06 6.25077230408148e-25
7.10243263080849 0.00146303547033333 0 0.000250383107500169 1.22067571165747e-05 0
7.1821304678247 0.00800903408647879 0 0.000253153812690223 3.17831072084665e-05 -5.14303263445156e-21
7.26093571146222 0.0216271800168856 0 0.000246627321987455 4.86559302423624e-05 1.32922044536288e-18
7.3383157431579 0.0418782578209844 0 0.000235062948346544 6.25727297130154e-05 1.06084300798023e-23
7.41387031158882 0.0681756110931304 0 0.000209120081308619 6.79185940187501e-05 2.65221501418872e-18
7.48733490286163 0.099877342514878 0 0.000170653974015952 6.27523942643629e-05 2.68623107933079e-18
7.55856829504453 0.136341536274018 0 0.000113585520315386 4.1441984853178e-05 -2.70262047935058e-18
7.62759865251803 0.1768492292446 0 2.862092021939e-05 -3.58685594709256e-06 2.72066905092087e-18
7.69470490757518 0.220501965991509 0 -8.92338944214161e-05 -7.77813447559426e-05 -2.71942739299941e-18
7.76030753932977 0.26640544930804 0 -0.000242295980767021 -0.000182226988501209 -2.70300591944231e-18
7.82481814618261 0.313839079473269 0 -0.000429282650917981 -0.000314908721762011 -2.01620791053039e-34
7.88863014939358 0.36221207718304 0 -0.000649024084901118 -0.00047166905009297 -3.00926553810506e-36
7.95209386025392 0.411043598829439 0 -0.000880233915759911 -0.000636744162078107 2.65444953397228e-18
8.01536503896843 0.460123833328065 0 -0.00111067139622023 -0.000805423099500755 2.64133582992698e-18
8.07838352238016 0.509527559942774 0 -0.00135790815829797 -0.000992049479139347 2.62837890265382e-18
8.14103353363065 0.559397322826346 0 -0.00163695832754209 -0.00120953317137782 2.61388535875834e-18
8.20320292168145 0.609864836112581 0 -0.001974348677223 -0.00147826978021901 2.59669562804927e-18
8.26478369168456 0.661046928407631 0 -0.00241424131442317 -0.00183157542780496 -2.56995882159424e-18
8.32579876450242 0.712904702378101 0 -0.00307056567294822 -0.00233067372135456 -2.52610976771717e-18
8.38670230025682 0.764897295826315 0 -0.0039982829781157 -0.00295350695159648 2.4613057966188e-18
8.44831118682623 0.816041131765091 0 -0.00518519003198578 -0.00362055506786375 -2.3665038234175e-18
8.51155320943899 0.865122145122566 0 -0.00679930047165953 -0.00429840926493498 -2.23364608553279e-18
8.57751358592881 0.910395547277781 0 -0.00874805801336263 -0.00470594016241014 2.05450507534327e-18
8.64743590213252 0.949013650493603 0 -0.010697532285439 -0.00434808849311502 2.8588022611998e-35
8.72202687626766 0.977106876033628 0 -0.0100771969179308 -0.00254210347524135 -8.42940411423563e-19
8.80019908216363 0.993013560517177 0 -0.00694656829864979 -0.000848943649985698 -1.88079096131566e-37
8.87990887079258 0.999013462385921 0 -0.0036067292808534 -0.000121938269534675 1.13815072499061e-19
8.95996195555052 1 0 -0.00231663844108118 7.46815185140496e-06 0
