/*--------------------------------*- C++ -*----------------------------------*\
  =========                 |
  \\      /  F ield         | OpenFOAM: The Open Source CFD Toolbox
   \\    /   O peration     | Website:  https://openfoam.org
    \\  /    A nd           | Version:  7
     \\/     M anipulation  |
\*---------------------------------------------------------------------------*/
FoamFile
{
    version     2.0;
    format      ascii;
    class       volScalarField;
    location    "0";
    object      k_LES;
}
// * * * * * * * * * * * * * * * * * * * * * * * * * * * * * * * * * * * * * //

dimensions      [0 2 -2 0 0 0 0];

internalField   nonuniform List<scalar>
15600
(
0.00272570
0.00353588
0.00144995
0.00165229
0.00168708
0.00117098
0.00102185
0.00337074
0.00140616
0.00357043
0.00439855
0.00396368
0.00365569
0.00318624
0.00280248
0.00216366
0.00146407
0.00065932
0.00225781
0.00228371
0.00131697
0.00203071
0.00089039
0.00101288
0.00184454
0.00220943
0.00154241
0.00232538
0.00317368
0.00450098
0.00270133
0.00281363
0.00293308
0.00316063
0.00322169
0.00336808
0.00351480
0.00355798
0.00361092
0.00355114
0.00372412
0.00361411
0.00364034
0.00364256
0.00359953
0.00357285
0.00351243
0.00358049
0.00340807
0.00334798
0.00320692
0.00322336
0.00310756
0.00302146
0.00306691
0.00293248
0.00285865
0.00273973
0.00275483
0.00260543
0.00261222
0.00248048
0.00240626
0.00233648
0.00225334
0.00218591
0.00215191
0.00210977
0.00199172
0.00194211
0.00185856
0.00178538
0.00179994
0.00171644
0.00164874
0.00160573
0.00155980
0.00156804
0.00146763
0.00143267
0.00140314
0.00139141
0.00131002
0.00125180
0.00121256
0.00116820
0.00115394
0.00111799
0.00115061
0.00123470
0.00255305
0.00094171
0.00111037
0.00046401
0.00087671
0.00105766
0.00010456
-0.00011470
0.00005321
0.00012086
-0.00010036
0.00028783
-0.00023509
-0.00013426
0.00004926
0.00017876
0.00058614
0.00012560
0.00007325
0.00038833
0.00002605
-0.00029137
-0.00016209
0.00001926
-0.00099506
0.00009657
0.00046091
0.00050398
0.00173049
0.00213896
0.00729067
0.00884668
0.00575120
0.00555053
0.00538960
0.00454651
0.00464845
0.00638272
0.00669942
0.00957237
0.00958921
0.00973257
0.00899751
0.00869073
0.00726342
0.00732035
0.00577916
0.00506992
0.00660934
0.00666673
0.00636180
0.00695228
0.00621068
0.00641154
0.00741385
0.00797911
0.00850385
0.00945246
0.01028897
0.01130428
0.01059755
0.01140679
0.01217439
0.01274199
0.01330681
0.01383364
0.01430716
0.01450551
0.01468600
0.01483585
0.01503203
0.01511187
0.01518832
0.01523555
0.01506175
0.01509113
0.01504917
0.01491489
0.01472708
0.01444289
0.01408417
0.01393688
0.01376065
0.01355413
0.01332287
0.01313259
0.01282161
0.01251921
0.01231369
0.01209142
0.01185736
0.01156904
0.01131416
0.01101998
0.01076249
0.01049031
0.01030729
0.01005004
0.00976849
0.00949057
0.00916298
0.00887443
0.00866324
0.00850509
0.00834105
0.00816041
0.00795794
0.00772292
0.00749942
0.00733348
0.00719076
0.00698988
0.00674530
0.00652866
0.00632458
0.00608912
0.00589613
0.00573958
0.00557126
0.00570075
0.00748682
0.00719299
0.00774645
0.00618180
0.00722916
0.00682982
0.00520729
0.00370501
0.00522003
0.00419462
0.00449718
0.00453644
0.00116472
0.00218488
0.00314845
0.00500159
0.00370856
0.00389150
0.00326158
0.00343707
0.00236564
0.00040763
0.00041747
0.00065419
0.00119522
0.00284615
0.00369582
0.00333340
0.00538604
0.00606862
0.01481931
0.01750654
0.01408343
0.01164224
0.01010531
0.01003215
0.01054999
0.01289309
0.01194816
0.01497215
0.01494474
0.01413479
0.01309908
0.01282075
0.01218489
0.01147960
0.01066871
0.00967642
0.01069298
0.01087906
0.01070623
0.01118200
0.01139595
0.01164196
0.01216206
0.01289793
0.01352480
0.01457965
0.01563838
0.01665024
0.01737161
0.01886047
0.02015064
0.02112589
0.02201609
0.02283796
0.02350516
0.02386287
0.02421675
0.02462233
0.02498258
0.02528563
0.02535015
0.02540148
0.02535061
0.02547885
0.02552796
0.02528246
0.02506996
0.02470209
0.02432621
0.02420902
0.02393479
0.02357044
0.02329752
0.02297101
0.02256969
0.02213546
0.02185956
0.02155630
0.02120236
0.02084957
0.02044910
0.02000124
0.01966844
0.01932297
0.01898694
0.01860361
0.01820694
0.01774030
0.01725868
0.01677360
0.01641143
0.01612346
0.01586669
0.01560290
0.01528411
0.01492771
0.01457652
0.01434317
0.01407493
0.01371488
0.01331777
0.01292527
0.01256034
0.01215051
0.01179904
0.01147102
0.01111677
0.01101425
0.01235021
0.01325450
0.01403611
0.01390216
0.01435603
0.01455898
0.01419519
0.01382843
0.01464068
0.01381231
0.01425958
0.01333060
0.01037759
0.01057988
0.01275002
0.01311800
0.01306721
0.01325828
0.01195666
0.01087236
0.00963168
0.00432556
0.00450699
0.00709410
0.00752043
0.00911212
0.01129385
0.01065060
0.01227497
0.01291241
0.02312033
0.02663779
0.02549021
0.02054120
0.01546938
0.01523426
0.01664167
0.01840423
0.01598183
0.01825276
0.01805787
0.01749213
0.01689904
0.01617711
0.01591703
0.01528162
0.01444022
0.01391949
0.01405449
0.01444826
0.01446514
0.01460422
0.01484796
0.01512180
0.01561349
0.01634049
0.01725679
0.01811540
0.01929087
0.02040440
0.02190721
0.02381444
0.02540793
0.02658270
0.02768728
0.02865776
0.02947537
0.02998927
0.03050861
0.03106527
0.03164683
0.03203910
0.03213240
0.03226682
0.03222132
0.03250859
0.03257330
0.03234390
0.03213391
0.03174161
0.03143291
0.03128589
0.03100514
0.03055717
0.03023702
0.02986885
0.02947590
0.02901617
0.02871192
0.02837216
0.02796295
0.02754250
0.02714164
0.02665792
0.02624348
0.02583941
0.02550807
0.02508624
0.02458157
0.02404312
0.02348666
0.02291259
0.02247213
0.02212375
0.02183186
0.02149529
0.02111115
0.02070499
0.02031975
0.02005477
0.01974741
0.01932001
0.01881545
0.01833917
0.01789799
0.01740669
0.01697111
0.01656259
0.01609934
0.01580634
0.01667793
0.01806318
0.01920264
0.01988143
0.02074032
0.02125334
0.02143971
0.02168406
0.02256209
0.02214282
0.02259355
0.02230767
0.01986652
0.02089367
0.02125178
0.02182905
0.02209896
0.02147348
0.02127346
0.02191882
0.02099400
0.01631084
0.01387654
0.01535993
0.01669065
0.01940723
0.02208039
0.02134546
0.02085084
0.02094117
0.03093152
0.03433944
0.03565014
0.02933920
0.02079634
0.01898089
0.02045163
0.02134167
0.02079531
0.02141004
0.02097710
0.02020770
0.01963559
0.01914032
0.01871354
0.01809189
0.01741642
0.01703586
0.01689335
0.01706788
0.01701362
0.01708830
0.01730138
0.01749978
0.01803423
0.01877631
0.01972487
0.02054608
0.02181193
0.02315389
0.02506929
0.02720699
0.02897041
0.03028368
0.03153002
0.03262028
0.03352072
0.03416342
0.03472462
0.03544877
0.03620962
0.03669239
0.03675914
0.03693445
0.03693838
0.03725662
0.03740896
0.03722878
0.03701835
0.03671484
0.03639970
0.03623828
0.03593889
0.03545332
0.03510585
0.03469220
0.03433036
0.03386799
0.03354849
0.03321065
0.03278148
0.03231674
0.03190851
0.03140446
0.03093702
0.03052149
0.03016430
0.02972199
0.02916126
0.02860316
0.02802717
0.02739185
0.02690148
0.02653755
0.02619671
0.02582544
0.02540809
0.02501594
0.02464057
0.02435168
0.02403569
0.02359173
0.02304183
0.02255812
0.02207829
0.02156866
0.02110778
0.02066967
0.02018029
0.01978255
0.02030783
0.02162594
0.02287693
0.02396307
0.02487149
0.02578188
0.02636362
0.02713673
0.02791782
0.02838098
0.02866002
0.02862106
0.02780019
0.02819365
0.02860554
0.02883100
0.02905017
0.02896397
0.02945186
0.02928001
0.02874170
0.02688899
0.02495227
0.02612393
0.02823975
0.02968333
0.03130573
0.03084159
0.02928560
0.02901847
0.03799519
0.04093355
0.04278486
0.03731948
0.02677174
0.02241683
0.02311699
0.02411264
0.02364072
0.02391781
0.02322728
0.02244698
0.02173683
0.02115331
0.02080524
0.02030570
0.01969426
0.01941517
0.01912200
0.01902164
0.01893494
0.01885110
0.01905423
0.01923061
0.01977922
0.02050480
0.02142541
0.02234083
0.02371784
0.02527515
0.02743171
0.02969041
0.03153941
0.03294150
0.03431028
0.03548613
0.03649756
0.03723137
0.03779740
0.03863547
0.03953557
0.04006093
0.04011209
0.04032972
0.04036098
0.04067410
0.04090114
0.04079056
0.04059781
0.04031918
0.03999346
0.03983028
0.03953022
0.03905113
0.03868191
0.03821888
0.03789211
0.03740851
0.03709644
0.03674824
0.03629503
0.03582664
0.03538286
0.03488348
0.03437962
0.03393174
0.03355840
0.03309384
0.03252539
0.03196604
0.03135762
0.03069996
0.03016557
0.02979692
0.02941695
0.02903835
0.02860095
0.02821889
0.02785320
0.02757742
0.02724305
0.02677322
0.02625331
0.02575482
0.02529036
0.02479078
0.02432662
0.02388990
0.02342329
0.02298548
0.02327336
0.02435387
0.02556043
0.02681943
0.02779553
0.02883329
0.02975209
0.03079855
0.03168313
0.03221878
0.03278941
0.03304560
0.03280318
0.03316803
0.03349507
0.03391000
0.03429796
0.03451761
0.03494820
0.03458022
0.03463822
0.03457742
0.03520099
0.03468935
0.03642494
0.03675199
0.03683416
0.03645471
0.03641032
0.03635122
0.04407105
0.04672218
0.04822786
0.04427356
0.03355086
0.02636365
0.02635181
0.02630378
0.02598918
0.02571338
0.02495001
0.02412060
0.02346593
0.02287413
0.02248318
0.02198216
0.02142351
0.02109944
0.02075571
0.02045312
0.02031037
0.02017889
0.02031829
0.02051851
0.02105618
0.02178783
0.02275185
0.02378116
0.02524479
0.02701068
0.02932784
0.03163017
0.03352026
0.03498663
0.03645607
0.03770485
0.03882352
0.03960986
0.04018938
0.04107595
0.04208912
0.04265784
0.04268500
0.04289766
0.04295333
0.04322981
0.04355282
0.04350345
0.04332784
0.04306587
0.04272508
0.04255126
0.04225711
0.04179966
0.04142539
0.04092654
0.04061465
0.04008878
0.03979708
0.03942051
0.03895201
0.03846819
0.03801770
0.03754033
0.03699171
0.03650387
0.03611045
0.03563399
0.03505979
0.03449876
0.03389029
0.03321408
0.03264381
0.03225761
0.03184683
0.03145301
0.03099897
0.03065142
0.03030693
0.03002466
0.02967561
0.02922096
0.02872183
0.02824020
0.02777204
0.02730278
0.02684673
0.02642203
0.02598225
0.02553591
0.02566126
0.02649804
0.02757648
0.02882169
0.02992060
0.03101825
0.03209161
0.03320851
0.03417471
0.03501536
0.03568400
0.03627690
0.03636465
0.03669727
0.03705674
0.03737785
0.03775418
0.03809291
0.03874259
0.03929526
0.03990408
0.03869705
0.04027798
0.04050082
0.04039224
0.04093586
0.03983011
0.03948464
0.04074460
0.04219083
0.04840329
0.05096248
0.05306439
0.05056747
0.04094714
0.03071774
0.02923309
0.02869794
0.02815160
0.02747668
0.02648975
0.02554948
0.02479897
0.02417366
0.02380316
0.02331554
0.02273363
0.02239309
0.02195071
0.02155468
0.02132662
0.02120668
0.02129096
0.02150781
0.02209195
0.02285461
0.02386932
0.02501577
0.02654418
0.02848170
0.03092514
0.03323074
0.03513273
0.03664125
0.03819808
0.03951939
0.04073615
0.04153075
0.04213561
0.04303779
0.04411910
0.04473127
0.04473384
0.04493495
0.04501302
0.04525594
0.04565143
0.04563799
0.04547434
0.04519500
0.04482130
0.04466239
0.04437677
0.04397457
0.04359437
0.04308425
0.04274499
0.04217786
0.04189905
0.04150597
0.04102596
0.04054153
0.04007743
0.03959355
0.03902161
0.03849589
0.03808233
0.03757910
0.03702411
0.03646003
0.03585304
0.03517088
0.03457149
0.03415817
0.03371651
0.03332125
0.03287210
0.03254601
0.03221805
0.03191626
0.03154583
0.03110620
0.03064385
0.03017994
0.02971849
0.02928190
0.02885100
0.02843253
0.02801733
0.02756082
0.02757426
0.02820418
0.02912087
0.03031497
0.03141834
0.03257799
0.03377089
0.03489959
0.03591973
0.03690851
0.03760566
0.03850915
0.03871414
0.03908241
0.03951616
0.03997942
0.04046521
0.04093536
0.04141842
0.04197194
0.04272711
0.04136538
0.04365488
0.04441166
0.04361404
0.04358671
0.04195771
0.04122399
0.04292985
0.04580760
0.05049343
0.05312239
0.05607873
0.05545768
0.04820126
0.03607764
0.03213723
0.03129198
0.03019802
0.02909607
0.02786566
0.02681021
0.02600209
0.02534790
0.02489255
0.02436563
0.02379805
0.02335375
0.02286423
0.02241606
0.02212425
0.02202673
0.02210266
0.02234646
0.02298895
0.02378726
0.02484717
0.02612214
0.02772161
0.02978640
0.03231790
0.03462195
0.03651591
0.03805305
0.03968051
0.04108556
0.04235784
0.04314589
0.04378539
0.04467981
0.04576465
0.04641464
0.04642499
0.04661818
0.04672607
0.04695068
0.04736935
0.04737375
0.04720922
0.04691140
0.04650322
0.04634881
0.04607124
0.04573925
0.04534684
0.04484971
0.04447102
0.04387226
0.04357008
0.04317222
0.04268669
0.04220031
0.04173423
0.04124168
0.04064467
0.04008261
0.03963149
0.03913128
0.03858574
0.03801122
0.03741217
0.03673024
0.03613589
0.03567122
0.03520934
0.03480292
0.03437675
0.03405783
0.03374029
0.03341037
0.03302526
0.03261101
0.03216876
0.03172916
0.03127631
0.03085906
0.03046070
0.03004416
0.02964643
0.02917835
0.02911137
0.02957460
0.03035779
0.03147087
0.03256206
0.03373433
0.03491524
0.03609786
0.03718888
0.03821929
0.03913827
0.03998878
0.04043565
0.04083806
0.04135768
0.04186847
0.04232166
0.04284132
0.04354255
0.04422034
0.04470342
0.04558077
0.04516897
0.04604574
0.04621767
0.04546964
0.04356122
0.04221445
0.04341266
0.04698737
0.05076300
0.05382126
0.05712606
0.05858541
0.05450479
0.04209939
0.03586803
0.03388109
0.03221004
0.03068354
0.02922722
0.02799440
0.02707622
0.02636535
0.02585457
0.02527480
0.02462428
0.02412875
0.02361779
0.02306828
0.02279326
0.02274578
0.02282185
0.02309716
0.02382577
0.02465277
0.02576320
0.02715811
0.02883956
0.03100024
0.03358234
0.03590055
0.03777179
0.03932126
0.04100013
0.04249287
0.04377599
0.04456015
0.04523732
0.04610898
0.04713432
0.04780807
0.04786127
0.04805149
0.04818559
0.04841789
0.04881544
0.04883917
0.04864822
0.04834667
0.04790268
0.04773924
0.04744480
0.04719929
0.04678675
0.04632973
0.04590881
0.04529303
0.04492915
0.04453248
0.04405826
0.04356207
0.04309093
0.04259387
0.04196338
0.04138074
0.04087958
0.04039245
0.03984917
0.03927426
0.03867295
0.03800019
0.03742363
0.03691372
0.03643871
0.03602004
0.03560490
0.03528454
0.03497096
0.03461287
0.03422799
0.03383691
0.03340254
0.03297785
0.03253965
0.03213149
0.03176347
0.03135745
0.03094854
0.03048140
0.03035637
0.03069067
0.03136330
0.03238454
0.03343480
0.03457229
0.03577302
0.03694593
0.03807174
0.03917943
0.04024769
0.04109940
0.04165567
0.04212710
0.04268143
0.04321440
0.04375231
0.04434258
0.04499162
0.04576715
0.04662022
0.04816912
0.04700638
0.04771170
0.04830501
0.04683161
0.04476354
0.04289768
0.04328151
0.04685763
0.05005395
0.05350566
0.05716066
0.06028406
0.05945554
0.04850870
0.04004372
0.03673076
0.03435131
0.03241102
0.03064337
0.02917767
0.02815202
0.02735111
0.02673335
0.02607108
0.02536375
0.02480608
0.02427273
0.02373105
0.02339501
0.02339771
0.02349670
0.02381189
0.02463832
0.02550795
0.02666426
0.02815288
0.02993698
0.03217505
0.03477226
0.03710851
0.03895891
0.04051197
0.04223661
0.04379014
0.04506237
0.04585539
0.04656170
0.04738500
0.04832320
0.04899904
0.04912980
0.04929687
0.04944965
0.04970930
0.05007945
0.05009761
0.04989489
0.04959005
0.04911774
0.04893981
0.04859649
0.04841740
0.04798093
0.04759603
0.04714187
0.04651872
0.04607161
0.04566819
0.04522243
0.04470761
0.04421713
0.04372100
0.04306157
0.04247022
0.04191812
0.04143576
0.04089566
0.04032910
0.03971661
0.03905228
0.03849810
0.03796641
0.03747475
0.03704583
0.03661688
0.03629503
0.03598399
0.03559651
0.03521987
0.03484265
0.03442026
0.03400020
0.03357818
0.03317735
0.03282909
0.03242205
0.03200735
0.03154719
0.03138119
0.03161977
0.03219731
0.03312728
0.03410501
0.03519892
0.03639733
0.03757481
0.03873137
0.03985733
0.04076292
0.04187575
0.04252728
0.04308966
0.04369411
0.04427439
0.04483216
0.04543525
0.04612795
0.04689754
0.04801944
0.04851335
0.04937543
0.04912111
0.04938280
0.04787032
0.04576946
0.04365128
0.04322217
0.04603409
0.04876998
0.05238112
0.05643584
0.06078934
0.06307183
0.05494341
0.04465713
0.03996018
0.03674759
0.03428841
0.03217457
0.03044020
0.02924031
0.02833731
0.02761430
0.02685100
0.02604002
0.02541684
0.02488253
0.02435241
0.02397307
0.02402749
0.02417061
0.02454165
0.02545313
0.02637065
0.02757924
0.02913036
0.03102967
0.03333435
0.03591488
0.03824866
0.04011062
0.04166504
0.04342825
0.04499779
0.04625427
0.04709230
0.04780026
0.04854570
0.04942126
0.05006124
0.05028897
0.05040531
0.05058667
0.05086458
0.05122030
0.05119867
0.05101827
0.05070779
0.05020505
0.04999842
0.04961601
0.04946522
0.04898599
0.04867012
0.04822678
0.04759534
0.04706274
0.04664955
0.04624069
0.04569818
0.04517350
0.04466821
0.04401233
0.04340135
0.04281181
0.04232378
0.04178240
0.04122950
0.04061239
0.03995130
0.03941979
0.03888364
0.03837725
0.03792332
0.03746810
0.03714745
0.03683193
0.03641666
0.03604602
0.03568365
0.03527694
0.03485511
0.03444039
0.03405490
0.03371784
0.03330577
0.03289464
0.03243529
0.03223666
0.03240818
0.03289630
0.03372559
0.03463190
0.03565500
0.03683877
0.03802252
0.03919200
0.04034339
0.04125805
0.04241947
0.04316914
0.04379581
0.04443638
0.04503483
0.04563964
0.04626275
0.04696731
0.04773845
0.04842207
0.04943741
0.05117913
0.05012597
0.04983706
0.04862863
0.04659981
0.04441606
0.04334630
0.04509681
0.04734002
0.05081821
0.05502581
0.06027893
0.06522367
0.06100350
0.04984368
0.04360171
0.03946727
0.03637901
0.03388160
0.03183614
0.03043256
0.02939102
0.02852388
0.02763708
0.02673445
0.02604300
0.02548379
0.02495506
0.02457381
0.02467060
0.02487984
0.02531229
0.02628722
0.02726683
0.02852398
0.03012405
0.03211954
0.03448083
0.03703839
0.03934085
0.04123740
0.04279798
0.04457671
0.04614514
0.04738686
0.04828643
0.04897910
0.04963518
0.05045621
0.05105579
0.05135583
0.05143325
0.05164705
0.05191665
0.05228035
0.05219472
0.05204679
0.05173730
0.05119134
0.05094530
0.05056664
0.05039758
0.04988254
0.04959830
0.04919229
0.04855545
0.04794423
0.04753202
0.04715356
0.04657970
0.04600758
0.04548877
0.04485337
0.04420331
0.04360827
0.04310999
0.04256647
0.04202701
0.04141138
0.04074839
0.04022632
0.03970037
0.03917269
0.03868645
0.03821321
0.03788141
0.03755529
0.03711879
0.03674079
0.03639825
0.03600584
0.03557485
0.03516705
0.03479558
0.03447333
0.03406355
0.03365894
0.03320104
0.03295671
0.03307941
0.03349187
0.03421244
0.03505933
0.03601251
0.03715392
0.03834339
0.03951850
0.04067292
0.04168776
0.04278577
0.04361861
0.04431614
0.04497564
0.04560216
0.04620763
0.04686028
0.04756681
0.04838407
0.04919209
0.05024091
0.05130533
0.05068312
0.05019771
0.04909358
0.04716779
0.04505304
0.04361839
0.04437213
0.04611815
0.04922823
0.05330450
0.05905421
0.06612595
0.06614132
0.05540671
0.04764795
0.04248908
0.03871936
0.03579400
0.03339411
0.03174191
0.03053148
0.02951547
0.02848210
0.02747351
0.02669924
0.02611589
0.02561068
0.02521936
0.02535140
0.02563469
0.02613122
0.02715401
0.02820323
0.02949776
0.03115243
0.03321629
0.03562461
0.03815567
0.04043132
0.04235987
0.04392537
0.04567613
0.04725689
0.04849922
0.04945682
0.05011346
0.05070039
0.05143533
0.05202963
0.05236919
0.05243010
0.05264494
0.05289537
0.05326327
0.05312905
0.05300509
0.05269199
0.05210773
0.05182505
0.05147244
0.05122921
0.05071750
0.05044157
0.05007031
0.04942788
0.04876419
0.04835720
0.04799298
0.04737965
0.04675908
0.04621871
0.04560749
0.04492072
0.04434335
0.04382815
0.04329082
0.04275442
0.04213731
0.04147999
0.04096409
0.04044198
0.03988859
0.03936750
0.03888552
0.03852346
0.03818710
0.03773611
0.03734898
0.03701131
0.03663307
0.03618337
0.03579709
0.03542575
0.03512157
0.03473106
0.03433783
0.03387200
0.03358090
0.03365228
0.03401057
0.03462887
0.03542020
0.03630708
0.03738118
0.03856937
0.03972892
0.04087022
0.04190662
0.04302673
0.04391951
0.04467221
0.04535546
0.04599884
0.04663128
0.04729316
0.04799828
0.04878301
0.05035822
0.05126617
0.05080982
0.05089599
0.05046189
0.04937381
0.04757411
0.04557575
0.04399396
0.04398495
0.04515514
0.04775219
0.05152393
0.05737285
0.06584340
0.07001423
0.06117120
0.05216776
0.04597137
0.04137894
0.03795780
0.03516697
0.03322551
0.03179755
0.03061624
0.02941919
0.02828581
0.02742480
0.02683213
0.02633248
0.02593275
0.02608720
0.02644399
0.02701088
0.02806371
0.02918480
0.03051083
0.03222953
0.03433753
0.03678635
0.03929579
0.04154829
0.04350536
0.04506561
0.04676961
0.04834582
0.04961609
0.05061891
0.05123583
0.05177472
0.05240444
0.05300782
0.05338200
0.05341506
0.05359988
0.05384175
0.05417471
0.05404272
0.05392749
0.05359095
0.05299612
0.05266656
0.05235408
0.05200207
0.05151788
0.05123583
0.05087653
0.05023558
0.04957373
0.04914132
0.04876367
0.04811699
0.04746756
0.04689628
0.04629573
0.04559201
0.04503306
0.04450294
0.04396720
0.04342820
0.04281857
0.04216603
0.04165679
0.04111832
0.04054778
0.03999450
0.03950304
0.03910112
0.03875423
0.03829761
0.03790990
0.03755975
0.03718075
0.03671875
0.03635449
0.03598123
0.03569632
0.03532148
0.03493951
0.03446238
0.03414183
0.03415782
0.03447050
0.03500579
0.03575078
0.03655512
0.03757766
0.03873917
0.03986977
0.04094889
0.04202664
0.04316092
0.04411336
0.04490531
0.04558743
0.04624776
0.04690974
0.04756162
0.04826174
0.04908967
0.05010658
0.05095368
0.05078599
0.05127085
0.05065514
0.04953924
0.04785494
0.04598990
0.04437697
0.04384479
0.04446885
0.04645915
0.04979428
0.05540819
0.06463397
0.07251031
0.06686149
0.05702996
0.04982295
0.04441023
0.04037709
0.03717036
0.03489709
0.03322054
0.03184617
0.03048786
0.02920936
0.02825942
0.02764527
0.02713508
0.02673662
0.02689627
0.02731375
0.02796717
0.02904119
0.03022837
0.03158671
0.03337793
0.03549010
0.03797331
0.04047888
0.04270370
0.04467308
0.04623373
0.04789655
0.04943724
0.05074598
0.05178828
0.05236286
0.05288827
0.05341797
0.05403353
0.05442399
0.05441000
0.05454240
0.05477541
0.05506024
0.05495265
0.05484016
0.05446156
0.05387312
0.05350464
0.05321688
0.05278738
0.05230752
0.05199748
0.05162591
0.05102145
0.05038657
0.04989484
0.04948663
0.04881356
0.04816057
0.04754565
0.04691759
0.04623756
0.04568261
0.04513303
0.04459703
0.04405942
0.04346525
0.04280920
0.04231084
0.04174107
0.04117005
0.04058980
0.04007557
0.03962760
0.03926703
0.03882827
0.03844513
0.03807092
0.03768346
0.03721142
0.03685942
0.03648717
0.03620429
0.03584408
0.03546676
0.03499525
0.03465500
0.03462333
0.03489050
0.03535958
0.03605179
0.03680044
0.03775036
0.03887531
0.03995435
0.04103139
0.04209388
0.04322122
0.04421601
0.04502609
0.04571387
0.04639173
0.04705822
0.04772986
0.04844715
0.04925768
0.04936077
0.04998173
0.05091814
0.05141814
0.05066380
0.04953662
0.04796208
0.04625357
0.04469850
0.04385308
0.04403310
0.04539357
0.04821333
0.05338763
0.06275274
0.07348525
0.07206599
0.06221482
0.05402956
0.04776310
0.04307641
0.03943361
0.03679675
0.03482894
0.03324056
0.03171586
0.03025939
0.02921097
0.02856576
0.02803238
0.02762972
0.02778187
0.02824745
0.02901121
0.03008657
0.03134088
0.03272316
0.03458546
0.03668544
0.03918431
0.04168713
0.04391826
0.04584977
0.04741943
0.04906597
0.05056151
0.05189732
0.05298294
0.05350529
0.05404212
0.05451801
0.05513999
0.05550832
0.05543974
0.05552251
0.05570974
0.05596026
0.05588103
0.05573008
0.05534044
0.05473208
0.05435539
0.05405467
0.05359590
0.05309445
0.05272974
0.05233686
0.05178900
0.05118677
0.05063556
0.05017724
0.04949719
0.04885206
0.04819574
0.04751917
0.04685788
0.04628950
0.04572480
0.04518895
0.04466068
0.04407538
0.04341538
0.04292908
0.04233640
0.04176200
0.04116001
0.04061383
0.04012230
0.03974898
0.03934421
0.03896352
0.03856210
0.03816120
0.03767739
0.03731768
0.03695050
0.03664690
0.03631638
0.03594753
0.03549348
0.03513201
0.03506156
0.03528309
0.03569123
0.03633617
0.03702492
0.03791172
0.03897293
0.03999746
0.04107386
0.04211997
0.04323634
0.04423155
0.04504539
0.04574954
0.04642401
0.04710561
0.04778811
0.04848568
0.04928362
0.05006402
0.05133664
0.05066437
0.05099439
0.05049525
0.04944325
0.04797791
0.04640560
0.04493917
0.04392673
0.04374746
0.04455647
0.04680632
0.05141624
0.06048913
0.07312931
0.07637551
0.06760276
0.05863018
0.05148157
0.04608026
0.04198362
0.03893451
0.03664465
0.03480449
0.03309490
0.03144669
0.03028820
0.02960215
0.02903955
0.02862621
0.02876397
0.02926368
0.03013179
0.03121067
0.03251572
0.03392821
0.03583270
0.03792029
0.04042615
0.04293609
0.04519315
0.04706077
0.04864057
0.05026582
0.05173289
0.05309355
0.05422392
0.05469185
0.05523950
0.05571487
0.05634391
0.05664988
0.05656081
0.05658275
0.05665436
0.05688749
0.05684626
0.05662773
0.05625232
0.05558565
0.05521943
0.05487734
0.05441553
0.05387660
0.05344319
0.05304773
0.05251662
0.05196672
0.05136803
0.05084621
0.05019052
0.04954783
0.04885726
0.04813777
0.04746737
0.04685511
0.04629560
0.04577142
0.04524224
0.04466353
0.04401303
0.04351335
0.04291506
0.04232537
0.04171183
0.04113209
0.04061881
0.04023471
0.03984882
0.03945998
0.03903114
0.03862144
0.03813268
0.03774366
0.03738890
0.03706062
0.03674119
0.03639941
0.03596301
0.03558485
0.03548294
0.03564629
0.03600259
0.03660433
0.03725966
0.03808043
0.03904680
0.04001356
0.04106257
0.04212794
0.04321736
0.04419661
0.04499225
0.04569504
0.04637955
0.04708039
0.04776867
0.04851359
0.04930164
0.05015945
0.05101404
0.05048598
0.05077417
0.05026973
0.04923870
0.04790172
0.04646609
0.04508976
0.04400928
0.04355764
0.04391481
0.04560411
0.04955812
0.05800206
0.07168501
0.07947791
0.07295648
0.06355310
0.05554702
0.04941511
0.04483737
0.04132699
0.03867618
0.03657464
0.03464415
0.03279960
0.03152468
0.03076652
0.03017069
0.02975840
0.02987034
0.03038494
0.03133955
0.03243598
0.03375240
0.03521938
0.03709644
0.03920123
0.04172705
0.04424403
0.04653017
0.04834054
0.04992282
0.05152088
0.05297967
0.05438422
0.05551094
0.05591871
0.05647134
0.05696482
0.05762227
0.05785628
0.05776329
0.05772548
0.05764741
0.05785329
0.05784162
0.05757217
0.05717941
0.05646207
0.05610189
0.05573656
0.05524285
0.05464841
0.05417609
0.05377455
0.05322640
0.05271143
0.05210588
0.05153653
0.05091647
0.05024752
0.04952499
0.04878368
0.04808125
0.04741046
0.04685520
0.04636236
0.04581438
0.04525099
0.04463006
0.04407664
0.04346924
0.04286057
0.04225392
0.04164802
0.04112553
0.04072147
0.04034012
0.03993534
0.03948762
0.03906296
0.03858567
0.03816787
0.03782235
0.03747009
0.03714196
0.03682265
0.03641027
0.03601840
0.03587964
0.03599104
0.03630716
0.03687344
0.03750300
0.03825053
0.03911520
0.04004138
0.04105824
0.04211347
0.04317108
0.04410171
0.04488834
0.04559677
0.04629188
0.04699127
0.04770762
0.04842564
0.04911312
0.04977658
0.05069082
0.05062183
0.05045070
0.04995356
0.04895565
0.04772712
0.04642858
0.04515432
0.04406341
0.04341328
0.04341910
0.04459609
0.04788126
0.05547393
0.06933578
0.08111185
0.07807533
0.06872224
0.06000197
0.05311860
0.04802286
0.04399887
0.04093923
0.03857317
0.03638435
0.03434787
0.03294814
0.03208169
0.03144158
0.03104248
0.03112676
0.03162241
0.03262012
0.03375656
0.03506457
0.03657128
0.03841514
0.04057834
0.04311631
0.04563309
0.04793463
0.04971988
0.05130388
0.05287241
0.05432481
0.05578290
0.05685311
0.05721836
0.05774780
0.05828302
0.05896207
0.05910955
0.05900431
0.05889865
0.05872089
0.05885573
0.05885606
0.05858007
0.05813508
0.05740320
0.05705186
0.05662469
0.05607002
0.05544887
0.05494309
0.05451156
0.05393775
0.05342508
0.05284921
0.05228111
0.05168391
0.05097420
0.05020141
0.04944994
0.04871047
0.04798644
0.04742044
0.04695937
0.04640190
0.04585167
0.04525434
0.04463203
0.04400224
0.04338080
0.04279352
0.04218217
0.04162867
0.04120013
0.04080515
0.04039483
0.03995443
0.03951162
0.03904771
0.03861198
0.03826422
0.03788264
0.03753928
0.03721946
0.03684809
0.03643547
0.03625576
0.03633726
0.03662317
0.03714917
0.03775113
0.03841683
0.03920179
0.04007444
0.04106562
0.04209971
0.04310403
0.04396630
0.04474225
0.04544966
0.04615315
0.04685131
0.04757854
0.04831907
0.04920300
0.05001286
0.04988230
0.05043126
0.05013462
0.04954760
0.04861527
0.04748790
0.04630929
0.04513847
0.04407353
0.04327482
0.04303083
0.04376588
0.04641212
0.05301303
0.06637708
0.08122453
0.08253014
0.07396439
0.06479866
0.05719329
0.05155459
0.04698259
0.04347329
0.04079708
0.03834189
0.03611468
0.03454834
0.03357421
0.03287241
0.03246330
0.03251591
0.03297895
0.03398975
0.03516079
0.03647065
0.03799282
0.03982160
0.04206801
0.04459577
0.04709306
0.04940765
0.05119024
0.05277332
0.05435799
0.05574385
0.05725491
0.05824440
0.05861976
0.05911195
0.05967821
0.06033719
0.06038685
0.06026842
0.06008178
0.05985216
0.05993229
0.05990078
0.05960796
0.05911322
0.05841373
0.05804806
0.05750528
0.05690041
0.05629874
0.05576423
0.05526775
0.05468392
0.05414155
0.05360010
0.05307271
0.05247225
0.05170874
0.05090639
0.05013545
0.04936732
0.04861052
0.04801534
0.04756215
0.04700659
0.04646267
0.04587108
0.04518591
0.04453940
0.04391443
0.04333722
0.04272844
0.04213902
0.04169340
0.04127334
0.04085250
0.04042336
0.03997559
0.03952783
0.03908957
0.03871746
0.03831434
0.03794115
0.03760279
0.03726498
0.03685138
0.03664411
0.03670741
0.03695496
0.03741817
0.03799116
0.03858503
0.03929944
0.04012271
0.04109612
0.04208147
0.04301443
0.04381797
0.04456738
0.04527333
0.04597721
0.04669056
0.04742138
0.04814762
0.04879573
0.04960423
0.04975548
0.05021730
0.04971127
0.04911562
0.04821095
0.04717632
0.04611596
0.04505074
0.04402869
0.04312369
0.04270722
0.04308287
0.04513416
0.05072313
0.06310057
0.07991491
0.08592847
0.07918951
0.06989060
0.06161281
0.05539770
0.05028896
0.04628925
0.04326105
0.04053574
0.03811335
0.03634581
0.03523394
0.03447569
0.03405143
0.03403686
0.03446331
0.03546331
0.03662572
0.03797675
0.03951419
0.04134198
0.04362836
0.04616303
0.04862907
0.05095373
0.05275507
0.05434785
0.05593940
0.05726464
0.05877312
0.05969617
0.06011406
0.06057923
0.06113580
0.06172690
0.06172417
0.06156916
0.06133120
0.06104909
0.06103615
0.06098856
0.06067564
0.06014286
0.05946605
0.05904163
0.05841366
0.05775664
0.05721032
0.05664307
0.05605698
0.05547221
0.05490312
0.05437205
0.05388324
0.05325750
0.05246154
0.05166233
0.05085521
0.05005093
0.04927593
0.04868092
0.04819697
0.04762972
0.04707634
0.04646943
0.04575982
0.04511449
0.04446526
0.04388447
0.04328141
0.04268680
0.04219924
0.04177075
0.04133283
0.04089761
0.04044845
0.04000624
0.03958161
0.03917642
0.03875474
0.03836079
0.03799570
0.03766082
0.03726723
0.03706369
0.03708961
0.03728572
0.03767745
0.03821362
0.03874669
0.03941337
0.04021053
0.04113081
0.04205339
0.04291418
0.04365987
0.04438515
0.04508555
0.04578912
0.04650892
0.04722989
0.04792634
0.04853199
0.04877272
0.04957451
0.04957724
0.04923661
0.04861263
0.04776197
0.04681235
0.04585513
0.04489431
0.04392809
0.04294203
0.04241517
0.04251201
0.04404365
0.04866486
0.05973677
0.07735604
0.08803860
0.08409178
0.07509712
0.06635280
0.05954218
0.05391020
0.04938876
0.04597863
0.04299038
0.04035054
0.03836142
0.03707448
0.03623147
0.03580307
0.03570428
0.03610665
0.03705770