/*--------------------------------*- C++ -*----------------------------------*\
  =========                 |
  \\      /  F ield         | OpenFOAM: The Open Source CFD Toolbox
   \\    /   O peration     | Website:  https://openfoam.org
    \\  /    A nd           | Version:  7
     \\/     M anipulation  |
\*---------------------------------------------------------------------------*/
FoamFile
{
    version     2.0;
    format      ascii;
    class       volSymmTensorField;
    location    "0";
    object      tauij_LES;
}
// * * * * * * * * * * * * * * * * * * * * * * * * * * * * * * * * * * * * * //

dimensions      [0 2 -2 0 0 0 0];

internalField   nonuniform List<symmTensor>
15600
(
(0.00345958 -0.00002529 0.00000000 0.00000370 0.00000000 0.00198812)
(0.00469284 -0.00003681 0.00000000 0.00000667 0.00000000 0.00237225)
(0.00202124 0.00007169 0.00000000 -0.00002227 0.00000000 0.00090093)
(0.00144814 -0.00057000 0.00000000 0.00024822 0.00000000 0.00160821)
(0.00079339 -0.00061611 0.00000000 0.00037224 0.00000000 0.00220853)
(0.00053861 -0.00057690 0.00000000 0.00045398 0.00000000 0.00134937)
(0.00081730 -0.00014523 0.00000000 0.00001440 0.00000000 0.00121200)
(0.00230035 -0.00163066 0.00000000 0.00117815 0.00000000 0.00326298)
(0.00102593 -0.00074900 0.00000000 0.00051416 0.00000000 0.00127222)
(0.00261285 -0.00183413 0.00000000 0.00130579 0.00000000 0.00322223)
(0.00326705 -0.00222316 0.00000000 0.00157596 0.00000000 0.00395409)
(0.00301801 -0.00201167 0.00000000 0.00137797 0.00000000 0.00353139)
(0.00285713 -0.00185885 0.00000000 0.00124216 0.00000000 0.00321210)
(0.00252293 -0.00160051 0.00000000 0.00104338 0.00000000 0.00280618)
(0.00225402 -0.00140261 0.00000000 0.00089010 0.00000000 0.00246083)
(0.00177010 -0.00107715 0.00000000 0.00066511 0.00000000 0.00189210)
(0.00120252 -0.00071694 0.00000000 0.00043069 0.00000000 0.00129492)
(0.00052993 -0.00031311 0.00000000 0.00017880 0.00000000 0.00060990)
(0.00157932 -0.00096972 0.00000000 0.00062732 0.00000000 0.00230897)
(0.00195210 -0.00110337 0.00000000 0.00063984 0.00000000 0.00197549)
(0.00113571 -0.00063095 0.00000000 0.00035279 0.00000000 0.00114545)
(0.00172281 -0.00093016 0.00000000 0.00051284 0.00000000 0.00182577)
(0.00083586 -0.00042398 0.00000000 0.00022512 0.00000000 0.00071980)
(0.00096360 -0.00040532 0.00000000 0.00019237 0.00000000 0.00086980)
(0.00160209 -0.00039750 0.00000000 0.00010670 0.00000000 0.00198029)
(0.00176998 -0.00064895 0.00000000 0.00023713 0.00000000 0.00241176)
(0.00147144 -0.00020436 0.00000000 0.00003151 0.00000000 0.00158187)
(0.00219772 -0.00055108 0.00000000 0.00014361 0.00000000 0.00230943)
(0.00255716 -0.00083144 0.00000000 0.00026233 0.00000000 0.00352786)
(0.00401209 0.00003843 0.00000000 0.00004315 0.00000000 0.00494673)
(0.00265714 0.00000681 0.00000000 -0.00000303 0.00000000 0.00274854)
(0.00268558 0.00000959 0.00000000 -0.00000114 0.00000000 0.00294283)
(0.00275203 0.00000853 0.00000000 -0.00000686 0.00000000 0.00312098)
(0.00293140 0.00000908 0.00000000 -0.00000034 0.00000000 0.00339021)
(0.00297091 0.00000718 0.00000000 -0.00000792 0.00000000 0.00348039)
(0.00312446 0.00000817 0.00000000 -0.00000881 0.00000000 0.00362051)
(0.00319284 0.00000846 0.00000000 -0.00000637 0.00000000 0.00384313)
(0.00318328 0.00000738 0.00000000 -0.00000649 0.00000000 0.00393917)
(0.00321066 0.00000520 0.00000000 -0.00000400 0.00000000 0.00401519)
(0.00317495 0.00000510 0.00000000 -0.00000856 0.00000000 0.00393590)
(0.00333372 0.00000355 0.00000000 0.00000034 0.00000000 0.00411417)
(0.00325666 0.00000490 0.00000000 -0.00000881 0.00000000 0.00398036)
(0.00330388 0.00000371 0.00000000 -0.00000727 0.00000000 0.00398407)
(0.00329472 0.00000295 0.00000000 -0.00000666 0.00000000 0.00399705)
(0.00321776 0.00000193 0.00000000 -0.00000495 0.00000000 0.00398624)
(0.00321843 0.00000030 0.00000000 -0.00000416 0.00000000 0.00393142)
(0.00319972 0.00000121 0.00000000 -0.00000806 0.00000000 0.00383320)
(0.00326747 -0.00000373 0.00000000 0.00000080 0.00000000 0.00389271)
(0.00314673 0.00000085 0.00000000 -0.00000738 0.00000000 0.00367679)
(0.00304633 -0.00000087 0.00000000 -0.00000575 0.00000000 0.00365538)
(0.00287503 -0.00000089 0.00000000 -0.00000603 0.00000000 0.00354484)
(0.00292733 -0.00000393 0.00000000 -0.00000188 0.00000000 0.00352126)
(0.00286893 -0.00000132 0.00000000 -0.00000604 0.00000000 0.00335222)
(0.00275337 -0.00000060 0.00000000 -0.00000696 0.00000000 0.00329652)
(0.00278449 -0.00000458 0.00000000 -0.00000173 0.00000000 0.00335105)
(0.00264922 -0.00000149 0.00000000 -0.00000627 0.00000000 0.00322202)
(0.00256508 -0.00000235 0.00000000 -0.00000494 0.00000000 0.00315716)
(0.00245762 -0.00000207 0.00000000 -0.00000583 0.00000000 0.00302768)
(0.00247168 -0.00000532 0.00000000 -0.00000224 0.00000000 0.00304023)
(0.00235025 -0.00000147 0.00000000 -0.00000656 0.00000000 0.00286718)
(0.00236838 -0.00000428 0.00000000 -0.00000305 0.00000000 0.00285911)
(0.00224630 -0.00000258 0.00000000 -0.00000560 0.00000000 0.00272025)
(0.00218741 -0.00000306 0.00000000 -0.00000477 0.00000000 0.00262987)
(0.00211406 -0.00000280 0.00000000 -0.00000413 0.00000000 0.00256303)
(0.00203212 -0.00000270 0.00000000 -0.00000457 0.00000000 0.00247912)
(0.00199743 -0.00000270 0.00000000 -0.00000443 0.00000000 0.00237882)
(0.00198643 -0.00000400 0.00000000 -0.00000308 0.00000000 0.00232048)
(0.00196319 -0.00000473 0.00000000 -0.00000203 0.00000000 0.00225837)
(0.00185702 -0.00000198 0.00000000 -0.00000389 0.00000000 0.00213031)
(0.00180220 -0.00000292 0.00000000 -0.00000321 0.00000000 0.00208524)
(0.00171467 -0.00000236 0.00000000 -0.00000301 0.00000000 0.00200545)
(0.00163458 -0.00000195 0.00000000 -0.00000361 0.00000000 0.00193978)
(0.00166176 -0.00000489 0.00000000 -0.00000108 0.00000000 0.00193921)
(0.00157954 -0.00000270 0.00000000 -0.00000285 0.00000000 0.00185619)
(0.00149527 -0.00000129 0.00000000 -0.00000356 0.00000000 0.00180575)
(0.00145932 -0.00000123 0.00000000 -0.00000350 0.00000000 0.00175564)
(0.00141945 -0.00000146 0.00000000 -0.00000324 0.00000000 0.00170339)
(0.00142939 -0.00000443 0.00000000 -0.00000091 0.00000000 0.00170759)
(0.00133079 -0.00000200 0.00000000 -0.00000238 0.00000000 0.00160686)
(0.00130260 -0.00000201 0.00000000 -0.00000226 0.00000000 0.00156500)
(0.00127172 -0.00000171 0.00000000 -0.00000229 0.00000000 0.00153686)
(0.00125660 -0.00000281 0.00000000 -0.00000129 0.00000000 0.00152751)
(0.00115664 -0.00000118 0.00000000 -0.00000225 0.00000000 0.00146565)
(0.00108922 -0.00000051 0.00000000 -0.00000270 0.00000000 0.00141708)
(0.00103732 -0.00000040 0.00000000 -0.00000242 0.00000000 0.00139021)
(0.00097766 -0.00000056 0.00000000 -0.00000230 0.00000000 0.00136104)
(0.00094621 -0.00000104 0.00000000 -0.00000161 0.00000000 0.00136329)
(0.00088751 -0.00000022 0.00000000 -0.00000209 0.00000000 0.00135056)
(0.00087638 -0.00000202 0.00000000 -0.00000028 0.00000000 0.00142511)
(0.00088478 -0.00000067 0.00000000 -0.00000093 0.00000000 0.00158555)
(0.00149984 0.00002493 0.00000000 0.00001672 0.00000000 0.00358955)
(0.00069836 0.00004064 0.00000000 -0.00000274 0.00000000 0.00118780)
(0.00056285 0.00000632 0.00000000 -0.00000248 0.00000000 0.00166037)
(0.00003210 0.00002905 0.00000000 0.00001444 0.00000000 0.00088148)
(0.00042274 0.00002368 0.00000000 -0.00000833 0.00000000 0.00133900)
(0.00027334 0.00010732 0.00000000 0.00004232 0.00000000 0.00179966)
(0.00006751 -0.00007340 0.00000000 -0.00006102 0.00000000 0.00020264)
(-0.00008397 -0.00006460 0.00000000 -0.00003911 0.00000000 -0.00010631)
(0.00001758 0.00001698 0.00000000 0.00000940 0.00000000 0.00007945)
(0.00006221 0.00003476 0.00000000 0.00001865 0.00000000 0.00016087)
(-0.00008331 -0.00003561 0.00000000 -0.00002248 0.00000000 -0.00009492)
(0.00003073 0.00000187 0.00000000 -0.00001884 0.00000000 0.00056376)
(-0.00011310 -0.00006583 0.00000000 -0.00003750 0.00000000 -0.00031958)
(-0.00006438 -0.00003727 0.00000000 -0.00002160 0.00000000 -0.00018254)
(0.00001244 0.00001189 0.00000000 0.00000751 0.00000000 0.00007856)
(0.00007046 0.00004702 0.00000000 0.00002940 0.00000000 0.00025767)
(0.00025905 0.00016095 0.00000000 0.00010008 0.00000000 0.00081315)
(0.00003947 0.00003332 0.00000000 0.00002279 0.00000000 0.00018895)
(0.00001669 0.00002599 0.00000000 0.00001991 0.00000000 0.00010990)
(0.00016259 0.00011219 0.00000000 0.00007552 0.00000000 0.00053854)
(0.00001243 0.00001038 0.00000000 0.00000766 0.00000000 0.00003201)
(-0.00018016 -0.00013677 0.00000000 -0.00009913 0.00000000 -0.00030344)
(-0.00007849 -0.00006289 0.00000000 -0.00004436 0.00000000 -0.00020133)
(-0.00012286 0.00000497 0.00000000 0.00002964 0.00000000 0.00013174)
(-0.00088920 -0.00028261 0.00000000 -0.00010175 0.00000000 -0.00099916)
(0.00015897 -0.00003632 0.00000000 -0.00002745 0.00000000 0.00006164)
(0.00072700 0.00000997 0.00000000 -0.00002163 0.00000000 0.00021645)
(0.00067881 0.00002794 0.00000000 -0.00000114 0.00000000 0.00033030)
(0.00208697 -0.00000059 0.00000000 0.00000183 0.00000000 0.00137217)
(0.00262250 -0.00001589 0.00000000 0.00000179 0.00000000 0.00165362)
(0.00985346 -0.00015649 0.00000000 0.00005999 0.00000000 0.00466788)
(0.01213370 -0.00022391 0.00000000 0.00009339 0.00000000 0.00546627)
(0.00817465 0.00003523 0.00000000 -0.00000537 0.00000000 0.00333312)
(0.00640108 -0.00156127 0.00000000 0.00055895 0.00000000 0.00414103)
(0.00416295 -0.00176562 0.00000000 0.00086584 0.00000000 0.00575040)
(0.00296612 -0.00207962 0.00000000 0.00151545 0.00000000 0.00461144)
(0.00414642 -0.00103027 0.00000000 0.00037174 0.00000000 0.00477874)
(0.00433354 -0.00305351 0.00000000 0.00227070 0.00000000 0.00616120)
(0.00476429 -0.00339024 0.00000000 0.00253031 0.00000000 0.00610423)
(0.00686631 -0.00477462 0.00000000 0.00359069 0.00000000 0.00868775)
(0.00700076 -0.00471799 0.00000000 0.00347401 0.00000000 0.00870364)
(0.00732588 -0.00483373 0.00000000 0.00344399 0.00000000 0.00869527)
(0.00695292 -0.00446951 0.00000000 0.00311077 0.00000000 0.00793134)
(0.00685526 -0.00430143 0.00000000 0.00291275 0.00000000 0.00761344)
(0.00579512 -0.00354961 0.00000000 0.00237364 0.00000000 0.00635809)
(0.00602627 -0.00362086 0.00000000 0.00232399 0.00000000 0.00629043)
(0.00481593 -0.00282946 0.00000000 0.00177500 0.00000000 0.00496740)
(0.00431851 -0.00251402 0.00000000 0.00153697 0.00000000 0.00428436)
(0.00475385 -0.00314083 0.00000000 0.00224493 0.00000000 0.00621990)
(0.00575357 -0.00320920 0.00000000 0.00192682 0.00000000 0.00565307)
(0.00561739 -0.00307178 0.00000000 0.00179695 0.00000000 0.00530926)
(0.00603780 -0.00315289 0.00000000 0.00179870 0.00000000 0.00606806)
(0.00608818 -0.00295002 0.00000000 0.00156981 0.00000000 0.00476337)
(0.00618201 -0.00243503 0.00000000 0.00114031 0.00000000 0.00550076)
(0.00667039 -0.00224054 0.00000000 0.00095437 0.00000000 0.00720295)
(0.00747087 -0.00206464 0.00000000 0.00078180 0.00000000 0.00770556)
(0.00795058 -0.00175349 0.00000000 0.00060577 0.00000000 0.00845135)
(0.00887029 -0.00172717 0.00000000 0.00061183 0.00000000 0.00942279)
(0.00925844 -0.00151024 0.00000000 0.00057067 0.00000000 0.01074883)
(0.00990405 -0.00021841 0.00000000 0.00040912 0.00000000 0.01229540)
(0.00984050 -0.00000373 0.00000000 0.00026655 0.00000000 0.01108806)
(0.01037599 0.00003209 0.00000000 0.00027121 0.00000000 0.01216638)
(0.01092064 0.00002275 0.00000000 0.00029213 0.00000000 0.01313600)
(0.01141373 0.00001880 0.00000000 0.00030562 0.00000000 0.01376464)
(0.01179260 -0.00001664 0.00000000 0.00032341 0.00000000 0.01449760)
(0.01228451 -0.00001199 0.00000000 0.00034458 0.00000000 0.01503820)
(0.01254916 -0.00001028 0.00000000 0.00035278 0.00000000 0.01571237)
(0.01263141 -0.00002084 0.00000000 0.00035103 0.00000000 0.01602858)
(0.01274035 -0.00004930 0.00000000 0.00035000 0.00000000 0.01628164)
(0.01292247 -0.00005442 0.00000000 0.00034439 0.00000000 0.01640485)
(0.01315307 -0.00006796 0.00000000 0.00035584 0.00000000 0.01655515)
(0.01332113 -0.00008103 0.00000000 0.00035072 0.00000000 0.01655188)
(0.01351596 -0.00008166 0.00000000 0.00034435 0.00000000 0.01651634)
(0.01355180 -0.00008788 0.00000000 0.00033979 0.00000000 0.01657951)
(0.01334498 -0.00009586 0.00000000 0.00033596 0.00000000 0.01644256)
(0.01352530 -0.00011432 0.00000000 0.00032626 0.00000000 0.01633071)
(0.01363276 -0.00012257 0.00000000 0.00032577 0.00000000 0.01613981)
(0.01361043 -0.00013723 0.00000000 0.00031844 0.00000000 0.01590090)
(0.01349632 -0.00012296 0.00000000 0.00031657 0.00000000 0.01564127)
(0.01311917 -0.00013764 0.00000000 0.00030202 0.00000000 0.01546458)
(0.01276444 -0.00014958 0.00000000 0.00028769 0.00000000 0.01511620)
(0.01277838 -0.00016107 0.00000000 0.00027719 0.00000000 0.01481819)
(0.01274409 -0.00015424 0.00000000 0.00027228 0.00000000 0.01450494)
(0.01248581 -0.00015423 0.00000000 0.00026876 0.00000000 0.01435369)
(0.01223241 -0.00016819 0.00000000 0.00026939 0.00000000 0.01414394)
(0.01204822 -0.00016922 0.00000000 0.00025591 0.00000000 0.01396104)
(0.01175500 -0.00016890 0.00000000 0.00024732 0.00000000 0.01364090)
(0.01150338 -0.00017715 0.00000000 0.00023413 0.00000000 0.01330090)
(0.01135448 -0.00018886 0.00000000 0.00023203 0.00000000 0.01304086)
(0.01122491 -0.00018391 0.00000000 0.00022562 0.00000000 0.01273232)
(0.01107656 -0.00018735 0.00000000 0.00021844 0.00000000 0.01241971)
(0.01086744 -0.00018906 0.00000000 0.00021071 0.00000000 0.01205992)
(0.01068790 -0.00019400 0.00000000 0.00019677 0.00000000 0.01174367)
(0.01041960 -0.00018062 0.00000000 0.00018626 0.00000000 0.01143411)
(0.01018049 -0.00018701 0.00000000 0.00018020 0.00000000 0.01116429)
(0.01004907 -0.00019068 0.00000000 0.00017529 0.00000000 0.01075625)
(0.00997928 -0.00018793 0.00000000 0.00016292 0.00000000 0.01047238)
(0.00980306 -0.00018136 0.00000000 0.00015784 0.00000000 0.01013917)
(0.00956803 -0.00017860 0.00000000 0.00015770 0.00000000 0.00981125)
(0.00927196 -0.00017508 0.00000000 0.00014859 0.00000000 0.00956059)
(0.00893809 -0.00017425 0.00000000 0.00014710 0.00000000 0.00924078)
(0.00864424 -0.00017116 0.00000000 0.00013941 0.00000000 0.00896521)
(0.00845981 -0.00017140 0.00000000 0.00013199 0.00000000 0.00873468)
(0.00831208 -0.00017392 0.00000000 0.00013216 0.00000000 0.00856594)
(0.00809730 -0.00016857 0.00000000 0.00012855 0.00000000 0.00845625)
(0.00792328 -0.00016664 0.00000000 0.00012308 0.00000000 0.00827445)
(0.00774209 -0.00016268 0.00000000 0.00011808 0.00000000 0.00805571)
(0.00751339 -0.00016063 0.00000000 0.00011479 0.00000000 0.00781766)
(0.00729503 -0.00015661 0.00000000 0.00010704 0.00000000 0.00759677)
(0.00714521 -0.00015475 0.00000000 0.00010612 0.00000000 0.00741562)
(0.00696929 -0.00014826 0.00000000 0.00010296 0.00000000 0.00730927)
(0.00672857 -0.00014176 0.00000000 0.00009890 0.00000000 0.00715228)
(0.00640669 -0.00013671 0.00000000 0.00009694 0.00000000 0.00698698)
(0.00612385 -0.00013337 0.00000000 0.00009336 0.00000000 0.00684011)
(0.00582705 -0.00012424 0.00000000 0.00008875 0.00000000 0.00673337)
(0.00548243 -0.00011795 0.00000000 0.00008521 0.00000000 0.00661060)
(0.00516196 -0.00011326 0.00000000 0.00008446 0.00000000 0.00654584)
(0.00482410 -0.00010350 0.00000000 0.00008349 0.00000000 0.00657156)
(0.00442635 -0.00009517 0.00000000 0.00008173 0.00000000 0.00663443)
(0.00419415 -0.00009064 0.00000000 0.00008804 0.00000000 0.00711930)
(0.00452907 0.00000371 0.00000000 0.00016619 0.00000000 0.01027837)
(0.00459546 0.00043796 0.00000000 0.00016122 0.00000000 0.00962929)
(0.00424566 0.00046850 0.00000000 0.00014781 0.00000000 0.01109943)
(0.00319413 0.00091373 0.00000000 0.00032536 0.00000000 0.00884412)
(0.00345469 0.00078471 0.00000000 0.00025373 0.00000000 0.01074989)
(0.00292433 0.00104112 0.00000000 0.00043303 0.00000000 0.01030227)
(0.00259682 0.00075254 0.00000000 0.00024641 0.00000000 0.00757136)
(0.00210298 0.00057401 0.00000000 0.00015369 0.00000000 0.00515335)
(0.00256855 0.00134275 0.00000000 0.00072861 0.00000000 0.00714290)
(0.00211721 0.00113848 0.00000000 0.00062760 0.00000000 0.00564444)
(0.00217148 0.00119457 0.00000000 0.00067310 0.00000000 0.00614978)
(0.00148209 0.00094800 0.00000000 0.00065874 0.00000000 0.00693204)
(0.00051235 0.00031008 0.00000000 0.00017872 0.00000000 0.00163838)
(0.00100623 0.00059298 0.00000000 0.00034955 0.00000000 0.00301398)
(0.00143618 0.00085082 0.00000000 0.00050923 0.00000000 0.00435149)
(0.00230538 0.00136661 0.00000000 0.00083083 0.00000000 0.00686697)
(0.00163103 0.00100220 0.00000000 0.00062507 0.00000000 0.00516101)
(0.00168924 0.00106068 0.00000000 0.00067498 0.00000000 0.00541878)
(0.00137973 0.00090794 0.00000000 0.00059515 0.00000000 0.00454828)
(0.00146769 0.00097772 0.00000000 0.00065314 0.00000000 0.00475331)
(0.00106684 0.00075420 0.00000000 0.00052308 0.00000000 0.00314135)
(0.00025885 0.00019057 0.00000000 0.00013684 0.00000000 0.00041958)
(0.00018837 0.00017788 0.00000000 0.00014353 0.00000000 0.00050303)
(-0.00020200 0.00010645 0.00000000 0.00014443 0.00000000 0.00136595)
(0.00128728 0.00023859 0.00000000 0.00000704 0.00000000 0.00109613)
(0.00344288 0.00054490 0.00000000 0.00009768 0.00000000 0.00215173)
(0.00507405 0.00050740 0.00000000 0.00004564 0.00000000 0.00227196)
(0.00468786 0.00023955 0.00000000 0.00001861 0.00000000 0.00196033)
(0.00731413 -0.00002516 0.00000000 0.00001982 0.00000000 0.00343813)
(0.00817908 -0.00009173 0.00000000 0.00003465 0.00000000 0.00392352)
(0.02092621 -0.00045614 0.00000000 0.00019584 0.00000000 0.00851657)
(0.02473864 -0.00069019 0.00000000 0.00032076 0.00000000 0.00995368)
(0.02034665 -0.00051738 0.00000000 0.00019445 0.00000000 0.00762575)
(0.01463409 -0.00264797 0.00000000 0.00093970 0.00000000 0.00771069)
(0.00895742 -0.00308132 0.00000000 0.00156110 0.00000000 0.00969210)
(0.00724161 -0.00441741 0.00000000 0.00317030 0.00000000 0.00965240)
(0.00812693 -0.00352283 0.00000000 0.00229951 0.00000000 0.01067354)
(0.00868030 -0.00596694 0.00000000 0.00467330 0.00000000 0.01243259)
(0.00830229 -0.00578751 0.00000000 0.00454126 0.00000000 0.01105276)
(0.01045037 -0.00716628 0.00000000 0.00564095 0.00000000 0.01385297)
(0.01068942 -0.00709966 0.00000000 0.00545581 0.00000000 0.01374424)
(0.01036085 -0.00671394 0.00000000 0.00503723 0.00000000 0.01287151)
(0.00987787 -0.00621950 0.00000000 0.00457335 0.00000000 0.01174694)
(0.00993490 -0.00611112 0.00000000 0.00436860 0.00000000 0.01133801)
(0.00963638 -0.00582169 0.00000000 0.00407584 0.00000000 0.01065755)
(0.00938211 -0.00552626 0.00000000 0.00373379 0.00000000 0.00984330)
(0.00892072 -0.00516921 0.00000000 0.00340018 0.00000000 0.00901652)
(0.00829663 -0.00477941 0.00000000 0.00306690 0.00000000 0.00798931)
(0.00824035 -0.00515909 0.00000000 0.00371460 0.00000000 0.00943102)
(0.00941867 -0.00517307 0.00000000 0.00332304 0.00000000 0.00901641)
(0.00948250 -0.00505370 0.00000000 0.00314975 0.00000000 0.00878021)
(0.00981170 -0.00493241 0.00000000 0.00301318 0.00000000 0.00953912)
(0.01095926 -0.00482423 0.00000000 0.00263761 0.00000000 0.00919504)
(0.01089461 -0.00422371 0.00000000 0.00221523 0.00000000 0.01017408)
(0.01105929 -0.00379487 0.00000000 0.00197582 0.00000000 0.01128901)
(0.01188757 -0.00318513 0.00000000 0.00160179 0.00000000 0.01230650)
(0.01242535 -0.00293834 0.00000000 0.00146021 0.00000000 0.01316404)
(0.01305299 -0.00225332 0.00000000 0.00131311 0.00000000 0.01479319)
(0.01362208 -0.00183873 0.00000000 0.00128552 0.00000000 0.01636917)
(0.01418431 -0.00052349 0.00000000 0.00121947 0.00000000 0.01789670)
(0.01530899 -0.00013991 0.00000000 0.00105347 0.00000000 0.01838076)
(0.01637427 -0.00011205 0.00000000 0.00112575 0.00000000 0.02022093)
(0.01738349 -0.00013787 0.00000000 0.00119248 0.00000000 0.02172531)
(0.01827644 -0.00014340 0.00000000 0.00122979 0.00000000 0.02274555)
(0.01887641 -0.00023054 0.00000000 0.00129986 0.00000000 0.02385592)
(0.01959426 -0.00022477 0.00000000 0.00136172 0.00000000 0.02471994)
(0.02004602 -0.00022997 0.00000000 0.00140686 0.00000000 0.02555745)
(0.02028487 -0.00024707 0.00000000 0.00141415 0.00000000 0.02602671)
(0.02050762 -0.00031193 0.00000000 0.00141207 0.00000000 0.02651380)
(0.02091993 -0.00031552 0.00000000 0.00139101 0.00000000 0.02693372)
(0.02135359 -0.00035354 0.00000000 0.00142560 0.00000000 0.02718598)
(0.02181724 -0.00038041 0.00000000 0.00139881 0.00000000 0.02735520)
(0.02208678 -0.00037368 0.00000000 0.00139024 0.00000000 0.02722330)
(0.02217190 -0.00037719 0.00000000 0.00138723 0.00000000 0.02724383)
(0.02218164 -0.00039139 0.00000000 0.00135383 0.00000000 0.02716575)
(0.02258751 -0.00043290 0.00000000 0.00133619 0.00000000 0.02703400)
(0.02286092 -0.00043442 0.00000000 0.00132032 0.00000000 0.02687467)
(0.02283665 -0.00045709 0.00000000 0.00130862 0.00000000 0.02641966)
(0.02270031 -0.00042011 0.00000000 0.00129040 0.00000000 0.02614921)
(0.02226120 -0.00045370 0.00000000 0.00123972 0.00000000 0.02590326)
(0.02202346 -0.00048485 0.00000000 0.00119438 0.00000000 0.02543457)
(0.02212531 -0.00050586 0.00000000 0.00113915 0.00000000 0.02515357)
(0.02202533 -0.00047524 0.00000000 0.00112436 0.00000000 0.02471990)
(0.02166627 -0.00047599 0.00000000 0.00111977 0.00000000 0.02435485)
(0.02137583 -0.00050097 0.00000000 0.00109880 0.00000000 0.02412041)
(0.02113151 -0.00051106 0.00000000 0.00106905 0.00000000 0.02374146)
(0.02080400 -0.00050710 0.00000000 0.00103865 0.00000000 0.02329673)
(0.02049046 -0.00052461 0.00000000 0.00099528 0.00000000 0.02278518)
(0.02035222 -0.00055149 0.00000000 0.00098168 0.00000000 0.02238523)
(0.02020231 -0.00054005 0.00000000 0.00095418 0.00000000 0.02195612)
(0.02004397 -0.00055517 0.00000000 0.00092481 0.00000000 0.02143593)
(0.01985806 -0.00054872 0.00000000 0.00088122 0.00000000 0.02095985)
(0.01960467 -0.00056451 0.00000000 0.00084828 0.00000000 0.02044524)
(0.01924224 -0.00053696 0.00000000 0.00081658 0.00000000 0.01994367)
(0.01899723 -0.00054765 0.00000000 0.00077981 0.00000000 0.01955984)
(0.01886372 -0.00055383 0.00000000 0.00074448 0.00000000 0.01903774)
(0.01873509 -0.00055339 0.00000000 0.00072357 0.00000000 0.01851522)
(0.01850424 -0.00053885 0.00000000 0.00070669 0.00000000 0.01799628)
(0.01817636 -0.00052409 0.00000000 0.00068052 0.00000000 0.01755700)
(0.01773042 -0.00051868 0.00000000 0.00065703 0.00000000 0.01709315)
(0.01724446 -0.00051788 0.00000000 0.00063666 0.00000000 0.01663623)
(0.01681167 -0.00051412 0.00000000 0.00061211 0.00000000 0.01612342)
(0.01649108 -0.00051892 0.00000000 0.00059273 0.00000000 0.01573905)
(0.01621736 -0.00051996 0.00000000 0.00058116 0.00000000 0.01544840)
(0.01591104 -0.00051303 0.00000000 0.00056845 0.00000000 0.01525389)
(0.01564566 -0.00051159 0.00000000 0.00054405 0.00000000 0.01501608)
(0.01537522 -0.00049887 0.00000000 0.00052172 0.00000000 0.01467127)
(0.01503735 -0.00048914 0.00000000 0.00049803 0.00000000 0.01432005)
(0.01471834 -0.00048651 0.00000000 0.00047648 0.00000000 0.01395822)
(0.01449011 -0.00048285 0.00000000 0.00046383 0.00000000 0.01373240)
(0.01416942 -0.00047308 0.00000000 0.00046088 0.00000000 0.01351956)
(0.01372498 -0.00045375 0.00000000 0.00044546 0.00000000 0.01325931)
(0.01320177 -0.00044123 0.00000000 0.00042754 0.00000000 0.01300622)
(0.01268891 -0.00043388 0.00000000 0.00041467 0.00000000 0.01274696)
(0.01214547 -0.00041217 0.00000000 0.00039824 0.00000000 0.01257697)
(0.01152096 -0.00039454 0.00000000 0.00038429 0.00000000 0.01239576)
(0.01088913 -0.00038284 0.00000000 0.00037393 0.00000000 0.01233501)
(0.01019641 -0.00035877 0.00000000 0.00037421 0.00000000 0.01237142)
(0.00935513 -0.00033632 0.00000000 0.00036439 0.00000000 0.01251403)
(0.00859029 -0.00030872 0.00000000 0.00037237 0.00000000 0.01306585)
(0.00817693 -0.00010149 0.00000000 0.00049872 0.00000000 0.01602478)
(0.00846518 0.00052620 0.00000000 0.00049242 0.00000000 0.01755140)
(0.00815725 0.00091235 0.00000000 0.00053860 0.00000000 0.01937638)
(0.00811077 0.00165074 0.00000000 0.00069087 0.00000000 0.01900268)
(0.00773985 0.00182543 0.00000000 0.00079198 0.00000000 0.02018023)
(0.00738988 0.00231074 0.00000000 0.00103573 0.00000000 0.02069234)
(0.00769582 0.00262501 0.00000000 0.00115840 0.00000000 0.01953615)
(0.00792515 0.00301689 0.00000000 0.00136585 0.00000000 0.01836585)
(0.00722829 0.00351593 0.00000000 0.00194696 0.00000000 0.02010611)
(0.00701314 0.00358020 0.00000000 0.00202707 0.00000000 0.01858440)
(0.00705102 0.00368998 0.00000000 0.00212314 0.00000000 0.01934501)
(0.00515366 0.00366309 0.00000000 0.00292252 0.00000000 0.01858503)
(0.00524859 0.00291063 0.00000000 0.00169393 0.00000000 0.01381266)
(0.00518154 0.00286493 0.00000000 0.00169556 0.00000000 0.01428267)
(0.00607746 0.00344766 0.00000000 0.00206715 0.00000000 0.01735543)
(0.00610689 0.00351941 0.00000000 0.00215066 0.00000000 0.01797846)
(0.00595632 0.00351714 0.00000000 0.00218502 0.00000000 0.01799308)
(0.00593205 0.00357504 0.00000000 0.00226270 0.00000000 0.01832181)
(0.00523397 0.00323402 0.00000000 0.00209035 0.00000000 0.01658900)
(0.00469762 0.00296613 0.00000000 0.00195014 0.00000000 0.01509696)
(0.00428177 0.00281272 0.00000000 0.00189235 0.00000000 0.01308924)
(0.00241751 0.00167741 0.00000000 0.00116373 0.00000000 0.00506990)
(0.00236595 0.00157669 0.00000000 0.00106090 0.00000000 0.00558713)
(0.00446080 0.00171234 0.00000000 0.00069693 0.00000000 0.00903046)
(0.00704531 0.00180896 0.00000000 0.00045733 0.00000000 0.00753823)
(0.01056536 0.00216329 0.00000000 0.00049505 0.00000000 0.00716381)
(0.01496753 0.00159469 0.00000000 0.00020093 0.00000000 0.00741924)
(0.01527677 0.00080373 0.00000000 0.00008692 0.00000000 0.00593752)
(0.01766706 -0.00005963 0.00000000 0.00006977 0.00000000 0.00681310)
(0.01839554 -0.00026109 0.00000000 0.00011451 0.00000000 0.00731476)
(0.03387340 -0.00091641 0.00000000 0.00040135 0.00000000 0.01196591)
(0.03854620 -0.00133780 0.00000000 0.00064722 0.00000000 0.01408216)
(0.03727890 -0.00157867 0.00000000 0.00061736 0.00000000 0.01308417)
(0.02672785 -0.00439801 0.00000000 0.00178393 0.00000000 0.01257061)
(0.01475844 -0.00424847 0.00000000 0.00249933 0.00000000 0.01368099)
(0.01119907 -0.00592945 0.00000000 0.00459350 0.00000000 0.01467595)
(0.01216271 -0.00581937 0.00000000 0.00435056 0.00000000 0.01677007)
(0.01210093 -0.00789419 0.00000000 0.00665397 0.00000000 0.01805357)
(0.01067820 -0.00717956 0.00000000 0.00610696 0.00000000 0.01517850)
(0.01220117 -0.00812920 0.00000000 0.00691556 0.00000000 0.01738879)
(0.01244529 -0.00801189 0.00000000 0.00665831 0.00000000 0.01701214)
(0.01244785 -0.00785385 0.00000000 0.00635867 0.00000000 0.01617773)
(0.01250367 -0.00769205 0.00000000 0.00603970 0.00000000 0.01525472)
(0.01233117 -0.00740050 0.00000000 0.00567882 0.00000000 0.01434423)
(0.01244990 -0.00736909 0.00000000 0.00551398 0.00000000 0.01387018)
(0.01242545 -0.00717173 0.00000000 0.00517482 0.00000000 0.01296299)
(0.01206959 -0.00686118 0.00000000 0.00480431 0.00000000 0.01200654)
(0.01195812 -0.00681115 0.00000000 0.00467284 0.00000000 0.01120802)
(0.01112938 -0.00677038 0.00000000 0.00510883 0.00000000 0.01187079)
(0.01249414 -0.00673901 0.00000000 0.00465722 0.00000000 0.01174517)
(0.01276583 -0.00664591 0.00000000 0.00446496 0.00000000 0.01169948)
(0.01282323 -0.00624744 0.00000000 0.00416846 0.00000000 0.01221674)
(0.01369562 -0.00585044 0.00000000 0.00366437 0.00000000 0.01233593)
(0.01382385 -0.00522336 0.00000000 0.00322852 0.00000000 0.01319122)
(0.01391378 -0.00466982 0.00000000 0.00298042 0.00000000 0.01433279)
(0.01473822 -0.00395729 0.00000000 0.00261177 0.00000000 0.01533098)
(0.01533629 -0.00354420 0.00000000 0.00245706 0.00000000 0.01672022)
(0.01561904 -0.00261271 0.00000000 0.00231920 0.00000000 0.01829256)
(0.01618116 -0.00201147 0.00000000 0.00235269 0.00000000 0.02004789)
(0.01680113 -0.00087196 0.00000000 0.00236020 0.00000000 0.02164746)
(0.01842359 -0.00046218 0.00000000 0.00228539 0.00000000 0.02310544)
(0.01986202 -0.00045991 0.00000000 0.00246020 0.00000000 0.02530666)
(0.02114446 -0.00050172 0.00000000 0.00259808 0.00000000 0.02707332)
(0.02222422 -0.00051186 0.00000000 0.00267855 0.00000000 0.02826263)
(0.02299973 -0.00063290 0.00000000 0.00281689 0.00000000 0.02955796)
(0.02382007 -0.00063845 0.00000000 0.00293495 0.00000000 0.03056049)
(0.02446406 -0.00064930 0.00000000 0.00303008 0.00000000 0.03145661)
(0.02484332 -0.00066003 0.00000000 0.00304946 0.00000000 0.03208576)
(0.02521528 -0.00074622 0.00000000 0.00302995 0.00000000 0.03277199)
(0.02571609 -0.00075197 0.00000000 0.00300419 0.00000000 0.03341026)
(0.02637996 -0.00080676 0.00000000 0.00305064 0.00000000 0.03386305)
(0.02697333 -0.00084128 0.00000000 0.00302066 0.00000000 0.03408422)
(0.02731183 -0.00081768 0.00000000 0.00299566 0.00000000 0.03395732)
(0.02751961 -0.00080120 0.00000000 0.00298484 0.00000000 0.03402920)
(0.02766619 -0.00082342 0.00000000 0.00294373 0.00000000 0.03383272)
(0.02829496 -0.00087747 0.00000000 0.00289667 0.00000000 0.03382555)
(0.02860825 -0.00085078 0.00000000 0.00287573 0.00000000 0.03366263)
(0.02865147 -0.00086641 0.00000000 0.00284559 0.00000000 0.03319075)
(0.02855604 -0.00080775 0.00000000 0.00280918 0.00000000 0.03290261)
(0.02812509 -0.00085235 0.00000000 0.00271267 0.00000000 0.03264547)
(0.02806325 -0.00089534 0.00000000 0.00262494 0.00000000 0.03217763)
(0.02812166 -0.00091858 0.00000000 0.00252229 0.00000000 0.03192782)
(0.02803707 -0.00084607 0.00000000 0.00248259 0.00000000 0.03149062)
(0.02765462 -0.00084173 0.00000000 0.00247314 0.00000000 0.03098657)
(0.02734952 -0.00087350 0.00000000 0.00243439 0.00000000 0.03069013)
(0.02715850 -0.00088599 0.00000000 0.00237195 0.00000000 0.03020726)
(0.02687124 -0.00087984 0.00000000 0.00231076 0.00000000 0.02976981)
(0.02660759 -0.00090332 0.00000000 0.00223009 0.00000000 0.02919466)
(0.02649396 -0.00093515 0.00000000 0.00219113 0.00000000 0.02873876)
(0.02635206 -0.00092037 0.00000000 0.00213290 0.00000000 0.02825936)
(0.02625082 -0.00095163 0.00000000 0.00206959 0.00000000 0.02760548)
(0.02605733 -0.00092765 0.00000000 0.00198619 0.00000000 0.02704148)
(0.02584246 -0.00094461 0.00000000 0.00191778 0.00000000 0.02652304)
(0.02552179 -0.00090575 0.00000000 0.00184510 0.00000000 0.02594895)