/*--------------------------------*- C++ -*----------------------------------*\
  =========                 |
  \\      /  F ield         | OpenFOAM: The Open Source CFD Toolbox
   \\    /   O peration     | Website:  https://openfoam.org
    \\  /    A nd           | Version:  7
     \\/     M anipulation  |
\*---------------------------------------------------------------------------*/
FoamFile
{
    version     2.0;
    format      ascii;
    class       volVectorField;
    location    "0";
    object      U_LES;
}
// * * * * * * * * * * * * * * * * * * * * * * * * * * * * * * * * * * * * * //

dimensions      [0 1 -1 0 0 0 0];

internalField   nonuniform List<vector>
15600
(
(0.03076278 -0.00003957 0.00000000)
(0.03365581 -0.00021603 0.00000000)
(0.01671018 -0.00030852 0.00000000)
(0.00212666 0.00144226 0.00000000)
(-0.00723293 0.00507853 0.00000000)
(-0.00744945 0.00586268 0.00000000)
(-0.00363957 0.00115936 0.00000000)
(-0.00993777 0.00664625 0.00000000)
(-0.00954102 0.00685019 0.00000000)
(-0.01677278 0.01180070 0.00000000)
(-0.01898795 0.01303868 0.00000000)
(-0.01935838 0.01298522 0.00000000)
(-0.01973888 0.01295675 0.00000000)
(-0.01986745 0.01272784 0.00000000)
(-0.01956389 0.01227302 0.00000000)
(-0.01900370 0.01166893 0.00000000)
(-0.01708700 0.01029613 0.00000000)
(-0.01365789 0.00806827 0.00000000)
(-0.02564753 0.01560936 0.00000000)
(-0.02686765 0.01551264 0.00000000)
(-0.02633006 0.01481962 0.00000000)
(-0.03231344 0.01771526 0.00000000)
(-0.02111024 0.01107261 0.00000000)
(-0.02656150 0.01158229 0.00000000)
(-0.03345534 0.00927632 0.00000000)
(-0.03368168 0.01226246 0.00000000)
(-0.03466253 0.00585944 0.00000000)
(-0.04202327 0.01119389 0.00000000)
(-0.04275959 0.01382545 0.00000000)
(-0.05390713 0.00026383 0.00000000)
(-0.03999057 0.00010319 0.00000000)
(-0.03940571 0.00004687 0.00000000)
(-0.04041357 0.00001356 0.00000000)
(-0.04025394 0.00000882 0.00000000)
(-0.04043101 -0.00001572 0.00000000)
(-0.03998068 -0.00000521 0.00000000)
(-0.03869508 -0.00003309 0.00000000)
(-0.03665149 -0.00003730 0.00000000)
(-0.03420566 -0.00004719 0.00000000)
(-0.03205772 -0.00003183 0.00000000)
(-0.02997251 -0.00004006 0.00000000)
(-0.02809647 -0.00004430 0.00000000)
(-0.02541913 -0.00004600 0.00000000)
(-0.02278306 -0.00004865 0.00000000)
(-0.01951589 -0.00006787 0.00000000)
(-0.01691472 -0.00004278 0.00000000)
(-0.01480879 -0.00003772 0.00000000)
(-0.01173302 -0.00006163 0.00000000)
(-0.00967488 -0.00003782 0.00000000)
(-0.00666760 -0.00004865 0.00000000)
(-0.00432336 -0.00004018 0.00000000)
(-0.00224353 -0.00003047 0.00000000)
(-0.00054532 -0.00003102 0.00000000)
(0.00152317 -0.00003743 0.00000000)
(0.00394709 -0.00004303 0.00000000)
(0.00563711 -0.00002725 0.00000000)
(0.00714704 -0.00002895 0.00000000)
(0.00875425 -0.00002810 0.00000000)
(0.01042704 -0.00003083 0.00000000)
(0.01185142 -0.00002359 0.00000000)
(0.01314169 -0.00002385 0.00000000)
(0.01466260 -0.00002787 0.00000000)
(0.01610345 -0.00001976 0.00000000)
(0.01737480 -0.00002121 0.00000000)
(0.01848299 -0.00002041 0.00000000)
(0.01943488 -0.00001532 0.00000000)
(0.02022602 -0.00001267 0.00000000)
(0.02095995 -0.00001344 0.00000000)
(0.02159169 -0.00001381 0.00000000)
(0.02242335 -0.00001120 0.00000000)
(0.02296529 -0.00000839 0.00000000)
(0.02354180 -0.00000867 0.00000000)
(0.02380436 -0.00000346 0.00000000)
(0.02399106 -0.00000200 0.00000000)
(0.02426935 -0.00000391 0.00000000)
(0.02443083 -0.00000339 0.00000000)
(0.02449080 -0.00000146 0.00000000)
(0.02447951 0.00000363 0.00000000)
(0.02418496 0.00000975 0.00000000)
(0.02358879 0.00001397 0.00000000)
(0.02294194 0.00000776 0.00000000)
(0.02235888 0.00001281 0.00000000)
(0.02152218 0.00001737 0.00000000)
(0.02047089 0.00002292 0.00000000)
(0.01920580 0.00002033 0.00000000)
(0.01767621 0.00002394 0.00000000)
(0.01577762 0.00003872 0.00000000)
(0.01335822 0.00005018 0.00000000)
(0.01071569 0.00006669 0.00000000)
(0.00775390 0.00008075 0.00000000)
(0.00597684 0.00057076 0.00000000)
(0.00624091 0.00070684 0.00000000)
(0.00783580 0.00027039 0.00000000)
(0.00552407 0.00236681 0.00000000)
(0.01110901 0.00162545 0.00000000)
(0.01031195 0.00390737 0.00000000)
(0.00855528 0.00111552 0.00000000)
(-0.00106006 -0.00121236 0.00000000)
(0.00607842 0.00339771 0.00000000)
(0.00174652 0.00097373 0.00000000)
(0.01388394 0.00783348 0.00000000)
(0.01097756 0.00563933 0.00000000)
(-0.00639862 -0.00375969 0.00000000)
(-0.00340973 -0.00204012 0.00000000)
(0.00778672 0.00478098 0.00000000)
(0.01127816 0.00705489 0.00000000)
(0.01633297 0.01039253 0.00000000)
(0.01635602 0.01076548 0.00000000)
(0.01842993 0.01243810 0.00000000)
(0.01931355 0.01325992 0.00000000)
(0.00287359 0.00204896 0.00000000)
(-0.02202714 -0.01587897 0.00000000)
(-0.00952645 -0.00738451 0.00000000)
(0.00866571 0.00767596 0.00000000)
(-0.04283547 -0.01685123 0.00000000)
(0.00528541 -0.00305234 0.00000000)
(0.02754020 0.00058638 0.00000000)
(0.03490281 0.00211664 0.00000000)
(0.04212838 0.00097531 0.00000000)
(0.03187858 0.00012030 0.00000000)
(0.06754242 -0.00012563 0.00000000)
(0.07207790 -0.00064904 0.00000000)
(0.05513801 -0.00118886 0.00000000)
(0.01712435 0.00165302 0.00000000)
(-0.01104198 0.00680044 0.00000000)
(-0.01609146 0.01164954 0.00000000)
(-0.01634288 0.00559686 0.00000000)
(-0.02107229 0.01434607 0.00000000)
(-0.02175411 0.01526560 0.00000000)
(-0.02904374 0.02042564 0.00000000)
(-0.03144913 0.02159003 0.00000000)
(-0.03300763 0.02215506 0.00000000)
(-0.03395533 0.02236180 0.00000000)
(-0.03556688 0.02284448 0.00000000)
(-0.03540391 0.02231775 0.00000000)
(-0.03813531 0.02356189 0.00000000)
(-0.03833189 0.02333593 0.00000000)
(-0.03991375 0.02407302 0.00000000)
(-0.05095327 0.03384704 0.00000000)
(-0.05755721 0.03354514 0.00000000)
(-0.06275781 0.03575865 0.00000000)
(-0.06895493 0.03749351 0.00000000)
(-0.07167983 0.03678426 0.00000000)
(-0.07664104 0.03212593 0.00000000)
(-0.08293238 0.02944334 0.00000000)
(-0.08772522 0.02670876 0.00000000)
(-0.09308677 0.02258142 0.00000000)
(-0.09926374 0.02174488 0.00000000)
(-0.10234873 0.01851502 0.00000000)
(-0.10084194 0.00360890 0.00000000)
(-0.10031846 0.00097105 0.00000000)
(-0.10415526 0.00026597 0.00000000)
(-0.10477802 0.00001319 0.00000000)
(-0.10421182 0.00000785 0.00000000)
(-0.10282508 -0.00016623 0.00000000)
(-0.10047884 -0.00012839 0.00000000)
(-0.09674573 -0.00035901 0.00000000)
(-0.09128255 -0.00039656 0.00000000)
(-0.08510559 -0.00046356 0.00000000)
(-0.07871596 -0.00035532 0.00000000)
(-0.07386067 -0.00037462 0.00000000)
(-0.06726876 -0.00047962 0.00000000)
(-0.06038691 -0.00048178 0.00000000)
(-0.05351754 -0.00050636 0.00000000)
(-0.04534817 -0.00062850 0.00000000)
(-0.03840226 -0.00043658 0.00000000)
(-0.03202382 -0.00042987 0.00000000)
(-0.02474149 -0.00053966 0.00000000)
(-0.01802329 -0.00044256 0.00000000)
(-0.01055537 -0.00049511 0.00000000)
(-0.00439573 -0.00040654 0.00000000)
(0.00095042 -0.00031077 0.00000000)
(0.00597798 -0.00035058 0.00000000)
(0.01162297 -0.00041338 0.00000000)
(0.01762398 -0.00040648 0.00000000)
(0.02256600 -0.00030347 0.00000000)
(0.02677243 -0.00030748 0.00000000)
(0.03107859 -0.00030298 0.00000000)
(0.03540047 -0.00029932 0.00000000)
(0.03959267 -0.00027342 0.00000000)
(0.04317150 -0.00024909 0.00000000)
(0.04734973 -0.00030842 0.00000000)
(0.05127602 -0.00022035 0.00000000)
(0.05483168 -0.00022852 0.00000000)
(0.05785419 -0.00021825 0.00000000)
(0.06037789 -0.00016994 0.00000000)
(0.06271751 -0.00013367 0.00000000)
(0.06485998 -0.00013467 0.00000000)
(0.06674727 -0.00015697 0.00000000)
(0.06912284 -0.00013356 0.00000000)
(0.07072012 -0.00009793 0.00000000)
(0.07232661 -0.00008405 0.00000000)
(0.07324645 -0.00003906 0.00000000)
(0.07388654 -0.00004526 0.00000000)
(0.07475472 -0.00005890 0.00000000)
(0.07538690 -0.00002599 0.00000000)
(0.07563699 -0.00000189 0.00000000)
(0.07551673 0.00002542 0.00000000)
(0.07498235 0.00007479 0.00000000)
(0.07356991 0.00011957 0.00000000)
(0.07222419 0.00010305 0.00000000)
(0.07071488 0.00012561 0.00000000)
(0.06868750 0.00015847 0.00000000)
(0.06605688 0.00021333 0.00000000)
(0.06279877 0.00025391 0.00000000)
(0.05886720 0.00030820 0.00000000)
(0.05383809 0.00040792 0.00000000)
(0.04756469 0.00047725 0.00000000)
(0.04012847 0.00058348 0.00000000)
(0.03188572 0.00083208 0.00000000)
(0.02905691 0.00170261 0.00000000)
(0.03218358 0.00455221 0.00000000)
(0.03712796 0.00539951 0.00000000)
(0.03951881 0.01215728 0.00000000)
(0.04653086 0.01196517 0.00000000)
(0.05155329 0.01902645 0.00000000)
(0.05336505 0.01684000 0.00000000)
(0.05412228 0.01697037 0.00000000)
(0.06663681 0.03598804 0.00000000)
(0.06532168 0.03632523 0.00000000)
(0.07692393 0.04370501 0.00000000)
(0.06308351 0.04353436 0.00000000)
(0.05168985 0.03043738 0.00000000)
(0.07086042 0.04242943 0.00000000)
(0.09027728 0.05509700 0.00000000)
(0.09563591 0.05933744 0.00000000)
(0.10886156 0.06939917 0.00000000)
(0.11479834 0.07486189 0.00000000)
(0.12426096 0.08320246 0.00000000)
(0.12828415 0.08793896 0.00000000)
(0.11561489 0.08146772 0.00000000)
(0.02672472 0.01891543 0.00000000)
(0.03368124 0.02479011 0.00000000)
(0.05141603 0.03960425 0.00000000)
(0.05437026 0.01173578 0.00000000)
(0.13116352 0.02460362 0.00000000)
(0.15050454 0.01856062 0.00000000)
(0.12373694 0.00889851 0.00000000)
(0.09625812 0.00244159 0.00000000)
(0.07205015 0.00059977 0.00000000)
(0.12247854 -0.00020545 0.00000000)
(0.12717120 -0.00148018 0.00000000)
(0.10763655 -0.00279950 0.00000000)
(0.04415990 0.00044663 0.00000000)
(-0.01048162 0.00805509 0.00000000)
(-0.02508799 0.01707751 0.00000000)
(-0.02845566 0.01312885 0.00000000)
(-0.03395409 0.02190853 0.00000000)
(-0.03541939 0.02462580 0.00000000)
(-0.04032051 0.02835088 0.00000000)
(-0.04313318 0.02961340 0.00000000)
(-0.04432160 0.02979874 0.00000000)
(-0.04582074 0.03026291 0.00000000)
(-0.04845380 0.03120860 0.00000000)
(-0.05072432 0.03212104 0.00000000)
(-0.05365101 0.03334600 0.00000000)
(-0.05811723 0.03573421 0.00000000)
(-0.06272083 0.03843146 0.00000000)
(-0.07198933 0.04624726 0.00000000)
(-0.08160913 0.04816007 0.00000000)
(-0.08886323 0.05103551 0.00000000)
(-0.09643771 0.05231422 0.00000000)
(-0.10725086 0.05272489 0.00000000)
(-0.11311183 0.04923486 0.00000000)
(-0.11918904 0.04509707 0.00000000)
(-0.12514088 0.03829591 0.00000000)
(-0.13057347 0.03519263 0.00000000)
(-0.13606076 0.02741324 0.00000000)
(-0.13899984 0.02110923 0.00000000)
(-0.13785926 0.00625983 0.00000000)
(-0.14231997 0.00183398 0.00000000)
(-0.14630155 0.00049604 0.00000000)
(-0.14602977 -0.00006185 0.00000000)
(-0.14396125 -0.00014088 0.00000000)
(-0.14078378 -0.00049422 0.00000000)
(-0.13632963 -0.00048951 0.00000000)
(-0.13004040 -0.00097256 0.00000000)
(-0.12201421 -0.00107855 0.00000000)
(-0.11305972 -0.00124010 0.00000000)
(-0.10421185 -0.00097692 0.00000000)
(-0.09652956 -0.00104603 0.00000000)
(-0.08712375 -0.00127167 0.00000000)
(-0.07723896 -0.00127862 0.00000000)
(-0.06731131 -0.00135870 0.00000000)
(-0.05649249 -0.00154586 0.00000000)
(-0.04654069 -0.00119780 0.00000000)
(-0.03719235 -0.00118885 0.00000000)
(-0.02676852 -0.00141124 0.00000000)
(-0.01691704 -0.00124049 0.00000000)
(-0.00673437 -0.00129511 0.00000000)
(0.00186376 -0.00105974 0.00000000)
(0.00964456 -0.00087910 0.00000000)
(0.01716421 -0.00096907 0.00000000)
(0.02524260 -0.00110743 0.00000000)
(0.03361139 -0.00106386 0.00000000)
(0.04077179 -0.00082226 0.00000000)
(0.04713877 -0.00082687 0.00000000)
(0.05327520 -0.00081029 0.00000000)
(0.05954503 -0.00081659 0.00000000)
(0.06575291 -0.00074697 0.00000000)
(0.07131975 -0.00069340 0.00000000)
(0.07758002 -0.00082964 0.00000000)
(0.08320259 -0.00062216 0.00000000)
(0.08838683 -0.00062647 0.00000000)
(0.09302729 -0.00056993 0.00000000)
(0.09699762 -0.00046548 0.00000000)
(0.10032983 -0.00039104 0.00000000)
(0.10370874 -0.00039624 0.00000000)
(0.10715539 -0.00043809 0.00000000)
(0.11065021 -0.00038147 0.00000000)
(0.11347523 -0.00028856 0.00000000)
(0.11590209 -0.00024103 0.00000000)
(0.11754437 -0.00013193 0.00000000)
(0.11885243 -0.00014578 0.00000000)
(0.12028182 -0.00017228 0.00000000)
(0.12163314 -0.00009050 0.00000000)
(0.12227945 -0.00002723 0.00000000)
(0.12250397 0.00004441 0.00000000)
(0.12193477 0.00017969 0.00000000)
(0.12056569 0.00027180 0.00000000)
(0.11899718 0.00024272 0.00000000)
(0.11711550 0.00030351 0.00000000)
(0.11480834 0.00040993 0.00000000)
(0.11135965 0.00054556 0.00000000)
(0.10706627 0.00064856 0.00000000)
(0.10183514 0.00079326 0.00000000)
(0.09514221 0.00105471 0.00000000)
(0.08663068 0.00125463 0.00000000)
(0.07630301 0.00154570 0.00000000)
(0.06444262 0.00211970 0.00000000)
(0.05913113 0.00351169 0.00000000)
(0.06300105 0.00793890 0.00000000)
(0.06977591 0.01196711 0.00000000)
(0.07806689 0.01997417 0.00000000)
(0.08580103 0.02453567 0.00000000)
(0.09366748 0.03347528 0.00000000)
(0.10468445 0.04096010 0.00000000)
(0.11632047 0.04956066 0.00000000)
(0.12570053 0.06645149 0.00000000)
(0.13568776 0.07479673 0.00000000)
(0.14971461 0.08480936 0.00000000)
(0.14011699 0.11380592 0.00000000)
(0.14735510 0.08662768 0.00000000)
(0.16267062 0.09689147 0.00000000)
(0.18917682 0.11469981 0.00000000)
(0.20298086 0.12563741 0.00000000)
(0.21672774 0.13716775 0.00000000)
(0.22645985 0.14647964 0.00000000)
(0.23861885 0.15822336 0.00000000)
(0.24923003 0.16935575 0.00000000)
(0.25685208 0.17857605 0.00000000)
(0.17718639 0.12610505 0.00000000)
(0.19324797 0.13632737 0.00000000)
(0.23568073 0.11089611 0.00000000)
(0.29906675 0.09229854 0.00000000)
(0.34640133 0.08420548 0.00000000)
(0.34450133 0.04966959 0.00000000)
(0.25880983 0.02123652 0.00000000)
(0.18033634 0.00573488 0.00000000)
(0.13458554 0.00166598 0.00000000)
(0.19142692 -0.00012570 0.00000000)
(0.19212818 -0.00243241 0.00000000)
(0.17119794 -0.00512788 0.00000000)
(0.08800654 -0.00285829 0.00000000)
(0.00037576 0.00646789 0.00000000)
(-0.03287817 0.02062376 0.00000000)
(-0.04091702 0.01965943 0.00000000)
(-0.04485437 0.02784336 0.00000000)
(-0.04541492 0.03117195 0.00000000)
(-0.04960858 0.03486031 0.00000000)
(-0.05246831 0.03604022 0.00000000)
(-0.05472123 0.03684738 0.00000000)
(-0.05767561 0.03819797 0.00000000)
(-0.06043353 0.03904176 0.00000000)
(-0.06443146 0.04099314 0.00000000)
(-0.06873498 0.04300307 0.00000000)
(-0.07428390 0.04613932 0.00000000)
(-0.08255622 0.05135876 0.00000000)
(-0.08938437 0.05865313 0.00000000)
(-0.10199924 0.06072259 0.00000000)
(-0.11135654 0.06448397 0.00000000)
(-0.11943210 0.06491797 0.00000000)
(-0.13077871 0.06434428 0.00000000)
(-0.13878175 0.06076448 0.00000000)
(-0.14574086 0.05601507 0.00000000)
(-0.15256160 0.04763063 0.00000000)
(-0.15860115 0.04294661 0.00000000)
(-0.16219861 0.03209950 0.00000000)
(-0.16486945 0.02304801 0.00000000)
(-0.16430619 0.00842787 0.00000000)
(-0.17001378 0.00276702 0.00000000)
(-0.17293405 0.00059202 0.00000000)
(-0.17121378 -0.00029303 0.00000000)
(-0.16731522 -0.00049267 0.00000000)
(-0.16246750 -0.00099384 0.00000000)
(-0.15608922 -0.00110278 0.00000000)
(-0.14803940 -0.00180231 0.00000000)
(-0.13830787 -0.00201166 0.00000000)
(-0.12774699 -0.00225573 0.00000000)
(-0.11717416 -0.00183356 0.00000000)
(-0.10750529 -0.00198348 0.00000000)
(-0.09593488 -0.00232966 0.00000000)
(-0.08438888 -0.00232178 0.00000000)
(-0.07267175 -0.00248241 0.00000000)
(-0.06005629 -0.00267985 0.00000000)
(-0.04833787 -0.00223571 0.00000000)
(-0.03679846 -0.00224419 0.00000000)
(-0.02443984 -0.00253855 0.00000000)
(-0.01262420 -0.00232564 0.00000000)
(-0.00089857 -0.00232784 0.00000000)
(0.00929579 -0.00193339 0.00000000)
(0.01881137 -0.00169204 0.00000000)
(0.02796856 -0.00181292 0.00000000)
(0.03766983 -0.00202175 0.00000000)
(0.04743370 -0.00193063 0.00000000)
(0.05608701 -0.00153015 0.00000000)
(0.06395218 -0.00152726 0.00000000)
(0.07139201 -0.00149173 0.00000000)
(0.07903214 -0.00152344 0.00000000)
(0.08656515 -0.00140236 0.00000000)
(0.09366003 -0.00132783 0.00000000)
(0.10116177 -0.00153567 0.00000000)
(0.10812945 -0.00119606 0.00000000)
(0.11452923 -0.00117585 0.00000000)
(0.12019379 -0.00104394 0.00000000)
(0.12509389 -0.00088203 0.00000000)
(0.12950910 -0.00076747 0.00000000)
(0.13395890 -0.00078600 0.00000000)
(0.13853429 -0.00084557 0.00000000)
(0.14286554 -0.00074734 0.00000000)
(0.14667029 -0.00058502 0.00000000)
(0.14983918 -0.00048019 0.00000000)
(0.15234989 -0.00030126 0.00000000)
(0.15432962 -0.00031481 0.00000000)
(0.15646353 -0.00035466 0.00000000)
(0.15829327 -0.00020411 0.00000000)
(0.15940857 -0.00009235 0.00000000)
(0.15997331 0.00003353 0.00000000)
(0.15974706 0.00027018 0.00000000)
(0.15872499 0.00041003 0.00000000)
(0.15750793 0.00039107 0.00000000)
(0.15581115 0.00049669 0.00000000)
(0.15347072 0.00070032 0.00000000)
(0.14992303 0.00093302 0.00000000)
(0.14543004 0.00112972 0.00000000)
(0.13984920 0.00139630 0.00000000)
(0.13252595 0.00185235 0.00000000)
(0.12323952 0.00222135 0.00000000)
(0.11168029 0.00278111 0.00000000)
(0.09805543 0.00371349 0.00000000)
(0.09066034 0.00569511 0.00000000)
(0.09329575 0.01106725 0.00000000)
(0.10049187 0.01738430 0.00000000)
(0.11038545 0.02639979 0.00000000)
(0.12009569 0.03468281 0.00000000)
(0.13035087 0.04683749 0.00000000)
(0.14275398 0.05730356 0.00000000)
(0.15784108 0.06996837 0.00000000)
(0.16897945 0.08744328 0.00000000)
(0.18377171 0.10021230 0.00000000)
(0.20046880 0.11338544 0.00000000)
(0.20851246 0.14801840 0.00000000)
(0.22216314 0.13065390 0.00000000)
(0.24059143 0.14249293 0.00000000)
(0.25667091 0.15495898 0.00000000)
(0.27751362 0.17095314 0.00000000)
(0.29356290 0.18474759 0.00000000)
(0.30746681 0.19807363 0.00000000)
(0.32710230 0.21535665 0.00000000)
(0.35831805 0.24079286 0.00000000)
(0.38625440 0.26470982 0.00000000)
(0.35441569 0.24876405 0.00000000)
(0.38327358 0.25963818 0.00000000)
(0.43833071 0.20749251 0.00000000)
(0.53215400 0.18753680 0.00000000)
(0.56818050 0.15144568 0.00000000)
(0.55302777 0.09071126 0.00000000)
(0.42338840 0.03844847 0.00000000)
(0.28867789 0.01171589 0.00000000)
(0.21397584 0.00334877 0.00000000)
(0.27161212 0.00034061 0.00000000)
(0.26585257 -0.00334514 0.00000000)
(0.24064561 -0.00753620 0.00000000)
(0.14399133 -0.00782878 0.00000000)
(0.02460478 0.00220529 0.00000000)
(-0.03490775 0.02090145 0.00000000)
(-0.04995455 0.02484439 0.00000000)
(-0.05249820 0.03137978 0.00000000)
(-0.05603469 0.03833648 0.00000000)
(-0.05962150 0.04183847 0.00000000)
(-0.06274836 0.04311238 0.00000000)
(-0.06519369 0.04396567 0.00000000)
(-0.06874256 0.04564309 0.00000000)
(-0.07254523 0.04700362 0.00000000)
(-0.07705041 0.04925214 0.00000000)
(-0.08218106 0.05174648 0.00000000)
(-0.08909432 0.05588781 0.00000000)
(-0.09869355 0.06221434 0.00000000)
(-0.10585429 0.06969215 0.00000000)
(-0.11831513 0.07134045 0.00000000)
(-0.12806695 0.07469138 0.00000000)
(-0.13730717 0.07498327 0.00000000)
(-0.14858300 0.07351847 0.00000000)
(-0.15712734 0.06952642 0.00000000)
(-0.16482836 0.06345948 0.00000000)
(-0.17188425 0.05458366 0.00000000)
(-0.17740195 0.04758059 0.00000000)
(-0.18024352 0.03584160 0.00000000)
(-0.18239720 0.02504695 0.00000000)
(-0.18287208 0.01023020 0.00000000)
(-0.18810985 0.00344681 0.00000000)
(-0.18937420 0.00051784 0.00000000)
(-0.18616379 -0.00068312 0.00000000)
(-0.18086596 -0.00102962 0.00000000)
(-0.17447390 -0.00165548 0.00000000)
(-0.16662295 -0.00192576 0.00000000)
(-0.15720600 -0.00278646 0.00000000)
(-0.14631746 -0.00314749 0.00000000)
(-0.13454215 -0.00343309 0.00000000)
(-0.12305285 -0.00287234 0.00000000)
(-0.11183062 -0.00315052 0.00000000)
(-0.09894464 -0.00357864 0.00000000)
(-0.08624721 -0.00353564 0.00000000)
(-0.07338414 -0.00380197 0.00000000)
(-0.05971877 -0.00396798 0.00000000)
(-0.04682349 -0.00347994 0.00000000)
(-0.03377597 -0.00352952 0.00000000)
(-0.02018609 -0.00382870 0.00000000)
(-0.00722434 -0.00360904 0.00000000)
(0.00545649 -0.00351405 0.00000000)
(0.01678730 -0.00298276 0.00000000)
(0.02750240 -0.00268589 0.00000000)
(0.03773688 -0.00283334 0.00000000)
(0.04853708 -0.00308161 0.00000000)
(0.05915120 -0.00293829 0.00000000)
(0.06882624 -0.00238932 0.00000000)
(0.07767682 -0.00236512 0.00000000)
(0.08610085 -0.00231014 0.00000000)
(0.09469882 -0.00236319 0.00000000)
(0.10312396 -0.00219440 0.00000000)
(0.11134485 -0.00210678 0.00000000)
(0.11956532 -0.00236611 0.00000000)
(0.12747778 -0.00190798 0.00000000)
(0.13458925 -0.00184114 0.00000000)
(0.14105223 -0.00161832 0.00000000)
(0.14670939 -0.00138992 0.00000000)
(0.15182449 -0.00124983 0.00000000)
(0.15706440 -0.00128654 0.00000000)
(0.16242940 -0.00135297 0.00000000)
(0.16740534 -0.00121143 0.00000000)
(0.17196493 -0.00097274 0.00000000)
(0.17568809 -0.00080114 0.00000000)
(0.17891264 -0.00055121 0.00000000)
(0.18152084 -0.00055067 0.00000000)
(0.18411135 -0.00059924 0.00000000)
(0.18639227 -0.00037134 0.00000000)
(0.18799208 -0.00020667 0.00000000)
(0.18900371 -0.00001460 0.00000000)
(0.18922989 0.00032096 0.00000000)
(0.18863713 0.00050177 0.00000000)
(0.18786557 0.00052142 0.00000000)
(0.18658419 0.00066945 0.00000000)
(0.18445770 0.00098580 0.00000000)
(0.18123865 0.00132684 0.00000000)
(0.17687659 0.00163423 0.00000000)
(0.17138647 0.00203592 0.00000000)
(0.16411581 0.00269808 0.00000000)
(0.15482692 0.00326682 0.00000000)
(0.14306501 0.00412719 0.00000000)
(0.12904015 0.00546054 0.00000000)
(0.12020145 0.00792586 0.00000000)
(0.12100015 0.01384946 0.00000000)
(0.12730890 0.02162666 0.00000000)
(0.13688616 0.03195115 0.00000000)
(0.14686642 0.04220554 0.00000000)
(0.15807719 0.05612499 0.00000000)
(0.17134086 0.06878408 0.00000000)
(0.18748785 0.08352859 0.00000000)
(0.19996646 0.10164203 0.00000000)
(0.21933440 0.11811052 0.00000000)
(0.23580328 0.13166166 0.00000000)
(0.24968897 0.16155382 0.00000000)
(0.27346766 0.16005869 0.00000000)
(0.29090747 0.17132428 0.00000000)
(0.30913814 0.18525492 0.00000000)
(0.32711623 0.20010453 0.00000000)
(0.34681817 0.21688183 0.00000000)
(0.36610637 0.23406256 0.00000000)
(0.39531888 0.25808972 0.00000000)
(0.42278743 0.28193647 0.00000000)
(0.45823168 0.31106385 0.00000000)
(0.51190828 0.35616054 0.00000000)
(0.54428515 0.36571970 0.00000000)
(0.62260834 0.30716905 0.00000000)
(0.71196294 0.27735454 0.00000000)
(0.75975209 0.21134141 0.00000000)
(0.72569519 0.12888084 0.00000000)
(0.58470494 0.05810967 0.00000000)
(0.41237609 0.01997259 0.00000000)
(0.30920298 0.00606769 0.00000000)
(0.36006630 0.00138669 0.00000000)
(0.34532043 -0.00401052 0.00000000)
(0.31304746 -0.00967239 0.00000000)
(0.20848869 -0.01239311 0.00000000)
(0.06204667 -0.00263564 0.00000000)
(-0.02889786 0.01923497 0.00000000)
(-0.05588453 0.02890511 0.00000000)
(-0.06009511 0.03651469 0.00000000)
(-0.06419632 0.04391830 0.00000000)
(-0.06920016 0.04850616 0.00000000)
(-0.07250900 0.04983665 0.00000000)
(-0.07543164 0.05095454 0.00000000)
(-0.07912555 0.05266317 0.00000000)
(-0.08335942 0.05417843 0.00000000)
(-0.08848040 0.05682242 0.00000000)
(-0.09445297 0.05985059 0.00000000)
(-0.10210365 0.06462502 0.00000000)
(-0.11229810 0.07152697 0.00000000)
(-0.11966326 0.07901856 0.00000000)
(-0.13152199 0.07978701 0.00000000)
(-0.14143191 0.08310591 0.00000000)
(-0.15073020 0.08284262 0.00000000)
(-0.16195105 0.08076658 0.00000000)
(-0.17061164 0.07627941 0.00000000)
(-0.17832796 0.06948749 0.00000000)
(-0.18503274 0.05973348 0.00000000)
(-0.18996768 0.05073294 0.00000000)
(-0.19238327 0.03846707 0.00000000)
(-0.19428057 0.02628399 0.00000000)
(-0.19531966 0.01156764 0.00000000)
(-0.19952776 0.00390007 0.00000000)
(-0.19904703 0.00024829 0.00000000)
(-0.19454166 -0.00121926 0.00000000)
(-0.18800086 -0.00173007 0.00000000)
(-0.18040582 -0.00247081 0.00000000)
(-0.17140530 -0.00291878 0.00000000)
(-0.16113947 -0.00389867 0.00000000)
(-0.14940134 -0.00445003 0.00000000)
(-0.13682732 -0.00472025 0.00000000)
(-0.12469762 -0.00406502 0.00000000)
(-0.11233205 -0.00450236 0.00000000)
(-0.09855801 -0.00498261 0.00000000)
(-0.08513310 -0.00488316 0.00000000)
(-0.07156805 -0.00526743 0.00000000)
(-0.05723927 -0.00539912 0.00000000)
(-0.04353954 -0.00487879 0.00000000)
(-0.02940391 -0.00500844 0.00000000)
(-0.01505639 -0.00524288 0.00000000)
(-0.00141517 -0.00503519 0.00000000)
(0.01193045 -0.00483201 0.00000000)
(0.02403761 -0.00417753 0.00000000)
(0.03557158 -0.00382989 0.00000000)
(0.04659617 -0.00400991 0.00000000)
(0.05812540 -0.00424705 0.00000000)
(0.06928774 -0.00405047 0.00000000)
(0.07967728 -0.00338281 0.00000000)
(0.08923229 -0.00331861 0.00000000)
(0.09843426 -0.00324886 0.00000000)
(0.10768045 -0.00330305 0.00000000)
(0.11667098 -0.00309549 0.00000000)
(0.12560620 -0.00300331 0.00000000)
(0.13436914 -0.00328991 0.00000000)
(0.14285769 -0.00273191 0.00000000)
(0.15040317 -0.00259743 0.00000000)
(0.15748197 -0.00228707 0.00000000)
(0.16366697 -0.00197554 0.00000000)
(0.16939006 -0.00183078 0.00000000)
(0.17517562 -0.00187478 0.00000000)
(0.18110182 -0.00193568 0.00000000)
(0.18655958 -0.00175380 0.00000000)
(0.19150377 -0.00143632 0.00000000)
(0.19574366 -0.00119972 0.00000000)
(0.19951434 -0.00087636 0.00000000)
(0.20268059 -0.00084840 0.00000000)
(0.20567532 -0.00089805 0.00000000)
(0.20836065 -0.00059352 0.00000000)
(0.21042143 -0.00036943 0.00000000)
(0.21171000 -0.00009972 0.00000000)
(0.21232260 0.00032070 0.00000000)
(0.21233178 0.00054118 0.00000000)
(0.21185350 0.00062368 0.00000000)
(0.21085099 0.00080321 0.00000000)
(0.20923372 0.00124774 0.00000000)
(0.20627969 0.00170557 0.00000000)
(0.20236699 0.00212965 0.00000000)
(0.19709931 0.00267682 0.00000000)
(0.19021009 0.00354161 0.00000000)
(0.18132118 0.00433444 0.00000000)
(0.16994679 0.00550640 0.00000000)
(0.15621101 0.00723324 0.00000000)
(0.14656124 0.01013549 0.00000000)
(0.14553292 0.01649274 0.00000000)
(0.15050054 0.02517900 0.00000000)
(0.15926963 0.03646069 0.00000000)
(0.16889853 0.04776238 0.00000000)
(0.18015432 0.06245533 0.00000000)
(0.19340616 0.07701391 0.00000000)
(0.20922794 0.09283214 0.00000000)
(0.22388721 0.11176789 0.00000000)
(0.24300573 0.12890792 0.00000000)
(0.26140297 0.14566850 0.00000000)
(0.27926582 0.17266250 0.00000000)
(0.30602140 0.17808623 0.00000000)
(0.32519608 0.19035818 0.00000000)
(0.34406134 0.20484857 0.00000000)
(0.36415307 0.22120351 0.00000000)
(0.38625851 0.23964825 0.00000000)
(0.40952398 0.25971154 0.00000000)
(0.43817882 0.28374564 0.00000000)
(0.46561283 0.30780230 0.00000000)
(0.50780631 0.34094563 0.00000000)
(0.57965406 0.37794469 0.00000000)
(0.66646859 0.42499717 0.00000000)
(0.73545733 0.36186312 0.00000000)
(0.82783557 0.33436329 0.00000000)
(0.88767087 0.24827445 0.00000000)
(0.85043696 0.15391796 0.00000000)
(0.72101580 0.07774625 0.00000000)
(0.54138095 0.03016409 0.00000000)
(0.41372696 0.01007789 0.00000000)
(0.45306723 0.00323231 0.00000000)
(0.42803386 -0.00427637 0.00000000)
(0.38825592 -0.01153655 0.00000000)
(0.27948928 -0.01672385 0.00000000)
(0.10963389 -0.00745275 0.00000000)
(-0.01448251 0.01643063 0.00000000)
(-0.05668673 0.03078613 0.00000000)
(-0.06611899 0.04133384 0.00000000)
(-0.07180673 0.04942560 0.00000000)
(-0.07732023 0.05420679 0.00000000)
(-0.08136977 0.05596623 0.00000000)
(-0.08464841 0.05729163 0.00000000)
(-0.08874910 0.05921188 0.00000000)
(-0.09340912 0.06090369 0.00000000)
(-0.09887525 0.06378699 0.00000000)
(-0.10520694 0.06706790 0.00000000)
(-0.11321658 0.07228126 0.00000000)
(-0.12323044 0.07920597 0.00000000)
(-0.13083533 0.08632464 0.00000000)
(-0.14165380 0.08702693 0.00000000)
(-0.15156575 0.08977063 0.00000000)
(-0.16086606 0.08904532 0.00000000)
(-0.17145974 0.08633073 0.00000000)
(-0.18008974 0.08146560 0.00000000)
(-0.18752323 0.07338037 0.00000000)
(-0.19379533 0.06296578 0.00000000)
(-0.19833821 0.05306818 0.00000000)
(-0.20037535 0.04021028 0.00000000)
(-0.20202927 0.02711914 0.00000000)
(-0.20324584 0.01253443 0.00000000)
(-0.20620399 0.00412749 0.00000000)
(-0.20418579 -0.00017989 0.00000000)
(-0.19857668 -0.00189499 0.00000000)
(-0.19102359 -0.00257349 0.00000000)
(-0.18245654 -0.00342224 0.00000000)
(-0.17259158 -0.00404228 0.00000000)
(-0.16167939 -0.00512235 0.00000000)
(-0.14933432 -0.00587656 0.00000000)
(-0.13626400 -0.00609294 0.00000000)
(-0.12364453 -0.00539387 0.00000000)
(-0.11047886 -0.00600726 0.00000000)
(-0.09620907 -0.00650902 0.00000000)
(-0.08229321 -0.00634788 0.00000000)
(-0.06821400 -0.00684750 0.00000000)
(-0.05351725 -0.00694813 0.00000000)
(-0.03920277 -0.00641150 0.00000000)
(-0.02432157 -0.00664402 0.00000000)
(-0.00951881 -0.00676448 0.00000000)
(0.00452136 -0.00657486 0.00000000)
(0.01836772 -0.00625883 0.00000000)
(0.03103190 -0.00548429 0.00000000)
(0.04309693 -0.00508733 0.00000000)
(0.05469801 -0.00531516 0.00000000)
(0.06669065 -0.00549257 0.00000000)
(0.07824206 -0.00524483 0.00000000)
(0.08912195 -0.00449641 0.00000000)
(0.09922582 -0.00437114 0.00000000)
(0.10904173 -0.00429865 0.00000000)
(0.11873467 -0.00432448 0.00000000)
(0.12805099 -0.00408631 0.00000000)
(0.13746333 -0.00399521 0.00000000)
(0.14657779 -0.00427925 0.00000000)
(0.15545572 -0.00363734 0.00000000)
(0.16338926 -0.00342785 0.00000000)
(0.17084305 -0.00303962 0.00000000)
(0.17743157 -0.00262922 0.00000000)
(0.18363573 -0.00250018 0.00000000)
(0.18986532 -0.00253572 0.00000000)
(0.19606905 -0.00258069 0.00000000)
(0.20183087 -0.00235281 0.00000000)
(0.20711459 -0.00196211 0.00000000)
(0.21171207 -0.00166715 0.00000000)
(0.21594618 -0.00127551 0.00000000)
(0.21959702 -0.00120640 0.00000000)
(0.22295390 -0.00123720 0.00000000)
(0.22586536 -0.00086982 0.00000000)
(0.22827501 -0.00058082 0.00000000)
(0.22993210 -0.00022105 0.00000000)
(0.23094294 0.00026520 0.00000000)
(0.23140992 0.00053271 0.00000000)
(0.23122632 0.00069513 0.00000000)
(0.23064642 0.00090578 0.00000000)
(0.22933861 0.00147266 0.00000000)
(0.22682020 0.00205820 0.00000000)
(0.22319822 0.00260609 0.00000000)
(0.21828138 0.00331364 0.00000000)
(0.21185115 0.00436366 0.00000000)
(0.20353463 0.00539125 0.00000000)
(0.19274098 0.00687059 0.00000000)
(0.17963603 0.00898317 0.00000000)
(0.16960533 0.01227346 0.00000000)
(0.16715653 0.01893435 0.00000000)
(0.17063505 0.02820415 0.00000000)
(0.17818959 0.03985561 0.00000000)
(0.18741498 0.05247104 0.00000000)
(0.19829808 0.06779114 0.00000000)
(0.21124201 0.08277690 0.00000000)
(0.22648031 0.09952438 0.00000000)