5 	0.00391112967796275 	3.46944695195361e-18 	-0.0305257619432654 	3.84669101220502e-05 	0
5 	0.0118766651674914 	3.46944695195361e-18 	-0.0789476034640963 	-0.000177878904454491 	-7.39600110960399e-25
5 	0.0201340015485759 	-3.46944695195361e-18 	-0.111813961319088 	-0.000562148451856859 	7.76185154343134e-21
5 	0.028693828342395 	-1.04083408558608e-17 	-0.126516353477103 	-0.00113500018635842 	5.09999082813301e-21
5 	0.0375672266585909 	-1.38777878078145e-17 	-0.129537359371643 	-0.00179190371572229 	4.26123390172014e-23
5 	0.0467656835403032 	-1.73472347597681e-17 	-0.128135112254842 	-0.00249561567318185 	5.57339058854413e-23
5 	0.0563011068347005 	-2.08166817117217e-17 	-0.125196123934425 	-0.00324925052613557 	-2.70446112795598e-21
5 	0.0661858406082648 	-2.77555756156289e-17 	-0.121617950074147 	-0.00404889976529455 	-2.10215889000873e-21
5 	0.0764326811267816 	-3.81639164714898e-17 	-0.117693870521262 	-0.0048891366103071 	-3.67097253712772e-23
5 	0.0870548934207257 	-4.16333634234434e-17 	-0.113527292991523 	-0.00576722602927623 	-6.69677817531852e-22
5 	0.0980662284574841 	-4.16333634234434e-17 	-0.109152950981901 	-0.0066823023863697 	6.4709182908233e-22
5 	0.109480940942647 	-4.85722573273506e-17 	-0.104576958112258 	-0.00763429901901823 	2.1320459667823e-21
5 	0.121313807773417 	-5.20417042793042e-17 	-0.0997918054308331 	-0.0086235132984552 	1.54606711759629e-23
5 	0.13358014716801 	-5.20417042793042e-17 	-0.0947825425244875 	-0.00965046345589653 	8.9800009185029e-22
5 	0.146295838495838 	-5.20417042793042e-17 	-0.0895294838997561 	-0.0107158213026117 	2.80639015803031e-18
5 	0.159477342834115 	-5.20417042793042e-17 	-0.0840094102859392 	-0.0118203684108109 	2.20681163257526e-16
5 	0.173141724277517 	-5.55111512312578e-17 	-0.0781960634152365 	-0.0129649663418445 	-2.09165645481876e-16
5 	0.18730667202848 	-5.20417042793042e-17 	-0.0720602840982481 	-0.0141505358226312 	-2.07116292835269e-18
5 	0.201990523296728 	-4.5102810375397e-17 	-0.0655699568979175 	-0.0153780408457315 	-7.18332891153523e-22
5 	0.217212287037676 	-4.16333634234434e-17 	-0.0586898418523015 	-0.0166484751336926 	-7.10039072793194e-22
5 	0.232991668560441 	-4.5102810375397e-17 	-0.0513813349111038 	-0.0179628493468271 	-2.0331426992415e-21
5 	0.249349095037321 	-5.20417042793042e-17 	-0.0436021799283603 	-0.0193221778167036 	-1.09977617341706e-23
5 	0.266305741947753 	-5.20417042793042e-17 	-0.0353061458282663 	-0.0207274637178652 	-2.65825577642409e-21
5 	0.283883560490999 	-4.85722573273506e-17 	-0.0264426782482737 	-0.0221796815655562 	-1.31513913635941e-21
5 	0.30210530600303 	-4.85722573273506e-17 	-0.0169565333600739 	-0.0236797556697894 	-4.48146195900399e-23
5 	0.320994567414414 	-4.16333634234434e-17 	-0.00678740162447126 	-0.025228532630417 	-1.34633279579281e-21
5 	0.340575797787321 	-3.28513258263108e-17 	0.00413160758318717 	-0.0268266411804071 	-2.76004030877695e-21
5 	0.360874345971201 	-3.19839640883224e-17 	0.0158749269158918 	-0.0284744013994857 	3.06329990374557e-19
5 	0.38191648941809 	-2.94902990916057e-17 	0.0285171856927087 	-0.0301724565938826 	5.56041670416218e-19
5 	0.403729468200046 	-2.71050543121376e-17 	0.0421426120019141 	-0.0319208174347802 	-2.55740319453432e-18
5 	0.426341520272734 	-2.10335221462188e-17 	0.0568420088018527 	-0.0337190232668322 	-2.00969002876089e-16
5 	0.449781918030829 	-1.30104260698261e-17 	0.0727128152698972 	-0.0355664427748761 	2.00263973677412e-16
5 	0.474081006202548 	-1.56125112837913e-17 	0.0898590007770729 	-0.0374632860146537 	5.47789451244868e-18
5 	0.499270241132364 	-1.77809156287623e-17 	0.108393203222514 	-0.0394065748019595 	2.04382518306094e-16
5 	0.525382231502763 	-2.34187669256869e-17 	0.128517677419834 	-0.0413815069692077 	-2.13364675735709e-16
5 	0.552450780547767 	-3.81639164714898e-17 	0.15079044461474 	-0.0433914891915929 	-3.14598742925456e-18
5 	0.58051092981285 	-4.16333634234434e-17 	0.175819836712881 	-0.0454364279968125 	-1.58167859000716e-22
5 	0.609599004517911 	-3.8597597340484e-17 	0.203740621580032 	-0.0474849322767749 	3.61648136550844e-21
5 	0.639752660582033 	-4.16333634234434e-17 	0.234401202839864 	-0.0495123755744245 	3.94144048031579e-21
5 	0.671010933370887 	-3.98986399474666e-17 	0.267563294867987 	-0.0514946297028964 	-3.54020677818399e-21
5 	0.703414288229901 	-4.25007251614318e-17 	0.303016234402836 	-0.0534045251926276 	7.88488890603312e-21
5 	0.737004672868606 	-4.33680868994202e-17 	0.340589154918845 	-0.055211853152748 	-1.30601293495429e-23
5 	0.771825571663976 	-3.90312782094782e-17 	0.380100737020527 	-0.0568842332108012 	-8.75039536293595e-21
5 	0.807922061953054 	-3.81639164714898e-17 	0.421297291116906 	-0.0583884434037125 	-1.65816273307395e-20
5 	0.845340872387743 	-4.16333634234434e-17 	0.463812206660405 	-0.0596921714316646 	-1.12799044636442e-17
5 	0.88413044342731 	-5.03069808033274e-17 	0.507156961233475 	-0.0607657981654011 	-1.23011361869307e-17
5 	0.924340990046898 	-4.77048955893622e-17 	0.550737676378923 	-0.0615838189644412 	1.25821615790182e-17
5 	0.966024566743243 	-4.16333634234434e-17 	0.593884090985852 	-0.062125751131023 	1.36635741298855e-17
5 	1.00923513492173 	-4.68375338513738e-17 	0.635877827652162 	-0.0623766141306938 	8.68985777436252e-21
5 	1.05402863275206 	-5.55111512312578e-17 	0.67597726569079 	-0.0623278375832014 	8.70294997733543e-22
5 	1.10046304758287 	-5.20417042793042e-17 	0.713497981755558 	-0.0619814481285438 	1.17246652223857e-20
5 	1.14859849100923 	-4.33680868994202e-17 	0.747967377169978 	-0.0613542893999106 	1.08548942104374e-20
5 	1.19849727668995 	-3.98986399474666e-17 	0.779238627406477 	-0.0604730377779479 	9.98440677287031e-21
5 	1.25022400101563 	-3.46944695195361e-17 	0.807517535107838 	-0.0593599876619875 	-9.23599810187956e-22
5 	1.30384562673186 	-3.12250225675825e-17 	0.833302911958809 	-0.0580373140872969 	-1.14607953062956e-20
5 	1.35943156962566 	-3.46944695195361e-17 	0.856879759592073 	-0.0565389391626667 	-1.01643121127209e-20
5 	1.41705378838763 	-2.60208521396521e-17 	0.878308828730497 	-0.0549215720229739 	9.37103909626395e-21
5 	1.47678687776592 	-1.73472347597681e-17 	0.897776214945279 	-0.0532244206575514 	4.38648543916581e-21
5 	1.53870816513278 	-1.73472347597681e-17 	0.91555540294195 	-0.0514673122596221 	9.22588303718686e-21
5 	1.60289781058851 	-1.38777878078145e-17 	0.931919608835086 	-0.0496549858366389 	-7.22158004540933e-21
5 	1.66943891073267 	-3.46944695195361e-18 	0.947117113836277 	-0.0477792527753712 	2.05381988435022e-20
5 	1.73841760623657 	3.46944695195361e-18 	0.961365307722512 	-0.0458228940266063 	5.65881897265255e-21
5 	1.8099231933566 	6.93889390390723e-18 	0.974800012396596 	-0.0437682311477339 	-4.73441760087837e-23
5 	1.88404823953249 	1.38777878078145e-17 	0.987446030009364 	-0.0416001100835727 	1.0596243009662e-20
5 	1.96088870322038 	1.38777878078145e-17 	0.998716072528612 	-0.0394310760955394 	6.91238284595851e-21
5 	2.02025965173185 	1.73472347597681e-17 	1.00697235234958 	-0.0376647272834515 	3.0325667694691e-23
5 	2.06006301192217 	1.73472347597681e-17 	1.01255555685817 	-0.0363412097599037 	0
5 	2.09845978584128 	1.73472347597681e-17 	1.01712668556114 	-0.0351595908431128 	0
5 	2.13549967996946 	2.08166817117217e-17 	1.02120801400756 	-0.0340145622785977 	0
5 	2.17123064424048 	2.42861286636753e-17 	1.02483080358256 	-0.0329034071348436 	0
5 	2.20569893411516 	2.77555756156289e-17 	1.02802313414621 	-0.0318255754525982 	0
5 	2.23894917046123 	2.42861286636753e-17 	1.03081001157263 	-0.030780710485288 	0
5 	2.27102439731726 	2.42861286636753e-17 	1.03321344881747 	-0.0297682475039067 	0
5 	2.30196613761522 	2.77555756156289e-17 	1.03525255609352 	-0.0287874954107657 	0
5 	2.33181444693392 	2.77555756156289e-17 	1.03694364256461 	-0.0278376832960119 	0
5 	2.3606079653529 	2.77555756156289e-17 	1.03830032724889 	-0.026917973081882 	0
5 	2.38838396747391 	2.77555756156289e-17 	1.03933365675913 	-0.026027469962398 	0
5 	2.41517841067461 	2.77555756156289e-17 	1.04005222741889 	-0.0251652331634006 	0
5 	2.44102598165722 	2.77555756156289e-17 	1.04046230944573 	-0.0243302852391704 	0
5 	2.46596014135208 	2.77555756156289e-17 	1.04056797113516 	-0.0235216195723568 	0
5 	2.49001316823444 	2.77555756156289e-17 	1.04037120105787 	-0.0227382062151528 	0
5 	2.51321620011054 	2.77555756156289e-17 	1.03987202607193 	-0.0219789961999579 	0
5 	2.535599274427 	2.42861286636753e-17 	1.03906862242696 	-0.0212429244403971 	0
5 	2.55719136715571 	2.08166817117217e-17 	1.03795741643966 	-0.0205289113666329 	0
5 	2.57802043030466 	2.08166817117217e-17 	1.0365331702586 	-0.0198358634704546 	0
5 	2.59811342810315 	2.42861286636753e-17 	1.03478904728467 	-0.019162672974905 	0
5 	2.61749637190832 	2.77555756156289e-17 	1.03271665110557 	-0.0185082168928596 	0
5 	2.63619435387806 	2.77555756156289e-17 	1.03030603161678 	-0.0178713557985299 	0
5 	2.65423157945406 	2.77555756156289e-17 	1.02754565262406 	-0.0172509327022647 	0
5 	2.67163139869691 	2.42861286636753e-17 	1.02442231690697 	-0.0166457724873609 	0
5 	2.68841633651388 	2.08166817117217e-17 	1.02092104763425 	-0.0160546824314566 	0
5 	2.70460812181851 	2.08166817117217e-17 	1.01702492918719 	-0.0154764543869539 	0
5 	2.72022771565972 	2.08166817117217e-17 	1.01271491572346 	-0.0149098692270333 	0
5 	2.73529533835695 	2.08166817117217e-17 	1.00796962185874 	-0.0143537041673266 	0
5 	2.74983049567626 	2.08166817117217e-17 	1.00276511611156 	-0.0138067435253824 	0
5 	2.76385200408157 	2.08166817117217e-17 	0.997074743483914 	-0.0132677933267553 	0
5 	2.77737801509344 	2.08166817117217e-17 	0.99086900774177 	-0.0127356999545516 	0
5 	2.79042603878708 	2.77555756156289e-17 	0.984115545410209 	-0.0122093733364031 	0
5 	2.80301296646003 	3.81639164714898e-17 	0.976779220969057 	-0.0116878159880882 	0
5 	2.81515509249873 	4.16333634234434e-17 	0.968822365465422 	-0.0111701529577489 	0
5 	2.82686813547238 	3.81639164714898e-17 	0.960205168913715 	-0.0106556332695625 	0
5 	2.83816725848143 	3.46944695195361e-17 	0.950886212544972 	-0.0101436110198385 	0
5 	2.84906708878692 	3.46944695195361e-17 	0.940822264247233 	-0.00963395122628172 	0
5 	2.85958173674617 	3.46944695195361e-17 	0.92994386089502 	-0.00912648185485683 	0
5 	2.86972481407933 	3.12250225675825e-17 	0.918100429994483 	-0.00861838752617671 	0
5 	2.87950945149043 	2.77555756156289e-17 	0.905101171656318 	-0.00810600476780885 	0
5 	2.88894831566567 	2.77555756156289e-17 	0.890820074721105 	-0.00758841290825761 	0
5 	2.89805362567107 	2.77555756156289e-17 	0.875208069696327 	-0.00706709140116585 	0
5 	2.90683716877067 	2.77555756156289e-17 	0.858264306969124 	-0.00654489607023185 	0
5 	2.9153103156857 	2.42861286636753e-17 	0.840012177815332 	-0.00602530006203623 	0
5 	2.92348403531449 	2.08166817117217e-17 	0.820483102599561 	-0.00551199341584783 	0
5 	2.9313689089323 	2.08166817117217e-17 	0.79970543846996 	-0.00500862988860255 	0
5 	2.93897514388925 	2.08166817117217e-17 	0.777695990817017 	-0.0045186661586769 	0
5 	2.94631258682425 	2.08166817117217e-17 	0.754452101527283 	-0.00404525805453305 	0
5 	2.95339073641193 	1.73472347597681e-17 	0.729943075996706 	-0.00359119897172326 	0
5 	2.96021875565916 	1.38777878078145e-17 	0.704100341052106 	-0.0031588905206218 	0
5 	2.96680548376697 	2.08166817117217e-17 	0.67680609442876 	-0.00275034147439778 	0
5 	2.97315944757337 	2.42861286636753e-17 	0.64787964243401 	-0.00236718930215198 	0
5 	2.97928887259171 	2.08166817117217e-17 	0.617059432378539 	-0.00201073019259198 	0
5 	2.98520169365903 	1.38777878078145e-17 	0.583978664314304 	-0.00168195240340566 	0
5 	2.99090556520807 	6.93889390390723e-18 	0.548133998178946 	-0.00138159240969721 	0
5 	2.99640787117633 	6.93889390390723e-18 	0.508849156876773 	-0.00111030369023464 	0
5 	3.00171573456492 	6.93889390390723e-18 	0.465197682540797 	-0.00086843040064841 	0
5 	3.00683602665963 	6.93889390390723e-18 	0.415875566024288 	-0.000655206303214617 	0
5 	3.01177537592613 	6.93889390390723e-18 	0.359468247350764 	-0.000469597858270602 	0
5 	3.01654017659085 	6.93889390390723e-18 	0.295732293240401 	-0.000312006382047322 	0
5 	3.02113659691864 	6.93889390390723e-18 	0.227079435050669 	-0.000185608914335829 	0
5 	3.02557058719784 	6.93889390390723e-18 	0.157892319882933 	-9.33706832845486e-05 	0
5 	3.02984788744324 	6.93889390390723e-18 	0.0917418573961888 	-3.5041176046755e-05 	0
