5 	0.00391112967796266 	1.04083408558608e-17 	0.215285991028424 	4.25384612683425e-05 	812.796517632284 	4.37101488467912e-06 	3.77560687385973e-38
5 	0.0118766651674915 	1.73472347597681e-17 	0.215284518394017 	0.000436016781204923 	265.692065823965 	4.38132180320295e-05 	0
5 	0.0201340015485761 	2.42861286636753e-17 	0.215272816861087 	0.00190979310206925 	64.0464390108423 	0.000124567721013245 	0
5 	0.0286938283423949 	2.77555756156289e-17 	0.215249473174011 	0.00459259558089053 	26.1846992586505 	8.56228562626243e-05 	0
5 	0.0375672266585909 	2.77555756156289e-17 	0.215204289267689 	0.00753161725867295 	14.3246733788769 	3.8004459492632e-05 	0
5 	0.0467656835403032 	2.42861286636753e-17 	0.215134987070178 	0.0101326372764606 	9.51386995329763 	9.94699968335817e-05 	0
5 	0.0563011068347005 	2.42861286636753e-17 	0.215046780636972 	0.0123564981143872 	7.11641047830393 	0.00021643697927226 	0
5 	0.0661858406082647 	2.77555756156289e-17 	0.214945381143514 	0.0143050390059853 	5.71846670472809 	0.000345160486211707 	0
5 	0.0764326811267816 	2.42861286636753e-17 	0.214834277014356 	0.0160625421849756 	4.81124129942096 	0.000476489822543214 	0
5 	0.0870548934207257 	1.73472347597681e-17 	0.214715551163804 	0.017685214442631 	4.17808289412449 	0.000610306496405179 	0
5 	0.0980662284574838 	1.73472347597681e-17 	0.214590784225803 	0.0192105604724121 	3.71308651743958 	0.000747901743719265 	0
5 	0.109480940942647 	2.08166817117217e-17 	0.214461341906954 	0.0206645653037231 	3.35875390386637 	0.000890638637980837 	0
5 	0.121313807773416 	2.42861286636753e-17 	0.214328440346245 	0.02206599398759 	3.08127376976858 	0.00103978505600046 	0
5 	0.13358014716801 	3.12250225675825e-17 	0.214193190233689 	0.023428925426295 	2.85949476259675 	0.00119653920254901 	0
5 	0.141372757573007 	3.12250225675825e-17 	0.214108731607909 	0.0242607419581084 	2.7410756217502 	0.00129733181503025 	0
5 	0.147844961844195 	2.08166817117217e-17 	0.21404025713733 	0.0249228601256426 	2.65993945663027 	0.00138237993222493 	0
5 	0.159477342834115 	1.38777878078145e-17 	0.213919805431217 	0.0260810764383059 	2.53128847528409 	0.00153732575010537 	0
5 	0.173141724277517 	1.73472347597681e-17 	0.213783597525084 	0.0273859083957665 	2.40895901278974 	0.00172376862752794 	0
5 	0.18730667202848 	2.42861286636753e-17 	0.213648966096597 	0.0286849150307366 	2.30747514100162 	0.00192265165184297 	0
5 	0.201990523296728 	2.42861286636753e-17 	0.213516834799738 	0.0299832584754121 	2.22320582041878 	0.00213535801902585 	0
5 	0.217212287037676 	2.77555756156289e-17 	0.213388106660106 	0.0312854138799352 	2.15341667809664 	0.00236337748545038 	0
5 	0.232991668560441 	3.46944695195361e-17 	0.213263662003438 	0.0325953048657514 	2.09601707297501 	0.00260832168941402 	0
5 	0.249349095037321 	3.46944695195361e-17 	0.213144354550498 	0.0339163945256451 	2.04938881311722 	0.00287193738430221 	0
5 	0.266305741947753 	3.81639164714898e-17 	0.213031005963548 	0.035251742993532 	2.01226721046403 	0.0031561174756142 	0
5 	0.283883560490998 	4.68375338513738e-17 	0.212924399044094 	0.0366040384627631 	1.98365656389211 	0.0034629093955283 	0
5 	0.30210530600303 	5.55111512312578e-17 	0.212825269673686 	0.0379756058384768 	1.96276879128507 	0.00379451994176852 	0
5 	0.320994567414413 	5.3776427755281e-17 	0.212734297052401 	0.0393683952226672 	1.948977906226 	0.0041533133078187 	0
5 	0.34057579778732 	5.03069808033274e-17 	0.212652092476669 	0.0407839775161512 	1.94178548484683 	0.00454179733778251 	0
5 	0.3608743459712 	5.03069808033274e-17 	0.212579193032518 	0.0422236358625512 	1.94079381581896 	0.00496262413976888 	0
5 	0.38191648941809 	5.20417042793042e-17 	0.212516043526244 	0.0436880003932759 	1.9456843687664 	0.00541855116675654 	0
5 	0.403729468200046 	5.55111512312578e-17 	0.212462980149207 	0.0451770662357302 	1.95619996291449 	0.0059124121807165 	0
5 	0.426341520272733 	6.15826833971767e-17 	0.212420211782835 	0.0466901062610492 	1.97212940380246 	0.00644705222089711 	0
5 	0.449781918030828 	5.98479599211998e-17 	0.212387796512299 	0.0482255339501667 	1.99329361084728 	0.00702524192372705 	0
5 	0.474081006202548 	5.42101086242752e-17 	0.212365612244886 	0.0497807406779187 	2.01953247288071 	0.00764956122584932 	0
5 	0.499270241132363 	5.5944832100252e-17 	0.212353337621399 	0.0513519062606637 	2.05069180703719 	0.00832224041536807 	0
5 	0.525382231502763 	5.20417042793042e-17 	0.212349038790618 	0.0529332692431032 	2.08675235643077 	0.00904656684155431 	0
5 	0.552450780547767 	5.20417042793042e-17 	0.212353032058429 	0.0545177165254467 	2.12739806269006 	0.00982206130690312 	0
5 	0.580510929812849 	5.89805981832114e-17 	0.212363166207713 	0.0560961483181576 	2.17238162707806 	0.010648314385439 	0
5 	0.60959900451791 	5.89805981832114e-17 	0.212375382993923 	0.0576571429118924 	2.2214176254365 	0.0115306043320227 	0
5 	0.639752660582032 	5.55111512312578e-17 	0.212399180340828 	0.0591872684513526 	2.27416475505168 	0.0125556022051577 	0
5 	0.671010933370886 	5.55111512312578e-17 	0.212476893268208 	0.0606769423753828 	2.3304259625393 	0.0138006856250048 	0
5 	0.7034142882299 	5.55111512312578e-17 	0.212603021199163 	0.0621183449269704 	2.38983058871008 	0.0151899299274298 	0
5 	0.737004672868606 	6.24500451351651e-17 	0.212709706939295 	0.0634758439751176 	2.45014623158754 	0.0166725410912322 	0
5 	0.771825571663976 	6.24500451351651e-17 	0.212753251069246 	0.0646725986209701 	2.50678015592455 	0.0180274033861065 	0
5 	0.807922061953053 	6.59194920871187e-17 	0.212725680542589 	0.0656209680739316 	2.55438592625505 	0.0191089487797329 	0
5 	0.836221347824492 	7.15573433840433e-17 	0.212661744399257 	0.0661392388364353 	2.58207688656843 	0.0197296252210991 	0
5 	0.855267279223294 	6.80878964320897e-17 	0.212599424787037 	0.0663686792579849 	2.59537482641919 	0.0200378708712405 	0
5 	0.884130443427309 	6.59194920871187e-17 	0.212476259533235 	0.0665198114799026 	2.6064175012793 	0.0203513056450602 	0
5 	0.924340990046897 	5.89805981832114e-17 	0.212252123427295 	0.0663864397232951 	2.60578056432926 	0.0205352003449679 	0
5 	0.966024566743242 	5.55111512312578e-17 	0.21194796785136 	0.0658253128037263 	2.58545252963164 	0.0204276189312441 	0
5 	1.00923513492173 	5.55111512312578e-17 	0.211548216631057 	0.0648306049226481 	2.54546120822793 	0.0200155724243414 	0
5 	1.05402863275205 	5.29090660172926e-17 	0.211035385020097 	0.0634137008198513 	2.48665345335857 	0.0192887620845091 	0
5 	1.10046304758287 	5.03069808033274e-17 	0.210392271081948 	0.0616068804886996 	2.41061153082616 	0.0182580587760282 	0
5 	1.14859849100923 	4.45878143434664e-17 	0.209603516119743 	0.0594651663145566 	2.31961469323444 	0.0169656766882538 	0
5 	1.19849727668994 	4.02510056535244e-17 	0.208648047140801 	0.05705854392867 	2.21630074300903 	0.0154806064120714 	0
5 	1.25022400101563 	3.81639164714898e-17 	0.207514730804311 	0.0544844087978399 	2.10439396533923 	0.0139027876328095 	0
5 	1.30384562673185 	3.81639164714898e-17 	0.206209995338471 	0.0518401820430484 	1.98783052237148 	0.0123281387072945 	0
5 	1.35943156962565 	4.16333634234434e-17 	0.204735872741953 	0.0491997829755508 	1.86970806257179 	0.0108269177411965 	0
5 	1.41705378838762 	4.16333634234434e-17 	0.203100730012064 	0.046620628444137 	1.75311483438915 	0.00944455960594432 	0
5 	1.468577297808 	3.64291929955129e-17 	0.201568806441575 	0.0444690236746059 	1.65590156441765 	0.00836044449565686 	0
5 	1.49898105221177 	3.29597460435593e-17 	0.200643268484758 	0.0432552365835556 	1.60120885527938 	0.00777302344806638 	0
5 	1.53870816513277 	3.81639164714898e-17 	0.199412857222188 	0.041758099537311 	1.53341911298738 	0.00708841287678722 	0
5 	1.60289781058851 	3.98986399474666e-17 	0.197392832148419 	0.0394566693926391 	1.42800453582308 	0.00609971864690674 	0
5 	1.66943891073266 	4.0766001685455e-17 	0.19527357226669 	0.0372158872336235 	1.32364810679094 	0.00522333239746254 	0
5 	1.73841760623657 	4.81385764583564e-17 	0.193074369422769 	0.0350248764258412 	1.22254638623326 	0.00444278522426358 	0
5 	1.80992319335659 	4.7271214720368e-17 	0.190815839960802 	0.0328840051936398 	1.12968080504266 	0.003752299369606 	0
5 	1.88404823953248 	3.81639164714898e-17 	0.188534517312175 	0.0307952179207208 	1.04986327392962 	0.0031618817007681 	0
5 	1.96088870322037 	3.46944695195361e-17 	0.186361431225157 	0.0287836904224415 	0.983349725675232 	0.0026345883293588 	0
5 	2.02025965173184 	3.46944695195361e-17 	0.184802548810891 	0.0272250308605024 	0.93902014070002 	0.00225695420812704 	0
5 	2.06006301192217 	3.46944695195361e-17 	0.183651173388772 	0.0260977191653837 	0.910557256067881 	0.00199729128984096 	0
5 	2.09845978584128 	3.46944695195361e-17 	0.18264596670042 	0.0250965085143355 	0.888080488870689 	0.00177814611894775 	0
5 	2.13549967996945 	3.12250225675825e-17 	0.181700922729955 	0.0241407465892749 	0.869084167422328 	0.00157716025141911 	0
5 	2.17123064424048 	3.12250225675825e-17 	0.18081063005574 	0.0232284682667911 	0.853302266822166 	0.00139290566782475 	0
5 	2.20569893411515 	3.46944695195361e-17 	0.179973006398555 	0.0223577399610062 	0.840524048265886 	0.00122447666602247 	0
5 	2.23894917046122 	3.81639164714898e-17 	0.179185561804294 	0.021526692047774 	0.830587715506924 	0.0010708271299296 	0
5 	2.27102439731725 	4.16333634234434e-17 	0.178445696217979 	0.0207335361917354 	0.823374509527818 	0.00093087527619717 	0
5 	2.30196613761521 	4.16333634234434e-17 	0.177750871953255 	0.01997657457505 	0.818803842200612 	0.000803585377703563 	0
5 	2.33181444693391 	4.16333634234434e-17 	0.177098632184211 	0.0192542045160088 	0.816829617957096 	0.000688005419085886 	0
5 	2.3606079653529 	4.5102810375397e-17 	0.17648660792007 	0.0185649210323301 	0.817437720414625 	0.000583282615553444 	0
5 	2.3883839674739 	4.85722573273506e-17 	0.175912527418383 	0.0179073188779829 	0.820644572206543 	0.000488668427413738 	0
5 	2.41517841067461 	5.20417042793042e-17 	0.175374222420662 	0.0172800948285289 	0.826496665637362 	0.000403519190868773 	0
5 	2.44102598165722 	5.20417042793042e-17 	0.174869631102291 	0.0166820505220728 	0.835070979021345 	0.000327295429997815 	0
5 	2.46596014135207 	4.85722573273506e-17 	0.174396798688388 	0.0161120959107374 	0.846476221976777 	0.000259561446317517 	0
5 	2.49001316823443 	4.85722573273506e-17 	0.173953876340775 	0.0155692532586097 	0.860854883897222 	0.000199986022652063 	0
5 	2.51321620011054 	4.85722573273506e-17 	0.173539118740204 	0.0150526615742093 	0.878386089293269 	0.00014834469085831 	0
5 	2.535599274427 	5.20417042793042e-17 	0.173150880710574 	0.014561581347104 	0.89928928994194 	0.000104523824178334 	0
5 	2.55719136715571 	5.55111512312578e-17 	0.172787613168042 	0.0140953994430331 	0.923828845927264 	6.85267251972435e-05 	0
5 	2.57802043030465 	5.20417042793042e-17 	0.17244785862136 	0.0136536339833664 	0.95231956493094 	4.04818336498996e-05 	0
5 	2.59811342810315 	4.85722573273506e-17 	0.172130246400213 	0.0132359389827405 	0.985133280391884 	2.06531410367917e-05 	0
5 	2.61749637190832 	4.85722573273506e-17 	0.1718334877458 	0.0128421084372304 	1.02270655257903 	9.45284915819297e-06 	0
5 	2.63619435387806 	4.5102810375397e-17 	0.171556370863275 	0.0124720794406498 	1.06554956953486 	7.45623190104218e-06 	0
5 	2.65423157945406 	3.81639164714898e-17 	0.17129775600835 	0.0121259337570044 	1.11425630366972 	1.54185415780648e-05 	0
5 	2.67163139869691 	3.46944695195361e-17 	0.171056570659194 	0.0118038970950662 	1.16951594020907 	3.42936329584103e-05 	0
5 	2.68841633651388 	3.46944695195361e-17 	0.170831804809471 	0.011506335124628 	1.2321255311568 	6.52537548545492e-05 	0
5 	2.7046081218185 	3.81639164714898e-17 	0.17062250640935 	0.0112337450601231 	1.30300373912765 	0.000109709684249804 	0
5 	2.72022771565972 	4.16333634234434e-17 	0.170427776978105 	0.010986741445031 	1.38320541820991 	0.000169330067794203 	0
5 	2.73529533835694 	4.16333634234434e-17 	0.170246767412546 	0.0107660346428659 	1.47393663818441 	0.000246058523930838 	0
5 	2.74983049567625 	3.81639164714898e-17 	0.170078674019869 	0.0105724005355596 	1.57656960677724 	0.000342126800627005 	0
5 	2.76385200408156 	3.46944695195361e-17 	0.169922734812003 	0.0104066401177235 	1.69265680765246 	0.000460062150955257 	0
5 	2.77737801509343 	3.46944695195361e-17 	0.169778226108393 	0.0102695281246094 	1.82394359120683 	0.000602687159895227 	0
5 	2.79042603878708 	3.46944695195361e-17 	0.169644459502157 	0.0101617505915244 	1.97237848970375 	0.000773110597573383 	0
5 	2.80301296646003 	3.12250225675825e-17 	0.169520779248685 	0.0100838323171053 	2.14012075089148 	0.000974708513535419 	0
5 	2.81515509249872 	2.77555756156289e-17 	0.16940656012908 	0.0100360565274241 	2.32954507208147 	0.00121109568982494 	0
5 	2.82686813547237 	2.77555756156289e-17 	0.169301205817179 	0.0100183804579134 	2.54324433707969 	0.00148608863991569 	0
5 	2.83816725848142 	2.77555756156289e-17 	0.169204147752378 	0.0100303518522194 	2.78403235491327 	0.00180366245040357 	0
5 	2.84906708878691 	2.42861286636753e-17 	0.169114844527267 	0.0100710322580706 	3.05495017800739 	0.00216790480455191 	0
5 	2.85958173674616 	2.08166817117217e-17 	0.169032781701862 	0.0101389332785055 	3.35928151244625 	0.00258297142063122 	0
5 	2.86972481407933 	1.73472347597681e-17 	0.168957471739062 	0.0102319714791159 	3.7005849923777 	0.00305304793583363 	0
5 	2.87950945149043 	1.04083408558608e-17 	0.16888845455245 	0.0103474464556329 	4.08275367518514 	0.00358232496057097 	0
5 	2.88894831566566 	6.93889390390723e-18 	0.168825301535535 	0.0104820411322933 	4.51011519439143 	0.00417499322907862 	0
5 	2.89805362567106 	1.04083408558608e-17 	0.168767618004286 	0.0106318478735508 	4.98758986080156 	0.0048352673000365 	0
5 	2.90683716877067 	1.38777878078145e-17 	0.168714995574036 	0.0107924264984155 	5.5209292710472 	0.00557592780629524 	0
5 	2.91531031568569 	1.38777878078145e-17 	0.1686669568104 	0.0109587326338952 	6.11765956189312 	0.00642554962027804 	0
5 	2.92348403531448 	1.04083408558608e-17 	0.168623190260847 	0.0111247378317987 	6.7890685939077 	0.00737994250482189 	0
5 	2.93136890893229 	1.73472347597681e-17 	0.168583567915379 	0.0112830503062682 	7.54764953664555 	0.00845603885360149 	0
5 	2.93897514388925 	2.77555756156289e-17 	0.168547888060831 	0.011423182220986 	8.40288089011669 	0.0096354700361148 	0
5 	2.94631258682425 	2.42861286636753e-17 	0.168515886430704 	0.0115328223321988 	9.36392324884921 	0.0108952262556179 	0
5 	2.95339073641193 	2.08166817117217e-17 	0.168487322236541 	0.011599509665105 	10.4445675968434 	0.0122292887109157 	0
5 	2.96021875565915 	2.08166817117217e-17 	0.168462020658702 	0.0116110411617604 	11.6677373921642 	0.0136450624744019 	0
5 	2.96680548376697 	2.08166817117217e-17 	0.168439871003243 	0.0115549016769603 	13.0701923703031 	0.0151585581196644 	0
5 	2.97315944757337 	2.08166817117217e-17 	0.168420808271985 	0.0114171002001727 	14.7069639861372 	0.016790907339173 	0
5 	2.97928887259171 	2.77555756156289e-17 	0.168404792240997 	0.0111805179218587 	16.6592253595528 	0.0185637955001917 	0
5 	2.98520169365902 	3.12250225675825e-17 	0.168391784002346 	0.0108226078152931 	19.0486519076731 	0.0204892099505799 	0
5 	2.99090556520806 	2.77555756156289e-17 	0.168381715779157 	0.0103124114847558 	22.0606278807298 	0.022545259138543 	0
5 	2.99640787117633 	2.77555756156289e-17 	0.168374454460687 	0.00960713238677136 	25.9864938787053 	0.0246222803093802 	0
5 	3.00171573456492 	2.77555756156289e-17 	0.16836977800751 	0.00864973721287203 	31.3091532627783 	0.026427261823808 	0
5 	3.00683602665963 	2.77555756156289e-17 	0.168367374814561 	0.0073706397120269 	38.9022074000427 	0.0272136828791733 	0
5 	3.01177537592612 	2.77555756156289e-17 	0.168366769559922 	0.00571151886027379 	50.5740903212813 	0.0251481407027145 	0
5 	3.01654017659085 	3.12250225675825e-17 	0.168367213973776 	0.00374887686891936 	70.9368953450021 	0.0183008515472645 	0
5 	3.02113659691864 	3.46944695195361e-17 	0.168367977983435 	0.00188351362985694 	115.509528277894 	0.00877400222114183 	0
5 	3.02557058719784 	3.46944695195361e-17 	0.168368799316475 	0.000649777087153043 	254.554315102729 	0.00233715188423107 	0
5 	3.02984788744324 	3.46944695195361e-17 	0.168369756963519 	0.000135405484030593 	1033.74385887418 	0.000294854900365892 	0
