0 	1.56041e-05 	4.68122e-05 	50.5558 	-5.69435e-17 	-2.87403e-16
0 	4.63311e-05 	0.000138993 	50.5079 	-4.90321e-17 	-5.60631e-16
0 	7.61109e-05 	0.000228333 	50.4436 	4.62217e-17 	-3.96943e-16
0 	9.13596e-05 	0.000274079 	50.4057 	1.55556e-16 	-2.1711e-16
0 	0.000105564 	0.000316693 	50.3352 	1.99842e-16 	-1.05188e-16
0 	0.000132944 	0.000398833 	50.1896 	2.21076e-16 	-3.05857e-17
0 	0.000160054 	0.000480161 	50.0298 	2.06311e-16 	-7.31485e-17
0 	0.00017447 	0.00052341 	49.9402 	2.21252e-16 	-1.11786e-16
0 	0.000187401 	0.000562203 	49.8305 	2.52683e-16 	-1.05317e-16
0 	0.000211791 	0.000635372 	49.6133 	3.08298e-16 	-8.13964e-17
0 	0.000236469 	0.000709407 	49.3798 	3.64321e-16 	-3.37152e-17
0 	0.000250076 	0.000750228 	49.2467 	3.96455e-16 	4.5006e-18
0 	0.000261848 	0.000785543 	49.1065 	4.12597e-16 	4.73166e-17
0 	0.000283567 	0.000850701 	48.8377 	4.2495e-16 	1.12536e-16
0 	0.000306032 	0.000918097 	48.5476 	4.01154e-16 	1.93822e-16
0 	0.000318856 	0.000956567 	48.3779 	3.72016e-16 	2.40913e-16
0 	0.000329572 	0.000988715 	48.2145 	3.30709e-16 	2.7567e-16
0 	0.000348907 	0.00104672 	47.9094 	2.59984e-16 	2.93492e-16
0 	0.000369358 	0.00110807 	47.5762 	2.01992e-16 	2.65773e-16
0 	0.000381425 	0.00114427 	47.3758 	1.87452e-16 	2.44804e-16
0 	0.00039118 	0.00117354 	47.1949 	1.85345e-16 	2.33869e-16
0 	0.000408388 	0.00122516 	46.8655 	1.93342e-16 	2.0877e-16
0 	0.000427005 	0.00128102 	46.4999 	2.23939e-16 	2.25523e-16
0 	0.000438344 	0.00131503 	46.2737 	2.56487e-16 	2.79731e-16
0 	0.000447225 	0.00134167 	46.0798 	2.77592e-16 	3.69158e-16
0 	0.000462535 	0.00138761 	45.7349 	2.78613e-16 	4.96198e-16
0 	0.000479483 	0.00143845 	45.3449 	2.4337e-16 	5.5106e-16
0 	0.000490125 	0.00147037 	45.0966 	2.03842e-16 	5.28707e-16
0 	0.000498209 	0.00149463 	44.8929 	1.64624e-16 	4.78319e-16
0 	0.000511827 	0.00153548 	44.5388 	1.13272e-16 	4.09576e-16
0 	0.000527255 	0.00158177 	44.1302 	6.88225e-17 	3.53923e-16
0 	0.00053723 	0.00161169 	43.8626 	3.77281e-17 	3.35066e-16
0 	0.000544589 	0.00163377 	43.6513 	1.19554e-17 	3.32103e-16
0 	0.000556699 	0.0016701 	43.2923 	-2.47191e-17 	3.42768e-16
0 	0.000570743 	0.00171223 	42.8689 	-6.59227e-17 	3.396e-16
0 	0.000580081 	0.00174024 	42.5838 	-9.19586e-17 	3.11704e-16
0 	0.000586781 	0.00176034 	42.3666 	-1.10468e-16 	2.65623e-16
0 	0.000597547 	0.00179264 	42.0055 	-1.50424e-16 	1.73318e-16
0 	0.000610332 	0.001831 	41.5699 	-1.90408e-16 	6.0185e-17
0 	0.000619064 	0.00185719 	41.2686 	-2.03187e-16 	1.24757e-18
0 	0.000625163 	0.00187549 	41.0464 	-1.86753e-16 	-5.97892e-18
0 	0.000634732 	0.0019042 	40.6849 	-1.45301e-16 	3.83495e-17
0 	0.000646371 	0.00193911 	40.2387 	-9.50926e-17 	1.37768e-16
0 	0.000654527 	0.00196358 	39.922 	-6.34721e-17 	2.0633e-16
0 	0.000660079 	0.00198024 	39.6952 	-4.52564e-17 	2.36736e-16
0 	0.000668583 	0.00200575 	39.3345 	-2.49151e-17 	2.57997e-16
0 	0.000679178 	0.00203753 	38.8787 	4.55128e-18 	2.56775e-16
0 	0.000686788 	0.00206036 	38.547 	2.86022e-17 	2.49681e-16
0 	0.000691842 	0.00207553 	38.3162 	4.60157e-17 	2.44322e-16
0 	0.000699399 	0.0020982 	37.9569 	6.53152e-17 	2.39439e-16
0 	0.000709044 	0.00212713 	37.492 	8.00929e-17 	2.39303e-16
0 	0.000716136 	0.00214841 	37.1454 	8.26104e-17 	2.38053e-16
0 	0.000720737 	0.00216221 	36.9107 	8.47391e-17 	2.34041e-16
0 	0.000727451 	0.00218235 	36.5532 	9.58674e-17 	2.28692e-16
0 	0.000736231 	0.00220869 	36.0794 	1.13304e-16 	2.18171e-16
0 	0.000742835 	0.0022285 	35.7179 	1.27968e-16 	2.08794e-16
0 	0.000747023 	0.00224107 	35.4793 	1.37681e-16 	2.04432e-16
0 	0.000752988 	0.00225896 	35.1237 	1.4763e-16 	2.03572e-16
0 	0.00076098 	0.00228294 	34.6409 	1.58505e-16 	2.09053e-16
0 	0.000767123 	0.00230137 	34.2645 	1.62322e-16 	2.12703e-16
0 	0.000770935 	0.00231281 	34.0219 	1.62109e-16 	2.10942e-16
0 	0.000776234 	0.0023287 	33.6681 	1.5766e-16 	2.03129e-16
0 	0.000783511 	0.00235053 	33.1763 	1.56709e-16 	2.07907e-16
0 	0.000789217 	0.00236765 	32.7848 	1.66575e-16 	2.25124e-16
0 	0.000792688 	0.00237806 	32.5382 	1.78872e-16 	2.4187e-16
0 	0.000797397 	0.00239219 	32.1863 	1.90335e-16 	2.48387e-16
0 	0.00080402 	0.00241206 	31.6854 	1.96682e-16 	2.37379e-16
0 	0.000809318 	0.00242795 	31.2788 	1.90569e-16 	2.24422e-16
0 	0.000812477 	0.00243743 	31.0282 	1.86531e-16 	2.16938e-16
0 	0.000816661 	0.00244998 	30.6783 	1.88457e-16 	2.14145e-16
0 	0.000822691 	0.00246807 	30.1685 	1.9419e-16 	2.14186e-16
0 	0.000827603 	0.00248281 	29.747 	1.98955e-16 	2.11865e-16
0 	0.000830479 	0.00249144 	29.4926 	2.02513e-16 	2.07462e-16
0 	0.000834199 	0.0025026 	29.1447 	2.09456e-16 	1.98301e-16
0 	0.000839688 	0.00251906 	28.626 	2.21118e-16 	1.84524e-16
0 	0.000844237 	0.00253271 	28.1898 	2.30571e-16 	1.78235e-16
0 	0.000846855 	0.00254057 	27.9316 	2.34216e-16 	1.77281e-16
0 	0.000850163 	0.00255049 	27.5857 	2.34588e-16 	1.7858e-16
0 	0.00085516 	0.00256548 	27.058 	2.33858e-16 	1.8371e-16
0 	0.00085937 	0.00257811 	26.6071 	2.35513e-16 	1.89481e-16
0 	0.000861753 	0.00258526 	26.3451 	2.37846e-16 	1.94723e-16
0 	0.000864696 	0.00259409 	26.0008 	2.39022e-16 	2.01799e-16
0 	0.000869245 	0.00260774 	25.464 	2.34011e-16 	2.05041e-16
0 	0.000873136 	0.00261941 	24.9983 	2.22013e-16 	1.95149e-16
0 	0.000875306 	0.00262592 	24.7323 	2.12121e-16 	1.82679e-16
0 	0.000877926 	0.00263378 	24.3892 	2.04691e-16 	1.66743e-16
0 	0.000882067 	0.0026462 	23.8427 	1.9979e-16 	1.45606e-16
0 	0.000885659 	0.00265698 	23.3621 	2.00427e-16 	1.315e-16
0 	0.000887634 	0.0026629 	23.0919 	2.01423e-16 	1.2428e-16
0 	0.00088997 	0.00266991 	22.7495 	2.03646e-16 	1.15557e-16
0 	0.000893739 	0.00268122 	22.193 	2.08986e-16 	1.05567e-16
0 	0.000897052 	0.00269116 	21.6973 	2.14445e-16 	1.03867e-16
0 	0.00089885 	0.00269655 	21.4228 	2.1734e-16 	1.06071e-16
0 	0.000900933 	0.0027028 	21.0808 	2.1733e-16 	1.07923e-16
0 	0.000904365 	0.00271309 	20.514 	2.13093e-16 	1.07853e-16
0 	0.000907416 	0.00272225 	20.0034 	2.05536e-16 	1.04733e-16
0 	0.000909053 	0.00272716 	19.7246 	2.00059e-16 	1.02348e-16
0 	0.000910914 	0.00273274 	19.3831 	1.92884e-16 	9.77089e-17
0 	0.000914038 	0.00274211 	18.8065 	1.80397e-16 	8.71084e-17
0 	0.000916844 	0.00275053 	18.2817 	1.71732e-16 	7.21412e-17
0 	0.000918335 	0.002755 	17.9986 	1.68639e-16 	6.31702e-17
0 	0.000919999 	0.00276 	17.657 	1.68211e-16 	5.3498e-17
0 	0.000922843 	0.00276853 	17.0707 	1.68375e-16 	3.8715e-17
0 	0.000925422 	0.00277626 	16.5323 	1.6817e-16 	3.17659e-17
0 	0.000926778 	0.00278033 	16.2452 	1.68158e-16 	3.01756e-17
0 	0.00092827 	0.00278481 	15.9044 	1.66568e-16 	3.08888e-17
0 	0.000930859 	0.00279258 	15.311 	1.61929e-16 	3.17376e-17
0 	0.000933224 	0.00279967 	14.7624 	1.55533e-16 	3.16621e-17
0 	0.000934459 	0.00280338 	14.473 	1.51274e-16 	3.09703e-17
0 	0.000935799 	0.0028074 	14.1354 	1.45313e-16 	3.02933e-17
0 	0.000938156 	0.00281447 	13.5409 	1.3532e-16 	2.93641e-17
0 	0.000940323 	0.00282097 	12.9887 	1.26629e-16 	2.77392e-17
0 	0.000941447 	0.00282434 	12.7003 	1.2243e-16 	2.65898e-17
0 	0.000942654 	0.00282796 	12.3706 	1.18159e-16 	2.54658e-17
0 	0.000944799 	0.0028344 	11.785 	1.10716e-16 	2.50389e-17
0 	0.00094678 	0.00284034 	11.2399 	1.03045e-16 	2.72949e-17
0 	0.000947804 	0.00284341 	10.9579 	9.86572e-17 	2.90054e-17
0 	0.000948893 	0.00284668 	10.6426 	9.2955e-17 	2.97994e-17
0 	0.000950846 	0.00285254 	10.08 	8.36973e-17 	3.12485e-17
0 	0.000952655 	0.00285796 	9.55637 	7.72995e-17 	3.18789e-17
0 	0.000953586 	0.00286076 	9.28771 	7.46209e-17 	3.26318e-17
0 	0.000954573 	0.00286372 	8.99438 	7.15553e-17 	3.32271e-17
0 	0.000956351 	0.00286905 	8.47033 	6.58184e-17 	3.44382e-17
0 	0.000957999 	0.002874 	7.98384 	6.0224e-17 	3.54383e-17
0 	0.000958847 	0.00287654 	7.73593 	5.7171e-17 	3.57074e-17
0 	0.000959744 	0.00287923 	7.47076 	5.38684e-17 	3.52313e-17
0 	0.000961362 	0.00288409 	6.99812 	4.88796e-17 	3.45764e-17
0 	0.000962861 	0.00288858 	6.56153 	4.5034e-17 	3.44947e-17
0 	0.000963632 	0.0028909 	6.34003 	4.3309e-17 	3.46837e-17
0 	0.000964451 	0.00289335 	6.10634 	4.11837e-17 	3.46483e-17
0 	0.000965924 	0.00289777 	5.6922 	3.75694e-17 	3.45051e-17
0 	0.000967283 	0.00290185 	5.31238 	3.44192e-17 	3.41592e-17
0 	0.000967986 	0.00290396 	5.11996 	3.29866e-17 	3.39414e-17
0 	0.000968735 	0.00290621 	4.918 	3.16956e-17 	3.33685e-17
0 	0.000970077 	0.00291023 	4.56345 	2.95554e-17 	3.18687e-17
0 	0.000971307 	0.00291392 	4.24135 	2.77305e-17 	3.00454e-17
0 	0.000971946 	0.00291584 	4.07786 	2.68322e-17 	2.90707e-17
0 	0.000972636 	0.00291791 	3.90575 	2.60584e-17 	2.81822e-17
0 	0.000973857 	0.00292157 	3.60763 	2.48691e-17 	2.66986e-17
0 	0.000974967 	0.0029249 	3.34004 	2.38671e-17 	2.53676e-17
0 	0.000975549 	0.00292665 	3.2035 	2.33899e-17 	2.47104e-17
0 	0.000976187 	0.00292856 	3.05828 	2.27781e-17 	2.39335e-17
0 	0.000977298 	0.0029319 	2.81118 	2.15795e-17 	2.23864e-17
0 	0.000978297 	0.00293489 	2.59267 	2.04047e-17 	2.0732e-17
0 	0.000978827 	0.00293648 	2.48018 	1.97908e-17 	1.97982e-17
0 	0.000979419 	0.00293826 	2.35857 	1.92139e-17 	1.88069e-17
0 	0.000980431 	0.00294129 	2.15626 	1.82629e-17 	1.72364e-17
0 	0.000981326 	0.00294398 	1.98061 	1.73906e-17 	1.59371e-17
0 	0.000981808 	0.00294543 	1.88905 	1.69035e-17 	1.52524e-17
0 	0.000982362 	0.00294709 	1.78786 	1.63173e-17 	1.44528e-17
0 	0.000983283 	0.00294985 	1.62409 	1.5331e-17 	1.31785e-17
0 	0.000984082 	0.00295224 	1.48507 	1.44265e-17 	1.21216e-17
0 	0.000984521 	0.00295356 	1.41141 	1.39095e-17 	1.15485e-17
0 	0.000985041 	0.00295512 	1.32774 	1.32204e-17 	1.0842e-17
0 	0.000985879 	0.00295764 	1.19674 	1.20921e-17 	9.72729e-18
0 	0.000986588 	0.00295977 	1.08854 	1.11204e-17 	8.82843e-18
0 	0.000986988 	0.00296097 	1.03002 	1.05816e-17 	8.3481e-18
0 	0.000987479 	0.00296244 	0.961376 	9.90427e-18 	7.788e-18
0 	0.000988243 	0.00296473 	0.857965 	8.85225e-18 	6.96432e-18
0 	0.000988869 	0.00296661 	0.775368 	7.98131e-18 	6.31239e-18
0 	0.000989233 	0.0029677 	0.729563 	7.47706e-18 	5.93884e-18
0 	0.000989699 	0.0029691 	0.673825 	6.82853e-18 	5.42842e-18
0 	0.000990394 	0.00297118 	0.593508 	5.88764e-18 	4.63983e-18
0 	0.000990944 	0.00297283 	0.531938 	5.16856e-18 	4.00483e-18
0 	0.000991275 	0.00297383 	0.496754 	4.75875e-18 	3.63291e-18
0 	0.00099172 	0.00297516 	0.452173 	4.2236e-18 	3.15767e-18
0 	0.000992353 	0.00297706 	0.391105 	3.48366e-18 	2.50765e-18
0 	0.000992831 	0.00297849 	0.346599 	2.94437e-18 	2.02881e-18
0 	0.000993133 	0.0029794 	0.320256 	2.63485e-18 	1.74167e-18
0 	0.00099356 	0.00298068 	0.285411 	2.242e-18 	1.36371e-18
0 	0.000994135 	0.00298241 	0.240338 	1.75216e-18 	8.7865e-19
0 	0.000994548 	0.00298364 	0.209498 	1.43486e-18 	5.56473e-19
0 	0.000994823 	0.00298447 	0.190498 	1.25654e-18 	3.71644e-19
0 	0.000995234 	0.0029857 	0.164258 	1.03777e-18 	1.4714e-19
0 	0.000995758 	0.00298728 	0.132455 	8.05379e-19 	-8.07084e-20
0 	0.00099611 	0.00298833 	0.112387 	6.80468e-19 	-1.93027e-19
0 	0.00099636 	0.00298908 	0.0994861 	6.22389e-19 	-2.37038e-19
0 	0.000996759 	0.00299028 	0.0809798 	5.55441e-19 	-2.66447e-19
0 	0.000997236 	0.00299171 	0.0602011 	4.94063e-19 	-2.59459e-19
0 	0.000997531 	0.00299259 	0.0484544 	4.62185e-19 	-2.3383e-19
0 	0.000997759 	0.00299328 	0.0406384 	4.4292e-19 	-1.99587e-19
0 	0.000998147 	0.00299444 	0.0292625 	3.98092e-19 	-1.42328e-19
0 	0.000998581 	0.00299574 	0.0177135 	3.22339e-19 	-7.83193e-20
0 	0.000998824 	0.00299647 	0.0122421 	2.67647e-19 	-4.75874e-20
0 	0.000999031 	0.00299709 	0.00871328 	2.08401e-19 	-2.99304e-20
0 	0.00099941 	0.00299823 	0.0042298 	1.16361e-19 	-1.0949e-20
