0 	1.56041e-05 	4.68122e-05 	1.3056e-14 	7.09242 	21343.6
0 	4.63311e-05 	0.000138993 	1.50254e-14 	7.15367 	21594.6
0 	7.61109e-05 	0.000228333 	1.47091e-14 	7.21473 	21840.9
0 	9.13596e-05 	0.000274079 	1.36118e-14 	7.24637 	21967.7
0 	0.000105564 	0.000316693 	1.15204e-14 	7.32828 	22311.8
0 	0.000132944 	0.000398833 	8.11664e-15 	7.48963 	22990.9
0 	0.000160054 	0.000480161 	5.30621e-15 	7.65055 	23664
0 	0.00017447 	0.00052341 	4.61981e-15 	7.73577 	24020.4
0 	0.000187401 	0.000562203 	3.96523e-15 	7.85038 	24529.1
0 	0.000211791 	0.000635372 	2.83456e-15 	8.07019 	25512.4
0 	0.000236469 	0.000709407 	1.87689e-15 	8.29292 	26504.5
0 	0.000250076 	0.000750228 	1.38765e-15 	8.41438 	27046.9
0 	0.000261848 	0.000785543 	9.39692e-16 	8.5457 	27680.2
0 	0.000283567 	0.000850701 	2.21794e-16 	8.7904 	28878.8
0 	0.000306032 	0.000918097 	3.42947e-16 	9.04284 	30111.9
0 	0.000318856 	0.000956567 	7.03013e-16 	9.18463 	30808
0 	0.000329572 	0.000988715 	2.61801e-16 	9.32021 	31538.7
0 	0.000348907 	0.00104672 	-5.9095e-16 	9.56559 	32894.7
0 	0.000369358 	0.00110807 	-1.14147e-15 	9.82359 	34319.1
0 	0.000381425 	0.00114427 	-9.32603e-16 	9.97286 	35149.5
0 	0.00039118 	0.00117354 	-1.3816e-15 	10.104 	35962.4
0 	0.000408388 	0.00122516 	-1.72692e-15 	10.3347 	37444.6
0 	0.000427005 	0.00128102 	-6.92591e-16 	10.5822 	39036.5
0 	0.000438344 	0.00131503 	5.6929e-16 	10.7297 	39994.8
0 	0.000447225 	0.00134167 	7.85258e-16 	10.8511 	40885.4
0 	0.000462535 	0.00138761 	2.12027e-16 	11.0587 	42483.3
0 	0.000479483 	0.00143845 	-1.46079e-15 	11.2863 	44240
0 	0.000490125 	0.00147037 	-2.29729e-15 	11.426 	45331.2
0 	0.000498209 	0.00149463 	-2.02716e-15 	11.5349 	46302.6
0 	0.000511827 	0.00153548 	-1.35389e-15 	11.7158 	48019.1
0 	0.000527255 	0.00158177 	-5.94725e-16 	11.9187 	49951.8
0 	0.00053723 	0.00161169 	-4.28026e-16 	12.0467 	51189.2
0 	0.000544589 	0.00163377 	-1.61193e-16 	12.1419 	52249.4
0 	0.000556699 	0.0016701 	2.33008e-16 	12.2951 	54095.4
0 	0.000570743 	0.00171223 	1.63889e-16 	12.4708 	56224
0 	0.000580081 	0.00174024 	7.25051e-18 	12.5847 	57627.1
0 	0.000586781 	0.00176034 	1.36057e-17 	12.6654 	58787
0 	0.000597547 	0.00179264 	3.57056e-16 	12.7913 	60777.2
0 	0.000610332 	0.001831 	1.14767e-15 	12.9385 	63127.7
0 	0.000619064 	0.00185719 	2.30078e-15 	13.0364 	64720.3
0 	0.000625163 	0.00187549 	3.60793e-15 	13.1025 	65992.8
0 	0.000634732 	0.0019042 	5.40553e-15 	13.2015 	68144.6
0 	0.000646371 	0.00193911 	7.22615e-15 	13.3195 	70747.2
0 	0.000654527 	0.00196358 	8.2274e-15 	13.3997 	72557.6
0 	0.000660079 	0.00198024 	9.05052e-15 	13.4509 	73957.6
0 	0.000668583 	0.00200575 	1.06839e-14 	13.5237 	76290.9
0 	0.000679178 	0.00203753 	1.28991e-14 	13.6116 	79180.9
0 	0.000686788 	0.00206036 	1.48084e-14 	13.6722 	81242
0 	0.000691842 	0.00207553 	1.62952e-14 	13.7082 	82786.4
0 	0.000699399 	0.0020982 	1.88691e-14 	13.7553 	85323.7
0 	0.000709044 	0.00212713 	2.24011e-14 	13.8123 	88541.9
0 	0.000716136 	0.00214841 	2.49893e-14 	13.8514 	90892.3
0 	0.000720737 	0.00216221 	2.68508e-14 	13.8718 	92600.7
0 	0.000727451 	0.00218235 	2.95062e-14 	13.8938 	95367.7
0 	0.000736231 	0.00220869 	3.2744e-14 	13.9186 	98961.6
0 	0.000742835 	0.0022285 	3.48875e-14 	13.9342 	101646
0 	0.000747023 	0.00224107 	3.61057e-14 	13.9384 	103540
0 	0.000752988 	0.00225896 	3.75457e-14 	13.9353 	106566
0 	0.00076098 	0.00228294 	3.9127e-14 	13.9265 	110589
0 	0.000767123 	0.00230137 	4.01226e-14 	13.9161 	113658
0 	0.000770935 	0.00231281 	4.05267e-14 	13.9033 	115763
0 	0.000776234 	0.0023287 	4.1235e-14 	13.875 	119078
0 	0.000783511 	0.00235053 	4.26486e-14 	13.8306 	123590
0 	0.000789217 	0.00236765 	4.38488e-14 	13.7914 	127100
0 	0.000792688 	0.00237806 	4.44122e-14 	13.7606 	129442
0 	0.000797397 	0.00239219 	4.52035e-14 	13.707 	133083
0 	0.00080402 	0.00241206 	4.67296e-14 	13.6254 	138153
0 	0.000809318 	0.00242795 	4.83267e-14 	13.5551 	142174
0 	0.000812477 	0.00243743 	4.93631e-14 	13.506 	144786
0 	0.000816661 	0.00244998 	5.0621e-14 	13.4275 	148795
0 	0.000822691 	0.00246807 	5.23054e-14 	13.3079 	154509
0 	0.000827603 	0.00248281 	5.35909e-14 	13.2051 	159123
0 	0.000830479 	0.00249144 	5.43331e-14 	13.1374 	162046
0 	0.000834199 	0.0025026 	5.52217e-14 	13.035 	166478
0 	0.000839688 	0.00251906 	5.66127e-14 	12.8772 	172941
0 	0.000844237 	0.00253271 	5.78455e-14 	12.7407 	178250
0 	0.000846855 	0.00254057 	5.85962e-14 	12.6545 	181532
0 	0.000850163 	0.00255049 	5.94811e-14 	12.5293 	186450
0 	0.00085516 	0.00256548 	6.08311e-14 	12.3332 	193789
0 	0.00085937 	0.00257811 	6.1964e-14 	12.1621 	199914
0 	0.000861753 	0.00258526 	6.26427e-14 	12.0576 	203612
0 	0.000864696 	0.00259409 	6.34511e-14 	11.9103 	209092
0 	0.000869245 	0.00260774 	6.45839e-14 	11.6759 	217451
0 	0.000873136 	0.00261941 	6.54704e-14 	11.4692 	224532
0 	0.000875306 	0.00262592 	6.59884e-14 	11.3464 	228714
0 	0.000877926 	0.00263378 	6.67971e-14 	11.1778 	234843
0 	0.000882067 	0.0026462 	6.80371e-14 	10.9048 	244394
0 	0.000885659 	0.00265698 	6.89956e-14 	10.6616 	252597
0 	0.000887634 	0.0026629 	6.94472e-14 	10.5205 	257339
0 	0.00088997 	0.00266991 	6.99826e-14 	10.3315 	264215
0 	0.000893739 	0.00268122 	7.08842e-14 	10.0201 	275156
0 	0.000897052 	0.00269116 	7.16748e-14 	9.73996 	284673
0 	0.00089885 	0.00269655 	7.20815e-14 	9.5809 	290067
0 	0.000900933 	0.0027028 	7.24959e-14 	9.37285 	297808
0 	0.000904365 	0.00271309 	7.31875e-14 	9.0247 	310369
0 	0.000907416 	0.00272225 	7.38162e-14 	8.70881 	321422
0 	0.000909053 	0.00272716 	7.41695e-14 	8.53306 	327575
0 	0.000910914 	0.00273274 	7.45337e-14 	8.30885 	336323
0 	0.000914038 	0.00274211 	7.51271e-14 	7.92795 	350793
0 	0.000916844 	0.00275053 	7.56774e-14 	7.57986 	363658
0 	0.000918335 	0.002755 	7.59816e-14 	7.38984 	370708
0 	0.000919999 	0.00276 	7.63208e-14 	7.15396 	380663
0 	0.000922843 	0.00276853 	7.68894e-14 	6.74822 	397409
0 	0.000925422 	0.00277626 	7.74048e-14 	6.37563 	412418
0 	0.000926778 	0.00278033 	7.76614e-14 	6.176 	420529
0 	0.00092827 	0.00278481 	7.78817e-14 	5.93612 	431939
0 	0.000930859 	0.00279258 	7.82279e-14 	5.51943 	451427
0 	0.000933224 	0.00279967 	7.85237e-14 	5.13573 	469016
0 	0.000934459 	0.00280338 	7.86685e-14 	4.93396 	478422
0 	0.000935799 	0.0028074 	7.88391e-14 	4.70125 	491702
0 	0.000938156 	0.00281447 	7.91177e-14 	4.29448 	514713
0 	0.000940323 	0.00282097 	7.93432e-14 	3.91993 	535620
0 	0.000941447 	0.00282434 	7.94537e-14 	3.72671 	546734
0 	0.000942654 	0.00282796 	7.95702e-14 	3.51523 	562651
0 	0.000944799 	0.0028344 	7.97772e-14 	3.14484 	590612
0 	0.00094678 	0.00284034 	7.99584e-14 	2.80492 	616184
0 	0.000947804 	0.00284341 	8.00404e-14 	2.63301 	629766
0 	0.000948893 	0.00284668 	8.01133e-14 	2.45639 	649689
0 	0.000950846 	0.00285254 	8.02501e-14 	2.14788 	685123
0 	0.000952655 	0.00285796 	8.03823e-14 	1.86672 	717732
0 	0.000953586 	0.00286076 	8.04445e-14 	1.72738 	735113
0 	0.000954573 	0.00286372 	8.05043e-14 	1.59368 	761277
0 	0.000956351 	0.00286905 	8.06101e-14 	1.36178 	808258
0 	0.000957999 	0.002874 	8.07044e-14 	1.1526 	851698
0 	0.000958847 	0.00287654 	8.07493e-14 	1.05095 	874984
0 	0.000959744 	0.00287923 	8.07962e-14 	0.959383 	910706
0 	0.000961362 	0.00288409 	8.08872e-14 	0.802261 	975157
0 	0.000962861 	0.00288858 	8.09814e-14 	0.66238 	1.03484e+06
0 	0.000963632 	0.0028909 	8.1026e-14 	0.595575 	1.06706e+06
0 	0.000964451 	0.00289335 	8.10723e-14 	0.538304 	1.11698e+06
0 	0.000965924 	0.00289777 	8.11635e-14 	0.441384 	1.20698e+06
0 	0.000967283 	0.00290185 	8.12573e-14 	0.356425 	1.29015e+06
0 	0.000967986 	0.00290396 	8.1307e-14 	0.316437 	1.33544e+06
0 	0.000968735 	0.00290621 	8.1352e-14 	0.283256 	1.40611e+06
0 	0.000970077 	0.00291023 	8.14319e-14 	0.22806 	1.53273e+06
0 	0.000971307 	0.00291392 	8.15128e-14 	0.18054 	1.64908e+06
0 	0.000971946 	0.00291584 	8.1558e-14 	0.158435 	1.71326e+06
0 	0.000972636 	0.00291791 	8.16052e-14 	0.140415 	1.8144e+06
0 	0.000973857 	0.00292157 	8.16891e-14 	0.11106 	1.99362e+06
0 	0.000974967 	0.0029249 	8.17649e-14 	0.0863133 	2.1568e+06
0 	0.000975549 	0.00292665 	8.18051e-14 	0.0749087 	2.24857e+06
0 	0.000976187 	0.00292856 	8.18424e-14 	0.0656727 	2.39553e+06
0 	0.000977298 	0.0029319 	8.19055e-14 	0.0510029 	2.65181e+06
0 	0.000978297 	0.00293489 	8.19591e-14 	0.0389327 	2.88229e+06
0 	0.000978827 	0.00293648 	8.19877e-14 	0.0334112 	3.01553e+06
0 	0.000979419 	0.00293826 	8.20193e-14 	0.0289333 	3.23386e+06
0 	0.000980431 	0.00294129 	8.20715e-14 	0.022032 	3.6067e+06
0 	0.000981326 	0.00294398 	8.21142e-14 	0.0165109 	3.93672e+06
0 	0.000981808 	0.00294543 	8.21355e-14 	0.0140006 	4.1349e+06
0 	0.000982362 	0.00294709 	8.21593e-14 	0.0119499 	4.4693e+06
0 	0.000983283 	0.00294985 	8.21982e-14 	0.00889927 	5.0257e+06
0 	0.000984082 	0.00295224 	8.22297e-14 	0.00653708 	5.50845e+06
0 	0.000984521 	0.00295356 	8.22462e-14 	0.00546927 	5.81359e+06
0 	0.000985041 	0.00295512 	8.22637e-14 	0.00458653 	6.34669e+06
0 	0.000985879 	0.00295764 	8.22907e-14 	0.00332673 	7.20638e+06
0 	0.000986588 	0.00295977 	8.23122e-14 	0.00238797 	7.93413e+06
0 	0.000986988 	0.00296097 	8.23234e-14 	0.00196657 	8.4267e+06
0 	0.000987479 	0.00296244 	8.23354e-14 	0.00161298 	9.32169e+06
0 	0.000988243 	0.00296473 	8.23526e-14 	0.00113211 	1.07131e+07
0 	0.000988869 	0.00296661 	8.23641e-14 	0.000789959 	1.1856e+07
0 	0.000989233 	0.0029677 	8.23691e-14 	0.000638002 	1.27039e+07
0 	0.000989699 	0.0029691 	8.23736e-14 	0.000508414 	1.43117e+07
0 	0.000990394 	0.00297118 	8.23788e-14 	0.000341823 	1.67086e+07
0 	0.000990944 	0.00297283 	8.23819e-14 	0.000229842 	1.86063e+07
0 	0.000991275 	0.00297383 	8.23827e-14 	0.000181031 	2.02028e+07
0 	0.00099172 	0.00297516 	8.23819e-14 	0.000138777 	2.33675e+07
0 	0.000992353 	0.00297706 	8.23788e-14 	8.79341e-05 	2.78678e+07
0 	0.000992831 	0.00297849 	8.23749e-14 	5.61381e-05 	3.12757e+07
0 	0.000993133 	0.0029794 	8.23716e-14 	4.27497e-05 	3.46999e+07
0 	0.00099356 	0.00298068 	8.23656e-14 	3.10467e-05 	4.17932e+07
0 	0.000994135 	0.00298241 	8.23565e-14 	1.8039e-05 	5.13658e+07
0 	0.000994548 	0.00298364 	8.23494e-14 	1.06443e-05 	5.82332e+07
0 	0.000994823 	0.00298447 	8.23445e-14 	7.72945e-06 	6.72306e+07
0 	0.000995234 	0.0029857 	8.23373e-14 	5.18751e-06 	8.66179e+07
0 	0.000995758 	0.00298728 	8.23284e-14 	2.62983e-06 	1.11327e+08
0 	0.00099611 	0.00298833 	8.23228e-14 	1.35863e-06 	1.27925e+08
0 	0.00099636 	0.00298908 	8.23194e-14 	9.19223e-07 	1.6136e+08
0 	0.000996759 	0.00299028 	8.23151e-14 	5.45876e-07 	2.35355e+08
0 	0.000997236 	0.00299171 	8.2311e-14 	2.18374e-07 	3.2403e+08
0 	0.000997531 	0.00299259 	8.23091e-14 	8.68046e-08 	3.79012e+08
0 	0.000997759 	0.00299328 	8.23084e-14 	5.24471e-08 	6.20111e+08
0 	0.000998147 	0.00299444 	8.23077e-14 	2.51374e-08 	1.15322e+09
0 	0.000998581 	0.00299574 	8.23074e-14 	6.18878e-09 	1.7532e+09
0 	0.000998824 	0.00299647 	8.23074e-14 	1.24443e-09 	2.09335e+09
0 	0.000999031 	0.00299709 	8.23073e-14 	6.15627e-10 	2.38916e+09
0 	0.00099941 	0.00299823 	8.23073e-14 	1.65395e-10 	2.89193e+09
