8.00000000000001 	0.447826862407423 	4.0766001685455e-17 	0.300289590244294 	-0.0161323667702187 	1.72186790164072e-20
8.00000000000001 	0.469707653359621 	3.64291929955129e-17 	0.313333344245072 	-0.0167126715358677 	2.3640431139799e-21
8.00000000000001 	0.492390001760931 	3.81639164714898e-17 	0.327182106140827 	-0.0172738442292494 	-4.06023916797468e-21
8 	0.515903271008025 	3.46944695195361e-17 	0.341895308119199 	-0.0178098346573621 	-1.71526584796126e-21
8 	0.540277900164783 	2.60208521396521e-17 	0.357535149160547 	-0.0183136950100845 	-1.85766977382013e-20
8 	0.565545443367138 	1.73472347597681e-17 	0.374166242542645 	-0.0187774641014404 	-1.17250000356753e-17
8 	0.59173861067142 	2.08166817117217e-17 	0.391855090162206 	-0.0191920509659734 	-1.95271642799563e-17
8 	0.618891310399116 	3.07913416985883e-17 	0.410669339407339 	-0.0195471427938054 	-3.70857206989245e-16
8.00000000000001 	0.647038693032829 	3.16587034365767e-17 	0.430718892715838 	-0.0198022172438997 	3.94822567959645e-16
8.00000000000001 	0.676217196720269 	3.38271077815477e-17 	0.452046504435671 	-0.0199618132761059 	1.30041475532916e-17
8.00000000000001 	0.706464594445211 	2.77555756156289e-17 	0.474712660360943 	-0.0200134152707968 	8.76933434184226e-20
8.00000000000001 	0.737820042926439 	2.94902990916057e-17 	0.498838651412084 	-0.0199545963081281 	4.44191576603822e-21
8.00000000000001 	0.77032413330801 	4.5102810375397e-17 	0.524872900369316 	-0.0197960776902111 	-2.95524216604888e-20
8.00000000000001 	0.804018943706462 	4.5102810375397e-17 	0.55333711058933 	-0.0195442025452517 	-4.46893598672737e-20
8.00000000000001 	0.832828548937075 	4.16333634234434e-17 	0.578845312134396 	-0.0192614033478537 	-6.1702401549097e-20
8.00000000000001 	0.850607259338146 	3.64291929955129e-17 	0.595002225443464 	-0.0190573401678923 	-7.88085977636262e-20
8.00000000000001 	0.875156800710941 	2.08166817117217e-17 	0.617853945754354 	-0.0187183641375268 	-7.47290108570039e-20
8.00000000000001 	0.912691938712297 	1.56125112837913e-17 	0.653540466468656 	-0.0180992494625209 	8.74608775010194e-22
8 	0.951602098737957 	1.56125112837913e-17 	0.691141426198813 	-0.0173186428929915 	1.16815560016299e-19
8 	0.991937651871334 	1.56125112837913e-17 	0.730226629674731 	-0.0163768020268836 	1.45995159292925e-19
8.00000000000001 	1.03375081443614 	2.08166817117217e-17 	0.770327698397756 	-0.0152845317870944 	7.77261103318825e-21
8 	1.07709571559294 	1.73472347597681e-17 	0.810918750558887 	-0.0140366733010435 	-1.78178001928864e-21
8 	1.12202846741196 	1.38777878078145e-17 	0.851309165118609 	-0.0126558562923039 	-1.34307368514703e-19
8 	1.16860723751287 	1.73472347597681e-17 	0.890800392431155 	-0.0112260706341989 	1.04481953114307e-19
8 	1.2168923243656 	2.08166817117217e-17 	0.928773554273375 	-0.00980516123349733 	2.28256456010399e-20
8 	1.25482844232423 	2.08166817117217e-17 	0.956533647499306 	-0.00874630120043596 	-8.53118800379067e-21
8 	1.28030555781156 	2.42861286636753e-17 	0.974191017826301 	-0.00805963977329138 	-1.28924295816435e-19
8 	1.31883376767274 	2.60208521396521e-17 	0.999501451237682 	-0.00706333331813615 	-1.49174473616704e-19
8 	1.37262209225426 	1.90819582357449e-17 	1.03147622520726 	-0.00575902557034006 	-2.48803464002913e-19
8 	1.41220272459525 	1.38777878078145e-17 	1.05437467956229 	-0.00464165926976167 	-2.63643181022575e-20
8 	1.43617694926587 	6.93889390390723e-18 	1.06817882343748 	-0.00394574675212881 	0
8 	1.45930396367274 	3.46944695195361e-18 	1.08028507418328 	-0.00331989251810671 	0
8 	1.48161370685419 	3.46944695195361e-18 	1.09146813569743 	-0.00272058804403829 	0
8 	1.50313505985141 	-3.46944695195361e-18 	1.10177514331817 	-0.00214833791650159 	0
8 	1.52389588309638 	-6.93889390390723e-18 	1.11125082848228 	-0.00160461353849582 	0
8 	1.54392305247858 	-6.93889390390723e-18 	1.1199370149585 	-0.00108947973495499 	0
8 	1.56324249413704 	-1.04083408558608e-17 	1.12787235724234 	-0.000602458951457907 	0
8 	1.58187921802306 	-1.38777878078145e-17 	1.13509213964791 	-0.000142879691285569 	0
8 	1.59985735027679 	-1.04083408558608e-17 	1.14162813689261 	0.000290059933236174 	0
8 	1.61720016445966 	-6.93889390390723e-18 	1.14750856933547 	0.000697253974115177 	0
8 	1.63393011168312 	-3.46944695195361e-18 	1.15275808795007 	0.00107964578849703 	0
8 	1.65006884967273 	0 	1.15739775631645 	0.00143819161239533 	0
8 	1.66563727080512 	0 	1.16144505042682 	0.00177383484984465 	0
8 	1.68065552915415 	0 	1.16491386909385 	0.00208748771508798 	0
8 	1.69514306658136 	0 	1.16781455004913 	0.0023800173015586 	0
8 	1.70911863790442 	-3.46944695195361e-18 	1.1701538958471 	0.00265223507976018 	0
8 	1.72260033517611 	-6.93889390390723e-18 	1.17193521862649 	0.00290489014942343 	0
8 	1.73560561110537 	-1.04083408558608e-17 	1.1731584040174 	0.00313866435734407 	0
8 	1.74815130165068 	-1.38777878078145e-17 	1.17381999882159 	0.00335416944983619 	0
8 	1.76025364781502 	-1.38777878078145e-17 	1.17391333855963 	0.00355194534844615 	0
8 	1.77192831667064 	-1.38777878078145e-17 	1.17342873205786 	0.0037324594954469 	0
8 	1.78319042164083 	-1.38777878078145e-17 	1.17235372035831 	0.00389610743492368 	0
8 	1.79405454206499 	-1.38777878078145e-17 	1.17067342626164 	0.00404321487108049 	0
8 	1.80453474207227 	-1.38777878078145e-17 	1.16837100772442 	0.00417404130432663 	0
8 	1.81464458878828 	-1.38777878078145e-17 	1.1654282226032 	0.00428878524618753 	0
8 	1.8243971698984 	-1.38777878078145e-17 	1.16182610299348 	0.00438759114882582 	0
8 	1.83380511059041 	-1.38777878078145e-17 	1.15754572349761 	0.00447055826264395 	0
8 	1.84288058989839 	-1.38777878078145e-17 	1.15256903032043 	0.0045377515032661 	0
8 	1.85163535646909 	-1.38777878078145e-17 	1.14687967958228 	0.00458921416648704 	0
8 	1.86008074377113 	-1.38777878078145e-17 	1.14046381697771 	0.00462498206693372 	0
8 	1.8682276847667 	-1.38777878078145e-17 	1.13331072048613 	0.00464509845950049 	0
8 	1.8760867260648 	-1.38777878078145e-17 	1.12541322672292 	0.00464962895817639 	4.18796197503696e-16
8 	1.88366804157438 	-1.38777878078145e-17 	1.11676787123985 	0.00463867558636263 	4.02137604116264e-16
8 	1.8909814456749 	-1.38777878078145e-17 	1.10737469310912 	0.00461238907431093 	-4.52078465505736e-16
8 	1.89803640592158 	-1.38777878078145e-17 	1.09723668113009 	0.00457097862988447 	-4.35419872118297e-16
8 	1.90484205530155 	-1.38777878078145e-17 	1.08635886756363 	0.0045147186373625 	0
8 	1.91140720405698 	-1.38777878078145e-17 	1.07474709938138 	0.0044439520382983 	0
8 	1.91774035109035 	-1.38777878078145e-17 	1.06240653151006 	0.00435909046979805 	0
8 	1.9238496949667 	-1.38777878078145e-17 	1.04933988848282 	0.0042606115204394 	0
8 	1.92974314452705 	-1.38777878078145e-17 	1.03554552971456 	0.00414905367853425 	0
8 	1.9354283291268 	-1.38777878078145e-17 	1.02101533050778 	0.00402500967998019 	0
8 	1.9409126085123 	-1.38777878078145e-17 	1.00573235773565 	0.00388911901885043 	0
8 	1.94620308234835 	-1.38777878078145e-17 	0.989668277245552 	0.00374206038100467 	0
8 	1.95130659940914 	-1.04083408558608e-17 	0.972780379083258 	0.00358454472345441 	0
8 	1.95622976644424 	-6.93889390390723e-18 	0.955008043977054 	0.00341730967654246 	0
8 	1.96097895673142 	-6.93889390390723e-18 	0.936268394362148 	0.00324111591633775 	0
8 	1.96556031832711 	-6.93889390390723e-18 	0.916450765798755 	0.00305674614484958 	0
8 	1.96997978202542 	-6.93889390390723e-18 	0.895409487177696 	0.0028650074007982 	0
8 	1.97424306903576 	-6.93889390390723e-18 	0.872954249777088 	0.00266673755607267 	0
8 	1.9783556983893 	-6.93889390390723e-18 	0.848837051775004 	0.00246281706937515 	0
8 	1.98232299408358 	-6.93889390390723e-18 	0.822734311249911 	0.00225418739349001 	0
8 	1.9861500919747 	-6.93889390390723e-18 	0.79422226558755 	0.00204187782820031 	0
8 	1.98984194642589 	-6.93889390390723e-18 	0.762743393725486 	0.00182704330174905 	0
8 	1.99340333672126 	-6.93889390390723e-18 	0.727562020050291 	0.00161101705911276 	0
8 	1.99683887325273 	-1.04083408558608e-17 	0.687710907174771 	0.00139538277640809 	0
8 	2.00015300348845 	-1.38777878078145e-17 	0.641945125102138 	0.00118205744938331 	0
8 	2.00335001773022 	-1.04083408558608e-17 	0.588765527009629 	0.000973338078996343 	0
8 	2.00643405466757 	-6.93889390390723e-18 	0.526686691551397 	0.000771917423841714 	0
8 	2.00940910673542 	-1.04083408558608e-17 	0.45504482666647 	0.000581276193506613 	0
8 	2.01227902528252 	-1.38777878078145e-17 	0.375241444523045 	0.000406765137154291 	0
8 	2.01504752555717 	-1.38777878078145e-17 	0.290918515540608 	0.000255604498374223 	0
8 	2.01771819151684 	-1.38777878078145e-17 	0.205894676593756 	0.000135017327033148 	0
8 	2.02029448046774 	-1.38777878078145e-17 	0.122273133506863 	5.1305670522685e-05 	0
8 	2.02277972754047 	-1.38777878078145e-17 	0.0405414469120394 	6.93970463876713e-06 	0
