8.00000000000001 	0.447826862407423 	4.0766001685455e-17 	0.648920884968292 	0.0711628362970742 	2.36578451727363 	0.0117050857705638 	0
8.00000000000001 	0.469707653359621 	3.64291929955129e-17 	0.648731360635175 	0.073070066262639 	2.37860201146412 	0.0125411546665881 	0
8.00000000000001 	0.492390001760931 	3.81639164714898e-17 	0.648529683125139 	0.0749824370039935 	2.39530514646747 	0.0134266301142096 	0
8 	0.515903271008025 	3.46944695195361e-17 	0.648313327619802 	0.0768923580228701 	2.41569481904291 	0.0143608316475387 	0
8 	0.540277900164783 	2.60208521396521e-17 	0.648079289331838 	0.0787904170892125 	2.43955164243479 	0.0153418791234919 	0
8 	0.565545443367138 	1.73472347597681e-17 	0.647824007026004 	0.0806651250198352 	2.46662730604845 	0.0163663703116848 	0
8 	0.59173861067142 	2.08166817117217e-17 	0.647543231830042 	0.0825026507113744 	2.496635811326 	0.0174289968935062 	0
8 	0.618891310399116 	3.07913416985883e-17 	0.647231882371047 	0.0842865586793431 	2.52924495936857 	0.0185220994375891 	0
8.00000000000001 	0.647038693032829 	3.16587034365767e-17 	0.646876665274879 	0.08599356783686 	2.56420840908383 	0.0196388331277369 	0
8.00000000000001 	0.676217196720269 	3.38271077815477e-17 	0.646478357235408 	0.087601567568646 	2.60091652092281 	0.0207641316963244 	0
8.00000000000001 	0.706464594445211 	2.77555756156289e-17 	0.646023765841518 	0.0890847409813334 	2.63882315023277 	0.0219126126182596 	0
8.00000000000001 	0.737820042926439 	2.94902990916057e-17 	0.645451811786954 	0.0904143500406549 	2.67738898079226 	0.0232879168173869 	0
8.00000000000001 	0.77032413330801 	4.5102810375397e-17 	0.644704108830551 	0.0915605022760257 	2.71607667589757 	0.0247340782911408 	0
8.00000000000001 	0.804018943706462 	4.5102810375397e-17 	0.643814337240252 	0.0924732385110609 	2.75334124993643 	0.0262831720281366 	0
8.00000000000001 	0.832828548937075 	4.16333634234434e-17 	0.643007509154842 	0.0929953980741204 	2.78096299578937 	0.0274667840031171 	0
8.00000000000001 	0.850607259338146 	3.64291929955129e-17 	0.642494662336053 	0.0932046243882396 	2.79578441917849 	0.028099502640672 	0
8.00000000000001 	0.875156800710941 	2.08166817117217e-17 	0.641759349711444 	0.0932707191044762 	2.81094401524954 	0.0287419358940813 	0
8.00000000000001 	0.912691938712297 	1.56125112837913e-17 	0.640572653491335 	0.0929765820386236 	2.82394780557301 	0.0293110387627799 	0
8 	0.951602098737957 	1.56125112837913e-17 	0.639240194415717 	0.0920945618355298 	2.82145960322368 	0.0293155579411172 	0
8 	0.991937651871334 	1.56125112837913e-17 	0.637739252834222 	0.0905685749898416 	2.80127887347124 	0.0287416966213277 	0
8.00000000000001 	1.03375081443614 	2.08166817117217e-17 	0.636054226078028 	0.0883718969698179 	2.76259957176068 	0.0276047780267831 	0
8 	1.07709571559294 	1.73472347597681e-17 	0.634152865167178 	0.085481778584367 	2.70458701443592 	0.0259183008129294 	0
8 	1.12202846741196 	1.38777878078145e-17 	0.632013028921072 	0.0819414193391467 	2.62862367362682 	0.0237447060866345 	0
8 	1.16860723751287 	1.73472347597681e-17 	0.629659771239341 	0.0778940685329088 	2.54032847201628 	0.0212401121085534 	0
8 	1.2168923243656 	2.08166817117217e-17 	0.627100250584284 	0.0734704637959947 	2.44563458783261 	0.0186089365600885 	0
8 	1.25482844232423 	2.08166817117217e-17 	0.625053794097382 	0.0699218626675501 	2.37263163399797 	0.0166521095377439 	0
8 	1.28030555781156 	2.42861286636753e-17 	0.623687543067859 	0.0675226414216417 	2.32510267938043 	0.0154070766039106 	0
8 	1.31883376767274 	2.60208521396521e-17 	0.621656994634632 	0.0638802404384208 	2.25668698985271 	0.013614513663773 	0
8 	1.37262209225426 	1.90819582357449e-17 	0.619005480276676 	0.0589337058084024 	2.17104639394664 	0.0112850834241324 	0
8 	1.41220272459525 	1.38777878078145e-17 	0.617135403510023 	0.0550710641654911 	2.11277595834523 	0.00968140061287023 	0
8 	1.43617694926587 	6.93889390390723e-18 	0.615844334562991 	0.0526244291672065 	2.07957157612861 	0.00863105016650292 	0
8 	1.45930396367274 	3.46944695195361e-18 	0.614700414216822 	0.0503889448031284 	2.05240569973997 	0.00771368290314472 	0
8 	1.48161370685419 	3.46944695195361e-18 	0.613612300475195 	0.0482437870101666 	2.02959821546966 	0.00685680479209708 	0
8 	1.50313505985141 	-3.46944695195361e-18 	0.612572092858845 	0.0461895050118403 	2.01125142720611 	0.00605602763611516 	0
8 	1.52389588309638 	-6.93889390390723e-18 	0.611580519745317 	0.0442256608832367 	1.99747229025194 	0.00531131461757808 	0
8 	1.54392305247858 	-6.93889390390723e-18 	0.610637399241004 	0.0423510446500378 	1.98837738265013 	0.00462189146431273 	0
8 	1.56324249413704 	-1.04083408558608e-17 	0.609741661561007 	0.0405638704831206 	1.98409832535723 	0.00398644016870393 	0
8 	1.58187921802306 	-1.38777878078145e-17 	0.608892048705558 	0.0388621772601229 	1.98478747329736 	0.00340333667995429 	0
8 	1.59985735027679 	-1.04083408558608e-17 	0.608087235844144 	0.0372437828880506 	1.99062370175549 	0.00287082356695177 	0
8 	1.61720016445966 	-6.93889390390723e-18 	0.60732582023119 	0.0357060846082071 	2.00181827955334 	0.00238713647439285 	0
8 	1.63393011168312 	-3.46944695195361e-18 	0.606606334938347 	0.0342464602651803 	2.0186209320149 	0.00195062604097029 	0
8 	1.65006884967273 	0 	0.605927273413111 	0.0328623460043132 	2.04132609304662 	0.00155983547791268 	0
8 	1.66563727080512 	0 	0.605287109210999 	0.0315512873441538 	2.07027938426718 	0.00121357333944409 	0
8 	1.68065552915415 	0 	0.604684311448147 	0.0303109919433783 	2.10588433288238 	0.000910972840902248 	0
8 	1.69514306658136 	0 	0.604117356011441 	0.0291393849874045 	2.14860927710746 	0.000651541844089372 	0
8 	1.70911863790442 	-3.46944695195361e-18 	0.603584733880072 	0.0280346056505065 	2.19899438527163 	0.000435204945465123 	0
8 	1.72260033517611 	-6.93889390390723e-18 	0.603084960046793 	0.026994963156627 	2.25765873395889 	0.000262336435500483 	0
8 	1.73560561110537 	-1.04083408558608e-17 	0.602616580681518 	0.0260189648804626 	2.32530721091492 	0.00013378368878138 	0
8 	1.74815130165068 	-1.38777878078145e-17 	0.602178176951396 	0.025105331089324 	2.40273680256292 	5.08788138537488e-05 	0
8 	1.76025364781502 	-1.38777878078145e-17 	0.601768367210138 	0.0242529797471074 	2.49084178075026 	1.54357049330172e-05 	0
8 	1.77192831667064 	-1.38777878078145e-17 	0.601385808295778 	0.0234609980883297 	2.59061717624592 	2.97270677163339e-05 	0
8 	1.78319042164083 	-1.38777878078145e-17 	0.601029196229449 	0.0227285971140012 	2.70315981784908 	9.64352163983959e-05 	0
8 	1.79405454206499 	-1.38777878078145e-17 	0.600697266356761 	0.0220550454727166 	2.82966620844616 	0.000218570858448707 	0
8 	1.80453474207227 	-1.38777878078145e-17 	0.600388792812964 	0.0214395941064256 	2.9714265513635 	0.000399355270804183 	0
8 	1.81464458878828 	-1.38777878078145e-17 	0.600102587615497 	0.0208813913825146 	3.12981440135308 	0.000642063881448633 	0
8 	1.8243971698984 	-1.38777878078145e-17 	0.599837499716007 	0.0203793868051248 	3.30627186550629 	0.000949833634273333 	0
8 	1.83380511059041 	-1.38777878078145e-17 	0.599592414188182 	0.0199322270385588 	3.5022910139091 	0.00132544278040061 	0
8 	1.84288058989839 	-1.38777878078145e-17 	0.599366251657465 	0.0195381508205123 	3.71939315319639 	0.00177107919336607 	0
8 	1.85163535646909 	-1.38777878078145e-17 	0.599157967986515 	0.0191948918082908 	3.95910880055005 	0.00228812047529029 	0
8 	1.86008074377113 	-1.38777878078145e-17 	0.598966554236208 	0.0188996003417986 	4.22296240193194 	0.00287695432293593 	0
8 	1.8682276847667 	-1.38777878078145e-17 	0.598791036935986 	0.0186487940796244 	4.51246685472802 	0.00353686883409255 	0
8 	1.8760867260648 	-1.38777878078145e-17 	0.598630478625621 	0.0184383452685235 	4.82913350407475 	0.00426603848836888 	0
8 	1.88366804157438 	-1.38777878078145e-17 	0.598483978554041 	0.01826350904715 	5.17450329649144 	0.00506162239996099 	0
8 	1.8909814456749 	-1.38777878078145e-17 	0.598350673405096 	0.0181189925043415 	5.55020415503655 	0.00591997843931953 	0
8 	1.89803640592158 	-1.38777878078145e-17 	0.598229737926173 	0.0179990590007272 	5.95803856154506 	0.00683698268885612 	0
8 	1.90484205530155 	-1.38777878078145e-17 	0.598120385353977 	0.0178976574872782 	6.40010417481032 	0.00780843164882088 	0
8 	1.91140720405698 	-1.38777878078145e-17 	0.598021867556679 	0.0178085632073006 	6.87894959355689 	0.00883049738019092 	0
8 	1.91774035109035 	-1.38777878078145e-17 	0.597933474834793 	0.0177255148252371 	7.39776762555715 	0.0099002047437125 	0
8 	1.9238496949667 	-1.38777878078145e-17 	0.597854535346138 	0.017642333690437 	7.96063011491406 	0.0110159047296074 	0
8 	1.92974314452705 	-1.38777878078145e-17 	0.597784414139746 	0.0175530131429382 	8.57277187750074 	0.0121777268485515 	0
8 	1.9354283291268 	-1.38777878078145e-17 	0.597722511796377 	0.0174517687304751 	9.24093693357571 	0.0133880042264524 	0
8 	1.9409126085123 	-1.38777878078145e-17 	0.597668262678821 	0.0173330430817855 	9.97380845197542 	0.014651674846905 	0
8 	1.94620308234835 	-1.38777878078145e-17 	0.597621132794272 	0.0171914612134768 	10.7825554092562 	0.015976668875988 	0
8 	1.95130659940914 	-1.04083408558608e-17 	0.59758061726513 	0.0170217326534229 	11.6815453235926 	0.0173742925458494 	0
8 	1.95622976644424 	-6.93889390390723e-18 	0.597546237394929 	0.0168184955211569 	12.6892959848159 	0.018859609805161 	0
8 	1.96097895673142 	-6.93889390390723e-18 	0.597517537302024 	0.0165760942629712 	13.8297740688296 	0.0204517965889463 	0
8 	1.96556031832711 	-6.93889390390723e-18 	0.597494080071442 	0.0162882766925321 	15.1342020585384 	0.0221743817930362 	0
8 	1.96997978202542 	-6.93889390390723e-18 	0.597475443367571 	0.0159477870923939 	16.6436154696336 	0.0240551675530818 	0
8 	1.97424306903576 	-6.93889390390723e-18 	0.597461214433542 	0.0155458195096051 	18.4125473232132 	0.0261253625117368 	0
8 	1.9783556983893 	-6.93889390390723e-18 	0.597450984363063 	0.0150712798615743 	20.5144311396368 	0.0284169337692383 	0
8 	1.98232299408358 	-6.93889390390723e-18 	0.597444341512078 	0.0145097910428211 	23.0496729551546 	0.0309560903551845 	0
8 	1.9861500919747 	-6.93889390390723e-18 	0.597440863917803 	0.013842375899227 	26.1579759272522 	0.0337485481920102 	0
8 	1.98984194642589 	-6.93889390390723e-18 	0.597440110657629 	0.0130438172181027 	30.0376643146867 	0.0367476434315709 	0
8 	1.99340333672126 	-6.93889390390723e-18 	0.597441612100078 	0.0120809639786435 	34.9770997303202 	0.0397876407782526 	0
8 	1.99683887325273 	-1.04083408558608e-17 	0.597444857897576 	0.0109121279277112 	41.4086642303353 	0.0424513942066671 	0
8 	2.00015300348845 	-1.38777878078145e-17 	0.597449278537515 	0.00949119005023581 	50.0103323937817 	0.0438402967889601 	0
8 	2.00335001773022 	-1.04083408558608e-17 	0.597454221350809 	0.00778585075517596 	61.9259150284267 	0.0423246827719459 	0
8 	2.00643405466757 	-6.93889390390723e-18 	0.597458965376956 	0.00582722747040251 	79.3348989736261 	0.03586065249744 	0
8 	2.00940910673542 	-1.04083408558608e-17 	0.597462884207119 	0.003792859444407 	107.151928306972 	0.0241511645516197 	0
8 	2.01227902528252 	-1.38777878078145e-17 	0.597465759574249 	0.00202763237135482 	158.451512634325 	0.0114689583626307 	0
8 	2.01504752555717 	-1.38777878078145e-17 	0.597467933831545 	0.000839168857983435 	273.559151559487 	0.00345437791729459 	0
8 	2.01771819151684 	-1.38777878078145e-17 	0.597470063622422 	0.000246564545729902 	611.139576102035 	0.000598271458252911 	0
8 	2.02029448046774 	-1.38777878078145e-17 	0.59747261070356 	4.27705366746113e-05 	2231.37914802463 	5.14630751464063e-05 	0
8 	2.02277972754047 	-1.38777878078145e-17 	0.597475005878841 	3.23094869261376e-06 	8890.48410713284 	1.74936526461564e-06 	2.13592125867279e-38
