5 	0.00391112967796258 	1.73472347597681e-17 	-0.0317729545748001 	-1.29412455980844e-05 	4.17855033181749e-23
5 	0.0118766651674913 	1.04083408558608e-17 	-0.0814050156388813 	-0.000208126389915052 	4.17189161832159e-23
5 	0.020134001548576 	3.46944695195361e-18 	-0.112425557865101 	-0.000641085005083574 	-4.70584302335375e-23
5 	0.0286938283423949 	3.46944695195361e-18 	-0.123823353836936 	-0.00125039298610648 	-7.10023277114931e-22
5 	0.0375672266585908 	1.04083408558608e-17 	-0.12516851405327 	-0.00191539892871716 	-4.69136406827842e-23
5 	0.046765683540303 	1.73472347597681e-17 	-0.123153937129322 	-0.00262467197624991 	-6.24567305409886e-24
5 	0.0563011068347006 	2.08166817117217e-17 	-0.119999277297985 	-0.00338303566692164 	-1.24702973083573e-23
5 	0.0661858406082648 	1.73472347597681e-17 	-0.116358034163335 	-0.00418500976663714 	-1.36281363726893e-23
5 	0.0764326811267815 	1.04083408558608e-17 	-0.112443715700052 	-0.00502564067404498 	-1.12777188208616e-22
5 	0.0870548934207257 	1.04083408558608e-17 	-0.108332449454668 	-0.00590287785646163 	-1.92612345437186e-24
5 	0.0980662284574838 	1.04083408558608e-17 	-0.104049909051128 	-0.00681618752665788 	1.08793741513707e-23
5 	0.109480940942647 	1.38777878078145e-17 	-0.0996003868013801 	-0.00776562011035513 	9.72470015182259e-24
5 	0.121313807773416 	2.42861286636753e-17 	-0.094977887765035 	-0.00875150250682558 	9.5922039711131e-25
5 	0.13358014716801 	2.42861286636753e-17 	-0.0901707941233278 	-0.00977433682257715 	-1.12846803984799e-22
5 	0.146295838495838 	1.73472347597681e-17 	-0.0851639505259401 	-0.0108347441433435 	-7.5807813823542e-24
5 	0.159477342834115 	1.38777878078145e-17 	-0.0799396142703557 	-0.0119334251696197 	0
5 	0.173141724277517 	2.08166817117217e-17 	-0.0744778653235568 	-0.013071132434568 	0
5 	0.18730667202848 	1.73472347597681e-17 	-0.0687567406674886 	-0.0142486495759823 	-2.85769011394076e-24
5 	0.201990523296728 	1.04083408558608e-17 	-0.0627522178946587 	-0.0154667742346028 	-5.70019824587667e-24
5 	0.217212287037676 	1.73472347597681e-17 	-0.056438110017563 	-0.0167263025346257 	-2.84217383063882e-24
5 	0.232991668560442 	2.08166817117217e-17 	-0.0497859034821832 	-0.018028013879177 	0
5 	0.249349095037321 	2.42861286636753e-17 	-0.0427645565125047 	-0.0193726551359873 	-4.79141679721355e-24
5 	0.266305741947753 	2.08166817117217e-17 	-0.0353402673673379 	-0.0207609234407028 	-1.44798747741622e-22
5 	0.283883560490999 	1.38777878078145e-17 	-0.0274762182907262 	-0.0221934468964225 	4.03529591413873e-18
5 	0.30210530600303 	1.38777878078145e-17 	-0.0191322991780037 	-0.0236707624015447 	1.18768850543995e-16
5 	0.320994567414413 	1.73472347597681e-17 	-0.0102648144296522 	-0.0251932897463258 	-1.13883422610137e-16
5 	0.34057579778732 	2.08166817117217e-17 	-0.000826177258627943 	-0.0267613013208315 	1.13519227878425e-16
5 	0.3608743459712 	2.08166817117217e-17 	0.00923540114129233 	-0.0283748861547897 	-1.17314844570814e-16
5 	0.38191648941809 	2.42861286636753e-17 	0.0199762195564925 	-0.0300339052850261 	-3.9114157700023e-18
5 	0.403729468200046 	2.08166817117217e-17 	0.0314573940304261 	-0.0317379375287465 	-9.47756341200685e-24
5 	0.426341520272734 	1.38777878078145e-17 	0.0437451437341007 	-0.0334862191377019 	-3.03212776262799e-22
5 	0.449781918030829 	1.38777878078145e-17 	0.0569110435411102 	-0.0352775727758014 	-2.7809783711967e-23
5 	0.474081006202548 	1.38777878078145e-17 	0.071032221470599 	-0.0371103192031643 	-3.0047185494277e-22
5 	0.499270241132363 	1.04083408558608e-17 	0.0861914728737184 	-0.038982135602563 	-3.04860575994547e-22
5 	0.525382231502763 	1.04083408558608e-17 	0.102477254880815 	-0.0408898591358015 	-1.88854409735731e-23
5 	0.552450780547767 	1.38777878078145e-17 	0.119983526239106 	-0.0428296820463538 	-2.97087793038119e-22
5 	0.580510929812849 	1.04083408558608e-17 	0.138809425571424 	-0.0447985936666113 	3.03861776028041e-22
5 	0.60959900451791 	1.04083408558608e-17 	0.159060065752808 	-0.0467925371729418 	4.3764334419757e-18
5 	0.639752660582032 	1.38777878078145e-17 	0.180893798055183 	-0.0487847750689438 	1.375266321682e-16
5 	0.671010933370886 	2.42861286636753e-17 	0.204847652638483 	-0.0507663326122707 	-1.45275299898846e-16
5 	0.7034142882299 	3.46944695195361e-17 	0.231587163189331 	-0.0527227694664657 	-4.52050625923412e-18
5 	0.737004672868606 	3.12250225675825e-17 	0.261291886793699 	-0.0546154540314074 	7.91087423727994e-22
5 	0.771825571663976 	2.42861286636753e-17 	0.293806879192589 	-0.0564190698159155 	7.56230646471523e-23
5 	0.807922061953053 	2.77555756156289e-17 	0.328846546774668 	-0.0581126527107245 	9.08843785804894e-22
5 	0.845340872387742 	4.5102810375397e-17 	0.366133317143142 	-0.0596728479801115 	2.38718541597066e-23
5 	0.884130443427308 	5.20417042793042e-17 	0.405439008866131 	-0.0610721908770027 	-8.08484838645385e-23
5 	0.924340990046896 	5.20417042793042e-17 	0.446552116692227 	-0.0622796999830742 	-9.38533279097861e-22
5 	0.966024566743241 	5.20417042793042e-17 	0.489216743710722 	-0.0632629674455762 	-2.60122551026915e-23
5 	1.00923513492173 	4.85722573273506e-17 	0.533081250700401 	-0.0639912035803077 	5.23755863218465e-23
5 	1.05402863275205 	5.89805981832114e-17 	0.577676920338884 	-0.064438556586423 	1.75038406721438e-21
5 	1.10046304758287 	6.24500451351651e-17 	0.622431241681485 	-0.0645871951759531 	-1.89680288538853e-21
5 	1.14859849100923 	5.55111512312578e-17 	0.666710586822487 	-0.0644298253733358 	-1.5364592383843e-22
5 	1.19849727668994 	5.89805981832114e-17 	0.709882307438787 	-0.0639712683085498 	-5.15466195176564e-23
5 	1.25022400101563 	6.93889390390723e-17 	0.751383590516628 	-0.0632285248914379 	4.66389940208123e-23
5 	1.30384562673185 	7.63278329429795e-17 	0.790781687398983 	-0.0622286740916495 	4.74721030723066e-23
5 	1.35943156962565 	7.28583859910259e-17 	0.827809584160172 	-0.0610044001655541 	0
5 	1.41705378838762 	6.93889390390723e-17 	0.862377947463195 	-0.0595872801937906 	-7.68643168517706e-23
5 	1.47678687776592 	6.93889390390723e-17 	0.894568160995159 	-0.0579999713214855 	-1.61712045849858e-21
5 	1.53870816513277 	7.28583859910259e-17 	0.924614220491323 	-0.0562505925438093 	-2.76318438225202e-21
5 	1.60289781058851 	7.28583859910259e-17 	0.952909648114612 	-0.0543112265484803 	2.81919045833893e-21
5 	1.66943891073266 	6.59194920871187e-17 	0.979623260589192 	-0.0521814448406406 	7.50860827161149e-24
5 	1.73841760623657 	5.89805981832114e-17 	1.00460914949842 	-0.049881615965816 	-2.7278706713998e-21
5 	1.80992319335659 	5.89805981832114e-17 	1.02779949946551 	-0.0474461891824234 	-6.26821563609161e-24
5 	1.88404823953248 	5.89805981832114e-17 	1.04926759593624 	-0.0448932356846531 	2.58869849288149e-21
5 	1.96088870322037 	5.55111512312578e-17 	1.06897155497031 	-0.042254685642831 	1.11381904993685e-22
5 	2.02025965173184 	5.55111512312578e-17 	1.08274502931838 	-0.0401893125174617 	0
5 	2.06006301192217 	5.55111512312578e-17 	1.09157916254212 	-0.0387748816756825 	0
5 	2.09845978584128 	5.20417042793042e-17 	1.09949261422882 	-0.0374288049037852 	0
5 	2.13549967996945 	4.85722573273506e-17 	1.10670915048823 	-0.0361265893848695 	0
5 	2.17123064424048 	4.85722573273506e-17 	1.11329135037176 	-0.0348666184281215 	0
5 	2.20569893411515 	4.85722573273506e-17 	1.11929282416175 	-0.033647552151164 	0
5 	2.23894917046122 	4.5102810375397e-17 	1.12475982298999 	-0.0324681150237811 	0
5 	2.27102439731725 	4.16333634234434e-17 	1.12973244404825 	-0.0313270785151964 	0
5 	2.30196613761521 	4.16333634234434e-17 	1.13424555330184 	-0.0302232583285382 	0
5 	2.33181444693391 	4.5102810375397e-17 	1.1383294932446 	-0.0291555033044337 	0
5 	2.3606079653529 	5.20417042793042e-17 	1.14201062896002 	-0.0281226856591731 	0
5 	2.3883839674739 	5.55111512312578e-17 	1.14531177255036 	-0.0271236943213997 	0
5 	2.41517841067461 	5.55111512312578e-17 	1.14825251452708 	-0.0261574304469482 	0
5 	2.44102598165722 	5.55111512312578e-17 	1.15084948232079 	-0.0252228044314599 	0
5 	2.46596014135207 	5.20417042793042e-17 	1.15311654003505 	-0.0243187339570276 	0
5 	2.49001316823443 	3.81639164714898e-17 	1.15506493922234 	-0.0234441426815462 	0
5 	2.51321620011054 	2.77555756156289e-17 	1.15670342731638 	-0.0225979592497106 	0
5 	2.535599274427 	2.77555756156289e-17 	1.1580383180672 	-0.0217791163776983 	0
5 	2.55719136715571 	2.77555756156289e-17 	1.15907352664639 	-0.0209865498260479 	0
5 	2.57802043030465 	2.77555756156289e-17 	1.15981057084675 	-0.0202191971254674 	0
5 	2.59811342810315 	2.42861286636753e-17 	1.16024853888197 	-0.0194759959611598 	0
5 	2.61749637190832 	2.42861286636753e-17 	1.16038402363668 	-0.0187558821562248 	0
5 	2.63619435387806 	2.77555756156289e-17 	1.16021102280441 	-0.0180577872275481 	0
5 	2.65423157945406 	2.77555756156289e-17 	1.15972080420079 	-0.0173806355223783 	0
5 	2.67163139869691 	2.42861286636753e-17 	1.15890173570825 	-0.0167233409848717 	0
5 	2.68841633651388 	1.38777878078145e-17 	1.15773907989436 	-0.0160848036539854 	0
5 	2.7046081218185 	1.04083408558608e-17 	1.15621475448756 	-0.0154639060622441 	0
5 	2.72022771565972 	1.38777878078145e-17 	1.15430706176815 	-0.0148595097941457 	0
5 	2.73529533835694 	1.38777878078145e-17 	1.1519903927424 	-0.014270452577699 	0
5 	2.74983049567625 	1.38777878078145e-17 	1.14923491591584 	-0.0136955464251945 	0
5 	2.76385200408156 	1.38777878078145e-17 	1.14600626571139 	-0.0131335775080055 	0
5 	2.77737801509343 	1.38777878078145e-17 	1.14226525208431 	-0.0125833086358007 	0
5 	2.79042603878708 	2.08166817117217e-17 	1.13796762037881 	-0.0120434853928905 	0
5 	2.80301296646003 	2.77555756156289e-17 	1.13306389820703 	-0.011512847129191 	0
5 	2.81515509249872 	3.12250225675825e-17 	1.1274993727445 	-0.0109901440533161 	0
5 	2.82686813547237 	3.12250225675825e-17 	1.12121424523819 	-0.0104741615269812 	0
5 	2.83816725848142 	2.77555756156289e-17 	1.11414400697249 	-0.00996375219871827 	0
5 	2.84906708878691 	2.08166817117217e-17 	1.10622006935601 	-0.00945787610045377 	0
5 	2.85958173674616 	1.38777878078145e-17 	1.09737065730494 	-0.00895564912941878 	0
5 	2.86972481407933 	1.04083408558608e-17 	1.0875219377343 	-0.0084563981395081 	0
5 	2.87950945149043 	1.04083408558608e-17 	1.0765993037121 	-0.00795969730293665 	0
5 	2.88894831566566 	2.08166817117217e-17 	1.06452867297196 	-0.00746533065536332 	0
5 	2.89805362567106 	2.77555756156289e-17 	1.05123756133899 	-0.00697335192609658 	0
5 	2.90683716877067 	3.12250225675825e-17 	1.03665108837332 	-0.00648547650538931 	0
5 	2.91531031568569 	3.12250225675825e-17 	1.02060511091064 	-0.00600025936339243 	0
5 	2.92348403531448 	2.77555756156289e-17 	1.00279835544835 	-0.00551556414980632 	0
5 	2.93136890893229 	2.77555756156289e-17 	0.982996009560031 	-0.00503032904760045 	0
5 	2.93897514388925 	2.42861286636753e-17 	0.961155004831148 	-0.00454909966076655 	0
5 	2.94631258682425 	2.42861286636753e-17 	0.937314889820773 	-0.00407651526288644 	0
5 	2.95339073641193 	2.77555756156289e-17 	0.911519601203418 	-0.00361711124696137 	0
5 	2.96021875565915 	2.08166817117217e-17 	0.88377352718025 	-0.00317519992821215 	0
5 	2.96680548376697 	1.73472347597681e-17 	0.854017176459893 	-0.00275466099448274 	0
5 	2.97315944757337 	2.42861286636753e-17 	0.822108082786943 	-0.00235880853225546 	0
5 	2.97928887259171 	2.42861286636753e-17 	0.787797994443406 	-0.00199034784721173 	0
5 	2.98520169365902 	1.73472347597681e-17 	0.750700759055141 	-0.0016513815116275 	0
5 	2.99090556520806 	1.73472347597681e-17 	0.710246064469275 	-0.00134342898027132 	0
5 	2.99640787117633 	2.08166817117217e-17 	0.665614440967873 	-0.00106747597061343 	0
4.99999999999999 	3.00171573456492 	2.42861286636753e-17 	0.615647624321888 	-0.000824135422818063 	0
4.99999999999999 	3.00683602665962 	3.12250225675825e-17 	0.558732659102973 	-0.00061393486398307 	0
4.99999999999999 	3.01177537592612 	3.46944695195361e-17 	0.492457678373004 	-0.000434985588654787 	0
4.99999999999999 	3.01654017659085 	3.46944695195361e-17 	0.41397626508405 	-0.000285383717754533 	0
4.99999999999999 	3.02113659691864 	3.12250225675825e-17 	0.323225932490517 	-0.000165088770945164 	0
4.99999999999999 	3.02557058719784 	2.77555756156289e-17 	0.22646592341796 	-7.82874381287514e-05 	0
4.99999999999999 	3.02984788744324 	2.42861286636753e-17 	0.131756809150158 	-2.55991019721689e-05 	0
