/*--------------------------------*- C++ -*----------------------------------*\
  =========                 |
  \\      /  F ield         | OpenFOAM: The Open Source CFD Toolbox
   \\    /   O peration     | Website:  https://openfoam.org
    \\  /    A nd           | Version:  7
     \\/     M anipulation  |
\*---------------------------------------------------------------------------*/
FoamFile
{
    version     2.0;
    format      ascii;
    class       volVectorField;
    location    "0";
    object      C;
}
// * * * * * * * * * * * * * * * * * * * * * * * * * * * * * * * * * * * * * //

dimensions      [0 1 0 0 0 0 0];

internalField   nonuniform List<vector> 
21000
(
(-7.25802646112941 1.00678506588753 -2.53816014967945e-18)
(-7.09407938338798 1.00678506588753 -9.63735264458078e-20)
(-6.93013230564672 1.00678506588753 5.26906735226073e-18)
(-6.76618522790578 1.00678506588753 0)
(-6.60223815016468 1.00678506588753 -2.63453367612525e-18)
(-6.4382910724235 1.00678506588753 -2.63453367612526e-18)
(-6.27434399468195 1.00678506588753 2.6345336761138e-18)
(-6.11039691694053 1.00678506588753 5.26906735225905e-18)
(-5.94644983919995 1.00678506588753 5.26906735227932e-18)
(-5.782502761459 1.00678506588753 0)
(-5.61855568371759 1.00678506588753 -9.63735264458085e-20)
(-5.4546086059764 1.00678506588753 -2.63453367612526e-18)
(-5.29066152823506 1.00678506588753 0)
(-5.12671445049405 1.00678506588753 0)
(-4.96276737275303 1.00678506588753 0)
(-4.79882029501168 1.00678506588753 -2.63453367612526e-18)
(-4.63487321727049 1.00678506588753 -2.73090720257099e-18)
(-4.47092613952912 1.00678506588753 0)
(-4.30697906178791 1.00678506588753 0)
(-4.14303198404701 1.00678506588753 2.53816014968325e-18)
(-3.97908490630586 1.00678506588753 -2.63453367612231e-18)
(-3.81513782856458 1.00678506588753 -2.63453367612526e-18)
(-3.6511907508234 1.00678506588753 -2.63453367612518e-18)
(-3.48724367308201 1.00678506588753 0)
(-3.32329659534104 1.00678506588753 0)
(-3.15934951760006 1.00678506588753 2.63453367611868e-18)
(-2.99540243985867 1.00678506588753 -2.63453367612526e-18)
(-2.83145536211748 1.00678506588753 5.17269382580438e-18)
(-2.66750828437609 1.00678506588753 2.63453367611893e-18)
(-2.50356120663512 1.00678506588753 0)
(-2.33961412889449 1.00678506588753 -5.2690673522598e-18)
(-2.17566705115311 1.00678506588753 0)
(-2.01171997341157 1.00678506588753 4.8812921355228e-16)
(-1.84777289567039 1.00678506588753 -5.32771882898618e-16)
(-1.68382581792923 1.00678506588753 0)
(-1.51987874018823 1.00678506588753 -9.63735264458076e-20)
(-1.35593166244703 1.00678506588753 9.63735264458082e-20)
(-1.19198458470567 1.00678506588753 -2.53816014967945e-18)
(-1.02803750696449 1.00678506588753 0)
(-0.864090429223308 1.00678506588753 -9.63735264458088e-20)
(-0.700143351482124 1.00678506588753 -9.63735264458084e-20)
(-0.53619627374097 1.00678506588753 0)
(-0.372249195999787 1.00678506588753 5.26906735224866e-18)
(-0.208302118258574 1.00678506588753 -2.6345336761252e-18)
(-0.0443547200821719 1.00669692271191 0)
(0.119566224822959 1.00417897755191 0)
(0.2832859555069 0.995994895149936 2.7334058956676e-18)
(0.446537725246419 0.981172107043366 -9.61804286988969e-20)
(0.609052096886078 0.95973511450887 2.64082281536523e-18)
(0.770560563534613 0.931719411541941 -2.64283523928042e-18)
(0.930796382694487 0.897171358712402 0)
(1.08949516646659 0.856148085594627 0)
(1.24639461150842 0.808717546892356 2.65025613663097e-18)
(1.40123583381388 0.754958169835051 -5.30693617446441e-18)
(1.55376336961171 0.694958842283837 -2.75292957281162e-18)
(1.70372566406262 0.628818676191652 0)
(1.85087459960409 0.556647359558828 0)
(1.99496741337143 0.478564183259901 -9.54983634064719e-20)
(2.1357662205821 0.39469841159286 2.77594828554197e-18)
(2.27326474279909 0.30552229632031 2.5855828648563e-18)
(2.4114441233687 0.217596245728555 -2.35408296590148e-18)
(2.55511109841548 0.139166773999913 2.20940396224988e-18)
(2.7046787876457 0.072639967686284 0)
(2.86043811256224 0.0254526788743482 -4.66613518272806e-17)
(3.0219956328271 0.00848154366445274 -4.75170662009688e-17)
(3.18594270828218 0.00848133235941562 2.03052811974403e-18)
(3.34988978602331 0.00848133235941553 -9.63735264458083e-20)
(3.5138368637645 0.00848133235941554 -2.12690164618867e-18)
(3.67778394150604 0.00848133235941562 4.25380329235937e-18)
(3.84173101924744 0.00848133235941553 0)
(4.00567809698821 0.00848133235941553 2.12690164619523e-18)
(4.16962517472917 0.00848133235941558 -5.28199695454664e-16)
(4.3335722524704 0.00848133235941556 4.7445604005582e-16)
(4.49751933021192 0.00848133235941551 -2.12690164618024e-18)
(4.6614664079533 0.00848133235941561 0)
(4.82541348569395 0.00848133235941555 0)
(4.98936056343494 0.00848133235941563 -6.18795788566003e-18)
(5.15330764117631 0.00848133235941553 -4.15742976593153e-18)
(5.3172547189175 0.00848133235941552 -4.95036630853921e-17)
(5.48120179665881 0.00848133235941554 -9.68292172662664e-17)
(5.64514887439999 0.00848133235941557 -1.41612555563384e-19)
(5.80909595214104 0.00848133235941566 4.75184455542143e-17)
(5.97304302988223 0.00848133235941556 0)
(6.13699010762341 0.00848133235941565 -6.28433141212039e-18)
(6.30093718536493 0.00848133235941557 -2.12690164618012e-18)
(6.4648842631063 0.00848133235941555 0)
(6.62883134084696 0.0084813323594156 -4.7067697748352e-16)
(6.79277841858795 0.00848133235941561 5.16674347928106e-16)
(6.95672549632931 0.00848133235941553 0)
(7.12067257407049 0.0084813323594156 2.1269016461886e-18)
(7.2846196518119 0.00848133235941543 0)
(7.44856672955286 0.00848133235941558 -4.52498597932616e-17)
(7.61251380729381 0.00848133235941552 -5.38034848067381e-17)
(7.77646088503522 0.00848133235941554 0)
(7.9404079627764 0.00848133235941562 0)
(8.10435504051763 0.00848133235941555 0)
(8.26830211825875 0.00848133235941552 2.12690164619127e-18)
(8.43224919599966 0.00848133235941563 0)
(8.59619627374089 0.00848133235941555 6.18795788565876e-18)
(8.76014335148228 0.00848133235941552 -4.25380329237758e-18)
(8.92409042922345 0.00848133235941553 -9.63735264458077e-20)
(9.08803750696476 0.00848133235941563 0)
(9.2519845847058 0.00848133235941562 0)
(9.41593166244651 0.00848133235941553 0)
(9.57987874018779 0.00848133235941555 4.15742976591671e-18)
(9.74382581792927 0.00848133235941552 0)
(9.9077728956702 0.00848133235941562 9.63735264458095e-20)
(10.0717199734103 0.00848133235941606 0)
(10.2356670511536 0.00848133235941529 0)
(10.3996141288958 0.00848133235941527 6.2843314122612e-18)
(10.5635612066351 0.00848133235941527 2.12690164618861e-18)
(10.7275082843758 0.00848133235941614 0)
(10.8914553621205 0.00848133235941526 0)
(11.0554024398623 0.00848133235941614 -2.12690164627718e-18)
(11.2193495175984 0.0084813323594144 0)
(11.3832965953418 0.00848133235941615 -9.63735264458091e-20)
(11.5472436730871 0.00848133235941529 0)
(11.7111907508261 0.00848133235941527 4.35017681895679e-18)
(11.8751378285646 0.00848133235941615 0)
(12.0390849063052 0.00848133235941613 4.35017681884904e-18)
(12.2030319840467 0.00848133235941527 4.06105623944598e-18)
(12.3669790617884 0.00848133235941527 0)
(12.5309261395259 0.00848133235941614 0)
(12.6948732172702 0.0084813323594144 0)
(12.8588202950149 0.00848133235941615 0)
(13.0227673727528 0.00848133235941527 0)
(13.1867144504939 0.00848133235941529 -2.12690164618615e-18)
(13.3506615282366 0.00848133235941613 -6.28433141202152e-18)
(13.5146086059777 0.00848133235941614 0)
(13.6785556837176 0.00848133235941527 0)
(13.8425027614564 0.00848133235941613 0)
(14.0064498391994 0.00848133235941529 2.03052811964e-18)
(14.1703969169429 0.00848133235941527 9.63735264458076e-20)
(14.3343439946789 0.00848133235941527 2.1269016462716e-18)
(14.4982910724206 0.00848133235941527 0)
(14.6622381501652 0.00848133235941529 4.25380329240198e-18)
(14.8261852279059 0.00848133235941613 0)
(14.9901323056449 0.00848133235941614 -9.6373526445811e-20)
(15.1540793833882 0.00848133235941526 -2.1269016460796e-18)
(15.3180264611316 0.00848133235941529 -9.63735264458085e-20)
(-7.25802908208406 1.02056971090737 -9.63749172868598e-20)
(-7.09408724625192 1.02056971090737 0)
(-6.93014541041995 1.02056971090737 1.92748443732837e-19)
(-6.76620357458831 1.02056971090737 -7.76692931489633e-18)
(-6.6022617387565 1.02056971090737 -1.92748443732838e-19)
(-6.43831990292462 1.02056971090737 0)
(-6.27437806709236 1.02056971090737 0)
(-6.11043623126025 1.02056971090737 5.11370339535678e-18)
(-5.94649439542896 1.02056971090737 2.84597436328744e-18)
(-5.7825525595973 1.02056971090737 1.92748443732841e-19)
(-5.61861072376518 1.02056971090737 0)
(-5.4546688879333 1.02056971090737 1.92748443732839e-19)
(-5.29072705210125 1.02056971090737 0)
(-5.12678521626953 1.02056971090737 -5.30645183910132e-18)
(-4.9628433804378 1.02056971090737 0)
(-4.79890154460575 1.02056971090737 -2.65322591954073e-18)
(-4.63495970877386 1.02056971090737 -2.65322591954066e-18)
(-4.47101787294179 1.02056971090737 -2.65322591953519e-18)
(-4.30707603710987 1.02056971090737 5.30645183909078e-18)
(-4.14313420127826 1.02056971090737 4.8740080167426e-16)
(-3.9791923654464 1.02056971090737 -5.00465458486176e-16)
(-3.81525052961442 1.02056971090737 2.65322591954067e-18)
(-3.65130869378253 1.02056971090737 -2.46047747580782e-18)
(-3.48736685795044 1.02056971090737 0)
(-3.32342502211876 1.02056971090737 -2.65322591955328e-18)
(-3.15948318628708 1.02056971090737 0)
(-2.99554135045498 1.02056971090737 0)
(-2.83159951462309 1.02056971090737 0)
(-2.667657678791 1.02056971090737 0)
(-2.50371584295932 1.02056971090737 0)
(-2.33977400712799 1.02056971090737 0)
(-2.1758321712959 1.02056971090737 2.65322591953017e-18)
(-2.01189033546366 1.02056971090737 5.29254368484341e-16)
(-1.84794849963176 1.02056971090737 -4.92062096756937e-16)
(-1.6840066637999 1.02056971090737 0)
(-1.5200648279682 1.02056971090737 1.92748443732843e-19)
(-1.35612299213629 1.02056971090737 0)
(-1.19218115630423 1.02056971090737 0)
(-1.02823932047234 1.02056971090737 1.92748443732841e-19)
(-0.864297484640457 1.02056971090737 -1.92748443732839e-19)
(-0.700355648808568 1.02056971090737 1.92748443732839e-19)
(-0.536413812976709 1.02056971090737 0)
(-0.37247197714482 1.02056971090737 -5.1137033953468e-18)
(-0.208530141312903 1.02056971090737 2.6532259195407e-18)
(-0.0445879840893474 1.02048187200902 2.65322263844483e-18)
(0.119327863865515 1.01797261908235 -5.3081488947364e-18)
(0.283043214879574 1.00981678894699 0)
(0.446292219462875 0.995045170538994 1.92554173808036e-19)
(0.608806370067437 0.973682180720918 -1.92482824028681e-19)
(0.770318086221218 0.945763191195802 -5.12973269602407e-18)
(0.930561545793997 0.911334402789422 -1.92340405637113e-19)
(1.08927327316511 0.870452748222919 0)
(1.24619187012494 0.823185948037136 -4.95153390572316e-18)
(1.40105934605855 0.7696121592 -2.67094833424179e-18)
(1.55362111883306 0.709819963262141 0)
(1.70362650182971 0.643908130617095 2.48658432346195e-18)
(1.85082823389005 0.57198597126689 1.91920893622751e-19)
(1.99498439017789 0.494172364958468 0)
(2.13585790712572 0.410596130532992 2.50446669014256e-18)
(2.27344252154821 0.321727884749416 -5.20124109352585e-18)
(2.41170552256937 0.234105302286344 -2.84162986051129e-15)
(2.55543713684947 0.155946517295081 -1.30308026341929e-15)
(2.70504909687752 0.0896493314556122 4.25495020725332e-18)
(2.86083118920083 0.0426249083930201 0)
(3.02239139697493 0.0257123492098108 1.80267020666239e-18)
(3.18633323052465 0.0257121386342167 -4.05241302753502e-17)
(3.35027506635649 0.0257121386342169 -4.85283700218712e-17)
(3.51421690218837 0.0257121386342169 2.16113042437934e-18)
(3.67815873802062 0.0257121386342168 6.29064282937909e-18)
(3.84210057385272 0.0257121386342169 6.48339127314847e-18)
(4.0060424096842 0.025712138634217 -2.16113042438564e-18)
(4.16998424551587 0.0257121386342168 -4.72171211807756e-16)
(4.3339260813478 0.0257121386342168 5.22908918074021e-16)
(4.49786791718003 0.0257121386342169 1.96838198063834e-18)
(4.66180975301211 0.0257121386342168 -3.9367639612999e-18)
(4.82575158884347 0.0257121386342169 0)
(4.98969342467517 0.0257121386342168 2.16113042437468e-18)
(5.15363526050725 0.0257121386342168 -3.83629998509479e-17)
(5.31757709633913 0.0257121386342167 -2.10006797864918e-18)
(5.48151893217115 0.0257121386342169 4.49511479294595e-17)
(5.64546076800304 0.0257121386342168 -4.87561544693268e-17)
(5.80940260383479 0.0257121386342167 -4.86953107090645e-17)
(5.97334443966669 0.0257121386342168 -4.44608942366204e-17)
(6.13728627549857 0.0257121386342167 -4.49514375494345e-17)
(6.3012281113308 0.0257121386342168 1.92748443732839e-19)
(6.46516994716287 0.0257121386342169 -5.62396420132331e-16)
(6.62911178299423 0.0257121386342168 5.66045538282421e-16)
(6.79305361882593 0.0257121386342168 4.22393192933645e-17)
(6.956995454658 0.0257121386342169 0)
(7.12093729048989 0.0257121386342167 2.1611304243793e-18)
(7.284879126322 0.0257121386342168 1.9274844373284e-19)
(7.44882096215366 0.0257121386342168 4.44608942368555e-17)
(7.61276279798532 0.0257121386342169 4.25981385917068e-17)
(7.77670463381743 0.0257121386342169 4.51500929249155e-18)
(7.94064646964932 0.0257121386342168 -1.96838198064651e-18)
(8.10458830548125 0.0257121386342167 0)
(8.26853014131308 0.0257121386342169 -5.63786556781447e-16)
(8.4324719771447 0.0257121386342168 5.26244340459518e-16)
(8.59641381297663 0.0257121386342168 4.51500929248146e-18)
(8.76035564880872 0.0257121386342167 1.92748443732839e-19)
(8.92429748464059 0.0257121386342168 4.12951240502613e-18)
(9.08823932047261 0.0257121386342168 0)
(9.25218115630436 0.0257121386342168 0)
(9.41612299213577 0.0257121386342168 2.16113042438393e-18)
(9.58006482796777 0.0257121386342168 -4.48463911239275e-17)
(9.74400666379995 0.0257121386342168 -4.85309079915799e-17)
(9.90794849963158 0.0257121386342168 1.9274844373284e-19)
(10.0718903354624 0.0257121386342169 0)
(10.2358321712964 0.0257121386342165 4.32226084861778e-18)
(10.3997740071293 0.0257121386342174 0)
(10.5637158429593 0.0257121386342165 0)
(10.7276576787907 0.0257121386342165 -4.12951240505061e-18)
(10.8915995146261 0.0257121386342165 0)
(11.0555413504586 0.0257121386342173 0)
(11.2194831862855 0.0257121386342174 0)
(11.3834250221195 0.0257121386342165 -4.51500929231702e-18)
(11.5473668579556 0.0257121386342173 6.09789438563563e-18)
(11.7113086937853 0.0257121386342165 1.92748443732851e-19)
(11.8752505296144 0.0257121386342164 4.5150092924923e-18)
(12.0391923654458 0.0257121386342165 0)
(12.203134201278 0.0257121386342174 1.92748443732821e-19)
(12.3670760371104 0.0257121386342165 0)
(12.5310178729386 0.0257121386342174 1.96838198072912e-18)
(12.6949597087736 0.0257121386342165 0)
(12.8589015446089 0.0257121386342165 0)
(13.0228433804375 0.0257121386342174 -4.68147731047824e-17)
(13.1867852162694 0.0257121386342165 -4.63703921350005e-17)
(13.3507270521027 0.0257121386342165 0)
(13.5146688879346 0.0257121386342165 0)
(13.6786107237652 0.0257121386342173 0)
(13.8425525595947 0.0257121386342165 -4.12951240513945e-18)
(14.0064943954284 0.0257121386342165 0)
(14.1704362312626 0.0257121386342173 1.9683819806895e-18)
(14.3343780670894 0.0257121386342174 6.29064282964581e-18)
(14.4983199029217 0.0257121386342165 2.16113042428729e-18)
(14.662261738757 0.0257121386342173 0)
(14.8262035745884 0.0257121386342156 0)
(14.9901454104181 0.0257121386342174 2.16113042443192e-18)
(15.1540872462522 0.0257121386342165 0)
(15.3180290820862 0.0257121386342173 0)
(-7.25803178587443 1.03479002201732 -2.38517476288419e-18)
(-7.09409535762304 1.03479002201732 -2.38517476287704e-18)
(-6.93015892937182 1.03479002201732 -1.92748487738119e-19)
(-6.76622250112092 1.03479002201732 0)
(-6.60228607286985 1.03479002201732 -5.37002158139721e-16)
(-6.43834964461871 1.03479002201732 5.42814070221985e-16)
(-6.27441321636721 1.03479002201732 2.57792325061167e-18)
(-6.11047678811583 1.03479002201732 4.96309801351432e-18)
(-5.94654035986529 1.03479002201732 0)
(-5.78260393161438 1.03479002201732 0)
(-5.618667503363 1.03479002201732 -2.5779232506223e-18)
(-5.45473107511186 1.03479002201732 -2.38517476288419e-18)
(-5.29079464686056 1.03479002201732 0)
(-5.12685821860959 1.03479002201732 0)
(-4.9629217903586 1.03479002201732 4.96309801349658e-18)
(-4.79898536210729 1.03479002201732 1.9274848773812e-19)
(-4.63504893385615 1.03479002201732 1.92748487738117e-19)
(-4.47111250560482 1.03479002201732 0)
(-4.30717607735365 1.03479002201732 0)
(-4.14323964910278 1.03479002201732 5.08334381455724e-16)
(-3.97930322085167 1.03479002201732 -4.86213193238171e-16)
(-3.81536679260044 1.03479002201732 0)
(-3.65143036434929 1.03479002201732 -2.57792325062229e-18)
(-3.48749393609795 1.03479002201732 5.15584650123249e-18)
(-3.32355750784701 1.03479002201732 -7.54102126416503e-18)
(-3.15962107959608 1.03479002201732 0)
(-2.99568465134473 1.03479002201732 -2.57792325062231e-18)
(-2.83174822309358 1.03479002201732 -1.9274848773812e-19)
(-2.66781179484223 1.03479002201732 0)
(-2.50387536659129 1.03479002201732 0)
(-2.3399389383407 1.03479002201732 2.3851747628884e-18)
(-2.17600251008936 1.03479002201732 5.15584650122422e-18)
(-2.01206608183786 1.03479002201732 -2.57792325062214e-18)
(-1.84812965358672 1.03479002201732 0)
(-1.6841932253356 1.03479002201732 2.38517476288491e-18)
(-1.52025679708464 1.03479002201732 -5.15584650125346e-18)
(-1.35632036883347 1.03479002201732 0)
(-1.19238394058216 1.03479002201732 2.57792325062237e-18)
(-1.02844751233102 1.03479002201732 2.57792325062225e-18)
(-0.864511084079878 1.03479002201732 -2.57792325062226e-18)
(-0.700574655828734 1.03479002201732 -5.15584650124447e-18)
(-0.53663822757762 1.03479002201732 0)
(-0.372701799326476 1.03479002201732 1.92748487738123e-19)
(-0.208765371075304 1.03479002201732 0)
(-0.044828620445789 1.03470249701315 0)
(0.119081969468625 1.03220221104745 0)
(0.282792802392177 1.02407552611894 -7.74094689635554e-18)
(0.446038954425413 1.00935669467239 -2.58192231825925e-18)
(0.608552877008167 0.988070046487536 -7.55824585877937e-18)
(0.770067945367391 0.960250827108745 2.39291949439999e-18)
(0.930319286828613 0.925945072567405 2.39488134922768e-18)
(1.08904436688249 0.88520951250789 -1.92269418288453e-19)
(1.24598272105933 0.83811162590497 -4.99123805173982e-18)
(1.40087728037133 0.784729290920357 5.18896088404943e-18)
(1.55347437218849 0.725150773109733 -1.92058837871073e-19)
(1.70352420555302 0.659474490507948 1.91989523603377e-19)
(1.85078040277743 0.587809363167214 0)
(1.9950019035401 0.510273846707153 1.91852314276436e-19)
(2.135952491443 0.426996300426705 -5.23621701780816e-18)
(2.27362591903425 0.338445654405891 -7.66268143792007e-18)
(2.41197518335052 0.251136131285928 1.63711938471495e-15)
(2.55577347979903 0.173256588024871 2.33115426628136e-15)
(2.70543110980874 0.107196279663338 0)
(2.86123668909981 0.0603398694251162 1.34795421887869e-15)
(3.0227996693171 0.0434877373447536 -4.40076286648656e-16)
(3.18673609529014 0.0434875275216573 4.71445948615724e-17)
(3.35067252354123 0.0434875275216574 4.26921389321163e-17)
(3.51460895179237 0.0434875275216574 -2.10088829804554e-18)
(3.67854538004388 0.0434875275216574 -1.9274848773812e-19)
(3.84248180829523 0.0434875275216573 0)
(4.00641823654597 0.0434875275216574 0)
(4.17035466479689 0.0434875275216573 2.1008882980445e-18)
(4.33429109304808 0.0434875275216574 0)
(4.49822752129956 0.0434875275216573 0)
(4.6621639495509 0.0434875275216574 0)
(4.82610037780151 0.0434875275216574 -6.10991640642517e-18)
(4.99003680605246 0.0434875275216572 0)
(5.15397323430379 0.0434875275216573 9.6197329533397e-17)
(5.31790966255494 0.0434875275216574 8.39802440496805e-17)
(5.48184609080622 0.0434875275216573 4.92454831595113e-17)
(5.64578251905736 0.0434875275216573 4.98076660107173e-17)
(5.80971894730837 0.0434875275216573 2.10088829804541e-18)
(5.97365537555951 0.0434875275216573 4.52364550512372e-17)
(6.13759180381065 0.0434875275216574 4.49490503237695e-17)
(6.30152823206213 0.0434875275216572 2.10088829803756e-18)
(6.46546466031346 0.0434875275216573 -5.26219651729746e-16)
(6.62940108856408 0.0434875275216573 5.15040444717022e-16)
(6.79333751681503 0.0434875275216573 -4.91510815757541e-17)
(6.95727394506636 0.0434875275216573 -6.10991640639808e-18)
(7.1212103733175 0.0434875275216573 2.10088829804553e-18)
(7.28514680156886 0.0434875275216573 -2.1008882980404e-18)
(7.44908322981978 0.0434875275216574 -2.10088829805583e-18)
(7.6130196580707 0.0434875275216573 4.52364550511167e-17)
(7.77695608632207 0.0434875275216573 4.46021168327369e-17)
(7.94089251457321 0.0434875275216573 2.10088829804553e-18)
(8.10482894282439 0.0434875275216573 -2.10088829804447e-18)
(8.26876537107548 0.0434875275216574 -5.28513288515211e-16)
(8.43270179932636 0.0434875275216573 5.57320577620399e-16)
(8.59663822757754 0.0434875275216573 0)
(8.76057465582889 0.0434875275216573 -1.9274848773812e-19)
(8.92451108408001 0.0434875275216574 2.10088829804558e-18)
(9.08844751233129 0.0434875275216572 1.92748487738121e-19)
(9.25238394058229 0.0434875275216573 1.9081398103139e-18)
(9.41632036883296 0.0434875275216574 0)
(9.58025679708421 0.0434875275216572 4.50437065633401e-17)
(9.74419322533564 0.0434875275216574 4.47574733822897e-17)
(9.90812965358654 0.0434875275216573 6.10991640641522e-18)
(10.0720660818366 0.0434875275216572 1.92748487738124e-19)
(10.2360025100899 0.0434875275216572 -4.00902810821702e-18)
(10.399938938342 0.0434875275216571 -1.92748487738124e-19)
(10.5638753665913 0.043487527521658 -2.10088829804563e-18)
(10.7278117948419 0.0434875275216571 -2.10088829805788e-18)
(10.8917482230966 0.0434875275216572 0)
(11.0556846513483 0.0434875275216571 4.00902810851729e-18)
(11.2196210795945 0.043487527521658 0)
(11.3835575078478 0.0434875275216562 0)
(11.5474939361031 0.0434875275216571 4.69518463735165e-17)
(11.711430364352 0.043487527521658 4.30424850005119e-17)
(11.8753667926004 0.043487527521658 0)
(12.039303220851 0.0434875275216571 -2.10088829805788e-18)
(12.2032396491025 0.0434875275216571 0)
(12.3671760773542 0.0434875275216571 -2.10088829805206e-18)
(12.5311125056016 0.0434875275216571 -6.10991640663798e-18)
(12.6950489338559 0.0434875275216571 0)
(12.8589853621104 0.043487527521658 0)
(13.0229217903583 0.0434875275216571 4.31355667532325e-17)
(13.1868582186095 0.043487527521658 4.47959982961771e-17)
(13.350794646862 0.0434875275216562 -6.10991640630808e-18)
(13.5147310751132 0.043487527521658 2.10088829807589e-18)
(13.678667503363 0.0434875275216571 0)
(13.8426039316118 0.043487527521658 -1.92748487738104e-19)
(14.0065403598647 0.0434875275216571 0)
(14.1704767881182 0.0434875275216571 2.10088829808697e-18)
(14.3344132163642 0.0434875275216571 0)
(14.4983496446159 0.0434875275216571 -6.10991640613172e-18)
(14.6622860728703 0.0434875275216571 0)
(14.826222501121 0.043487527521658 0)
(14.9901589293699 0.0434875275216571 -4.00902810845446e-18)
(15.1540953576233 0.0434875275216571 3.81627962041136e-18)
(15.3180317858766 0.0434875275216571 0)
(-7.25803457511856 1.04945976851708 2.4085541031486e-18)
(-7.09410372535545 1.04945976851708 -2.50492762958797e-18)
(-6.93017287559249 1.04945976851708 0)
(-6.76624202582986 1.04945976851708 0)
(-6.60231117606707 1.04945976851708 -5.4842085927299e-16)
(-6.43838032630419 1.04945976851708 5.35838579565235e-16)
(-6.27444947654096 1.04945976851708 5.00985525916933e-18)
(-6.11051862677785 1.04945976851708 -5.0098552591974e-18)
(-5.94658777701558 1.04945976851708 0)
(-5.78265692725293 1.04945976851708 0)
(-5.61872607748983 1.04945976851708 5.00985525918991e-18)
(-5.45479522772695 1.04945976851708 0)
(-5.29086437796392 1.04945976851708 0)
(-5.12693352820121 1.04945976851708 0)
(-4.9630026784385 1.04945976851708 -4.81710672604307e-18)
(-4.79907182867546 1.04945976851708 0)
(-4.63514097891258 1.04945976851708 2.69767616273205e-18)
(-4.47121012914953 1.04945976851708 -4.94040152315474e-16)
(-4.30727927938663 1.04945976851708 5.02028158981527e-16)
(-4.14334842962403 1.04945976851708 0)
(-3.97941757986118 1.04945976851708 0)
(-3.81548673009821 1.04945976851708 0)
(-3.65155588033534 1.04945976851708 5.00985525918993e-18)
(-3.48762503057226 1.04945976851708 0)
(-3.32369418080959 1.04945976851708 2.50492762960666e-18)
(-3.15976333104693 1.04945976851708 1.92748533137238e-19)
(-2.99583248128384 1.04945976851708 -2.50492762959488e-18)
(-2.83190163152097 1.04945976851708 5.00985525918964e-18)
(-2.66797078175789 1.04945976851708 0)
(-2.50403993199522 1.04945976851708 5.00985525921274e-18)
(-2.3401090822329 1.04945976851708 0)
(-2.17617823246982 1.04945976851708 0)
(-2.01224738270659 1.04945976851708 0)
(-1.84831653294372 1.04945976851708 -2.31217909645774e-18)
(-1.68438568318087 1.04945976851708 -5.00985525919114e-18)
(-1.52045483341817 1.04945976851708 -7.32203435566031e-18)
(-1.35652398365528 1.04945976851708 0)
(-1.19259313389224 1.04945976851708 0)
(-1.02866228412937 1.04945976851708 0)
(-0.864731434366491 1.04945976851708 0)
(-0.700800584603616 1.04945976851708 2.50492762959489e-18)
(-0.53686973484077 1.04945976851708 7.32203435564992e-18)
(-0.372938885077895 1.04945976851708 0)
(-0.209008035314992 1.04945976851708 7.32203435564752e-18)
(-0.045076862155878 1.04937256732794 -2.50492407518462e-18)
(0.118828303536693 1.0468815317342 0)
(0.28253447557428 1.03878491317572 -5.01442223540556e-18)
(0.44577768490143 1.02412053706967 0)
(0.608291372254807 1.00291264335978 0)
(0.769809898765455 0.975196347443292 1.924114432428e-19)
(0.930069371222475 0.941017515347125 0)
(1.08880822597197 0.900432667218533 -1.92269312997143e-19)
(1.24576696179536 0.853509032828882 0)
(1.40068946046037 0.800324202718766 0)
(1.55332298758506 0.740966116458128 -2.90747820039856e-18)
(1.7034186761803 0.675532828582281 0)
(1.85073105995193 0.604132856864069 -2.72311576132879e-18)
(1.99501997041603 0.526884219384829 -4.88068333239022e-18)
(2.13605006511884 0.443914801370322 0)
(2.27381511283887 0.355691792913132 -4.70092647478211e-18)
(2.41225336682162 0.268705223486223 9.29500034761932e-18)
(2.55612045294104 0.191113747323777 2.09750457947747e-18)
(2.7058251963375 0.125297802790917 0)
(2.86165500489875 0.0786147151056593 -2.1973738289206e-16)
(3.0232208451772 0.0618249196931652 -5.41427295062985e-16)
(3.18715169266616 0.06182471064635 0)
(3.35108254242898 0.0618247106463501 0)
(3.51501339219185 0.06182471064635 0)
(3.67894424195509 0.06182471064635 4.0001100019148e-17)
(3.84287509171817 0.06182471064635 3.57875459794118e-17)
(4.00680594148064 0.06182471064635 -4.57430783840959e-17)
(4.1707367912433 0.0618247106463501 -4.74644082899362e-17)
(4.33466764100621 0.0618247106463499 -1.9274853313724e-19)
(4.49859849076943 0.0618247106463501 1.92748533137237e-19)
(4.66252934053249 0.0618247106463501 3.59161163987715e-17)
(4.82646019029484 0.0618247106463501 3.15589119771962e-17)
(4.99039104005753 0.0618247106463501 -5.9347268977609e-18)
(5.15432188982058 0.0618247106463501 -8.75939216804396e-17)
(5.31825273958346 0.06182471064635 -9.89661944370722e-17)
(5.48218358934647 0.0618247106463501 0)
(5.64611443910934 0.0618247106463501 5.7419783646457e-18)
(5.81004528887208 0.06182471064635 -1.92748533137237e-19)
(5.97397613863496 0.0618247106463501 0)
(6.13790698839783 0.06182471064635 -2.04249181030369e-18)
(6.30183783816104 0.06182471064635 1.84974327715877e-18)
(6.4657686879241 0.06182471064635 -3.79586082090827e-17)
(6.62969953768645 0.06182471064635 -4.74654432780146e-17)
(6.79363038744914 0.0618247106463501 -4.08498362059912e-18)
(6.95756123721219 0.06182471064635 -3.61088649318474e-17)
(7.12149208697507 0.0618247106463501 -3.78314065574858e-17)
(7.28542293673816 0.06182471064635 -1.92748533137238e-19)
(7.44935378650081 0.06182471064635 0)
(7.61328463626347 0.0618247106463501 -4.38933351066721e-17)
(7.77721548602656 0.06182471064635 -4.59529847080994e-17)
(7.94114633578943 0.06182471064635 -1.92748533137238e-19)
(8.10507718555235 0.0618247106463501 1.92748533137234e-19)
(8.26900803531517 0.0618247106463501 0)
(8.43293888507778 0.06182471064635 0)
(8.5968697348407 0.0618247106463499 0)
(8.76080058460377 0.0618247106463501 4.08498362060767e-18)
(8.92473143436663 0.06182471064635 4.08498362060733e-18)
(9.08866228412964 0.06182471064635 0)
(9.25259313389236 0.06182471064635 -3.50673802120826e-18)
(9.41652398365477 0.06182471064635 0)
(9.58045483341775 0.0618247106463501 3.89223508745671e-18)
(9.74438568318091 0.0618247106463499 0)
(9.90831653294354 0.0618247106463501 -4.08498362061804e-18)
(10.0722473827053 0.0618247106463499 2.04249181032231e-18)
(10.2361782324703 0.0618247106463504 3.59161163974582e-17)
(10.4001090822342 0.0618247106463503 4.76592887955214e-17)
(10.5640399319952 0.0618247106463494 0)
(10.7279707817576 0.0618247106463503 0)
(10.891901631524 0.0618247106463503 2.04249181021176e-18)
(11.0558324812874 0.0618247106463503 -1.92748533137233e-19)
(11.2197633310453 0.0618247106463494 1.92748533137256e-19)
(11.3836941808104 0.0618247106463503 -2.04249181022304e-18)
(11.5476250305773 0.0618247106463504 -3.5916116398487e-17)
(11.7115558803381 0.0618247106463504 -3.9682312530246e-17)
(11.8754867300982 0.0618247106463494 0)
(12.0394175798606 0.0618247106463503 -1.92748533137229e-19)
(12.2033484296237 0.0618247106463494 -7.97721870800555e-18)
(12.3672792793871 0.0618247106463503 4.57430783841053e-17)
(12.5312101291463 0.0618247106463503 4.54244059484962e-17)
(12.6951409789123 0.0618247106463493 1.92748533137255e-19)
(12.8590718286786 0.0618247106463503 0)
(13.0230026784382 0.0618247106463503 2.04249181030541e-18)
(13.1869335282011 0.0618247106463493 1.92748533137257e-19)
(13.3508643779654 0.0618247106463513 0)
(13.5147952277282 0.0618247106463494 -4.08498362066617e-18)
(13.6787260774898 0.0618247106463503 1.92748533137231e-19)
(13.8426569272504 0.0618247106463494 -2.04249181035677e-18)
(14.006587777015 0.0618247106463503 7.78447017456806e-18)
(14.1705186267802 0.0618247106463503 -5.74197836475688e-18)
(14.334449476538 0.0618247106463503 -1.92748533137229e-19)
(14.4983803263013 0.0618247106463494 -5.93472689751668e-18)
(14.6623111760675 0.0618247106463503 -5.74197836466887e-18)
(14.8262420258299 0.0618247106463503 -3.89223508746906e-18)
(14.9901728755907 0.0618247106463503 7.97721870827402e-18)
(15.1541037253557 0.0618247106463494 0)