/*--------------------------------*- C++ -*----------------------------------*\
  =========                 |
  \\      /  F ield         | OpenFOAM: The Open Source CFD Toolbox
   \\    /   O peration     | Website:  https://openfoam.org
    \\  /    A nd           | Version:  7
     \\/     M anipulation  |
\*---------------------------------------------------------------------------*/
FoamFile
{
    version     2.0;
    format      ascii;
    class       volScalarField;
    location    "0";
    object      Cx;
}
// * * * * * * * * * * * * * * * * * * * * * * * * * * * * * * * * * * * * * //

dimensions      [0 1 0 0 0 0 0];

internalField   nonuniform List<scalar> 
21000
(
-7.25802646112941
-7.09407938338798
-6.93013230564672
-6.76618522790578
-6.60223815016468
-6.4382910724235
-6.27434399468195
-6.11039691694053
-5.94644983919995
-5.782502761459
-5.61855568371759
-5.4546086059764
-5.29066152823506
-5.12671445049405
-4.96276737275303
-4.79882029501168
-4.63487321727049
-4.47092613952912
-4.30697906178791
-4.14303198404701
-3.97908490630586
-3.81513782856458
-3.6511907508234
-3.48724367308201
-3.32329659534104
-3.15934951760006
-2.99540243985867
-2.83145536211748
-2.66750828437609
-2.50356120663512
-2.33961412889449
-2.17566705115311
-2.01171997341157
-1.84777289567039
-1.68382581792923
-1.51987874018823
-1.35593166244703
-1.19198458470567
-1.02803750696449
-0.864090429223308
-0.700143351482124
-0.53619627374097
-0.372249195999787
-0.208302118258574
-0.0443547200821719
0.119566224822959
0.2832859555069
0.446537725246419
0.609052096886078
0.770560563534613
0.930796382694487
1.08949516646659
1.24639461150842
1.40123583381388
1.55376336961171
1.70372566406262
1.85087459960409
1.99496741337143
2.1357662205821
2.27326474279909
2.4114441233687
2.55511109841548
2.7046787876457
2.86043811256224
3.0219956328271
3.18594270828218
3.34988978602331
3.5138368637645
3.67778394150604
3.84173101924744
4.00567809698821
4.16962517472917
4.3335722524704
4.49751933021192
4.6614664079533
4.82541348569395
4.98936056343494
5.15330764117631
5.3172547189175
5.48120179665881
5.64514887439999
5.80909595214104
5.97304302988223
6.13699010762341
6.30093718536493
6.4648842631063
6.62883134084696
6.79277841858795
6.95672549632931
7.12067257407049
7.2846196518119
7.44856672955286
7.61251380729381
7.77646088503522
7.9404079627764
8.10435504051763
8.26830211825875
8.43224919599966
8.59619627374089
8.76014335148228
8.92409042922345
9.08803750696476
9.2519845847058
9.41593166244651
9.57987874018779
9.74382581792927
9.9077728956702
10.0717199734103
10.2356670511536
10.3996141288958
10.5635612066351
10.7275082843758
10.8914553621205
11.0554024398623
11.2193495175984
11.3832965953418
11.5472436730871
11.7111907508261
11.8751378285646
12.0390849063052
12.2030319840467
12.3669790617884
12.5309261395259
12.6948732172702
12.8588202950149
13.0227673727528
13.1867144504939
13.3506615282366
13.5146086059777
13.6785556837176
13.8425027614564
14.0064498391994
14.1703969169429
14.3343439946789
14.4982910724206
14.6622381501652
14.8261852279059
14.9901323056449
15.1540793833882
15.3180264611316
-7.25802908208406
-7.09408724625192
-6.93014541041995
-6.76620357458831
-6.6022617387565
-6.43831990292462
-6.27437806709236
-6.11043623126025
-5.94649439542896
-5.7825525595973
-5.61861072376518
-5.4546688879333
-5.29072705210125
-5.12678521626953
-4.9628433804378
-4.79890154460575
-4.63495970877386
-4.47101787294179
-4.30707603710987
-4.14313420127826
-3.9791923654464
-3.81525052961442
-3.65130869378253
-3.48736685795044
-3.32342502211876
-3.15948318628708
-2.99554135045498
-2.83159951462309
-2.667657678791
-2.50371584295932
-2.33977400712799
-2.1758321712959
-2.01189033546366
-1.84794849963176
-1.6840066637999
-1.5200648279682
-1.35612299213629
-1.19218115630423
-1.02823932047234
-0.864297484640457
-0.700355648808568
-0.536413812976709
-0.37247197714482
-0.208530141312903
-0.0445879840893474
0.119327863865515
0.283043214879574
0.446292219462875
0.608806370067437
0.770318086221218
0.930561545793997
1.08927327316511
1.24619187012494
1.40105934605855
1.55362111883306
1.70362650182971
1.85082823389005
1.99498439017789
2.13585790712572
2.27344252154821
2.41170552256937
2.55543713684947
2.70504909687752
2.86083118920083
3.02239139697493
3.18633323052465
3.35027506635649
3.51421690218837
3.67815873802062
3.84210057385272
4.0060424096842
4.16998424551587
4.3339260813478
4.49786791718003
4.66180975301211
4.82575158884347
4.98969342467517
5.15363526050725
5.31757709633913
5.48151893217115
5.64546076800304
5.80940260383479
5.97334443966669
6.13728627549857
6.3012281113308
6.46516994716287
6.62911178299423
6.79305361882593
6.956995454658
7.12093729048989
7.284879126322
7.44882096215366
7.61276279798532
7.77670463381743
7.94064646964932
8.10458830548125
8.26853014131308
8.4324719771447
8.59641381297663
8.76035564880872
8.92429748464059
9.08823932047261
9.25218115630436
9.41612299213577
9.58006482796777
9.74400666379995
9.90794849963158
10.0718903354624
10.2358321712964
10.3997740071293
10.5637158429593
10.7276576787907
10.8915995146261
11.0555413504586
11.2194831862855
11.3834250221195
11.5473668579556
11.7113086937853
11.8752505296144
12.0391923654458
12.203134201278
12.3670760371104
12.5310178729386
12.6949597087736
12.8589015446089
13.0228433804375
13.1867852162694
13.3507270521027
13.5146688879346
13.6786107237652
13.8425525595947
14.0064943954284
14.1704362312626
14.3343780670894
14.4983199029217
14.662261738757
14.8262035745884
14.9901454104181
15.1540872462522
15.3180290820862
-7.25803178587443
-7.09409535762304
-6.93015892937182
-6.76622250112092
-6.60228607286985
-6.43834964461871
-6.27441321636721
-6.11047678811583
-5.94654035986529
-5.78260393161438
-5.618667503363
-5.45473107511186
-5.29079464686056
-5.12685821860959
-4.9629217903586
-4.79898536210729
-4.63504893385615
-4.47111250560482
-4.30717607735365
-4.14323964910278
-3.97930322085167
-3.81536679260044
-3.65143036434929
-3.48749393609795
-3.32355750784701
-3.15962107959608
-2.99568465134473
-2.83174822309358
-2.66781179484223
-2.50387536659129
-2.3399389383407
-2.17600251008936
-2.01206608183786
-1.84812965358672
-1.6841932253356
-1.52025679708464
-1.35632036883347
-1.19238394058216
-1.02844751233102
-0.864511084079878
-0.700574655828734
-0.53663822757762
-0.372701799326476
-0.208765371075304
-0.044828620445789
0.119081969468625
0.282792802392177
0.446038954425413
0.608552877008167
0.770067945367391
0.930319286828613
1.08904436688249
1.24598272105933
1.40087728037133
1.55347437218849
1.70352420555302
1.85078040277743
1.9950019035401
2.135952491443
2.27362591903425
2.41197518335052
2.55577347979903
2.70543110980874
2.86123668909981
3.0227996693171
3.18673609529014
3.35067252354123
3.51460895179237
3.67854538004388
3.84248180829523
4.00641823654597
4.17035466479689
4.33429109304808
4.49822752129956
4.6621639495509
4.82610037780151
4.99003680605246
5.15397323430379
5.31790966255494
5.48184609080622
5.64578251905736
5.80971894730837
5.97365537555951
6.13759180381065
6.30152823206213
6.46546466031346
6.62940108856408
6.79333751681503
6.95727394506636
7.1212103733175
7.28514680156886
7.44908322981978
7.6130196580707
7.77695608632207
7.94089251457321
8.10482894282439
8.26876537107548
8.43270179932636
8.59663822757754
8.76057465582889
8.92451108408001
9.08844751233129
9.25238394058229
9.41632036883296
9.58025679708421
9.74419322533564
9.90812965358654
10.0720660818366
10.2360025100899
10.399938938342
10.5638753665913
10.7278117948419
10.8917482230966
11.0556846513483
11.2196210795945
11.3835575078478
11.5474939361031
11.711430364352
11.8753667926004
12.039303220851
12.2032396491025
12.3671760773542
12.5311125056016
12.6950489338559
12.8589853621104
13.0229217903583
13.1868582186095
13.350794646862
13.5147310751132
13.678667503363
13.8426039316118
14.0065403598647
14.1704767881182
14.3344132163642
14.4983496446159
14.6622860728703
14.826222501121
14.9901589293699
15.1540953576233
15.3180317858766
-7.25803457511856
-7.09410372535545
-6.93017287559249
-6.76624202582986
-6.60231117606707
-6.43838032630419
-6.27444947654096
-6.11051862677785
-5.94658777701558
-5.78265692725293
-5.61872607748983
-5.45479522772695
-5.29086437796392
-5.12693352820121
-4.9630026784385
-4.79907182867546
-4.63514097891258
-4.47121012914953
-4.30727927938663
-4.14334842962403
-3.97941757986118
-3.81548673009821
-3.65155588033534
-3.48762503057226
-3.32369418080959
-3.15976333104693
-2.99583248128384
-2.83190163152097
-2.66797078175789
-2.50403993199522
-2.3401090822329
-2.17617823246982
-2.01224738270659
-1.84831653294372
-1.68438568318087
-1.52045483341817
-1.35652398365528
-1.19259313389224
-1.02866228412937
-0.864731434366491
-0.700800584603616
-0.53686973484077
-0.372938885077895
-0.209008035314992
-0.045076862155878
0.118828303536693
0.28253447557428
0.44577768490143
0.608291372254807
0.769809898765455
0.930069371222475
1.08880822597197
1.24576696179536
1.40068946046037
1.55332298758506
1.7034186761803
1.85073105995193
1.99501997041603
2.13605006511884
2.27381511283887
2.41225336682162
2.55612045294104
2.7058251963375
2.86165500489875
3.0232208451772
3.18715169266616
3.35108254242898
3.51501339219185
3.67894424195509
3.84287509171817
4.00680594148064
4.1707367912433
4.33466764100621
4.49859849076943
4.66252934053249
4.82646019029484
4.99039104005753
5.15432188982058
5.31825273958346
5.48218358934647
5.64611443910934
5.81004528887208
5.97397613863496
6.13790698839783
6.30183783816104
6.4657686879241
6.62969953768645
6.79363038744914
6.95756123721219
7.12149208697507
7.28542293673816
7.44935378650081
7.61328463626347
7.77721548602656
7.94114633578943
8.10507718555235
8.26900803531517
8.43293888507778
8.5968697348407
8.76080058460377
8.92473143436663
9.08866228412964
9.25259313389236
9.41652398365477
9.58045483341775
9.74438568318091
9.90831653294354
10.0722473827053
10.2361782324703
10.4001090822342
10.5640399319952
10.7279707817576
10.891901631524
11.0558324812874
11.2197633310453
11.3836941808104
11.5476250305773
11.7115558803381
11.8754867300982
12.0394175798606
12.2033484296237
12.3672792793871
12.5312101291463
12.6951409789123
12.8590718286786
13.0230026784382
13.1869335282011
13.3508643779654
13.5147952277282
13.6787260774898
13.8426569272504
14.006587777015
14.1705186267802
14.334449476538
14.4983803263013
14.6623111760675
14.8262420258299
14.9901728755907
15.1541037253557
15.3180345751207
-7.25803745251724
-7.09411235755147
-6.93018726258587
-6.7662621676206
-6.60233707265515
-6.43841197768964
-6.27448688272376
-6.11056178775801
-5.94663669279308
-5.78271159782779
-5.61878650286204
-5.45486140789651
-5.29093631293083
-5.12701121796548
-4.96308612300012
-4.79916102803444
-4.63523593306891
-4.47131083810321
-4.30738574313766
-4.14346064817242
-3.97953555320693
-3.81561045824131
-3.65168536327579
-3.48776026831006
-3.32383517334475
-3.15991007837944
-2.99598498341371
-2.83205988844818
-2.66813479348246
-2.50420969851714
-2.34028460355217
-2.17635950858645
-2.01243441362058
-1.84850931865506
-1.68458422368956
-1.52065912872422
-1.35673403375868
-1.19280893879299
-1.02888384382747
-0.864958748861949
-0.701033653896427
-0.537108558930934
-0.373183463965412
-0.209258368999862
-0.0453329495880577
0.118566620449032
0.282267984292099
0.445508157907695
0.608021602596299
0.769543696552718
0.929811556985906
1.08856462178159
1.24554438341623
1.40049570446207
1.55316681843892
1.70330981152871
1.85068015763546
1.99503860829964
2.13615072263276
2.27401028615626
2.4125403423446
2.55647839224547
2.70623173805268
2.86208654164667
3.02365533237306
3.18758042506898
3.35150552003445
3.51543061499998
3.67935570996585
3.84328080493158
4.0072058998967
4.171130994862
4.33505608982756
4.49898118479342
4.66290627975914
4.82683137472413
4.99075646968946
5.15468156465517
5.31860665962069
5.48253175458635
5.64645684955186
5.81038194451725
5.97430703948278
6.1382321344483
6.30215722941415
6.46608232437986
6.63000741934486
6.79393251431019
6.95785760927589
7.12178270424141
7.28570779920716
7.44963289417245
7.61355798913775
7.77748308410349
7.94140817906901
8.10533327403457
8.26925836900004
8.4331834639653
8.59710855893086
8.76103365389658
8.92495874886209
9.08888384382774
9.25280893879311
9.41673403375817
9.58065912872379
9.7445842236896
9.90850931865488
10.0724344136193
10.2363595085869
10.4002846035535
10.5642096985171
10.7281347934821
10.8920598884512
11.0559849834172
11.2199100783779
11.3838351733455
11.5477602683152
11.7116853632785
11.8756104582413
12.0395355532063
12.2034606481721
12.3673857431381
12.5313108381
12.6952359330686
12.8591610280375
13.0230861229999
13.1870112179654
13.3509363129323
13.5148614078978
13.678786502862
13.8427115978252
14.0066366927925
14.1705617877604
14.3344868827208
14.4984119776868
14.6623370726556
14.8262621676207
14.990187262584
15.1541123575517
15.3180374525194
-7.2580404208566
-7.09412126256955
-6.93020210428267
-6.7662829459961
-6.60236378770938
-6.43844462942258
-6.27452547113541
-6.11060631284838
-5.94668715456217
-5.78276799627559
-5.61884883798855
-5.45492967970174
-5.29101052141479
-5.12709136312815
-4.9631722048415
-4.79925304655453
-4.63533388826773
-4.47141472998075
-4.30749557169391
-4.14357641340738
-3.9796572551206
-3.8157380968337
-3.6518189385469
-3.48789978025989
-3.3239806219733
-3.1600614636867
-2.99614230539968
-2.83222314711287
-2.66830398882587
-2.50438483053926
-2.340465672253
-2.176546513966
-2.01262735567885
-1.84870819739205
-1.68478903910527
-1.52086988081864
-1.35695072253181
-1.19303156424484
-1.02911240595804
-0.865193247671232
-0.701274089384426
-0.537354931097649
-0.373435772810843
-0.209516614524009
-0.0455971307076988
0.118296666822092
0.281993070506347
0.445230112465438
0.607743306818768
0.769269080969535
0.929545594481075
1.08831331843279
1.24531477040226
1.40029582476497
1.55300571353343
1.70319750618593
1.8506276465399
1.99505783523777
2.13625456145026
2.27421162797057
2.4128363877947
2.55684764430075
2.7066511286034
2.86253171719424
3.02410355161166
3.18802270763333
3.35194186592008
3.51586102420689
3.67978018249404
3.84369934078106
4.00761849906746
4.17153765735405
4.3354568156409
4.49937597392803
4.66329513221503
4.82721429050132
4.99113344878793
5.15505260707492
5.31897176536173
5.48289092364866
5.64681008193547
5.81072924022214
5.97464839850895
6.13856755679575
6.30248671508289
6.46640587336988
6.63032503165616
6.79424418994278
6.95816334822977
7.12208250651657
7.2860016648036
7.44992082309018
7.61383998137677
7.77775913966379
7.94167829795059
8.10559745623744
8.26951661452418
8.43343577281072
8.59735493109757
8.76127408938458
8.92519324767137
9.08911240595831
9.25303156424497
9.4169507225313
9.58086988081821
9.7447890391053
9.90870819739186
10.0726273556776
10.2365465139665
10.4004656722543
10.5643848305393
10.7283039888256
10.8922231471158
11.0561423054032
11.2200614636851
11.3839806219741
11.547899780265
11.7118189385496
11.8757380968337
12.03965725512
12.2035764134071
12.3674955716944
12.5314147299776
12.6953338882674
12.8592530465576
13.0231722048413
13.1870913631281
13.3510105214163
13.514929679703
13.6788488379885
13.842767996273
14.0066871545616
14.1706063128507
14.3345254711325
14.4984446294197
14.6623637877098
14.8262829459962
14.9902021042808
15.1541212625698
15.3180404208588
-7.25804348301083
-7.09413044903225
-6.93021741505384
-6.76630438107574
-6.60239134709749
-6.43847831311916
-6.27456527914046
-6.1106522451619
-5.94673921118416
-5.78282617720605
-5.61891314322748
-5.45500010924915
-5.29108707527065
-5.12717404129248
-4.96326100731431
-4.79934797333581
-4.63543493935747
-4.47152190537896
-4.30760887140059
-4.14369583742253
-3.97978280344422
-3.81586976946579
-3.65195673548746
-3.48804370150892
-3.32413066753079
-3.16021763355267
-2.99630459957412
-2.83239156559578
-2.66847853161724
-2.50456549763911
-2.34065246366132
-2.17673942968278
-2.01282639570411
-1.84891336172577
-1.68500032774746
-1.5210872937693
-1.35717425979094
-1.19326122581244
-1.02934819183411
-0.865435157855773
-0.701522123877437
-0.537609089899129
-0.373696055920793
-0.209783021942428
-0.045869661317125
0.118018181264082
0.281709468022343
0.444943279347582
0.607456215452688
0.768985786109672
0.929271226180295
1.08805407259201
1.24507790042222
1.40008962782811
1.55283951687268
1.70308165140799
1.85057347581936
1.99507766984766
2.13636168211734
2.27441933323879
2.41314178982948
2.55722856664935
2.70708377408016
2.86299096259841
3.0245659368965
3.1884789686143
3.35239200259258
3.51630503657092
3.68021807054961
3.84413110452815
4.00804413850608
4.1719571724842
4.33587020646258
4.49978324044125
4.66369627441977
4.82760930839759
4.99152234237574
5.15543537635426
5.31934841033259
5.48326144431106
5.6471744782894
5.8110875122676
5.97500054624594
6.13891358022427
6.30282661420294
6.46673964818146
6.63065268215928
6.79456571613743
6.95847875011594
7.12239178409427
7.28630481807283
7.45021785205094
7.61413088602906
7.77804392000762
7.94195695398595
8.10586998796432
8.2697830219426
8.43369605592068
8.59760908989906
8.76152212387759
8.92543515785591
9.08934819183438
9.25326122581256
9.41717425979044
9.58108729376888
9.7450003277475
9.90891336172559
10.0728263957028
10.2367394296833
10.4006524636626
10.5645654976391
10.728478531617
10.8923915655987
11.0563045995776
11.2202176335511
11.3841306675315
11.5480437015139
11.7119567354901
11.8758697694658
12.0397828034436
12.2036958374222
12.3676088714011
12.5315219053758
12.6954349393572
12.8593479733389
13.0232610073141
13.1871740412924
13.3510870752721
13.5150001092504
13.6789131432275
13.8428261772035
14.0067392111836
14.1706522451642
14.3345652791375
14.4984783131163
14.662391347098
14.8263043810758
14.990217415052
15.1541304490325
15.318043483013
-7.25804664194498
-7.09413992583469
-6.93023320972457
-6.76632649361477
-6.6024197775048
-6.43851306139476
-6.27460634528436
-6.1106996291741
-5.94679291306464
-5.78288619695482
-5.61897948084455
-5.45507276473451
-5.29116604862431
-5.12725933251443
-4.96335261640455
-4.79944590029434
-4.63553918418429
-4.47163246807407
-4.307725751964
-4.14381903585423
-3.97991231974421
-3.81600560363408
-3.65209888752404
-3.48819217141379
-3.32428545530395
-3.16037873919411
-2.99647202308386
-2.83256530697382
-2.66865859086357
-2.50475187475373
-2.34084515864423
-2.17693844253399
-2.0130317264236
-1.84912501031356
-1.68521829420354
-1.52131157809367
-1.35740486198361
-1.1934981458734
-1.02959142976336
-0.865684713653317
-0.701777997543273
-0.537871281433257
-0.373964565323213
-0.210057849213141
-0.0461508053033626
0.1177308941219
0.281416902232312
0.444647380818075
0.607160050511811
0.768693537662933
0.92898818641667
1.08778663323505
1.24483354411802
1.39987691399361
1.55266806753044
1.70296213501408
1.85051759302095
1.99509813133494
2.13647218835774
2.27463360307965
2.41345684416643
2.55762152813399
2.70753009340808
2.86346472253974
3.02504293594782
3.18894964980207
3.35285636591206
3.5167630820221
3.6806697981325
3.84457651424275
4.00848323035239
4.17238994646222
4.33629666257231
4.50020337868268
4.66411009479291
4.82801681090244
4.99192352701229
5.15583024312252
5.31973695923256
5.48364367534274
5.64755039145278
5.81145710756269
5.97536382367274
6.13927053978278
6.30317725589316
6.46708397200338
6.63099068811291
6.79489740422277
6.95880412033299
7.12271083644303
7.28661755255329
7.45052426866312
7.61443098477294
7.7783377008832
7.94224441699324
8.10615113310333
8.27005784921332
8.4339645653231
8.59787128143319
8.76177799754342
8.92568471365345
9.08959142976362
9.25349814587353
9.41740486198311
9.58131157809325
9.74521829420358
9.90912501031338
10.0730317264223
10.2369384425345
10.4008451586456
10.5647518747538
10.7286585908633
10.8925653069768
11.0564720230874
11.2203787391925
11.3842854553047
11.5481921714188
11.7120988875267
11.8760056036341
12.0399123197436
12.2038190358539
12.3677257519645
12.5316324680709
12.695539184184
12.8594459002974
13.0233526164043
13.1872593325143
13.3511660486257
13.5150727647358
13.6789794808446
13.8428861969523
14.0067929130641
14.1706996291764
14.3346063452814
14.498513061392
14.6624197775053
14.8263264936148
14.9902332097228
15.1541399258349
15.3180466419471
-7.25804990071778
-7.0941497021531
-6.93024950358859
-6.76634930502439
-6.60244910646003
-6.43854890789559
-6.2746487093308
-6.11074851076614
-5.94684831220229
-5.78294811363807
-5.61904791507341
-5.45514771650897
-5.29124751794437
-5.1273473193801
-4.96344712081582
-4.79954692225122
-4.63564672368678
-4.47174652512217
-4.3078463265577
-4.14394612799353
-3.98004592942913
-3.8161457308646
-3.65224553230016
-3.48834533373552
-3.32444513517128
-3.16054493660705
-2.9966447380424
-2.83274453947797
-2.66884434091333
-2.50494414234909
-2.3410439437852
-2.17714374522056
-2.01324354665578
-1.84934334809134
-1.68544314952693
-1.52154295096266
-1.35764275239821
-1.1937425538336
-1.02984235526917
-0.865942156704729
-0.70204195814029
-0.53814175957588
-0.374241561011441
-0.210341362446974
-0.0464408348936086
0.117434527220028
0.281115089849423
0.444342130362976
0.606854525224161
0.768392052649451
0.928696201126811
1.08751074140406
1.24458146488266
1.39965747729332
1.55249119949437
1.70283884127785
1.85045994403395
1.99511923951225
2.13658618717347
2.27485464496829
2.4137818558693
2.55802690925481
2.70799051875254
2.86395345575306
3.02553501063613
3.18943520694967
3.35333540551405
3.51723560407849
3.68113580264328
3.84503600120792
4.00893619977196
4.17283639833619
4.33673659690067
4.50063679546543
4.66453699403006
4.82843719259398
4.99233739115823
5.15623758972286
5.3201377882873
5.48403798685186
5.64793818541629
5.81183838398061
5.97573858254505
6.13963878110948
6.30353897967425
6.46743917823887
6.6313393768028
6.79523957536705
6.95913977393166
7.1230399724961
7.28694017106076
7.45084036962497
7.61474056818919
7.77864076675385
7.94254096531829
8.10644116388277
8.27034136244715
8.43424156101133
8.59814175957581
8.76204195814044
8.92594215670486
9.08984235526943
9.25374255383373
9.41764275239771
9.58154295096225
9.74544314952697
9.90934334809116
10.0732435466545
10.2371437452211
10.4010439437865
10.5649441423491
10.728844340913
10.8927445394809
11.0566447380459
11.2205449366055
11.384445135172
11.5483453337405
11.7122455323028
11.8761457308646
12.0400459294285
12.2039461279932
12.3678463265582
12.531746525119
12.6956467236865
12.8595469222543
13.0234471208156
13.18734731938
13.3512475179458
13.5151477165102
13.6790479150734
13.8429481136356
14.0068483122017
14.1707485107684
14.3346487093279
14.4985489078928
14.6624491064605
14.8263493050245
14.9902495035868
15.1541497021533
15.3180499007199
-7.25805326248466
-7.09415978745373
-6.93026631242297
-6.76637283739252
-6.60247936236192
-6.43858588733123
-6.2746924123002
-6.11079893726929
-5.94690546223919
-5.78301198720872
-5.61911851217781
-5.45522503714713
-5.29133156211629
-5.12743808708577
-4.96354461205524
-4.79965113702439
-4.63575766199371
-4.47186418696284
-4.30797071193213
-4.14407723690172
-3.98018376187106
-3.81629028684028
-3.6523968118096
-3.48850333677871
-3.32460986174823
-3.16071638671775
-2.99682291168686
-2.83292943665617
-2.66903596162528
-2.5051424865948
-2.34124901156466
-2.17735553653377
-2.01346206150275
-1.84956858647206
-1.6856751114414
-1.52178163641089
-1.35788816138019
-1.19399468634933
-1.03010121131865
-0.866207736287968
-0.702314261257282
-0.538420786226624
-0.374527311195938
-0.210633836165225
-0.046740030918832
0.117128793591121
0.280803738633514
0.444027232413058
0.606539343754216
0.768081039145721
0.928394987585544
1.08722612995672
1.24432141863112
1.39943110524943
1.55230874150529
1.70271165081537
1.85040047303752
1.99514101481841
2.13670378894836
2.27508267293717
2.41411713964352
2.55844510253776
2.70846549593763
2.86445763547159
3.02604263742942
3.18993611021425
3.35382958524489
3.51772306027557
3.68161653530661
3.8455100103375
4.00940348536778
4.17329696039826
4.33719043542899
4.50108391046
4.66497738549087
4.82887086052104
4.99276433555154
5.15665781058241
5.3205512856131
5.48444476064391
5.64833823567459
5.81223171070515
5.97612518573584
6.14001866076652
6.30391213579753
6.4678056108284
6.63169908585858
6.79559256088908
6.95948603591994
7.12337951095062
7.28727298598152
7.45116646101199
7.61505993604246
7.77895341107336
7.94284688610404
8.10674036113477
8.2706338361654
8.43452731119583
8.59842078622655
8.76231426125743
8.9262077362881
9.09010121131892
9.25399468634946
9.41788816137969
9.58178163641048
9.74567511144144
9.90956858647188
10.0734620615015
10.2373555365343
10.401249011566
10.5651424865948
10.729035961625
10.8929294366591
11.0568229116903
11.2207163867162
11.384609861749
11.5485033367837
11.7123968118122
11.8762902868403
12.0401837618704
12.2040772369014
12.3679707119326
12.5318641869597
12.6957576619934
12.8596511370275
13.023544612055
13.1874380870857
13.3513315621177
13.5152250371484
13.6791185121778
13.8430119872062
14.0069054622386
14.1707989372716
14.3346924122973
14.4985858873285
14.6624793623624
14.8263728373926
14.9902663124212
15.154159787454
15.3180532624868
-7.25805673050075
-7.09417019150202
-6.93028365250345
-6.76639711350519
-6.60251057450677
-6.43862403550828
-6.27473749650943
-6.11085095751072
-5.9469644185128
-5.78307787951453
-5.6191913405158
-5.45530480151731
-5.29141826251866
-5.12753172352033
-4.96364518452199
-4.79975864552333
-4.63587210652483
-4.47198556752616
-4.30809902852764
-4.14421248952942
-3.98032595053095
-3.81643941153236
-3.65255287253387
-3.48866633353517
-3.32477979453688
-3.16089325553859
-2.99700671653989
-2.83312017754139
-2.66923363854269
-2.5053470995444
-2.34146056054644
-2.17757402154775
-2.01368748254891
-1.84980094355042
-1.68591440455195
-1.52202786555363
-1.35814132655511
-1.19425478755645
-1.03036824855796
-0.866481709559463
-0.702595170560967
-0.538708631562499
-0.374822092564003
-0.210935553565479
-0.0470486830857242
0.11681339719822
0.280482547108194
0.443702382057488
0.606214200916571
0.767760196001944
0.928084254132021
1.08693252330766
1.24405315356397
1.39919757866868
1.55212051689125
1.70258044046957
1.85033912244651
1.9951634783382
2.13682510755497
2.27531790778335
2.41446302014086
2.55887651291477
2.70895548487785
2.86497774988518
3.02656630785453
3.19045284461239
3.35433938361084
3.51822592260933
3.68211246160817
3.84599900060687
4.00988553960497
4.17377207860325
4.3376586176018
4.50154515660062
4.6654316955993
4.82931823459728
4.99320477359559
5.15709131259427
5.32097785159277
5.48486439059139
5.64875092958988
5.81263746858825
5.97652400758675
6.14041054658524
6.30429708558406
6.46818362458274
6.63207016358073
6.79595670257904
6.95984324157771
7.12372978057621
7.28761631957491
7.45150285857319
7.61538939757147
7.77927593657018
7.94316247556867
8.10704901456721
8.27093555356565
8.43482209256389
8.59870863156243
8.76259517056112
8.9264817095596
9.09036824855822
9.25425478755657
9.41814132655461
9.58202786555321
9.74591440455199
9.90980094355024
10.0736874825477
10.2375740215482
10.4014605605478
10.5653470995444
10.7292336385424
10.8931201775443
11.0570067165433
11.220893255537
11.3847797945376
11.5486663335401
11.7125528725365
11.8764394115324
12.0403259505304
12.2042124895291
12.3680990285281
12.531985567523
12.6958721065246
12.8597586455264
13.0236451845217
13.1875317235202
13.3514182625201
13.5153048015186
13.6791913405158
13.843077879512
14.0069644185122
14.170850957513
14.3347374965066
14.4986240355055
14.6625105745072
14.8263971135053
14.9902836525017
15.1541701915023
15.3180567305029
-7.25806030812409
-7.09418092437203
-6.93030154062014
-6.76642215686855
-6.60254277311681
-6.43866338936499
-6.27478400561282
-6.11090462186078
-5.94702523810953
-5.78314585435793
-5.61926647060589
-5.45538708685407
-5.29150770310209
-5.12762831935044
-4.96374893559877
-4.79986955184679
-4.63599016809497
-4.47211078434297
-4.30823140059112
-4.14435201683957
-3.98047263308777
-3.81659324933586
-3.65271386558404
-3.48883448183203
-3.32495509808041
-3.16107571432879
-2.99719633057677
-2.83331694682494
-2.66943756307292
-2.5055581793213
-2.34167879557001
-2.177799411818
-2.01392002806584
-1.85004064431402
-1.68616126056222
-1.52228187681057
-1.35840249305873
-1.19452310930675
-1.03064372555493
-0.86676434180311
-0.702884958051288
-0.539005574299495
-0.375126190547673
-0.211246806795824
-0.0473670902572103
0.116488032648078
0.28015120426876
0.443367264748764
0.605878781880344
0.767429212550426
0.927763699887451
1.08662963716152
1.24377640992361
1.39895667143015
1.55192634339656
1.70244508319094
1.85027583285583
1.99518665182283
2.13695026046482
2.27556057728226
2.41481983227388
2.55932155811573
2.70946096002344
2.86551430261304
3.02710652897309
3.19098591048965
3.35486529424142
3.51874467799324
3.6826240617454
3.84650344549742
4.01038282924885
4.17426221300046
4.33814159675233
4.50202098050448
4.66590036425648
4.8297797480078
4.99365913175943
5.15753851551143
5.32141789926325
5.4852972830152
5.64917666676702
5.81305605051871
5.97693543427054
6.14081481802236
6.3046942017745
6.4685735855265
6.63245296927782
6.79633235302946
6.96021173678145
7.12409112053327
7.2879705042853
7.45184988803691
7.61572927178852
7.77960865554055
7.94348803929237
8.10736742304423
8.271246806796
8.43512619054756
8.59900557429942
8.76288495805144
8.92676434180325
9.09064372555519
9.25452310930687
9.41840249305824
9.58228187681016
9.74616126056226
9.91004064431384
10.0739200280646
10.2377994118185
10.4016787955713
10.5655581793213
10.7294375630726
10.8933169468278
11.0571963305802
11.2210757143272
11.3849550980812
11.5488344818369
11.7127138655867
11.8765932493359
12.0404726330872
12.2043520168393
12.3682314005916
12.5321107843399
12.6959901680947
12.8598695518498
13.0237489355985
13.1876283193503
13.3515077031035
13.5153870868553
13.6792664706059
13.8431458543554
14.007025238109
14.170904621863
14.3347840056099
14.4986633893622
14.6625427731173
14.8264221568686
14.9903015406183
15.1541809243723
15.3180603081262
-7.25806399881882
-7.09419199645624
-6.93031999409381
-6.76644799173169
-6.60257598936942
-6.43870398700706
-6.27483198464436
-6.1109599822818
-5.94708797992002
-5.78321597755789
-5.61934397519532
-5.45547197283296
-5.29159997047046
-5.12772796810827