/*--------------------------------*- C++ -*----------------------------------*\
  =========                 |
  \\      /  F ield         | OpenFOAM: The Open Source CFD Toolbox
   \\    /   O peration     | Website:  https://openfoam.org
    \\  /    A nd           | Version:  7
     \\/     M anipulation  |
\*---------------------------------------------------------------------------*/
FoamFile
{
    version     2.0;
    format      ascii;
    class       volScalarField;
    location    "0";
    object      Cy;
}
// * * * * * * * * * * * * * * * * * * * * * * * * * * * * * * * * * * * * * //

dimensions      [0 1 0 0 0 0 0];

internalField   nonuniform List<scalar> 
21000
(
1.00678506588753
1.00678506588753
1.00678506588753
1.00678506588753
1.00678506588753
1.00678506588753
1.00678506588753
1.00678506588753
1.00678506588753
1.00678506588753
1.00678506588753
1.00678506588753
1.00678506588753
1.00678506588753
1.00678506588753
1.00678506588753
1.00678506588753
1.00678506588753
1.00678506588753
1.00678506588753
1.00678506588753
1.00678506588753
1.00678506588753
1.00678506588753
1.00678506588753
1.00678506588753
1.00678506588753
1.00678506588753
1.00678506588753
1.00678506588753
1.00678506588753
1.00678506588753
1.00678506588753
1.00678506588753
1.00678506588753
1.00678506588753
1.00678506588753
1.00678506588753
1.00678506588753
1.00678506588753
1.00678506588753
1.00678506588753
1.00678506588753
1.00678506588753
1.00669692271191
1.00417897755191
0.995994895149936
0.981172107043366
0.95973511450887
0.931719411541941
0.897171358712402
0.856148085594627
0.808717546892356
0.754958169835051
0.694958842283837
0.628818676191652
0.556647359558828
0.478564183259901
0.39469841159286
0.30552229632031
0.217596245728555
0.139166773999913
0.072639967686284
0.0254526788743482
0.00848154366445274
0.00848133235941562
0.00848133235941553
0.00848133235941554
0.00848133235941562
0.00848133235941553
0.00848133235941553
0.00848133235941558
0.00848133235941556
0.00848133235941551
0.00848133235941561
0.00848133235941555
0.00848133235941563
0.00848133235941553
0.00848133235941552
0.00848133235941554
0.00848133235941557
0.00848133235941566
0.00848133235941556
0.00848133235941565
0.00848133235941557
0.00848133235941555
0.0084813323594156
0.00848133235941561
0.00848133235941553
0.0084813323594156
0.00848133235941543
0.00848133235941558
0.00848133235941552
0.00848133235941554
0.00848133235941562
0.00848133235941555
0.00848133235941552
0.00848133235941563
0.00848133235941555
0.00848133235941552
0.00848133235941553
0.00848133235941563
0.00848133235941562
0.00848133235941553
0.00848133235941555
0.00848133235941552
0.00848133235941562
0.00848133235941606
0.00848133235941529
0.00848133235941527
0.00848133235941527
0.00848133235941614
0.00848133235941526
0.00848133235941614
0.0084813323594144
0.00848133235941615
0.00848133235941529
0.00848133235941527
0.00848133235941615
0.00848133235941613
0.00848133235941527
0.00848133235941527
0.00848133235941614
0.0084813323594144
0.00848133235941615
0.00848133235941527
0.00848133235941529
0.00848133235941613
0.00848133235941614
0.00848133235941527
0.00848133235941613
0.00848133235941529
0.00848133235941527
0.00848133235941527
0.00848133235941527
0.00848133235941529
0.00848133235941613
0.00848133235941614
0.00848133235941526
0.00848133235941529
1.02056971090737
1.02056971090737
1.02056971090737
1.02056971090737
1.02056971090737
1.02056971090737
1.02056971090737
1.02056971090737
1.02056971090737
1.02056971090737
1.02056971090737
1.02056971090737
1.02056971090737
1.02056971090737
1.02056971090737
1.02056971090737
1.02056971090737
1.02056971090737
1.02056971090737
1.02056971090737
1.02056971090737
1.02056971090737
1.02056971090737
1.02056971090737
1.02056971090737
1.02056971090737
1.02056971090737
1.02056971090737
1.02056971090737
1.02056971090737
1.02056971090737
1.02056971090737
1.02056971090737
1.02056971090737
1.02056971090737
1.02056971090737
1.02056971090737
1.02056971090737
1.02056971090737
1.02056971090737
1.02056971090737
1.02056971090737
1.02056971090737
1.02056971090737
1.02048187200902
1.01797261908235
1.00981678894699
0.995045170538994
0.973682180720918
0.945763191195802
0.911334402789422
0.870452748222919
0.823185948037136
0.7696121592
0.709819963262141
0.643908130617095
0.57198597126689
0.494172364958468
0.410596130532992
0.321727884749416
0.234105302286344
0.155946517295081
0.0896493314556122
0.0426249083930201
0.0257123492098108
0.0257121386342167
0.0257121386342169
0.0257121386342169
0.0257121386342168
0.0257121386342169
0.025712138634217
0.0257121386342168
0.0257121386342168
0.0257121386342169
0.0257121386342168
0.0257121386342169
0.0257121386342168
0.0257121386342168
0.0257121386342167
0.0257121386342169
0.0257121386342168
0.0257121386342167
0.0257121386342168
0.0257121386342167
0.0257121386342168
0.0257121386342169
0.0257121386342168
0.0257121386342168
0.0257121386342169
0.0257121386342167
0.0257121386342168
0.0257121386342168
0.0257121386342169
0.0257121386342169
0.0257121386342168
0.0257121386342167
0.0257121386342169
0.0257121386342168
0.0257121386342168
0.0257121386342167
0.0257121386342168
0.0257121386342168
0.0257121386342168
0.0257121386342168
0.0257121386342168
0.0257121386342168
0.0257121386342168
0.0257121386342169
0.0257121386342165
0.0257121386342174
0.0257121386342165
0.0257121386342165
0.0257121386342165
0.0257121386342173
0.0257121386342174
0.0257121386342165
0.0257121386342173
0.0257121386342165
0.0257121386342164
0.0257121386342165
0.0257121386342174
0.0257121386342165
0.0257121386342174
0.0257121386342165
0.0257121386342165
0.0257121386342174
0.0257121386342165
0.0257121386342165
0.0257121386342165
0.0257121386342173
0.0257121386342165
0.0257121386342165
0.0257121386342173
0.0257121386342174
0.0257121386342165
0.0257121386342173
0.0257121386342156
0.0257121386342174
0.0257121386342165
0.0257121386342173
1.03479002201732
1.03479002201732
1.03479002201732
1.03479002201732
1.03479002201732
1.03479002201732
1.03479002201732
1.03479002201732
1.03479002201732
1.03479002201732
1.03479002201732
1.03479002201732
1.03479002201732
1.03479002201732
1.03479002201732
1.03479002201732
1.03479002201732
1.03479002201732
1.03479002201732
1.03479002201732
1.03479002201732
1.03479002201732
1.03479002201732
1.03479002201732
1.03479002201732
1.03479002201732
1.03479002201732
1.03479002201732
1.03479002201732
1.03479002201732
1.03479002201732
1.03479002201732
1.03479002201732
1.03479002201732
1.03479002201732
1.03479002201732
1.03479002201732
1.03479002201732
1.03479002201732
1.03479002201732
1.03479002201732
1.03479002201732
1.03479002201732
1.03479002201732
1.03470249701315
1.03220221104745
1.02407552611894
1.00935669467239
0.988070046487536
0.960250827108745
0.925945072567405
0.88520951250789
0.83811162590497
0.784729290920357
0.725150773109733
0.659474490507948
0.587809363167214
0.510273846707153
0.426996300426705
0.338445654405891
0.251136131285928
0.173256588024871
0.107196279663338
0.0603398694251162
0.0434877373447536
0.0434875275216573
0.0434875275216574
0.0434875275216574
0.0434875275216574
0.0434875275216573
0.0434875275216574
0.0434875275216573
0.0434875275216574
0.0434875275216573
0.0434875275216574
0.0434875275216574
0.0434875275216572
0.0434875275216573
0.0434875275216574
0.0434875275216573
0.0434875275216573
0.0434875275216573
0.0434875275216573
0.0434875275216574
0.0434875275216572
0.0434875275216573
0.0434875275216573
0.0434875275216573
0.0434875275216573
0.0434875275216573
0.0434875275216573
0.0434875275216574
0.0434875275216573
0.0434875275216573
0.0434875275216573
0.0434875275216573
0.0434875275216574
0.0434875275216573
0.0434875275216573
0.0434875275216573
0.0434875275216574
0.0434875275216572
0.0434875275216573
0.0434875275216574
0.0434875275216572
0.0434875275216574
0.0434875275216573
0.0434875275216572
0.0434875275216572
0.0434875275216571
0.043487527521658
0.0434875275216571
0.0434875275216572
0.0434875275216571
0.043487527521658
0.0434875275216562
0.0434875275216571
0.043487527521658
0.043487527521658
0.0434875275216571
0.0434875275216571
0.0434875275216571
0.0434875275216571
0.0434875275216571
0.043487527521658
0.0434875275216571
0.043487527521658
0.0434875275216562
0.043487527521658
0.0434875275216571
0.043487527521658
0.0434875275216571
0.0434875275216571
0.0434875275216571
0.0434875275216571
0.0434875275216571
0.043487527521658
0.0434875275216571
0.0434875275216571
0.0434875275216571
1.04945976851708
1.04945976851708
1.04945976851708
1.04945976851708
1.04945976851708
1.04945976851708
1.04945976851708
1.04945976851708
1.04945976851708
1.04945976851708
1.04945976851708
1.04945976851708
1.04945976851708
1.04945976851708
1.04945976851708
1.04945976851708
1.04945976851708
1.04945976851708
1.04945976851708
1.04945976851708
1.04945976851708
1.04945976851708
1.04945976851708
1.04945976851708
1.04945976851708
1.04945976851708
1.04945976851708
1.04945976851708
1.04945976851708
1.04945976851708
1.04945976851708
1.04945976851708
1.04945976851708
1.04945976851708
1.04945976851708
1.04945976851708
1.04945976851708
1.04945976851708
1.04945976851708
1.04945976851708
1.04945976851708
1.04945976851708
1.04945976851708
1.04945976851708
1.04937256732794
1.0468815317342
1.03878491317572
1.02412053706967
1.00291264335978
0.975196347443292
0.941017515347125
0.900432667218533
0.853509032828882
0.800324202718766
0.740966116458128
0.675532828582281
0.604132856864069
0.526884219384829
0.443914801370322
0.355691792913132
0.268705223486223
0.191113747323777
0.125297802790917
0.0786147151056593
0.0618249196931652
0.06182471064635
0.0618247106463501
0.06182471064635
0.06182471064635
0.06182471064635
0.06182471064635
0.0618247106463501
0.0618247106463499
0.0618247106463501
0.0618247106463501
0.0618247106463501
0.0618247106463501
0.0618247106463501
0.06182471064635
0.0618247106463501
0.0618247106463501
0.06182471064635
0.0618247106463501
0.06182471064635
0.06182471064635
0.06182471064635
0.06182471064635
0.0618247106463501
0.06182471064635
0.0618247106463501
0.06182471064635
0.06182471064635
0.0618247106463501
0.06182471064635
0.06182471064635
0.0618247106463501
0.0618247106463501
0.06182471064635
0.0618247106463499
0.0618247106463501
0.06182471064635
0.06182471064635
0.06182471064635
0.06182471064635
0.0618247106463501
0.0618247106463499
0.0618247106463501
0.0618247106463499
0.0618247106463504
0.0618247106463503
0.0618247106463494
0.0618247106463503
0.0618247106463503
0.0618247106463503
0.0618247106463494
0.0618247106463503
0.0618247106463504
0.0618247106463504
0.0618247106463494
0.0618247106463503
0.0618247106463494
0.0618247106463503
0.0618247106463503
0.0618247106463493
0.0618247106463503
0.0618247106463503
0.0618247106463493
0.0618247106463513
0.0618247106463494
0.0618247106463503
0.0618247106463494
0.0618247106463503
0.0618247106463503
0.0618247106463503
0.0618247106463494
0.0618247106463503
0.0618247106463503
0.0618247106463503
0.0618247106463494
0.0618247106463503
1.06459315488719
1.06459315488719
1.06459315488719
1.06459315488719
1.06459315488719
1.06459315488719
1.06459315488719
1.06459315488719
1.06459315488719
1.06459315488719
1.06459315488719
1.06459315488719
1.06459315488719
1.06459315488719
1.06459315488719
1.06459315488719
1.06459315488719
1.06459315488719
1.06459315488719
1.06459315488719
1.06459315488719
1.06459315488719
1.06459315488719
1.06459315488719
1.06459315488719
1.06459315488719
1.06459315488719
1.06459315488719
1.06459315488719
1.06459315488719
1.06459315488719
1.06459315488719
1.06459315488719
1.06459315488719
1.06459315488719
1.06459315488719
1.06459315488719
1.06459315488719
1.06459315488719
1.06459315488719
1.06459315488719
1.06459315488719
1.06459315488719
1.06459315488719
1.06450628774752
1.06202479489454
1.05395919298433
1.03935099332965
1.01822434319803
0.990614223724946
0.956566325557998
0.916136952723918
0.869393077911782
0.816411994947336
0.757281307108018
0.692098693936336
0.620972258206226
0.54401956662553
0.461368015356156
0.373482999509983
0.286829590842479
0.209535286067523
0.143971428308856
0.0974671406981218
0.0807416518549867
0.0807414436089876
0.0807414436089875
0.0807414436089876
0.0807414436089875
0.0807414436089876
0.0807414436089876
0.0807414436089874
0.0807414436089877
0.0807414436089874
0.0807414436089876
0.0807414436089877
0.0807414436089877
0.0807414436089877
0.0807414436089876
0.0807414436089876
0.0807414436089876
0.0807414436089876
0.0807414436089875
0.0807414436089875
0.0807414436089876
0.0807414436089876
0.0807414436089876
0.0807414436089875
0.0807414436089877
0.0807414436089875
0.0807414436089876
0.0807414436089877
0.0807414436089874
0.0807414436089876
0.0807414436089876
0.0807414436089875
0.0807414436089875
0.0807414436089876
0.0807414436089876
0.0807414436089876
0.0807414436089875
0.0807414436089877
0.0807414436089876
0.0807414436089875
0.0807414436089875
0.0807414436089876
0.0807414436089876
0.0807414436089877
0.0807414436089873
0.0807414436089873
0.0807414436089883
0.0807414436089873
0.0807414436089864
0.0807414436089883
0.0807414436089883
0.0807414436089874
0.0807414436089873
0.0807414436089873
0.0807414436089873
0.0807414436089883
0.0807414436089873
0.0807414436089883
0.0807414436089873
0.0807414436089873
0.0807414436089883
0.0807414436089863
0.0807414436089883
0.0807414436089873
0.0807414436089873
0.0807414436089873
0.0807414436089884
0.0807414436089874
0.0807414436089873
0.0807414436089883
0.0807414436089873
0.0807414436089874
0.0807414436089874
0.0807414436089873
0.0807414436089884
0.0807414436089873
1.08020483454303
1.08020483454303
1.08020483454303
1.08020483454303
1.08020483454303
1.08020483454303
1.08020483454303
1.08020483454303
1.08020483454303
1.08020483454303
1.08020483454303
1.08020483454303
1.08020483454303
1.08020483454303
1.08020483454303
1.08020483454303
1.08020483454303
1.08020483454303
1.08020483454303
1.08020483454303
1.08020483454303
1.08020483454303
1.08020483454303
1.08020483454303
1.08020483454303
1.08020483454303
1.08020483454303
1.08020483454303
1.08020483454303
1.08020483454303
1.08020483454303
1.08020483454303
1.08020483454303
1.08020483454303
1.08020483454303
1.08020483454303
1.08020483454303
1.08020483454303
1.08020483454303
1.08020483454303
1.08020483454303
1.08020483454303
1.08020483454303
1.08020483454303
1.08011831201071
1.07764666350824
1.06961305855989
1.05506281086607
1.03401997208803
1.00651938485477
0.972606558889713
0.932337575266156
0.885779141462817
0.833008245209241
0.774112142857567
0.709188127100696
0.63834387259176
0.561696480392207
0.4793728421352
0.391836501220559
0.305526782978951
0.228539041615787
0.16323523764847
0.11691540072853
0.100256250598651
0.100256043178778
0.100256043178778
0.100256043178778
0.100256043178778
0.100256043178778
0.100256043178778
0.100256043178778
0.100256043178778
0.100256043178778
0.100256043178778
0.100256043178778
0.100256043178778
0.100256043178778
0.100256043178778
0.100256043178778
0.100256043178778
0.100256043178778
0.100256043178778
0.100256043178778
0.100256043178778
0.100256043178778
0.100256043178778
0.100256043178778
0.100256043178778
0.100256043178778
0.100256043178778
0.100256043178778
0.100256043178778
0.100256043178778
0.100256043178778
0.100256043178778
0.100256043178778
0.100256043178778
0.100256043178778
0.100256043178778
0.100256043178778
0.100256043178778
0.100256043178778
0.100256043178778
0.100256043178778
0.100256043178778
0.100256043178778
0.100256043178778
0.100256043178778
0.100256043178779
0.100256043178778
0.100256043178778
0.100256043178778
0.100256043178778
0.100256043178778
0.100256043178778
0.100256043178778
0.100256043178778
0.100256043178779
0.100256043178777
0.100256043178779
0.100256043178778
0.100256043178779
0.100256043178777
0.100256043178778
0.100256043178779
0.100256043178778
0.100256043178777
0.100256043178779
0.100256043178778
0.100256043178778
0.100256043178778
0.100256043178778
0.100256043178778
0.100256043178778
0.100256043178779
0.100256043178778
0.100256043178778
0.100256043178777
0.100256043178779
1.0963099240234
1.0963099240234
1.0963099240234
1.0963099240234
1.0963099240234
1.0963099240234
1.0963099240234
1.0963099240234
1.0963099240234
1.0963099240234
1.0963099240234
1.0963099240234
1.0963099240234
1.0963099240234
1.0963099240234
1.0963099240234
1.0963099240234
1.0963099240234
1.0963099240234
1.0963099240234
1.0963099240234
1.0963099240234
1.0963099240234
1.0963099240234
1.0963099240234
1.0963099240234
1.0963099240234
1.0963099240234
1.0963099240234
1.0963099240234
1.0963099240234
1.0963099240234
1.0963099240234
1.0963099240234
1.0963099240234
1.0963099240234
1.0963099240234
1.0963099240234
1.0963099240234
1.0963099240234
1.0963099240234
1.0963099240234
1.0963099240234
1.0963099240234
1.09622375699005
1.09376226398089
1.08576166729269
1.07127120318725
1.0503148246968
1.02292723156489
0.989153746870485
0.949050221684468
0.902683089890035
0.850129023442419
0.791474920799367
0.726817675572293
0.656264520756544
0.579932077042736
0.497946715581145
0.410770069535193
0.324814904182207
0.248143415084099
0.183107883710036
0.136978326661093
0.120387611596887
0.120387405029251
0.120387405029251
0.120387405029251
0.120387405029251
0.120387405029251
0.120387405029251
0.120387405029251
0.120387405029251
0.120387405029251
0.120387405029251
0.120387405029251
0.120387405029251
0.120387405029251
0.120387405029251
0.120387405029251
0.120387405029251
0.120387405029251
0.120387405029251
0.120387405029251
0.120387405029251
0.120387405029251
0.120387405029251
0.120387405029251
0.120387405029251
0.120387405029251
0.120387405029251
0.120387405029251
0.120387405029251
0.120387405029251
0.120387405029251
0.120387405029251
0.120387405029251
0.120387405029251
0.120387405029251
0.120387405029251
0.120387405029251
0.120387405029251
0.120387405029251
0.120387405029251
0.120387405029251
0.120387405029251
0.120387405029251
0.120387405029251
0.120387405029251
0.12038740502925
0.120387405029251
0.120387405029251
0.12038740502925
0.120387405029252
0.12038740502925
0.12038740502925
0.120387405029251
0.120387405029252
0.12038740502925
0.120387405029251
0.120387405029251
0.12038740502925
0.120387405029251
0.120387405029251
0.120387405029251
0.12038740502925
0.120387405029251
0.120387405029251
0.120387405029251
0.120387405029251
0.120387405029251
0.120387405029249
0.120387405029252
0.120387405029251
0.120387405029251
0.12038740502925
0.12038740502925
0.120387405029252
0.12038740502925
0.120387405029251
1.11292401762768
1.11292401762768
1.11292401762768
1.11292401762768
1.11292401762768
1.11292401762768
1.11292401762768
1.11292401762768
1.11292401762768
1.11292401762768
1.11292401762768
1.11292401762768
1.11292401762768
1.11292401762768
1.11292401762768
1.11292401762768
1.11292401762768
1.11292401762768
1.11292401762768
1.11292401762768
1.11292401762768
1.11292401762768
1.11292401762768
1.11292401762768
1.11292401762768
1.11292401762768
1.11292401762768
1.11292401762768
1.11292401762768
1.11292401762768
1.11292401762768
1.11292401762768
1.11292401762768
1.11292401762768
1.11292401762768
1.11292401762768
1.11292401762768
1.11292401762768
1.11292401762768
1.11292401762768
1.11292401762768
1.11292401762768
1.11292401762768
1.11292401762768
1.11283821732913
1.11038720079049
1.10242065562484
1.08799186462714
1.06712467908225
1.03985365133078
1.00622391190606
0.96629107460461
0.920121291063699
0.86779090748003
0.809386453100867
0.745004409837326
0.67475155506176
0.598744013903693
0.517107620571606
0.430302037618543
0.344712630931548
0.268367389161623
0.203608608924294
0.157675345132476
0.141155227723064
0.141155022034602
0.141155022034602
0.141155022034602
0.141155022034602
0.141155022034602
0.141155022034602
0.141155022034602
0.141155022034602
0.141155022034602
0.141155022034602
0.141155022034602
0.141155022034602
0.141155022034602
0.141155022034602
0.141155022034602
0.141155022034602
0.141155022034602
0.141155022034602
0.141155022034602
0.141155022034602
0.141155022034602
0.141155022034602
0.141155022034602
0.141155022034602
0.141155022034602
0.141155022034602
0.141155022034602
0.141155022034602
0.141155022034602
0.141155022034602
0.141155022034602
0.141155022034602
0.141155022034602
0.141155022034602
0.141155022034602
0.141155022034602
0.141155022034602
0.141155022034602
0.141155022034602
0.141155022034602
0.141155022034602
0.141155022034602
0.141155022034602
0.141155022034602
0.141155022034603
0.141155022034601
0.141155022034602
0.141155022034603
0.141155022034601
0.141155022034603
0.141155022034602
0.141155022034602
0.141155022034602
0.141155022034602
0.141155022034603
0.141155022034601
0.141155022034603
0.141155022034602
0.141155022034601
0.141155022034603
0.141155022034602
0.141155022034602
0.141155022034602
0.141155022034602
0.141155022034602
0.141155022034603
0.141155022034602
0.141155022034602
0.141155022034602
0.141155022034602
0.141155022034602
0.141155022034603
0.141155022034602
0.141155022034602
0.141155022034602
1.13006320251543
1.13006320251543
1.13006320251543
1.13006320251543
1.13006320251543
1.13006320251543
1.13006320251543
1.13006320251543
1.13006320251543
1.13006320251543
1.13006320251543
1.13006320251543
1.13006320251543
1.13006320251543
1.13006320251543
1.13006320251543
1.13006320251543
1.13006320251543
1.13006320251543
1.13006320251543
1.13006320251543
1.13006320251543
1.13006320251543
1.13006320251543
1.13006320251543
1.13006320251543
1.13006320251543
1.13006320251543
1.13006320251543
1.13006320251543
1.13006320251543
1.13006320251543
1.13006320251543
1.13006320251543
1.13006320251543
1.13006320251543
1.13006320251543
1.13006320251543
1.13006320251543
1.13006320251543
1.13006320251543
1.13006320251543
1.13006320251543
1.13006320251543
1.12997778054266
1.12753757159697
1.11960615419074
1.10524098554184
1.0844658119708
1.05731503375491
1.02383358279405
0.984076828108369
0.938110630165216
0.88601099910269
0.827864083283547
0.763765939900594
0.693822876296212
0.618150506367951
0.536874110402885
0.450451318061609
0.365239229983464
0.289230546492069
0.224757263884816
0.179026496762378
0.162579207925798
0.162579003144295
0.162579003144295
0.162579003144295
0.162579003144295
0.162579003144295
0.162579003144295
0.162579003144295
0.162579003144295
0.162579003144295
0.162579003144295
0.162579003144295
0.162579003144295
0.162579003144295
0.162579003144295
0.162579003144295
0.162579003144295
0.162579003144295
0.162579003144295
0.162579003144295
0.162579003144295
0.162579003144295
0.162579003144295
0.162579003144295
0.162579003144295
0.162579003144295
0.162579003144295
0.162579003144295
0.162579003144295
0.162579003144295
0.162579003144295
0.162579003144295
0.162579003144295
0.162579003144295
0.162579003144295
0.162579003144295
0.162579003144295
0.162579003144295
0.162579003144295
0.162579003144295
0.162579003144295
0.162579003144295
0.162579003144295
0.162579003144295
0.162579003144294
0.162579003144294
0.162579003144296
0.162579003144295
0.162579003144294
0.162579003144296
0.162579003144295
0.162579003144294
0.162579003144295
0.162579003144295
0.162579003144295
0.162579003144294
0.162579003144296
0.162579003144294
0.162579003144296
0.162579003144294
0.162579003144295
0.162579003144295
0.162579003144295
0.162579003144295
0.162579003144295
0.162579003144295
0.162579003144294
0.162579003144295
0.162579003144295
0.162579003144295
0.162579003144294
0.162579003144295
0.162579003144294
0.162579003144295
0.162579003144295
0.162579003144295
1.14774407428336
1.14774407428336
1.14774407428336
1.14774407428336
1.14774407428336
1.14774407428336
1.14774407428336
1.14774407428336
1.14774407428336
1.14774407428336
1.14774407428336
1.14774407428336
1.14774407428336
1.14774407428336
1.14774407428336
1.14774407428336
1.14774407428336
1.14774407428336
1.14774407428336
1.14774407428336
1.14774407428336
1.14774407428336
1.14774407428336
1.14774407428336
1.14774407428336
1.14774407428336
1.14774407428336
1.14774407428336
1.14774407428336
1.14774407428336
1.14774407428336
1.14774407428336
1.14774407428336
1.14774407428336
1.14774407428336
1.14774407428336
1.14774407428336
1.14774407428336
1.14774407428336
1.14774407428336
1.14774407428336
1.14774407428336
1.14774407428336
1.14774407428336
1.14765904259367
1.14522998282934
1.13733480343612
1.12303526798651
1.10235501451796
1.07532828643664
1.0419998107286
1.00242470389832
0.956668526036925
0.904806940598052
0.846925703016606
0.783120432337259
0.713496951009641
0.638170345532665
0.557265324755162
0.471237421194811
0.386414577027655
0.310753088635598
0.246574326569234
0.201052455558618
0.18468029670008
0.184680092854202
0.184680092854202
0.184680092854202
0.184680092854202
0.184680092854202
0.184680092854202
0.184680092854202
0.184680092854202
0.184680092854202
0.184680092854202
0.184680092854203
0.184680092854202
0.184680092854202
0.184680092854202
0.184680092854202
0.184680092854202
0.184680092854202
0.184680092854202
0.184680092854202
0.184680092854202
0.184680092854202
0.184680092854202
0.184680092854203
0.184680092854202
0.184680092854202
0.184680092854202
0.184680092854202
0.184680092854202
0.184680092854202
0.184680092854202
0.184680092854202
0.184680092854202
0.184680092854202
0.184680092854202
0.184680092854202
0.184680092854202
0.184680092854202
0.184680092854202
0.184680092854203
0.184680092854202
0.184680092854202
0.184680092854202
0.184680092854202
0.184680092854203
0.184680092854203
0.184680092854202
0.184680092854203
0.184680092854201
0.184680092854203
0.184680092854203
0.184680092854202
0.184680092854202
0.184680092854203
0.184680092854203
0.184680092854203
0.184680092854201
0.184680092854203
0.184680092854202
0.184680092854203
0.184680092854202
0.184680092854203
0.184680092854202
0.184680092854202
0.184680092854203
0.184680092854202
0.184680092854203
0.184680092854202
0.184680092854203
0.184680092854202
0.184680092854201
0.184680092854203
0.184680092854203
0.184680092854203
0.184680092854201
0.184680092854203
1.1659837530345
1.1659837530345
1.1659837530345
1.1659837530345
1.1659837530345
1.1659837530345
1.1659837530345
1.1659837530345
1.1659837530345
1.1659837530345
1.1659837530345
1.1659837530345
1.1659837530345
1.1659837530345
1.1659837530345
1.1659837530345
1.1659837530345
1.1659837530345
1.1659837530345
1.1659837530345
1.1659837530345
1.1659837530345
1.1659837530345
1.1659837530345
1.1659837530345
1.1659837530345
1.1659837530345
1.1659837530345
1.1659837530345
1.1659837530345
1.1659837530345
1.1659837530345
1.1659837530345
1.1659837530345
1.1659837530345
1.1659837530345
1.1659837530345
1.1659837530345
1.1659837530345
1.1659837530345
1.1659837530345
1.1659837530345
1.1659837530345
1.1659837530345
1.16589912396315
1.16348156576532
1.15562376973071
1.14139194188769
1.12080960856692
1.0939108513436
1.06074018581084
1.02135246797341
0.97581294804868
0.924196931843772
0.866589769441446
0.803086627883521
0.733792829393921
0.65882291639473
0.578301008225461
0.492680473979848
0.408259175932741
0.332955855629966
0.269080922167995
0.223774548935531
0.207479894173809
0.207479691293127
0.207479691293127
0.207479691293127
0.207479691293127
0.207479691293127
0.207479691293127
0.207479691293127
0.207479691293127
0.207479691293127
0.207479691293127
0.207479691293127
0.207479691293127
0.207479691293127
0.207479691293127
0.207479691293127
0.207479691293127
0.207479691293127
0.207479691293127
0.207479691293127
0.207479691293127
0.207479691293127
0.207479691293127
0.207479691293127
0.207479691293127
0.207479691293127
0.207479691293127
0.207479691293127
0.207479691293127
0.207479691293127
0.207479691293127
0.207479691293127
0.207479691293127
0.207479691293127
0.207479691293127
0.207479691293127
0.207479691293127
0.207479691293127
0.207479691293127
0.207479691293127
0.207479691293127
0.207479691293127
0.207479691293127
0.207479691293128
0.207479691293126
0.207479691293128
0.207479691293127
0.207479691293126
0.207479691293128
0.207479691293127
0.207479691293127
0.207479691293128
0.207479691293127
0.207479691293128
0.207479691293127
0.207479691293127
0.207479691293128
0.207479691293127
0.207479691293128
0.207479691293126
0.207479691293128
0.207479691293127
0.207479691293127
0.207479691293128
0.207479691293127
0.207479691293127
0.207479691293128
0.207479691293127
0.207479691293127
0.207479691293128
0.207479691293127
0.207479691293127
0.207479691293127
0.207479691293127
0.207479691293128
0.207479691293127
1.18479989995533
1.18479989995533
1.18479989995533
1.18479989995533
1.18479989995533
1.18479989995533
1.18479989995533
1.18479989995533
1.18479989995533
1.18479989995533
1.18479989995533
1.18479989995533
1.18479989995533
1.18479989995533
1.18479989995533
1.18479989995533
1.18479989995533
1.18479989995533
1.18479989995533
1.18479989995533
1.18479989995533
1.18479989995533
1.18479989995533
1.18479989995533
1.18479989995533
1.18479989995533
1.18479989995533
1.18479989995533
1.18479989995533
1.18479989995533
1.18479989995533
1.18479989995533
1.18479989995533
1.18479989995533
1.18479989995533
1.18479989995533
1.18479989995533
1.18479989995533
1.18479989995533
1.18479989995533
1.18479989995533
1.18479989995533
1.18479989995533
1.18479989995533
1.18471568622744
1.18230999311933
1.17449076199012
1.16032878172676
1.13984746342107
1.11308072170051
1.08007285408127
1.04087844783169
0.995562433497472
0.94419974793038
0.886875323043675
0.823683859583291
0.754730163729379
0.680128216621301
0.600001529446401
0.514801239498657
0.430794178600197
0.35586034616997
0.292298843539797
0.247214778365042
0.23100007682914
0.230999874944161
0.230999874944161
0.230999874944161
0.230999874944161
0.230999874944161
0.230999874944161
0.230999874944161
0.230999874944161
0.230999874944161
0.230999874944161
0.230999874944161
0.230999874944161
0.230999874944161
0.230999874944161
0.230999874944161
0.230999874944161
0.230999874944161
0.230999874944161
0.230999874944161
0.230999874944161
0.230999874944161
0.230999874944161
0.230999874944161
0.230999874944161
0.230999874944161
0.230999874944161
0.230999874944161
0.230999874944161
0.230999874944161
0.230999874944161
0.230999874944161
0.230999874944161
0.230999874944161
0.230999874944161
0.230999874944161
0.230999874944161
0.230999874944161
0.230999874944161
0.230999874944161
0.230999874944161
0.230999874944161