/*--------------------------------*- C++ -*----------------------------------*\
  =========                 |
  \\      /  F ield         | OpenFOAM: The Open Source CFD Toolbox
   \\    /   O peration     | Website:  https://openfoam.org
    \\  /    A nd           | Version:  7
     \\/     M anipulation  |
\*---------------------------------------------------------------------------*/
FoamFile
{
    version     2.0;
    format      ascii;
    class       volScalarField;
    location    "0";
    object      Cz;
}
// * * * * * * * * * * * * * * * * * * * * * * * * * * * * * * * * * * * * * //

dimensions      [0 1 0 0 0 0 0];

internalField   nonuniform List<scalar> 
21000
(
-2.53816014967945e-18
-9.63735264458078e-20
5.26906735226073e-18
0
-2.63453367612525e-18
-2.63453367612526e-18
2.6345336761138e-18
5.26906735225905e-18
5.26906735227932e-18
0
-9.63735264458085e-20
-2.63453367612526e-18
0
0
0
-2.63453367612526e-18
-2.73090720257099e-18
0
0
2.53816014968325e-18
-2.63453367612231e-18
-2.63453367612526e-18
-2.63453367612518e-18
0
0
2.63453367611868e-18
-2.63453367612526e-18
5.17269382580438e-18
2.63453367611893e-18
0
-5.2690673522598e-18
0
4.8812921355228e-16
-5.32771882898618e-16
0
-9.63735264458076e-20
9.63735264458082e-20
-2.53816014967945e-18
0
-9.63735264458088e-20
-9.63735264458084e-20
0
5.26906735224866e-18
-2.6345336761252e-18
0
0
2.7334058956676e-18
-9.61804286988969e-20
2.64082281536523e-18
-2.64283523928042e-18
0
0
2.65025613663097e-18
-5.30693617446441e-18
-2.75292957281162e-18
0
0
-9.54983634064719e-20
2.77594828554197e-18
2.5855828648563e-18
-2.35408296590148e-18
2.20940396224988e-18
0
-4.66613518272806e-17
-4.75170662009688e-17
2.03052811974403e-18
-9.63735264458083e-20
-2.12690164618867e-18
4.25380329235937e-18
0
2.12690164619523e-18
-5.28199695454664e-16
4.7445604005582e-16
-2.12690164618024e-18
0
0
-6.18795788566003e-18
-4.15742976593153e-18
-4.95036630853921e-17
-9.68292172662664e-17
-1.41612555563384e-19
4.75184455542143e-17
0
-6.28433141212039e-18
-2.12690164618012e-18
0
-4.7067697748352e-16
5.16674347928106e-16
0
2.1269016461886e-18
0
-4.52498597932616e-17
-5.38034848067381e-17
0
0
0
2.12690164619127e-18
0
6.18795788565876e-18
-4.25380329237758e-18
-9.63735264458077e-20
0
0
0
4.15742976591671e-18
0
9.63735264458095e-20
0
0
6.2843314122612e-18
2.12690164618861e-18
0
0
-2.12690164627718e-18
0
-9.63735264458091e-20
0
4.35017681895679e-18
0
4.35017681884904e-18
4.06105623944598e-18
0
0
0
0
0
-2.12690164618615e-18
-6.28433141202152e-18
0
0
0
2.03052811964e-18
9.63735264458076e-20
2.1269016462716e-18
0
4.25380329240198e-18
0
-9.6373526445811e-20
-2.1269016460796e-18
-9.63735264458085e-20
-9.63749172868598e-20
0
1.92748443732837e-19
-7.76692931489633e-18
-1.92748443732838e-19
0
0
5.11370339535678e-18
2.84597436328744e-18
1.92748443732841e-19
0
1.92748443732839e-19
0
-5.30645183910132e-18
0
-2.65322591954073e-18
-2.65322591954066e-18
-2.65322591953519e-18
5.30645183909078e-18
4.8740080167426e-16
-5.00465458486176e-16
2.65322591954067e-18
-2.46047747580782e-18
0
-2.65322591955328e-18
0
0
0
0
0
0
2.65322591953017e-18
5.29254368484341e-16
-4.92062096756937e-16
0
1.92748443732843e-19
0
0
1.92748443732841e-19
-1.92748443732839e-19
1.92748443732839e-19
0
-5.1137033953468e-18
2.6532259195407e-18
2.65322263844483e-18
-5.3081488947364e-18
0
1.92554173808036e-19
-1.92482824028681e-19
-5.12973269602407e-18
-1.92340405637113e-19
0
-4.95153390572316e-18
-2.67094833424179e-18
0
2.48658432346195e-18
1.91920893622751e-19
0
2.50446669014256e-18
-5.20124109352585e-18
-2.84162986051129e-15
-1.30308026341929e-15
4.25495020725332e-18
0
1.80267020666239e-18
-4.05241302753502e-17
-4.85283700218712e-17
2.16113042437934e-18
6.29064282937909e-18
6.48339127314847e-18
-2.16113042438564e-18
-4.72171211807756e-16
5.22908918074021e-16
1.96838198063834e-18
-3.9367639612999e-18
0
2.16113042437468e-18
-3.83629998509479e-17
-2.10006797864918e-18
4.49511479294595e-17
-4.87561544693268e-17
-4.86953107090645e-17
-4.44608942366204e-17
-4.49514375494345e-17
1.92748443732839e-19
-5.62396420132331e-16
5.66045538282421e-16
4.22393192933645e-17
0
2.1611304243793e-18
1.9274844373284e-19
4.44608942368555e-17
4.25981385917068e-17
4.51500929249155e-18
-1.96838198064651e-18
0
-5.63786556781447e-16
5.26244340459518e-16
4.51500929248146e-18
1.92748443732839e-19
4.12951240502613e-18
0
0
2.16113042438393e-18
-4.48463911239275e-17
-4.85309079915799e-17
1.9274844373284e-19
0
4.32226084861778e-18
0
0
-4.12951240505061e-18
0
0
0
-4.51500929231702e-18
6.09789438563563e-18
1.92748443732851e-19
4.5150092924923e-18
0
1.92748443732821e-19
0
1.96838198072912e-18
0
0
-4.68147731047824e-17
-4.63703921350005e-17
0
0
0
-4.12951240513945e-18
0
1.9683819806895e-18
6.29064282964581e-18
2.16113042428729e-18
0
0
2.16113042443192e-18
0
0
-2.38517476288419e-18
-2.38517476287704e-18
-1.92748487738119e-19
0
-5.37002158139721e-16
5.42814070221985e-16
2.57792325061167e-18
4.96309801351432e-18
0
0
-2.5779232506223e-18
-2.38517476288419e-18
0
0
4.96309801349658e-18
1.9274848773812e-19
1.92748487738117e-19
0
0
5.08334381455724e-16
-4.86213193238171e-16
0
-2.57792325062229e-18
5.15584650123249e-18
-7.54102126416503e-18
0
-2.57792325062231e-18
-1.9274848773812e-19
0
0
2.3851747628884e-18
5.15584650122422e-18
-2.57792325062214e-18
0
2.38517476288491e-18
-5.15584650125346e-18
0
2.57792325062237e-18
2.57792325062225e-18
-2.57792325062226e-18
-5.15584650124447e-18
0
1.92748487738123e-19
0
0
0
-7.74094689635554e-18
-2.58192231825925e-18
-7.55824585877937e-18
2.39291949439999e-18
2.39488134922768e-18
-1.92269418288453e-19
-4.99123805173982e-18
5.18896088404943e-18
-1.92058837871073e-19
1.91989523603377e-19
0
1.91852314276436e-19
-5.23621701780816e-18
-7.66268143792007e-18
1.63711938471495e-15
2.33115426628136e-15
0
1.34795421887869e-15
-4.40076286648656e-16
4.71445948615724e-17
4.26921389321163e-17
-2.10088829804554e-18
-1.9274848773812e-19
0
0
2.1008882980445e-18
0
0
0
-6.10991640642517e-18
0
9.6197329533397e-17
8.39802440496805e-17
4.92454831595113e-17
4.98076660107173e-17
2.10088829804541e-18
4.52364550512372e-17
4.49490503237695e-17
2.10088829803756e-18
-5.26219651729746e-16
5.15040444717022e-16
-4.91510815757541e-17
-6.10991640639808e-18
2.10088829804553e-18
-2.1008882980404e-18
-2.10088829805583e-18
4.52364550511167e-17
4.46021168327369e-17
2.10088829804553e-18
-2.10088829804447e-18
-5.28513288515211e-16
5.57320577620399e-16
0
-1.9274848773812e-19
2.10088829804558e-18
1.92748487738121e-19
1.9081398103139e-18
0
4.50437065633401e-17
4.47574733822897e-17
6.10991640641522e-18
1.92748487738124e-19
-4.00902810821702e-18
-1.92748487738124e-19
-2.10088829804563e-18
-2.10088829805788e-18
0
4.00902810851729e-18
0
0
4.69518463735165e-17
4.30424850005119e-17
0
-2.10088829805788e-18
0
-2.10088829805206e-18
-6.10991640663798e-18
0
0
4.31355667532325e-17
4.47959982961771e-17
-6.10991640630808e-18
2.10088829807589e-18
0
-1.92748487738104e-19
0
2.10088829808697e-18
0
-6.10991640613172e-18
0
0
-4.00902810845446e-18
3.81627962041136e-18
0
2.4085541031486e-18
-2.50492762958797e-18
0
0
-5.4842085927299e-16
5.35838579565235e-16
5.00985525916933e-18
-5.0098552591974e-18
0
0
5.00985525918991e-18
0
0
0
-4.81710672604307e-18
0
2.69767616273205e-18
-4.94040152315474e-16
5.02028158981527e-16
0
0
0
5.00985525918993e-18
0
2.50492762960666e-18
1.92748533137238e-19
-2.50492762959488e-18
5.00985525918964e-18
0
5.00985525921274e-18
0
0
0
-2.31217909645774e-18
-5.00985525919114e-18
-7.32203435566031e-18
0
0
0
0
2.50492762959489e-18
7.32203435564992e-18
0
7.32203435564752e-18
-2.50492407518462e-18
0
-5.01442223540556e-18
0
0
1.924114432428e-19
0
-1.92269312997143e-19
0
0
-2.90747820039856e-18
0
-2.72311576132879e-18
-4.88068333239022e-18
0
-4.70092647478211e-18
9.29500034761932e-18
2.09750457947747e-18
0
-2.1973738289206e-16
-5.41427295062985e-16
0
0
0
4.0001100019148e-17
3.57875459794118e-17
-4.57430783840959e-17
-4.74644082899362e-17
-1.9274853313724e-19
1.92748533137237e-19
3.59161163987715e-17
3.15589119771962e-17
-5.9347268977609e-18
-8.75939216804396e-17
-9.89661944370722e-17
0
5.7419783646457e-18
-1.92748533137237e-19
0
-2.04249181030369e-18
1.84974327715877e-18
-3.79586082090827e-17
-4.74654432780146e-17
-4.08498362059912e-18
-3.61088649318474e-17
-3.78314065574858e-17
-1.92748533137238e-19
0
-4.38933351066721e-17
-4.59529847080994e-17
-1.92748533137238e-19
1.92748533137234e-19
0
0
0
4.08498362060767e-18
4.08498362060733e-18
0
-3.50673802120826e-18
0
3.89223508745671e-18
0
-4.08498362061804e-18
2.04249181032231e-18
3.59161163974582e-17
4.76592887955214e-17
0
0
2.04249181021176e-18
-1.92748533137233e-19
1.92748533137256e-19
-2.04249181022304e-18
-3.5916116398487e-17
-3.9682312530246e-17
0
-1.92748533137229e-19
-7.97721870800555e-18
4.57430783841053e-17
4.54244059484962e-17
1.92748533137255e-19
0
2.04249181030541e-18
1.92748533137257e-19
0
-4.08498362066617e-18
1.92748533137231e-19
-2.04249181035677e-18
7.78447017456806e-18
-5.74197836475688e-18
-1.92748533137229e-19
-5.93472689751668e-18
-5.74197836466887e-18
-3.89223508746906e-18
7.97721870827402e-18
0
2.04249181035279e-18
0
1.92748579974441e-19
4.48283959192363e-18
7.10975654782711e-18
0
-2.62691695590617e-18
1.92748579974442e-19
0
1.92748579974438e-19
5.06108533182525e-18
4.67558817188889e-18
-2.43416837593167e-18
0
0
0
-2.43416837593173e-18
0
-5.02092146516543e-16
4.90695476477381e-16
0
-4.48283959190938e-18
1.92748579974441e-19
-2.43416837593174e-18
0
0
-1.92748579974438e-19
1.92748579974444e-19
-6.91700796784612e-18
0
-1.92748579974441e-19
6.91700796785823e-18
0
1.92748579974439e-19
1.9274857997444e-19
0
-2.43416837593583e-18
-1.92748579974441e-19
0
4.86833675186341e-18
0
0
-2.43416837593246e-18
0
0
-4.86832938211829e-18
0
0
0
-2.43922538612168e-18
0
-2.44235162055554e-18
-7.33239957465821e-18
1.92198552557528e-19
0
4.90254050669696e-18
0
2.07468432047279e-18
4.73463890409717e-18
0
0
-4.70048316213955e-18
-4.36508665796159e-16
-4.42070526942296e-16
0
-1.92748576388489e-19
1.98588441674184e-18
4.25913643054452e-17
4.24307673221488e-17
-3.66337110550677e-17
-9.20020829749878e-17
6.79638509564328e-19
9.00753196676703e-17
4.04452662116853e-17
-3.77902025349243e-18
-3.86195954720293e-17
-3.09015582396822e-17
-5.57215609026093e-18
3.86195954719649e-17
3.46807856686753e-17
-5.76490467023916e-18
-5.76490467025673e-18
1.92748579974441e-19
0
-1.92748579974441e-19
0
-5.1609028201663e-16
5.63229505953152e-16
-1.79313583676232e-18
9.23552719579583e-17
1.24565174704772e-16
4.22395570871784e-17
3.58627167355188e-18
-1.92748579974445e-19
0
0
1.92748579974442e-19
1.98588441674301e-18
0
3.77902025349813e-18
0
-1.92748579974441e-19
-1.98588441673781e-18
4.23986157256126e-17
3.81345724856295e-17
0
0
0
0
-3.48405752172432e-17
-3.43557680131228e-17
-5.76490467024796e-18
0
0
-1.92748579974422e-19
1.92748579974421e-19
1.98588441666263e-18
-5.76490467021355e-18
0
-3.77902025350835e-18
3.97176883350346e-18
3.58627167349882e-18
-4.06054798888272e-17
-4.01210096011089e-17
-1.98588441659806e-18
0
-4.06054798887549e-17
-4.39000975577346e-17
0
0
-1.92748579974446e-19
0
-1.92748579974447e-19
0
-1.92748579974419e-19
0
-1.9858844167512e-18
-1.98588441674029e-18
-1.92748579974444e-19
-1.98588441664564e-18
-1.92748579974447e-19
9.63751018486124e-20
-4.7311539490798e-18
0
0
0
2.5583256028417e-18
2.36557697453669e-18
-1.92748628295392e-19
0
-4.73115394908041e-18
0
2.5583256028417e-18
0
1.9274862829539e-19
-6.71123366703502e-18
0
0
2.36557697454153e-18
-1.92748628295386e-19
-2.36557697454956e-18
2.55832560283918e-18
1.9274862829539e-19
0
0
0
0
0
0
0
-6.71123366708012e-18
0
-1.92748628295392e-19
0
6.90398229534354e-18
-4.73115394909397e-18
4.73115394910059e-18
2.36557697454174e-18
2.55832560284177e-18
-7.09673092363898e-18
0
0
-2.36557697454705e-18
6.90398229534121e-18
1.92748628295387e-19
-2.3655731631722e-18
0
0
0
4.54821648615862e-18
-2.17933693690858e-18
0
5.06915966425874e-16
5.04409767627832e-16
-4.75769927390825e-18
-4.92523312508374e-16
-4.84651030965539e-16
2.38808159920061e-18
0
2.2059795863688e-18
-6.99991817745748e-18
-1.91860060890733e-19
4.39706806273349e-16
4.13168288814139e-16
0
-3.66927397126881e-18
-1.93101130529711e-18
-3.93982706637865e-17
-4.0821279984925e-17
0
3.93982706638543e-17
4.44907737825833e-17
-4.49985559513569e-17
-3.95236828979441e-17
0
1.73826267700362e-18
0
3.66927398228864e-18
5.40753665929738e-18
3.66927398229669e-18
0
3.66927398230241e-18
0
-1.93101130529603e-18
1.92748628295386e-19
1.92748628295391e-19
-5.27172283301625e-16
1.07447541731351e-15
-4.84162384360752e-16
-4.30675446460837e-17
-7.46206633836919e-17
-3.93320850230568e-17
1.92748628295385e-19
0
-1.93101130529603e-18
-1.92748628295392e-19
-4.64280683208479e-16
4.40311232033683e-16
5.60028528760292e-18
-1.92748628295389e-19
0
5.60028528759304e-18
-1.92748628295386e-19
-4.30675446462261e-17
-3.69612869355142e-17
0
1.73826267700086e-18
-1.73826267700562e-18
0
1.93101130523427e-18
0
1.93101130529577e-18
0
-1.92748628295391e-19
-1.73826267707461e-18
1.92748628295389e-19
0
-3.66927398227493e-18
0
1.92748628295364e-19
0
-3.86202261055864e-18
-1.92748628295393e-19
-1.92748628295368e-19
-1.93101130515847e-18
0
3.57289966815376e-17
4.10715963586851e-17
3.86202261053752e-18
0
0
0
0
-1.93101130533394e-18
-1.93101130536578e-18
1.93101130521624e-18
1.92748628295367e-19
0
-1.54551404875165e-18
-2.12375993349949e-18
0
4.40542696600167e-18
0
1.92748678147196e-19
0
-6.70451235019672e-18
2.29908700944786e-18
2.2990870094386e-18
1.92748678147193e-19
0
4.40542534073679e-18
0
2.29908700944792e-18
0
6.89726102836882e-18
-4.40542534074001e-18
4.59817401889571e-18
0
-1.92748678147196e-19
0
0
4.59817401889095e-18
0
-4.21267666260142e-18
-4.79092269703235e-18
-1.92748678147195e-19
4.21267666259065e-18
0
0
2.10633833129552e-18
0
2.29908700945157e-18
0
2.2990870094479e-18
0
-2.10633833130129e-18
-2.29908700945176e-18
2.29908700944342e-18
2.29908700944797e-18
0
0
0
-2.29908700944859e-18
-8.81085068149411e-18
2.29908700944787e-18
-2.29908307540924e-18
0
0
0
0
0
-4.91201226658356e-16
-9.94139476840737e-16
-4.84034871205559e-16
1.92127942040341e-19
4.80280201643577e-16
4.61314207388887e-16
0
-6.9715425281599e-18
4.08219399886156e-18
-1.91726842827333e-19
-2.46968952475192e-15
-1.0087173734449e-15
2.01115143182288e-18
1.92447841575954e-19
-1.87781933629942e-18
-1.92748678147195e-19
0
-1.92748678147195e-19
3.94838736450709e-18
0
-3.75563868638508e-18
-1.87781934318632e-18
0
0
0
0
-1.68507066503615e-18
1.68507066504004e-18
-1.8778193431872e-18
-1.87781934318446e-18
0
0
-1.87781934318719e-18
1.68507066504005e-18
-5.24796067324652e-18
-1.87781934319033e-18
4.83304897581041e-16
-5.11148465262492e-16
-1.87781934318719e-18
1.87781934318719e-18
-5.24796067325395e-18
1.92748678147195e-19
0
-7.12578001645435e-18
0
-4.39198066841256e-16
4.67836258281114e-16
0
0
0
-1.92748678147194e-19
0
0
7.31852869461675e-18
0
3.75563868637478e-18
1.87781934319208e-18
0
0
-3.5628900083037e-18
0
5.44070935144738e-18
5.63345802931554e-18
0
1.8778193432162e-18
-3.56289000808165e-18
-7.12578001641202e-18
-1.92748678147163e-19
0
0
0
1.92748678147219e-19
0
-1.87781934305425e-18
-1.87781934325059e-18
1.8778193431895e-18
0
1.68507066501398e-18
1.68507066506643e-18
0
-1.68507066508802e-18
0
0
0
0
0
0
1.92748678147163e-19
0
3.75563868646215e-18
-2.13826057298663e-18
1.92748729578486e-19
-4.27651946929745e-18
6.31840483915048e-18
4.27651946928941e-18
0
0
4.46926819887448e-18
-4.27651946931192e-18
-1.9274872957848e-19
6.31840483914467e-18
2.04188536985546e-18
0
2.23463409944197e-18
0
1.92748729578486e-19
-1.92748729578481e-19
0
1.92748729578486e-19
0
-4.27651946928478e-18
6.31840483914467e-18
4.2765194692894e-18
2.04188536985036e-18
0
0
4.27651946928926e-18
4.46926819886776e-18
-2.2346340994289e-18
2.23463409944392e-18
0
0
0
-8.74578766815728e-18
6.51115356872485e-18
0
0
-4.2765194692894e-18
0
2.23463409943391e-18
0
1.9274872957848e-19
0
0
4.27651324103783e-18
2.23528156222408e-18
4.47302864159859e-18
0
2.04638114497592e-18
-4.48008592576369e-18
4.8163469138154e-16
4.72699057727112e-16
-2.43632201711418e-18
4.49176501060077e-18
-6.16777803728075e-18
2.05852093377173e-18
2.20797924712134e-15
1.25067653636668e-15
-2.26189661447883e-18
-4.13853839881755e-18
1.27651055367671e-15
2.03892760750726e-15
-3.71782657388438e-18
1.13331196599161e-15
-4.70692078888732e-16
0
3.652514050926e-18
6.91953064269484e-18
0
0
0
0
6.91953064269484e-18
-5.28602234679078e-18
3.4597653213531e-18
0
0
1.63350829588452e-18
6.91953064269484e-18
3.45976532134224e-18
1.92748729578483e-19
-1.92748729578477e-19
0
0
0
-3.4597653213535e-18
0
-1.82625702545946e-18
6.91953064269488e-18
3.652514050926e-18
0
0
0
3.4597653213474e-18
0
0
-5.50348106039471e-16
5.29313020049663e-16
1.82625702545896e-18
0
-3.45976532134762e-18
-3.45976532134214e-18
0
5.09327361724295e-18
-1.92748729578482e-19
1.82625702546314e-18
0
0
-1.92748729578484e-19
3.45976532142144e-18
0
1.82625702547357e-18
0
1.8262570255319e-18
0
-1.82625702539284e-18
3.45976532132679e-18
1.82625702551543e-18
3.6525140509272e-18
-1.9274872957846e-19
0
0
0
-1.63350829575607e-18
0
-6.91953064270539e-18
-1.92748729578484e-19
0
0
-1.63350829588414e-18
0
0
-1.92748729578489e-19
-6.91953064295661e-18
0
1.92748729578485e-19
0
0
-1.82625702537788e-18
0
0
6.51646750724693e-18
1.97940705311928e-18
0
2.17215583575478e-18
-1.97940705311536e-18
0
0
0
0
0
-2.17215583575471e-18
0
1.92748782639418e-19
1.92748782639414e-19
-4.15156288887025e-18
0
0
-4.15156288887726e-18
-2.17215583575768e-18
-5.06172022227281e-16
5.3001879577937e-16
6.32371872462472e-18
0
0
0
2.17215583575477e-18
0
1.92748782639419e-19
0
4.15156288887714e-18
1.97940705310696e-18
0
2.17215583575477e-18
0
0
0
0
0
1.92748782639416e-19
-1.9794070531153e-18
1.979407053116e-18
1.92748782639418e-19
-1.92748782639419e-19
0
0
2.17394282908462e-18
-1.92554208155436e-19
2.17612653114759e-18
-1.98478971832034e-18
0
-4.35901015035458e-18
4.16952695284563e-18
-1.99031118133506e-18
0
4.18125041377913e-18
-1.06132081328155e-15
-2.2833158345723e-15
-2.0052888800611e-18
-2.00427725775079e-18
-3.90422996303479e-16
-7.85945270827765e-16
-3.87722966268456e-16
-9.6720057678464e-17
-5.14867585106577e-16
0
3.35980006762362e-18
0
0
0
-3.35980006763337e-18
0
0
0
0
0
-1.92748782639418e-19
0
0
0
0
0
0
0
0
0
-1.77627442513842e-18
1.77627442512815e-18
-5.13607449275499e-18
0
0
0
-1.5835256424879e-18
0
-1.92748782639422e-19
-4.94332571011311e-18
-5.30456294468048e-16
5.59372521004487e-16
0
1.92748782639415e-19
5.13607449275526e-18
0
0
-5.54589616190234e-16
5.26589123956478e-16
-3.3598000676239e-18
3.35980006763272e-18
3.5525488502944e-18
0
1.77627442516738e-18
-1.77627442513159e-18
0
-1.92748782639444e-19
-3.35980006775714e-18
0
-1.92748782639441e-19
5.136074492725e-18
5.13607449290761e-18
0
5.13607449278446e-18
0
0
0
1.92748782639441e-19
0
-1.77627442513404e-18
0
-1.92748782639415e-19
1.92748782639416e-19
-6.7196001352457e-18
0
5.13607449252206e-18
-1.92748782639416e-19
-5.07493097814743e-15
5.03626339911985e-15
-1.92748782639413e-19
0
0
1.92748782639416e-19
-1.77627442517267e-18
2.01521819522717e-18
0
3.83768576859401e-18
-1.92748837381782e-19
1.92748837381782e-19
-2.11159172167493e-18
-6.1420263276185e-18
-1.92748837381775e-19
0
-1.92748837381774e-19
0
0
-4.03043460596092e-18
-1.92748837381775e-19
2.11159172167112e-18
0
0
-1.92748837381781e-19
0
2.11159172167784e-18
-5.32898756133568e-16
5.10359193868238e-16
3.83768576858639e-18
4.22318344334058e-18
-4.03043460598726e-18
2.11159172167017e-18
2.11159172167503e-18
4.22318344334983e-18
-6.14202632762909e-18
0
2.11159172167843e-18
4.41593228071571e-18
1.92748837381775e-19
0
-1.92748837381776e-19
0
-1.91884288428921e-18
0
-1.92748837381779e-19
-2.11159172167499e-18
1.92748837381777e-19
0
4.03043460596682e-18
-1.92748837381776e-19
2.11158744150117e-18
-2.11218006978745e-18
1.92625694438972e-19
6.34298014421465e-18
0
0
2.11727289160638e-18
2.11833652938486e-18
-1.02133008509756e-17
0
-2.1226297763307e-18
0
4.25449676286642e-18
2.13037067938543e-18
-4.07668740531829e-18
0
3.89603214858055e-16
7.62599942848877e-16
3.64533172533939e-16
1.76816985439525e-18
4.99072058353649e-18
1.72782314481743e-18
0
-1.92748837381779e-19
1.72782314481003e-18
0
-6.71854374190346e-18
-1.92748837381776e-19
1.92748837381776e-19
-1.92748837381779e-19
0
4.99072059708892e-18
4.79797175967564e-18
-3.2628974522513e-18
-3.26289745225121e-18
0
-3.07014861487449e-18
6.33304606712041e-18
0
4.79797175968636e-18
-3.26289745223883e-18
-3.26289745225692e-18
1.9274883738178e-19
0
0
1.72782314481654e-18
1.92748837381778e-19
-3.26289745226748e-18
0
0
0
0
0
-1.72782314481954e-18
0
4.9907205970684e-18
-4.99072059706797e-18
0
1.9274883738178e-19
-5.29916693854409e-16
5.4781156073173e-16
0
0
-3.26289745228167e-18
0
0
0
0
1.72782314474286e-18
0
6.52579490460481e-18
-1.9274883738179e-19
0
0
-6.52579490450365e-18
0
0
-8.2536180493439e-18
0
0
0
-1.72782314481868e-18
0
0
0
0
-6.52579490467607e-18
1.72782314474142e-18
0
-5.03641828113472e-15
5.07530327628959e-15
0
-1.72782314481681e-18
-6.7185437420428e-18
4.99072059682989e-18
-1.92748837381765e-19
-3.81664380750305e-18
0
-1.92748893858985e-19
-3.91301733395468e-18
2.05288311390513e-18
0
-2.05288311389713e-18
0
1.92748893858983e-19
2.05288311389991e-18
0
-3.91301733395116e-18
0
0
3.91301733394364e-18
-3.91301733395114e-18
0
-1.92748893858983e-19
1.86013422004944e-18
-1.92748893858985e-19
0
-3.91301733395116e-18
-3.91301733395115e-18
-3.91301733394206e-18
-2.05288311391427e-18
0
-3.91301733395116e-18
-2.05288311390502e-18
-1.86013422004157e-18
0
-7.82603466791523e-18
-5.77315155397423e-18
0
-2.05288311390519e-18
-1.86013422004654e-18
5.96590044786646e-18
1.92748893858985e-19
0
0
0
2.05288311390505e-18
0
-2.05288311390441e-18
0
0
5.77493571242216e-18
0
1.92554219423902e-19
-6.16907773941675e-18
1.92411071279145e-19
-2.05810897199016e-18
-5.98485775056571e-18
-2.06009502861429e-18
-1.86919648273923e-18
-2.0628188043335e-18
-2.06465341300077e-18
6.0089591540301e-18
3.94773358509008e-18
-1.91782406987943e-19
5.44891482907793e-18
-1.78424020872006e-18
0
0
6.49428264782804e-18
3.16896363884742e-18
3.16896364593466e-18
-6.14517839800687e-18
1.68085626989596e-18
1.92748893858988e-19
4.84981991583665e-18
-5.20659307562249e-16
4.8333905525654e-16
4.84981991582862e-18
0
-6.14517839801683e-18
0
1.92748893858986e-19
-1.92748893858988e-19
4.84981991582862e-18
0
-1.68085626989832e-18
0
3.16896364593293e-18
-3.16896364593311e-18
0
6.33792729187657e-18
6.14517839803303e-18
1.68085626989273e-18
1.68085626989596e-18
4.65707102196989e-18
3.16896364592512e-18
1.92748893858986e-19
0
4.65707102196991e-18
0
-5.56566633479133e-16
-2.9102803318064e-17
5.32662754795215e-16
1.92748893858989e-19
-3.16896364593318e-18
-3.16896364593303e-18
-1.92748893858985e-19
-6.33792729188564e-18
-1.92748893858989e-19
0
0
1.48810737604124e-18
0
3.1689636458288e-18
1.68085626992923e-18
-5.22445867548285e-15
5.06993187078407e-15
1.68085626982479e-18
0
-1.6808562699206e-18
1.92748893858965e-19
0
-1.87360516380182e-18
-3.16896364593318e-18
-1.68085626990518e-18
-4.84981991578704e-18
-3.1689636459423e-18
0
-1.48810737592134e-18
6.53067618594507e-18
1.92748893858996e-19
0
-1.92748893858968e-19
0
3.1689636459332e-18
-6.14517839817269e-18
-1.48810737596446e-18
0
-1.48810737609567e-18
-1.68085626982891e-18
0
8.01878356176255e-18
-1.92748893858993e-19
0
-1.92748893858997e-19
0
-1.99597316580516e-18
1.92748952126178e-19
-1.99597316581202e-18
0
0
1.92748952126175e-19
0
0
0
0
0
1.99597316580692e-18
1.92748952126174e-19
-1.99597316580677e-18
-3.79919737949448e-18
0
-3.79919737948677e-18
0
-3.6064484273736e-18
0
5.60242159317864e-18
-5.60242159317863e-18
0
1.92748952126177e-19
-1.99597316580588e-18
0
-1.92748952126177e-19
5.60242159316558e-18
1.99597316581897e-18
3.99194633162694e-18
-3.60644842735348e-18
5.60242159317846e-18
3.99194633162087e-18
1.92748952126174e-19
3.79919737950111e-18
-1.80322421368047e-18
1.99597316581038e-18
3.7991973794945e-18
0
-1.99597316581032e-18
1.92748952126178e-19
0
-1.92748952126178e-19
0
1.99650595866317e-18
-1.92625756412152e-19
-3.99678935116272e-18
0
1.80758135049409e-18
0
-2.00156430122344e-18
-3.81274677831561e-18
2.0035350490272e-18
-1.92056957960122e-19
0
-1.62468140308151e-18
1.62737060420029e-18
-3.64500367774336e-18
1.91725562498789e-19
-3.64866173796854e-18
0
1.74709953185723e-18
1.92447513021227e-19
-4.713236005751e-18
1.24983041882222e-18
-1.92748952126176e-19
0
3.27065664613532e-18
-3.2706566461524e-18
-9.97558301944636e-16
9.98694592804147e-16
-9.04097412993719e-18
1.24983041881575e-18
-4.52048706497609e-18
-1.63532832308021e-18
3.07790769401487e-18
0
0
-1.92748952126172e-19
-6.15581538805193e-18
4.32773811284242e-18
0
4.71323601709514e-18
0
0
-2.88515874190779e-18
0
0
3.0779076940213e-18
-6.15581538802764e-18
1.92748952126174e-19
2.88515874188753e-18
0
0
-5.28244040318866e-16
2.82530880857423e-17
5.59242532136952e-16
0
6.1558153880431e-18
0
0
-3.27065664615696e-18
1.92748952126174e-19
-1.24983041881633e-18
0
1.63532832307782e-18
1.63532832308785e-18
1.92748952126171e-19
0
-5.07582638503531e-15
5.23465359914069e-15
0
6.15581538828086e-18
3.0779076940692e-18
9.04097412957171e-18
1.92748952126173e-19
1.63532832311927e-18
0
0
0
0
0
-2.88515874167278e-18
0
0
0
0
0
2.88515874189547e-18
0
1.44257937087776e-18
1.63532832310383e-18
1.92748952126172e-19
-1.44257937088259e-18
6.34856434020115e-18
-6.15581538804332e-18
1.63532832311088e-18
0
-1.92748952126175e-19
0
5.62967130486359e-18
1.94080677237639e-18
0
-1.92749012240243e-19
0
1.92749012240243e-19
-4.9382281686962e-16
5.03531872547622e-16
1.94080677236822e-18
0
-1.92749012240241e-19
-3.6888645324991e-18
1.74805776013945e-18
-2.1335557846098e-18
0
-1.94080677237291e-18
-1.92749012240244e-19
5.4369222926477e-18
5.82242031712657e-18
0
0
0
1.92749012240243e-19
0
0
0
0
0
1.74805776014104e-18
-3.68886453251176e-18
1.92749012240245e-19
0
0
1.92749012240249e-19
7.57047807726422e-18
0
-1.92749012240245e-19
0
0
-1.92749012240245e-19
0
-5.62967130487683e-18
0
3.88160435307387e-18
0
0
0
3.69515370717823e-18
-1.9241094931282e-19
0
0
1.92197279754833e-19
3.70290761893691e-18
1.92056715506282e-19
-1.91987182543153e-19
-1.9518689354785e-18
1.91849745517001e-19
-5.67937870122448e-18
0
-1.91858066946247e-19
-5.12216064006098e-18
3.32815707612292e-16
3.41761075245501e-16
-3.18239043143579e-18
-3.182390440694e-18
0
-4.38808763655835e-18
-2.79689241620028e-18
0
-4.86211884065302e-16
5.12808782693623e-16
0
0
1.59119522034858e-18
5.97928285692955e-18
0
1.59119522034623e-18
0
-1.78394423258426e-18
4.38808763656499e-18
2.98964142845204e-18
1.39844620810599e-18
4.58083664879859e-18
0
8.77617527313129e-18
0
2.796892416206e-18
5.07480237220294e-16
-4.86472430740353e-16
0
0
0
0
-1.92749012240243e-19
0
-4.38808763656332e-18
0
0
-1.92749012240246e-19
0
-4.38808763655153e-18
0
-1.92749012240244e-19
0
1.39844620810616e-18
2.98964142845999e-18
0
0
-3.18239044075518e-18
0
4.58083664882468e-18
0
-5.12230440383839e-15
4.98881898335745e-15
1.78394423252782e-18
2.98964142843558e-18
5.78653384484084e-18
0
1.59119522035456e-18
0
-4.3880876365703e-18
-4.3880876367253e-18
-1.9274901224028e-19
0
0
5.97928285689668e-18
4.38808763649489e-18
3.18239044073466e-18
0
2.79689241628835e-18
-5.78653384439536e-18
-2.79689241627043e-18
1.92749012240226e-19
0
-4.38808763658193e-18
-5.97928285690355e-18
0
0
0
0
0
1.92749074259879e-19
0
3.77466103365907e-18
4.09957025581186e-15
4.09102968890386e-15
-5.01174654828738e-16
-3.60229075749857e-15
-4.09071745413319e-15
-1.88733051682994e-18
-3.58191195940008e-18
0
0
0
1.92749074259903e-19
0
3.38916288513199e-18
-4.10107208818625e-15
-4.09497036892823e-15
1.88733051682808e-18
-1.88733051682994e-18
0
-3.77466103365083e-18
0
0
-1.88733051682994e-18
-7.1638239187982e-18
0
0
0
0
1.88733051682994e-18
7.16382391879995e-18
-1.88733051683045e-18
0
-1.88733051682653e-18
0
0
0
0
-4.1008793391072e-15
-4.09258217008599e-15
0
0
-3.3902278411226e-18
0
-5.47581801443401e-18
-3.58775767741721e-18
0
-1.89127257777966e-18
-3.59140768502252e-18
0
-1.9212654517763e-19
3.40420780979897e-18
-5.4941166719823e-18
-3.60199451785839e-18
0
-1.91781535999867e-19
0
3.32803586492202e-16
3.34457062782532e-16
-3.35903263116541e-16
-3.22676968913344e-16
-3.09682844804919e-18
-3.28957753089241e-18
0
0
0
1.92749074259901e-19
-3.09682845663928e-18
-5.14304702632987e-16
4.83656001330302e-16
2.90407938236053e-18
0
0
-2.90407938236498e-18
0
0
0
-2.90407938237542e-18
-1.92749074259902e-19
5.61540969048229e-18
0
-2.71133030810037e-18
-2.711330308116e-18
0
0
4.86141210330401e-16
-5.09672301225467e-16
2.90407938236417e-18
0
0
-8.5194890728534e-18
2.51858123385132e-18
-1.92749074259903e-19
5.80815876474883e-18
0
0
0
0
0
-1.92749074259902e-19
1.92749074259897e-19
0
0
0
0
5.80815876455507e-18
5.80815876486284e-18
2.90407938237099e-18
0
0
-4.99668263322292e-15
5.11777547173884e-15
-5.80815876451537e-18
-1.92749074259901e-19
-3.09682845671612e-18
0
0
0
0
0
0
-5.80815876493896e-18
-2.90407938237517e-18
-5.61540969047389e-18
2.90407938233046e-18
0
0
0
-2.71133030798122e-18
0
0
0
3.09682845664668e-18
-1.92749074259933e-19
0
1.92749074259931e-19
0
9.63756117962434e-20
0
-6.95647219933193e-18
0
-1.92749138245722e-19
-3.96905694325672e-15
-3.9704537873574e-15
0
3.96886419414012e-15
3.97198661207041e-15
3.47823609965895e-18
0
0
0
1.92749138245723e-19
0
3.47823609965883e-18
-1.92749138245763e-19
3.96741419978387e-15
3.97390611932513e-15
1.83549261895049e-18
-1.83549261895235e-18
-3.47823609965895e-18
1.8354926189488e-18
5.31372871863603e-18
0
1.92749138245746e-19
0
0
-1.92749138245722e-19
-1.92749138245744e-19
-1.83549261894568e-18
-1.8354926189523e-18
-5.31372871861128e-18
1.8354926189528e-18
0
0
0
-6.95647219931948e-18
0
-1.92749138245745e-19
3.96760694891561e-15
3.97524430840514e-15
3.47823609965969e-18
0
0
0
0
-5.12923663450199e-18
1.64616654329309e-18
0
2.031750885446e-18
1.83998201209257e-18
0
-1.92056207961139e-19
3.49273856743312e-18
1.84372698850009e-18
0
-5.35163565027417e-18
3.30824594745626e-18
-3.39614374672697e-16
-3.17380800149908e-16
-1.39737215080085e-15
1.80478154199375e-17
0
0
0
1.92749138245745e-19
0
0
0
-4.830616845821e-16
5.10748359585397e-16
0
0
0
0
-2.82113870737758e-18
1.9274913824574e-19
0
0
0
0
0
0