/*--------------------------------*- C++ -*----------------------------------*\
| =========                 |                                                 |
| \\      /  F ield         | OpenFOAM: The Open Source CFD Toolbox           |
|  \\    /   O peration     | Version:  2.3.0                                 |
|   \\  /    A nd           | Web:      www.OpenFOAM.org                      |
|    \\/     M anipulation  |                                                 |
\*---------------------------------------------------------------------------*/
FoamFile
{
    version     2.0;
    format      ascii;
    class       volScalarField;
    location    "0";
    object      epsilon;
}
// * * * * * * * * * * * * * * * * * * * * * * * * * * * * * * * * * * * * * //

dimensions      [0 0 -1 0 0 0 0];

internalField   uniform 0.11;

boundaryField
{

    bottomWall
    {
        type            omegaWallFunction;
        value           uniform 1000;
    }
    topWall
    {
        type            omegaWallFunction;
        value           uniform 1000;
    }

    inlet
    {
        type            fixedValue;
	value            nonuniform List<scalar>
	150
	  (
128.317021303882
35.1539759611541
17.0971262942729
10.5451378140328
7.40830240450433
5.62189350307382
4.48405353560064
3.70160970738169
3.13304083163366
2.70243185746082
2.36567987342379
2.09552003017443
1.87423807576143
1.68984822840251
1.5339625194571
1.40054141122005
1.2851292709859
1.18436919909277
1.09568530753598
1.01706887629483
0.946930914771025
0.883998313529294
0.82723929200984
0.775808954637456
0.729008913289698
0.686256919779624
0.64706373365704
0.611015294704029
0.577758835705549
0.546991957337246
0.518453954627142
0.49191887252664
0.467189902065128
0.444094825123219
0.422482286272639
0.402218722026512
0.383185816475636
0.365278381315234
0.348402580272958
0.332474434771627
0.317418560622895
0.303167095613071
0.289658785714945
0.276838203862476
0.264655080148028
0.253063726238236
0.242022539977368
0.231493578727154
0.22144219211185
0.211836706600676
0.202648155849397
0.193850052005888
0.185418194317004
0.177330512404132
0.169566942545379
0.16210933625355
0.154941401409308
0.148048677236499
0.141418545528938
0.135040281789867
0.128905151353717
0.123006557131712
0.117340247322853
0.111904593140084
0.106700948039513
0.101734100546728
0.0970128315054832
0.0925505816203177
0.0883662236044736
0.0844849108042936
0.0809389355619915
0.0777684714509394
0.0750219957548922
0.0727561104407804
0.0710344490041141
0.0698717416193029
0.0694914960003882
0.069906771926852
0.0710360869830234
0.072797941953736
0.0751150944275183
0.0779178398428814
0.0811458643221488
0.0847488035553472
0.0886858928653179
0.0929251072174783
0.0974420957219437
0.102219103358034
0.107243983075152
0.112509342107326
0.118011832016402
0.123751574585841
0.129731708453245
0.135958039668886
0.14243878038049
0.14918436198961
0.156207311580321
0.163522182799472
0.171145534516461
0.179095952476093
0.187394110803416
0.196062871671142
0.205127422752887
0.214615453314492
0.224557370995801
0.234986562560502
0.245939703197556
0.257457120403672
0.269583220129362
0.282366984809365
0.295862555217241
0.310129910902012
0.325235667433102
0.341254012993358
0.358267812274227
0.376369912479725
0.395664694988285
0.416269927462325
0.438318985762989
0.461963534060198
0.487376776604776
0.514757427964125
0.544334593251163
0.576373810493099
0.611184590312586
0.649129903111528
0.690638225240215
0.736218984807552
0.786482578063657
0.842166610639962
0.904170737243893
0.973603563584565
1.05184675996499
1.14064420044853
1.24222825710319
1.35950256090219
1.49631286176425
1.65785949233988
1.85134530534072
2.08703083717081
2.38002665790955
2.75349418852264
3.24471715819975
3.9175032101308
4.8899816762697
6.40483612190106
9.03739069455258
14.4633567369113
29.2742016501583
101.278746787434
	   );
    }

    outlet
    {
        type            zeroGradient;
    }

    frontAndBack
    {
        type            empty;
    }


}

// ************************************************************************* //
