/*--------------------------------*- C++ -*----------------------------------*\
  =========                 |
  \\      /  F ield         | OpenFOAM: The Open Source CFD Toolbox
   \\    /   O peration     | Website:  https://openfoam.org
    \\  /    A nd           | Version:  7
     \\/     M anipulation  |
\*---------------------------------------------------------------------------*/
FoamFile
{
    version     2.0;
    format      ascii;
    class       volScalarField;
    location    "0";
    object      Cx;
}
// * * * * * * * * * * * * * * * * * * * * * * * * * * * * * * * * * * * * * //

dimensions      [0 1 0 0 0 0 0];

internalField   nonuniform List<scalar> 
15600
(
0.0460106565101097
0.132920257573707
0.203228240093845
0.257854755675657
0.306261849904099
0.352988940826617
0.400299476340993
0.448832864922957
0.498309082027707
0.548392825995845
0.599346069965161
0.652461869806705
0.709969767643677
0.774909279653127
0.85021651462088
0.936037956918793
1.02739652766098
1.11953683736992
1.21167714707887
1.30381745678781
1.39595776649676
1.4880980762057
1.58023838591464
1.67237869562359
1.76451900533253
1.85665931504147
1.94879962475042
2.04093993445936
2.13308024416831
2.22522055387725
2.31736086358619
2.40950117329513
2.50164148300407
2.59378179271302
2.68592210242196
2.7780624121309
2.87020272183985
2.96234303154879
3.05448334125773
3.14662365096667
3.23876396067562
3.33090427038456
3.4230445800935
3.51518488980244
3.60732519951139
3.69946550922033
3.79160581892928
3.88374612863822
3.97588643834717
4.06802674805611
4.16016705776505
4.25230736747399
4.34444767718294
4.43658798689188
4.52872829660082
4.62086860630977
4.71300891601871
4.80514922572765
4.89728953543659
4.98942984514554
5.08157015485448
5.17371046456342
5.26585077427236
5.35799108398131
5.45013139369025
5.54227170339919
5.63441201310813
5.72655232281708
5.81869263252602
5.91083294223496
6.0029732519439
6.09511356165284
6.18725387136179
6.27939418107073
6.37153449077967
6.46367480048862
6.55581511019756
6.6479554199065
6.74009572961544
6.83223603932438
6.92437634903333
7.01651665874227
7.10865696845121
7.20079727816016
7.2929375878691
7.38507789757804
7.47721820728699
7.56935851699593
7.66149882670487
7.75363913641381
7.84577944612276
7.9379197558317
8.03006006554065
8.12220037524959
8.21434068495853
8.30648099466747
8.39862130437641
8.49076161408535
8.5829019237943
8.67504223350324
8.76718254321219
8.85932285292113
8.95146316263007
9.04360347233901
9.134973901688
9.22083523076427
9.29619592708396
9.36117735941054
9.41871206749645
9.47184207305701
9.52280130612393
9.5728877468996
9.62236752612651
9.67090600965092
9.71822183124923
9.7649480084339
9.8133395574509
9.86791887443963
9.93813711568551
10.0249921170138
0.045994775221019
0.132894944748353
0.203258626767617
0.258002025157004
0.306550560859333
0.353425699014007
0.400881956862179
0.449556262910609
0.499169699977527
0.549388287549215
0.600472912264359
0.653711447396015
0.711324519355558
0.776339490669967
0.851680704030016
0.937493967167449
1.02882261892836
1.12093014493
1.21303767093165
1.3051451969333
1.39725272293495
1.48936024893659
1.58146777493824
1.67357530093989
1.76568282694154
1.85779035294319
1.94989787894484
2.04200540494648
2.13411293094813
2.22622045694978
2.31832798295142
2.41043550895307
2.50254303495471
2.59465056095636
2.68675808695801
2.77886561295966
2.8709731389613
2.96308066496295
3.0551881909646
3.14729571696624
3.23940324296789
3.33151076896953
3.42361829497118
3.51572582097283
3.60783334697448
3.69994087297613
3.79204839897777
3.88415592497942
3.97626345098107
4.06837097698272
4.16047850298436
4.25258602898601
4.34469355498766
4.4368010809893
4.52890860699095
4.6210161329926
4.71312365899424
4.80523118499589
4.89733871099754
4.98944623699918
5.08155376300083
5.17366128900247
5.26576881500412
5.35787634100577
5.44998386700742
5.54209139300906
5.63419891901071
5.72630644501236
5.818413971014
5.91052149701565
6.0026290230173
6.09473654901894
6.18684407502059
6.27895160102224
6.37105912702388
6.46316665302553
6.55527417902717
6.64738170502882
6.73948923103047
6.83159675703211
6.92370428303376
7.01581180903541
7.10791933503705
7.2000268610387
7.29213438704035
7.384241913042
7.47634943904364
7.56845696504528
7.66056449104693
7.75267201704858
7.84477954305023
7.93688706905188
8.02899459505353
8.12110212105517
8.21320964705682
8.30531717305847
8.39742469906011
8.48953222506176
8.5816397510634
8.67374727706505
8.7658548030667
8.85796232906835
8.95006985506999
9.04217738107164
9.13351784688824
9.21937083718821
9.29476529781718
9.35982202185756
9.41746179684968
9.47071448092338
9.52180507077714
9.57202634453964
9.62164332977666
9.67032271078835
9.71778423386693
9.76465846162454
9.81319151340501
9.86788789930405
9.93816218722058
10.0250079814527
0.0459783121549073
0.132868704648147
0.203290126264362
0.258154687241359
0.306849844717492
0.353878453828042
0.401485773040765
0.450306159361008
0.50006184355125
0.550420214711049
0.601641033329583
0.65500680024562
0.712728899468533
0.777822094521685
0.853198530934901
0.939003315196735
1.03030095197717
1.12237449331102
1.21444803464488
1.30652157597874
1.3985951173126
1.49066865864646
1.58274219998032
1.67481574131418
1.76688928264804
1.8589628239819
1.95103636531576
2.04310990664961
2.13518344798347
2.22725698931733
2.31933053065119
2.41140407198504
2.5034776133189
2.59555115465276
2.68762469598662
2.77969823732048
2.87177177865434
2.96384531998819
3.05591886132205
3.14799240265591
3.24006594398977
3.33213948532362
3.42421302665748
3.51628656799134
3.6083601093252
3.70043365065906
3.79250719199292
3.88458073332678
3.97665427466064
4.0687278159945
4.16080135732836
4.25287489866221
4.34494843999607
4.43702198132993
4.52909552266379
4.62116906399764
4.7132426053315
4.80531614666536
4.89738968799922
4.98946322933308
5.08153677066694
5.17361031200079
5.26568385333465
5.35775739466851
5.44983093600237
5.54190447733622
5.63397801867008
5.72605156000394
5.8181251013378
5.91019864267166
6.00227218400552
6.09434572533937
6.18641926667323
6.27849280800709
6.37056634934094
6.4626398906748
6.55471343200866
6.64678697334252
6.73886051467638
6.83093405601023
6.92300759734409
7.01508113867795
7.10715468001181
7.19922822134566
7.29130176267952
7.38337530401338
7.47544884534724
7.5675223866811
7.65959592801496
7.75166946934881
7.84374301068268
7.93581655201654
8.0278900933504
8.11996363468425
8.21203717601811
8.30411071735197
8.39618425868582
8.48825780001968
8.58033134135354
8.6724048826874
8.76447842402126
8.85655196535511
8.94862550668897
9.04069904802283
9.13200845267581
9.2178527986378
9.2932822603937
9.35841703444123
9.41616572555218
9.46954558255348
9.52077234147417
9.57113338781885
9.62089260571522
9.66971804628672
9.71733060911204
9.76435831129416
9.81303804839156
9.86785578979649
9.93818817719104
10.0250244270514
0.0459612459997881
0.132841503304916
0.203322779327142
0.258312939319118
0.307160088562125
0.354347791057842
0.402111706302519
0.451083524868327
0.500986667529734
0.551489943247064
0.602851945267503
0.656349605206286
0.714184726007316
0.779359010512523
0.854771960230278
0.940567954915213
1.03183344056791
1.12387175227899
1.21591006399007
1.30794837570116
1.39998668741224
1.49202499912332
1.5840633108344
1.67610162254549
1.76813993425657
1.86017824596766
1.95221655767874
2.04425486938983
2.13629318110091
2.22833149281199
2.32036980452307
2.41240811623415
2.50444642794524
2.59648473965632
2.6885230513674
2.78056136307848
2.87259967478956
2.96463798650064
3.05667629821173
3.14871460992281
3.24075292163389
3.33279123334497
3.42482954505606
3.51686785676714
3.60890616847822
3.7009444801893
3.79298279190039
3.88502110361148
3.97705941532256
4.06909772703364
4.16113603874472
4.25317435045581
4.34521266216689
4.43725097387797
4.52928928558905
4.62132759730014
4.71336590901122
4.8054042207223
4.89744253243339
4.98948084414447
5.08151915585555
5.17355746756663
5.26559577927771
5.35763409098879
5.44967240269987
5.54171071441096
5.63374902612204
5.72578733783312
5.8178256495442
5.90986396125528
6.00190227296637
6.09394058467745
6.18597889638853
6.27801720809962
6.3700555198107
6.46209383152178
6.55413214323286
6.64617045494395
6.73820876665502
6.83024707836611
6.92228539007719
7.01432370178827
7.10636201349936
7.19840032521044
7.29043863692152
7.3824769486326
7.47451526034369
7.56655357205477
7.65859188376585
7.75063019547694
7.84266850718802
7.9347068188991
8.02674513061018
8.11878344232126
8.21082175403235
8.30286006574343
8.39489837745451
8.48693668916559
8.57897500087668
8.67101331258776
8.76305162429884
8.85508993600992
8.94712824772101
9.03916655943209
9.13044376508234
9.21627914994439
9.29174489494795
9.35696057835052
9.41482217582301
9.46833386483413
9.51970178141077
9.57020772090353
9.62011438227641
9.66909123362168
9.71686037006887
9.76404716923772
9.81287896398178
9.86782250438491
9.9382151192413
10.0250414750992
0.0459435546628238
0.1328133055061
0.203356628190017
0.258476986001647
0.307481693641784
0.354834317937572
0.4027605666882
0.451889365574032
0.501945368990223
0.55259885785063
0.604107215573744
0.657741600554504
0.715693883595509
0.780952228256566
0.856403028790448
0.942189911808024
1.03342206856706
1.12542386009425
1.21742565162144
1.30942744314864
1.40142923467583
1.49343102620303
1.58543281773022
1.67743460925742
1.76943640078461
1.86143819231181
1.953439983839
2.0454417753662
2.1374435668934
2.22944535842059
2.32144714994778
2.41344894147498
2.50545073300217
2.59745252452936
2.68945431605656
2.78145610758375
2.87345789911094
2.96545969063813
3.05746148216533
3.14946327369252
3.24146506521972
3.33346685674691
3.4254686482741
3.5174704398013
3.60947223132849
3.70147402285569
3.79347581438289
3.88547760591008
3.97747939743728
4.06948118896447
4.16148298049167
4.25348477201886
4.34548656354605
4.43748835507325
4.52949014660044
4.62149193812764
4.71349372965483
4.80549552118202
4.89749731270922
4.98949910423641
5.0815008957636
5.1735026872908
5.26550447881799
5.35750627034519
5.44950806187238
5.54150985339957
5.63351164492676
5.72551343645396
5.81751522798115
5.90951701950834
6.00151881103554
6.09352060256274
6.18552239408993
6.27752418561712
6.36952597714431
6.46152776867151
6.5535295601987
6.6455313517259
6.73753314325309
6.82953493478028
6.92153672630748
7.01353851783467
7.10554030936187
7.19754210088906
7.28954389241625
7.38154568394345
7.47354747547064
7.56554926699783
7.65755105852503
7.74955285005223
7.84155464157942
7.93355643310661
8.02555822463381
8.117560016161
8.2095618076882
8.30156359921539
8.39356539074258
8.48556718226978
8.57756897379697
8.66957076532417
8.76157255685136
8.85357434837855
8.94557613990575
9.03757793143294
9.12882175856072
9.21464785394973
9.290151211284
9.35545076814671
9.41342940842132
9.46707775922645
9.51859200481693
9.56924814562506
9.61930765220784
9.66844146161369
9.71637290833541
9.76372463304415
9.8127140544879
9.86778800001753
9.93824304824822
10.0250591476655
0.0459252152418533
0.132784074749386
0.2033917166326
0.258647039385207
0.307815075888062
0.355338663931173
0.40343319390108
0.452724724468541
0.502939188855348
0.55374839393476
0.605408469161687
0.659184588242526
0.717258325895306
0.782603810253382
0.858093848106065
0.943871285558893
1.03506889251519
1.12703282602059
1.21899675952598
1.31096069303138
1.40292462653678
1.49488856004217
1.58685249354757
1.67881642705298
1.77078036055838
1.86274429406377
1.95470822756917
2.04667216107457
2.13863609457997
2.23060002808537
2.32256396159076
2.41452789509616
2.50649182860156
2.59845576210696
2.69041969561235
2.78238362911775
2.87434756262315
2.96631149612855
3.05827542963394
3.15023936313934
3.24220329664474
3.33416723015014
3.42613116365553
3.51809509716094
3.61005903066634
3.70202296417173
3.79398689767713
3.88595083118253
3.97791476468793
4.06987869819333
4.16184263169873
4.25380656520413
4.34577049870952
4.43773443221492
4.52969836572032
4.62166229922572
4.71362623273111
4.80559016623651
4.89755409974191
4.98951803324731
5.0814819667527
5.1734459002581
5.2654098337635
5.3573737672689
5.44933770077429
5.54130163427969
5.63326556778509
5.72522950129049
5.81719343479588
5.90915736830129
6.00112130180668
6.09308523531208
6.18504916881748
6.27701310232287
6.36897703582827
6.46094096933367
6.55290490283907
6.64486883634447
6.73683276984986
6.82879670335526
6.92076063686066
7.01272457036606
7.10468850387146
7.19665243737685
7.28861637088225
7.38058030438765
7.47254423789304
7.56450817139844
7.65647210490384
7.74843603840924
7.84039997191464
7.93236390542004
8.02432783892544
8.11629177243083
8.20825570593623
8.30021963944163
8.39218357294703
8.48414750645242
8.57611143995782
8.66807537346322
8.76003930696862
8.85200324047401
8.94396717397941
9.03593110748481
9.12714033336298
9.21295679886882
9.28849914629908
9.35388564932263
9.41198562039516
9.46577563973551
9.51744157516362
9.56825341992937
9.61847137136745
9.6677678893789
9.71586759323713
9.76339028557667
9.81254310669785
9.86775223206721
9.93827200036602
10.0250774676282
0.0459062039957539
0.132753773195137
0.203428090036531
0.25882331932458
0.308160666452529
0.35586148154581
0.404130458392842
0.453590682740533
0.503969413498812
0.554940039489748
0.606757390465553
0.660680436230828
0.718880078136501
0.784315894558057
0.859846607017537
0.945614252768163
1.03677604428918
1.12870073292621
1.22062542156324
1.31255011020027
1.4044747988373
1.49639948747433
1.58832417611136
1.68024886474839
1.77217355338543
1.86409824202246
1.95602293065949
2.04794761929652
2.13987230793355
2.23179699657058
2.32372168520761
2.41564637384464
2.50757106248167
2.5994957511187
2.69142043975573
2.78334512839276
2.87526981702979
2.96719450566682
3.05911919430385
3.15104388294088
3.24296857157791
3.33489326021494
3.42681794885197
3.518742637489
3.61066732612604
3.70259201476306
3.7945167034001
3.88644139203713
3.97836608067416
4.07029076931119
4.16221545794822
4.25414014658525
4.34606483522228
4.43798952385931
4.52991421249634
4.62183890113337
4.7137635897704
4.80568827840743
4.89761296704446
4.98953765568149
5.08146234431852
5.17338703295555
5.26531172159258
5.35723641022961
5.44916109886664
5.54108578750367
5.6330104761407
5.72493516477773
5.81685985341476
5.90878454205179
6.00070923068882
6.09263391932585
6.18455860796288
6.27648329659991
6.36840798523694
6.46033267387397
6.552257362511
6.64418205114803
6.73610673978506
6.82803142842209
6.91995611705912
7.01188080569615
7.10380549433318
7.19573018297021
7.28765487160724
7.37957956024427
7.4715042488813
7.56342893751833
7.65535362615536
7.74727831479239
7.83920300342942
7.93112769206646
8.02305238070349
8.11497706934052
8.20690175797755
8.29882644661458
8.39075113525161
8.48267582388863
8.57460051252567
8.6665252011627
8.75844988979973
8.85037457843675
8.94229926707379
9.03422395571082
9.12539731282217
9.21120379555613
9.28678656131289
9.35226319577252
9.41048894274778
9.46442582080594
9.51624900330354
9.56722225626993
9.61760445737278
9.66706964524191
9.71534377101182
9.76304369443444
9.81236589960028
9.86771515427355
9.93830201307371
10.0250964587033
0.0458864963138109
0.132722361617785
0.203465795444118
0.259006053716613
0.308518912263356
0.356403447175031
0.404853262489207
0.454488361175621
0.505037376409951
0.556175337008796
0.608155725620524
0.662231080906003
0.72056123973818
0.786090697549007
0.861663574548539
0.94742106977041
1.03854573386196
1.13042973998008
1.22231374609819
1.31419775221631
1.40608175833443
1.49796576445254
1.58984977057066
1.68173377668878
1.7736177828069
1.86550178892501
1.95738579504313
2.04926980116124
2.14115380727936
2.23303781339747
2.32492181951559
2.41680582563371
2.50868983175182
2.60057383786994
2.69245784398805
2.78434185010617
2.87622585622428
2.9681098623424
3.05999386846052
3.15187787457863
3.24376188069674
3.33564588681486
3.42752989293297
3.51941389905109
3.61129790516921
3.70318191128733
3.79506591740544
3.88694992352356
3.97883392964168
4.0707179357598
4.16260194187791
4.25448594799602
4.34636995411414
4.43825396023226
4.53013796635037
4.62202197246849
4.7139059785866
4.80578998470472
4.89767399082283
4.98955799694095
5.08144200305907
5.17332600917718
5.26521001529529
5.35709402141341
5.44897802753152
5.54086203364964
5.63274603976776
5.72463004588587
5.81651405200399
5.9083980581221
6.00028206424022
6.09216607035833
6.18405007647645
6.27593408259456
6.36781808871268
6.4597020948308
6.55158610094891
6.64347010706702
6.73535411318514
6.82723811930326
6.91912212542137
7.01100613153949
7.1028901376576
7.19477414377572
7.28665814989383
7.37854215601195
7.47042616213006
7.56231016824818
7.65419417436629
7.74607818048441
7.83796218660253
7.92984619272065
8.02173019883877
8.11361420495688
8.20549821107499
8.29738221719311
8.38926622331122
8.48115022942934
8.57303423554746
8.66491824166557
8.75680224778369
8.8486862539018
8.94057026001991
9.03245426613803
9.12359044053466
9.20938657467169
9.28501123929878
9.35058130716924
9.40893743801835
9.46302655514026
9.51501274554424
9.56615331994154
9.61670578820063
9.66634582560828
9.714800763965
9.76268441139423
9.81218220409944
9.86767671868345
9.93833312522286
10.0251161454752
0.0458660666835721
0.13268979935475
0.203504881618991
0.259195478794191
0.308890276602216
0.356965261972821
0.405602541556747
0.455418921606272
0.50614445991912
0.557455885484199
0.609605284722694
0.663838529587226
0.722303987026426
0.787930516797217
0.863547102843332
0.949294075555258
1.04038025216332
1.13222208544692
1.22406391873052
1.31590575201412
1.40774758529773
1.49958941858133
1.59143125186493
1.68327308514854
1.77511491843214
1.86695675171574
1.95879858499935
2.05064041828295
2.14248225156655
2.23432408485015
2.32616591813375
2.41800775141735
2.50984958470095
2.60169141798455
2.69353325126816
2.78537508455176
2.87721691783536
2.96905875111896
3.06090058440257
3.15274241768617
3.24458425096977
3.33642608425337
3.42826791753697
3.52010975082057
3.61195158410418
3.70379341738778
3.79563525067138
3.88747708395499
3.97931891723859
4.07116075052219
4.16300258380579
4.25484441708939
4.34668625037299
4.4385280836566
4.5303699169402
4.6222117502238
4.7140535835074
4.805895416791
4.8977372500746
4.98957908335821
5.08142091664181
5.1732627499254
5.26510458320901
5.35694641649261
5.44878824977621
5.54063008305981
5.63247191634342
5.72431374962702
5.81615558291062
5.90799741619422
5.99983924947782
6.09168108276142
6.18352291604502
6.27536474932863
6.36720658261223
6.45904841589583
6.55089024917943
6.64273208246303
6.73457391574663
6.82641574903024
6.91825758231384
7.01009941559744
7.10194124888104
7.19378308216464
7.28562491544824
7.37746674873184
7.46930858201545
7.56115041529905
7.65299224858265
7.74483408186625
7.83667591514986
7.92851774843346
8.02035958171706
8.11220141500066
8.20404324828426
8.29588508156786
8.38772691485146
8.47956874813506
8.57141058141867
8.66325241470227
8.75509424798587
8.84693608126947
8.93877791455307
9.03061974783668
9.12171737743928
9.20750278374337
9.28317088201387
9.34883780624541
9.40732909777402
9.46157603143758
9.51373120165007
9.56504522735352
9.61577420073563
9.66559549379634
9.71423786959397
9.76231197183195
9.81199178271958
9.8676368755893
9.93836537708836
10.0251365534295
0.0458448886581228
0.132656044253948
0.203545399109102
0.259391839430879
0.309275239702329
0.357547652759575
0.406379265212409
0.45638356841475
0.507292096986377
0.558783342476589
0.611107944171808
0.665504863124503
0.724110576051581
0.789837734040556
0.865499630211695
0.951235694795193
1.04228197404551
1.13408008958469
1.22587820512387
1.31767632066306
1.40947443620224
1.50127255174143
1.59307066728061
1.6848687828198
1.77666689835898
1.86846501389817
1.96026312943735
2.05206124497653
2.14385936051572
2.2356574760549
2.32745559159409
2.41925370713327
2.51105182267245
2.60284993821163
2.69464805375082
2.78644616929
2.87824428482919
2.97004240036837
3.06184051590755
3.15363863144674
3.24543674698592
3.3372348625251
3.42903297806428
3.52083109360347
3.61262920914265
3.70442732468184
3.79622544022103
3.88802355576021
3.9798216712994
4.07161978683858
4.16341790237776
4.25521601791695
4.34701413345613
4.43881224899531
4.5306103645345
4.62240848007368
4.71420659561286
4.80600471115204
4.89780282669123
4.98960094223041
5.0813990577696
5.17319717330878
5.26499528884796
5.35679340438715
5.44859151992633
5.54038963546551
5.6321877510047
5.72398586654388
5.81578398208306
5.90758209762225
5.99938021316143
6.09117832870062
6.1829764442398
6.27477455977898
6.36657267531816
6.45837079085735
6.55016890639653
6.64196702193571
6.7337651374749
6.82556325301408
6.91736136855326
7.00915948409245
7.10095759963163
7.19275571517082
7.28455383071
7.37635194624918
7.46815006178837
7.55994817732755
7.65174629286673
7.74354440840592
7.83534252394511
7.92714063948429
8.01893875502347
8.11073687056266
8.20253498610184
8.29433310164102
8.3861312171802
8.47792933271939
8.56972744825857
8.66152556379776
8.75332367933694
8.84512179487612
8.93691991041531
9.02871802595449
9.11977569878933
9.2055499841215
9.28126310702377
9.34703043597485
9.40566184001035
9.46007237204918
9.51240271277158
9.56389654423918
9.61480848926561
9.66481767882579
9.71365435968029
9.76192589412274
9.811794389299
9.86759557346431
9.93839881042051
10.0251577089849
0.045822934821792
0.13262105261921
0.203587400311939
0.259595389456772
0.309674299368334
0.358151372961242
0.407184438577268
0.457383550091132
0.508481773055564
0.560159426259982
0.612665649099766
0.667232238592117
0.725983345508719
0.79181481826708
0.867523684285368
0.95324844098428
1.0442533613575
1.13600615764814
1.22775895393877
1.3195117502294
1.41126454652003
1.50301734281066
1.59477013910129
1.68652293539193
1.77827573168256
1.8700285279732
1.96178132426383
2.05353412055446
2.14528691684509
2.23703971313573
2.32879250942636
2.42054530571699
2.51229810200762
2.60405089829825
2.69580369458889
2.78755649087952
2.87930928717015
2.97106208346078
3.06281487975141
3.15456767604204
3.24632047233268
3.33807326862331
3.42982606491394
3.52157886120457
3.61333165749521
3.70508445378584
3.79683725007647
3.88859004636711
3.98034284265774
4.07209563894837
4.163848435239
4.25560123152964
4.34735402782027
4.4391068241109
4.53085962040153
4.62261241669216
4.71436521298279
4.80611800927342
4.89787080556406
4.98962360185469
5.08137639814532
5.17312919443595
5.26488199072659
5.35663478701722
5.44838758330785
5.54014037959848
5.63189317588911
5.72364597217975
5.81539876847037
5.90715156476101
5.99890436105164
6.09065715734227
6.1824099536329
6.27416274992354
6.36591554621417
6.4576683425048
6.54942113879543
6.64117393508606
6.7329267313767
6.82467952766733
6.91643232395795
7.00818512024859
7.09993791653922
7.19169071282985
7.28344350912049
7.37519630541112
7.46694910170175
7.55870189799238
7.65045469428301
7.74220749057364
7.83396028686428
7.92571308315491
8.01746587944554
8.10921867573617
8.20097147202681
8.29272426831744
8.38447706460807
8.4762298608987
8.56798265718934
8.65973545347996
8.7514882497706
8.84324104606123
8.93499384235186
9.02674663864249
9.11776289101384
9.20352564782203
9.27928544461833
9.34515685665093
9.40393350645632
9.45851363054837
9.51102555929871
9.56270578380032
9.61380740392184
9.66401137416228
9.71304947934868
9.76152567901936
9.81158976867204
9.86755275889673
9.9384334684987
10.0251796395282
0.0458001767544463
0.132584779153765
0.203630939542147
0.259806391985812
0.31008797161884
0.358777203582801
0.408019103576217
0.458420160848308
0.50971502797632
0.561585918045365
0.61428041588811
0.669022892080696
0.727924719765087
0.793864328911262
0.869621885290161
0.955334919691861
1.04629696613188
1.13800278300241
1.22970859987294
1.32141441674347
1.413120233614
1.50482605048453
1.59653186735507
1.6882376842256
1.77994350109613
1.87164931796666
1.9633551348372
2.05506095170773
2.14676676857826
2.23847258544879
2.33017840231932
2.42188421918985
2.51359003606038
2.60529585293092
2.69700166980145
2.78870748667198
2.88041330354251
2.97211912041304
3.06382493728358
3.15553075415411
3.24723657102464
3.33894238789517
3.4306482047657
3.52235402163623
3.61405983850677
3.7057656553773
3.79747147224783
3.88917728911836
3.98088310598889
4.07258892285943
4.16429473972996
4.25600055660049
4.34770637347102
4.43941219034155
4.53111800721208
4.62282382408261
4.71452964095314
4.80623545782367
4.89794127469421
4.98964709156474
5.08135290843527
5.1730587253058
5.26476454217634
5.35647035904686
5.4481761759174
5.53988199278793
5.63158780965846
5.72329362652899
5.81499944339952
5.90670526027005
5.99841107714058
6.09011689401112
6.18182271088165
6.27352852775218
6.36523434462271
6.45694016149324
6.54864597836377
6.6403517952343
6.73205761210483
6.82376342897537
6.91546924584589
7.00717506271643
7.09888087958696
7.1905866964575
7.28229251332803
7.37399833019855
7.46570414706908
7.55740996393962
7.64911578081015
7.74082159768068
7.83252741455121
7.92423323142175
8.01593904829228
8.10764486516281
8.19935068203334
8.29105649890387
8.3827623157744
8.47446813264493
8.56617394951547
8.657879766386
8.74958558325653
8.84129140012706
8.93299721699759
9.02470303386812
9.11567634846373
9.2014271542539
9.27723533461461
9.34321464285777
9.40214185978071
9.45689778921145
9.50959795863547
9.56147140478317
9.61276964906225
9.66317553641579
9.71242244609175
9.76111080900778
9.81137765634072
9.86750837652024
9.93846939618805
10.0252023734491
0.0457765849948373
0.132547176901553
0.203676073101644
0.260025119755124
0.310516791352466
0.359425954217341
0.408884340285158
0.459494742296132
0.510993457996457
0.563064664285684
0.615954334777672
0.670879141591583
0.72993721199845
0.795988919167332
0.871796949437893
0.95749783193543
1.04841543388837
1.14007255035071
1.23172966681304
1.32338678327538
1.41504389973771
1.50670101620005
1.59835813266239
1.69001524912473
1.78167236558706
1.8733294820494
1.96498659851174
2.05664371497408
2.14830083143641
2.23995794789875
2.33161506436108
2.42327218082342
2.51492929728575
2.60658641374809
2.69824353021043
2.78990064667276
2.8815577631351
2.97321487959744
3.06487199605977
3.15652911252211
3.24818622898444
3.33984334544678
3.43150046190912
3.52315757837145
3.61481469483379
3.70647181129613
3.79812892775846
3.8897860442208
3.98144316068314
4.07310027714547
4.16475739360781
4.25641451007015
4.34807162653249
4.43972874299482
4.53138585945716
4.62304297591949
4.71470009238183
4.80635720884416
4.8980143253065
4.98967144176884
5.08132855823118
5.17298567469351
5.26464279115585
5.35629990761818
5.44795702408052
5.53961414054285
5.63127125700519
5.72292837346752
5.81458548992986
5.9062426063922
5.99789972285453
6.08955683931687
6.18121395577921
6.27287107224154
6.36452818870388
6.45618530516621
6.54784242162855
6.63949953809088
6.73115665455322
6.82281377101556
6.91447088747789
7.00612800394023
7.09778512040257
7.1894422368649
7.28109935332724
7.37275646978957
7.46441358625191
7.55607070271425
7.64772781917658
7.73938493563892
7.83104205210125
7.92269916856359
8.01435628502593
8.10601340148827
8.1976705179506
8.28932763441294
8.38098475087527
8.47264186733761
8.56429898379995
8.65595610026229
8.74761321672462
8.83927033318695
8.93092744964929
9.02258456611163
9.11351337003886
9.19925178682672
9.27511012304242
9.34120128033054
9.4002845806961
9.45522275640622
9.50811806289311
9.56019180948448
9.6116938815954
9.6623090839917
9.71177244875892
9.76068074763925
9.81115777813286
9.86746236894291
9.93850663999688
10.0252259401777
0.0457521290027335
0.132508197186333
0.203722859352247
0.26025185547672
0.310961313038223
0.360098464092084
0.409781268327519
0.460608685176833
0.51231871782727
0.564597579065286
0.617689572573812
0.672803390037172
0.732023427450405
0.798191339423974
0.874051692442605
0.959739977677065
1.05061150705853
1.14221813908017
1.23382477110181
1.32543140312346
1.4170380351451
1.50864466716674
1.60025129918838
1.69185793121003
1.78346456323168
1.87507119525332
1.96667782727496
2.05828445929661
2.14989109131825
2.24149772333989
2.33310435536154
2.42471098738318
2.51631761940482
2.60792425142647
2.69953088344811
2.79113751546975
2.88274414749139
2.97435077951304
3.06595741153468
3.15756404355632
3.24917067557796
3.34077730759961
3.43238393962125
3.52399057164289
3.61559720366454
3.70720383568618
3.79881046770782
3.89041709972947
3.98202373175111
4.07363036377275
4.1652369957944
4.25684362781604
4.34845025983768
4.44005689185933
4.53166352388097
4.62327015590262
4.71487678792426
4.8064834199459
4.89809005196754
4.98969668398919
5.08130331601083
5.17290994803247
5.26451658005411
5.35612321207575
5.4477298440974
5.53933647611904
5.63094310814068
5.72254974016232
5.81415637218397
5.90576300420561
5.99736963622726
6.0889762682489
6.18058290027054
6.27218953229218
6.36379616431383
6.45540279633547
6.54700942835711
6.63861606037875
6.73022269240039
6.82182932442204
6.91343595644368
7.00504258846533
7.09664922048697
7.18825585250861
7.27986248453025
7.37146911655189
7.46307574857354
7.55468238059518
7.64628901261683
7.73789564463847
7.82950227666011
7.92110890868175
8.0127155407034
8.10432217272504
8.19592880474669
8.28753543676832
8.37914206878997
8.47074870081161
8.56235533283325
8.6539619648549
8.74556859687654
8.83717522889818
8.92878186091982
9.02038849294146
9.11127115569147
9.19699672943395
9.27290705870874
9.33911416270075
9.39835926495691
9.45348636388491
9.50658395649899
9.55886534168405
9.61057870924328
9.66141089569208
9.71109864650843
9.76023493883775
9.81092984984915
9.8674146766731
9.93854524813735
10.0252503702219
0.0457267771188318
0.132467789549034
0.203771358791022
0.260486892202064
0.311422111431147
0.360795603152612
0.410711048321891
0.461763431163967
0.513692522784488
0.566186646576804
0.61948837545073
0.674798128351197
0.734186066798844
0.800474440824865
0.876389033165571
0.962064259447937
1.05288802853575
1.14444232673033
1.23599662492491
1.32755092311949
1.41910522131407
1.51065951950865
1.60221381770323
1.69376811589781
1.78532241409239
1.87687671228698
1.96843101048156
2.05998530867614
2.15153960687072
2.2430939050653
2.33464820325988
2.42620250145446
2.51775679964904
2.60931109784362
2.7008653960382
2.79241969423278
2.88397399242736
2.97552829062194
3.06708258881652
3.15863688701111
3.25019118520568