/*--------------------------------*- C++ -*----------------------------------*\
  =========                 |
  \\      /  F ield         | OpenFOAM: The Open Source CFD Toolbox
   \\    /   O peration     | Website:  https://openfoam.org
    \\  /    A nd           | Version:  7
     \\/     M anipulation  |
\*---------------------------------------------------------------------------*/
FoamFile
{
    version     2.0;
    format      ascii;
    class       volScalarField;
    location    "0";
    object      Cz;
}
// * * * * * * * * * * * * * * * * * * * * * * * * * * * * * * * * * * * * * //

dimensions      [0 1 0 0 0 0 0];

internalField   nonuniform List<scalar> 
15600
(
7.33263928732293e-18
1.06114891882612e-17
4.64796255561689e-17
1.4791302509567e-17
7.54913355875525e-18
4.29767305148405e-18
7.29158684933865e-18
6.34500881658595e-18
0
0
9.38845096284381e-18
4.30768259878915e-18
3.73710843574212e-18
4.88553574962945e-18
-2.75501494294163e-18
-5.60360638458341e-18
0
-2.89451158485099e-18
-8.58716122778326e-18
0
5.78902316970233e-18
-5.78902316970212e-18
-1.59181608258049e-18
0
-5.98177022324213e-18
0
1.00826037835934e-17
4.29358061389168e-18
0
-2.99088511162112e-18
0
0
7.18809219874302e-18
-1.4954425558105e-18
0
-1.49544255581046e-18
-5.78902316970217e-18
-5.78902316970259e-18
-3.48989657482457e-16
-3.50978320873369e-16
1.59181608258043e-18
-9.63735267699738e-20
0
0
1.59181608258041e-18
-3.47686961980222e-16
-3.47240518341213e-16
1.49544255581044e-18
9.63735267699778e-20
0
-4.38995414066143e-18
0
0
-1.49544255581065e-18
-2.89451158485101e-18
-2.79813805808124e-18
4.38995414066162e-18
4.29358061389171e-18
5.78902316970219e-18
0
-3.54875054178962e-16
-3.49043510369541e-16
-5.78902316970226e-18
-2.79813805808112e-18
0
0
0
2.8945115848512e-18
0
0
0
1.4954425558105e-18
3.50485100038276e-16
3.41686641516692e-16
0
0
0
1.3990690290405e-18
-5.78902316970227e-18
3.51691422013767e-16
3.47385092420448e-16
1.5918160825804e-18
5.78902316970258e-18
-9.63735267699747e-20
-2.9908851116211e-18
-7.18809219874221e-18
0
0
2.99088511162081e-18
9.63735267699815e-20
2.79813805808101e-18
3.5029235298475e-16
3.42464122230113e-16
-1.49544255581052e-18
0
0
0
6.8919940668362e-16
6.68244770755825e-16
0
0
2.99088511162103e-18
-4.197207087122e-18
0
0
4.27332932063813e-18
8.07847497530134e-18
0
0
-2.29949161805883e-18
7.73641080866057e-18
-4.12704027627826e-18
4.75567524993716e-18
-5.56658702063787e-18
0
-1.27182520933738e-17
4.51366954794272e-18
-1.04972948005462e-19
1.07209994461882e-17
-5.08193751793506e-18
2.35865025311121e-18
1.29814635354531e-17
2.22419966740297e-17
-1.78275801225838e-18
2.20584690983858e-17
1.26022652891648e-17
-1.94306153247722e-18
0
0
0
0
0
3.70391861554264e-18
-3.65397759421709e-18
5.50098034835795e-18
-2.65761978113813e-18
0
0
-3.08574228162672e-18
0
-5.59319684570626e-18
-1.92762572515814e-19
1.92762572515817e-19
-2.89297970911087e-18
-8.67893912733333e-18
0
-1.92762572515818e-19
-1.11863936914126e-17
0
0
-1.92762572515817e-19
0
-3.0857422816268e-18
2.94511807097255e-16
2.98596622177653e-16
0
0
2.70021713659525e-18
6.30105158960969e-16
6.23255766497707e-16
-1.11863936914124e-17
-1.92762572515814e-19
1.9276257251581e-19
0
-2.89297970911088e-18
9.13623334939408e-16
9.2730620861923e-16
0
1.92762572515813e-19
0
-3.08574228162675e-18
0
1.9276257251581e-19
5.78595941822207e-18
5.40043427319033e-18
-2.70021713659533e-18
-2.89297970911098e-18
0
-5.78595941822226e-18
0
3.35978877008782e-16
3.39676123287555e-16
0
-1.92762572515818e-19
-5.7859594182222e-18
0
0
1.92762572515819e-19
3.08574228162699e-18
2.50745456407915e-18
0
-1.92762572515821e-19
-3.35786114436281e-16
-3.36428721527347e-16
-5.78595941822197e-18
0
-1.92762572515814e-19
-5.78595941822244e-18
-2.89297970911119e-18
-3.33278659872181e-16
-3.35318445536081e-16
5.78595941822204e-18
0
1.92762572515822e-19
1.11863936914124e-17
-2.91618827388152e-16
-2.93003425331928e-16
0
0
0
0
-6.24511962115264e-16
-6.27768124315056e-16
0
-2.89297970911109e-18
0
-2.89297970911112e-18
-6.46691986925614e-16
-6.55017158392327e-16
-2.89297970911092e-18
1.92762572515825e-19
-3.08574228162693e-18
0
0
-1.93113436598199e-19
2.74925571007865e-18
9.62805677230787e-18
-3.70677050762154e-18
-8.33381924634849e-18
1.96211482200232e-19
1.96622083018232e-19
1.06679879911208e-17
-4.58243743558994e-18
1.40380323479689e-17
-4.33460406809619e-18
1.24451195267377e-17
7.27471048511044e-18
2.86107713405485e-17
-2.04857401194297e-17
2.55179423843424e-18
-2.37250093828865e-18
-1.27152194472454e-17
2.03428811498963e-17
-1.36259081575119e-17
2.71756574846466e-15
2.3716029651884e-15
1.87861884162864e-18
1.15940444302262e-17
5.42652790136203e-18
4.92025574745167e-18
2.13784334661446e-18
0
-3.38872139038618e-18
1.4864408845767e-18
0
2.75726187194312e-18
0
0
-2.60575727854976e-18
0
5.40427770408351e-18
-1.92763146983505e-19
-5.59704085106697e-18
0
-2.99128357251698e-18
0
-1.92763146983504e-19
-5.21151455710002e-18
0
0
0
0
2.60575727854978e-18
-2.8932507510974e-16
-2.82346421866326e-16
-1.92763146983507e-19
0
0
-2.86526554684177e-16
-2.77248340168726e-16
0
0
1.92763146983502e-19
2.79852042553364e-18
0
-5.70447352089866e-16
-5.57508157243746e-16
0
2.79852042553363e-18
-2.99128357251685e-18
0
-1.92763146983498e-19
1.92763146983508e-19
2.79852042553349e-18
1.92763146983504e-19
0
0
-2.60575727854987e-18
2.79852042553348e-18
5.40427770408297e-18
2.60575727855003e-18
-1.92763146983501e-19
-5.40427770408296e-18
1.92763146983502e-19
-2.99128357251698e-18
2.60575727855015e-18
-2.99128357251685e-18
0
-2.99128357251699e-18
0
2.79852042553349e-18
1.92763146983502e-19
-1.927631469835e-19
0
1.92763146983501e-19
-1.92763146983498e-19
-1.92763146983504e-19
0
2.99128357251712e-18
0
-1.92763146983506e-19
-5.59704085106695e-18
1.92763146983502e-19
0
2.79852042553354e-18
2.76103525569995e-16
2.82539185013321e-16
0
0
2.79852042553344e-18
-1.92763146983505e-19
2.81507803274077e-16
2.83981415690507e-16
0
1.92763146983501e-19
-2.99128357251689e-18
1.92763146983504e-19
0
0
-2.60575727854976e-18
0
0
0
0
0
5.50027285933694e-18
-4.45657133168046e-18
-3.58186885042202e-18
1.95764894825158e-19
2.5291540495389e-18
7.29026840689949e-18
1.97046638756065e-19
4.41533346284543e-18
-1.71019473129766e-17
-2.19046823529535e-18
-1.73051065958256e-17
-2.15855888897275e-17
2.46825978319186e-17
7.21196523546652e-18
2.08294768070965e-18
2.29288026543532e-18
-1.20884179181656e-17
0
-1.04923196719822e-17
-2.69182455361335e-15
-2.22762282533382e-15
5.07539529856389e-18
7.09481293257178e-18
1.02839877153713e-17
-7.0289156259086e-18
0
1.89681634509045e-19
-5.09244507088989e-18
-5.73624166404755e-18
-2.75312437190528e-18
0
0
0
-2.70739994483603e-18
0
0
0
0
1.92763742943454e-19
0
1.92763742943455e-19
1.92763742943456e-19
0
1.92763742943454e-19
-2.70739994483591e-18
2.74261987118356e-16
2.80729859422581e-16
2.70739994483596e-18
0
-2.73876459632434e-16
-2.77785480888979e-16
0
-1.92763742943456e-19
-5.41479988967187e-18
0
2.70739994483586e-18
-1.92763742943456e-19
0
1.92763742943456e-19
0
5.22203614672864e-18
2.70739994483579e-18
0
0
5.41479988967191e-18
1.92763742943455e-19
2.70739994483594e-18
-5.22203614672864e-18
-2.7073999448359e-18
-2.90016368777951e-18
2.70739994483597e-18
-5.41479988967236e-18
0
-5.41479988967231e-18
1.9276374294346e-19
-1.92763742943454e-19
-5.41479988967232e-18
-5.41479988967206e-18
-2.70739994483623e-18
-2.70739994483592e-18
0
-2.70739994483592e-18
0
0
-1.92763742943456e-19
-2.70739994483589e-18
0
-2.70739994483589e-18
0
0
-2.70739994483591e-18
-2.7073999448359e-18
0
0
-2.7073999448359e-18
0
-2.70739994483589e-18
0
-2.70739994483589e-18
-1.92763742943456e-19
-2.70739994483588e-18
-1.92763742943456e-19
0
-2.51463620189257e-18
-2.7073999448359e-18
-2.70739994483592e-18
0
-2.70739994483591e-18
0
1.92763742943455e-19
-2.70739994483593e-18
-2.51463620189257e-18
0
-2.90016368777958e-18
-5.41479988967215e-18
-5.41479988967228e-18
-5.41479988967204e-18
-5.41479988967226e-18
-5.41479988967211e-18
1.93115167309264e-19
2.36645465331099e-18
-7.36055831023021e-18
8.55582525025924e-18
-1.95762401280006e-19
-6.17895934807686e-18
6.83671314695341e-18
7.56756699578593e-18
1.81325353721495e-18
4.68635765938051e-18
4.03381634926773e-18
2.4699927581407e-18
-5.44439320601754e-18
-1.04909411879223e-17
0
0
-4.43214782640423e-18
0
-1.86959917922546e-17
2.29051773809666e-17
8.74463354932823e-18
-7.39040427151224e-18
-3.3260135743918e-18
0
0
-2.00857798487456e-18
-1.60787112612758e-18
9.09217621565419e-18
0
0
4.94420218307644e-18
0
0
0
1.92764361216978e-19
1.92764361216969e-19
-1.92764361216971e-19
-1.9276436121697e-19
-5.23900061612395e-18
5.04623625490703e-18
0
0
0
2.61950030806208e-18
1.9276436121697e-19
2.61950030806206e-18
-2.72032028293595e-16
-2.63608095206807e-16
-5.23900061612431e-18
-2.61950030806223e-18
2.71839263932357e-16
2.66489863560533e-16
0
2.42673594684524e-18
0
0
2.61950030806208e-18
0
5.23900061612411e-18
-5.23900061612403e-18
0
7.85850092418613e-18
0
2.42673594684512e-18
2.81226466927905e-18
4.85347189369035e-18
-1.92764361216973e-19
0
1.92764361216979e-19
-2.61950030806209e-18
2.61950030806201e-18
-2.42673594684505e-18
-2.61950030806224e-18
1.92764361216973e-19
0
0
2.81226466927922e-18
0
2.61950030806209e-18
-2.81226466927918e-18
2.42673594684521e-18
0
-1.92764361216974e-19
-4.85347189369062e-18
0
2.61950030806207e-18
0
0
-2.61950030806228e-18
0
2.61950030806225e-18
0
2.61950030806205e-18
-7.47297220175224e-18
1.92764361216976e-19
0
0
-2.61950030806215e-18
2.61950030806209e-18
0
5.23900061612402e-18
0
-2.42673594684527e-18
2.81226466927913e-18
2.81226466927904e-18
0
0
0
0
0
-2.61950030806208e-18
5.23900061612411e-18
-5.23900061612438e-18
0
-1.92764361216975e-19
0
0
0
1.92764361216973e-19
-2.61950030806211e-18
0
-4.94200093417841e-18
0
1.12198940970705e-17
-1.58373738204326e-18
5.95588284275726e-18
4.58918496703801e-18
0
3.12763467078302e-18
9.21161929297213e-18
7.3839392737062e-18
-2.00625806592764e-19
0
0
0
0
4.18757380490382e-18
1.99243190991581e-17
-2.075918701288e-17
0
6.68167779940292e-18
-3.55771447831419e-18
0
-5.45610154763112e-18
-2.34353816956724e-18
-1.88804552419612e-19
-7.84742153616441e-18
-1.71656793015168e-18
-1.90214060787873e-19
-5.72081356466483e-18
4.96311871179376e-18
0
-1.92765002658021e-19
0
2.5347077258626e-18
-2.34194272320449e-18
0
-1.92765002658027e-19
0
0
0
1.92765002658014e-19
0
-2.72747272852059e-18
0
0
7.41135817493006e-18
-1.92765002658017e-19
7.41135817492919e-18
1.92765002658025e-19
-5.06941545172554e-18
1.9276500265802e-19
5.06941545172521e-18
0
4.87665044906705e-18
5.06941545172506e-18
0
0
0
7.21859317227148e-18
4.87665044906725e-18
7.41135817492929e-18
4.87665044906702e-18
0
0
1.92765002658019e-19
-1.92765002658019e-19
0
7.41135817492982e-18
-2.34194272320435e-18
0
0
0
2.53470772586244e-18
0
0
2.53470772586268e-18
0
0
4.87665044906715e-18
5.06941545172516e-18
0
0
-2.5347077258626e-18
2.53470772586239e-18
2.34194272320452e-18
1.92765002658019e-19
1.92765002658025e-19
0
2.34194272320428e-18
0
0
-7.41135817492986e-18
0
0
0
0
-2.14917772054631e-18
0
0
7.60412317758753e-18
1.92765002658023e-19
0
0
0
5.06941545172517e-18
0
-5.06941545172492e-18
5.06941545172539e-18
4.87665044906672e-18
2.53470772586249e-18
0
0
5.06941545172535e-18
0
0
0
-7.41135817492939e-18
2.72747272852041e-18
0
0
-1.93982797307678e-19
5.14121483979303e-18
-3.03777628058732e-18
-5.53832869382532e-18
3.82713140828236e-18
-1.05829843506996e-17
-2.14522928733425e-18
8.09498384473155e-18
-1.98346703299914e-19
9.08592395550826e-18
6.10645451023468e-18
4.45293952556093e-18
0
-1.1275025591458e-17
0
0
0
0
6.64681412178948e-18
0
3.61104504546699e-18
3.09879283335134e-18
1.2876053760518e-17
-4.70459877565473e-18
-4.64789151775067e-18
1.65609432124621e-18
0
-6.05305965399059e-18
-7.72659661790561e-18
2.20455643527264e-16
5.8831016833103e-16
3.66425484368465e-16
0
0
-3.52795060053676e-16
-3.64944531097974e-16
-3.57700884916062e-16
-3.63767200857552e-16
0
3.57508119247901e-16
3.612799358953e-16
-2.26014676304099e-18
0
0
-3.60346563015418e-16
-3.65101328663542e-16
-3.58086416252359e-16
-3.66203998730395e-16
0
0
3.60539328683553e-16
3.64293321460473e-16
7.16597162543216e-18
3.55826269489313e-16
3.62069212296506e-16
0
0
3.55826269489312e-16
3.62788134893257e-16
-1.92765668154657e-19
0
3.59961031679089e-16
3.6770845251108e-16
3.67705300308985e-16
7.9058902881924e-18
-3.6112314068889e-16
6.09314596382533e-16
6.13168152758081e-16
7.16597162543228e-18
3.65059622209631e-16
3.6098565555749e-16
0
-3.58086416252357e-16
-3.61483998384893e-16
-4.52029352608149e-18
2.4529124311957e-18
0
1.92765668154663e-19
0
3.62799475446594e-16
3.58994244394808e-16
0
-6.16095036671647e-16
-6.0780113714444e-16
0
-3.59961031679066e-16
-3.58365596871504e-16
1.9276566815466e-19
0
-2.45291243119571e-18
2.26014676304084e-18
3.62606709778452e-16
3.58267841367186e-16
-4.71305919423672e-18
0
0
0
0
-6.18355183434682e-16
-6.05986002528566e-16
0
-4.90582486239136e-18
2.45291243119578e-18
4.7130591942366e-18
3.64288559537031e-16
-2.57581382629036e-16
-5.99283335939536e-16
-4.90582486239173e-18
4.71305919423634e-18
-3.69194384399436e-16
-7.26532323773137e-16
-3.64841333597661e-16
3.64674090873331e-16
3.54919379473554e-16
3.67127003304542e-16
3.53643797282803e-16
-4.90582486239172e-18
3.63903028200708e-16
3.55259224756454e-16
-3.58886137782054e-16
-3.19718715847098e-16
8.11122357664129e-18
3.12487128666327e-18
-1.19693089651954e-17
9.41806427877838e-18
-6.11917561869089e-18
1.12844113901642e-17
-2.73360532716121e-18
-1.83594586742324e-15
-2.00442771018934e-15
-6.27044771610922e-18
7.00965479021671e-18
-3.52863905141607e-15
-4.05189001518633e-15
6.30863321016517e-18
4.00312788335901e-18
3.91090822821581e-15
3.37903830326965e-15
1.79980795254707e-17
-5.84596186898056e-18
6.59444934535033e-18
2.61715175562216e-18
-7.33370302652291e-18
0
-3.93309188516153e-18
1.96776877274787e-18
8.16672395586994e-18
0
-5.16045857366508e-18
-2.17214665631799e-16
-5.73675744502076e-16
-3.48991567438367e-16
0
-4.94078343309884e-18
3.51515040896409e-16
3.41876190331086e-16
3.53696283075009e-16
3.49044537887503e-16
-4.7480170744683e-18
-3.54081815792249e-16
-3.44635289649689e-16
-4.55525071583797e-18
0
2.37400853723422e-18
3.5863706650811e-16
3.48588892193414e-16
3.58637066508116e-16
3.48828449217932e-16
2.37400853723422e-18
0
-3.49719331435062e-16
-3.46984326967582e-16
-2.18124217860375e-18
-3.56455824329495e-16
-3.47012278418505e-16
0
2.37400853723418e-18
-3.54081815792274e-16
-3.49887037882563e-16
0
1.92766358630492e-19
-3.51900573613659e-16
-3.57208997812604e-16
-3.52286106330933e-16
3.66283307611058e-18
3.51032645345444e-16
-5.9204030927636e-16
-5.84507663135844e-16
0
-3.52286106330921e-16
-3.53147733500826e-16
-2.18124217860361e-18
3.56455824329509e-16
3.50809264614189e-16
4.55525071583781e-18
1.92766358630495e-19
-9.11050143167583e-18
-2.56677489586467e-18
-2.37400853723412e-18
-3.50104864152327e-16
-3.53147733500822e-16
0
5.85496582740546e-16
5.97980648924744e-16
0
3.50297630510942e-16
3.52792991253412e-16
0
0
0
-2.37400853723408e-18
-3.52093339972312e-16
-3.52261046419803e-16
4.74801707446837e-18
4.74801707446836e-18
6.9292592530716e-18
2.18124217860366e-18
0
5.9460708417223e-16
6.04148515598932e-16
1.92766358630496e-19
-7.12202561170308e-18
4.74801707446852e-18
-1.92766358630494e-19
-3.54274582150907e-16
2.2619424601271e-16
5.93314331578978e-16
0
0
3.45549613436506e-16
7.00898347620532e-16
3.53442792276159e-16
-3.51900573613681e-16
-3.52394054935016e-16
-3.47345322897831e-16
-3.50215626328263e-16
-6.92925925307207e-18
-3.4298283854062e-16
-3.45236261009053e-16
3.30663813952901e-16
3.34627222245556e-16
-2.67797255156333e-18
1.80314509208279e-18
5.17505517846382e-18
1.58144388474893e-18
0
8.69812221970385e-18
7.13145298495071e-18
1.69839640255023e-15
2.00531000785145e-15
-2.0055946456732e-19
1.1241479339824e-17
3.34586761061638e-15
3.92001369609397e-15
2.09831711732374e-18
1.83866200949746e-18
-3.79045958838351e-15
-3.21599179535951e-15
-1.75005143141835e-17
5.62517906482483e-18
0
5.77482120094219e-18
-1.45154334172507e-15
-1.38487357742256e-15
3.97877771442559e-18
-6.85649574616643e-18
-6.53145855564423e-18
2.72630245670806e-18
0
-1.91546443585304e-19
2.15354613599531e-16
2.34815431085966e-16
4.40302072554493e-18
-2.20505948426798e-16
-4.64794088525364e-16
-8.16276413789335e-18
2.24537080362745e-16
0
4.59578780059075e-18
-3.37652604341098e-16
-5.66896190400099e-16
-2.27816314531548e-16
0
4.5957878005909e-18
-2.29789390029538e-18
2.2978939002954e-18
-4.40302072554473e-18
2.27399630127681e-16
2.2868189296865e-16
2.2978939002954e-18
0
-2.29311989877896e-16
-2.29511833049901e-16
-4.40302072554451e-18
6.70091462584018e-18
6.70091462583988e-18
0
0
-2.25101736227392e-16
-2.2731522354422e-16
4.40302072554443e-18
-6.70091462583987e-18
-2.29789390029536e-18
0
0
-2.29504756952941e-16
-2.34399579201069e-16
0
0
-2.29504756952931e-16
-4.5539636860068e-16
3.44175989780657e-16
5.64181858501141e-16
0
-2.2978939002954e-18
0
0
-5.7826129664541e-16
-3.36589461298414e-16
4.77331698686291e-18
-2.27996738472942e-16
4.59578780059088e-18
0
0
2.2978939002953e-18
-2.29789390029549e-18
0
-2.29789390029538e-18
3.39950498241395e-16
3.46968844579785e-16
2.31995417928279e-16
2.29613117444522e-16
0
6.70091462583981e-18
-6.70091462584025e-18
2.24908969152345e-16
2.24543101274058e-16
2.29311989877903e-16
2.23003685499102e-16
-2.33715010603442e-16
-2.19753201558806e-16
4.78855487563705e-18
4.59578780059061e-18
0
-5.69069721044232e-16
-3.2405985870461e-16
2.26104287320536e-16
-4.7885548756371e-18
2.31609883778183e-16
2.21308166980785e-16
2.10512682524918e-18
0
2.10512682524913e-18
-2.29119222802835e-16
-2.26608963943992e-16
2.26821328902556e-16
4.5598804707431e-16
4.52773972404034e-16
-7.45925923467759e-18
-2.18064857136111e-16
-2.14377866051579e-18
-2.59051805198251e-18
2.7246350698763e-18
1.92866270058313e-18
3.42649840700162e-18
-1.89404829791192e-18
6.67929994283547e-18
2.55084263188963e-18
-2.69837784381777e-18
6.34227987508795e-18
-2.00535937555318e-19
0
0
-7.75250383187407e-18
1.93158794088889e-19
-1.77450356649502e-18
0
4.78812130032253e-18
6.43117992038833e-18
5.59702045230338e-18
5.55196825023151e-18
-5.20055698761304e-18
1.47582735351885e-15
1.26969748649976e-15
5.66667429365686e-18
6.41871365265982e-18
-6.12034547113661e-18
3.00957739573594e-18
2.12204772825571e-18
-4.52305345181507e-18
-2.22903816113858e-16
-7.50826602909603e-16
-5.48545883890037e-16
2.12823887993796e-16
4.35412443184156e-16
-1.2681980603791e-17
-2.15017969152939e-16
0
0
3.31522428915191e-16
5.4003819943738e-16
2.15372253763392e-16
-1.92767818401212e-19
0
0
-1.92767818401215e-19
0
-2.27816874451925e-16
-2.16806434178897e-16
4.25617215683571e-18
4.25617215683573e-18
2.14855590163028e-16
2.16624830421615e-16
4.25617215683574e-18
-1.92767818401216e-19
-4.44893997523702e-18
-4.25617215683616e-18
2.03170216921723e-18
2.19304530138251e-16
2.11031341074253e-16
2.03170216921729e-18
1.92767818401213e-19
6.48064214445419e-18
2.0317021692174e-18
2.2244699876185e-18
2.19690065775056e-16
2.19534853487784e-16
6.48064214445471e-18
-1.92767818401215e-19
2.13016655812198e-16
4.44368871263396e-16
-3.277382611192e-16
-5.50712359288112e-16
2.4172378060197e-18
0
1.92767818401217e-19
-1.92767818401214e-19
5.49566328157836e-16
3.3162946006549e-16
1.15281706622938e-19
2.22425586924505e-16
-4.25617215683583e-18
0
0
0
1.9276781840121e-19
2.22446998761846e-18
0
-3.19717751536695e-16
-3.28170644993899e-16
-2.19690065775066e-16
-2.17126447581903e-16
0
0
2.03170216921748e-18
-2.1949729795665e-16
-2.25420331831423e-16
-2.19497297956652e-16
-2.24944406916895e-16
2.08760483655373e-16
2.16333916944034e-16
4.25617215683583e-18
1.92767818401223e-19
3.38388606696453e-16
8.71280835333485e-16
3.35391607451869e-16
-2.28354909760925e-16
-2.22446998761862e-18
-2.22446998761863e-18
-1.21906207334536e-17
1.92767818401216e-19
2.22446998761845e-18
-1.92767818401222e-19
2.12823887993798e-16
2.18677394856034e-16
-2.17465595787439e-16
-4.42103238895555e-16
-4.39992484352462e-16
-7.38162048320327e-18
2.14626419339731e-16
-1.87508476022953e-18
-4.81763797116515e-18
1.95249372790896e-19
0
-1.65114530151107e-18
-1.6818647628479e-17
-1.23078417144758e-17
7.19531967498448e-18
0
-1.54608267062267e-17
-2.00511673297006e-19
1.04055892281811e-17
2.01228916009088e-19
0
5.51663076574526e-18
-3.52162086030495e-18
-1.88316311175087e-19
1.0268669806653e-17
-1.78457559067068e-17
6.94261512321019e-18
-5.88043278434879e-18
5.00745699419997e-18
-2.1846496601907e-18
-4.07962341553881e-18
1.94818528378817e-18
-4.96537611445965e-18
-5.52737239796803e-18
2.5354252711397e-18
-2.42227470241193e-18
1.806333939439e-18
0
5.2743533781244e-16
5.11139237434474e-16
0
-8.22902981979488e-18
-8.4217984095296e-18
0
-4.11451490989722e-18
-6.4609252494488e-18
1.96087316008099e-18
-2.15364174981622e-18
1.92768589735265e-19
0
-2.15364174981623e-18
2.15364174981634e-18
2.15364174981624e-18
1.92768589735269e-19
-2.15364174981624e-18
0
0
0
-2.15364174981634e-18
0
0
4.11451490989748e-18
0
0
0
-2.15364174981624e-18
-1.92768589735267e-19
-6.07538806997856e-18
-2.15364174981627e-18
1.92768589735262e-19
-2.15364174981635e-18
1.92768589735261e-19
1.95794985630178e-16
2.06313065785245e-16
0
6.26815665971346e-18
1.92768589735264e-19
0
-6.26815665971392e-18
-4.11451490989726e-18
2.15364174981623e-18
-4.1145149098972e-18
-4.11451490989763e-18
2.15364174981623e-18
0
0
0
1.92768589735263e-19
0
2.15364174981632e-18
-1.9276858973527e-19
0
-3.92174632016202e-18
0
-4.11451490989743e-18
-2.15364174981635e-18
2.15364174981625e-18
2.15364174981636e-18
-4.11451490989744e-18
2.15364174981626e-18
-2.15364174981626e-18
-4.30728349963269e-18
-4.11451490989746e-18
0
-1.96087316008097e-18
0
0
0
0
-2.15364174981634e-18
-3.14763568100458e-16
-3.22809945660157e-16
0
0
-2.15364174981623e-18
-1.97563090200532e-16
-2.01953864637433e-16
0
4.11451490989726e-18
4.30728349963266e-18
0
4.30728349963266e-18
-1.96087316008097e-18
0
2.15364174981633e-18
-6.46092524944836e-18
2.12479518656735e-18
-2.19099786069185e-18
-1.946708190754e-19
-5.06777060402549e-18
-1.2327323086212e-18
-4.77371714563011e-18
-3.32043431794769e-18
-3.8891329408266e-18
0
-1.0205803765953e-17
1.66815463927247e-18
0
-1.20118718735372e-17
1.52389262847335e-18
5.93969733977259e-18
0
0
1.7812822285481e-18
1.04227668468556e-17
1.52315672226608e-17
0
0
-4.63416528443913e-18
0
5.43448253020056e-18
0
6.32615552746427e-18
-1.89689483436629e-19
2.44501609436474e-18
-4.30576720120629e-18
-6.16808504378222e-18
0
2.08531749783674e-18
-3.97786560554312e-18
0
0
6.06318310338007e-18
0
6.06318310337949e-18
0
4.1706349956734e-18
1.92769390130301e-19
0
3.97786560554329e-18
0
2.08531749783671e-18
-2.08531749783671e-18
1.92769390130295e-19
-1.92769390130304e-19
-1.92769390130298e-19
-2.0853174978367e-18
0
0
1.92769390130294e-19
-6.25595249351017e-18
2.08531749783683e-18
-3.97786560554313e-18
-3.97786560554313e-18
-1.89254810770644e-18
0
0
-2.08531749783685e-18
-1.92769390130298e-19
0
0
0
-1.96737671192127e-16
-1.94932143258907e-16
1.92769390130294e-19
1.92769390130301e-19
0
3.97786560554332e-18
-1.92769390130303e-19
-1.92769390130301e-19
0
0
0
0
0
-4.17063499567371e-18
0
1.92769390130302e-19
-2.08531749783671e-18
2.08531749783673e-18
2.08531749783686e-18
0
2.08531749783663e-18
0
3.97786560554311e-18
0
1.92769390130302e-19
0
0
0
1.92769390130305e-19
0
2.08531749783687e-18
-2.08531749783662e-18
-2.08531749783677e-18
4.17063499567344e-18
-3.97786560554312e-18
3.97786560554333e-18
-2.08531749783676e-18
0
-6.06318310337983e-18
4.17063499567361e-18
0
2.08531749783681e-18
2.0853174978367e-18
1.927693901303e-19
-1.92769390130297e-19
1.927693901303e-19
-1.92769390130296e-19
0
0
0
0
2.08531749783676e-18
-2.08531749783681e-18
-4.17063499567327e-18
-2.05768693435978e-18
6.17045632210038e-18
-8.99571824465424e-18
2.24828971106904e-18
3.9147800206084e-19
1.72962102773957e-18
0
-9.56337376219758e-18
4.40303176702852e-18
7.42477113255071e-18
-8.88006396837562e-18
0
-3.44846463841727e-18
1.00380577577226e-17
1.24783407337653e-17
1.84605819643542e-18
0
1.90616165474952e-18
-2.20483259264249e-17
-1.85329172178056e-18
0
-8.3546880431092e-18
-4.64159282462865e-18
-6.07911024284459e-18
3.610977447444e-18
-5.08838525276037e-18
0
-5.12257042390144e-18
7.26362334773195e-18
1.88626883880401e-18
1.66969177915467e-18
1.99208325398272e-18
-1.9277022071228e-19
-2.01940878427588e-18
0
1.92770220712279e-19
-2.01940878427572e-18
0
-3.84604734783912e-18
-3.84604734783939e-18
3.84604734783927e-18
1.92770220712281e-19
2.01940878427569e-18
-1.82663856356354e-18
0
-5.67268591140288e-18
0
7.49932447496661e-18
1.92770220712279e-19
0
0
-1.9277022071229e-19
0
-1.82663856356335e-18
0
-4.03881756855149e-18
2.01940878427576e-18
1.82663856356351e-18
1.82663856356355e-18
-2.01940878427572e-18
5.86545613211463e-18
-4.03881756855144e-18
-1.92770220712283e-19
0
1.92770220712284e-19
-3.84604734783906e-18
2.01940878427577e-18
0
-5.86545613211536e-18
2.03060071486229e-16
2.04847322395328e-16
1.92770220712279e-19
-1.92770220712285e-19
5.8654561321149e-18
0
-1.8266385635635e-18
3.84604734783942e-18
0
0
1.92770220712285e-19
-1.82663856356348e-18
0
0
0
0
2.04693939829078e-16
2.06803980902667e-16
-1.92770220712285e-19
0
-1.92770220712279e-19
-1.92770220712282e-19
2.21217900498814e-18
2.01940878427572e-18
0
-3.8460473478393e-18
-1.92770220712277e-19
4.2315877892638e-18
-3.84604734783898e-18
3.46050690641482e-18
1.92770220712285e-19
0
2.01940878427585e-18
-2.01940878427573e-18
0
-1.9277022071228e-19
1.92770220712285e-19
0
0
-1.9277022071228e-19
-2.01940878427577e-18
0
1.82663856356347e-18
-1.8266385635635e-18
-1.92770220712282e-19
-6.05822635282715e-18
2.212179004988e-18
0
1.82663856356352e-18
3.84604734783922e-18
-2.01940878427578e-18
3.79277868275635e-18
3.91485720400478e-18
6.42225590221988e-18
4.71276190525309e-18
-5.70081278407955e-18
-1.47771199098306e-18
5.09372455713873e-18
-7.41503908888599e-18
2.02509270163881e-18
0
-8.16171141842871e-18
8.22400458280876e-18
7.0055346318386e-18
7.68290391347985e-18
0
8.5560093611378e-18
-1.63615986645933e-18
-7.00322683356371e-18
0
1.05099368048941e-17
6.17867507399688e-18
5.24001734402019e-18
-3.74135108495805e-19
-7.61783421926985e-18
-4.04344078146792e-18
-1.1391655922171e-17
0
2.37057551304012e-18
2.84432090977763e-18
-1.81316414452648e-18
1.9880670351756e-18
0
5.67471978400788e-18
0
0
-1.95583028888705e-18
0
-1.9558302888872e-18
1.92771082653155e-19
-1.95583028888703e-18
-3.7188894951209e-18
-1.95583028888711e-18
-5.86749086666096e-18
0
0
0
1.95583028888702e-18
0
-1.92771082653154e-19
0
1.92771082653158e-19
1.9277108265315e-19
0
-1.95583028888702e-18
-1.95583028888712e-18
0
0
0
-1.95583028888713e-18
0
-5.67471978400785e-18
-1.76305920623395e-18
0
1.92771082653155e-19
-1.95583028888708e-18
1.94044925381318e-16
1.94265902638031e-16
1.76305920623387e-18
0
-1.99526874082666e-16
-1.96282661377102e-16
-1.95583028888714e-18
-1.95583028888712e-18
0
1.92771082653155e-19
1.95583028888704e-18
1.92771082653152e-19
0
0
-1.9277108265315e-19
-1.92771082653153e-19
-3.91166057777425e-18
1.92771082653156e-19
1.92771082653155e-19
0
-1.95807984587545e-16
-1.97626499948569e-16
1.76305920623401e-18
0
-5.67471978400817e-18
0
0
0
0
0
1.92771082653153e-19
1.95583028888704e-18
0
-1.92771082653146e-19
3.71888949512112e-18
0
0
-1.92771082653158e-19
-1.76305920623386e-18
5.67471978400789e-18
-3.71888949512124e-18
1.95583028888697e-18
0
1.92771082653152e-19
1.9558302888871e-18
-1.92771082653151e-19
1.92771082653153e-19
0
0
0
0
1.95583028888704e-18
0
0
-5.67471978400789e-18
1.93126032803762e-19
-1.93994366090748e-19
2.00280517546242e-18
-7.01216174558831e-18
7.87232736946708e-18
0
0
3.67334938362824e-18
-4.29539778273603e-18
-6.8958708371744e-18
0
5.97323041584623e-18
5.34341470689462e-18
-1.72734246643941e-17
-8.48650049763265e-18
-6.54531967167542e-18
-3.06874022816264e-18
1.31575496247462e-17
1.45704114340993e-18
-1.34610311249821e-18
1.78015944822676e-15
1.57081500620941e-15
4.48835318301303e-18
-4.1339256526561e-18
-3.16183147482983e-18
7.39010932996204e-18
-5.68031982798648e-18
0
0
-4.05778119664959e-18
5.39381369602066e-18
-3.73882570798943e-18
-5.49072714724821e-18
0
3.59622743910783e-18
0
-3.40345546193457e-18
0
0
0
0
0
5.29795517007531e-18
1.92771977172893e-19
-7.19245487821603e-18
0
1.70172773096746e-18
1.89449970814044e-18
-5.68349912442078e-18
-3.40345546193494e-18
0
-3.59622743910765e-18
-1.92771977172893e-19
5.29795517007531e-18
-1.89449970814026e-18
1.9277197717289e-19
0
-7.5779988325614e-18
0
0
-3.59622743910785e-18
0
1.92771977172892e-19
3.78899941628056e-18
1.70172773096728e-18
-1.94482165475403e-16
-1.89212515064665e-16
-1.89449970814035e-18
3.59622743910781e-18
1.70172773096747e-18
1.92771977172895e-19
0
1.89449970814036e-18
-1.9277197717289e-19
5.29795517007531e-18
0
0
0
3.59622743910798e-18
0
-5.297955170075e-18
0
-1.89449970814028e-18
-5.29795517007558e-18
1.89449970814035e-18
-3.59622743910763e-18
-7.19245487821606e-18
0
1.92771977172895e-19
1.92771977172893e-19
-1.89449970814036e-18
-7.3852268553889e-18
0
0
-1.92771977172889e-19
0
0
-1.89449970814045e-18
1.89449970814027e-18
1.70172773096747e-18
1.92771977172902e-19
1.89449970814026e-18
1.92771977172892e-19
3.78899941628052e-18
1.89449970814036e-18
0
3.78899941628052e-18
0
-5.49072714724773e-18
0
0
1.89449970814037e-18
0
0
1.89449970814018e-18
9.08695458635565e-18
1.89449970814027e-18
-1.89449970814045e-18
0
0
7.09481794243283e-18
-1.93996068666401e-19
1.93233076570838e-18
0
-2.66217659783201e-18
0
-1.96545247987116e-19
1.47725911657819e-18
3.75589207250504e-18
0
0
1.48429870294088e-18
-1.41045373663769e-17
-5.47639125608201e-18
3.19754989689702e-18
-6.33095359286079e-18
0
-2.89301282910701e-18
0
6.59139895731534e-18
-1.77766513445332e-15
-1.45513011616554e-15
2.25715694613872e-18
1.87845116835964e-19
8.44368976926483e-18
1.46018920756632e-18
-2.83467298604444e-18
-5.13657595822873e-18
-2.11422478735283e-18
3.92172302292876e-18
-2.05696086116514e-18
-6.66797535949293e-18
-1.83533764868615e-18
0
6.95580478366092e-18
1.83533764868615e-18
-3.28512948628895e-18
-1.9277290554167e-19
-1.92772905541684e-19
5.12046713497535e-18
-1.64256474314439e-18
5.12046713497458e-18
0
3.47790239183044e-18
6.95580478366124e-18
0