/*--------------------------------*- C++ -*----------------------------------*\
  =========                 |
  \\      /  F ield         | OpenFOAM: The Open Source CFD Toolbox
   \\    /   O peration     | Website:  https://openfoam.org
    \\  /    A nd           | Version:  7
     \\/     M anipulation  |
\*---------------------------------------------------------------------------*/
FoamFile
{
    version     2.0;
    format      ascii;
    class       volSymmTensorField;
    location    "0";
    object      tauij_LES;
}
// * * * * * * * * * * * * * * * * * * * * * * * * * * * * * * * * * * * * * //

dimensions      [0 2 -2 0 0 0 0];

internalField   nonuniform List<symmTensor>
15600
(
(0.00850307 -0.00022362 0.00000000 -0.00004727 0.00000000 0.00686756)
(-0.00027362 0.00011638 0.00000000 -0.00004996 0.00000000 -0.00058251)
(0.00001576 -0.00007653 0.00000000 0.00018149 0.00000000 0.00030302)
(0.00021146 -0.00018709 0.00000000 0.00012878 0.00000000 0.00174610)
(0.00008443 -0.00014719 0.00000000 0.00026474 0.00000000 0.00120420)
(0.00021185 -0.00031937 0.00000000 0.00049853 0.00000000 0.00207887)
(0.00000673 -0.00010096 0.00000000 0.00037423 0.00000000 0.00217487)
(0.00003005 0.00005355 0.00000000 -0.00019838 0.00000000 0.00029720)
(-0.00000180 0.00001135 0.00000000 -0.00004375 0.00000000 0.00084002)
(0.00009245 -0.00017356 0.00000000 0.00034644 0.00000000 0.00350135)
(0.00031981 -0.00042035 0.00000000 0.00054316 0.00000000 0.00267955)
(0.00018957 -0.00016897 0.00000000 0.00015473 0.00000000 0.00207271)
(0.00024857 -0.00026419 0.00000000 0.00028850 0.00000000 0.00228273)
(0.00060643 -0.00037620 0.00000000 0.00023298 0.00000000 0.00311206)
(0.00131372 -0.00075505 0.00000000 0.00045678 0.00000000 0.00418703)
(0.00263830 -0.00008747 0.00000000 0.00005610 0.00000000 0.00544831)
(0.00076465 -0.00000288 0.00000000 -0.00000686 0.00000000 0.00100334)
(0.00086392 -0.00000220 0.00000000 -0.00000567 0.00000000 0.00098710)
(0.00098090 -0.00000112 0.00000000 -0.00000453 0.00000000 0.00101545)
(0.00109110 -0.00000165 0.00000000 -0.00000657 0.00000000 0.00102289)
(0.00129178 -0.00000091 0.00000000 -0.00000667 0.00000000 0.00111177)
(0.00152655 -0.00000057 0.00000000 -0.00000791 0.00000000 0.00121952)
(0.00181398 0.00000093 0.00000000 -0.00000760 0.00000000 0.00137362)
(0.00212670 0.00000241 0.00000000 -0.00000953 0.00000000 0.00156595)
(0.00242364 0.00000411 0.00000000 -0.00001086 0.00000000 0.00179752)
(0.00278500 0.00000640 0.00000000 -0.00001359 0.00000000 0.00208852)
(0.00319473 0.00000972 0.00000000 -0.00001518 0.00000000 0.00243339)
(0.00354492 0.00001117 0.00000000 -0.00002167 0.00000000 0.00276142)
(0.00391937 0.00001684 0.00000000 -0.00002078 0.00000000 0.00318323)
(0.00424735 0.00001960 0.00000000 -0.00002268 0.00000000 0.00358301)
(0.00457305 0.00002363 0.00000000 -0.00002291 0.00000000 0.00403993)
(0.00503087 0.00002955 0.00000000 -0.00001163 0.00000000 0.00453600)
(0.00518570 0.00002696 0.00000000 -0.00003383 0.00000000 0.00478280)
(0.00534047 0.00003225 0.00000000 -0.00002149 0.00000000 0.00518215)
(0.00544833 0.00003102 0.00000000 -0.00003240 0.00000000 0.00539987)
(0.00558934 0.00003203 0.00000000 -0.00003561 0.00000000 0.00563281)
(0.00575879 0.00003375 0.00000000 -0.00003417 0.00000000 0.00596917)
(0.00590089 0.00003494 0.00000000 -0.00003881 0.00000000 0.00621845)
(0.00604952 0.00003576 0.00000000 -0.00003263 0.00000000 0.00646242)
(0.00609759 0.00003552 0.00000000 -0.00003389 0.00000000 0.00666037)
(0.00619063 0.00003490 0.00000000 -0.00003744 0.00000000 0.00682103)
(0.00627862 0.00003313 0.00000000 -0.00004991 0.00000000 0.00689608)
(0.00633374 0.00003383 0.00000000 -0.00004646 0.00000000 0.00713951)
(0.00652333 0.00003187 0.00000000 -0.00002425 0.00000000 0.00739023)
(0.00647088 0.00003194 0.00000000 -0.00004216 0.00000000 0.00740574)
(0.00643205 0.00002891 0.00000000 -0.00004608 0.00000000 0.00741712)
(0.00652677 0.00002756 0.00000000 -0.00004125 0.00000000 0.00746385)
(0.00650225 0.00002796 0.00000000 -0.00005334 0.00000000 0.00744877)
(0.00652253 0.00002400 0.00000000 -0.00003511 0.00000000 0.00757392)
(0.00645227 0.00002370 0.00000000 -0.00004419 0.00000000 0.00755353)
(0.00638882 0.00002044 0.00000000 -0.00003513 0.00000000 0.00752572)
(0.00635105 0.00002026 0.00000000 -0.00004967 0.00000000 0.00743550)
(0.00618117 0.00001781 0.00000000 -0.00005206 0.00000000 0.00725630)
(0.00601742 0.00001687 0.00000000 -0.00004744 0.00000000 0.00708793)
(0.00599089 0.00001342 0.00000000 -0.00004215 0.00000000 0.00699830)
(0.00585764 0.00001306 0.00000000 -0.00004547 0.00000000 0.00695058)
(0.00573323 0.00000966 0.00000000 -0.00003740 0.00000000 0.00682751)
(0.00554164 0.00000979 0.00000000 -0.00004483 0.00000000 0.00658114)
(0.00551910 0.00000696 0.00000000 -0.00003742 0.00000000 0.00639539)
(0.00539759 0.00000748 0.00000000 -0.00003582 0.00000000 0.00623158)
(0.00526852 0.00000272 0.00000000 -0.00002592 0.00000000 0.00610298)
(0.00513655 0.00000630 0.00000000 -0.00003930 0.00000000 0.00591383)
(0.00504143 0.00000201 0.00000000 -0.00002762 0.00000000 0.00583952)
(0.00494545 0.00000057 0.00000000 -0.00002305 0.00000000 0.00570779)
(0.00480360 0.00000387 0.00000000 -0.00003339 0.00000000 0.00554470)
(0.00467871 0.00000215 0.00000000 -0.00002733 0.00000000 0.00547326)
(0.00448552 -0.00000042 0.00000000 -0.00002870 0.00000000 0.00536602)
(0.00444736 -0.00000170 0.00000000 -0.00002412 0.00000000 0.00527771)
(0.00426700 -0.00000131 0.00000000 -0.00002543 0.00000000 0.00513150)
(0.00404195 0.00000008 0.00000000 -0.00003004 0.00000000 0.00502048)
(0.00397579 -0.00000136 0.00000000 -0.00002778 0.00000000 0.00485173)
(0.00387805 -0.00000019 0.00000000 -0.00002762 0.00000000 0.00463012)
(0.00376639 -0.00000095 0.00000000 -0.00002536 0.00000000 0.00442284)
(0.00366905 -0.00000052 0.00000000 -0.00002726 0.00000000 0.00427840)
(0.00360949 -0.00000297 0.00000000 -0.00002094 0.00000000 0.00418205)
(0.00350472 -0.00000131 0.00000000 -0.00002297 0.00000000 0.00407892)
(0.00342888 -0.00000297 0.00000000 -0.00002031 0.00000000 0.00399687)
(0.00328776 0.00000006 0.00000000 -0.00002336 0.00000000 0.00382464)
(0.00322367 0.00000057 0.00000000 -0.00002323 0.00000000 0.00372999)
(0.00316594 -0.00000413 0.00000000 -0.00001697 0.00000000 0.00371734)
(0.00303022 -0.00000223 0.00000000 -0.00001943 0.00000000 0.00357946)
(0.00292414 -0.00000229 0.00000000 -0.00001640 0.00000000 0.00347693)
(0.00277186 0.00000133 0.00000000 -0.00002125 0.00000000 0.00329929)
(0.00276801 -0.00000320 0.00000000 -0.00001550 0.00000000 0.00325445)
(0.00263158 -0.00000114 0.00000000 -0.00001649 0.00000000 0.00313019)
(0.00252740 -0.00000197 0.00000000 -0.00001522 0.00000000 0.00301223)
(0.00243433 0.00000029 0.00000000 -0.00001656 0.00000000 0.00291662)
(0.00233218 0.00000169 0.00000000 -0.00001801 0.00000000 0.00282205)
(0.00245104 -0.00000594 0.00000000 -0.00000838 0.00000000 0.00283870)
(0.00227048 -0.00000053 0.00000000 -0.00001397 0.00000000 0.00272178)
(0.00219386 -0.00000043 0.00000000 -0.00001336 0.00000000 0.00264471)
(0.00211275 0.00000023 0.00000000 -0.00001334 0.00000000 0.00255969)
(0.00198136 0.00000298 0.00000000 -0.00001501 0.00000000 0.00244084)
(0.00195489 -0.00000072 0.00000000 -0.00001040 0.00000000 0.00240190)
(0.00181286 0.00000170 0.00000000 -0.00001181 0.00000000 0.00233102)
(0.00177107 -0.00000064 0.00000000 -0.00000879 0.00000000 0.00232438)
(0.00169225 0.00000049 0.00000000 -0.00000911 0.00000000 0.00228169)
(0.00159668 0.00000412 0.00000000 -0.00001273 0.00000000 0.00221933)
(0.00162430 0.00000152 0.00000000 -0.00000957 0.00000000 0.00234440)
(0.00158756 0.00000546 0.00000000 -0.00001426 0.00000000 0.00238089)
(0.00174047 0.00000497 0.00000000 -0.00001349 0.00000000 0.00256924)
(0.00183549 0.00000532 0.00000000 -0.00001468 0.00000000 0.00285627)
(0.00197113 0.00000733 0.00000000 -0.00001568 0.00000000 0.00325296)
(0.00240664 0.00000338 0.00000000 -0.00001197 0.00000000 0.00376117)
(0.00574424 0.00060017 0.00000000 0.00017330 0.00000000 0.01816453)
(-0.00003050 -0.00001101 0.00000000 -0.00000730 0.00000000 -0.00008440)
(-0.00002677 -0.00000591 0.00000000 0.00000885 0.00000000 -0.00007201)
(-0.00003852 -0.00010338 0.00000000 -0.00018741 0.00000000 -0.00021304)
(-0.00000064 -0.00002270 0.00000000 -0.00005200 0.00000000 -0.00012915)
(-0.00003590 -0.00007953 0.00000000 -0.00014924 0.00000000 -0.00101262)
(0.00008589 0.00007434 0.00000000 0.00002024 0.00000000 -0.00118115)
(-0.00005504 -0.00005593 0.00000000 -0.00004762 0.00000000 -0.00099806)
(0.00004286 0.00006447 0.00000000 0.00011442 0.00000000 -0.00008627)
(0.00005429 0.00003991 0.00000000 -0.00004064 0.00000000 -0.00376994)
(-0.00009556 -0.00020316 0.00000000 -0.00038230 0.00000000 -0.00228157)
(-0.00013529 -0.00023077 0.00000000 -0.00037054 0.00000000 -0.00129052)
(0.00006158 0.00006556 0.00000000 0.00009648 0.00000000 -0.00132479)
(0.00002524 0.00001692 0.00000000 0.00000528 0.00000000 -0.00039728)
(-0.00075663 -0.00023176 0.00000000 -0.00007552 0.00000000 -0.00063792)
(0.00139832 0.00008654 0.00000000 0.00006953 0.00000000 0.00511066)
(0.01194066 -0.00039347 0.00000000 0.00011269 0.00000000 0.01016574)
(0.00004370 -0.00030516 0.00000000 0.00027017 0.00000000 0.00022489)
(0.00036262 -0.00044063 0.00000000 0.00059384 0.00000000 0.00100436)
(0.00026588 -0.00031213 0.00000000 0.00040129 0.00000000 0.00262106)
(0.00019911 -0.00029157 0.00000000 0.00045360 0.00000000 0.00202591)
(0.00043299 -0.00061945 0.00000000 0.00092190 0.00000000 0.00338358)
(0.00003753 -0.00022884 0.00000000 0.00076438 0.00000000 0.00286983)
(0.00023976 -0.00024118 0.00000000 0.00024951 0.00000000 0.00183610)
(0.00017273 -0.00025645 0.00000000 0.00036505 0.00000000 0.00239029)
(0.00019305 -0.00046310 0.00000000 0.00108184 0.00000000 0.00539394)
(0.00085126 -0.00101617 0.00000000 0.00127796 0.00000000 0.00585921)
(0.00081074 -0.00089772 0.00000000 0.00109444 0.00000000 0.00696864)
(0.00079891 -0.00084982 0.00000000 0.00100120 0.00000000 0.00692279)
(0.00202704 -0.00154459 0.00000000 0.00134011 0.00000000 0.01163938)
(0.00328921 -0.00171392 0.00000000 0.00110256 0.00000000 0.01090152)
(0.00441330 -0.00019540 0.00000000 0.00024281 0.00000000 0.01057915)
(0.00288184 0.00001431 0.00000000 0.00003842 0.00000000 0.00391975)
(0.00330644 0.00001160 0.00000000 0.00003875 0.00000000 0.00374470)
(0.00376361 0.00001561 0.00000000 0.00004103 0.00000000 0.00374149)
(0.00438885 0.00001497 0.00000000 0.00004395 0.00000000 0.00383798)
(0.00518577 0.00002097 0.00000000 0.00004766 0.00000000 0.00410443)
(0.00624128 0.00002374 0.00000000 0.00005730 0.00000000 0.00453553)
(0.00744349 0.00003748 0.00000000 0.00007005 0.00000000 0.00510176)
(0.00838668 0.00004955 0.00000000 0.00007172 0.00000000 0.00569553)
(0.00942631 0.00006310 0.00000000 0.00008223 0.00000000 0.00653036)
(0.01082205 0.00008412 0.00000000 0.00011022 0.00000000 0.00766272)
(0.01182138 0.00009380 0.00000000 0.00011483 0.00000000 0.00866202)
(0.01293419 0.00011028 0.00000000 0.00013854 0.00000000 0.00986579)
(0.01383416 0.00012811 0.00000000 0.00016256 0.00000000 0.01114548)
(0.01465142 0.00013356 0.00000000 0.00017669 0.00000000 0.01241226)
(0.01549742 0.00014244 0.00000000 0.00019486 0.00000000 0.01383232)
(0.01666257 0.00015186 0.00000000 0.00023349 0.00000000 0.01522605)
(0.01726085 0.00015536 0.00000000 0.00023103 0.00000000 0.01626297)
(0.01752524 0.00015795 0.00000000 0.00024905 0.00000000 0.01724692)
(0.01786618 0.00015199 0.00000000 0.00025418 0.00000000 0.01807476)
(0.01807580 0.00014860 0.00000000 0.00026637 0.00000000 0.01882211)
(0.01859692 0.00014706 0.00000000 0.00026662 0.00000000 0.01984122)
(0.01901939 0.00014311 0.00000000 0.00029243 0.00000000 0.02063011)
(0.01929852 0.00013908 0.00000000 0.00030027 0.00000000 0.02118667)
(0.01943575 0.00013014 0.00000000 0.00030634 0.00000000 0.02177959)
(0.01969034 0.00011512 0.00000000 0.00031855 0.00000000 0.02226626)
(0.02000071 0.00010273 0.00000000 0.00032253 0.00000000 0.02265406)
(0.02013454 0.00010198 0.00000000 0.00032545 0.00000000 0.02336562)
(0.02053635 0.00008192 0.00000000 0.00036160 0.00000000 0.02392079)
(0.02050744 0.00007809 0.00000000 0.00034602 0.00000000 0.02409044)
(0.02043231 0.00005585 0.00000000 0.00034424 0.00000000 0.02411811)
(0.02085923 0.00004281 0.00000000 0.00037992 0.00000000 0.02443295)
(0.02073204 0.00004847 0.00000000 0.00035281 0.00000000 0.02439462)
(0.02067548 0.00003044 0.00000000 0.00036444 0.00000000 0.02465552)
(0.02053504 0.00002038 0.00000000 0.00034738 0.00000000 0.02463517)
(0.02039595 0.00000654 0.00000000 0.00033856 0.00000000 0.02445759)
(0.02044702 -0.00000731 0.00000000 0.00033509 0.00000000 0.02443773)
(0.02004463 -0.00001146 0.00000000 0.00032590 0.00000000 0.02392151)
(0.01960196 -0.00001376 0.00000000 0.00032356 0.00000000 0.02344113)
(0.01944849 -0.00003620 0.00000000 0.00031496 0.00000000 0.02315545)
(0.01906802 -0.00004555 0.00000000 0.00031372 0.00000000 0.02295365)
(0.01865646 -0.00005480 0.00000000 0.00030409 0.00000000 0.02252637)
(0.01828490 -0.00006596 0.00000000 0.00028925 0.00000000 0.02187987)
(0.01829453 -0.00007381 0.00000000 0.00030281 0.00000000 0.02143501)
(0.01785685 -0.00005871 0.00000000 0.00027407 0.00000000 0.02079882)
(0.01741785 -0.00007491 0.00000000 0.00026457 0.00000000 0.02025199)
(0.01726620 -0.00008188 0.00000000 0.00026243 0.00000000 0.01997523)
(0.01700218 -0.00009595 0.00000000 0.00025955 0.00000000 0.01967511)
(0.01673325 -0.00009570 0.00000000 0.00025862 0.00000000 0.01925704)
(0.01626941 -0.00009054 0.00000000 0.00023911 0.00000000 0.01875476)
(0.01587145 -0.00009292 0.00000000 0.00023247 0.00000000 0.01848442)
(0.01552402 -0.00012107 0.00000000 0.00024523 0.00000000 0.01834395)
(0.01536144 -0.00012124 0.00000000 0.00023634 0.00000000 0.01804541)
(0.01477154 -0.00010677 0.00000000 0.00019913 0.00000000 0.01751383)
(0.01432506 -0.00012420 0.00000000 0.00020161 0.00000000 0.01737497)
(0.01407901 -0.00012908 0.00000000 0.00019894 0.00000000 0.01677112)
(0.01386372 -0.00012650 0.00000000 0.00018820 0.00000000 0.01612091)
(0.01361885 -0.00012685 0.00000000 0.00018025 0.00000000 0.01552332)
(0.01336342 -0.00013272 0.00000000 0.00017255 0.00000000 0.01505503)
(0.01300865 -0.00012996 0.00000000 0.00016061 0.00000000 0.01458011)
(0.01281505 -0.00013515 0.00000000 0.00016238 0.00000000 0.01438196)
(0.01248767 -0.00013286 0.00000000 0.00015754 0.00000000 0.01401179)
(0.01234047 -0.00013705 0.00000000 0.00015227 0.00000000 0.01372994)
(0.01215814 -0.00013573 0.00000000 0.00014576 0.00000000 0.01344099)
(0.01175990 -0.00013907 0.00000000 0.00015132 0.00000000 0.01311585)
(0.01139737 -0.00013779 0.00000000 0.00013625 0.00000000 0.01275939)
(0.01105959 -0.00013450 0.00000000 0.00012936 0.00000000 0.01244176)
(0.01079055 -0.00013589 0.00000000 0.00012374 0.00000000 0.01201722)
(0.01052691 -0.00013851 0.00000000 0.00011713 0.00000000 0.01165699)
(0.01025392 -0.00013306 0.00000000 0.00011783 0.00000000 0.01140573)
(0.00986539 -0.00013395 0.00000000 0.00010954 0.00000000 0.01096425)
(0.00961188 -0.00013039 0.00000000 0.00010550 0.00000000 0.01066307)
(0.00943625 -0.00013404 0.00000000 0.00010114 0.00000000 0.01045079)
(0.00945053 -0.00013390 0.00000000 0.00010450 0.00000000 0.01021787)
(0.00913121 -0.00012843 0.00000000 0.00010274 0.00000000 0.01002227)
(0.00879406 -0.00012425 0.00000000 0.00009381 0.00000000 0.00973188)
(0.00854468 -0.00012211 0.00000000 0.00009427 0.00000000 0.00949102)
(0.00819727 -0.00011213 0.00000000 0.00008668 0.00000000 0.00920165)
(0.00794125 -0.00011298 0.00000000 0.00008330 0.00000000 0.00897661)
(0.00749153 -0.00010037 0.00000000 0.00007928 0.00000000 0.00878574)
(0.00708041 -0.00009714 0.00000000 0.00007466 0.00000000 0.00860243)
(0.00675334 -0.00008916 0.00000000 0.00007092 0.00000000 0.00849939)
(0.00656384 -0.00008448 0.00000000 0.00007262 0.00000000 0.00858713)
(0.00642567 -0.00008414 0.00000000 0.00008053 0.00000000 0.00893261)
(0.00628196 -0.00007580 0.00000000 0.00008340 0.00000000 0.00926949)
(0.00647436 -0.00006571 0.00000000 0.00008324 0.00000000 0.00983315)
(0.00654570 -0.00005829 0.00000000 0.00009372 0.00000000 0.01086374)
(0.00677137 -0.00005117 0.00000000 0.00010143 0.00000000 0.01231886)
(0.00799691 -0.00010535 0.00000000 0.00013209 0.00000000 0.01419304)
(0.01079501 0.00157180 0.00000000 0.00072820 0.00000000 0.03318742)
(0.00349338 0.00205637 0.00000000 0.00123951 0.00000000 0.00939424)
(0.00056347 0.00036418 0.00000000 0.00019938 0.00000000 0.00498561)
(-0.00001257 -0.00005623 0.00000000 -0.00009335 0.00000000 0.00102797)
(-0.00010858 -0.00004707 0.00000000 0.00003045 0.00000000 0.00120131)
(-0.00009855 -0.00023620 0.00000000 -0.00043129 0.00000000 0.00033562)
(-0.00006741 -0.00012673 0.00000000 -0.00026436 0.00000000 -0.00227082)
(-0.00032460 -0.00051475 0.00000000 -0.00083363 0.00000000 -0.00196295)
(0.00001270 0.00002305 0.00000000 0.00004479 0.00000000 -0.00006484)
(-0.00003257 -0.00011427 0.00000000 -0.00035249 0.00000000 -0.00433245)
(-0.00018510 -0.00039213 0.00000000 -0.00073726 0.00000000 0.00061465)
(-0.00022495 -0.00038020 0.00000000 -0.00060959 0.00000000 -0.00063785)
(0.00003371 0.00006100 0.00000000 0.00009923 0.00000000 -0.00047000)
(-0.00004417 -0.00004804 0.00000000 -0.00004035 0.00000000 -0.00158651)
(-0.00354179 -0.00123621 0.00000000 -0.00049939 0.00000000 -0.00304674)
(0.00202040 0.00007803 0.00000000 0.00013471 0.00000000 0.00763004)
(0.01554225 -0.00064932 0.00000000 0.00045509 0.00000000 0.01411199)
(0.00068449 -0.00095725 0.00000000 0.00079842 0.00000000 0.00161216)
(0.00072053 -0.00071905 0.00000000 0.00080594 0.00000000 0.00181446)
(0.00036390 -0.00056471 0.00000000 0.00096717 0.00000000 0.00388605)
(0.00039524 -0.00055854 0.00000000 0.00083065 0.00000000 0.00304246)
(0.00064388 -0.00090941 0.00000000 0.00135307 0.00000000 0.00481364)
(0.00006651 -0.00044599 0.00000000 0.00154718 0.00000000 0.00364591)
(0.00056673 -0.00079825 0.00000000 0.00120059 0.00000000 0.00427949)
(0.00081112 -0.00110415 0.00000000 0.00154525 0.00000000 0.00483701)
(0.00060426 -0.00123022 0.00000000 0.00268126 0.00000000 0.00786077)
(0.00193877 -0.00223237 0.00000000 0.00282950 0.00000000 0.01130872)
(0.00181785 -0.00203523 0.00000000 0.00257676 0.00000000 0.01285572)
(0.00210473 -0.00216831 0.00000000 0.00260380 0.00000000 0.01479534)
(0.00375183 -0.00261845 0.00000000 0.00240319 0.00000000 0.01928602)
(0.00478098 -0.00206712 0.00000000 0.00150908 0.00000000 0.01693267)
(0.00587929 -0.00025068 0.00000000 0.00055744 0.00000000 0.01472028)
(0.00582479 0.00007984 0.00000000 0.00022245 0.00000000 0.00797212)
(0.00689651 0.00006800 0.00000000 0.00022505 0.00000000 0.00754494)
(0.00807390 0.00007593 0.00000000 0.00023892 0.00000000 0.00752468)
(0.00958810 0.00007163 0.00000000 0.00025447 0.00000000 0.00770769)
(0.01145428 0.00008949 0.00000000 0.00028452 0.00000000 0.00820487)
(0.01362742 0.00009126 0.00000000 0.00031793 0.00000000 0.00899217)
(0.01592722 0.00012755 0.00000000 0.00035456 0.00000000 0.01000032)
(0.01796168 0.00017238 0.00000000 0.00040560 0.00000000 0.01128154)
(0.01969535 0.00020636 0.00000000 0.00046454 0.00000000 0.01282877)
(0.02165136 0.00023899 0.00000000 0.00054283 0.00000000 0.01469299)
(0.02334344 0.00026485 0.00000000 0.00063296 0.00000000 0.01657376)
(0.02473370 0.00029521 0.00000000 0.00072467 0.00000000 0.01864939)
(0.02588901 0.00032017 0.00000000 0.00081537 0.00000000 0.02084151)
(0.02686671 0.00031628 0.00000000 0.00090891 0.00000000 0.02299835)
(0.02791279 0.00031124 0.00000000 0.00099749 0.00000000 0.02531090)
(0.02948772 0.00030463 0.00000000 0.00108974 0.00000000 0.02746238)
(0.03022989 0.00031048 0.00000000 0.00115820 0.00000000 0.02918073)
(0.03079707 0.00030521 0.00000000 0.00122105 0.00000000 0.03087725)
(0.03113179 0.00028151 0.00000000 0.00127828 0.00000000 0.03229032)
(0.03108337 0.00025702 0.00000000 0.00133288 0.00000000 0.03357522)
(0.03179951 0.00022238 0.00000000 0.00139954 0.00000000 0.03511173)
(0.03247227 0.00020220 0.00000000 0.00145460 0.00000000 0.03632708)
(0.03278530 0.00018953 0.00000000 0.00150250 0.00000000 0.03715828)
(0.03300217 0.00015616 0.00000000 0.00153382 0.00000000 0.03808711)
(0.03334890 0.00010729 0.00000000 0.00157334 0.00000000 0.03883639)
(0.03367556 0.00006492 0.00000000 0.00161980 0.00000000 0.03937705)
(0.03390326 0.00005434 0.00000000 0.00166447 0.00000000 0.04057239)
(0.03454662 0.00000930 0.00000000 0.00169841 0.00000000 0.04151710)
(0.03453767 -0.00001786 0.00000000 0.00172511 0.00000000 0.04169790)
(0.03459835 -0.00006891 0.00000000 0.00172076 0.00000000 0.04182539)
(0.03526008 -0.00009307 0.00000000 0.00171230 0.00000000 0.04227468)
(0.03497585 -0.00007865 0.00000000 0.00173720 0.00000000 0.04226343)
(0.03499698 -0.00011635 0.00000000 0.00172184 0.00000000 0.04288895)
(0.03482509 -0.00015514 0.00000000 0.00173430 0.00000000 0.04284852)
(0.03481921 -0.00019115 0.00000000 0.00170417 0.00000000 0.04258596)
(0.03473509 -0.00022303 0.00000000 0.00168189 0.00000000 0.04232955)
(0.03435677 -0.00021862 0.00000000 0.00166325 0.00000000 0.04164546)
(0.03391202 -0.00021638 0.00000000 0.00162148 0.00000000 0.04113797)
(0.03357770 -0.00027859 0.00000000 0.00160087 0.00000000 0.04071200)
(0.03292148 -0.00029927 0.00000000 0.00159062 0.00000000 0.04016563)
(0.03236965 -0.00032071 0.00000000 0.00154706 0.00000000 0.03960450)
(0.03208866 -0.00034941 0.00000000 0.00149676 0.00000000 0.03869210)
(0.03215749 -0.00034638 0.00000000 0.00145349 0.00000000 0.03805389)
(0.03158463 -0.00031208 0.00000000 0.00142813 0.00000000 0.03708930)
(0.03108785 -0.00035177 0.00000000 0.00137876 0.00000000 0.03627949)
(0.03081041 -0.00036803 0.00000000 0.00133708 0.00000000 0.03574461)
(0.03058470 -0.00039565 0.00000000 0.00127893 0.00000000 0.03533684)
(0.03021708 -0.00038338 0.00000000 0.00124586 0.00000000 0.03467835)
(0.02955892 -0.00038382 0.00000000 0.00122962 0.00000000 0.03403160)
(0.02890971 -0.00039539 0.00000000 0.00121120 0.00000000 0.03351451)
(0.02841184 -0.00044202 0.00000000 0.00116409 0.00000000 0.03320693)
(0.02811451 -0.00044368 0.00000000 0.00112548 0.00000000 0.03272682)
(0.02748601 -0.00042163 0.00000000 0.00108819 0.00000000 0.03212195)
(0.02685703 -0.00046831 0.00000000 0.00105755 0.00000000 0.03187374)
(0.02661377 -0.00047836 0.00000000 0.00102674 0.00000000 0.03100902)
(0.02634980 -0.00047388 0.00000000 0.00097680 0.00000000 0.02993562)
(0.02598449 -0.00046571 0.00000000 0.00093440 0.00000000 0.02887202)
(0.02562597 -0.00048273 0.00000000 0.00090866 0.00000000 0.02802360)
(0.02515339 -0.00048603 0.00000000 0.00088175 0.00000000 0.02729401)
(0.02486309 -0.00049971 0.00000000 0.00086590 0.00000000 0.02700580)
(0.02452262 -0.00049359 0.00000000 0.00083462 0.00000000 0.02653912)
(0.02418502 -0.00050244 0.00000000 0.00080358 0.00000000 0.02592521)
(0.02391656 -0.00050361 0.00000000 0.00079087 0.00000000 0.02545896)
(0.02332181 -0.00049417 0.00000000 0.00076137 0.00000000 0.02486007)
(0.02274938 -0.00050438 0.00000000 0.00073676 0.00000000 0.02429651)
(0.02215191 -0.00049730 0.00000000 0.00070679 0.00000000 0.02373283)
(0.02179512 -0.00050546 0.00000000 0.00068060 0.00000000 0.02302325)
(0.02136978 -0.00051846 0.00000000 0.00066276 0.00000000 0.02239977)
(0.02087413 -0.00048348 0.00000000 0.00062667 0.00000000 0.02197734)
(0.02034674 -0.00049316 0.00000000 0.00059858 0.00000000 0.02129706)
(0.01996911 -0.00049223 0.00000000 0.00058281 0.00000000 0.02078279)
(0.01967908 -0.00050245 0.00000000 0.00056395 0.00000000 0.02033442)
(0.01952466 -0.00048201 0.00000000 0.00053930 0.00000000 0.01981099)
(0.01907346 -0.00046771 0.00000000 0.00052674 0.00000000 0.01951899)
(0.01859126 -0.00047274 0.00000000 0.00051729 0.00000000 0.01910839)
(0.01810284 -0.00045939 0.00000000 0.00049724 0.00000000 0.01871579)
(0.01750926 -0.00043660 0.00000000 0.00047870 0.00000000 0.01824572)
(0.01693234 -0.00042817 0.00000000 0.00044667 0.00000000 0.01780192)
(0.01617918 -0.00039737 0.00000000 0.00043958 0.00000000 0.01751883)
(0.01542511 -0.00039626 0.00000000 0.00042658 0.00000000 0.01731150)
(0.01473220 -0.00037504 0.00000000 0.00041208 0.00000000 0.01721093)
(0.01411120 -0.00035017 0.00000000 0.00040775 0.00000000 0.01736030)
(0.01344546 -0.00033155 0.00000000 0.00041314 0.00000000 0.01782008)
(0.01297483 -0.00031966 0.00000000 0.00043909 0.00000000 0.01851823)
(0.01304067 -0.00029961 0.00000000 0.00046179 0.00000000 0.01990736)
(0.01268377 -0.00027504 0.00000000 0.00051526 0.00000000 0.02188442)
(0.01265485 -0.00027806 0.00000000 0.00056507 0.00000000 0.02477078)
(0.01421726 -0.00045259 0.00000000 0.00066668 0.00000000 0.02841867)
(0.01562365 0.00199991 0.00000000 0.00151124 0.00000000 0.04618979)
(0.01142873 0.00632663 0.00000000 0.00400748 0.00000000 0.03243491)
(0.00308519 0.00297215 0.00000000 0.00324574 0.00000000 0.02162209)
(0.00025499 0.00056701 0.00000000 0.00100729 0.00000000 0.00707573)
(0.00032755 0.00047848 0.00000000 0.00073180 0.00000000 0.00584010)
(0.00017106 0.00016347 0.00000000 0.00021624 0.00000000 0.00666383)
(-0.00015351 -0.00021811 0.00000000 -0.00034764 0.00000000 -0.00167596)
(-0.00051562 -0.00084996 0.00000000 -0.00138924 0.00000000 -0.00047745)
(-0.00004052 -0.00002164 0.00000000 0.00000675 0.00000000 0.00012596)
(-0.00007282 -0.00029093 0.00000000 -0.00086131 0.00000000 -0.00587096)
(-0.00015955 -0.00036794 0.00000000 -0.00070060 0.00000000 0.00476688)
(-0.00018435 -0.00033499 0.00000000 -0.00055451 0.00000000 0.00113740)
(-0.00001421 0.00002848 0.00000000 0.00006704 0.00000000 -0.00101084)
(-0.00009522 -0.00008931 0.00000000 -0.00005936 0.00000000 -0.00262044)
(-0.00645950 -0.00232158 0.00000000 -0.00096615 0.00000000 -0.00560409)
(0.00270248 0.00002445 0.00000000 0.00024263 0.00000000 0.01073829)
(0.01921760 -0.00100578 0.00000000 0.00102991 0.00000000 0.01869100)
(0.00180925 -0.00197127 0.00000000 0.00163038 0.00000000 0.00352172)
(0.00122015 -0.00111092 0.00000000 0.00111458 0.00000000 0.00302700)
(0.00054267 -0.00095997 0.00000000 0.00179703 0.00000000 0.00548098)
(0.00070118 -0.00101684 0.00000000 0.00153540 0.00000000 0.00455673)
(0.00089514 -0.00131840 0.00000000 0.00206976 0.00000000 0.00673600)
(0.00052383 -0.00118908 0.00000000 0.00282890 0.00000000 0.00542967)
(0.00106202 -0.00159108 0.00000000 0.00250893 0.00000000 0.00715431)
(0.00170507 -0.00229687 0.00000000 0.00324493 0.00000000 0.00869044)
(0.00182652 -0.00288196 0.00000000 0.00507346 0.00000000 0.01203894)
(0.00314558 -0.00361943 0.00000000 0.00472886 0.00000000 0.01719221)
(0.00348552 -0.00372756 0.00000000 0.00471188 0.00000000 0.01935718)
(0.00377058 -0.00359083 0.00000000 0.00432676 0.00000000 0.02158382)
(0.00507587 -0.00314446 0.00000000 0.00315332 0.00000000 0.02459403)
(0.00629167 -0.00220558 0.00000000 0.00197376 0.00000000 0.02184596)
(0.00738605 -0.00026620 0.00000000 0.00099144 0.00000000 0.01789394)
(0.00861304 0.00018729 0.00000000 0.00056332 0.00000000 0.01139455)
(0.01045916 0.00015854 0.00000000 0.00056662 0.00000000 0.01066943)
(0.01248075 0.00015690 0.00000000 0.00060125 0.00000000 0.01062735)
(0.01494023 0.00014399 0.00000000 0.00063308 0.00000000 0.01093794)
(0.01779564 0.00016228 0.00000000 0.00069898 0.00000000 0.01161790)
(0.02097164 0.00015849 0.00000000 0.00078022 0.00000000 0.01270878)
(0.02403845 0.00021740 0.00000000 0.00087103 0.00000000 0.01408949)
(0.02649790 0.00028236 0.00000000 0.00098830 0.00000000 0.01582499)
(0.02841050 0.00032250 0.00000000 0.00112457 0.00000000 0.01791652)
(0.03034104 0.00033568 0.00000000 0.00131591 0.00000000 0.02020340)
(0.03219064 0.00035206 0.00000000 0.00150094 0.00000000 0.02271064)
(0.03340765 0.00037669 0.00000000 0.00168917 0.00000000 0.02537810)
(0.03437871 0.00036625 0.00000000 0.00189302 0.00000000 0.02807500)
(0.03532523 0.00032873 0.00000000 0.00207695 0.00000000 0.03084836)
(0.03628183 0.00026950 0.00000000 0.00227549 0.00000000 0.03359375)
(0.03784861 0.00020779 0.00000000 0.00247855 0.00000000 0.03604910)
(0.03893723 0.00023248 0.00000000 0.00258857 0.00000000 0.03843914)
(0.03945969 0.00018113 0.00000000 0.00273906 0.00000000 0.04036688)
(0.03967883 0.00014433 0.00000000 0.00285198 0.00000000 0.04213206)
(0.03953610 0.00008667 0.00000000 0.00294334 0.00000000 0.04392640)
(0.04024730 -0.00000936 0.00000000 0.00310090 0.00000000 0.04556251)
(0.04117635 -0.00004711 0.00000000 0.00319914 0.00000000 0.04705078)
(0.04150691 -0.00006804 0.00000000 0.00329305 0.00000000 0.04809870)
(0.04171374 -0.00013528 0.00000000 0.00336137 0.00000000 0.04910346)
(0.04209832 -0.00021500 0.00000000 0.00345200 0.00000000 0.05001253)
(0.04273508 -0.00026687 0.00000000 0.00351813 0.00000000 0.05094913)
(0.04285546 -0.00029797 0.00000000 0.00362892 0.00000000 0.05219004)
(0.04341995 -0.00037841 0.00000000 0.00372040 0.00000000 0.05306451)
(0.04371798 -0.00042358 0.00000000 0.00375308 0.00000000 0.05350354)
(0.04412246 -0.00047870 0.00000000 0.00371888 0.00000000 0.05393395)
(0.04459887 -0.00051032 0.00000000 0.00373957 0.00000000 0.05425466)
(0.04429165 -0.00047188 0.00000000 0.00378948 0.00000000 0.05431609)
(0.04423524 -0.00053393 0.00000000 0.00378658 0.00000000 0.05495478)
(0.04424275 -0.00058417 0.00000000 0.00378532 0.00000000 0.05510717)
(0.04437411 -0.00063726 0.00000000 0.00372917 0.00000000 0.05481907)
(0.04445650 -0.00065043 0.00000000 0.00366484 0.00000000 0.05468381)
(0.04426520 -0.00062085 0.00000000 0.00361867 0.00000000 0.05406392)
(0.04363458 -0.00062452 0.00000000 0.00357113 0.00000000 0.05328163)
(0.04325644 -0.00070666 0.00000000 0.00352753 0.00000000 0.05284868)
(0.04257977 -0.00071648 0.00000000 0.00348504 0.00000000 0.05224188)
(0.04191630 -0.00075306 0.00000000 0.00340630 0.00000000 0.05150373)
(0.04183292 -0.00078805 0.00000000 0.00329826 0.00000000 0.05066350)
(0.04172187 -0.00077149 0.00000000 0.00324457 0.00000000 0.04963041)
(0.04121577 -0.00070366 0.00000000 0.00318253 0.00000000 0.04855207)
(0.04070222 -0.00075889 0.00000000 0.00309176 0.00000000 0.04755321)
(0.04042808 -0.00077832 0.00000000 0.00300521 0.00000000 0.04684764)
(0.04006587 -0.00081189 0.00000000 0.00290658 0.00000000 0.04623010)
(0.03961149 -0.00078184 0.00000000 0.00284902 0.00000000 0.04542823)