/*--------------------------------*- C++ -*----------------------------------*\
  =========                 |
  \\      /  F ield         | OpenFOAM: The Open Source CFD Toolbox
   \\    /   O peration     | Website:  https://openfoam.org
    \\  /    A nd           | Version:  7
     \\/     M anipulation  |
\*---------------------------------------------------------------------------*/
FoamFile
{
    version     2.0;
    format      ascii;
    class       volVectorField;
    location    "0";
    object      U_LES;
}
// * * * * * * * * * * * * * * * * * * * * * * * * * * * * * * * * * * * * * //

dimensions      [0 1 -1 0 0 0 0];

internalField   nonuniform List<vector>
15600
(
(-0.01856692 0.00131533 0.00000000)
(0.00088077 -0.00020663 0.00000000)
(-0.00048581 0.00112325 0.00000000)
(-0.00577852 0.00781433 0.00000000)
(-0.00376876 0.00641045 0.00000000)
(-0.00630665 0.00981319 0.00000000)
(-0.00400361 0.01139964 0.00000000)
(-0.00341927 0.00280740 0.00000000)
(-0.00342111 0.00451775 0.00000000)
(-0.00593659 0.01226584 0.00000000)
(-0.00577161 0.00806577 0.00000000)
(-0.00298350 0.00406912 0.00000000)
(-0.00078879 0.00136440 0.00000000)
(0.00641578 -0.00380679 0.00000000)
(0.01469075 -0.00875935 0.00000000)
(0.03097378 -0.00103574 0.00000000)
(0.00837443 0.00006639 0.00000000)
(0.00480802 0.00004066 0.00000000)
(0.00177188 0.00004644 0.00000000)
(-0.00116066 0.00004367 0.00000000)
(-0.00492749 0.00005736 0.00000000)
(-0.00924454 0.00006286 0.00000000)
(-0.01451855 0.00008059 0.00000000)
(-0.02047502 0.00008813 0.00000000)
(-0.02681871 0.00008796 0.00000000)
(-0.03296348 0.00008486 0.00000000)
(-0.03916134 0.00008519 0.00000000)
(-0.04493006 0.00007096 0.00000000)
(-0.04987631 0.00006433 0.00000000)
(-0.05416193 0.00005716 0.00000000)
(-0.05756818 0.00004758 0.00000000)
(-0.05937599 0.00003776 0.00000000)
(-0.06228714 0.00002412 0.00000000)
(-0.06306200 0.00001731 0.00000000)
(-0.06449531 0.00001352 0.00000000)
(-0.06551226 0.00001189 0.00000000)
(-0.06539433 -0.00000306 0.00000000)
(-0.06515109 -0.00000389 0.00000000)
(-0.06389840 -0.00001446 0.00000000)
(-0.06286844 -0.00001525 0.00000000)
(-0.06171037 -0.00001753 0.00000000)
(-0.06072455 -0.00001718 0.00000000)
(-0.05875626 -0.00002292 0.00000000)
(-0.05582310 -0.00003548 0.00000000)
(-0.05420790 -0.00003933 0.00000000)
(-0.05163291 -0.00003433 0.00000000)
(-0.04897772 -0.00003545 0.00000000)
(-0.04692958 -0.00003046 0.00000000)
(-0.04365833 -0.00004444 0.00000000)
(-0.04121250 -0.00003216 0.00000000)
(-0.03830537 -0.00003867 0.00000000)
(-0.03621401 -0.00003781 0.00000000)
(-0.03296882 -0.00003763 0.00000000)
(-0.03045654 -0.00002829 0.00000000)
(-0.02852990 -0.00002537 0.00000000)
(-0.02604751 -0.00003660 0.00000000)
(-0.02283389 -0.00004530 0.00000000)
(-0.02066408 -0.00002702 0.00000000)
(-0.01840376 -0.00002937 0.00000000)
(-0.01630576 -0.00003620 0.00000000)
(-0.01345290 -0.00003515 0.00000000)
(-0.01237691 -0.00001948 0.00000000)
(-0.01013266 -0.00002338 0.00000000)
(-0.00849608 -0.00002351 0.00000000)
(-0.00689011 -0.00002528 0.00000000)
(-0.00509057 -0.00002825 0.00000000)
(-0.00290426 -0.00003294 0.00000000)
(-0.00101662 -0.00002632 0.00000000)
(0.00053433 -0.00001950 0.00000000)
(0.00233865 -0.00002357 0.00000000)
(0.00425809 -0.00002367 0.00000000)
(0.00566100 -0.00001769 0.00000000)
(0.00696861 -0.00001662 0.00000000)
(0.00810727 -0.00001745 0.00000000)
(0.00929870 -0.00001363 0.00000000)
(0.01034501 -0.00001559 0.00000000)
(0.01162029 -0.00002022 0.00000000)
(0.01260068 -0.00001087 0.00000000)
(0.01342439 -0.00001051 0.00000000)
(0.01449825 -0.00001480 0.00000000)
(0.01546621 -0.00001087 0.00000000)
(0.01640271 -0.00001482 0.00000000)
(0.01712099 -0.00000918 0.00000000)
(0.01779887 -0.00000362 0.00000000)
(0.01841622 -0.00001024 0.00000000)
(0.01883103 -0.00000250 0.00000000)
(0.01885890 -0.00000151 0.00000000)
(0.01890901 0.00000158 0.00000000)
(0.01878768 0.00000372 0.00000000)
(0.01860510 0.00000464 0.00000000)
(0.01818429 0.00000734 0.00000000)
(0.01778609 0.00000882 0.00000000)
(0.01701296 0.00001023 0.00000000)
(0.01606014 0.00002260 0.00000000)
(0.01454767 0.00001640 0.00000000)
(0.01302173 0.00002718 0.00000000)
(0.01110450 0.00003054 0.00000000)
(0.00866863 0.00002864 0.00000000)
(0.00623074 0.00004111 0.00000000)
(0.00323347 0.00003691 0.00000000)
(-0.00016365 0.00005198 0.00000000)
(-0.00386786 0.00005762 0.00000000)
(-0.00780254 0.00004608 0.00000000)
(-0.01311078 0.00014584 0.00000000)
(-0.03618124 -0.00449720 0.00000000)
(-0.00052657 -0.00032724 0.00000000)
(0.00032240 0.00017372 0.00000000)
(-0.00011134 -0.00010443 0.00000000)
(0.00000501 -0.00008477 0.00000000)
(-0.00068781 -0.00115204 0.00000000)
(-0.00075789 -0.00206282 0.00000000)
(-0.00192721 -0.00211992 0.00000000)
(-0.00026141 -0.00005942 0.00000000)
(-0.00456055 -0.00891551 0.00000000)
(0.00037999 -0.00689380 0.00000000)
(0.00045870 -0.00558941 0.00000000)
(-0.00344570 -0.00500243 0.00000000)
(-0.00054763 -0.00154191 0.00000000)
(-0.00755994 -0.00297726 0.00000000)
(-0.02238620 0.00267069 0.00000000)
(-0.02617770 0.00184343 0.00000000)
(-0.00148855 0.00206363 0.00000000)
(-0.00312867 0.00411681 0.00000000)
(-0.00785825 0.01155465 0.00000000)
(-0.00660029 0.01082458 0.00000000)
(-0.01033615 0.01590794 0.00000000)
(-0.00556492 0.01622257 0.00000000)
(-0.00906345 0.01149262 0.00000000)
(-0.00874243 0.01321113 0.00000000)
(-0.00941940 0.02129109 0.00000000)
(-0.01235404 0.01720382 0.00000000)
(-0.00924654 0.01187364 0.00000000)
(-0.00355426 0.00432785 0.00000000)
(0.00753919 -0.00753961 0.00000000)
(0.02557155 -0.01564853 0.00000000)
(0.03685657 -0.00199649 0.00000000)
(0.02033480 0.00049611 0.00000000)
(0.01041648 0.00032933 0.00000000)
(0.00175545 0.00033898 0.00000000)
(-0.00731368 0.00037409 0.00000000)
(-0.01832619 0.00045898 0.00000000)
(-0.03131481 0.00053836 0.00000000)
(-0.04659116 0.00065494 0.00000000)
(-0.06358647 0.00068957 0.00000000)
(-0.08156377 0.00068576 0.00000000)
(-0.09874300 0.00070010 0.00000000)
(-0.11538903 0.00063059 0.00000000)
(-0.13030418 0.00057923 0.00000000)
(-0.14324844 0.00048328 0.00000000)
(-0.15457536 0.00040830 0.00000000)
(-0.16334835 0.00031987 0.00000000)
(-0.16848231 0.00022466 0.00000000)
(-0.17380019 0.00017280 0.00000000)
(-0.17696790 0.00009978 0.00000000)
(-0.17942227 0.00008407 0.00000000)
(-0.18114404 0.00005592 0.00000000)
(-0.18138260 -0.00004804 0.00000000)
(-0.17906923 -0.00007382 0.00000000)
(-0.17618014 -0.00012084 0.00000000)
(-0.17289119 -0.00013622 0.00000000)
(-0.16886153 -0.00015536 0.00000000)
(-0.16446298 -0.00017906 0.00000000)
(-0.15958717 -0.00020941 0.00000000)
(-0.15259924 -0.00025140 0.00000000)
(-0.14679876 -0.00030296 0.00000000)
(-0.13929575 -0.00028378 0.00000000)
(-0.13105162 -0.00028927 0.00000000)
(-0.12543695 -0.00027574 0.00000000)
(-0.11737292 -0.00032317 0.00000000)
(-0.11042545 -0.00026625 0.00000000)
(-0.10305866 -0.00028229 0.00000000)
(-0.09583901 -0.00032140 0.00000000)
(-0.08721112 -0.00031464 0.00000000)
(-0.08030085 -0.00023613 0.00000000)
(-0.07508722 -0.00022776 0.00000000)
(-0.06791301 -0.00030486 0.00000000)
(-0.05983778 -0.00032701 0.00000000)
(-0.05335104 -0.00022543 0.00000000)
(-0.04708331 -0.00024581 0.00000000)
(-0.04151597 -0.00027919 0.00000000)
(-0.03437978 -0.00023763 0.00000000)
(-0.03020158 -0.00017320 0.00000000)
(-0.02452895 -0.00018598 0.00000000)
(-0.01978953 -0.00018265 0.00000000)
(-0.01509459 -0.00019707 0.00000000)
(-0.01032157 -0.00020947 0.00000000)
(-0.00385335 -0.00025115 0.00000000)
(0.00124850 -0.00020206 0.00000000)
(0.00542373 -0.00016289 0.00000000)
(0.01074144 -0.00020025 0.00000000)
(0.01591569 -0.00018779 0.00000000)
(0.01998858 -0.00015462 0.00000000)
(0.02367339 -0.00013799 0.00000000)
(0.02695022 -0.00014972 0.00000000)
(0.03022525 -0.00011332 0.00000000)
(0.03334325 -0.00013044 0.00000000)
(0.03682254 -0.00015112 0.00000000)
(0.03996045 -0.00010434 0.00000000)
(0.04241068 -0.00010072 0.00000000)
(0.04522015 -0.00011377 0.00000000)
(0.04804727 -0.00010061 0.00000000)
(0.05074260 -0.00011235 0.00000000)
(0.05295250 -0.00008600 0.00000000)
(0.05485263 -0.00004100 0.00000000)
(0.05664638 -0.00007755 0.00000000)
(0.05785744 -0.00002104 0.00000000)
(0.05808140 -0.00001008 0.00000000)
(0.05834164 0.00001161 0.00000000)
(0.05796763 0.00002090 0.00000000)
(0.05762143 0.00002434 0.00000000)
(0.05661086 0.00004759 0.00000000)
(0.05551543 0.00006046 0.00000000)
(0.05361207 0.00008329 0.00000000)
(0.05093148 0.00016053 0.00000000)
(0.04698768 0.00014276 0.00000000)
(0.04248550 0.00020365 0.00000000)
(0.03707663 0.00023268 0.00000000)
(0.03058335 0.00026726 0.00000000)
(0.02367558 0.00031920 0.00000000)
(0.01530852 0.00035038 0.00000000)
(0.00515591 0.00041628 0.00000000)
(-0.00549495 0.00044947 0.00000000)
(-0.01694027 0.00048080 0.00000000)
(-0.03270022 0.00093890 0.00000000)
(-0.04729988 -0.00886178 0.00000000)
(-0.02100139 -0.01255344 0.00000000)
(-0.00411987 -0.00377630 0.00000000)
(-0.00000270 -0.00020705 0.00000000)
(0.00057750 0.00064015 0.00000000)
(0.00140860 -0.00001883 0.00000000)
(-0.00296690 -0.00469693 0.00000000)
(-0.00037825 -0.00429413 0.00000000)
(-0.00026782 -0.00011560 0.00000000)
(-0.00850160 -0.01441888 0.00000000)
(0.01001579 -0.00020595 0.00000000)
(0.00433704 -0.00417529 0.00000000)
(-0.00313771 -0.00164685 0.00000000)
(-0.00602246 -0.00783958 0.00000000)
(-0.03880317 -0.01858562 0.00000000)
(-0.02946371 0.00374599 0.00000000)
(-0.03422900 0.00239808 0.00000000)
(-0.00668583 0.00658365 0.00000000)
(-0.00685244 0.00761937 0.00000000)
(-0.01056801 0.01692484 0.00000000)
(-0.00987930 0.01599484 0.00000000)
(-0.01445239 0.02261931 0.00000000)
(-0.00910369 0.02577488 0.00000000)
(-0.01555613 0.02372587 0.00000000)
(-0.01693772 0.02563330 0.00000000)
(-0.01660087 0.03595378 0.00000000)
(-0.02199324 0.03027295 0.00000000)
(-0.01739205 0.02193019 0.00000000)
(-0.00992245 0.01026359 0.00000000)
(0.00458963 -0.00705574 0.00000000)
(0.02566986 -0.01671484 0.00000000)
(0.03724201 -0.00221647 0.00000000)
(0.02355421 0.00149116 0.00000000)
(0.00810701 0.00106653 0.00000000)
(-0.00592065 0.00109664 0.00000000)
(-0.02099890 0.00123027 0.00000000)
(-0.03913127 0.00151229 0.00000000)
(-0.05980729 0.00171987 0.00000000)
(-0.08346239 0.00198410 0.00000000)
(-0.10953909 0.00218303 0.00000000)
(-0.13615711 0.00213985 0.00000000)
(-0.16113485 0.00203462 0.00000000)
(-0.18383105 0.00189443 0.00000000)
(-0.20410121 0.00169264 0.00000000)
(-0.22149772 0.00138475 0.00000000)
(-0.23537778 0.00115694 0.00000000)
(-0.24608416 0.00088339 0.00000000)
(-0.25328587 0.00059379 0.00000000)
(-0.25757010 0.00046037 0.00000000)
(-0.26134973 0.00024932 0.00000000)
(-0.26296785 0.00020577 0.00000000)
(-0.26367871 0.00009479 0.00000000)
(-0.26172135 -0.00020314 0.00000000)
(-0.25799465 -0.00029388 0.00000000)
(-0.25279049 -0.00039952 0.00000000)
(-0.24716306 -0.00046049 0.00000000)
(-0.24081269 -0.00051085 0.00000000)
(-0.23274771 -0.00059017 0.00000000)
(-0.22487332 -0.00067690 0.00000000)
(-0.21602889 -0.00077110 0.00000000)
(-0.20570591 -0.00092521 0.00000000)
(-0.19459773 -0.00088165 0.00000000)
(-0.18468791 -0.00085457 0.00000000)
(-0.17453760 -0.00084856 0.00000000)
(-0.16371898 -0.00095719 0.00000000)
(-0.15244178 -0.00083653 0.00000000)
(-0.14152620 -0.00086640 0.00000000)
(-0.13087354 -0.00098340 0.00000000)
(-0.11868512 -0.00095747 0.00000000)
(-0.10889174 -0.00072121 0.00000000)
(-0.10056622 -0.00073590 0.00000000)
(-0.09003981 -0.00092885 0.00000000)
(-0.07900668 -0.00096407 0.00000000)
(-0.06966518 -0.00069402 0.00000000)
(-0.06121007 -0.00074289 0.00000000)
(-0.05204568 -0.00084346 0.00000000)
(-0.04219151 -0.00070953 0.00000000)
(-0.03587611 -0.00054772 0.00000000)
(-0.02794461 -0.00057867 0.00000000)
(-0.02087319 -0.00056756 0.00000000)
(-0.01332208 -0.00059919 0.00000000)
(-0.00619235 -0.00064715 0.00000000)
(0.00244738 -0.00072440 0.00000000)
(0.00996638 -0.00060063 0.00000000)
(0.01697773 -0.00054025 0.00000000)
(0.02460327 -0.00061655 0.00000000)
(0.03200620 -0.00056933 0.00000000)
(0.03829432 -0.00048447 0.00000000)
(0.04384184 -0.00042561 0.00000000)
(0.04884913 -0.00045978 0.00000000)
(0.05385772 -0.00036807 0.00000000)
(0.05868811 -0.00041074 0.00000000)
(0.06425203 -0.00045847 0.00000000)
(0.06892173 -0.00033560 0.00000000)
(0.07289234 -0.00032120 0.00000000)
(0.07728675 -0.00034485 0.00000000)
(0.08151313 -0.00032654 0.00000000)
(0.08554981 -0.00034907 0.00000000)
(0.08911838 -0.00027290 0.00000000)
(0.09207909 -0.00014931 0.00000000)
(0.09497848 -0.00023436 0.00000000)
(0.09699304 -0.00007572 0.00000000)
(0.09772348 -0.00003445 0.00000000)
(0.09815565 0.00002683 0.00000000)
(0.09790082 0.00004691 0.00000000)
(0.09774449 0.00005793 0.00000000)
(0.09660380 0.00013074 0.00000000)
(0.09519246 0.00016691 0.00000000)
(0.09269495 0.00024459 0.00000000)
(0.08894683 0.00046362 0.00000000)
(0.08358191 0.00043728 0.00000000)
(0.07729419 0.00063042 0.00000000)
(0.06922553 0.00074038 0.00000000)
(0.05947304 0.00082900 0.00000000)
(0.04858547 0.00095378 0.00000000)
(0.03590362 0.00108406 0.00000000)
(0.02072434 0.00127551 0.00000000)
(0.00442579 0.00138475 0.00000000)
(-0.01368890 0.00151734 0.00000000)
(-0.03841127 0.00261997 0.00000000)
(-0.05334346 -0.00998166 0.00000000)
(-0.03985493 -0.02404745 0.00000000)
(-0.00905365 -0.01163832 0.00000000)
(0.00099815 0.00012467 0.00000000)
(0.00354530 0.00366729 0.00000000)
(0.00703032 0.00698501 0.00000000)
(-0.00293290 -0.00393870 0.00000000)
(0.00452379 -0.00152201 0.00000000)
(-0.00081303 0.00027403 0.00000000)
(-0.01006337 -0.02207936 0.00000000)
(0.01705190 0.01011734 0.00000000)
(0.00935637 0.00209911 0.00000000)
(-0.00711060 -0.00407210 0.00000000)
(-0.01114169 -0.01274175 0.00000000)
(-0.07179437 -0.03545659 0.00000000)
(-0.03509405 0.00461737 0.00000000)
(-0.04238158 0.00298216 0.00000000)
(-0.01369586 0.01253320 0.00000000)
(-0.01188367 0.01224334 0.00000000)
(-0.01400740 0.02367529 0.00000000)
(-0.01433301 0.02334759 0.00000000)
(-0.01837894 0.03058815 0.00000000)
(-0.01580210 0.03703290 0.00000000)
(-0.02298447 0.03774907 0.00000000)
(-0.02784927 0.04249029 0.00000000)
(-0.02834629 0.05265755 0.00000000)
(-0.03291838 0.04504216 0.00000000)
(-0.02762645 0.03447187 0.00000000)
(-0.01723978 0.01731411 0.00000000)
(-0.00048110 -0.00504678 0.00000000)
(0.02225649 -0.01642475 0.00000000)
(0.03297884 -0.00174403 0.00000000)
(0.02087487 0.00278093 0.00000000)
(0.00086036 0.00211307 0.00000000)
(-0.01797566 0.00218693 0.00000000)
(-0.03843749 0.00248934 0.00000000)
(-0.06263766 0.00299724 0.00000000)
(-0.08990906 0.00337047 0.00000000)
(-0.12002234 0.00381944 0.00000000)
(-0.15249480 0.00413083 0.00000000)
(-0.18482927 0.00398059 0.00000000)
(-0.21394266 0.00371721 0.00000000)
(-0.24050723 0.00339958 0.00000000)
(-0.26337707 0.00298627 0.00000000)
(-0.28204920 0.00241384 0.00000000)
(-0.29706597 0.00196021 0.00000000)
(-0.30758268 0.00145039 0.00000000)
(-0.31383669 0.00094678 0.00000000)
(-0.31862290 0.00072126 0.00000000)
(-0.32084127 0.00034584 0.00000000)
(-0.32163220 0.00026859 0.00000000)
(-0.32178474 0.00001533 0.00000000)
(-0.31725436 -0.00048379 0.00000000)
(-0.31174934 -0.00067974 0.00000000)
(-0.30482913 -0.00080047 0.00000000)
(-0.29712817 -0.00093856 0.00000000)
(-0.28862102 -0.00103091 0.00000000)
(-0.27892310 -0.00116805 0.00000000)
(-0.26817657 -0.00131259 0.00000000)
(-0.25629081 -0.00148640 0.00000000)
(-0.24392155 -0.00171705 0.00000000)
(-0.23105232 -0.00165396 0.00000000)
(-0.21797393 -0.00160865 0.00000000)
(-0.20562175 -0.00159775 0.00000000)
(-0.19229066 -0.00176462 0.00000000)
(-0.17889454 -0.00159637 0.00000000)
(-0.16561029 -0.00161040 0.00000000)
(-0.15280359 -0.00182064 0.00000000)
(-0.13846082 -0.00176200 0.00000000)
(-0.12593144 -0.00135304 0.00000000)
(-0.11537206 -0.00142925 0.00000000)
(-0.10275616 -0.00171568 0.00000000)
(-0.08977033 -0.00172100 0.00000000)
(-0.07866891 -0.00129056 0.00000000)
(-0.06790873 -0.00140305 0.00000000)
(-0.05657634 -0.00153897 0.00000000)
(-0.04502199 -0.00127831 0.00000000)
(-0.03690988 -0.00106014 0.00000000)
(-0.02713929 -0.00113035 0.00000000)
(-0.01831309 -0.00111092 0.00000000)
(-0.00904432 -0.00111501 0.00000000)
(-0.00021016 -0.00121550 0.00000000)
(0.01010160 -0.00132395 0.00000000)
(0.01941519 -0.00113133 0.00000000)
(0.02842492 -0.00106335 0.00000000)
(0.03767472 -0.00114805 0.00000000)
(0.04648233 -0.00105232 0.00000000)
(0.05447404 -0.00092411 0.00000000)
(0.06149703 -0.00080518 0.00000000)
(0.06783310 -0.00086151 0.00000000)
(0.07415723 -0.00071979 0.00000000)
(0.08042934 -0.00079623 0.00000000)
(0.08741358 -0.00085058 0.00000000)
(0.09328252 -0.00066748 0.00000000)
(0.09876240 -0.00062573 0.00000000)
(0.10430823 -0.00065883 0.00000000)
(0.10978235 -0.00063565 0.00000000)
(0.11503707 -0.00065948 0.00000000)
(0.11962068 -0.00052402 0.00000000)
(0.12379392 -0.00032141 0.00000000)
(0.12730042 -0.00044366 0.00000000)
(0.12987464 -0.00018041 0.00000000)
(0.13132468 -0.00008652 0.00000000)
(0.13191268 0.00001855 0.00000000)
(0.13211234 0.00005136 0.00000000)
(0.13220095 0.00007367 0.00000000)
(0.13149433 0.00021777 0.00000000)
(0.12992231 0.00029072 0.00000000)
(0.12745196 0.00043954 0.00000000)
(0.12308570 0.00081688 0.00000000)
(0.11718011 0.00080063 0.00000000)
(0.10975058 0.00115366 0.00000000)
(0.10001301 0.00138749 0.00000000)
(0.08824486 0.00154356 0.00000000)
(0.07483024 0.00180770 0.00000000)
(0.05892606 0.00209232 0.00000000)
(0.03999374 0.00241691 0.00000000)
(0.01947274 0.00268262 0.00000000)
(-0.00417970 0.00302789 0.00000000)
(-0.03548321 0.00479535 0.00000000)
(-0.05251327 -0.00955705 0.00000000)
(-0.04274170 -0.02680804 0.00000000)
(-0.01598733 -0.01700059 0.00000000)
(0.00382619 0.00357960 0.00000000)
(0.01352828 0.01412554 0.00000000)
(0.02114107 0.02620059 0.00000000)
(0.01142631 0.01079424 0.00000000)
(0.01793687 0.02112912 0.00000000)
(0.00300769 0.00550797 0.00000000)
(-0.00030800 -0.01400063 0.00000000)
(0.02494101 0.03287655 0.00000000)
(0.01461567 0.01028864 0.00000000)
(-0.01082217 -0.00817790 0.00000000)
(-0.01390972 -0.01519755 0.00000000)
(-0.09220862 -0.04690481 0.00000000)
(-0.03759185 0.00515279 0.00000000)
(-0.05037430 0.00347024 0.00000000)
(-0.02236131 0.01961126 0.00000000)
(-0.01836625 0.01836556 0.00000000)
(-0.01816386 0.03119500 0.00000000)
(-0.01940908 0.03250173 0.00000000)
(-0.02310757 0.04091199 0.00000000)
(-0.02523444 0.04965258 0.00000000)
(-0.03258615 0.05365864 0.00000000)
(-0.03910811 0.05969648 0.00000000)
(-0.04144209 0.06934291 0.00000000)
(-0.04270841 0.05897842 0.00000000)
(-0.03573515 0.04387804 0.00000000)
(-0.02362500 0.02272818 0.00000000)
(-0.00643928 -0.00190648 0.00000000)
(0.01556912 -0.01427310 0.00000000)
(0.02559042 -0.00069126 0.00000000)
(0.01374775 0.00435529 0.00000000)
(-0.00979925 0.00350694 0.00000000)
(-0.03277787 0.00364255 0.00000000)
(-0.05792615 0.00418820 0.00000000)
(-0.08714990 0.00493423 0.00000000)
(-0.11952041 0.00549647 0.00000000)
(-0.15429070 0.00611741 0.00000000)
(-0.19097177 0.00649796 0.00000000)
(-0.22650553 0.00616277 0.00000000)
(-0.25789380 0.00565255 0.00000000)
(-0.28538561 0.00510834 0.00000000)
(-0.30896924 0.00441236 0.00000000)
(-0.32752288 0.00351988 0.00000000)
(-0.34196966 0.00278948 0.00000000)
(-0.35185925 0.00200961 0.00000000)
(-0.35782987 0.00126885 0.00000000)
(-0.36089796 0.00094388 0.00000000)
(-0.36204031 0.00038263 0.00000000)
(-0.36192197 0.00027532 0.00000000)
(-0.36024854 -0.00018158 0.00000000)
(-0.35519754 -0.00088683 0.00000000)
(-0.34742130 -0.00121455 0.00000000)
(-0.33892177 -0.00132905 0.00000000)
(-0.32983519 -0.00156673 0.00000000)
(-0.31936201 -0.00172145 0.00000000)
(-0.30771387 -0.00192839 0.00000000)
(-0.29559841 -0.00211367 0.00000000)
(-0.28203723 -0.00236730 0.00000000)
(-0.26780902 -0.00267030 0.00000000)
(-0.25293228 -0.00260957 0.00000000)
(-0.23859509 -0.00252736 0.00000000)
(-0.22494245 -0.00251115 0.00000000)
(-0.20993859 -0.00273394 0.00000000)
(-0.19475999 -0.00254499 0.00000000)
(-0.17995417 -0.00251729 0.00000000)
(-0.16514890 -0.00283566 0.00000000)
(-0.14930080 -0.00274760 0.00000000)
(-0.13539317 -0.00213534 0.00000000)
(-0.12307630 -0.00227686 0.00000000)
(-0.10888774 -0.00266612 0.00000000)
(-0.09479682 -0.00260739 0.00000000)
(-0.08239347 -0.00203913 0.00000000)
(-0.07030897 -0.00220690 0.00000000)
(-0.05725957 -0.00237617 0.00000000)
(-0.04463591 -0.00196499 0.00000000)
(-0.03517634 -0.00169514 0.00000000)
(-0.02416585 -0.00181640 0.00000000)
(-0.01398656 -0.00178551 0.00000000)
(-0.00352536 -0.00175052 0.00000000)
(0.00653433 -0.00191050 0.00000000)
(0.01797916 -0.00204117 0.00000000)
(0.02862461 -0.00179977 0.00000000)
(0.03902998 -0.00173196 0.00000000)
(0.04940508 -0.00179151 0.00000000)
(0.05912441 -0.00164262 0.00000000)
(0.06833961 -0.00148133 0.00000000)
(0.07643391 -0.00127908 0.00000000)
(0.08392182 -0.00135142 0.00000000)
(0.09113298 -0.00116511 0.00000000)
(0.09858840 -0.00128492 0.00000000)
(0.10671643 -0.00132820 0.00000000)
(0.11359887 -0.00108526 0.00000000)
(0.11990544 -0.00102145 0.00000000)
(0.12653005 -0.00106648 0.00000000)
(0.13292502 -0.00102792 0.00000000)
(0.13899324 -0.00105290 0.00000000)
(0.14447287 -0.00084734 0.00000000)
(0.14931689 -0.00057533 0.00000000)
(0.15351886 -0.00070406 0.00000000)
(0.15694706 -0.00033801 0.00000000)
(0.15889138 -0.00017325 0.00000000)
(0.15998494 -0.00001441 0.00000000)
(0.16028473 0.00003268 0.00000000)
(0.16081651 0.00006329 0.00000000)
(0.16034778 0.00029194 0.00000000)
(0.15904691 0.00041722 0.00000000)
(0.15675465 0.00064521 0.00000000)
(0.15241673 0.00119868 0.00000000)
(0.14625963 0.00122575 0.00000000)
(0.13851825 0.00176322 0.00000000)
(0.12769665 0.00216578 0.00000000)
(0.11491124 0.00241096 0.00000000)
(0.09993938 0.00285761 0.00000000)
(0.08203852 0.00335625 0.00000000)
(0.06055707 0.00383072 0.00000000)
(0.03702725 0.00429716 0.00000000)
(0.00900082 0.00493574 0.00000000)
(-0.02703642 0.00731224 0.00000000)
(-0.04768804 -0.00780568 0.00000000)
(-0.04033249 -0.02765801 0.00000000)
(-0.01469392 -0.01695658 0.00000000)
(0.01078799 0.00925920 0.00000000)
(0.02860831 0.03231147 0.00000000)
(0.04056664 0.05074501 0.00000000)
(0.03650780 0.04080907 0.00000000)
(0.03441130 0.04893587 0.00000000)
(0.02412729 0.02971072 0.00000000)
(0.02340983 0.00784717 0.00000000)
(0.03003311 0.06245542 0.00000000)
(0.01768707 0.01746841 0.00000000)
(-0.00745276 -0.00687289 0.00000000)
(-0.00871132 -0.01015702 0.00000000)
(-0.07827826 -0.04335256 0.00000000)
(-0.03539589 0.00560180 0.00000000)
(-0.05760437 0.00394969 0.00000000)
(-0.03293725 0.02713574 0.00000000)
(-0.02623072 0.02595628 0.00000000)
(-0.02314785 0.03911220 0.00000000)
(-0.02491752 0.04204108 0.00000000)
(-0.02724092 0.05138126 0.00000000)
(-0.03476729 0.06314856 0.00000000)
(-0.04308336 0.07005618 0.00000000)
(-0.04903238 0.07502056 0.00000000)
(-0.05193046 0.08230414 0.00000000)
(-0.04991041 0.06882019 0.00000000)
(-0.04292063 0.05182610 0.00000000)
(-0.03005005 0.02768909 0.00000000)
(-0.01344539 0.00168920 0.00000000)
(0.00743943 -0.01187388 0.00000000)
(0.01634505 0.00088763 0.00000000)
(0.00368040 0.00611618 0.00000000)
(-0.02269377 0.00521085 0.00000000)
(-0.04903233 0.00541938 0.00000000)
(-0.07815596 0.00625747 0.00000000)
(-0.11129763 0.00725352 0.00000000)
(-0.14735351 0.00799073 0.00000000)
(-0.18531607 0.00874811 0.00000000)
(-0.22441155 0.00913810 0.00000000)
(-0.26109255 0.00854251 0.00000000)
(-0.29312440 0.00771770 0.00000000)
(-0.32090914 0.00689544 0.00000000)
(-0.34394729 0.00586122 0.00000000)
(-0.36185751 0.00462301 0.00000000)
(-0.37507040 0.00358595 0.00000000)
(-0.38408828 0.00251390 0.00000000)
(-0.38856564 0.00151500 0.00000000)
(-0.39074657 0.00109768 0.00000000)
(-0.39089019 0.00034224 0.00000000)
(-0.38947937 0.00021103 0.00000000)
(-0.38675894 -0.00048586 0.00000000)
(-0.37993488 -0.00140897 0.00000000)
(-0.37118872 -0.00187055 0.00000000)
(-0.36134324 -0.00196335 0.00000000)
(-0.35109285 -0.00231602 0.00000000)
(-0.33957142 -0.00255245 0.00000000)
(-0.32628588 -0.00283377 0.00000000)
(-0.31288977 -0.00305075 0.00000000)
(-0.29804484 -0.00337952 0.00000000)
(-0.28261551 -0.00373857 0.00000000)
(-0.26665046 -0.00369650 0.00000000)
(-0.25098263 -0.00356444 0.00000000)
(-0.23617270 -0.00355722 0.00000000)
(-0.22028899 -0.00382756 0.00000000)
(-0.20391249 -0.00364351 0.00000000)
(-0.18798829 -0.00354975 0.00000000)
(-0.17199539 -0.00398063 0.00000000)
(-0.15504764 -0.00385632 0.00000000)
(-0.13989251 -0.00305594 0.00000000)
(-0.12637406 -0.00323607 0.00000000)
(-0.11107015 -0.00374017 0.00000000)
(-0.09631833 -0.00358092 0.00000000)
(-0.08296226 -0.00290826 0.00000000)
(-0.06980234 -0.00312383 0.00000000)
(-0.05568291 -0.00331580 0.00000000)
(-0.04236558 -0.00274910 0.00000000)
(-0.03177843 -0.00242936 0.00000000)
(-0.01991422 -0.00261831 0.00000000)
(-0.00869295 -0.00256498 0.00000000)
(0.00251247 -0.00247838 0.00000000)
(0.01346085 -0.00269889 0.00000000)
(0.02566326 -0.00285790 0.00000000)
(0.03728514 -0.00258142 0.00000000)
(0.04871965 -0.00250626 0.00000000)
(0.05983208 -0.00252044 0.00000000)
(0.07020212 -0.00231002 0.00000000)
(0.08029017 -0.00213542 0.00000000)
(0.08921913 -0.00183010 0.00000000)
(0.09754833 -0.00191227 0.00000000)
(0.10562180 -0.00168363 0.00000000)
(0.11395542 -0.00186208 0.00000000)
(0.12276756 -0.00187783 0.00000000)
(0.13037366 -0.00157771 0.00000000)
(0.13762965 -0.00149067 0.00000000)
(0.14488188 -0.00155568 0.00000000)
(0.15202084 -0.00148589 0.00000000)
(0.15868853 -0.00150990 0.00000000)
(0.16487625 -0.00122902 0.00000000)
(0.17034995 -0.00089886 0.00000000)
(0.17508923 -0.00101097 0.00000000)
(0.17878444 -0.00055630 0.00000000)
(0.18151900 -0.00030255 0.00000000)
(0.18289839 -0.00008277 0.00000000)
(0.18368184 -0.00000669 0.00000000)
(0.18445265 0.00002632 0.00000000)
(0.18454726 0.00034885 0.00000000)
(0.18337444 0.00054259 0.00000000)
(0.18129494 0.00084431 0.00000000)
(0.17718541 0.00158750 0.00000000)
(0.17101209 0.00168907 0.00000000)
(0.16310462 0.00241198 0.00000000)
(0.15208723 0.00300929 0.00000000)
(0.13875402 0.00337147 0.00000000)
(0.12303547 0.00402684 0.00000000)
(0.10391089 0.00479158 0.00000000)
(0.08092332 0.00545162 0.00000000)
(0.05530545 0.00618406 0.00000000)
(0.02405221 0.00724054 0.00000000)
(-0.01546345 0.01021186 0.00000000)
(-0.03924865 -0.00522183 0.00000000)
(-0.03402172 -0.02582243 0.00000000)
(-0.00675527 -0.01463723 0.00000000)
(0.02000768 0.01588427 0.00000000)
(0.04311171 0.04775133 0.00000000)
(0.05940877 0.07658978 0.00000000)
(0.06149108 0.08841705 0.00000000)
(0.06302438 0.08869933 0.00000000)
(0.05769675 0.07396667 0.00000000)
(0.05164473 0.04523090 0.00000000)
(0.03825212 0.09174331 0.00000000)
(0.03036493 0.04249552 0.00000000)
(0.01147129 0.00866442 0.00000000)
(0.01442009 0.01142780 0.00000000)
(-0.01940729 -0.01691916 0.00000000)
(-0.02682749 0.00665350 0.00000000)
(-0.06330860 0.00450385 0.00000000)
(-0.04605828 0.03550682 0.00000000)
(-0.03508492 0.03489598 0.00000000)
(-0.02924521 0.04807922 0.00000000)
(-0.03095058 0.05191396 0.00000000)
(-0.03262282 0.06370864 0.00000000)
(-0.04355543 0.07652142 0.00000000)
(-0.05261218 0.08506710 0.00000000)
(-0.05874218 0.08989206 0.00000000)
(-0.05963626 0.09236566 0.00000000)
(-0.05618874 0.07746761 0.00000000)
(-0.04853546 0.05748646 0.00000000)
(-0.03604125 0.03198723 0.00000000)
(-0.02041201 0.00526888 0.00000000)
(-0.00152538 -0.00863720 0.00000000)
(0.00558902 0.00282253 0.00000000)
(-0.00800365 0.00808205 0.00000000)
(-0.03671479 0.00719611 0.00000000)
(-0.06583521 0.00751960 0.00000000)
(-0.09820274 0.00868046 0.00000000)
(-0.13420487 0.00990177 0.00000000)
(-0.17290461 0.01080158 0.00000000)
(-0.21289514 0.01163864 0.00000000)
(-0.25290738 0.01196336 0.00000000)
(-0.28991207 0.01103658 0.00000000)
(-0.32182173 0.00984619 0.00000000)
(-0.34875718 0.00870086 0.00000000)
(-0.37072814 0.00727997 0.00000000)
(-0.38731463 0.00568721 0.00000000)
(-0.39946529 0.00433030 0.00000000)
(-0.40705241 0.00294585 0.00000000)
(-0.41062321 0.00168849 0.00000000)
(-0.41174760 0.00117185 0.00000000)
(-0.41085015 0.00022809 0.00000000)
(-0.40846093 0.00006642 0.00000000)
(-0.40431299 -0.00089745 0.00000000)
(-0.39684967 -0.00202896 0.00000000)
(-0.38697676 -0.00263341 0.00000000)
(-0.37616645 -0.00269702 0.00000000)
(-0.36501043 -0.00316315 0.00000000)
(-0.35242091 -0.00350963 0.00000000)
(-0.33807516 -0.00385731 0.00000000)
(-0.32369727 -0.00410407 0.00000000)
(-0.30784535 -0.00450550 0.00000000)
(-0.29152025 -0.00490260 0.00000000)
(-0.27484297 -0.00489609 0.00000000)
(-0.25810704 -0.00469470 0.00000000)
(-0.24251374 -0.00470663 0.00000000)
(-0.22600935 -0.00502332 0.00000000)
(-0.20879342 -0.00487398 0.00000000)
(-0.19210139 -0.00469203 0.00000000)
(-0.17503619 -0.00524590 0.00000000)
(-0.15745470 -0.00506674 0.00000000)
(-0.14153076 -0.00409106 0.00000000)
(-0.12694042 -0.00428828 0.00000000)
(-0.11089427 -0.00491440 0.00000000)
(-0.09553988 -0.00462351 0.00000000)
(-0.08154490 -0.00388438 0.00000000)
(-0.06763590 -0.00412792 0.00000000)
(-0.05275181 -0.00434080 0.00000000)
(-0.03897109 -0.00362526 0.00000000)
(-0.02747203 -0.00325421 0.00000000)
(-0.01502678 -0.00350893 0.00000000)
(-0.00295007 -0.00342486 0.00000000)
(0.00873441 -0.00328509 0.00000000)
(0.02034318 -0.00355850 0.00000000)
(0.03306001 -0.00375913 0.00000000)
(0.04544924 -0.00345360 0.00000000)
(0.05761834 -0.00337072 0.00000000)
(0.06923440 -0.00332133 0.00000000)
(0.08003916 -0.00304479 0.00000000)
(0.09076129 -0.00287663 0.00000000)
(0.10029741 -0.00245974 0.00000000)
(0.10945473 -0.00253622 0.00000000)
(0.11812867 -0.00227001 0.00000000)
(0.12720313 -0.00252008 0.00000000)
(0.13644007 -0.00248825 0.00000000)
(0.14473246 -0.00213474 0.00000000)
(0.15247806 -0.00203453 0.00000000)
(0.16038793 -0.00211499 0.00000000)
(0.16807242 -0.00200498 0.00000000)
(0.17521878 -0.00202308 0.00000000)
(0.18193002 -0.00166544 0.00000000)
(0.18776950 -0.00128863 0.00000000)
(0.19297495 -0.00135772 0.00000000)
(0.19715844 -0.00082315 0.00000000)
(0.20030301 -0.00047290 0.00000000)
(0.20213961 -0.00017995 0.00000000)
(0.20321696 -0.00006077 0.00000000)
(0.20428225 -0.00003425 0.00000000)