5 	0.00391112967796255 	1.38777878078145e-17 	-0.0263177374142737 	-3.17969177755568e-05 	-5.14261066723895e-23
5 	0.0118766651674912 	1.38777878078145e-17 	-0.0698388457951248 	-0.000203606811430878 	-5.14170580572208e-23
5 	0.020134001548576 	1.38777878078145e-17 	-0.0989158091175156 	-0.000565012017015177 	-7.56523097651691e-23
5 	0.0286938283423949 	1.73472347597681e-17 	-0.112409765175686 	-0.00109830538494275 	-3.63915709262165e-22
5 	0.0375672266585907 	2.08166817117217e-17 	-0.115439213247822 	-0.00171454604097882 	-7.56285740488019e-23
5 	0.046765683540303 	1.90819582357449e-17 	-0.114076390805258 	-0.00237601448529333 	-9.79435865668697e-24
5 	0.0563011068347006 	2.08166817117217e-17 	-0.111183572747824 	-0.00308205310819897 	-1.95854356194169e-23
5 	0.0661858406082648 	2.25514051876985e-17 	-0.107689502208458 	-0.00383025186564424 	-2.17850991840466e-23
5 	0.0764326811267815 	2.25514051876985e-17 	-0.103886569475561 	-0.0046161338027584 	-4.79281928741264e-23
5 	0.0870548934207257 	2.08166817117217e-17 	-0.099872985197053 	-0.005437101050552 	-8.50505634963646e-25
5 	0.0980662284574839 	1.73472347597681e-17 	-0.0956799849139456 	-0.00629222648503504 	3.76893360180844e-25
5 	0.109480940942647 	1.38777878078145e-17 	-0.0913120935168985 	-0.00718135792414255 	1.29833864018804e-23
5 	0.121313807773416 	1.73472347597681e-17 	-0.0867616158340737 	-0.00810468593768773 	1.45623392575383e-23
5 	0.13358014716801 	2.42861286636753e-17 	-0.0820144135410157 	-0.00906259169469939 	-5.45869586291311e-24
5 	0.146295838495838 	2.60208521396521e-17 	-0.0770523617537203 	-0.010055578659896 	-6.03528037531318e-24
5 	0.159477342834115 	2.60208521396521e-17 	-0.0718544083093012 	-0.0110842287817347 	-1.00895673328827e-23
5 	0.173141724277517 	2.60208521396521e-17 	-0.0663969937404754 	-0.0121491711724098 	-4.86266431220713e-23
5 	0.18730667202848 	2.42861286636753e-17 	-0.0606541560119309 	-0.0132510584006322 	-1.0085011485963e-23
5 	0.201990523296728 	2.25514051876985e-17 	-0.0545974679644028 	-0.0143905467521293 	1.79023967787054e-23
5 	0.217212287037676 	2.25514051876985e-17 	-0.0481958787657481 	-0.0155682780411927 	8.63628152557485e-23
5 	0.232991668560441 	2.08166817117217e-17 	-0.0414154954380359 	-0.0167848614144931 	1.78936898608651e-23
5 	0.249349095037321 	1.90819582357449e-17 	-0.0342193237224928 	-0.018040853997241 	0
5 	0.266305741947753 	1.73472347597681e-17 	-0.026566979450111 	-0.019336739377542 	1.66663415184766e-23
5 	0.283883560490998 	1.90819582357449e-17 	-0.0184143778834726 	-0.0206729028904756 	1.34220983591622e-17
5 	0.302105306003029 	2.08166817117217e-17 	-0.0097134072065743 	-0.0220496025441632 	1.34322977714433e-17
5 	0.320994567414413 	2.25514051876985e-17 	-0.000411593188676638 	-0.0234669347065517 	3.69745360137051e-20
5 	0.34057579778732 	2.42861286636753e-17 	0.00954823336223159 	-0.024924792958257 	-2.92245423685636e-20
5 	0.3608743459712 	2.42861286636753e-17 	0.0202282611068575 	-0.0264228160978272 	-1.35223700801383e-17
5 	0.38191648941809 	2.77555756156289e-17 	0.0316959955062286 	-0.0279603265320162 	-1.34657279250813e-17
5 	0.403729468200046 	2.77555756156289e-17 	0.0440245148930667 	-0.0295362534716117 	-3.35188413274546e-23
5 	0.426341520272733 	2.42861286636753e-17 	0.0572926625318243 	-0.0311490122141957 	3.48635764236029e-23
5 	0.449781918030829 	2.25514051876985e-17 	0.0715851411389138 	-0.0327963558674698 	1.68944840700743e-22
5 	0.474081006202548 	1.73472347597681e-17 	0.0869924742045684 	-0.034475547890184 	3.48421210614053e-23
5 	0.499270241132363 	1.21430643318376e-17 	0.103610826134802 	-0.0361842882939571 	0
5 	0.525382231502763 	8.67361737988404e-18 	0.12154341288065 	-0.0379180336419528 	-3.81557535980025e-23
5 	0.552450780547767 	6.93889390390723e-18 	0.140960028493856 	-0.0396598410457297 	-2.25491179797532e-22
5 	0.580510929812849 	8.67361737988404e-18 	0.162331116295429 	-0.0414005581293594 	-2.33696114318614e-22
5 	0.60959900451791 	1.04083408558608e-17 	0.186230013831267 	-0.0431305537654204 	1.83435950840038e-17
5 	0.639752660582032 	8.67361737988404e-18 	0.212859113144367 	-0.0448181924228776 	1.75301756695752e-17
5 	0.671010933370886 	6.93889390390723e-18 	0.242111795844935 	-0.0464395631136521 	-1.99475038930395e-17
5 	0.7034142882299 	8.67361737988404e-18 	0.273757397196759 	-0.0479758415623072 	-1.91330142254041e-17
5 	0.737004672868605 	1.04083408558608e-17 	0.307566251827914 	-0.0494064967503474 	0
5 	0.771825571663975 	1.04083408558608e-17 	0.34334634677523 	-0.050707708388309 	-5.1586870591921e-23
5 	0.807922061953053 	8.67361737988404e-18 	0.380912929861068 	-0.0518532056709797 	-2.09257631481575e-22
5 	0.845340872387742 	5.20417042793042e-18 	0.420033563350031 	-0.0528161896285464 	-5.70073025491635e-22
5 	0.884130443427309 	3.46944695195361e-18 	0.460383532347623 	-0.0535717234506622 	-2.12798382429765e-22
5 	0.924340990046897 	5.20417042793042e-18 	0.501528433554409 	-0.0540990074631248 	-5.22761324888986e-22
5 	0.966024566743241 	6.93889390390723e-18 	0.542935378942706 	-0.054383208850962 	-2.09274573109807e-22
5 	1.00923513492173 	5.20417042793042e-18 	0.584006254835198 	-0.0544168521678757 	-2.08668618083638e-22
5 	1.05402863275205 	3.46944695195361e-18 	0.624124833025874 	-0.0542008825564564 	-7.04604383062253e-22
5 	1.10046304758287 	3.46944695195361e-18 	0.662709989179471 	-0.0537453349521205 	9.34708285107925e-23
5 	1.14859849100923 	0 	0.69926950093033 	-0.0530693438900029 	9.34740694743704e-22
5 	1.19849727668994 	-1.73472347597681e-18 	0.733461233868851 	-0.052199648100746 	9.97303633061701e-22
5 	1.25022400101563 	-1.73472347597681e-18 	0.765149763662991 	-0.0511667961417992 	1.82301931409722e-22
5 	1.30384562673185 	-1.73472347597681e-18 	0.794411222032151 	-0.0500007863394768 	-1.5774587958034e-22
5 	1.35943156962565 	-1.73472347597681e-18 	0.821480635343388 	-0.0487223484020217 	-7.05112074752578e-22
5 	1.41705378838762 	-3.46944695195361e-18 	0.846676659380989 	-0.0473277988938122 	4.4393605363479e-22
5 	1.47678687776592 	-1.73472347597681e-18 	0.870315806300106 	-0.0458120185952756 	7.20503316886373e-23
5 	1.53870816513277 	-3.46944695195361e-18 	0.892535546263768 	-0.044180496322689 	-7.1521552554898e-22
5 	1.60289781058851 	-6.93889390390723e-18 	0.913326129076696 	-0.042463063036416 	2.62194431162189e-22
5 	1.66943891073266 	-5.20417042793042e-18 	0.932702639732597 	-0.0406795647350304 	-1.18966333501612e-22
5 	1.73841760623657 	-6.93889390390723e-18 	0.950746075954866 	-0.0388338516805357 	-1.26312895766965e-21
5 	1.80992319335659 	-1.38777878078145e-17 	0.967579966259157 	-0.0369191894546802 	-2.52490054995029e-22
5 	1.88404823953248 	-1.56125112837913e-17 	0.983300177959788 	-0.0349254892546291 	0
5 	1.96088870322037 	-6.93889390390723e-18 	0.997476786452432 	-0.0329185235174272 	0
5 	2.02025965173184 	0 	1.00769101153199 	-0.0313078183104264 	0
5 	2.06006301192217 	-3.46944695195361e-18 	1.01445918942532 	-0.0301517761532401 	0
5 	2.09845978584128 	-6.93889390390723e-18 	1.02020602239633 	-0.0290963945943603 	0
5 	2.13549967996945 	-6.93889390390723e-18 	1.02538789000654 	-0.0280751548344797 	0
5 	2.17123064424048 	-6.93889390390723e-18 	1.03004547887374 	-0.027087289545881 	0
5 	2.20569893411515 	-6.93889390390723e-18 	1.03421447041949 	-0.026132039259786 	0
5 	2.23894917046122 	-6.93889390390723e-18 	1.03792610181921 	-0.0252086116017682 	0
5 	2.27102439731725 	-6.93889390390723e-18 	1.04120757494255 	-0.0243161717476959 	0
5 	2.30196613761521 	-6.93889390390723e-18 	1.04408237646209 	-0.0234538458741385 	0
5 	2.33181444693391 	-6.93889390390723e-18 	1.04657053521523 	-0.0226207251918145 	0
5 	2.3606079653529 	-6.93889390390723e-18 	1.04868883345036 	-0.0218158707030907 	0
5 	2.3883839674739 	-6.93889390390723e-18 	1.05045098332624 	-0.0210383184439568 	0
5 	2.41517841067461 	-8.67361737988404e-18 	1.05186777646168 	-0.0202870846308595 	0
5 	2.44102598165722 	-1.04083408558608e-17 	1.05294721235148 	-0.0195611703850809 	0
5 	2.46596014135207 	-1.21430643318376e-17 	1.05369461051089 	-0.0188595658859646 	0
4.99999999999999 	2.49001316823443 	-1.56125112837913e-17 	1.05411271082527 	-0.0181812538912862 	0
4.99999999999999 	2.51321620011054 	-1.90819582357449e-17 	1.05420176647684 	-0.0175252126171239 	0
4.99999999999999 	2.535599274427 	-1.90819582357449e-17 	1.05395963379465 	-0.0168904180065437 	0
4.99999999999999 	2.55719136715571 	-1.56125112837913e-17 	1.05338186326366 	-0.0162758454426165 	0
5 	2.57802043030465 	-1.38777878078145e-17 	1.0524617955911 	-0.0156804709829853 	0
4.99999999999999 	2.59811342810315 	-1.56125112837913e-17 	1.05119066603814 	-0.0151032722154903 	0
4.99999999999999 	2.61749637190832 	-1.73472347597681e-17 	1.04955771909511 	-0.0145432288606004 	0
4.99999999999999 	2.63619435387806 	-1.73472347597681e-17 	1.04755033398009 	-0.0139993232785062 	0
4.99999999999999 	2.65423157945406 	-1.38777878078145e-17 	1.04515415943991 	-0.0134705410770015 	0
5 	2.67163139869691 	-8.67361737988404e-18 	1.0423532541213 	-0.0129558720592446 	0
5 	2.68841633651388 	-5.20417042793042e-18 	1.03913022668323 	-0.01245431179453 	0
5 	2.7046081218185 	-1.73472347597681e-18 	1.03546636827801 	-0.0119648641344866 	0
5 	2.72022771565972 	0 	1.03134176951433 	-0.0114865450236476 	0
5 	2.73529533835694 	-1.73472347597681e-18 	1.0267354149296 	-0.0110183879579743 	0
5 	2.74983049567625 	-3.46944695195361e-18 	1.02162525052268 	-0.0105594514187121 	0
5 	2.76385200408156 	-5.20417042793042e-18 	1.01598822386658 	-0.0101088285387283 	0
5 	2.77737801509343 	-6.93889390390723e-18 	1.00980030116211 	-0.00966565911096402 	0
5 	2.79042603878708 	-6.93889390390723e-18 	1.00303647033765 	-0.00922914381545834 	0
5 	2.80301296646003 	-5.20417042793042e-18 	0.995670742662526 	-0.00879856052325738 	0
5 	2.81515509249872 	-5.20417042793042e-18 	0.987676165784725 	-0.00837328313470917 	0
5 	2.82686813547237 	-5.20417042793042e-18 	0.979024856963931 	-0.00795280079077597 	0
5 	2.83816725848142 	-3.46944695195361e-18 	0.969688055344548 	-0.00753671784560752 	0
5 	2.84906708878691 	-3.46944695195361e-18 	0.959636176190055 	-0.00712471187663692 	0
5 	2.85958173674616 	-5.20417042793042e-18 	0.948838762517004 	-0.00671670891096629 	0
5 	2.86972481407933 	-6.93889390390723e-18 	0.937254797289716 	-0.00631329709911416 	0
5 	2.87950945149043 	-8.67361737988404e-18 	0.924779963093367 	-0.00591290906777756 	0
5 	2.88894831566566 	-6.93889390390723e-18 	0.911249687980734 	-0.00551347969948013 	0
5 	2.89805362567106 	-5.20417042793042e-18 	0.89653909014448 	-0.00511387583922585 	0
5 	2.90683716877067 	-8.67361737988404e-18 	0.880600717143632 	-0.0047154501656556 	0
5 	2.91531031568569 	-6.93889390390723e-18 	0.863432141157095 	-0.00432042292055378 	0
5 	2.92348403531448 	-3.46944695195361e-18 	0.845044698778388 	-0.00393128170417091 	0
5 	2.93136890893229 	-1.73472347597681e-18 	0.82544578414645 	-0.00355064870850158 	0
5 	2.93897514388925 	0 	0.804629101299041 	-0.00318114720663102 	0
5 	2.94631258682425 	0 	0.782567921048267 	-0.0028252870108483 	0
5 	2.95339073641193 	1.73472347597681e-18 	0.759207995351893 	-0.0024853838115298 	0
5 	2.96021875565915 	3.46944695195361e-18 	0.734458336872546 	-0.0021635074074962 	0
5 	2.96680548376697 	3.46944695195361e-18 	0.708179114539549 	-0.00186145103116541 	0
5 	2.97315944757337 	1.73472347597681e-18 	0.680166073581659 	-0.00158071602801357 	0
5 	2.97928887259171 	0 	0.65012990653702 	-0.00132250022720706 	0
5 	2.98520169365902 	1.73472347597681e-18 	0.617668726003642 	-0.00108768841661472 	0
5 	2.99090556520806 	1.73472347597681e-18 	0.582231788048125 	-0.000876864371256496 	0
5 	2.99640787117633 	1.73472347597681e-18 	0.543072638134695 	-0.000690363609804601 	0
5 	3.00171573456492 	5.20417042793042e-18 	0.499180422467526 	-0.000528158327385064 	0
5 	3.00683602665962 	3.46944695195361e-18 	0.449128941210354 	-0.00038909560596352 	0
5 	3.01177537592612 	0 	0.391139952013568 	-0.000271679932315262 	0
5 	3.01654017659085 	0 	0.324311422913295 	-0.000174835022193944 	0
5 	3.02113659691864 	0 	0.250723149343776 	-9.98357123017304e-05 	0
5 	3.02557058719784 	1.73472347597681e-18 	0.175297921261155 	-4.75358038010767e-05 	0
5 	3.02984788744324 	3.46944695195361e-18 	0.102322261561459 	-1.63224021850495e-05 	0
