/*--------------------------------*- C++ -*----------------------------------*\
  =========                 |
  \\      /  F ield         | OpenFOAM: The Open Source CFD Toolbox
   \\    /   O peration     | Website:  https://openfoam.org
    \\  /    A nd           | Version:  7
     \\/     M anipulation  |
\*---------------------------------------------------------------------------*/
FoamFile
{
    version     2.0;
    format      ascii;
    class       volScalarField;
    location    "20000";
    object      Cy;
}
// * * * * * * * * * * * * * * * * * * * * * * * * * * * * * * * * * * * * * //

dimensions      [0 1 0 0 0 0 0];

internalField   nonuniform List<scalar> 
15600
(
1.00078683887884
0.997265491588046
0.981175430075215
0.945355339219569
0.892547060376582
0.830356085114776
0.763832815322179
0.695917986765067
0.62852567993346
0.562318779728716
0.497124464856078
0.432647826794963
0.368653702808875
0.305473226975381
0.244142277416853
0.186106802655743
0.133240608037956
0.087469450937188
0.0503864389904462
0.0234301793730984
0.00790504285411118
0.00294194094850544
0.00273770455311782
0.00273770455311789
0.00273770455311778
0.00273770455311773
0.00273770455311775
0.00273770455311771
0.00273770455311774
0.00273770455311768
0.00273770455311775
0.00273770455311784
0.00273770455311777
0.0027377045531177
0.00273770455311768
0.00273770455311782
0.00273770455311774
0.00273770455311777
0.00273770455311774
0.00273770455311782
0.00273770455311785
0.00273770455311787
0.00273770455311789
0.00273770455311785
0.00273770455311779
0.00273770455311778
0.00273770455311771
0.00273770455311777
0.00273770455311783
0.0027377045531177
0.00273770455311765
0.00273770455311778
0.00273770455311765
0.00273770455311765
0.00273770455311783
0.00273770455311789
0.00273770455311774
0.00273770455311768
0.00273770455311774
0.00273770455311777
0.00273770455311778
0.00273770455311773
0.00273770455311773
0.00273770455311773
0.00273770455311785
0.00273770455311783
0.00273770455311771
0.0027377045531178
0.0027377045531178
0.00273770455311772
0.00273770455311768
0.00273770455311779
0.0027377045531178
0.00273770455311775
0.0027377045531177
0.00273770455311774
0.00273770455311785
0.0027377045531179
0.00273770455311782
0.00273770455311777
0.00273770455311789
0.00273770455311775
0.00273770455311773
0.00273770455311778
0.00273770455311785
0.00273770455311776
0.00273770455311775
0.00273770455311783
0.00273770455311784
0.00273770455311777
0.00273770455311769
0.00273770455311774
0.00273770455311773
0.00273770455311777
0.00273770455311773
0.00273770455311764
0.00273770455311774
0.00273770455311781
0.00294194094850542
0.00790504285411094
0.0234301793730929
0.050386438990448
0.0874694509372035
0.133240608037931
0.186106802655733
0.24414227741685
0.305473226975414
0.368653702808906
0.432647826794897
0.497124464856073
0.562318779728814
0.628525679933412
0.695917986764938
0.763832815322254
0.830356085114644
0.892547060376716
0.945355339219608
0.981175430075222
0.997265491588044
1.00078683887884
1.00237992562712
0.998872628953092
0.982846773177966
0.947169753774278
0.894572488887716
0.832629853518292
0.766372048470843
0.698728131160093
0.631604629974212
0.565661847497451
0.500727640293629
0.436508265543418
0.372769489766132
0.309841110014662
0.248754870627035
0.190950955956076
0.138295700440322
0.0927071827607051
0.0557721509782975
0.0289234660140281
0.0134602883936384
0.00851699425233034
0.00831357294516042
0.00831357294516037
0.00831357294516036
0.00831357294516036
0.00831357294516031
0.00831357294516036
0.00831357294516028
0.00831357294516023
0.00831357294516029
0.00831357294516037
0.00831357294516044
0.00831357294516021
0.00831357294516036
0.00831357294516047
0.00831357294516036
0.00831357294516026
0.00831357294516039
0.00831357294516037
0.00831357294516042
0.00831357294516044
0.00831357294516043
0.00831357294516047
0.00831357294516042
0.00831357294516036
0.00831357294516038
0.00831357294516038
0.00831357294516042
0.00831357294516026
0.00831357294516026
0.00831357294516036
0.00831357294516023
0.00831357294516027
0.00831357294516036
0.00831357294516038
0.00831357294516036
0.0083135729451603
0.00831357294516036
0.00831357294516032
0.00831357294516037
0.00831357294516046
0.00831357294516021
0.00831357294516036
0.00831357294516047
0.00831357294516037
0.00831357294516033
0.00831357294516039
0.00831357294516041
0.00831357294516026
0.00831357294516031
0.00831357294516042
0.00831357294516037
0.00831357294516034
0.00831357294516033
0.00831357294516036
0.00831357294516047
0.00831357294516043
0.00831357294516044
0.0083135729451604
0.00831357294516037
0.00831357294516042
0.0083135729451603
0.00831357294516031
0.00831357294516052
0.00831357294516046
0.00831357294516026
0.00831357294516042
0.0083135729451604
0.00831357294516025
0.00831357294516031
0.00831357294516038
0.00831357294516039
0.00831357294516032
0.00831357294516027
0.00831357294516029
0.00831357294516032
0.00831357294516033
0.00851699425233011
0.0134602883936371
0.0289234660140326
0.0557721509782875
0.0927071827606898
0.13829570044034
0.190950955956078
0.248754870627007
0.30984111001462
0.372769489766219
0.436508265543402
0.500727640293606
0.565661847497398
0.631604629974322
0.698728131160105
0.766372048470772
0.832629853518352
0.894572488887687
0.947169753774235
0.982846773177964
0.998872628953095
1.00237992562712
1.00403137173768
1.00053864041493
0.984579342503353
0.949050634683433
0.896672111217625
0.834986911539847
0.769004296047932
0.701641215412111
0.634796368311301
0.569127379798884
0.504462809283092
0.440510122475239
0.37703604928321
0.314369000875903
0.253536436358009
0.195972564694436
0.143535975682713
0.0981367880053369
0.0613551572324809
0.0346179875946056
0.0192190385680794
0.0142962778354477
0.0140937014779846
0.0140937014779845
0.0140937014779846
0.0140937014779846
0.0140937014779845
0.0140937014779846
0.0140937014779845
0.0140937014779844
0.0140937014779846
0.0140937014779847
0.0140937014779846
0.0140937014779846
0.0140937014779845
0.0140937014779846
0.0140937014779846
0.0140937014779845
0.0140937014779846
0.0140937014779846
0.0140937014779845
0.0140937014779845
0.0140937014779846
0.0140937014779846
0.0140937014779845
0.0140937014779846
0.0140937014779846
0.0140937014779845
0.0140937014779846
0.0140937014779845
0.0140937014779846
0.0140937014779845
0.0140937014779846
0.0140937014779846
0.0140937014779845
0.0140937014779846
0.0140937014779847
0.0140937014779847
0.0140937014779847
0.0140937014779847
0.0140937014779848
0.0140937014779847
0.0140937014779848
0.0140937014779846
0.0140937014779846
0.0140937014779845
0.0140937014779846
0.0140937014779846
0.0140937014779845
0.0140937014779846
0.0140937014779846
0.0140937014779845
0.0140937014779846
0.0140937014779846
0.0140937014779846
0.0140937014779846
0.0140937014779845
0.0140937014779846
0.0140937014779846
0.0140937014779845
0.0140937014779846
0.0140937014779846
0.0140937014779845
0.0140937014779846
0.0140937014779846
0.0140937014779846
0.0140937014779846
0.0140937014779845
0.0140937014779845
0.0140937014779845
0.0140937014779845
0.0140937014779846
0.0140937014779845
0.0140937014779846
0.0140937014779846
0.0140937014779845
0.0140937014779846
0.0140937014779846
0.0142962778354476
0.019219038568079
0.0346179875945974
0.0613551572324909
0.0981367880053389
0.143535975682687
0.195972564694413
0.25353643635807
0.314369000875929
0.377036049283127
0.440510122475278
0.504462809283103
0.569127379798948
0.634796368311211
0.701641215412046
0.769004296048038
0.834986911539779
0.896672111217597
0.949050634683432
0.984579342503359
1.00053864041492
1.00403137173768
1.00574331507953
1.00226568270027
0.986375380949482
0.951000416733223
0.89884864504476
0.837430309948774
0.771732965075625
0.704661010223097
0.63810502651693
0.57271986273392
0.50833480703843
0.44465857807978
0.38145890454392
0.319062761075524
0.258493164547629
0.201178129577018
0.148968217554995
0.103765295553836
0.0671426852095398
0.0405211159221319
0.0251887483272585
0.0202872732322923
0.020085572780123
0.0200855727801231
0.0200855727801231
0.0200855727801231
0.0200855727801232
0.0200855727801231
0.0200855727801231
0.0200855727801232
0.0200855727801232
0.0200855727801233
0.0200855727801232
0.0200855727801231
0.0200855727801232
0.0200855727801232
0.0200855727801231
0.0200855727801231
0.0200855727801231
0.0200855727801231
0.0200855727801231
0.0200855727801231
0.0200855727801231
0.0200855727801231
0.0200855727801232
0.0200855727801231
0.0200855727801231
0.0200855727801232
0.0200855727801231
0.0200855727801231
0.020085572780123
0.0200855727801231
0.0200855727801231
0.0200855727801231
0.0200855727801231
0.0200855727801232
0.0200855727801233
0.0200855727801233
0.0200855727801233
0.0200855727801232
0.0200855727801232
0.0200855727801233
0.0200855727801233
0.0200855727801232
0.0200855727801231
0.0200855727801232
0.0200855727801231
0.0200855727801231
0.0200855727801232
0.0200855727801231
0.0200855727801231
0.0200855727801232
0.0200855727801231
0.0200855727801232
0.0200855727801231
0.0200855727801231
0.0200855727801232
0.0200855727801231
0.020085572780123
0.0200855727801232
0.0200855727801231
0.0200855727801231
0.0200855727801231
0.0200855727801231
0.0200855727801231
0.0200855727801231
0.0200855727801231
0.0200855727801231
0.0200855727801231
0.0200855727801231
0.0200855727801231
0.0200855727801231
0.0200855727801232
0.0200855727801231
0.0200855727801231
0.0200855727801232
0.0200855727801231
0.0200855727801231
0.0202872732322923
0.0251887483272576
0.0405211159221312
0.0671426852095463
0.103765295553819
0.148968217554989
0.201178129577005
0.258493164547645
0.319062761075479
0.381458904543965
0.444658578079758
0.508334807038452
0.572719862733867
0.638105026516942
0.70466101022314
0.771732965075605
0.837430309948837
0.898848645044695
0.951000416733269
0.986375380949462
1.00226568270027
1.00574331507953
1.00751797183773
1.00405599154277
0.988237213578541
0.953021623898007
0.901104907585623
0.839963211246585
0.774561587359229
0.707791424406514
0.641534887501045
0.576443946732829
0.51234864589469
0.448959002617528
0.386043781058419
0.323928466851642
0.263631471887742
0.206574389449454
0.154599458357131
0.109599991777333
0.0731422271281523
0.0466404928534455
0.0313771457160603
0.0264977360463959
0.0262969435892992
0.0262969435892991
0.0262969435892992
0.0262969435892991
0.0262969435892991
0.0262969435892991
0.0262969435892992
0.0262969435892992
0.0262969435892992
0.0262969435892992
0.026296943589299
0.0262969435892991
0.0262969435892993
0.0262969435892993
0.0262969435892991
0.0262969435892992
0.0262969435892991
0.0262969435892991
0.0262969435892991
0.0262969435892992
0.0262969435892992
0.0262969435892992
0.0262969435892992
0.0262969435892992
0.0262969435892991
0.0262969435892991
0.0262969435892991
0.0262969435892991
0.0262969435892991
0.0262969435892991
0.0262969435892991
0.0262969435892991
0.0262969435892992
0.0262969435892992
0.0262969435892991
0.0262969435892992
0.0262969435892991
0.026296943589299
0.026296943589299
0.0262969435892991
0.0262969435892991
0.0262969435892992
0.0262969435892991
0.0262969435892992
0.0262969435892991
0.0262969435892991
0.0262969435892991
0.0262969435892992
0.0262969435892991
0.0262969435892991
0.0262969435892991
0.026296943589299
0.0262969435892991
0.0262969435892992
0.0262969435892991
0.0262969435892991
0.0262969435892991
0.026296943589299
0.026296943589299
0.0262969435892991
0.0262969435892991
0.0262969435892991
0.0262969435892992
0.0262969435892993
0.0262969435892991
0.0262969435892991
0.0262969435892991
0.0262969435892991
0.0262969435892993
0.0262969435892992
0.0262969435892991
0.026296943589299
0.0262969435892992
0.0262969435892992
0.0262969435892992
0.0262969435892991
0.0264977360463956
0.0313771457160593
0.0466404928534484
0.073142227128137
0.109599991777332
0.154599458357136
0.206574389449447
0.263631471887753
0.323928466851623
0.386043781058403
0.448959002617558
0.512348645894594
0.576443946732945
0.641534887501035
0.707791424406484
0.774561587359257
0.839963211246556
0.901104907585661
0.953021623898029
0.988237213578542
1.00405599154277
1.00751797183773
1.00935763938221
1.00591188457722
0.990167250626767
0.95511687260714
0.903443819239818
0.842588893758258
0.777493824056576
0.711036509945354
0.645090391054273
0.580304452574454
0.516509521795933
0.453416963071692
0.390796614074602
0.32897241702969
0.268958010130884
0.212168330020528
0.160436988002834
0.115648429967857
0.0793615496680737
0.0529840401875277
0.0377922418785804
0.0329357059902318
0.0327358547937415
0.0327358547937416
0.0327358547937417
0.0327358547937416
0.0327358547937415
0.0327358547937416
0.0327358547937416
0.0327358547937417
0.0327358547937415
0.0327358547937417
0.0327358547937417
0.0327358547937416
0.0327358547937417
0.0327358547937416
0.0327358547937416
0.0327358547937416
0.0327358547937416
0.0327358547937417
0.0327358547937415
0.0327358547937415
0.0327358547937416
0.0327358547937417
0.0327358547937417
0.0327358547937416
0.0327358547937416
0.0327358547937416
0.0327358547937416
0.0327358547937417
0.0327358547937417
0.0327358547937416
0.0327358547937416
0.0327358547937416
0.0327358547937417
0.0327358547937416
0.0327358547937416
0.0327358547937416
0.0327358547937415
0.0327358547937415
0.0327358547937415
0.0327358547937415
0.0327358547937416
0.0327358547937416
0.0327358547937416
0.0327358547937417
0.0327358547937416
0.0327358547937415
0.0327358547937416
0.0327358547937417
0.0327358547937416
0.0327358547937416
0.0327358547937415
0.0327358547937415
0.0327358547937416
0.0327358547937417
0.0327358547937416
0.0327358547937414
0.0327358547937415
0.0327358547937414
0.0327358547937415
0.0327358547937415
0.0327358547937416
0.0327358547937416
0.0327358547937416
0.0327358547937417
0.0327358547937417
0.0327358547937416
0.0327358547937416
0.0327358547937416
0.0327358547937416
0.0327358547937417
0.0327358547937416
0.0327358547937415
0.0327358547937416
0.0327358547937417
0.0327358547937415
0.0327358547937416
0.0329357059902318
0.03779224187858
0.052984040187522
0.0793615496680709
0.115648429967864
0.160436988002833
0.212168330020518
0.268958010130853
0.328972417029748
0.390796614074597
0.453416963071684
0.516509521795922
0.580304452574382
0.645090391054292
0.711036509945413
0.777493824056464
0.842588893758364
0.903443819239803
0.955116872607144
0.990167250626756
1.00591188457722
1.00935763938221
1.01126469924184
1.00783576433982
0.992167990624562
0.957288875131473
0.905868407368584
0.845310755873257
0.780533470414678
0.714400467235318
0.648776139593924
0.584306377625828
0.520822821020847
0.458038230354306
0.395723556261141
0.334201141176322
0.274479674700947
0.217967192905488
0.166488363456707
0.121918440116429
0.0858087040243964
0.0595599699204848
0.0444423414287481
0.0396095172928421
0.0394106418413358
0.0394106418413357
0.0394106418413359
0.0394106418413359
0.0394106418413359
0.0394106418413359
0.0394106418413359
0.0394106418413358
0.0394106418413359
0.039410641841336
0.0394106418413361
0.0394106418413359
0.0394106418413357
0.0394106418413358
0.0394106418413359
0.0394106418413359
0.0394106418413359
0.0394106418413358
0.0394106418413358
0.0394106418413358
0.0394106418413357
0.0394106418413359
0.039410641841336
0.039410641841336
0.039410641841336
0.0394106418413358
0.0394106418413358
0.039410641841336
0.039410641841336
0.039410641841336
0.039410641841336
0.0394106418413359
0.0394106418413359
0.0394106418413358
0.0394106418413358
0.0394106418413358
0.0394106418413359
0.0394106418413359
0.0394106418413358
0.0394106418413359
0.0394106418413359
0.0394106418413357
0.0394106418413359
0.0394106418413359
0.0394106418413361
0.039410641841336
0.039410641841336
0.0394106418413359
0.0394106418413359
0.0394106418413358
0.0394106418413359
0.039410641841336
0.039410641841336
0.0394106418413359
0.0394106418413358
0.0394106418413357
0.0394106418413358
0.0394106418413358
0.0394106418413357
0.0394106418413359
0.039410641841336
0.039410641841336
0.0394106418413359
0.0394106418413359
0.0394106418413359
0.039410641841336
0.039410641841336
0.0394106418413359
0.0394106418413359
0.0394106418413359
0.0394106418413359
0.0394106418413359
0.0394106418413359
0.0394106418413359
0.0394106418413358
0.0394106418413358
0.0396095172928419
0.044442341428747
0.0595599699204876
0.085808704024388
0.12191844011642
0.166488363456709
0.21796719290551
0.274479674700952
0.334201141176327
0.395723556261079
0.458038230354376
0.520822821020803
0.584306377625874
0.648776139593914
0.714400467235318
0.780533470414657
0.845310755873264
0.905868407368498
0.957288875131458
0.992167990624584
1.00783576433982
1.01126469924184
1.01324162018739
1.00983012137838
0.994242023631057
0.959540443093881
0.908381810211637
0.848132320441766
0.783684460679774
0.717887650520051
0.65259690412034
0.588454902310346
0.525294127154705
0.462828786776237
0.40083098567193
0.339621408051799
0.280203613619609
0.223978485000566
0.172761418517122
0.12841813904933
0.0924920363301021
0.0663767948762071
0.0513360532008459
0.046527809488716
0.0463299455300818
0.0463299455300817
0.0463299455300817
0.0463299455300816
0.0463299455300816
0.0463299455300817
0.0463299455300817
0.0463299455300817
0.0463299455300818
0.0463299455300818
0.0463299455300817
0.0463299455300817
0.0463299455300816
0.0463299455300817
0.0463299455300817
0.0463299455300818
0.0463299455300818
0.0463299455300817
0.0463299455300818
0.0463299455300817
0.0463299455300817
0.0463299455300818
0.0463299455300819
0.0463299455300818
0.0463299455300817
0.0463299455300817
0.0463299455300817
0.0463299455300817
0.0463299455300817
0.0463299455300817
0.0463299455300818
0.0463299455300818
0.0463299455300817
0.0463299455300817
0.0463299455300817
0.0463299455300817
0.0463299455300817
0.0463299455300818
0.0463299455300818
0.0463299455300818
0.0463299455300818
0.0463299455300817
0.0463299455300817
0.0463299455300818
0.0463299455300819
0.0463299455300818
0.0463299455300817
0.0463299455300818
0.0463299455300818
0.0463299455300817
0.0463299455300817
0.0463299455300819
0.0463299455300818
0.0463299455300818
0.0463299455300817
0.0463299455300817
0.0463299455300817
0.0463299455300817
0.0463299455300816
0.0463299455300818
0.0463299455300818
0.0463299455300818
0.0463299455300818
0.0463299455300817
0.0463299455300817
0.0463299455300817
0.0463299455300818
0.0463299455300819
0.0463299455300817
0.0463299455300817
0.0463299455300817
0.0463299455300818
0.0463299455300817
0.0463299455300817
0.0463299455300817
0.0463299455300817
0.0465278094887158
0.0513360532008452
0.0663767948762052
0.0924920363300993
0.128418139049327
0.172761418517113
0.223978485000575
0.280203613619618
0.339621408051726
0.400830985672021
0.462828786776153
0.525294127154821
0.588454902310295
0.652596904120316
0.717887650520073
0.783684460679773
0.848132320441728
0.908381810211658
0.959540443093863
0.994242023631068
1.00983012137838
1.01324162018739
1.01529096142736
1.01189753747634
0.996392034587062
0.961874491108349
0.910987280947417
0.851057239331876
0.786950873187129
0.721502573525306
0.65655763039143
0.592755396812826
0.529929228316657
0.467794833790987
0.406125514002169
0.345240234372198
0.286137236759471
0.230209988200976
0.179264273957442
0.135155940935702
0.0994201984604337
0.0734433397264365
0.0584823013938402
0.0536995386018875
0.0535027231938292
0.0535027231938291
0.053502723193829
0.053502723193829
0.053502723193829
0.0535027231938291
0.053502723193829
0.053502723193829
0.053502723193829
0.0535027231938291
0.0535027231938291
0.053502723193829
0.0535027231938292
0.0535027231938291
0.053502723193829
0.0535027231938291
0.0535027231938291
0.0535027231938291
0.0535027231938292
0.053502723193829
0.0535027231938291
0.053502723193829
0.0535027231938291
0.0535027231938291
0.053502723193829
0.0535027231938291
0.0535027231938291
0.0535027231938291
0.0535027231938291
0.053502723193829
0.0535027231938292
0.0535027231938291
0.053502723193829
0.0535027231938291
0.0535027231938291
0.0535027231938291
0.053502723193829
0.0535027231938291
0.053502723193829
0.0535027231938292
0.0535027231938291
0.0535027231938291
0.0535027231938291
0.053502723193829
0.0535027231938291
0.0535027231938291
0.0535027231938292
0.053502723193829
0.0535027231938291
0.0535027231938291
0.0535027231938291
0.053502723193829
0.0535027231938291
0.0535027231938291
0.0535027231938291
0.053502723193829
0.0535027231938291
0.053502723193829
0.053502723193829
0.0535027231938291
0.0535027231938291
0.053502723193829
0.0535027231938291
0.0535027231938292
0.053502723193829
0.053502723193829
0.0535027231938292
0.0535027231938291
0.0535027231938291
0.053502723193829
0.053502723193829
0.0535027231938292
0.053502723193829
0.053502723193829
0.0535027231938291
0.0535027231938291
0.053699538601887
0.0584823013938392
0.0734433397264339
0.0994201984604384
0.135155940935688
0.179264273957451
0.230209988200971
0.28613723675943
0.34524023437223
0.406125514002124
0.467794833791042
0.529929228316572
0.592755396812857
0.65655763039147
0.721502573525222
0.786950873187132
0.851057239331868
0.910987280947543
0.961874491108336
0.996392034587053
1.01189753747634
1.01529096142736
1.01741537592098
1.01404068899502
0.998620806790853
0.96429404055235
0.913688191901938
0.854089298153546
0.790336935637139
0.725249915299448
0.660663445323268
0.597213428030127
0.534734124651758
0.472942800021926
0.411613995147023
0.351064893892398
0.292288225436352
0.236669769474934
0.186005348038734
0.142140568180061
0.106602159233055
0.080768752414528
0.0658903371239506
0.0611339887397292
0.0609382602977693
0.0609382602977693
0.0609382602977692
0.0609382602977692
0.0609382602977693
0.0609382602977693
0.0609382602977692
0.0609382602977692
0.0609382602977693
0.0609382602977693
0.0609382602977693
0.0609382602977693
0.0609382602977693
0.0609382602977693
0.0609382602977693
0.0609382602977692
0.0609382602977693
0.0609382602977694
0.0609382602977693
0.0609382602977693
0.0609382602977692
0.0609382602977693
0.0609382602977693
0.0609382602977693
0.0609382602977693
0.0609382602977692
0.0609382602977693
0.0609382602977694
0.0609382602977693
0.0609382602977693
0.0609382602977693
0.0609382602977693
0.0609382602977694
0.0609382602977693
0.0609382602977693
0.0609382602977693
0.0609382602977693
0.0609382602977692
0.0609382602977692
0.0609382602977693
0.0609382602977693
0.0609382602977693
0.0609382602977692
0.0609382602977694
0.0609382602977693
0.0609382602977693
0.0609382602977692
0.0609382602977694
0.0609382602977694
0.0609382602977692
0.0609382602977692
0.0609382602977692
0.0609382602977693
0.0609382602977693
0.0609382602977692
0.0609382602977693
0.0609382602977693
0.0609382602977693
0.0609382602977693
0.0609382602977692
0.0609382602977692
0.0609382602977694
0.0609382602977693
0.0609382602977693
0.0609382602977693
0.0609382602977693
0.0609382602977694
0.0609382602977693
0.0609382602977693
0.0609382602977693
0.0609382602977693
0.0609382602977693
0.0609382602977692
0.0609382602977691
0.0609382602977693
0.0609382602977693
0.0611339887397292
0.0658903371239498
0.0807687524145242
0.106602159233054
0.142140568180059
0.18600534803874
0.236669769474906
0.292288225436349
0.351064893892429
0.411613995147031
0.472942800021912
0.534734124651752
0.597213428030116
0.660663445323282
0.725249915299514
0.790336935637086
0.854089298153537
0.9136881919019
0.964294040552348
0.998620806790839
1.01404068899502
1.01741537592098
1.01961761381253
1.01626235033825
1.00093122550135
0.966802223477368
0.916488038911741
0.857232421155488
0.793847030564572
0.729134526267746
0.66491966362512
0.601834766776353
0.539715036097405
0.47827934958374
0.417303534073621
0.35710292682195
0.298664542352884
0.243366191306553
0.192993367407659
0.149381062713859
0.114047216018478
0.0883625159976916
0.073569750400411
0.0688407841114494
0.0686461824586919
0.0686461824586919
0.068646182458692
0.0686461824586919
0.0686461824586919
0.068646182458692
0.068646182458692
0.0686461824586919
0.068646182458692
0.068646182458692
0.0686461824586919
0.0686461824586919
0.068646182458692
0.0686461824586921
0.0686461824586919
0.068646182458692
0.068646182458692
0.068646182458692
0.068646182458692
0.068646182458692
0.068646182458692
0.068646182458692
0.0686461824586919
0.068646182458692
0.0686461824586919
0.0686461824586919
0.0686461824586921
0.068646182458692
0.0686461824586919
0.0686461824586919
0.068646182458692
0.068646182458692
0.0686461824586919
0.068646182458692
0.0686461824586921
0.0686461824586919
0.068646182458692
0.068646182458692
0.068646182458692
0.068646182458692
0.068646182458692
0.0686461824586919
0.0686461824586921
0.068646182458692
0.0686461824586919
0.0686461824586919
0.068646182458692
0.068646182458692
0.068646182458692
0.0686461824586921
0.0686461824586919
0.0686461824586919
0.068646182458692
0.068646182458692
0.0686461824586919
0.068646182458692
0.068646182458692
0.068646182458692
0.068646182458692
0.068646182458692
0.068646182458692
0.0686461824586919
0.0686461824586921
0.068646182458692
0.0686461824586919
0.068646182458692
0.068646182458692
0.068646182458692
0.0686461824586919
0.068646182458692
0.068646182458692
0.0686461824586919
0.068646182458692
0.0686461824586921
0.0686461824586919
0.0686461824586919
0.0688407841114492
0.0735697504004101
0.0883625159976895
0.114047216018481
0.149381062713851
0.192993367407642
0.243366191306584
0.298664542352888
0.357102926821925
0.41730353407365
0.47827934958373
0.539715036097422
0.601834766776346
0.664919663625077
0.729134526267702
0.79384703056463
0.857232421155501
0.916488038911725
0.966802223477364
1.00093122550136
1.01626235033825
1.01961761381254
1.02190052599147
1.0185653975439
1.00332628167322
0.969402286662661
0.91939044584654
0.860490676301257
0.797485701008009
0.733161434508367
0.669331794677424
0.606625395251902
0.54487841043422
0.483811390708549
0.423201496018175
0.363362149585734
0.305274441906326
0.250307922521537
0.200237378393505
0.15688679770065
0.121765006775846
0.0962344609230237
0.0815304825399235
0.0768299014868487
0.0766364679055673
0.0766364679055674
0.0766364679055674
0.0766364679055672
0.0766364679055673
0.0766364679055673
0.0766364679055673
0.0766364679055674
0.0766364679055673
0.0766364679055672
0.0766364679055672
0.0766364679055672
0.0766364679055673
0.0766364679055674
0.0766364679055673
0.0766364679055672
0.0766364679055673
0.0766364679055672
0.0766364679055673
0.0766364679055674
0.0766364679055672
0.0766364679055673
0.0766364679055671
0.0766364679055672
0.0766364679055672
0.0766364679055674
0.0766364679055673
0.0766364679055672
0.0766364679055672
0.0766364679055673
0.0766364679055673
0.0766364679055673
0.0766364679055673
0.0766364679055672
0.0766364679055672
0.0766364679055672
0.0766364679055673
0.0766364679055673
0.0766364679055674
0.0766364679055672
0.0766364679055672
0.0766364679055672
0.0766364679055672
0.0766364679055673
0.0766364679055674
0.0766364679055672
0.0766364679055672
0.0766364679055673
0.0766364679055673
0.0766364679055673
0.0766364679055673
0.0766364679055673
0.0766364679055672
0.0766364679055672
0.0766364679055672
0.0766364679055672
0.0766364679055673
0.0766364679055673
0.0766364679055672
0.0766364679055673
0.0766364679055672
0.0766364679055673
0.0766364679055673
0.0766364679055672
0.0766364679055672
0.0766364679055672
0.0766364679055673
0.0766364679055673
0.0766364679055674
0.0766364679055673
0.0766364679055673
0.0766364679055673
0.0766364679055673
0.0766364679055673
0.0766364679055674
0.0766364679055673
0.0768299014868487
0.0815304825399228
0.0962344609230213
0.121765006775841
0.156886797700652
0.200237378393502
0.250307922521515
0.305274441906326
0.363362149585773
0.423201496018108
0.48381139070859
0.54487841043424
0.606625395251837
0.669331794677458
0.733161434508426
0.79748570100795
0.860490676301212
0.919390445846552
0.969402286662702
1.0033262816732
1.0185653975439
1.02190052599147
1.02426706778293
1.02095281200701
1.0058090758289
0.972097595817448
0.92239916929742
0.863868280531149
0.801257656386812
0.737335852258142
0.673905549661627
0.611591514786105
0.550230931631844
0.489546084688036
0.429315516019893
0.369850664942224
0.312126480874068
0.257503949509221
0.207746758719111
0.164667489670075
0.12976552252958
0.104394777753249
0.0897828390358763
0.0851116831114663
0.0849194603965828
0.0849194603965828
0.0849194603965828
0.0849194603965827
0.0849194603965827
0.0849194603965828
0.0849194603965828
0.0849194603965828
0.0849194603965828
0.0849194603965829
0.0849194603965827
0.0849194603965827
0.0849194603965829
0.0849194603965829
0.0849194603965828
0.0849194603965828
0.0849194603965827
0.0849194603965828
0.0849194603965828
0.0849194603965828
0.0849194603965828
0.0849194603965827
0.0849194603965828
0.0849194603965826
0.0849194603965828
0.0849194603965828
0.0849194603965827
0.0849194603965827
0.0849194603965828
0.0849194603965828
0.0849194603965828
0.0849194603965828
0.0849194603965828
0.0849194603965828
0.0849194603965828
0.0849194603965827
0.0849194603965827
0.0849194603965829
0.0849194603965829
0.0849194603965828
0.0849194603965827
0.0849194603965827
0.0849194603965828
0.0849194603965829
0.0849194603965827
0.0849194603965827
0.0849194603965826
0.0849194603965828
0.0849194603965828
0.0849194603965828
0.0849194603965829
0.0849194603965828
0.0849194603965827
0.0849194603965827
0.0849194603965828
0.0849194603965828
0.0849194603965828
0.0849194603965828
0.0849194603965827
0.0849194603965827
0.0849194603965828
0.0849194603965828
0.0849194603965829
0.0849194603965828
0.0849194603965827
0.0849194603965827
0.0849194603965828
0.0849194603965828
0.0849194603965827
0.0849194603965828
0.0849194603965829
0.0849194603965828
0.0849194603965827
0.0849194603965828
0.0849194603965828
0.0849194603965828
0.0851116831114661
0.0897828390358755
0.10439477775325
0.129765522529571
0.164667489670072
0.207746758719098
0.257503949509237
0.312126480874056
0.369850664942207
0.429315516019915
0.489546084688008
0.550230931631859
0.611591514786121
0.673905549661612
0.737335852258096
0.801257656386869
0.863868280531234
0.922399169297403
0.972097595817411
1.00580907582892
1.02095281200701
1.02426706778293
1.0267203027735
1.02342768433928
1.00838282207235
0.974891639937022
0.925518103436671
0.867369605216677
0.805167778593205
0.741663182656482
0.678646848951128
0.616739553863395
0.555779528500344