/*--------------------------------*- C++ -*----------------------------------*\
  =========                 |
  \\      /  F ield         | OpenFOAM: The Open Source CFD Toolbox
   \\    /   O peration     | Website:  https://openfoam.org
    \\  /    A nd           | Version:  7
     \\/     M anipulation  |
\*---------------------------------------------------------------------------*/
FoamFile
{
    version     2.0;
    format      ascii;
    class       volScalarField;
    location    "20000";
    object      Cz;
}
// * * * * * * * * * * * * * * * * * * * * * * * * * * * * * * * * * * * * * //

dimensions      [0 1 0 0 0 0 0];

internalField   nonuniform List<scalar> 
15600
(
0
-2.13746114750967e-18
0
-1.48747331007469e-17
1.43108082959323e-17
0
1.6989636550596e-17
1.05117182405246e-17
-2.76428846643478e-18
9.64455678237893e-18
-2.44213334483104e-17
2.0339740504543e-18
7.8470666580386e-18
1.7603374606617e-18
9.4024907479569e-20
-9.43392278018836e-20
-4.16273972699598e-18
0
7.83193640174931e-18
0
2.44277179205703e-18
0
0
-5.10053783526992e-18
2.5502689176352e-18
9.63735265387404e-20
0
9.63735265387398e-20
0
-9.63735265387423e-20
0
2.55026891763515e-18
0
0
-2.55026891763507e-18
-9.63735265387408e-20
2.45389539109634e-18
0
-3.43359866771693e-16
-3.46556815392935e-16
0
0
0
-9.63735265387403e-20
5.10053783527007e-18
-3.50817926471505e-16
-3.49157482500566e-16
0
2.55026891763515e-18
-7.55443322636624e-18
-5.00416430873148e-18
7.55443322636613e-18
2.55026891763516e-18
-5.00416430873158e-18
-5.00416430873177e-18
-9.63735265387365e-20
-5.10053783527016e-18
-9.63735265387375e-20
9.63735265387412e-20
-5.00416430873163e-18
-3.50817926471507e-16
-3.49274807230628e-16
-2.45389539109628e-18
-2.6466424441738e-18
-9.63735265387414e-20
0
5.10053783527022e-18
7.65080675290552e-18
-2.45389539109628e-18
-5.00416430873131e-18
-9.63735265387414e-20
5.10053783527004e-18
3.50914299998055e-16
3.52171281806013e-16
0
-9.63735265387392e-20
-2.45389539109626e-18
-2.55026891763486e-18
0
3.50914299998059e-16
3.51874612925878e-16
0
7.554433226367e-18
2.55026891763495e-18
-5.00416430873128e-18
0
0
9.63735265387397e-20
2.64664244417374e-18
0
0
3.53368195389155e-16
3.48490313964874e-16
-2.64664244417375e-18
0
-2.55026891763521e-18
0
6.866233600168e-16
6.82836524754749e-16
0
-2.46991991300377e-18
0
5.34065775302707e-18
0
0
-8.28217549662516e-18
0
-1.89164870516112e-18
8.03643010179408e-18
-8.81287648847842e-18
7.13329818203711e-18
2.77278608254304e-18
1.20133922749122e-17
-1.0037471650221e-17
2.43492692143759e-17
-1.42087451189139e-17
6.27388229854017e-18
1.49753046627943e-17
-2.23454882121679e-18
2.24355478702986e-18
2.16808482530813e-18
-2.06229043673905e-18
-8.2007990566229e-18
-1.63942603118873e-17
-1.86986648419201e-19
0
1.48474387536206e-17
9.43707625409044e-18
0
0
6.37344130714867e-18
-1.94069859751641e-15
-1.84373739918186e-15
0
-6.8853569617209e-18
4.4045015961309e-18
5.47601540285776e-18
0
-1.91773093783241e-19
0
-2.74193531300817e-18
2.75228468377024e-18
0
1.92755444590282e-19
0
0
-4.92802400880044e-18
7.48841373549613e-18
-1.92755444590282e-19
0
0
0
1.92755444590274e-19
2.94579476807515e-16
2.98269592398356e-16
-1.92755444590278e-19
0
0
6.30565269078378e-16
6.20500115728375e-16
0
-1.9275544459028e-19
2.56038972669549e-18
0
0
9.22969867048336e-16
9.25883848228353e-16
5.12077945339104e-18
-5.12077945339115e-18
0
0
4.92802400880027e-18
0
-2.56038972669545e-18
2.56038972669553e-18
0
2.56038972669552e-18
0
0
0
3.35793036826244e-16
3.37270665277857e-16
-5.12077945339094e-18
-5.12077945339102e-18
2.36763428210534e-18
-5.12077945339092e-18
-5.12077945339098e-18
-2.56038972669555e-18
-7.29565829090611e-18
0
2.75314517128576e-18
4.92802400880085e-18
-3.4091381627968e-16
-3.4237175669376e-16
0
-9.85604801760149e-18
0
-5.12077945339098e-18
-4.92802400880093e-18
-3.35793036826271e-16
-3.39394295227626e-16
4.92802400880083e-18
2.3676342821052e-18
-2.56038972669541e-18
1.92755444590277e-19
-2.94386721362928e-16
-2.88771041359225e-16
-4.92802400880089e-18
0
0
-1.92755444590284e-19
-6.30758024522961e-16
-6.29616770689104e-16
0
-5.12077945339117e-18
7.48841373549565e-18
0
-6.57187512515286e-16
-6.60341224295328e-16
0
0
0
7.72872899250352e-18
1.94428410077098e-19
-3.13110508416612e-18
0
-7.37670596817868e-18
-1.95602599153394e-19
-1.5697041137467e-18
0
-2.52130460728698e-18
-2.57628189565282e-18
-1.44760844428275e-18
-1.32294324918651e-17
1.81305060320525e-18
1.98455137870189e-19
-2.29368974031561e-17
-1.8549314420852e-18
0
0
-9.63822272827739e-20
4.17159241307487e-18
1.00794648277629e-17
0
3.98726816334933e-18
1.41678592015649e-17
1.09906805470246e-17
-1.43302660428041e-17
-9.93505866460935e-18
0
1.24804859814542e-17
1.90864660205738e-15
1.74942311985268e-15
-8.37610374295516e-18
0
-1.01036565682731e-17
2.64127362368604e-18
2.48548202266781e-18
0
0
1.92480305974933e-19
-2.47636270222232e-18
1.92755753738851e-19
0
0
0
-7.43153229994618e-18
0
0
-1.92755753738855e-19
0
-1.92755753738849e-19
-4.76159911289133e-18
-2.89079608244946e-16
-2.81076825150724e-16
-1.92755753738849e-19
-1.92755753738848e-19
-2.47717743331537e-18
-2.82033587452464e-16
-2.90719358036681e-16
-4.9543548666306e-18
-7.4315322999462e-18
1.9275575373885e-19
-2.6699331870541e-18
-1.92755753738853e-19
-5.61589997471619e-16
-5.63633787408582e-16
1.92755753738852e-19
2.6699331870541e-18
1.92755753738854e-19
0
2.669933187054e-18
-1.9275575373885e-19
0
1.92755753738853e-19
4.95435486663038e-18
0
2.6699331870541e-18
2.47717743331513e-18
0
2.28442167957631e-18
2.47717743331508e-18
0
2.28442167957645e-18
0
0
-1.92755753738849e-19
-1.92755753738848e-19
0
-1.92755753738851e-19
-1.92755753738849e-19
-1.92755753738855e-19
0
4.95435486663082e-18
0
-1.92755753738849e-19
-1.92755753738853e-19
2.28442167957639e-18
-2.47717743331527e-18
0
2.28442167957639e-18
0
1.92755753738856e-19
2.28442167957639e-18
0
2.79749165772906e-16
2.80884069396986e-16
-1.92755753738854e-19
0
0
1.92755753738849e-19
2.79556410019148e-16
2.85662710717447e-16
-1.92755753738848e-19
2.47717743331532e-18
0
0
-1.92755753738846e-19
1.9276775882568e-19
0
2.10609808861344e-18
2.37109824798023e-18
2.29140134545025e-18
-2.64127362368414e-18
7.08067286174127e-18
-7.80729018823494e-18
1.16557383809354e-17
-5.27739694668539e-18
0
1.96120626422601e-19
0
0
1.11636387706462e-17
-4.90845085267725e-18
-5.44140128162639e-18
0
-1.97627793326783e-18
7.91138794071613e-18
3.97955253561843e-18
0
0
-1.91982476767197e-18
0
1.52468283683338e-17
-1.48414826969892e-17
9.92014530628143e-18
7.37956252956317e-18
1.07611657758881e-17
-1.19725931447131e-17
-6.48363069878072e-18
-2.16459133068479e-18
0
0
-2.967629501801e-18
3.12705242126454e-18
5.46376290817562e-18
-5.0959159438996e-18
4.7958569151912e-18
0
2.21876372364052e-18
-2.38685221033237e-18
1.92744242277496e-19
0
-2.39690593522638e-18
0
0
0
0
0
0
2.71822714131049e-16
2.75960910962949e-16
2.39690593522628e-18
4.79381187045245e-18
-2.74026863991951e-16
-2.76193428393095e-16
1.92756074342707e-19
-4.79381187045286e-18
0
2.58966200956895e-18
0
0
0
0
-2.58966200956903e-18
0
-2.39690593522623e-18
0
0
0
-4.60105579610987e-18
0
0
0
2.20414986088375e-18
0
0
0
2.20414986088361e-18
1.92756074342708e-19
0
0
2.20414986088361e-18
0
0
-2.58966200956904e-18
0
0
2.58966200956903e-18
-2.58966200956906e-18
0
2.58966200956904e-18
0
0
0
0
2.58966200956904e-18
0
0
0
0
0
0
0
0
0
0
0
0
0
0
0
0
0
0
0
0
0
-2.39614777483475e-18
2.58044052836614e-18
-2.60554636317803e-18
2.28775716004889e-18
-1.94081012111001e-19
0
-3.12142129026618e-18
-1.07817319347015e-18
3.15774480651542e-18
5.08909760044696e-18
1.4786161347527e-17
3.75439046863593e-18
8.44835546818544e-18
2.1975571557919e-18
-1.97568315350997e-19
7.36867794349163e-18
-9.90850617391289e-18
-1.07924220653275e-17
-1.71526819143382e-17
7.63220418432693e-18
-3.83964953534168e-18
0
0
-5.74907634198667e-18
-3.49121338553579e-18
1.69174184835965e-17
1.78459886261582e-17
-1.82336547100879e-17
-1.64196087855727e-17
4.99859993126487e-18
0
0
0
6.8448664530587e-18
0
1.23709833321982e-17
4.05797294820055e-18
-5.07936806600352e-18
2.64900635888238e-18
-2.3134689599748e-18
0
1.92124050339957e-19
4.23470781220737e-18
0
0
0
0
0
-4.83169904128557e-18
0
0
0
-2.66591206121048e-16
-2.66557900442914e-16
1.927564068313e-19
-2.51222772405852e-18
2.6871792103146e-16
2.68980136658809e-16
2.31947131722717e-18
0
2.31947131722708e-18
0
0
0
-1.92756406831295e-19
2.31947131722714e-18
-2.31947131722715e-18
2.31947131722715e-18
0
0
-1.92756406831294e-19
0
2.319471317227e-18
0
0
-4.63894263445422e-18
-2.31947131722731e-18
0
6.76565754485031e-18
-1.92756406831293e-19
0
0
-1.92756406831292e-19
-1.92756406831296e-19
-1.927564068313e-19
-1.9275640683129e-19
-2.12671491039588e-18
0
-1.92756406831297e-19
4.63894263445432e-18
6.76565754485031e-18
0
0
-1.92756406831297e-19
-2.12671491039595e-18
0
0
0
-2.31947131722718e-18
0
-2.12671491039597e-18
0
0
0
4.63894263445461e-18
1.92756406831298e-19
-1.92756406831295e-19
1.92756406831291e-19
2.12671491039594e-18
0
0
0
-1.9275640683129e-19
0
0
0
2.31947131722721e-18
0
0
0
0
0
-2.72106712391377e-18
-2.40109984504086e-18
-4.62693791994984e-18
-5.30473688149928e-18
3.02458039416979e-18
-8.69181933429205e-18
-1.7179600646266e-18
1.18419212645201e-17
7.23032498147e-18
-1.16235600415815e-17
0
0
2.59323188068773e-18
-1.16691376796188e-17
-2.09085850859108e-17
7.46047980840096e-18
1.87739601531119e-17
-4.07198108155995e-18
-1.8523453808324e-18
-5.77544387435367e-18
-1.89191761002979e-18
-1.78725075203131e-18
0
-1.7723839768738e-18
-3.77863191254491e-18
1.75179497994515e-18
-1.12468332409458e-17
0
-9.09001080517674e-18
2.19793598975571e-18
1.89338629906502e-19
1.88538748630857e-18
6.11977567286062e-18
-4.40499927118666e-18
0
1.90714729727994e-19
9.67547844866001e-18
2.23199419292748e-18
-2.12980686549751e-18
-1.92124288374284e-19
4.27859758548144e-18
-2.05130845069237e-18
0
-1.92756751650533e-19
-1.92756751650535e-19
2.24477333660453e-18
2.24477333660444e-18
2.24477333660458e-18
0
0
1.92756751650541e-19
-1.92756751650534e-19
0
1.92756751650541e-19
4.29678992155854e-18
0
-6.54156325816327e-18
6.34880650651266e-18
2.24477333660445e-18
1.92756751650533e-19
1.92756751650538e-19
0
0
0
0
-4.29678992155843e-18
0
0
2.24477333660458e-18
0
-1.9275675165054e-19
0
0
1.92756751650541e-19
0
0
0
2.24477333660458e-18
0
0
-1.92756751650538e-19
-4.48954667320921e-18
-1.92756751650534e-19
0
-1.92756751650541e-19
0
-2.24477333660452e-18
4.48954667320883e-18
1.92756751650535e-19
-2.05201658495389e-18
2.24477333660459e-18
2.24477333660457e-18
2.24477333660445e-18
2.24477333660443e-18
2.24477333660456e-18
0
0
2.24477333660455e-18
-2.0520165849541e-18
0
0
0
2.24477333660457e-18
0
0
4.29678992155873e-18
2.24477333660442e-18
0
-2.24477333660456e-18
-1.92756751650533e-19
-4.48954667320904e-18
0
0
0
0
0
0
-1.92756751650533e-19
0
0
-8.64987077256924e-18
-4.45335271999539e-18
2.62015763176474e-18
2.3711030089221e-18
-5.47278523465105e-18
0
1.46833309039441e-18
-6.30964033142533e-18
6.7830376141514e-18
1.30508582371286e-17
-1.02413295560373e-17
8.90152827762677e-18
1.26955851294373e-17
1.60399557613996e-18
0
-1.17177916029279e-17
-3.93954193335123e-18
7.29835502703108e-18
0
1.98829018845233e-18
0
3.44891322646362e-18
1.90229690039751e-19
-1.21522414823025e-17
0
2.94400299435893e-15
1.61799581496728e-17
-2.34002793135858e-15
0
-2.12582975273385e-18
-3.35190130559734e-18
1.82474624535243e-18
-1.38794659615638e-17
0
0
1.29083524362122e-15
1.28390013942056e-15
0
1.91773672577535e-19
-2.39941199566092e-16
-2.38582537362108e-16
-3.56203911235012e-16
-3.63042799682833e-16
1.9275710926349e-19
3.64821398854527e-16
3.63183955226451e-16
-2.17271529336564e-18
-2.17271529336561e-18
0
-3.60283211158508e-16
-3.63853533308464e-16
-3.58303252974426e-16
-3.64388703715407e-16
1.97995818410219e-18
-2.1727152933656e-18
3.6245592645189e-16
3.64065773132288e-16
-2.17271529336561e-18
3.62455926451889e-16
3.66594928274773e-16
6.32538877083337e-18
0
3.60090454049239e-16
3.60102229392518e-16
0
1.92757109263486e-19
3.56323294790303e-16
3.62430012121754e-16
3.6264868356117e-16
1.98798573797807e-19
-3.6484143047699e-16
6.12930039029933e-16
6.13537043981299e-16
-4.15267347746763e-18
3.60283211158519e-16
3.69236873181908e-16
-1.9799581841022e-18
-3.60475968267805e-16
-3.62925501056253e-16
0
0
0
0
-2.1727152933656e-18
3.66608599929374e-16
3.64891442595153e-16
2.17271529336556e-18
-6.12930039029931e-16
-6.18151221952345e-16
1.97995818410206e-18
-3.6462864174525e-16
-3.65212954537569e-16
0
-1.92757109263488e-19
4.34543058673121e-18
0
3.64435884635989e-16
3.64715726908255e-16
1.9275710926348e-19
-4.34543058673118e-18
4.1526734774677e-18
0
1.92757109263482e-19
-6.15102754323283e-16
-6.08356195479523e-16
-1.92757109263486e-19
4.34543058673113e-18
1.92757109263478e-19
0
3.64435884635982e-16
-2.4934273991277e-16
-6.1578034993677e-16
2.1727152933656e-18
0
-3.64435884635997e-16
-7.26290664093738e-16
-3.65310842109836e-16
3.6443588463596e-16
3.58620159593043e-16
2.43322838632631e-16
2.43668464631091e-16
-3.87479088092372e-19
0
8.95491044248168e-18
0
-5.26874928208439e-18
-1.46329899742211e-15
-1.51780799207021e-15
-5.1011795469618e-18
5.50797269292439e-18
1.74038576550733e-18
-4.48749524594883e-18
0
8.32773773283436e-18
-1.0557710838471e-17
-3.0835402850897e-18
9.86022631671495e-18
-8.56558289025791e-18
5.56031382377643e-18
7.31544268466146e-18
-5.20774530466384e-18
0
0
0
1.28415807025506e-17
-2.87508201037661e-15
4.70349006496593e-17
2.2102364959334e-15
0
0
7.01803629977854e-18
-6.30647666283854e-18
0
0
0
-1.28149338472069e-15
-1.20825585735802e-15
-1.9142336463763e-19
1.98282349941698e-18
2.34451406075082e-16
2.27552601129193e-16
3.51298027415437e-16
3.48804990734569e-16
0
-3.55428676915337e-16
-3.52320836047992e-16
8.02730065992203e-18
-4.01365032996108e-18
1.92757480151011e-19
3.57339123340249e-16
3.52966752449609e-16
3.556214343955e-16
3.49026255161812e-16
0
0
-3.53518230490435e-16
-3.49350599251493e-16
4.39916529026302e-18
-3.55621434395485e-16
-3.51790835005899e-16
0
-6.30961171516787e-18
-3.56006949355797e-16
-3.52273546219794e-16
-2.10320390505603e-18
-1.92757480151011e-19
-3.4989009512077e-16
-3.47313673503219e-16
-3.4797964869589e-16
2.4977381840789e-19
3.55830185540886e-16
-5.9333920613415e-16
-5.87758387819616e-16
-6.1168542350169e-18
-3.49504580160485e-16
-3.47851129661187e-16
0
3.53710987970607e-16
3.50353369848807e-16
2.10320390505621e-18
-4.01365032996082e-18
-4.20640781011174e-18
2.10320390505596e-18
0
-3.47594133735573e-16
-3.50339848526562e-16
-1.92757480151013e-19
5.89711070764492e-16
5.97696134904484e-16
1.92757480151007e-19
3.53710987970589e-16
3.53906243344939e-16
1.9275748015102e-19
0
-1.92757480151022e-19
0
-3.49890095120773e-16
-3.52080788739633e-16
-2.10320390505598e-18
-8.22005814007282e-18
0
0
0
5.87415109379291e-16
5.94601089823959e-16
0
-6.11685423501699e-18
0
-2.10320390505598e-18
-3.43580483405597e-16
2.32787924401373e-16
6.00117729857614e-16
4.01365032996103e-18
0
3.4759413373557e-16
7.02403688648924e-16
3.56483034941413e-16
-3.47786891215729e-16
-3.56121196651118e-16
-2.30835843102329e-16
-2.32834074559426e-16
1.93740119687726e-19
-1.94082479884856e-19
-1.81766954266285e-18
1.94768205636806e-19
0
1.37291434834322e-15
1.50603126670703e-15
-7.6872707929106e-18
1.70717394722534e-18
5.60191315866852e-18
8.27198432546445e-18
0
-1.58679102643112e-17
0
-1.77968944026778e-17
7.84614699605782e-18
0
0
-1.92756531664618e-19
-6.64470976230612e-18
5.00838347432883e-18
-3.81570601948222e-15
-3.55606343650159e-15
-1.87007065630683e-19
9.80619601934847e-18
7.3633211629357e-18
-8.95253236915491e-18
0
1.11791745128924e-17
0
-1.89630231437719e-19
7.2612884165053e-18
2.82361332406334e-18
1.90399496378809e-19
4.56143063629991e-18
6.57678939364795e-18
-1.9142339494654e-19
-3.38468076582106e-16
-5.75940904596037e-16
1.00353134881955e-16
3.41529236051954e-16
4.07229837200269e-18
-1.92757864812544e-19
-3.31460342989449e-16
-5.64239053211272e-16
-2.26978650417073e-16
1.92757864812537e-19
0
0
0
-3.49402477756529e-18
2.24073943303913e-16
2.31033395804593e-16
-2.03614918600147e-18
-2.03614918600148e-18
-2.23688427574288e-16
-2.27429179694074e-16
0
0
-1.92757864812536e-19
1.92757864812543e-19
0
-2.25531818895485e-16
-2.25313499372256e-16
2.03614918600134e-18
4.0722983720029e-18
1.92757864812537e-19
2.03614918600143e-18
0
-2.27760725946282e-16
-2.26201331784054e-16
0
-5.91568969319183e-18
-2.27567968081482e-16
-4.61166404639611e-16
3.39530458460082e-16
5.69368652348959e-16
5.91568969319182e-18
-1.84339132118902e-18
1.92757864812541e-19
0
-5.66980149950125e-16
-3.41607926402692e-16
5.04080069110877e-19
-2.24381479952193e-16
-2.03614918600134e-18
-2.03614918600142e-18
1.92757864812535e-19
-2.22890705081388e-18
2.03614918600146e-18
-2.03614918600138e-18
0
3.41062815324986e-16
3.41414571931732e-16
2.29411359402674e-16
2.2593518006705e-16
2.03614918600147e-18
1.92757864812533e-19
-1.92757864812543e-19
2.23688427574298e-16
2.25429462304767e-16
2.27760725946288e-16
2.25585788372888e-16
-2.31254750723858e-16
-2.29190524773804e-16
0
-1.92757864812541e-19
-1.92757864812537e-19
-5.68630783406448e-16
-3.33685857896085e-16
2.31130779640876e-16
0
2.31640266453477e-16
2.27171408281897e-16
0
-5.72293182837926e-18
2.03614918600133e-18
-2.2157975712894e-16
-2.16613404951293e-16
2.21674395171689e-16
2.07145609245848e-16
1.1652461520795e-15
1.15675796207441e-15
-1.89117984234466e-18
7.54579416858097e-18
-5.2669924280052e-18
7.4626038501067e-18
-6.08075502756128e-18
1.84207675928292e-18
1.79558219383033e-15
1.92479338502286e-15
-4.6738083546317e-18
5.03373868732001e-18
0
8.95008657116144e-18
0
0
6.61526307828279e-18
1.61298527141681e-18
0
-1.54907850011797e-18
3.68006484252542e-15
3.39357386215589e-15
0
-1.86915935197396e-19
9.70184809067057e-18
-8.81615276573117e-18
0
-5.20643896847517e-18
0
-3.79261998690365e-19
5.45482874636323e-18
-5.07899517137528e-18
-2.1726253978966e-18
6.7901722437286e-18
-2.24444304897157e-18
0
3.34373076180546e-16
5.53678774009222e-16
-1.03351533913307e-16
-3.26159004011469e-16
0
5.72163472868935e-18
3.29033972202596e-16
5.44254278821093e-16
2.1502272520692e-16
0
0
1.97146433081853e-18
0
3.94292866163745e-18
-2.21198940290036e-16
-2.20939204184028e-16
-2.16422259458529e-18
0
2.21391698553813e-16
2.21404369492401e-16
1.92758263766772e-19
-1.97146433081863e-18
0
-2.16422259458546e-18
0
2.19612992486758e-16
2.23677817589426e-16
1.92758263766775e-19
0
3.75017039787029e-18
0
1.97146433081863e-18
2.2158445681757e-16
2.21198403544876e-16
0
0
2.19420234222991e-16
4.43412566919928e-16
-3.29201084692497e-16
-5.5094283565242e-16
1.77870606705187e-18
1.92758263766772e-19
-1.77870606705178e-18
1.97146433081857e-18
5.4686825862231e-16
3.2955113709863e-16
-7.11156901359002e-18
2.1985664577155e-16
1.92758263766773e-19
3.55741213410376e-18
-1.92758263766775e-19
1.92758263766765e-19
1.97146433081861e-18
-1.77870606705184e-18
0
-3.31198194797168e-16
-3.29603577153405e-16
-2.19805750750527e-16
-2.19542130664024e-16
1.97146433081857e-18
1.92758263766773e-19
0
-2.17641528155938e-16
-2.23218219922761e-16
-2.19612992486749e-16
-2.21211611228644e-16
2.21777215081354e-16
2.25336280213538e-16
3.75017039787054e-18
0
3.38313019065381e-16
8.83074049058973e-16
3.2764898647642e-16
-2.26568835228785e-16
0
0
-1.09502669215573e-17
-1.92758263766774e-19
1.9275826376677e-19
0
2.1223657384735e-16
2.12353094727586e-16
-2.09394376671205e-16
-2.13879505473308e-16
-1.09919595741217e-15
-1.15728579191964e-15
-8.60450909390253e-18
1.95071225388986e-19
7.61849275707126e-18
-5.8460066351392e-18
1.2699325780193e-18
-1.78303436714582e-18
-1.70615665264189e-15
-1.90964565003688e-15
-4.31413735493307e-18
-7.07827135591035e-18
-1.02048273961227e-17
7.34849365799158e-18
8.99825604282499e-18
0
3.29163053790273e-18
3.30552741795335e-18
-9.63851510423118e-20
-1.49470164650698e-18
9.09344742919528e-18
6.28761941444121e-18
-1.13327497094289e-17
0
0
0
2.04067412481128e-18
-1.8620152553817e-18
5.93057012559392e-18
7.06621000281334e-18
-5.8292737139083e-18
1.90117926221135e-19
-5.31938367868788e-18
1.93106662741203e-18
0
-3.73165496934364e-18
-5.53555583003867e-18
5.3766285276378e-18
3.61080086608956e-18
-1.90848260847208e-18
0
1.92758677552482e-19
0
3.62537252653158e-18
-7.25074505306354e-18
0
1.90906560204213e-18
5.34167945102142e-18
-5.53443812857368e-18
7.25074505306363e-18
-1.92758677552487e-19
-1.90906560204206e-18
-1.71630692448959e-18
-1.92758677552477e-19
9.15981065510566e-18
0
1.90906560204207e-18
0
0
-1.71630692448975e-18
0
3.81813120408408e-18
-1.92758677552486e-19
1.90906560204215e-18
0
3.62537252653181e-18
1.71630692448966e-18
1.9275867755248e-19
2.12125108620428e-16
2.06861410521766e-16
3.81813120408408e-18
3.62537252653183e-18
0
-7.25074505306344e-18
0
-3.62537252653182e-18
5.53443812857364e-18
5.53443812857413e-18
0
0
3.62537252653161e-18
0
-1.92758677552475e-19
-1.92758677552483e-19
1.92758677552484e-19
3.8181312040841e-18
5.34167945102139e-18
-1.5235482469371e-18
1.90906560204217e-18
3.62537252653182e-18
0
-7.44350373061611e-18
0
1.9275867755248e-19
0
0
0
-1.9275867755248e-19
-7.25074505306328e-18
-1.92758677552481e-19
0
3.81813120408427e-18
0
0
0
1.90906560204212e-18
-3.21042000746972e-16
-3.20973815820691e-16
-1.90906560204215e-18
-1.92758677552482e-19
1.90906560204212e-18
-2.08306977416353e-16
-2.03552754211894e-16
0
0
0
0
0
-1.93395599735472e-19
1.9374197803918e-19
1.9408372914912e-19
-1.94428698893449e-19
2.51131518173136e-18
-4.36271378643039e-18
0
0
6.04460457093405e-18
1.33387763273649e-18
-4.82266353169646e-18
-9.45784095534048e-18
0
-2.37691147054188e-17
-1.08048876191469e-17
1.13327497094089e-17
-5.91145125441281e-18
-7.41934831989475e-18
0
1.92757728346989e-19
0
-1.6342880950038e-18
8.77941043776555e-18
-6.07639045058455e-18
-1.38406904410325e-17
0
4.12987967201463e-18
0
-3.75903745860593e-18
0
0
-8.55478845523138e-18
0
0
0
-4.283719274656e-18
-4.01278531744376e-18
1.99159560435871e-18
0
0
0
-5.35219412345663e-18
-1.84887222172323e-18
0
1.92759106729344e-19
0
-7.00997067343466e-18
0
1.65611311499389e-18
-7.00997067343458e-18
7.00997067343428e-18
0
1.84887222172335e-18
-3.50498533671722e-18
-7.00997067343423e-18
-1.84887222172322e-18
0
-5.3538575584405e-18
0
-1.92759106729346e-19
0
0
1.92759106729349e-19
-3.50498533671708e-18
0
0
0
0
-1.84887222172325e-18
3.50498533671723e-18
-1.9585026321272e-16
-1.96086110036545e-16
1.92759106729346e-19
-3.50498533671713e-18
1.92759106729342e-19
-1.92759106729346e-19
0
7.00997067343483e-18
0
0
0
0
0
1.84887222172337e-18
0
-3.5049853367171e-18
1.84887222172331e-18
5.35385755844047e-18
0
0
0
0
-3.50498533671714e-18
0
1.92759106729346e-19
1.92759106729343e-19
1.65611311499401e-18
0
0
0
0
0
0
-3.50498533671731e-18
5.16109845171102e-18
0
1.92759106729342e-19
0
0
1.92759106729345e-19
5.35385755844062e-18
0
7.00997067343434e-18
0
5.35385755844046e-18
-3.504985336717e-18
-1.8488722217233e-18
0
5.15947073202558e-18
1.93038624257082e-19
1.93396305579068e-19
0
-1.94084176709569e-19
-3.88857474294386e-19
4.09300415011847e-18
-1.11837306565225e-17
-7.27939225153038e-18
-4.87582755645909e-18
0
-1.03252778715678e-17
4.83843876791274e-18
0
3.8093631300466e-18
4.90067798562522e-18
-5.61014169261446e-18
-5.26306696295851e-18
2.17705702448138e-17
7.35292158445457e-18
1.82919589667162e-18
3.09098823490365e-18
-1.49469240539351e-18
0
8.47647108216706e-18
-1.88086677415914e-19
8.2697613091839e-18
4.45830583300309e-18
6.3232937803166e-18
1.13962171624359e-17
7.07140917603646e-18
-1.74368952044418e-18
0
-5.25489289412334e-18
1.89868784485989e-19
6.83091320414156e-18
-4.4292825622172e-18
1.78316761940923e-18
2.03442186492605e-18
1.9282605095525e-18
-8.6759400418562e-18
-1.41711453296967e-18
4.96709488946557e-18
0
0
-4.98689969682433e-18
1.7908062668605e-18
0
5.17965924870298e-18
1.92759551878771e-19
5.17965924870304e-18
0
-5.17965924870296e-18
-6.77770596368469e-18
1.92759551878766e-19
0
-1.92759551878771e-19
-5.17965924870304e-18
0
0
-1.92759551878769e-19
1.92759551878768e-19
-1.59804671498179e-18
1.92759551878769e-19
4.98689969682407e-18
-3.38885298184212e-18
5.17965924870304e-18
0
-1.92759551878774e-19
-1.59804671498187e-18
-3.3888529818424e-18
1.79080626686057e-18
-6.77770596368469e-18
-6.97046551556348e-18
3.3888529818424e-18
2.05345866377211e-16
2.09855100926067e-16
0
-6.77770596368471e-18
0
1.92759551878776e-19
-1.59804671498193e-18
0
0
5.17965924870282e-18
-3.3888529818423e-18
0
-1.98356581873936e-18
0
0
1.9275955187877e-19
2.0713667264407e-16
2.02488595666021e-16
-1.40528716310288e-18
-1.79080626686056e-18
-5.17965924870304e-18
-3.3888529818423e-18
6.77770596368462e-18
-1.92759551878766e-19
3.38885298184229e-18
0
5.17965924870296e-18
-5.17965924870284e-18
0
3.58161253372107e-18
0
0
-1.79080626686054e-18
1.92759551878765e-19
-4.98689969682407e-18
0
-1.92759551878773e-19
3.38885298184248e-18
1.92759551878769e-19
1.59804671498181e-18
1.79080626686057e-18
0
0
4.98689969682416e-18
3.3888529818426e-18
-8.56593402028342e-18
3.37611320317039e-18
-8.43299785070099e-18
-1.85222153456333e-18
1.94084640812637e-19
0
1.97388281837497e-18
-6.94352699033547e-18
-4.74928172294367e-18
1.26156873208408e-17
1.9581337365461e-19
3.04018182534557e-18
0
-8.80056361304843e-18
7.92025444876867e-18
1.77577774116124e-17
2.21416795322358e-17
0
-1.09929094829779e-17
1.12435933544667e-17
0
-1.78382358434293e-18
0
5.37132997309737e-18
2.474440081493e-18
-1.07878729989181e-17
0
9.31216065207111e-18
0
-7.44199967999477e-18
6.63387228208334e-18
0
2.93118921578865e-18
-1.89634353979099e-19
-5.09436388894209e-18
6.77684251289464e-18
6.5125520097005e-18
-3.99837507793081e-18
1.96930335151538e-18
-3.73432733783997e-18
6.97661238887245e-18
1.7450375090515e-18
6.52826995702963e-18
-1.9274819028447e-19
-3.27682512344683e-18
1.73479256852583e-18
-3.27682512344668e-18
-1.92760013604803e-19
-3.27682512344678e-18
0
-1.92760013604802e-19
-3.27682512344677e-18
3.27682512344682e-18
-6.55365024689378e-18
5.01161769197241e-18
-1.92760013604806e-19
-3.27682512344685e-18
0
6.55365024689369e-18
-8.09568280181474e-18
0
-1.92760013604806e-19
-1.73479256852575e-18
1.92760013604806e-19
0
-1.92760013604805e-19
0
0
-3.46958513705164e-18
0
0
1.98536869773268e-16
1.9556063590669e-16
0
5.01161769197266e-18
-1.93525252081296e-16
-1.97318648922182e-16
1.54203255492095e-18
-1.92760013604805e-19
0
1.542032554921e-18
-5.01161769197286e-18
0
0
0
-1.92760013604804e-19
0
1.73479256852581e-18
0
0
-1.73479256852579e-18
-1.96416557177535e-16
-1.89997584997159e-16
0
-1.92760013604806e-19
0
0
0
1.54203255492103e-18
3.46958513705152e-18
0
-4.81885767836787e-18
0
0
1.73479256852584e-18
-1.73479256852582e-18
0
0
0
0
3.2768251234467e-18
-4.81885767836777e-18
0
0
0
0
-3.27682512344694e-18
0
1.73479256852573e-18
0
8.09320691848725e-18
0
-5.04552849864427e-18
0
1.94085122075162e-19
-3.55647390236551e-18
5.9062548343059e-18
6.13175071343843e-18
-4.19581100033485e-18
-7.26751798693933e-18
0
-2.93793401926366e-18
-4.29955404550159e-18
-8.48925877132627e-18
1.66298876693321e-18
-8.76042420218231e-18
-1.98459985148534e-19
-5.07314939880785e-18
2.45257844212227e-18
-5.71988121626046e-18
0
-5.97545099471869e-18
5.40082514091502e-18
5.56706365924514e-18
-2.38047126957623e-18
-1.5330835443878e-17
-2.81867413365634e-18
-6.54240612822925e-18
-6.41881924562953e-18
1.87894926711054e-19
-1.78691269913033e-18
-1.03012230313878e-17
1.89348230125865e-19
9.7689353730518e-18
2.08294702481579e-18
-2.30717473748903e-18
-6.10358696821596e-18
4.05393598353631e-18
5.52839166554345e-18
-1.61680238787735e-18
-5.01621382006259e-18
-1.49857216456011e-18
1.48208274991575e-18
-1.48752018669769e-18
-1.92760492535055e-19
0
1.92760492535066e-19
1.68075861455557e-18
-6.33751347315211e-18
-3.16875673657592e-18
-1.68075861455549e-18
-4.65675485859658e-18
0
0
0
0
1.68075861455555e-18
0
0
0
-1.48799812202035e-18
-1.68075861455546e-18
6.33751347315123e-18
0
-1.68075861455554e-18
0
-6.33751347315156e-18
-1.92760492535056e-19
3.36151722911078e-18
1.48799812202034e-18
0
-1.89909060921515e-16
-1.85330059311079e-16
1.9276049253506e-19
1.68075861455555e-18
0
-6.3375134731521e-18
0
0
0
-3.16875673657607e-18
1.48799812202041e-18
-1.92760492535064e-19
0
1.9276049253506e-19
0
6.33751347315212e-18
-4.65675485859653e-18
-1.6807586145555e-18
4.65675485859631e-18
1.68075861455555e-18
0
1.68075861455541e-18
0
0
-1.92760492535066e-19
0
1.68075861455556e-18
0
0
-9.31350971719266e-18
-1.92760492535061e-19
-1.92760492535063e-19
0
0
-3.16875673657587e-18
6.33751347315118e-18
-4.65675485859652e-18
0
1.68075861455554e-18
-6.3375134731515e-18
0
1.92760492535062e-19
-1.92760492535056e-19
1.92760492535066e-19
1.68075861455555e-18
-1.48799812202052e-18
-1.4879981220205e-18
0
3.16875673657569e-18
1.68029276846798e-18
-1.289042224086e-18
0
0
0
-1.71541962285487e-18
-7.34501054301129e-18
2.36119303499605e-18
-2.3123910119078e-18
0
0
0
0
0
1.99030434790115e-18
0
0
1.93585475478529e-17
0
2.5707004320812e-18
2.97844265798246e-18
-5.78632983567629e-18
0
3.07699897165765e-14
2.97650597894789e-14
-7.76723279720576e-18
-4.52479085133793e-18
1.74765272092324e-17
1.87317766221759e-19
-5.18249074871314e-18
-3.45796603603347e-18
0
5.47484164283239e-18
0
0
1.90120236399422e-19
-1.90078211678316e-18
0
-3.30964431553909e-18
-1.55994753336451e-18
1.49010344084214e-18
1.63828121599391e-18
-2.86047952491074e-18
1.92749168198092e-19
4.50038138840256e-18
0
0
0
0
-4.69314237772405e-18
-3.25726891136394e-18
0
0
0
0
-1.43587346636021e-18
0
1.92760989321705e-19
0
0
1.62863445568192e-18
0
-7.56488931044448e-18
0
0
1.8213954450036e-18
0
-1.62863445568199e-18
1.82139544500367e-18
0
0
0
8.83325739516599e-16
8.83689097591064e-16
1.92760989321693e-19
0
0
0
0
0
0
0
-3.06450792204215e-18
4.30762039908041e-18
4.50038138840208e-18
0
0
0
3.25726891136365e-18
0
0
0
-9.38628475544767e-18
0
-1.92760989321696e-19
1.62863445568197e-18
0
1.92760989321695e-19
0
0
0
0
-6.12901584408392e-18
0
0
-1.92760989321698e-19
0
6.12901584408419e-18
-4.30762039908066e-18
6.12901584408415e-18
1.62863445568176e-18
0
1.24311247703852e-18
-1.8213954450037e-18
0
-9.19352376612597e-18
0
0
-4.50038138840235e-18
9.3862847554489e-18
1.62818991766997e-18
0
1.63955340339314e-18
0
-3.11989506672789e-18
1.9442890470978e-19
-3.73689103326612e-18
7.60312846711546e-18