/*--------------------------------*- C++ -*----------------------------------*\
  =========                 |
  \\      /  F ield         | OpenFOAM: The Open Source CFD Toolbox
   \\    /   O peration     | Website:  https://openfoam.org
    \\  /    A nd           | Version:  7
     \\/     M anipulation  |
\*---------------------------------------------------------------------------*/
FoamFile
{
    version     2.0;
    format      ascii;
    class       volScalarField;
    location    "20000";
    object      Dk;
}
// * * * * * * * * * * * * * * * * * * * * * * * * * * * * * * * * * * * * * //

dimensions      [0 2 -3 0 0 0 0];

internalField   nonuniform List<scalar> 
15600
(
0.00167681627180607
0.00118064059561854
0.00046095321238995
8.75540716421422e-05
5.61016785393975e-05
4.08933502628998e-05
1.59359832747131e-05
1.00441291604241e-05
8.73960193239757e-06
9.39978101884838e-06
1.15957803043004e-05
1.55250939988463e-05
2.17054424482589e-05
2.99882413546857e-05
4.01319241296444e-05
5.12609328602658e-05
6.20945622237798e-05
7.21949916980145e-05
8.11574496399814e-05
8.72565625323116e-05
9.17381311069625e-05
0.000112809614557856
0.000168226201535282
0.000230959700564089
0.000295687731581732
0.000360205934492275
0.000424711716880674
0.000488162356654119
0.00055081644721615
0.000612079866104086
0.000671884218645911
0.000729765645544029
0.000785512831112353
0.000838827913573128
0.00088967116355942
0.000938060199292427
0.000983772868409317
0.00102538535224108
0.00106252110296832
0.00109504323900891
0.00112290563178896
0.00114613037600212
0.00116480118390222
0.00117905785408479
0.00118908916339149
0.00119512994656269
0.00119744701270916
0.00119633567814052
0.00119209431890894
0.00118502454639674
0.00117540926267852
0.00116353150267141
0.00114970708764998
0.00113424777508209
0.00111745844882935
0.00109959286005614
0.00108086471352528
0.00106141757469031
0.00104138115509047
0.00102092869331106
0.00100021966954644
0.00097941488196501
0.000958592398663326
0.000937816732334596
0.000917162374845099
0.000896723587214474
0.000876564800166156
0.000856712383266312
0.000837192337292042
0.000818025316890895
0.000799186655952016
0.00078074552797309
0.000762623572099077
0.000744830531087747
0.000727344056144001
0.000710148003174426
0.00069320834085833
0.000676497908094022
0.000659971453970639
0.000643599262256827
0.00062732306242328
0.000611105397385768
0.000594854080773549
0.000578534872216397
0.000561997904482557
0.000545238189815534
0.000527992029550807
0.000510338553056736
0.000491768005384613
0.000472577635547186
0.000451720191129114
0.000430311416965866
0.000407518523243026
0.000383928608246244
0.000356299856930232
0.000327470450782701
0.000290848162652591
0.000253571822822712
0.000202467932738218
0.000229990377739319
0.000321652375773997
0.000432089637873209
0.000558810081233448
0.000708204695505328
0.000871464370328224
0.0010054622137177
0.00110719641734787
0.00116882341392547
0.00119230293447185
0.0012276612385587
0.00130850214835281
0.00143986317812723
0.0017156447429143
0.00208137622835529
0.00259334081888259
0.00320979861947762
0.00324360683684669
0.00248332717016708
0.00175537021855512
0.00152193676807181
0.00914841702463606
0.00645413572661395
0.00252870595013349
0.000485797647150347
0.000307649065568596
0.000225115930068508
8.83273369292642e-05
5.52885738209884e-05
4.78832373701885e-05
5.13358484253981e-05
6.31896143156758e-05
8.44901276258842e-05
0.000118097070085413
0.000163284423821534
0.000218792602556636
0.000279909732948
0.000339585627051054
0.000395260178221375
0.000444298145782406
0.000477645199859702
0.000504166600839428
0.000622339907423413
0.000926729738695935
0.0012713190654782
0.00162669973497041
0.0019809864790684
0.00233511077788302
0.0026834408371963
0.00302725201261863
0.00336328285466162
0.00369106008596653
0.00400802189814991
0.0043129589361368
0.00460422818457144
0.00488159441731948
0.00514516100119921
0.00539291106868291
0.00561687907754505
0.00581608392490716
0.0059898797190452
0.00613810992056553
0.00626098758076613
0.00635905560441062
0.00643315419965407
0.00648438100887986
0.0065140708386155
0.00652372171462467
0.00651497018121855
0.00648946158487355
0.00644884508139722
0.00639466553453652
0.00632846780243977
0.00625195829888031
0.00616681702839682
0.00607467470734861
0.00597688928398744
0.00587459650506214
0.00576856273867303
0.00565948358259523
0.00554827838297346
0.00543579617306922
0.00532288503288164
0.00520995795717933
0.00509735419631796
0.00498546697472947
0.00487479459055983
0.0047656751611783
0.00465824709180282
0.00455264419302114
0.00444897446816645
0.00434709535207975
0.00424737942561748
0.00414939800719265
0.00405320046238009
0.00395866320625868
0.00386569842512675
0.00377411573471229
0.00368376585397914
0.00359440682091203
0.00350587149923016
0.00341784983384909
0.00333012899412373
0.00324222299344795
0.00315392496197924
0.00306445412056812
0.00297373547197367
0.00288041193248942
0.00278480391689192
0.00268431332140743
0.00258030451182347
0.00246747055321248
0.00235108518836647
0.00222710511943
0.00209860828823077
0.00194836958746401
0.00179120635747844
0.00159209537240863
0.00138875876717113
0.00111136492811346
0.00125981552442389
0.00175783126625108
0.00235806329337856
0.00304762231800335
0.00385968264139274
0.00474567295613691
0.00547892764821174
0.00604016368996805
0.00638661509727543
0.00652849221395459
0.00673154208517639
0.00718035815750047
0.00790862973849778
0.00941836016300294
0.01142442230112
0.014220412271678
0.0175707985649207
0.0177591222936202
0.0136029523598602
0.00960887301313569
0.00832127650713536
0.0220498062921797
0.0156554570314109
0.00615640797743092
0.00119371269472386
0.000743902838626545
0.000546910269322618
0.000216256503613
0.000134559798444218
0.000116025726513147
0.000123995711990147
0.000152303288603311
0.000203437755411826
0.000284339937133306
0.000393452879333956
0.000527678582739763
0.000675604428229091
0.000820161758772459
0.000955010839262763
0.00107124024102558
0.00115191726401668
0.00123301814425182
0.0015425510823939
0.00228864761429879
0.00312636250933224
0.00398435094212691
0.00483470725865087
0.00567898300639644
0.00650452204314639
0.00731369217743118
0.00809917735071548
0.00885964822438998
0.0095895372030816
0.010286230169595
0.010946409669253
0.0115700002711994
0.0121576453217969
0.0126930672581631
0.0131717605202751
0.0135923699624133
0.0139545162281235
0.0142587909975408
0.0145065012141659
0.0146995655251591
0.0148404351361239
0.0149320076084548
0.0149775717325622
0.0149806682034419
0.0149450215971465
0.0148743090987886
0.0147721341735608
0.0146418546694614
0.0144868146773277
0.0143106246582875
0.0141168180511144
0.0139087726369467
0.0136893061767249
0.0134607425158263
0.0132246678574238
0.0129825339139765
0.012736223696984
0.0124874942253234
0.012238074241607
0.0119888150769975
0.011740406511597
0.011493655960749
0.011249598103416
0.0110089276174718
0.0107719372086736
0.0105388941135712
0.0103100257475264
0.0100849615857203
0.00986454030609034
0.00964777951052759
0.0094348938128561
0.00922540525557286
0.0090191379138724
0.00881571161223501
0.00861477182738329
0.00841578769976079
0.00821835009140683
0.00802178664735348
0.00782556298551652
0.00762864362383705
0.00743044254549953
0.00722933835511679
0.00702489942404946
0.00681438937530731
0.00659795659947234
0.00637048891363032
0.00613379583941675
0.00587759133937854
0.00560961418089541
0.00532236277986876
0.00502247943319179
0.00467306847148675
0.00430352001384444
0.00383822838034645
0.00335599350709277
0.00270491189271949
0.00303111619861525
0.0041526939974963
0.00552138212116852
0.00710433868770369
0.0089746266762588
0.0110334747893698
0.012811450231467
0.0142328810611938
0.0151873306329937
0.0156744310260898
0.0162603460311125
0.0173904905890469
0.0191921735626638
0.0228068620982718
0.0276626440608801
0.0343966740633905
0.0425055196301037
0.0433840733891432
0.0335507784166938
0.0236263096625349
0.0202423607139192
0.0385114223720934
0.027614423540844
0.0109013462965063
0.00212179413877529
0.00128808330772751
0.000951535673653848
0.000379634304639859
0.000234969213793099
0.000201792752489407
0.000215050836232315
0.000263712492252542
0.000352135659239275
0.000492179090340988
0.000681136453840881
0.000912610358599634
0.00116596227381709
0.00141206328339296
0.00164091908762967
0.00183672223070214
0.00198800685854299
0.00218794799867494
0.00278158244446078
0.00403082180166938
0.00537346713150098
0.00669836210217071
0.00797057042554666
0.00919736941518306
0.0103675233592574
0.011487041706051
0.0125507161801563
0.0135594125046769
0.0145097003070966
0.0154009660290027
0.0162321102031182
0.0170060974847233
0.0177121203882755
0.0183402423953573
0.0188940955369568
0.0193744485117162
0.0197828925894724
0.0201217401242947
0.0203937984916777
0.0206022730974622
0.0207507086737986
0.0208429289574104
0.0208829911482404
0.0208750829197816
0.0208234474991563
0.0207322058225138
0.0206053160157364
0.020446471256113
0.02025935830152
0.0200478855495323
0.0198158893250996
0.0195669999696229
0.0193042851625022
0.0190302552420837
0.0187466826296964
0.0184552080055504
0.0181579096444945
0.0178567782595055
0.0175537587820795
0.0172498736267063
0.0169459452825792
0.0166429337062088
0.0163420829618474
0.0160442471754056
0.0157498543310244
0.0154592639722902
0.0151728186579935
0.0148899691110473
0.0146122552807299
0.0143381331854666
0.0140674833356073
0.0138000793914229
0.0135357054980534
0.0132739215918797
0.0130142606954839
0.012756076930294
0.0124987895421063
0.0122415722042513
0.0119836224689393
0.0117236782942849
0.011460722123801
0.0111928361429578
0.010918901383198
0.0106358277235092
0.0103426172953243
0.0100337532194807
0.00970902070741905
0.00935765631636442
0.00898186533531802
0.00857342416131605
0.00813880018700837
0.00763464175805579
0.00708560015485582
0.00639892404387563
0.00565706269638096
0.00466164159132128
0.00508327707035267
0.00662882572536611
0.0085827307624046
0.0108845696507188
0.0136455755025869
0.0167688002375986
0.0197087646565138
0.0222917683247462
0.0243157872314632
0.0257056592587398
0.0271691208398097
0.0293815974968147
0.0326888619141399
0.0388215680163969
0.0471518003668567
0.0586054736744286
0.0725375681438138
0.0755833315248271
0.0604282427758947
0.0431356461498555
0.0362163169426028
0.0586095826358698
0.0424301240635692
0.0168707257438121
0.00326721267864683
0.0019024138530426
0.00141151958752494
0.000569223757261463
0.000350743210395911
0.000300174428255471
0.000319213458958129
0.000391091770979793
0.000522330751875312
0.000729267438890762
0.00100600350961968
0.00133820435574671
0.00169154677131487
0.00202495933566055
0.00233004520944752
0.00260148268299802
0.00285819074452046
0.00324504949639787
0.00411425976810576
0.00560006825318474
0.0070809944381182
0.00846330606457921
0.00973995960621869
0.0109338605302181
0.0120490927997462
0.0130957842821199
0.0140767691165566
0.0149953794100686
0.0158528546990508
0.0166505429669175
0.0173897823634791
0.018070747580553
0.0186791304118849
0.0192208453072054
0.019697693434062
0.0201110450695159
0.0204628078529645
0.0207552840264151
0.0209910711854708
0.021173000091687
0.0213041074805168
0.0213876062933149
0.0214268484342885
0.0214252677813377
0.0213863062427416
0.0213133199380368
0.0212095245679585
0.0210779727627859
0.0209217294747773
0.0207439795847473
0.0205478640672145
0.0203363272860142
0.0201119081227296
0.0198766892174338
0.0196322360519236
0.0193799949828628
0.0191217004311096
0.018859049040308
0.0185936810614667
0.0183265546522522
0.0180584353800393
0.0177901828716812
0.01752290050544
0.0172573678512434
0.0169940542930865
0.0167333214722385
0.016475596658967
0.0162213000363676
0.0159700118633609
0.0157212775499806
0.0154749856115828
0.0152310013056831
0.0149891491798651
0.0147490952309449
0.0145104268007138
0.0142726222543273
0.0140351300093704
0.0137972795023331
0.013558272496767
0.0133171072214209
0.0130726531460179
0.0128234701473341
0.012568027404067
0.0123042106916071
0.0120299005815194
0.0117417210092202
0.0114366285339508
0.0111086906426107
0.0107525096968773
0.010361946390032
0.00993697101701904
0.00945250949421501
0.00890245524439038
0.00822841853315838
0.00744874796712526
0.00642053605497805
0.00672675343196647
0.00813231975086716
0.0100663850338533
0.0124443387356985
0.0153785429218554
0.0188228870020123
0.0224066585787733
0.0259369090860399
0.0291988114420352
0.0320626858323663
0.0350962117857085
0.038983009592456
0.0443293512104776
0.0530637510535542
0.0649055230492154
0.0808171772728084
0.10015279182036
0.10710584008558
0.091105713592018
0.0688388529055425
0.0574516076392561
0.082709782411251
0.0604247053757714
0.0245226973034994
0.00469222576165862
0.00256206220443001
0.00190731485611309
0.000779608880757878
0.00047879016417552
0.000408613924962215
0.00043393798244488
0.00053141213750658
0.000709290217442292
0.000984992010897367
0.00134286247427427
0.00175075056533057
0.002156345782284
0.00251554579383343
0.00283764657814
0.00315043149249735
0.00351928239286777
0.00409726360456645
0.00508344584472931
0.00640139390394984
0.00769103378558739
0.00887062700697221
0.00995906024745214
0.0109731015934713
0.0119238922139018
0.0128156195015882
0.0136535825784956
0.0144385981049502
0.0151727904359375
0.01585651310618
0.016491560343091
0.0170682992535947
0.0175869132810352
0.0180501214600352
0.0184589929870394
0.0188145961961417
0.0191184649512828
0.0193724326077053
0.0195785907562797
0.0197392307672757
0.0198568209860388
0.0199339826648563
0.0199734515137378
0.0199780390369073
0.0199505625858983
0.019893794436844
0.0198104044303426
0.0197029709809364
0.0195740824076306
0.0194263797979941
0.0192624720962235
0.0190847893628569
0.0188954643656546
0.0186962647186607
0.0184885972409652
0.0182737461177507
0.0180531702387832
0.0178283104617771
0.0176005512986641
0.0173707796132341
0.0171397021635292
0.0169080756749909
0.0166768531494119
0.0164467232158638
0.0162181525655815
0.0159917477742753
0.0157681513594738
0.0155468774099938
0.0153278392142972
0.0151108560372395
0.0148958673539661
0.0146828040336138
0.0144715496122114
0.0142618876772921
0.0140535069742581
0.0138460427956985
0.0136390563444483
0.0134320822243551
0.0132244677964203
0.0130155419900887
0.0128043172690174
0.0125899093049429
0.0123708383977743
0.0121460152910267
0.0119130621918535
0.0116706952075917
0.0114147124519587
0.0111437787972501
0.010849352618169
0.0105299310106581
0.0101783493113862
0.0097927885378112
0.00934172475653764
0.00881917241386689
0.00817394305765104
0.00739942538554979
0.00748755244745289
0.00846598581020868
0.0100354499451818
0.0120835146253585
0.0146748487881107
0.0177812755435955
0.0212213938332611
0.024874521685382
0.0286291620173089
0.0324520698788551
0.0367738040938229
0.0421563078278491
0.0493904012721419
0.0600816128496377
0.0745174604687959
0.0933107878984188
0.115736964265504
0.126895032631441
0.117273112743834
0.0981327416282223
0.0847813658848065
0.108829081545268
0.0807222694204757
0.0343509967901579
0.00652105020149428
0.00324020015792033
0.00241496860929297
0.00100481017624882
0.000616027541491955
0.00052463729263536
0.000556674128598759
0.000680918320185745
0.000904916195710353
0.00123891311564831
0.00164682774755353
0.00207174343339748
0.00245474844279237
0.00277433247704498
0.00307198980904912
0.00340724388705166
0.00386888045699501
0.00456910616988217
0.00553196768066131
0.00656036343252431
0.00765147959849211
0.00864709130540101
0.0095864462465143
0.0104642694904653
0.0112956787287243
0.0120772014860145
0.0128150949340703
0.0135075656569167
0.0141568639125303
0.014762321623367
0.0153229761845392
0.0158314803605616
0.0162904919155919
0.0167012793196696
0.0170645769951347
0.0173812342332599
0.0176525238597189
0.017879976746859
0.0180653639736419
0.0182106386840659
0.0183179138684032
0.0183894400460612
0.0184275679010717
0.0184347182294033
0.0184133198024381
0.0183657788212338
0.018294425795194
0.018201536041837
0.0180893836100431
0.0179602586511967
0.0178164236822051
0.0176599806266763
0.0174927979671236
0.0173164433075922
0.0171322131067861
0.0169412733672238
0.0167449004679022
0.0165443598257895
0.0163408695887578
0.0161352601547845
0.0159281924466931
0.0157203474895625
0.0155125711108117
0.0153054830044272
0.0150996504398342
0.0148960619658718
0.0146944959483926
0.0144947316277599
0.0142967904319124
0.0141006007723809
0.013906141072052
0.0137133847843686
0.0135222606672462
0.0133326315439549
0.0131442662977593
0.0129569084147811
0.0127702162606679
0.0125838645288264
0.0123973352923099
0.0122101760058077
0.0120215688599637
0.0118309767447834
0.0116371047226828
0.0114394624979391
0.0112358173411772
0.0110260422575929
0.0108058582678577
0.0105763955144235
0.0103284252858385
0.0100647718169353
0.00977362720745548
0.00946786654581068
0.00910489746000951
0.00871572720003509
0.00820717612427957
0.00770782075521675
0.00765085010786266
0.00827661567809976
0.00949218515348437
0.0111757486652929
0.0133439657320469
0.0159582829177402
0.0189334947169305
0.022204433829747
0.0257410000029064
0.0296106933325877
0.0341986967902277
0.039968886432042
0.0478185594227843
0.0588985380846056
0.0739448822014892
0.0931357727349589
0.115513992952046
0.128833859128618
0.130006776105318
0.123499857038398
0.114667330509049
0.132065545972245
0.100776709326405
0.0464655388122585
0.0089180489820946
0.003904391992147
0.00290037484043588
0.00123619108413914
0.000758116204539643
0.000644658910008839
0.000683248717572338
0.000832475492185854
0.00109389814370883
0.00145955273695679
0.00186819427795755
0.0022500626132465
0.00256724237129224
0.0028353234356256
0.00311553721823374
0.00347638153264267
0.00400158379506149
0.00475262833966903
0.00564084880802027
0.00644876102984678
0.00741911328446189
0.0082911700780589
0.00913486326479203
0.00992228115143935
0.0106742159662922
0.0113813616365869
0.012051109366124
0.0126800138040262
0.013270487373127
0.013821490250509
0.0143289224723224
0.0147902958233077
0.0152074481803241
0.0155810695957934
0.015911748639096
0.0162002191180906
0.0164476005790637
0.0166552446423832
0.0168247263106392
0.0169577873560694
0.017056314450439
0.0171223182186808
0.0171578982608716
0.0171652180760539
0.0171464510914227
0.0171037604868428
0.0170392519106122
0.0169549937151551
0.0168530408431865
0.0167354434497485
0.016604225923635
0.0164612683089443
0.0163082574193415
0.0161466251851237
0.0159775857998837
0.0158022150773326
0.0156216615524371
0.015437064906158
0.0152495292870466
0.0150598389394303
0.0148686170004221
0.0146764861406635
0.0144842128226668
0.0142923609417817
0.0141019469992506
0.0139133485001964
0.0137263109787176
0.0135407644560846
0.0133567768501218
0.0131743328644566
0.0129934361228157
0.0128140862226281
0.0126362424097457
0.0124598172898318
0.0122846356558998
0.0121105099530881
0.0119371690583915
0.0117643753935204
0.0115917119413556
0.0114188584459317
0.0112451367484028
0.0110702071983749
0.0108929601236598
0.0107132181652246
0.0105289923137288
0.010340710397581
0.0101443973247324
0.00994228786745818
0.0097255531273913
0.00949940901378841
0.00925001830341239
0.00899766892856925
0.00869662369438607
0.00839895385308836
0.00798814575235633
0.00769240501279893
0.00757938912072252
0.00797781882496473
0.00892601275991596
0.0103137068883262
0.0121269231612695
0.0143133125367064
0.0168285774917159
0.0196353865921385
0.0227393539956558
0.0262454280119402
0.0305033666739367
0.0358670697158491
0.0432502285423705
0.0534080118263386
0.0672597099551936
0.0847850719291356
0.104853345316375
0.117837924442306
0.127514079968098
0.137688383072567
0.139731872767466
0.148015359781692
0.11764797548051
0.0602619170207391
0.0121297205272751
0.00452260123921221
0.00331822677779205
0.00146122001538522
0.000898613917812785
0.000763161268909451
0.000806805113985992
0.000974673228212016
0.00125604736795223
0.00161876956056517
0.0019869456636525
0.00230134922692486
0.00255804264625015
0.00279665193016564
0.00307841509876843
0.00346657475337152
0.00402905822808783
0.00478789714655843
0.00559917886088969
0.00627384981696112
0.00717396140458252
0.00796220192341958
0.00874204086081925
0.00946644667171708
0.0101623885978654
0.0108163612066975
0.011436857443637
0.0120194411419204
0.0125666580947233
0.0130766841233677
0.0135451303823522
0.0139716650010567
0.0143575401707514
0.0147031735315348
0.0150090857687528
0.0152759455401773
0.0155047749635677
0.0156968109377443
0.0158534988077237
0.0159764380832214
0.0160673607225412
0.0161281114324103
0.0161606152499901
0.016166855690556
0.0161488279984639
0.0161085245360462
0.0160478930597398
0.015968852795159
0.0158732986586287
0.0157631081382117
0.0156401338377304
0.0155060978264846
0.0153625560974688
0.0152108438384417
0.0150521122146016
0.0148873666961198
0.0147176620423295
0.01454404403588
0.0143675347804656
0.0141888807777449
0.0140086738570009
0.0138274902191728
0.0136460348115194
0.0134650002754857
0.0132854584418963
0.0131073126436106
0.0129304582560132
0.0127548993905858
0.0125807277116502
0.0124079612826386
0.01223662028388
0.0120667209031948
0.0118982433527804
0.0117311326477122
0.0115652532408765
0.0114004631248891
0.0112365425825698
0.0110733110137265
0.0109104265304754
0.0107476518444859
0.0105844188602041
0.010420503382588
0.0102549566388743
0.0100877645267288
0.00991718659102173
0.00974390051629631
0.00956434018621982
0.00938116572555931
0.00918632331030786
0.00898618213696594
0.008766234497417
0.00855018296964499
0.00829264453563085
0.00805694718638003
0.00771366612323188
0.00755555081917545
0.00743863550897562
0.00769805789673225
0.00845204864943771
0.00961237191179379
0.0111489025080415
0.0129996325047863
0.0151381019448727
0.0175413768948194
0.0202286409876618
0.0233057469136303
0.0270848505201047
0.0318153066808711
0.0383456301371069
0.047148217965236
0.059098247790583
0.0741717245184812
0.0911823254391495
0.102685849812639
0.115222920522904
0.138923590085227
0.154269131798978
0.155034610406522
0.129363261926908
0.0746133793040549
0.0164507371509484
0.00508096694309074
0.0036193401528496
0.00166360939635411
0.00102880488658833
0.000872647040885596
0.000918263554815117
0.00109465486462742
0.00137561775597948
0.00170880700098814
0.0020212897160479
0.00227670496821029
0.00249670479617585
0.00272734700154785
0.00302145535227646
0.00343351066740638
0.00401498635141911
0.00476153151440579
0.00550806522007801
0.00610907322475862
0.00696315298836184
0.00769171067104079
0.0084259260679185
0.00910404722480858
0.00975841800095534
0.0103725742982756
0.0109558662343078
0.0115032826401592
0.0120174602408752
0.012495637208253
0.0129344518128258
0.0133342257263387
0.0136958984910425
0.0140197474844315
0.0143062572458275
0.0145560548873784
0.0147700947519519
0.0149495347420006
0.0150957287756596
0.0152101751138726
0.0152944945408344
0.0153504117732829
0.0153797253570545
0.0153842880362996
0.0153659660526411
0.015326627553781
0.0152681056995253
0.0151922090398736
0.0151007124460455
0.0149953653370259
0.0148778927304722
0.0147499006968053
0.0146128484804097
0.0144680004789371
0.0143164592390072
0.0141591747780387
0.0139971311788659
0.0138313022422984
0.0136626493533166
0.0134918883022586
0.0133195850570688
0.0131462780291276
0.0129726352621296
0.0127996542545004
0.0126279330440556
0.0124573604449303
0.01228791401858
0.0121196402541369
0.0119526444856309
0.0117869663416288
0.0116226373785875
0.0114596848548594
0.0112981040817633
0.011137862230923
0.0109788529416232
0.0108209657823479
0.01066401972543
0.0105078731656822
0.0103522416655934
0.0101969427123315
0.0100414958084424
0.00988574731914555
0.00972888455750527
0.00957097868693638
0.00941051770712682
0.00924827652789327
0.00908110722971154
0.00891176387822339
0.00873306026535506
0.00855186314309851
0.00835360628623366
0.0081633670505002
0.00793762758816092
0.00774526385176035
0.00745048208317674
0.00738336450246879
0.00728703005980323
0.00746285469748194
0.00807514878283665
0.00906043105111438
0.0103817733434354
0.0119720709550816
0.0138134668285705
0.0158916399063433
0.0182310124295374
0.0209251016288403
0.0242524053018476
0.0283789854439884
0.0340599836187749
0.0415881836695809
0.0516992088984189
0.0644443742653376
0.0786207295264872
0.0886828338344534
0.0999511907702503
0.130465222133802
0.157411973413019
0.153209333212935
0.13502426093452
0.0883011592472722
0.0221279270489172
0.00560811762073658
0.00376899760851964
0.00182606702959644
0.00113897626414905
0.000965120178829399
0.00100908536945629
0.00118378443035183
0.00144923417486183
0.00174239408861336
0.00200457905630419
0.00222033007054503
0.00242383809516508
0.00265853999718374
0.00296827528268154
0.00339908960256014
0.00398827913674832
0.00471468460396298
0.00541026618711164
0.00597301526328269
0.00679239197731813
0.00747715853554292
0.00817707648074991
0.00882013200389719
0.00944265077326905
0.0100262133035566
0.0105807105554947
0.0111008374530251
0.0115893035864754
0.0120423608614076
0.01245812032114
0.0128369378411382
0.0131795538542396
0.0134861701444748
0.0137572480233445
0.0139933850148003
0.0141954851239419
0.0143646491655241
0.0145021640292734
0.0146094535993872
0.0146880565844122
0.0147396088963392
0.0147658155012244
0.0147684323681641
0.0147492307324814
0.0147099870651481
0.0146524502603014
0.0145783457850803
0.0144893573795884
0.0143871380427546
0.0142733166768572
0.0141494129185647
0.0140168136483682
0.0138767310561178
0.0137302304223471
0.0135782178543019
0.0134216234424069
0.013261364934681
0.0130983582547263
0.0129332943476521
0.0127667178838639
0.0125991358984243
0.0124313103820165
0.0122642835557762
0.0120982778860248
0.0119332690103812
0.0117692850201266
0.0116063994088978
0.0114447261767733
0.0112843197571484
0.011125219859285
0.0109674614776246
0.0108110512844099
0.0106559722420943
0.010502140172886
0.0103494674458976
0.0101978030294349
0.0100470332504188
0.00989691879698474
0.00974731497172672
0.00959781218213599
0.00944830156475823
0.0092980854019214
0.00914727789200814
0.00899457036947715
0.00884075667675498
0.00868308338500487
0.00852423525228663
0.00835787735836694
0.00819095167687169
0.0080093438655824
0.00783820796017411
0.00763662384272822
0.00747554775707937
0.00721743435356682
0.00720981523629576
0.0071435037826606
0.00727036227941256
0.00777811733229579
0.00862673401516928
0.00977808550725901
0.0111635554037902
0.0127701650829627
0.014589469337906
0.0166480424483529
0.0190238396366171
0.021967755190223
0.0255850677637769
0.0305395273972879
0.0370190285489371
0.0456102113431522
0.0564555558170369
0.0683319169853241
0.0773223155711272
0.0859145317403217
0.117135508491634
0.150915600148622
0.144342537816349
0.134722560528765
0.100291908833567
0.0292520596530251
0.00617332289182751
0.00376862122243054
0.00193587926038747
0.00122142210179267
0.00103494183791614
0.00107488658182456
0.00124126780402016
0.00148474680279005
0.00173986827005243
0.00196463326503642
0.0021575586670415
0.00235681045684917
0.00260069319145358
0.00292570162282903
0.00337046445548955
0.00396073021893421
0.00466490836021573
0.00532166957177368
0.00586652793836372
0.00665717496213429
0.0073095172849735
0.00798284760863521
0.00859899900071608
0.00919674788639394
0.00975656012142242
0.0102885526075502
0.0107873260254589
0.0112555921100397
0.0116887938183841
0.0120864552244155
0.0124487456092396
0.0127762644303684
0.0130691718822696
0.0133279110530181
0.0135530565093163
0.0137454732402314
0.0139062197070107
0.0140365327714235
0.014137781038794
0.0142114421212046
0.0142590858554623
0.0142823477354495
0.0142829119933959
0.0142624798980559
0.0142227603949157
0.0141654407250622
0.0140921842615097
0.0140046056298077
0.0139042851062757
0.0137927790822221
0.013671542744648
0.0135419089777467
0.0134050518104815
0.0132620085466519
0.0131136505812394
0.0129608666671363
0.0128045305680468
0.0126455242643797
0.0124845187748884
0.0123220413065727
0.0121585798087537
0.0119951294386583
0.011832400292394
0.0116705439465643
0.0115095919014003
0.0113496058575101
0.0111906780313588
0.0110329284296266
0.0108764221160518
0.0107212048465674
0.0105673172409374
0.0104147748358516
0.0102635722306307
0.0101136425286414
0.00996491508140944
0.00981726266237329
0.00967059235287403
0.00952470106209925
0.00937947114932372
0.00923455128584682
0.00908986182914272
0.00894480264381974
0.0087995073031441
0.00865284610245685
0.0085055912305875
0.00835534961160477
0.00820465756819878
0.00804797482501751
0.00789200674684477
0.00772359783975341
0.00756702406947753
0.007384359475999
0.00724641408846147
0.00701734276568888
0.00704789894080293
0.00701347467791207
0.00711333373404674
0.00754327743309899
0.00828359652775867
0.00929816892928418
0.0105194921029146
0.0119380298479335
0.0135497032927771
0.0153819530627549
0.0174974775927588
0.0201250499180129
0.0233270739796064
0.0276881853384917
0.033338760631163
0.0407392051890922
0.0501117558901474
0.0602091192431152
0.0684236936141558
0.0745349459363693
0.10278210603225
0.138506898518731
0.131714895520482
0.128909496748378
0.109805046748636
0.0377199216017385
0.00689538204029397
0.00366217888993392
0.00199052579555295
0.00127371045334662
0.00108117898899603
0.00111688967335588
0.0012727562048774
0.00149439015388498
0.00171876235903455
0.00191835936723218
0.00209978965349584
0.00230115168566131
0.00255574970787771
0.00289436426507697
0.00334917004184044
0.00393669934591525
0.00461922286874158
0.00524717523614877
0.0057858396264399
0.00655165959359004
0.00718018240970444
0.00783260814881752
0.00842815773523863
0.00900661423202739
0.00954803264914636
0.010062473251437
0.0105445871858669
0.0109968696911608
0.0114146106534099
0.0117980957965794
0.0121473901430809
0.0124629863806076
0.0127450214873227
0.0129939219168113
0.013210243271614
0.0133948195160775
0.0135486774579254
0.0136730166486756
0.0137691649046876
0.0138385548144868
0.0138827076775355
0.0139032081640628
0.0139016881945375
0.0138797984911945
0.0138391993179361
0.0137815339977153
0.0137084205484677
0.0136214219777378
0.0135220643837381
0.013411850127469
0.0132921870344074
0.0131643684222682
0.0130295412566719
0.0128887227189083
0.0127427570181192
0.0125925015664412
0.0124387955973453
0.0122824962381534
0.0121242587504486
0.011964596048602
0.0118040667464694
0.011643743569569
0.0114840212049512
0.0113250803099785
0.0111669910284224
0.0110098388266665