/*--------------------------------*- C++ -*----------------------------------*\
  =========                 |
  \\      /  F ield         | OpenFOAM: The Open Source CFD Toolbox
   \\    /   O peration     | Website:  https://openfoam.org
    \\  /    A nd           | Version:  7
     \\/     M anipulation  |
\*---------------------------------------------------------------------------*/
FoamFile
{
    version     2.0;
    format      ascii;
    class       volTensorField;
    location    "20000";
    object      gradU;
}
// * * * * * * * * * * * * * * * * * * * * * * * * * * * * * * * * * * * * * //

dimensions      [0 0 -1 0 0 0 0];

internalField   nonuniform List<tensor> 
15600
(
(0.0523021067066923 -0.00945282022458458 -8.57743760416083e-26 34.0695859726722 -0.0733212704721064 9.73436041995147e-22 0 0 0)
(2.40203643928347 -0.162328708811028 5.93639924661106e-19 37.5247222695538 -2.38321616879623 3.17503869422566e-17 0 0 0)
(0.757615555001279 -0.149313107436877 1.15937409560702e-17 4.04689913107507 -0.827975202086259 4.75966361965653e-17 2.15714950320031e-17 -4.41452064399148e-18 2.53369024524311e-34)
(-9.26822813305004 4.52077898146875 1.65550290224738e-17 -18.7941644018895 9.14392226604476 2.34605570109435e-19 0 0 0)
(-8.16653574679488 5.47047641072023 -9.11526270826322e-16 -12.1091549687908 8.07705595644785 -1.31922134885186e-15 1.51183199997742e-16 -1.00839975508239e-16 1.64637417416951e-32)
(-4.66261995587255 3.64447939877857 -5.53795969662157e-16 -5.93950652820989 4.6295626289405 -6.7881030551574e-16 -8.61974448132823e-22 6.02290751883877e-22 -2.00770172002076e-38)
(-3.28131758595764 2.73996969714007 1.73290714891528e-17 -3.8981583889327 3.25177207497705 -7.19388401184119e-19 0 0 0)
(-2.08567884083867 1.76385545898239 2.8946858748309e-17 -2.46135276479382 2.0814409002401 -2.64313342069201e-18 -1.99184614528845e-21 1.66193998138403e-21 1.3289632270323e-36)
(-1.70310718022935 1.39874035977273 -1.26076573456303e-15 -2.06686352170134 1.69831370032329 -1.49416751466847e-15 2.76688538096683e-17 -2.27343691694489e-17 2.00269540437159e-32)
(-1.4082970074589 1.13411630126608 -1.56601072862297e-15 -1.75508766982465 1.41402965745546 -1.9168572542163e-15 -3.0223095799295e-21 2.43201447474348e-21 -2.48765299331405e-36)
(-1.46953078634715 1.16127243867523 -8.89635982632228e-16 -1.86499403831516 1.47430793531652 -1.17814987291726e-15 2.44793488283946e-17 -1.93507907093503e-17 1.54065354444033e-32)
(-1.62049759267675 1.26891111533375 -1.74694176348385e-13 -2.0807076129237 1.62991775916987 -2.26537297293375e-13 -7.53657474419523e-21 5.89756974401602e-21 1.16415185201563e-40)
(-1.93225246391619 1.49413657022438 -1.78821623781784e-13 -2.50499224090148 1.93873973304111 -2.34322722288641e-13 7.00921029603914e-21 -5.4848930680618e-21 -1.08269146452582e-40)
(-2.16280159328215 1.61967611369712 1.53032871971781e-15 -2.89108457817838 2.16930530138122 2.05985424899262e-15 0 0 0)
(-2.30289226830657 1.61528312044441 9.4189178197861e-16 -3.27774873904885 2.30696973289414 1.2601632593624e-15 1.07497329627103e-20 -7.18995692535047e-21 -1.1151848142833e-35)
(-2.22392771629139 1.40306252795266 1.1452968148659e-15 -3.51200948793884 2.22851039182249 1.80498640565349e-15 4.28722469113643e-17 -2.71898337643811e-17 -2.20338879913151e-32)
(-1.95704661822502 1.049946166325 -9.24777549215999e-17 -3.62656379854254 1.96399804618072 1.44158946274005e-17 0 0 0)
(-1.57132637371906 0.675368514943567 0 -3.62272548016404 1.58111090438389 0 0 0 0)
(-1.12266864564317 0.355257984484782 5.61744758558789e-20 -3.48460412687169 1.13402685433055 -8.4280971411694e-21 0 0 0)
(-0.652822580984804 0.127236117171267 -2.86757999658731e-17 -3.17683206149286 0.664495066315606 5.28576482432877e-18 1.35905063681386e-20 -2.24496129652344e-21 5.61785668581068e-36)
(-0.276465038781329 0.0171183351582842 2.21942619291849e-17 -2.87052255714863 0.276849824283723 2.52480169209495e-16 -1.48893004805684e-17 1.4308245659859e-18 1.30918633512901e-33)
(-0.0792478704456227 -0.00220646131387186 2.89414138264518e-17 -4.59512408794635 0.0929744660406373 5.34339981526171e-19 -4.15754709961047e-19 8.30982480342167e-21 -5.41389748687997e-36)
(-0.0647578645088471 3.05593236362124e-05 5.53188473516525e-19 -7.30070625213165 0.0704727034707443 -5.21166339963892e-19 2.8238934917962e-20 -1.73301196881872e-22 9.62895205978886e-38)
(-0.0495530830119634 0.000216459536436896 -5.52233125898609e-20 -9.13392054546335 0.0620201995754594 7.40837626169399e-21 0 0 0)
(-0.0419095111965085 0.000178822100869071 -2.93559574660758e-20 -10.755348783817 0.0539157720657389 3.72531625279996e-21 0 0 0)
(-0.0339775257525322 0.000152200555975672 5.95484767403714e-20 -12.0098508351538 0.0487296976031361 -5.80792649569105e-19 -3.25083771461633e-20 1.42537380205072e-22 2.91910301631804e-39)
(-0.0284513500416539 0.000120278316701656 -8.4266357711323e-22 -13.069460427305 0.0439333773793172 1.16323967037188e-18 6.77675158624457e-20 -2.9670362761037e-22 -5.75673479907143e-39)
(-0.0236286524847383 9.82336141639017e-05 -5.9548476740372e-20 -13.9286611427899 0.0405849439395903 -5.82787736627321e-19 -3.52591387162854e-20 1.54166247405311e-22 2.83763178275364e-39)
(-0.0198000396437164 7.51765440993766e-05 6.39014510606445e-20 -14.6485200783203 0.037475208217122 -8.72316035506725e-19 0 0 0)
(-0.0163814474933536 5.61530827006697e-05 1.4100143825958e-21 -15.2360345681639 0.0348889745709347 2.41628013469758e-18 4.10417618021649e-20 -1.76361107762796e-22 -3.3948147575397e-39)
(-0.0133793314499243 3.71906753028411e-05 -6.87686364946366e-20 -15.714496243913 0.0323547389403521 -8.58630192129152e-19 1.29355375754683e-21 -3.59570565799704e-24 6.64875734263614e-39)
(-0.0105981732339797 2.0306714889075e-05 -3.95464110038164e-20 -16.0896413439329 0.0299727474014772 -6.80970471877307e-19 -4.23353155608644e-20 1.79956813423167e-22 -3.25394258516034e-39)
(-0.00803166263499357 4.15223132892544e-06 7.31895017676043e-20 -16.3721667484052 0.0275833443409381 -7.52264660275689e-19 -4.41365037818438e-20 1.82321577457334e-22 -1.22800262972357e-42)
(-0.00560853712735455 -1.06139436798657e-05 3.81363969396126e-20 -16.5667813791115 0.0252239514561251 1.01217145736897e-13 4.41365037818435e-20 -1.82321577457333e-22 1.22800262972356e-42)
(-0.00332134085810591 -2.4516123735974e-05 -3.81236958589422e-20 -16.6795530609713 0.0228380599490767 1.06595166575848e-13 0 0 0)
(-0.00114987230966031 -3.73943029722674e-05 6.42937017656841e-31 -16.7145005702045 0.0204455925407944 -5.5947221887693e-32 0 0 0)
(0.00090150243001195 -4.92694482509498e-05 -8.28970278451663e-44 -16.6764202737249 0.0180361565367773 -4.38136470519901e-30 1.22274407864448e-30 -1.32179904769644e-33 3.21454246371415e-61)
(0.0028287273570356 -5.96685644974842e-05 -5.44256134226516e-15 -16.5695818786979 0.0156400229675146 4.34135066328443e-16 0 0 0)
(0.00461750773127889 -6.86091258161959e-05 -5.70598318701941e-15 -16.3990158485738 0.0132792622579132 1.63091708234867e-13 -9.40207179894883e-15 7.5523902984951e-18 9.39671779129e-29)
(0.00626270880349885 -7.61393424573784e-05 5.44261216245029e-15 -16.1697935636303 0.0109751501270488 1.67829792956684e-13 -9.31051202020122e-15 6.37187113398466e-18 9.62004542461499e-29)
(0.00776115779485836 -8.23266675862112e-05 5.70598318701899e-15 -15.8871619152015 0.00874178393523772 -4.12777577922232e-16 4.36984625466181e-20 -1.50782537218401e-22 5.51666597663158e-34)
(0.0091131659589023 -8.7217355298364e-05 -5.08201854807432e-20 -15.5562935645402 0.00659197687187122 3.50097250273743e-21 0 0 0)
(0.0103195540673663 -9.08851688253063e-05 0 -15.1823313884784 0.00453672067805464 0 0 0 0)
(0.0113824978267392 -9.34021968242438e-05 0 -14.7703135907999 0.00258514993369097 0 0 0 0)
(0.0123052811981234 -9.48665243132605e-05 -7.00740774493463e-15 -14.3251657324214 0.000745319853334095 3.8030353546966e-16 0 0 0)
(0.013092704348534 -9.5375010381132e-05 -7.26703834904847e-15 -13.8516393424448 -0.000978271207481101 3.73989047678708e-13 -7.94698729135818e-15 -5.9687275792938e-19 2.15123468782366e-28)
(0.0137512690206841 -9.5051683434584e-05 7.00740774493553e-15 -13.3542772232057 -0.00258181218462497 3.86253162423841e-13 -7.68387264778722e-15 -1.45863437665562e-18 2.21754514005093e-28)
(0.0142892613127844 -9.40150864771598e-05 7.26703834904842e-15 -12.8373426554356 -0.00406684963562541 -3.43417545712153e-16 0 0 0)
(0.0147157549886508 -9.23830812383795e-05 -5.02100936790827e-31 -12.304784862811 -0.00543401301848451 8.89665247847685e-19 0 0 0)
(0.0150407581361321 -9.02867403742756e-05 -3.14565509805783e-45 -11.7602297227939 -0.00668845559834903 3.68222180143901e-30 -4.31120021681808e-31 -2.45448174952747e-34 1.3507475798563e-61)
(0.0152710256631803 -8.77485107250184e-05 5.06079543722407e-31 -11.2069596164546 -0.00783266715519034 -9.69030690737223e-19 0 0 0)
(0.0154110496922138 -8.48514520097641e-05 -1.08763797767206e-30 -10.6481409669254 -0.0088646392196169 9.72610731762428e-19 0 0 0)
(0.0154686613064666 -8.1701236220861e-05 -1.93315489083305e-20 -10.0867139388118 -0.00979042700865592 -5.11031060636955e-19 -7.39545316231373e-31 -7.18204489528925e-34 -3.75096331996845e-50)
(0.0154545700315458 -7.8411480109728e-05 3.91060269146957e-20 -9.52528545061251 -0.0106156691937907 1.34998786554248e-19 -6.49226348317579e-21 7.51791984567748e-24 4.77963911074349e-40)
(0.0153808751037272 -7.50661795835924e-05 -4.43241491645904e-22 -8.96605940033 -0.0113531575102803 7.6385171373765e-19 1.26127597221857e-20 -1.32214340314366e-23 -9.45214344076099e-40)
(0.015258840342357 -7.17233220783143e-05 -3.91060269124204e-20 -8.4108314593404 -0.0120106806173229 -3.8558022507792e-19 -6.12049623831055e-21 5.7035141865368e-24 4.67250432991711e-40)
(0.0150982666067265 -6.84293690165682e-05 1.97747903993716e-20 -7.86105839910475 -0.0125997664234965 -2.86794453159259e-22 5.7637221141771e-31 9.2403288554099e-34 6.84473958973884e-61)
(0.0149021067366863 -6.51146457338481e-05 -1.18688543390783e-30 -7.31791520936559 -0.0131231539813433 4.82055742606753e-30 -2.68275961467189e-31 -4.81187243098953e-34 1.76351654777657e-61)
(0.0146708722519649 -6.18366573399026e-05 6.05205177165808e-31 -6.78267016771614 -0.013578954010034 -4.38865542091123e-33 0 0 0)
(0.0144094958641555 -5.86428931791174e-05 -1.00156742546168e-14 -6.25643325382744 -0.0139750632942239 0 0 0 0)
(0.0141249347575802 -5.55885808250225e-05 -1.01801023726011e-14 -5.74012202025685 -0.0143157173501912 8.19044391509747e-14 -3.29843056750443e-15 -8.22620041278894e-18 4.70644407375102e-29)
(0.0138252409860013 -5.26928321357045e-05 1.00156742546168e-14 -5.23436983907853 -0.0146134323292777 8.43724886402541e-14 -3.0071815173961e-15 -8.39644915784565e-18 4.8525216281049e-29)
(0.0135133213004581 -4.99001083604494e-05 1.01801023726008e-14 -4.73957510144344 -0.0148698991044119 7.39781377922631e-17 0 0 0)
(0.0131894733631175 -4.72279549839609e-05 -1.17425708136093e-43 -4.25618996686177 -0.0150874356445994 1.13093606903702e-29 -3.12081795338794e-31 -1.10623803536763e-33 8.29666311320681e-61)
(0.012855982378297 -4.46921040040364e-05 2.38704724444665e-20 -3.78458178638888 -0.0152686942384657 4.32742821146534e-22 0 0 0)
(0.0125171769340406 -4.2324063894439e-05 -2.3887404407029e-20 -3.32503509591132 -0.0154192919250712 4.65776306153208e-19 2.38936163155237e-21 9.23817786856006e-24 4.09258221035585e-43)
(0.012176165985615 -4.00886324207417e-05 -4.83824734720819e-20 -2.87762552082897 -0.0155446402204514 -4.67768135601687e-19 -2.38936163155256e-21 -9.23817786856076e-24 -4.09258221035616e-43)
(0.0118328194035391 -3.79739758058992e-05 4.84158670059773e-20 -2.44244125578854 -0.0156443499622367 -4.77510114351687e-19 -1.80904651250362e-21 -1.11250094464916e-23 3.9788844853431e-43)
(0.0114871060567703 -3.59770731166777e-05 2.45120010282342e-20 -2.01956967221022 -0.0157209221443948 1.88727653029741e-18 1.80904651242946e-21 1.11250094459146e-23 -3.97888379367087e-43)
(0.0111395414857811 -3.41015691054542e-05 -2.45284625989483e-20 -1.60909838596673 -0.0157742603320314 -1.41272306232701e-18 -5.90035802033442e-32 -5.78248048340927e-34 -5.17677947153031e-50)
(0.0107920646362379 -3.23717747778406e-05 7.27094032005109e-31 -1.21107469588121 -0.0158096696191698 2.63626724079458e-32 0 0 0)
(0.0104447540754667 -3.07914550262009e-05 1.1825081745817e-14 -0.825456423680765 -0.0158290846257847 5.1449866325931e-16 0 0 0)
(0.0100969336788904 -2.93496794994835e-05 1.1894591572758e-14 -0.45229064094623 -0.0158342009198905 -1.05305019263096e-13 2.6067291083726e-16 9.11359612350686e-18 6.02156412111208e-29)
(0.00974794732728065 -2.79992226115561e-05 -1.18250817458171e-14 -0.0915833049125665 -0.0158242956094414 -1.10629583546023e-13 5.2301574126015e-17 9.07408967284774e-18 6.39175461361407e-29)
(0.00939781410403632 -2.67095009952886e-05 -1.18945915727591e-14 0.25657477058231 -0.0157977822369214 -6.0529451731192e-16 0 0 0)
(0.0090454794805106 -2.54544050534088e-05 -6.49093011673655e-33 0.59217624418401 -0.0157550439046703 1.51482002801964e-18 4.3385973603184e-32 -1.15502114075957e-33 1.11081002955042e-49)
(0.00868961671367487 -2.43463943857582e-05 1.55256597085388e-30 0.915054713894007 -0.0156922675601786 9.00676639463247e-32 0 0 0)
(0.0083273508790158 -2.33872467930344e-05 0 1.22510574093935 -0.0156139089894888 0 0 0 0)
(0.00795752904459216 -2.25801022665645e-05 1.26337458098803e-14 1.52196432095768 -0.0155144323778574 8.70331272302627e-16 0 0 0)
(0.00757548003586962 -2.18692670099758e-05 1.26383450591591e-14 1.80543668274116 -0.0153992831478885 -1.08187585835365e-13 -1.03872892854158e-15 8.879421301562e-18 6.16686150071598e-29)
(0.00718118731997337 -2.13425415967947e-05 -1.26338583701299e-14 2.07484108352458 -0.0152573090890989 -1.15198731037869e-13 -1.19020387268296e-15 8.73157590925775e-18 6.67480680151458e-29)
(0.00676476595476625 -2.08809134244873e-05 -1.26382325378703e-14 2.32995791293838 -0.0150991543792744 -9.61321714934481e-16 5.20184565352544e-21 -8.09651047762014e-23 -3.76694221108048e-42)
(0.00632889052000245 -2.07083730034182e-05 2.26799035988479e-19 2.56944407287117 -0.0149003401434392 5.42641241591064e-18 -5.20184565352616e-21 8.09651047762125e-23 3.766942211081e-42)
(0.00585403681661446 -2.05236566873549e-05 -3.41791636958232e-19 2.79320763870098 -0.014688124409127 -1.00401273207028e-18 -6.37972748620143e-21 8.49515406594018e-23 1.11215953451868e-38)
(0.00535159506343862 -2.08563172769138e-05 7.95975603181233e-22 2.99861633979977 -0.0144066399687683 -1.22620068710004e-18 1.32768631803725e-20 -1.7191953241781e-22 -2.21662333896914e-38)
(0.00478005356017914 -2.09679502775047e-05 2.29270346780843e-19 3.18623510724833 -0.0141254099659338 -3.24353643016382e-13 -6.89713569417103e-21 8.69679917584073e-23 1.10446380445044e-38)
(0.00417480662112807 -2.2104028056305e-05 -1.15034760336248e-19 3.35072490684629 -0.0137137454998921 -3.23196973323018e-13 0 0 0)
(0.00344115529922562 -2.24575924103401e-05 -1.18327960090591e-19 3.49478158772209 -0.0133455221864847 3.2810471367461e-18 0 0 0)
(0.00267797025380851 -2.50054933318028e-05 1.18317048574925e-19 3.60694693660441 -0.0127083634822424 -2.29902804072451e-18 8.35453369482437e-21 -9.57211923848811e-23 -1.05495795043698e-42)
(0.00165976147043299 -2.53217736574232e-05 1.18327960090576e-19 3.69596782402062 -0.0122360790140003 2.32369740129254e-18 -8.35453369455321e-21 9.57211923839824e-23 1.05495811988873e-42)
(0.000654096504443796 -3.06130320219869e-05 1.38122656638008e-14 3.73589915525455 -0.0111717684741179 1.54909148835832e-15 0 0 0)
(-0.000885058055345441 -2.98543638425997e-05 1.37409744072657e-14 3.75201606020646 -0.0106088383286255 -4.52440952017041e-13 -2.16174261577574e-15 6.16370577028474e-18 2.59092192854187e-28)
(-0.00225184342466597 -4.06626476269842e-05 -1.38123839808494e-14 3.68344814088813 -0.00867984580859912 -4.62912721743423e-13 -2.11072296074701e-15 4.91088897082636e-18 2.66947526609813e-28)
(-0.00482780637036534 -3.59842867277014e-05 -1.3740850935991e-14 3.59936840727199 -0.00810191913217005 -1.64409270736087e-15 0 0 0)
(-0.00676033097377303 -5.88547691750886e-05 -1.23530173173889e-19 3.35031697933703 -0.00425289497366236 9.38334195512268e-18 -7.15458363023911e-21 1.17116255484484e-22 5.69456874620083e-42)
(-0.011500003751407 -4.22329203199854e-05 -1.23471273789277e-19 3.12114896372326 -0.00398041826903898 -1.64857601459233e-17 7.15458363023909e-21 -1.17116255484484e-22 -5.69456874620082e-42)
(-0.0140758377861739 -8.82066368204824e-05 2.8376010651523e-14 2.5396840913848 0.00406338721926808 3.81379856652799e-15 1.86355629526843e-31 2.99167190308649e-34 5.18469601295572e-49)
(-0.0234031041746542 1.16153995608541e-05 2.81882905423897e-14 2.10418378805498 0.003056770673362 -2.38759903631257e-13 -2.37536358277079e-15 -3.23750301561017e-18 2.6441610777286e-28)
(-0.0334495673118518 -0.000820412131799866 -2.71792787938619e-14 0.856895364760042 0.0264515776829681 -2.7125301455842e-13 -9.6517575253942e-16 -3.00949289378508e-17 3.09782497211095e-28)
(-0.00260708030818936 0.00209175050962057 -2.79570654957644e-14 0.00457530275731812 -0.0149268773269246 -4.56825135478832e-15 -1.13237624537803e-20 3.92021242152762e-20 1.53520751258534e-33)
(-0.118648696409714 -0.0185748566920088 -6.00663517171096e-16 0.675434942407031 0.117547543112023 2.52490030481544e-15 -1.42455967834987e-21 -2.5856865502462e-22 3.86225003173313e-35)
(-0.46062422244681 -0.136028001770653 1.13861923383629e-16 1.51664517144689 0.463368530373979 2.54165818415085e-17 0 0 0)
(-1.14667497547871 -0.474838673482499 -1.86720066145804e-15 2.73723775340245 1.15210247110181 4.85729680566612e-15 -3.07416495514582e-17 -1.29263647851872e-17 -5.42726558906795e-32)
(-2.22599645377708 -1.15958472801174 5.99764535059196e-16 4.23063645880858 2.22503069775149 -2.13909755412814e-15 -1.45955595300816e-20 -8.54142702231363e-21 -6.99598117699663e-37)
(-3.84047372052927 -2.35688808402754 -1.24505810058704e-15 6.18833518783157 3.81788370900582 1.95138335187113e-15 7.54417433742276e-17 4.65216946525131e-17 2.3842411908207e-32)
(-5.86500524168034 -4.00301584192726 -6.90594129045176e-15 8.49168082609973 5.81255885316493 1.05857740843185e-14 0 0 0)
(-8.13035846754572 -5.91734474257121 5.3876985908729e-15 11.0330066239541 8.04157171284892 -7.92876739456608e-15 -1.41719193337244e-16 -1.03279307994133e-16 1.01070837193542e-31)
(-10.5017696212265 -7.89644504073406 -1.57462398616396e-15 13.7949845950062 10.3789866595199 1.77624498964172e-15 1.79181413192483e-16 1.34804042366775e-16 2.34295840436034e-32)
(-12.7812808996121 -9.73236689297288 4.65150851749481e-15 16.5861937883132 12.6351954040043 -5.7451062539023e-15 -2.16323472825743e-16 -1.64786012366105e-16 7.52865605883806e-32)
(-15.0876089639184 -11.6665739216718 -4.25202271949886e-15 19.2864269160087 14.9219155414765 5.63305197444417e-15 2.52930529060571e-16 1.95682453933569e-16 7.36497187436095e-32)
(-18.1273168263974 -14.3225514307608 -2.99309099789995e-15 22.658888417606 17.9154430259654 3.71699796357887e-15 -4.06913783671114e-20 -3.18767991890357e-20 -1.1552805096471e-35)
(-22.0975000734082 -17.9673491108738 3.94901312510772e-15 26.8338688300952 21.8331414073627 -5.13130043356891e-15 -3.59145105846413e-16 -2.92200041189401e-16 6.83432555981138e-32)
(-28.628173229155 -23.9494778096919 -1.2366744120316e-15 33.7206012307523 28.2121204699881 1.47677132082841e-15 -1.64375555144221e-20 -1.32896674851799e-20 2.57039135586003e-36)
(-37.9706520731524 -31.5608631691128 1.71922250507241e-16 45.0037983933017 37.3722428202688 9.63729446385101e-18 1.84976451490066e-20 1.49552379046546e-20 -2.89253393870254e-36)
(-50.0528412792255 -38.9084451375928 7.61973972345701e-16 63.4388853308923 49.209472332043 -1.00992113974313e-15 0 0 0)
(-62.1082319099852 -41.5276448356865 -4.45717153660475e-16 91.7533602241231 61.1025230879824 5.76644528610282e-16 1.1455634556687e-15 7.62862959348955e-16 7.19890040027939e-33)
(-63.3192269637251 -30.741195442556 -5.69971372666508e-17 129.432163335146 62.3889043184857 2.05014295540547e-16 -5.50041482305734e-21 -3.02167188161289e-21 1.06486116939621e-37)
(-31.7201839419312 -7.97257972268806 1.10668619817826e-16 128.208876913886 31.4794765445595 -4.57467614521514e-16 0 0 0)
(-5.02872869281276 -0.46512982780731 -2.91321406988436e-17 68.3822615358962 5.05265428470063 2.02888995008668e-16 0 0 0)
(-0.119571551158622 -0.0173516560144699 -2.9852651208977e-18 27.1762058960551 0.142381118817038 3.78843547364237e-20 0 0 0)
(0.100702178310489 -0.0287711079463361 4.85991186523703e-19 37.3766457384977 -0.127194106079456 5.2250835855997e-21 4.18731759068419e-21 -1.41775759877528e-22 2.47893273306591e-39)
(2.24466132092336 -0.157213272022442 3.30046152394891e-19 38.6862432562528 -2.21782328964891 -3.03186990472999e-17 9.69108411915103e-17 -5.84469223454587e-18 3.70454713367853e-37)
(1.40906478049221 -0.175984135015104 2.38916186205585e-17 8.59782159148826 -1.34996627823442 1.00183491939632e-16 -2.08120423024286e-17 4.25981141769184e-18 -2.4440439578183e-34)
(-7.89001418382801 4.03105596706986 -4.86395197254789e-17 -15.7210440493741 8.00264494695059 -6.41138033841705e-19 1.85390701502759e-21 -1.08883076632941e-21 -2.26454226817275e-38)
(-7.35251508227591 4.9668127551901 -4.81705537909427e-16 -11.111438827318 7.41675362256461 -7.12254711669563e-16 -4.3014444345511e-16 2.86971324184356e-16 -4.0634801760857e-32)
(-4.29511462563412 3.35216204898887 5.62548106604901e-16 -5.60126884041002 4.33608121505747 6.54474891827026e-16 2.39058130397307e-21 -1.69943180936584e-21 3.40556254715864e-37)
(-3.05294893820491 2.54576919558595 -3.94165717834935e-22 -3.69113845325148 3.06947130076237 1.63649996127505e-23 0 0 0)
(-2.00676189999275 1.68267251763646 -8.97696176216333e-17 -2.40365114300949 2.01663756196283 7.84708346734915e-18 0 0 0)
(-1.6601147123545 1.3535896454115 2.0599306032698e-16 -2.03096761415761 1.65931094172766 3.24775172654965e-16 -8.05127224265634e-17 6.602433445348e-17 -3.43706137178434e-32)
(-1.42151916935578 1.13474399286297 1.50413686651116e-15 -1.77511334068602 1.41965197107477 1.84995658153099e-15 -4.5860302744475e-17 3.68059205643241e-17 2.93925425465726e-36)
(-1.49628167290479 1.17795420083847 -1.08357009140202e-14 -1.88868997404548 1.48869661318409 1.33735796190192e-15 -2.36018424106761e-17 1.86570889133937e-17 -1.48537444935505e-32)
(-1.66081110117004 1.29976269412209 1.57158504153481e-13 -2.11164328354951 1.6544087966342 2.22263056003904e-13 -1.02601868261432e-14 8.03775420479307e-15 1.27345334584296e-29)
(-1.9486236850477 1.50997600847451 1.77994907370584e-13 -2.49915804993458 1.94145361943881 2.19843408958044e-13 -1.24110482646487e-14 9.62221868828072e-15 -1.96507645412765e-29)
(-2.15844387305174 1.61747505153988 8.96155303064717e-15 -2.85783177259318 2.15403824027921 -4.81608833083009e-15 7.27040385542977e-17 -5.46555162350407e-17 1.54056572911699e-32)
(-2.26887929725234 1.58660989068593 -2.84301301066736e-17 -3.20604186545694 2.26603821972857 5.34550083156538e-17 8.02136549704936e-17 -5.65373670779307e-17 -1.59543270346856e-32)
(-2.1910650954401 1.36587734922597 -1.97795783605974e-15 -3.44600713258533 2.18825974636107 -3.03302789607444e-15 4.20873934003502e-17 -2.66821140992292e-17 3.71282665675732e-32)
(-1.95220394931126 1.02085004247521 8.01595453370632e-21 -3.61308449055262 1.94769870836884 2.11804065466736e-20 0 0 0)
(-1.60564368843879 0.658427432280073 6.1937920735219e-16 -3.71086509513007 1.5994142065386 1.43485305805954e-15 0 0 0)
(-1.19043825091611 0.344953805083142 0 -3.72664600414543 1.18366509310025 0 0 0 0)
(-0.74638420773695 0.120511166600682 4.32415328873503e-17 -3.66746644477043 0.742508468419506 -7.36897701719976e-18 0 0 0)
(-0.410872649760301 0.0134731934278739 5.25745703302703e-17 -3.88097663843853 0.397556206595429 5.69617343575202e-16 1.43113773098587e-17 -1.37608814313406e-18 -1.2548796682361e-33)
(-0.191511772015527 -0.0075604951589168 -4.34452332339434e-17 -5.50281064105443 0.200126897346394 1.71179067782434e-17 5.05783928719992e-19 -1.16414568128968e-20 -8.74957936905489e-36)
(-0.173538469386064 -0.00165577221352855 -8.19191938059259e-19 -7.64552870162517 0.160730954036657 -9.81524819606007e-19 -8.97335067613785e-20 1.44180038433501e-21 1.37718643499995e-37)
(-0.131809205303281 -0.00110238059621398 8.08837732793259e-20 -9.1308240717356 0.124883186093033 -1.08508055352368e-20 0 0 0)
(-0.109075888949649 -0.000891484782290642 0 -10.3566633093327 0.0962195444329636 0 0 0 0)
(-0.0874985093142346 -0.000688202574268104 0 -11.2915911900973 0.0747320927676018 1.97904005360032e-18 0 0 0)
(-0.0722712104267988 -0.000557497039078674 1.70346577824262e-34 -12.0518851781564 0.057183384377784 -2.52829391737361e-18 0 0 0)
(-0.0592522570820864 -0.000445025843195888 -4.59186280607394e-20 -12.6527965645678 0.0436427751839057 2.05791385482337e-18 0 0 0)
(-0.048812832858604 -0.000380617427695455 9.33246519235791e-20 -13.1356231983938 0.032121849072337 1.51133148513871e-20 -1.08498514598719e-19 1.87325115891918e-22 4.42138771550588e-39)
(-0.0395517443208501 -0.000330296983230621 -1.51303828620048e-21 -13.5114423360664 0.0224594278463389 -2.08133275997517e-18 2.20685876776886e-19 -3.4384463145235e-22 -8.70165984400008e-39)
(-0.0313981185850032 -0.000299762015956889 -9.33246519235796e-20 -13.7968463395923 0.0138398017580925 -4.79398935917428e-20 -1.1218736217698e-19 1.56519515559027e-22 4.28027212847762e-39)
(-0.0238861638324432 -0.000274533371448676 4.74316663469424e-20 -13.9988313915658 0.00619312861038565 1.49419677430853e-18 0 0 0)
(-0.0169687410141678 -0.000256555519746509 5.3729351164212e-15 -14.1258265656132 -0.000780273414126113 -5.25231281696248e-16 0 0 0)
(-0.0104740622269563 -0.000241031088170756 5.65845917828041e-15 -14.1829062799935 -0.00712769176174834 -8.4720055374783e-14 1.49826456453774e-14 -8.53784050447097e-18 -6.1908479003203e-30)
(-0.00437354590487091 -0.000228348056964356 -5.37293511642179e-15 -14.1753561445049 -0.0129794056824633 -8.58971586432414e-14 1.51535870371491e-14 -4.52918651733859e-18 -8.70972231610834e-30)
(0.00137928082906113 -0.000216221593658501 -5.65845917828012e-15 -14.1072699732707 -0.0183450746458265 5.12865204201016e-16 0 0 0)
(0.00677550157698749 -0.0002040794779389 -7.56656447915365e-44 -13.9831882923738 -0.023246223794694 9.66752351342467e-19 -1.17976129273645e-30 1.2753342097366e-33 -3.1015425376272e-61)
(0.0118068628042238 -0.000190689160280161 1.42781484345894e-14 -13.8075735648314 -0.0276685406700711 -1.13787516588082e-15 0 0 0)
(0.0164456406203522 -0.000176512567071288 1.48478815083279e-14 -13.5849118085438 -0.0316123391653095 5.23811429497317e-15 2.37607570906309e-14 2.03419122911806e-18 -1.71791738963505e-28)
(0.0206857309115987 -0.00016192308032444 -1.42781484345901e-14 -13.3195913597595 -0.0350800764509997 9.71041859438645e-15 2.33763684655235e-14 6.14402027034514e-18 -1.78365425269639e-28)
(0.0245250739836861 -0.000147299874388458 -1.48478815083277e-14 -13.0159492078986 -0.0380857801914954 1.07686320813698e-15 0 0 0)
(0.027968885099155 -0.000132759759303922 0 -12.6781658965405 -0.040646437441628 0 0 0 0)
(0.0310234555517025 -0.000118421503199039 0 -12.3102899871663 -0.0427809455676666 -1.25382128659076e-18 0 0 0)
(0.0336980700511034 -0.000104366178061674 -4.26776124009375e-20 -11.9162093886743 -0.04451016946515 1.25828442875985e-18 0 0 0)
(0.0360045436647146 -9.07381083324944e-05 2.70995085371324e-14 -11.4996463987468 -0.0458560160028405 -1.47387239210058e-15 -5.03478938747611e-20 -5.43296409324115e-23 1.26373439160732e-33)
(0.0379582185247866 -7.76620458324459e-05 2.80582645193488e-14 -11.0641316478023 -0.046844278104077 -1.23185757833927e-13 3.20153319960177e-14 4.81960061450028e-17 -4.44023495941789e-28)
(0.0395782693485926 -6.53301308613195e-05 -2.70995556076302e-14 -10.6129830659268 -0.0475013683011775 -1.22635893556219e-13 3.08558622805936e-14 5.13347924134234e-17 -4.63844636671566e-28)
(0.0408876062652235 -5.38549335978157e-05 -2.80581746150677e-14 -10.1492774287578 -0.0478591509400663 1.32320880047676e-15 -4.48254012421126e-20 -6.35092485473206e-23 7.28278672416044e-42)
(0.0419106443503165 -4.33055126662031e-05 4.70704973121867e-20 -9.67583949292481 -0.0479465651580859 7.96079253802321e-19 4.48254012421136e-20 6.35092485473221e-23 -7.28278672416061e-42)
(0.0426723837916779 -3.36443267653754e-05 -9.86663446923892e-20 -9.19524869634501 -0.0477950400365609 -1.5579018620925e-18 4.15964978270622e-31 2.36820002843982e-34 -1.30326512211653e-61)
(0.0431901855876745 -2.44676902702173e-05 5.1629717221692e-20 -8.70987066481291 -0.0474268545043632 7.59484087309985e-19 -3.88669293905489e-20 -6.82386709226693e-23 8.86224529147534e-42)
(0.043477548745037 -1.58787783291856e-05 2.42862421528502e-20 -8.22195305055755 -0.04685701684438 8.73505101289253e-19 3.88669293905437e-20 6.82386709226603e-23 -8.86224529147417e-42)
(0.0435560507690914 -8.17382990360435e-06 -2.43723183118135e-20 -7.73354888739629 -0.0461122588809755 -8.62495089548142e-19 -1.74041377421114e-20 -3.46801603194989e-23 2.42411998044441e-42)
(0.0434536589184001 -1.59241955816305e-06 2.71534334632568e-20 -7.24645617437793 -0.0452194464810856 3.81712902230991e-19 1.74041377421503e-20 3.46801603194389e-23 -2.42411993463668e-42)
(0.0432008718109176 3.83864632821936e-06 -2.72573989105934e-20 -6.7621894612403 -0.0442128849237146 -1.19356243064804e-18 0 0 0)
(0.0428256477272413 8.24673898851079e-06 -1.72683220500393e-30 -6.28199274781832 -0.0431175802185113 3.633237749373e-19 0 0 0)
(0.0423507497580769 1.19482314163803e-05 8.82780007800448e-31 -5.8068906728706 -0.0419586182323531 4.72935284628623e-19 -5.56111157776653e-31 -8.91550611952547e-34 -6.60412834367331e-61)
(0.0417831070608901 1.5583118424447e-05 1.72601690977283e-30 -5.33777054251384 -0.0407426283399403 1.19725026705807e-29 2.58845330464823e-31 4.64272200439541e-34 -1.70152413616543e-61)
(0.0411256364767325 1.89371919702075e-05 -8.82780007800446e-31 -4.87555287387484 -0.039469851024491 6.40149392819317e-33 0 0 0)
(0.0403918360707996 2.17346633980176e-05 1.4735582569812e-14 -4.42102616481778 -0.0381564857526359 0 0 0 0)
(0.0395997806838915 2.37876644155319e-05 1.50332136864534e-14 -3.97483041208128 -0.0368150890502664 1.98584839935529e-13 3.18129152544979e-15 7.9338466508817e-18 -4.53885942702762e-29)