/*--------------------------------*- C++ -*----------------------------------*\
  =========                 |
  \\      /  F ield         | OpenFOAM: The Open Source CFD Toolbox
   \\    /   O peration     | Website:  https://openfoam.org
    \\  /    A nd           | Version:  7
     \\/     M anipulation  |
\*---------------------------------------------------------------------------*/
FoamFile
{
    version     2.0;
    format      ascii;
    class       volScalarField;
    location    "20000";
    object      k_conv;
}
// * * * * * * * * * * * * * * * * * * * * * * * * * * * * * * * * * * * * * //

dimensions      [0 2 -3 0 0 0 0];

internalField   nonuniform List<scalar> 
15600
(
-1.94915645447571e-06
-6.29906644571094e-08
-3.17274477753284e-08
2.26185916712047e-09
-4.39335683848503e-08
-2.04123372049466e-08
-5.80163110303772e-09
-1.14027150380871e-09
-5.0670472070878e-10
-2.92631077569756e-10
-5.85594332584429e-10
-1.25800773841862e-09
-2.44139460926718e-09
-4.31374570141145e-09
-6.53897169466446e-09
-8.33788228927471e-09
-9.10781653862208e-09
-1.51580229680237e-08
-1.06812724440288e-07
-1.99701502737236e-07
-9.33319336907718e-09
-4.7938322993735e-08
-7.67368175567101e-08
-9.85194877800074e-08
-1.13668565338976e-07
-1.26578591706095e-07
-1.34941810927005e-07
-1.41920117318558e-07
-1.45811541276618e-07
-1.48061658669113e-07
-1.47804306205944e-07
-1.4580033381798e-07
-1.41930213726832e-07
-1.37010957582027e-07
-1.31330612302464e-07
-1.24370956625545e-07
-2.77024152626365e-07
-6.31413661113973e-07
-9.83877615351585e-07
-1.32585041228512e-06
-1.65066571421178e-06
-1.95257203850778e-06
-2.22696302632871e-06
-2.47037740207832e-06
-2.68037805885303e-06
-2.85593940115583e-06
-2.99684801822208e-06
-3.10443400842306e-06
-3.18021988273745e-06
-3.22683267690695e-06
-3.24642675698411e-06
-3.24053416523627e-06
-3.21238756542882e-06
-3.16510215973947e-06
-3.10291643664674e-06
-3.02878929952404e-06
-2.94600081773172e-06
-2.85586930063629e-06
-2.7589260506132e-06
-2.65743129106182e-06
-2.55284796769167e-06
-2.44778674556102e-06
-2.34270977411022e-06
-2.23813111399275e-06
-2.13461896718787e-06
-2.03315308691174e-06
-1.93450910019109e-06
-1.83847170038284e-06
-1.74526900877818e-06
-1.65474433801327e-06
-1.56731047813619e-06
-1.48289946038511e-06
-1.40124473303253e-06
-1.32227170731908e-06
-1.24576087743837e-06
-1.17103956014432e-06
-1.09878685826307e-06
-1.02871063080072e-06
-9.59716855333795e-07
-8.92267811086754e-07
-8.24923925877748e-07
-7.58754101651085e-07
-6.90962763154286e-07
-6.24426907395303e-07
-5.53297833742011e-07
-4.84746801349531e-07
-4.06014102374265e-07
-3.3417160618514e-07
-2.40712727833776e-07
-1.65596908012323e-07
-4.47680553860823e-08
-1.10410815220246e-08
-1.16871882582986e-08
-1.17033785516979e-08
-1.30833531289542e-08
-1.22600374845423e-08
-1.36332521173533e-08
-9.9803802415809e-09
-1.00938795368533e-08
-1.45943680961204e-07
-1.19966282833816e-06
-2.3402600342948e-06
-3.47044836248392e-06
-4.79014751731357e-06
-5.93989471454033e-06
-5.55314758829652e-06
-4.47856996397669e-06
-2.74692352324946e-06
-8.48484632343315e-07
-1.49187137817521e-07
-1.28251297226076e-07
-1.48049262477273e-07
-1.87120459301257e-06
-2.53029652515452e-06
-4.4482621055803e-06
-5.3862925547112e-06
-1.32669059297219e-07
-4.43976374421788e-07
-2.74374581407974e-07
-3.83140997272131e-08
-3.35137934558389e-05
-3.94442816572853e-06
-2.56001192689883e-06
3.20802227136001e-07
-9.40395825834921e-07
-4.5810636552604e-07
-1.23003886921515e-07
-3.43612371552317e-08
-1.42023339532234e-08
-2.60925435907669e-08
-5.22271634082224e-08
-1.06786555096403e-07
-2.07764194085079e-07
-3.65028441142495e-07
-5.63123865414861e-07
-7.45723429882754e-07
-8.59701129062975e-07
-8.54608269766339e-07
-2.28119608440758e-06
-3.44548173572385e-06
-1.04684070255222e-06
-3.68926403410567e-06
-5.91107137499854e-06
-7.51564640041104e-06
-8.73416499329826e-06
-9.7585638640911e-06
-1.04900340750289e-05
-1.1098131970503e-05
-1.1493430900199e-05
-1.1760462923154e-05
-1.18547965713632e-05
-1.18248398050432e-05
-1.16723438618835e-05
-1.14600459260174e-05
-1.12158670228475e-05
-1.11652771081708e-05
-1.8546505158651e-05
-2.57490282728585e-05
-3.27931362914312e-05
-3.95327327217391e-05
-4.58522271206983e-05
-5.16557528833354e-05
-5.68683287106603e-05
-6.1436131423183e-05
-6.5324867363539e-05
-6.85240577233997e-05
-7.1039335499714e-05
-7.28997159985262e-05
-7.41395799288601e-05
-7.48077174592817e-05
-7.49460124130762e-05
-7.45910902973187e-05
-7.3805840329968e-05
-7.26541555755409e-05
-7.12134403709551e-05
-6.95411843281266e-05
-6.76936236037146e-05
-6.56951388468628e-05
-6.35618192842322e-05
-6.13367811432635e-05
-5.90531636942398e-05
-5.67561799459395e-05
-5.44559709762187e-05
-5.2163015191481e-05
-4.98911070268731e-05
-4.76598236039608e-05
-4.54832238818072e-05
-4.33579684963115e-05
-4.12879617773062e-05
-3.92711220276271e-05
-3.73165857710137e-05
-3.5422674776057e-05
-3.3584646523669e-05
-3.17346286767876e-05
-2.99824137272405e-05
-2.83045497325841e-05
-2.66653173068707e-05
-2.50644714099939e-05
-2.34866080270374e-05
-2.19359195253384e-05
-2.03895934941574e-05
-1.88584412919217e-05
-1.73001377234014e-05
-1.57486826018301e-05
-1.41194688994141e-05
-1.25022547084973e-05
-1.07184268868651e-05
-8.98591106184738e-06
-6.9144710810162e-06
-5.01805168525293e-06
-2.43495625586049e-06
-1.19033379449729e-06
-1.09996887343183e-06
-1.05848322902827e-06
-9.68738092380956e-07
-9.15978270305313e-07
-7.23652536948927e-07
-5.76220108551671e-07
3.14218982143868e-08
-1.08544494864404e-06
-2.74251707090798e-05
-5.14153017070528e-05
-7.53575127081731e-05
-0.000102462772471492
-0.000125857442881585
-0.000121878196690583
-0.000102882151129404
-7.00635995987816e-05
-3.19529853174366e-05
-1.32405320501399e-05
-1.14732085742193e-05
-1.07418620254543e-05
-4.17746648554894e-05
-6.1483555581241e-05
-0.000101656994508822
-0.000127271172007568
-9.68561723959749e-06
-2.36238047121278e-05
-1.5951829021393e-05
-1.56401737134023e-06
-0.000151552633542956
-2.33453061345826e-05
-2.04293580358708e-05
5.67188076910427e-06
-5.68559025352983e-06
-2.7758058061738e-06
-7.44328428792446e-07
-2.67519585394509e-07
-1.71241069561987e-07
-2.88191863694601e-07
-5.57936187972853e-07
-1.1024796346135e-06
-2.14180831642732e-06
-3.77992492032217e-06
-5.94911259479367e-06
-8.16978142096705e-06
-9.85760702656171e-06
-1.04078634837039e-05
-1.38220488758574e-05
-1.53244179660606e-05
-1.08788362733166e-05
-3.28371164151904e-05
-5.14047575694186e-05
-6.63077361008681e-05
-7.7744202945275e-05
-8.79977938567363e-05
-9.56307617386909e-05
-0.000102340080517402
-0.000107217060574223
-0.000111136457484798
-0.000113712536244524
-0.000115425845858719
-0.000116311552828258
-0.000116994000970743
-0.000117665715892667
-0.000140694298365161
-0.0001715851380202
-0.000201435226491962
-0.000229791004996232
-0.00025626921455397
-0.000280581104465851
-0.000302504681788128
-0.000321880225365583
-0.000338609394842233
-0.000352650959787545
-0.000364027891478548
-0.000372808882943856
-0.000379118539352024
-0.000383093066992494
-0.000384896084209911
-0.000384672926842288
-0.000382570619223319
-0.000378816817766579
-0.000373647805187808
-0.000367328549589442
-0.000360057601621816
-0.000352010270471189
-0.000343261807955387
-0.000333887613719962
-0.000324056178215429
-0.000313910823846684
-0.000303612391271975
-0.000293198987398979
-0.000282716648278548
-0.000272235473702623
-0.000261841870720906
-0.000251595566637977
-0.000241485019361485
-0.000231530321049073
-0.000221729661558351
-0.000212134527322534
-0.000202279770072213
-0.000192521123572749
-0.000183565821599447
-0.000174781803980165
-0.000166169964775435
-0.000157684860608116
-0.000149320928878198
-0.000141016384632425
-0.000132778178956126
-0.000124516150482482
-0.000116251766914478
-0.000107820774489388
-9.93151065788974e-05
-9.04179898849846e-05
-8.13972386833001e-05
-7.16051946205326e-05
-6.17179088912419e-05
-5.03518678539129e-05
-3.91351761096453e-05
-2.50583621827343e-05
-1.52508772623657e-05
-1.28936842143141e-05
-1.11202116491939e-05
-8.35697668534295e-06
-6.31540726543481e-06
-2.16056191709631e-06
8.41584533806887e-07
8.8330580205844e-06
5.80104366303248e-06
-0.00014804847948377
-0.000274587702501338
-0.000398864244255363
-0.000540113857745956
-0.000669536707508965
-0.000683635368087656
-0.000615842225940399
-0.000467142163220742
-0.000272514171889448
-0.000149787563254804
-0.000128156585085937
-0.000121683650107934
-0.000276053110574877
-0.000412288716234916
-0.000638154768766946
-0.000793401817889598
-9.67007483042376e-05
-0.000106306456354917
-6.18719795690374e-05
1.79436466091705e-05
-0.000308807438950645
-4.70601298415577e-05
-8.36850181965369e-05
3.78583025114791e-05
-1.92552978575977e-05
-9.51692721165482e-06
-2.58608749956326e-06
-1.10362559620246e-06
-8.73433147893488e-07
-1.41499072987198e-06
-2.64815239614528e-06
-5.1344767533718e-06
-9.89791144326478e-06
-1.74885161334002e-05
-2.77505490619937e-05
-3.8748853079637e-05
-4.76787928028906e-05
-5.11572074012507e-05
-4.3723738928375e-05
-3.08342863218574e-05
-4.22750057559244e-05
-0.000123121777010258
-0.000176161241101429
-0.000226257829815195
-0.000261666491460346
-0.000295994813252802
-0.000320657553556238
-0.000343671391419991
-0.00036101131260983
-0.000376542734777442
-0.000388803889071957
-0.000399624773866233
-0.000408977939712293
-0.000419073010585239
-0.000447541585621049
-0.000507813173016005
-0.000551203620086701
-0.000591052981243516
-0.000627198096109901
-0.000659566570082028
-0.0006881324324865
-0.000712913775847835
-0.000733964707154099
-0.000751376183081946
-0.000765276034797599
-0.000775826445043079
-0.000783212498456687
-0.00078763189080611
-0.000789269829579995
-0.000788301050075655
-0.000784896696988242
-0.000779265364927525
-0.000771687141970256
-0.000762443506499037
-0.000751809710788244
-0.000739972264823969
-0.000727057574248261
-0.000713098859351218
-0.000698201364435134
-0.000682582417384339
-0.000666439536119081
-0.00064993901426073
-0.000633096753586672
-0.000615964506337768
-0.000598653154177668
-0.000581284200947232
-0.000563937344202653
-0.000546576234858579
-0.000529226648605548
-0.000511762494243469
-0.000490458548436999
-0.000473574669635198
-0.000456790899758645
-0.000440096315135768
-0.000423489081974667
-0.000406972038123531
-0.000390474982634686
-0.000373981965412688
-0.000357393864709385
-0.000340703534316354
-0.000323765118810557
-0.000306575075274489
-0.000288869072105076
-0.000270713379095485
-0.000251612977934086
-0.000231826121739962
-0.00021037683142474
-0.000187984772531757
-0.000162624509957785
-0.000136117963410798
-0.000104129393021819
-7.1878112704279e-05
-5.88388818610421e-05
-4.63312808384839e-05
-2.98401055737746e-05
-1.43957931195229e-05
7.97469243927884e-06
3.03543019200863e-05
5.96646770504869e-05
5.07391749014287e-05
-0.000311060670567251
-0.000593499741796967
-0.00086599361517946
-0.00118628651007863
-0.00151853486078799
-0.00167874086164392
-0.00166007049524346
-0.00142596494175899
-0.0010112741603633
-0.000685079883237476
-0.000567341738143888
-0.000553395740880437
-0.000961952786037804
-0.00143125342725305
-0.0021103253681896
-0.00258503524654304
-0.000460577157220175
-6.38064135610485e-05
0.000146765622620087
0.000253022477045305
-0.000145686193069241
-3.49148242621136e-06
-0.00027189848012439
0.000154880695784248
-4.64521074851646e-05
-2.39031456380993e-05
-6.60295192454036e-06
-3.18982233617147e-06
-2.88378321419867e-06
-4.60358369068971e-06
-8.39768607351323e-06
-1.60276885993673e-05
-3.03619678021688e-05
-5.28484457191235e-05
-8.25032546139833e-05
-0.000113230411422132
-0.000136824330502758
-0.000145306940915307
-0.000130748455874061
-9.91596099166284e-05
-8.42703357816434e-05
-0.000244436063548823
-0.000306599842323457
-0.000407590536700727
-0.00047142831970419
-0.00054085231803803
-0.000588729002218649
-0.000635455429247171
-0.000671127905465322
-0.000704336634305479
-0.000731869313490836
-0.000757171331276197
-0.000779721205946291
-0.000798995819854316
-0.000885214307278859
-0.00091955520476364
-0.000949686863456305
-0.000975190982051095
-0.000996364890008367
-0.00101356103398335
-0.00102707848150696
-0.00103720730490619
-0.00104422419175544
-0.00104839944211834
-0.00105000052445568
-0.00104928158808355
-0.00104647980993022
-0.00104178971717238
-0.00103536524303118
-0.00102731205657424
-0.00101775810133658
-0.00100689651785727
-0.000994952353834717
-0.000982129992753898
-0.000968583453536917
-0.000954378707911914
-0.000939503164606115
-0.000923897118187258
-0.000907643769916639
-0.000890913145167422
-0.000873867314605759
-0.000856579980947574
-0.000839004058848496
-0.000821150551704324
-0.000803110929229359
-0.000784974275652877
-0.000766790146958511
-0.00074848135252904
-0.000727772357894478
-0.000703327039085381
-0.000685063647279791
-0.000666757952205827
-0.000648426195054285
-0.000630037474941057
-0.000611580043658621
-0.000593048059998153
-0.000574369264042252
-0.000555513108743833
-0.000536377103100438
-0.000516927252642463
-0.000497016137029064
-0.000476598104996474
-0.000455416269219195
-0.000433446146833396
-0.00041022741579643
-0.000385815033295254
-0.00035935383538785
-0.000331102063211019
-0.000299389472055314
-0.00026495560553738
-0.000224408535818662
-0.000175574912823906
-0.000136745851177245
-0.000101089727349129
-5.5568600712016e-05
-7.27764960965324e-06
5.68392984759669e-05
0.000133977739159559
0.000194899293555094
0.000167346101385592
-0.000276130279367394
-0.000635703363892194
-0.000979240057702575
-0.00138908758315599
-0.00186240030356051
-0.00224135353981595
-0.00244393176496392
-0.00237363856040162
-0.00198693547537211
-0.00157475657131011
-0.00130862671466089
-0.00134293844785333
-0.00208846882357444
-0.00313899122211698
-0.00452878593432903
-0.00550815797924316
-0.00159076048141866
0.000407532809034412
0.00155840483389805
0.00135168720822157
0.00103359226376956
0.000304322179414525
-0.000638672740978937
0.000425680611793803
-8.7752507385601e-05
-4.88607096305808e-05
-1.37613846450908e-05
-7.32196141413342e-06
-7.32712941739641e-06
-1.16198540431916e-05
-2.07048675947648e-05
-3.85474926746081e-05
-7.03782252940435e-05
-0.000117197028758393
-0.000173380833373618
-0.000224256916416679
-0.000256630912327732
-0.000262731395557209
-0.000234097378288667
-0.000164642450448475
-0.00012745123986246
-0.000353329650657532
-0.000415731336274004
-0.000610634171333929
-0.000713269618699807
-0.000824978754650354
-0.000894362399600867
-0.000960005472177146
-0.00100655874145842
-0.0010480283573945
-0.00108006457613895
-0.00110776568075542
-0.00113102670070755
-0.0011961979435827
-0.00122126875844723
-0.00123626367219702
-0.00124653324825097
-0.00125245219880153
-0.00125461238901655
-0.00125361042653036
-0.00124991757740568
-0.00124395284971862
-0.00123608490448418
-0.00122664659099152
-0.00121593911489598
-0.00120422156478491
-0.00119170894810761
-0.00117854594946018
-0.00116481951922235
-0.00115055294693118
-0.00113580444567689
-0.00112070942716712
-0.00110541784429093
-0.00109004216119183
-0.00107462624270032
-0.00105913074071042
-0.00104343929866694
-0.00102741132824374
-0.0010110919099717
-0.000994598029297903
-0.000978048671394488
-0.000961445494036444
-0.000944692071123639
-0.000927759198375104
-0.000910708093752296
-0.000893594073180252
-0.000876438661041531
-0.000857005617016882
-0.000830144571066655
-0.000812843748352109
-0.000795467260557424
-0.000778024580009843
-0.000760497704279942
-0.000742849298878983
-0.000725058187064524
-0.000707109875543462
-0.000688938338189415
-0.000670504985188878
-0.000651715478705652
-0.000632518424693101
-0.00061278096121195
-0.000592434437253025
-0.000571258600874625
-0.000549171739131132
-0.000525793640355917
-0.000501035629533933
-0.000474233368213831
-0.000445297642639801
-0.000413029687988885
-0.000377310746976676
-0.000335918294733826
-0.000288793757047424
-0.000226029553365616
-0.000170663458889904
-0.000100660874117823
-1.72690852560007e-05
9.06941755406228e-05
0.000246548702188009
0.000348864208953498
0.000308074796656949
-8.58080277339789e-05
-0.000440868866251793
-0.000776637705561177
-0.00117034369742472
-0.00165034838208492
-0.00212523627522059
-0.00248731025679318
-0.0026295544850927
-0.00245297197185357
-0.0021578652687795
-0.00180020951556196
-0.00201860439389529
-0.00298347205100061
-0.00468110859582741
-0.00689307242847007
-0.00853349657334767
-0.00445542060072425
0.0009428583820907
0.00504848584432085
0.00451116300444544
0.00256403680924133
0.00122517366625997
-0.000775820421642738
0.000706975319546664
-0.000132809073864722
-8.48168315315188e-05
-2.45413595294613e-05
-1.41879726397308e-05
-1.55048276873146e-05
-2.4405903225149e-05
-4.21797224657333e-05
-7.51437578577006e-05
-0.000128786809672685
-0.000198995220447755
-0.00027166176440782
-0.000327297430397011
-0.00035750978170093
-0.000359193766446191
-0.000321856602208129
-0.000242955548399319
-0.000242276767658442
-0.000532993427810068
-0.00060657541648752
-0.000893005472592856
-0.00101336330019445
-0.00114697084730046
-0.00121980567162902
-0.00128754967052911
-0.00133066940702016
-0.0013670086756425
-0.00139160390786694
-0.00141043490067374
-0.00141767095977448
-0.00147379742777195
-0.00147455196830163
-0.00147204929397576
-0.00146515767189984
-0.00145458663139171
-0.00144108744866057
-0.00142537608929994
-0.00140800270028172
-0.00138943562947439
-0.00137006955742393
-0.00135024641286908
-0.00133025849105121
-0.0013103409453557
-0.00129066864261219
-0.00127133465948376
-0.00125236380461486
-0.0012337110673629
-0.00121536616906656
-0.0011974013436851
-0.00117990234059026
-0.00116290659576717
-0.00114637890507845
-0.00113020452059336
-0.00111419910696663
-0.00109815579809391
-0.00108208094147905
-0.00106605002370591
-0.00105014952934845
-0.0010343364652446
-0.00101847951939488
-0.00100251714484078
-0.00098648359735995
-0.000970411338494162
-0.00095430356668713
-0.000925181939040253
-0.00090758405628159
-0.00089127301974434
-0.000874900223695612
-0.00085844432346419
-0.000841872656123713
-0.000825145679266853
-0.000808236454925346
-0.000791125423547426
-0.000773753461967783
-0.00075608010306932
-0.000738019227207046
-0.000719511650276674
-0.000700436554368969
-0.000680717590709269
-0.000660162369893563
-0.000638666245327094
-0.000615901349868128
-0.000591715613864043
-0.000565555806784763
-0.000537177263684915
-0.000505637955955219
-0.000470431902777863
-0.000429951261225556
-0.000383080048172568
-0.000315510094742351
-0.000252377019105911
-0.000172933757515391
-7.03148559281745e-05
5.84168235531954e-05
0.000273121548797002
0.000406940003833663
0.000409692689400826
0.000109096135172757
-0.00020234022476158
-0.00049965343542252
-0.000842051562293823
-0.00127250409371612
-0.00174438704476786
-0.00214886367664139
-0.00239250528794812
-0.00236532814816131
-0.00219610093582178
-0.00193217275390773
-0.00211094476808395
-0.00306769409655483
-0.00513246071142818
-0.00802474141903295
-0.0104029080506908
-0.00744204184764832
0.000572745567519367
0.00926263503205926
0.0100990495749737
0.00594587597086787
0.00306690480129257
-0.000146337871635856
0.00104359149822939
-0.000152381383010577
-0.000125740317707263
-3.80082871408147e-05
-2.38634600694982e-05
-2.83453367913554e-05
-4.39715829622474e-05
-7.27206592767946e-05
-0.000121506709740442
-0.000192171659683353
-0.00027389654339512
-0.000349557355230039
-0.000404831412007741
-0.000437346885740356
-0.000443930613666024
-0.000415562763923183
-0.000368121919771127
-0.000451615868668366
-0.000777985718289366
-0.000858173142539916
-0.00120001220228607
-0.00131834577809163
-0.00145620259185309
-0.00152182314632677
-0.00158233066671179
-0.00161561089638739
-0.00164140505327737
-0.00165460939651129
-0.00166201322361324
-0.00168865781791361
-0.00168857724781193
-0.00167565741526491
-0.00165915803264369
-0.00163877321806726
-0.00161536988369486
-0.00158979614149965
-0.0015628354583788
-0.00153508069666758
-0.0015070203999073
-0.00147905274816244
-0.00145151227478607
-0.0014246716485516
-0.00139873803401564
-0.00137384829728549
-0.00135005313258034
-0.00132732786661567
-0.00130557405629135
-0.00128471989123569
-0.00126477938952855
-0.00124578733912236
-0.00122772373332924
-0.00121049777733171
-0.00119394165393313
-0.00117782567992547
-0.00116188686150198
-0.00114609566626809
-0.00113049569188469
-0.00111515042473395
-0.00109998977934287
-0.00108485670892126
-0.0010696631104341
-0.00105441966765796
-0.00103914417347489
-0.00101537628451977
-0.000991836692231154
-0.000976473445305486
-0.00096092830458679
-0.000945314472251759
-0.000929598532821498
-0.000913741441849204
-0.000897702724035532
-0.000881451633175023
-0.000864965505759915
-0.000848190651015968
-0.0008310874228251
-0.000813575643795484
-0.000795592872174087
-0.000777025544831343
-0.000757796118135749
-0.000737728846409866
-0.000716712803423659
-0.000694445733690875
-0.000670754777160504
-0.00064513159945716
-0.000617283679599082
-0.000586358590258932
-0.000551739269348535
-0.000512008141929136
-0.000465747541562299
-0.000397913252222491
-0.000333174350344383
-0.000250980371574547
-0.000140028965625759
-4.42625250480166e-06
0.000242864496594364
0.000397758496201402
0.000467053384917288
0.000265324571357028
1.15615974601184e-05
-0.000240951497860135
-0.00053134467470406
-0.00090704994729914
-0.00134337576457104
-0.00173439090417561
-0.00200036005751581
-0.00203281580731643
-0.00192411328863744
-0.00163700841585376
-0.00175674481433301
-0.00251761289794869
-0.00452747670825033
-0.00770799147926793
-0.0106120625260341
-0.00962451481527599
-0.000922658505433422
0.0110193236817856
0.0160263925851515
0.0101043039131462
0.00571788567931003
0.00152156300845784
0.00159695848793634
-9.06450628384183e-05
-0.000154404001253977
-5.04516653551834e-05
-3.50463671853227e-05
-4.54056486680713e-05
-6.88306685185584e-05
-0.000107804220904179
-0.000168020779104237
-0.000247189600889631
-0.000332891771929117
-0.000410832869628612
-0.000471882948306895
-0.000514081571589806
-0.000534007118586004
-0.000530395907771778
-0.000540494520756525
-0.000709711578206405
-0.00103156509854138
-0.00112562917961628
-0.00149155807290652
-0.00160017376931563
-0.00173284132304918
-0.00178778961137091
-0.00183789982737141
-0.00186012506573036
-0.00187463446885982
-0.00187649290038178
-0.00187054663369503
-0.00189000785895809
-0.00186818764668439
-0.00184415092287804
-0.00181659532601787
-0.0017856490610806
-0.00175225919128043
-0.00171733834813942
-0.00168171384110997
-0.00164600474970624
-0.00161070735555583
-0.00157621427578918
-0.00154284694333489
-0.00151085613432274
-0.0014804224166685
-0.00145164995487244
-0.00142455578746813
-0.00139907673580491
-0.00137507201294964
-0.00135241482949168
-0.00133106715199338
-0.00131102330735197
-0.00129221954175575
-0.00127452568144625
-0.0012577364599625
-0.00124159144791812
-0.00122577883104441
-0.00121023641670845
-0.00119498269443976
-0.00118006507959595
-0.00116539769180897
-0.0011508039489865
-0.00113617333371837
-0.00112149525216129
-0.001105885259872
-0.00107316416819512
-0.00105858963387511
-0.00104372703914611
-0.00102870646101076
-0.00101360158100632
-0.000998373281851665
-0.000982979832597466
-0.000967380352410258
-0.000951541233296037
-0.000935437575355224
-0.00091901958218759
-0.000902249355314087
-0.000885050572900694
-0.00086735924364752
-0.000849065337287561
-0.000830092106924971
-0.000810272609276225
-0.0007894960398315
-0.000767469017036282
-0.000744016114086644
-0.000718635445686088
-0.000691034995133296
-0.000660358628059364
-0.00062600700289795
-0.00058651951512307
-0.000540531321971619
-0.000472551822809963
-0.000408238183174086
-0.000324460614995845
-0.000209340815807386
-7.02709981974484e-05
0.000194733037362619
0.000370782820570824
0.000495777054092837
0.000384363686379561
0.000191253637561363
-1.75286125041226e-05
-0.000263230951538077
-0.000592692932924753
-0.000988895346293709
-0.00134834641082057
-0.00160173370780318
-0.00164273845397866
-0.00154554699399188
-0.00121222474187989
-0.00121449622840109
-0.00170225780838295
-0.00336900917722334
-0.00641588032546891
-0.00938855066840679
-0.0103794603993655
-0.00227984834712362
0.00861505945536472
0.0197103672435283
0.0136534142244102
0.00856714432964254
0.00385350015889975
0.00273822634887354
0.00013919152009135
-0.000141701272021649
-5.42273506218337e-05
-4.4343561577326e-05
-6.39417263134382e-05
-9.46650615406677e-05
-0.000141081462163553
-0.0002084665331132
-0.000292545534111375
-0.000382699067592314
-0.000466835816486282
-0.000538244320622513
-0.000594224669420128
-0.000633737955443392
-0.000665782283704862
-0.000741981234490853
-0.000975751035983257
-0.00127075282899802
-0.00138727523381974
-0.00175488467558286
-0.00185241069288652
-0.00197556278381684
-0.00201980372044376
-0.0020592071655481
-0.00207115847871466
-0.00207529772305629
-0.00206720910736127
-0.00204761031140974
-0.00205414103983691
-0.00202392665023982
-0.00199090066590011
-0.00195455522684397
-0.0019152705272379
-0.00187403278141796
-0.00183179870892706
-0.00178942623306053
-0.00174755082993957
-0.00170666964540032
-0.00166716491362071
-0.00162934243728735
-0.00159343093036948
-0.00155958654596461
-0.00152788564354531
-0.00149831840299854
-0.0014707916534725
-0.00144513038865
-0.00142115832684536
-0.00139879092490101
-0.00137799001677919
-0.00135865848928087
-0.00134063828434381
-0.0013236979513166
-0.0013075564779188
-0.00129185892273734
-0.00127651339611539
-0.00126151813758874
-0.0012469094583036
-0.00123259349503425
-0.00121837874174465
-0.00120413545340618
-0.00118983380049896
-0.00116383625842866
-0.00114043911939999
-0.00112612142765062
-0.0011115722289518
-0.00109687047105032
-0.00108206450336169
-0.00106711220384938
-0.00105197102627472
-0.00103660002662722
-0.00102096325270977
-0.00100503392709954
-0.000988764962668647
-0.000972120415187061
-0.000955026286426249
-0.000937417477839499
-0.000919184950838585
-0.000900252828481076
-0.000880458031682109
-0.000859691457049599
-0.000837659046033917
-0.000814188834909117
-0.000788765238447636
-0.000761114366649184
-0.000730330047149933
-0.000695880577416349
-0.000656149962484972
-0.000609967382188954
-0.000547158273293722
-0.000477601918585454
-0.000391695618729192
-0.000273595098970933
-0.000130646279511083
0.000144742056860677
0.000345567337152351
0.000508993809433294
0.000474917196352894
0.00034092255938903
0.000173095857556666
-3.54625519013776e-05
-0.000328294989724284
-0.000687600354909063
-0.00101138407935721
-0.00123864184855014
-0.00126469180411386
-0.0011535011192955
-0.000767497821818887
-0.000634707873890484
-0.000844160872456762
-0.00205254120676278
-0.00468396042818407
-0.00731220924597878
-0.00981577520200732
-0.00243869387984132
0.0033870536643741
0.0208551720923759
0.015847637847637
0.0113061424017552
0.00624307286154142
0.00480214103682533
0.000401204789383873
-5.72271343050285e-05
-3.8454753803492e-05
-4.64396108471393e-05
-7.93290957739375e-05
-0.000116740449893414
-0.000169396896196758
-0.000243475834337897
-0.000332668502037059
-0.000428804881903656
-0.000521264598924514
-0.00060525373915463
-0.000677917907478097
-0.000741856566560599
-0.000815371941455983
-0.000954909536050855
-0.00123029480092152
-0.00149261601479078
-0.00163359400532192
-0.00198911187933566
-0.00207682510488504
-0.00218885773154737
-0.00222353754324177
-0.00225293393031689
-0.00225587837119549
-0.00225091653361169
-0.00223461653610177
-0.00221055049591791
-0.00219981322545113
-0.00216253517253589
-0.0021222345444008
-0.00207886539969955
-0.00203296372181422
-0.00198552924998553
-0.00193754786024983
-0.00188989929051669
-0.00184322826717251
-0.00179802811721194
-0.00175466741121899
-0.00171343483302687
-0.00167453730818414
-0.00163810854230034
-0.00160420106336561
-0.00157278335395922
-0.00154373884143871
-0.00151686449691455
-0.00149193916331886
-0.00146883650083098
-0.0014474920011837
-0.00142778322392997
-0.00140953273580288
-0.00139249137749287
-0.00137636517295931
-0.00136076079846899
-0.00134555928792628
-0.00133074228332071
-0.00131633857405138
-0.00130225215000853
-0.00128828025744032
-0.00127427653076095
-0.00125924864735052
-0.00122330522846316
-0.00120945875740503
-0.00119526486591982
-0.00118086737101007
-0.00116631225189723
-0.00115163059169709
-0.001136778562987
-0.00112171389769843
-0.00110639588283917
-0.00109078654478247
-0.00107485734582981
-0.00105856306469615
-0.0010418696375346
-0.0010247043146093
-0.00100700076485241
-0.000988649226572976
-0.000969573983484638
-0.000949612772247736
-0.000928657567898627
-0.000906408386836858
-0.000882696881615393
-0.000856984083575201
-0.000829016636187088
-0.000797818342944164
-0.000762935135893737
-0.000722550773838277
-0.00067572387803178
-0.000620805718738078
-0.000542141246144702
-0.000453448162150925
-0.000332464508608202
-0.000184334833692527
9.78173064736976e-05
0.000326611496170298
0.00051455662138767
0.00054465086940387
0.000466397583287925
0.000336572381285364
0.000158880647193818
-0.000105244395723339
-0.000432035493540029
-0.000720333172605888
-0.00091646402374398
-0.000917552758010703
-0.000780801875054243
-0.000344175411145225
-8.06236429734669e-05
-3.56533634650504e-05
-0.000777809833096495
-0.00286575288759686
-0.00493620323713784
-0.00841573755210738
-0.00187435318151504
-0.00178423716728402
0.0185209448164692
0.0160383615816628
0.0146060008025295
0.00805769436539748
0.00777752741098239
0.000912849291062814
0.000110756113032962
7.01814425868124e-06
-3.58710169616691e-05
-8.73327632729602e-05
-0.000132950513238325
-0.000193575135812626
-0.000275422260846861
-0.000369619666320612
-0.000472046376910909
-0.000573856499655415
-0.000672113376667749
-0.000764007791044766
-0.000855729167738797
-0.000972333225735221
-0.00116719511906299
-0.00146683198361619
-0.00169851648996336
-0.00186123473582119
-0.00219749764422874
-0.0022773218185842
-0.00237794153933388
-0.00240439266500267
-0.00242473526025771
-0.00241990449457908
-0.00240703881556443
-0.00238382419343765
-0.00237370753717273
-0.00233142629696703
-0.00228828076641427
-0.00224210556316758
-0.0021931319895557
-0.00214199375341317
-0.00208968609191601
-0.00203721203043907
-0.0019854664433923
-0.00193509739162783
-0.00188659067782585
-0.00184029854084519