/*--------------------------------*- C++ -*----------------------------------*\
  =========                 |
  \\      /  F ield         | OpenFOAM: The Open Source CFD Toolbox
   \\    /   O peration     | Website:  https://openfoam.org
    \\  /    A nd           | Version:  7
     \\/     M anipulation  |
\*---------------------------------------------------------------------------*/
FoamFile
{
    version     2.0;
    format      ascii;
    class       volScalarField;
    location    "20000";
    object      k_diff;
}
// * * * * * * * * * * * * * * * * * * * * * * * * * * * * * * * * * * * * * //

dimensions      [0 2 -3 0 0 0 0];

internalField   nonuniform List<scalar> 
15600
(
0.00167482739208893
0.00118054274574531
0.000460921327556582
8.75553143322924e-05
5.6057314056457e-05
4.08728071077651e-05
1.59301440495398e-05
1.00429735144565e-05
8.73908084482099e-06
9.39947225360417e-06
1.15951634021036e-05
1.55237653258306e-05
2.17028128533147e-05
2.99834862073277e-05
4.01244541138404e-05
5.12509878647948e-05
6.20831165642124e-05
7.21768985306984e-05
8.10474507068732e-05
8.70539880472122e-05
9.17263795221819e-05
0.000112754365398117
0.000168122041236917
0.000230802261825895
0.000295469478330475
0.000359920500144084
0.000424354964359958
0.00048773086658521
0.000550309256362084
0.000611497374675594
0.000671229117766006
0.00072904222578716
0.000784727131262277
0.000837986998551387
0.00088878306544365
0.000937134552217843
0.00098265934506168
0.00102389319269993
0.00106066357484665
0.00109284199213945
0.00112038840224119
0.00114332977405939
0.00116175331379073
0.00117580100994171
0.00118566271417639
0.00119157289929949
0.00119379723655568
0.0011926284449924
0.00118836223893477
0.00118129660696944
0.00117171146152106
0.00115988760303351
0.00114613704844992
0.00113076801552561
0.00111408086392431
0.00109632623129944
0.00107771448852272
0.00105838791164561
0.00103847574741009
0.00101814907655266
0.000997566057429786
0.000976885048522592
0.000956183851183454
0.000935526659404231
0.000914987592240943
0.000894660123564921
0.000874608099684991
0.000854858287337932
0.000835436629936382
0.000816364098545219
0.000797615763430798
0.000779261003837443
0.000761221852252121
0.00074350824219241
0.000726098150831784
0.000708976204231707
0.000692107781393023
0.000675466095189009
0.000659007065156238
0.000642700582334253
0.000626489883472745
0.000610336501931754
0.000594151112179858
0.000577896646070353
0.000561429157375639
0.000544736519772849
0.000527567891442207
0.000509985324476581
0.00049150773129069
0.000472392301132714
0.000451656146796046
0.000430281854595734
0.000407489931256738
0.000383901697356815
0.000356274546106344
0.00032744843727899
0.000290828793712117
0.00025355840905853
0.00020245738221247
0.000229844433607165
0.000320452244692438
0.000429746230611414
0.000555326939958657
0.000703379120921835
0.000865441916037584
0.000999757020554856
0.00110248783014934
0.00116577848299238
0.00119111961324622
0.00122716551047823
0.00130800611640458
0.00143932120107998
0.00171328606197404
0.00207819591921134
0.0025879494285172
0.00320299453544279
0.00324169766122708
0.00248190189689457
0.00175492364165267
0.0015218755791099
0.00910577624884693
0.00644311095414874
0.00252599693465821
0.000485976043275634
0.000306639635618183
0.000224635955647705
8.81979271767154e-05
5.5251448916933e-05
4.78664138000936e-05
5.13066250033937e-05
6.31312529603122e-05
8.43693757924442e-05
0.000117853242780395
0.000162836361465668
0.000218058142120747
0.000278866972484451
0.000338280722005841
0.000393814378863879
0.000441316488739391
0.00047346113515369
0.000502262709899944
0.000616636965087199
0.000915067124295721
0.00125256448793782
0.00159947396896388
0.0019444720372733
0.00228870171192392
0.00262685843443122
0.00296046317331804
0.00328652683006193
0.00360482499968491
0.00391303307709937
0.00421013845679903
0.00449463879370981
0.00476639820574313
0.00502538948926669
0.00526244994252465
0.00547739620794843
0.00566920418144716
0.00583730578886933
0.00598154930295273
0.00610210261001001
0.00619942086474109
0.00627422272080139
0.0063274602113444
0.00636030138832712
0.00637407079724933
0.00637022217483906
0.00635023103305481
0.00631558165443143
0.00626768115374013
0.00620795949590716
0.00613799878197045
0.00605937172491342
0.00597360470016521
0.00588198630973988
0.00578559570794112
0.00568518352392559
0.00558144276269137
0.00547526748335634
0.00536749571807354
0.00525895556083066
0.00515007719940134
0.00504121666594494
0.00493278046596651
0.00482527386814037
0.00471904680764461
0.00461426552138894
0.00451108291234033
0.00440963056228753
0.00430977676855352
0.00421191425922121
0.00411563608897463
0.00402107511123787
0.00392801232307227
0.0038363964999848
0.00374608516700709
0.00365694046109797
0.0035687464456974
0.00348134144559256
0.00339444787518561
0.0033078505375863
0.00322111546496154
0.00313400907946601
0.00304584639075509
0.00295646790081912
0.00286471050002238
0.00277067691627862
0.00267218466913961
0.00257007144312357
0.00245994016367204
0.00234499141053634
0.00222144808893909
0.0020933875299082
0.00194386590102535
0.00178735369806052
0.00158933433267486
0.00138681052049554
0.00111090730045014
0.00125846435882976
0.00172974934380596
0.00230501901333367
0.00296851595857459
0.00374950455021138
0.00460518760063375
0.00533307122884899
0.00590298723805558
0.00627309397170355
0.00644748982822206
0.00666672992725875
0.00711405320223276
0.00783908609168031
0.0093052827941457
0.0112698193265224
0.0139858383822089
0.0172458767400461
0.017499977129709
0.0134216573943764
0.00955343857932353
0.00831172093788622
0.021656291793516
0.0154655664143481
0.00612830956802243
0.00119724291388152
0.000736961771905704
0.000543715009916873
0.000215386423035853
0.00013423478006776
0.000115798922803414
0.00012363714832775
0.000151606140972
0.000202016710824947
0.000281401604418296
0.000387878967498746
0.000518112531451833
0.000661141831919517
0.000800594513143908
0.000931002463916859
0.00103996361601607
0.00111555990524691
0.00119342771363107
0.00145468844313212
0.00211221336767805
0.0028410091717063
0.00357698774676152
0.0042996460777202
0.00501500387018015
0.00571434653586879
0.0064031568381326
0.00707687433763738
0.00773659479053917
0.00837870366159365
0.0090020291531438
0.00960390520591351
0.0101845246972953
0.0107221618710045
0.0112162406217152
0.0116707178225382
0.012083598330698
0.0124534449040736
0.0127794340668442
0.0130612381828393
0.0132990061968804
0.0134933574057
0.0136453618394549
0.0137565276476286
0.0138287245382598
0.0138641314143434
0.0138650715682548
0.0138339687642984
0.0137732160155048
0.0136853672776767
0.013573328212034
0.013440085664175
0.0132885907104963
0.0131214314567928
0.0129408256509248
0.0127484293060401
0.0125458130411234
0.0123349291082093
0.0121176668622529
0.0118958957255688
0.0116707440428054
0.0114431712044045
0.0112142283453142
0.0109851715772975
0.010756933552979
0.0105301018334367
0.0103051918642192
0.0100826856609142
0.00986239805546756
0.00964585231885585
0.00943191646042958
0.00922028802621839
0.00901129972707531
0.00880493928951138
0.00860102783290619
0.00839936180231437
0.00819961367103631
0.00800149866019599
0.00780456875693411
0.00760839055188614
0.00741223379438214
0.00721553743928418
0.0070171638880833
0.00681651799928785
0.00661173874086256
0.00640236124176499
0.006185020017707
0.00595983411239375
0.00572018898270723
0.00546625229810532
0.00518834266874233
0.00489888088218045
0.00456500626195853
0.00421133507393539
0.00376968598319171
0.00330826006612166
0.00268823161243475
0.00301453594061181
0.00396833113294586
0.00518295314192048
0.00659730687620308
0.00825737221743606
0.0100847439001512
0.0117210591286852
0.0130693880715325
0.0140409190896199
0.0146272685178926
0.0152761228177214
0.0163661795439073
0.018102929812472
0.021381065630011
0.0257857978954132
0.0317167058571169
0.0387310251883602
0.0395129360375517
0.0306979424966248
0.0225975834163998
0.0199844538859284
0.0359012623785071
0.0261423351568416
0.0107064254631088
0.00214895860743104
0.00126056006055009
0.000939079343006776
0.000376142477663647
0.000233424359075811
0.000200483449131165
0.000213051965579661
0.000259900764262401
0.000344343872534605
0.000475876708290746
0.000649652584796965
0.000857478298073102
0.0010798767786191
0.00129029575508019
0.00148251693543526
0.00164750882176814
0.00176552548563898
0.00187329191324923
0.0022297332055703
0.00308257613793566
0.00398368880746593
0.00488984114249056
0.00577277070543613
0.00665447419833608
0.00752302739447412
0.00838946434514675
0.00924716962317146
0.0100981803015659
0.0109369429572638
0.0117611122352113
0.0125650642566657
0.013330574638016
0.0140311352207827
0.0147029252541392
0.0153313132268216
0.015912730520045
0.0164443645556118
0.016924219947343
0.0173509865517686
0.0177240151967419
0.018043297058366
0.018309433338465
0.0185236046567246
0.0186874864676833
0.0188031745388862
0.0188730187847902
0.0188995518682584
0.0188853473688565
0.0188332101017692
0.0187463485519165
0.0186281312179185
0.0184819283118576
0.0183108034619505
0.0181174560172164
0.0179040413965094
0.0176725920893408
0.0174255377264244
0.0171652944342143
0.0168942998448558
0.0166142377911406
0.0163265655069189
0.0160328202671038
0.0157348043428715
0.0154339559005571
0.0151313869554853
0.0148280595113229
0.0145250480251366
0.0142261133862107
0.0139250761411951
0.0136252557092071
0.0133270570306479
0.0130307471568833
0.0127365790055253
0.0124446438583181
0.0121549425966839
0.0118673786826218
0.0115818233535356
0.0112980490716076
0.0110157197058572
0.0107343326302541
0.0104533173655574
0.0101718348768467
0.00988909781526909
0.00960373828214997
0.00931472645052002
0.00901963247698366
0.00871719084724692
0.00840268090940112
0.00807380699447953
0.00770497024944561
0.00732127000310777
0.00688959748807517
0.00642685387335816
0.00585976846558175
0.00525029001515084
0.00442739462877017
0.00483093920241944
0.00591753996215515
0.00742017356511318
0.00922500238988651
0.0113553243515238
0.013739888013229
0.0160269031373722
0.0180505938045491
0.0196965143738328
0.0209286701690535
0.0222198230079643
0.0240665564173697
0.0268652655093804
0.0316364993851549
0.0379567582079326
0.0459702485877097
0.0550105584999123
0.0563165562040824
0.044684746738909
0.0356153652416773
0.0334434458440582
0.0466037592489407
0.0355900998322095
0.0158002952871313
0.00339581913162326
0.00182461497469063
0.00137562660404303
0.000558804598886355
0.000345563501600768
0.000295275311357886
0.00031176842846035
0.000377021170392175
0.000493531173385887
0.000669567175729086
0.000892048784088985
0.00114207385429455
0.0013889066044069
0.00159920331517939
0.00177221297025479
0.0019061117675404
0.00199432004079097
0.00211683401475097
0.00251431804864072
0.00341186741666728
0.00434504485330373
0.00535244697153411
0.00634622195896245
0.00735860397628102
0.00835697409703258
0.00935127952593218
0.0103264125858344
0.0112818804516209
0.0122085586762813
0.013102582694795
0.0139602345386674
0.0147061837422606
0.0154419902593742
0.0161221625730639
0.0167455548212788
0.0173103959181362
0.017815819314495
0.018261807843744
0.0186489844773768
0.0189785222108528
0.0192520693207816
0.0194716869912523
0.0196397928171401
0.0197590808966653
0.0198324498499142
0.0198628849118078
0.0198533946182148
0.0198069005523719
0.0197263595805248
0.0196148906691344
0.0194756498626898
0.019311696317771
0.0191258119859799
0.0189204373728939
0.0186975765991886
0.0184589984238069
0.0182066888589155
0.0179426162099327
0.0176687871257456
0.0173866616691992
0.0170974557152421
0.0168023979212151
0.016502954812833
0.0162003098295245
0.0158954679465387
0.0155915267740188
0.0152907040608755
0.0149839284443571
0.0146774551901977
0.0143712506896945
0.0140656775468295
0.0137610441055707
0.0134576232699275
0.0131555931943006
0.0128550389688398
0.0125560028840435
0.0122584755910942
0.0119624184283923
0.0116676755761312
0.0113740287786581
0.011081139876804
0.0107885936325492
0.0104958824027888
0.0102022967154575
0.00990714167386218
0.00960908687177029
0.00930727384764914
0.00899893918413443
0.00868651913113869
0.00834335332053996
0.00798650337091141
0.00759841645282298
0.00718802337777161
0.00669876490285489
0.00618523542451084
0.00546231288736058
0.00564897601825957
0.00644826275883812
0.00772928023149989
0.00939195866179733
0.0114138257365868
0.0137694812519281
0.0162091942533614
0.0185270651307353
0.0205728347269585
0.0222372856904364
0.0238569473271866
0.0260571119514098
0.0292215030870621
0.0342997224538526
0.0409742619854189
0.0486839690940908
0.0566412076159323
0.0580889718494288
0.0464002355703315
0.0403816760923298
0.0425432538579863
0.0456302862306531
0.03914605133062
0.0203179638186299
0.00508420007656358
0.00239062493932485
0.00182346797535133
0.000754272018234556
0.00046498267321235
0.000394542142111581
0.000412397956534355
0.000491079082874876
0.00062802214807208
0.000823082366074825
0.00104954028625447
0.0012776591672505
0.00147264062189971
0.00160956012152223
0.00170204773639272
0.00176014511696382
0.00181570715407618
0.00200598606155628
0.0025943813737442
0.00372593027216706
0.00481265421939374
0.00597686799104244
0.00706523926356885
0.00813707150759206
0.00915326353438899
0.0101328717675643
0.0110635456553489
0.0119496301568394
0.0127861496665847
0.0135725456534992
0.0142628485807082
0.014928721513345
0.0155403500253963
0.0160945896066248
0.0165917635292477
0.017032166131797
0.0174166482809989
0.017746577416604
0.0180236864707673
0.0182500036303341
0.0184277993054048
0.0185595499681079
0.0186479018215582
0.0186956281893161
0.0187055824841135
0.0186806342224026
0.0186236182615955
0.0185372498946703
0.0184241765139305
0.0182870741069763
0.018128618045
0.0179513709481504
0.0177576871341167
0.0175496402565999
0.0173289824992338
0.0170971563926819
0.016855694646747
0.0166061064132903
0.0163499605841782
0.016088445975769
0.0158225033135192
0.015553027683294
0.0152811055877331
0.0150076067302449
0.0147354476671418
0.0144706100209138
0.0141969453161408
0.0139238077007721
0.0136513099094887
0.0133795005824435
0.0131085830134248
0.0128387212957359
0.0125700510949104
0.012302649156625
0.0120365120176419
0.011771611388922
0.0115078732924805
0.0112452075574528
0.0109834390060071
0.0107223414490144
0.0104616060073529
0.0102008561814172
0.0099396726003444
0.00967744472045954
0.00941367157781438
0.00914721807872671
0.00887765375572353
0.00860254586812348
0.00832151953255324
0.00803360421494503
0.00772675867296628
0.00739779307493855
0.00705785015202516
0.00665666768314968
0.00626872701871978
0.00567180484654116
0.00552686940271756
0.00603868156457607
0.00704099790881814
0.00844626779645014
0.0102070963579278
0.0123383699478276
0.0146983353772974
0.01710640590877
0.01938744372989
0.0213120126547018
0.0229239012112849
0.0248933962156875
0.0272933993183938
0.0313812055681746
0.0369553272901215
0.0429789112836573
0.0488874741987571
0.049864215351205
0.0383733982687326
0.0327867866749395
0.0385071036458545
0.0290587287474262
0.0336903558801396
0.0225633446833026
0.00719348252800579
0.00293494920110716
0.00224938421943552
0.000952252267527716
0.000584920914618205
0.000491084402532568
0.000504964900373684
0.000586145935055709
0.000722136865734342
0.000901680134128312
0.0010915926852623
0.00126726966969367
0.00140258757340644
0.00148726557749802
0.00154330233335333
0.00158997492981852
0.00169241920537722
0.00203455793607758
0.00288578829846237
0.00422079709385143
0.0053162227173936
0.00644008677352417
0.00743596081944404
0.008397150016191
0.00928948443017378
0.010138298380531
0.0109350248703972
0.0116860457191735
0.012388946297653
0.013050157993612
0.0136089129065408
0.0141631210350965
0.0146639712006859
0.0151143394359176
0.0155147382497943
0.0158657458294763
0.0161683615323494
0.0164239804343251
0.0166342835403274
0.0168011740533696
0.0169267318081565
0.0170131886212633
0.0170628986058805
0.0170783136774186
0.0170619462896783
0.0170163322714205
0.0169439824440353
0.0168473072280786
0.0167286151620943
0.0165901909912344
0.0164343245353195
0.016263211886517
0.016078903130598
0.0158832242617277
0.0156777695916915
0.0154637827130337
0.0152425290290312
0.0150152464181494
0.0147832567368142
0.0145476104388095
0.0143091167876812
0.0140685032570975
0.0138266507853803
0.0135842663023781
0.0133550092217242
0.0131154332860513
0.0128756427315955
0.0126368399921235
0.0123991674264074
0.0121626859576306
0.0119275281861463
0.0116937891194747
0.0114615389719441
0.0112308054954544
0.0110015461803065
0.0107736981864761
0.0105471584879672
0.0103218074345311
0.0100974619055744
0.00987389022899272
0.00965079852300302
0.00942783596934298
0.00920461553718332
0.00898060773586903
0.00875535191458908
0.00852792413085205
0.00829791091959698
0.00806339168884994
0.00782414198897705
0.00758487750626979
0.00732718348011134
0.00705348361106289
0.00677429844367464
0.0064444682542539
0.00614542542516282
0.00563974492005167
0.00529123424979425
0.0055935051059126
0.00637583953434489
0.00754661609860235
0.00905133377771263
0.0109240426596265
0.0131095856719389
0.015492369897065
0.0179415595869072
0.0202338015297347
0.0221996121888393
0.0242127140245184
0.02634735160692
0.0296673682587111
0.0343871623503875
0.0396351781525724
0.0455787386855664
0.0477515934910265
0.0333175167210927
0.0201518832581311
0.0214960801124574
0.00678988790906849
0.022082410786236
0.0211963862292661
0.00974191448747673
0.0034686706252569
0.00261968049553941
0.00114115197420985
0.000697037217295006
0.000575779051480999
0.00057745038043033
0.000646613452359251
0.000761583285763556
0.000910243480791009
0.00106866593148631
0.00122132358266854
0.00133886540401192
0.00141552803621777
0.00147887395740331
0.00156194131990164
0.00175509563852955
0.00224548879763462
0.00324791752456744
0.00453411790717162
0.00547644296668889
0.00644815297514068
0.00729882609543297
0.00812546119623753
0.00889365994744689
0.00962572522496478
0.010313519113502
0.0109619212228221
0.0115683489044502
0.012108153584187
0.0126242447987845
0.0131011745772088
0.0135322224521944
0.0139190407690035
0.0142619647945569
0.0145614440966463
0.0148183174294667
0.0150337889156643
0.0152093344751151
0.0153466350331548
0.0154475287245782
0.0155139900049363
0.0155481004858399
0.0155520334389283
0.0155280207011969
0.0154783307908761
0.0154052221974936
0.0153108755243477
0.015197352841032
0.0150666610666906
0.0149208194231948
0.0147617712977952
0.0145913578935495
0.0144112379135334
0.0142229095355626
0.0140274943153902
0.0138260905137238
0.0136197608121807
0.0134096704701354
0.0131967903958119
0.0129818627449109
0.012765524020702
0.0125485306381744
0.0123399505012702
0.0121321470297149
0.0119176015481453
0.0117044405698876
0.0114925053195747
0.0112819485692664
0.0110728457772851
0.0108653071331325
0.0106594052912993
0.0104551910681521
0.0102526830489517
0.0100518391702148
0.00985259951707177
0.00965487111850859
0.00945854263726147
0.00926345798573012
0.0090694147364576
0.00887616780692764
0.00868342660598941
0.00849087164376867
0.00829809253800561
0.00810470212176152
0.00791003950711872
0.00771371797832611
0.00751444402834825
0.00731189781189478
0.00711362055712984
0.00689777751740546
0.00667282798975001
0.00644630013624022
0.00618184972408474
0.00595459025016627
0.005554836181305
0.00511244898512233
0.00524591564897176
0.0058406798897019
0.00680041838595434
0.00806552224908796
0.00967547683312858
0.0116322643112121
0.0138706405540403
0.0163116055866001
0.0188143039477219
0.0211884901507194
0.0237014608932229
0.0262993718832904
0.0299373254277068
0.0351410909454691
0.0414189007907019
0.0497716178272355
0.0555390344655903
0.0397219580863342
0.0128532873168569
0.00437091359915594
-0.00629605454586722
0.0101852563892495
0.0168162352277406
0.012427508783164
0.0040657553348015
0.00291200197290006
0.00131080123042007
0.000792876204275204
0.000639797052247327
0.000620942202804161
0.00066875311898327
0.000761294910571612
0.000897244088119951
0.00105686202469571
0.00121264609191264
0.00132506515307115
0.00140019481368606
0.0014777191343295
0.00160452096492832
0.00187872279921793
0.00245667053419169
0.00346959590348645
0.00455848339968415
0.00533515972244919
0.00616294031392831
0.00689805734703233
0.00762174828091437
0.0082999921071707
0.00894924294633861
0.00956167198497119
0.0101401690221138
0.0106840606204291
0.0111595109747181
0.0116297672212238
0.0120561691428689
0.0124419739818735
0.012788132624354
0.0130948317688303
0.0133623891467188
0.013591496978039
0.0137832006815981
0.0139388125383354
0.0140598419932754
0.0141479436512813
0.0142048986605857
0.0142325848249117
0.014232966833339
0.0142080657657842
0.0141599478845721
0.0140906807846806
0.01400227490445
0.0138966121904101
0.0137754942298157
0.0136407379574764
0.0134940973059241
0.0133372551720536
0.0131717425601207
0.0129989917239612
0.0128200419838316
0.0126358743204261
0.0124474223903513
0.0122557348337092
0.0120617260900935
0.0118660978465126
0.0116694294132218
0.0114732816548585
0.0112945510208324
0.0110990886954767
0.0109052462486709
0.010712784296239
0.0105216310447819
0.0103319439737556
0.0101438118607009
0.0099573391533312
0.009772592502996
0.00958961917453665
0.00940844144540327
0.0092290298089306
0.00905133862875629
0.00887529682661651
0.00870081241129278
0.00852776604411052
0.00835599156883488
0.00818530207538523
0.00801546816176927
0.00784625137768456
0.00767734789803713
0.00750847041577812
0.00733917443876802
0.00716916035088751
0.00699763610082958
0.00682428100682123
0.00665863692595259
0.00647538215879184
0.00628975558791833
0.00610545392168816
0.00589557949477889
0.00572393970748634
0.00543082821512203
0.0049543152566118
0.00495862552992884
0.00539538660762763
0.00616948529584527
0.00721818067121413
0.00858278596612964
0.010303622909871
0.012344706787344
0.0146564732582815
0.0171642257263126
0.0197110849515388
0.0225496930502439
0.0256470825298309
0.0298454691900348
0.0358959315194871
0.043592844129323
0.0543926623495634
0.0639981276770114
0.0545091175165505
0.0148010456097491
-0.000369437744590791
-0.0107499421468776
0.000555531221529616
0.0112839820486806
0.0145604072758028
0.00487238164733556
0.00313068737005452
0.00145776730750333
0.000867770907133814
0.000679747635082126
0.000637505245532897
0.00066826020670025
0.000756792373672866
0.00090618913224751
0.0010792463586674
0.00123059961671386
0.00132832896026449
0.0013977798575994
0.00148736532342185
0.00164950217039033
0.00197348812607934
0.00257350292010606
0.00351128162721348
0.00438683125853311
0.00504092381995033
0.00575807466158488
0.00641135609764476
0.00706032582667379
0.00767449784187363
0.00826435736068126
0.00882302280970363
0.00935151970781173
0.00985319016987191
0.0102886010127525
0.0107180686988623
0.0111086258539127
0.0114624062417133
0.0117799467027801
0.0120613470307919
0.0123068358727019
0.012517002008498
0.0126927789817138
0.0128353620895743
0.0129461375724349
0.0130266258541352
0.0130784648521996
0.0131033789423764
0.0131031732327869
0.0130797049330543
0.0130348803888778
0.0129706150901025
0.0128887869766623
0.0127911400969751
0.0126793153060436
0.0125549677171075
0.0124196978933502
0.0122750582625945
0.0121224722392187
0.0119633216743697
0.0117985867751968
0.0116291594984262
0.0114558698749722
0.0112796698066498
0.011101427276606
0.0109218165081711
0.0107413769313238
0.0105723647693605
0.0104014888658127
0.0102228785324578
0.0100457210219636
0.00986989991635986
0.00969539343880433
0.00952236039250967
0.00935090031828126
0.00918111776916464
0.00901307910325246
0.00884683314191365
0.00868240930478164
0.00851979309803088
0.00835895519880418
0.0081998480742818
0.00804240019303297
0.00788652859680461
0.00773210074541347
0.00757898609454937
0.00742700725500296
0.00727600632330394
0.00712576219593117
0.00697609541277088
0.00682671688051853
0.00667745124203266
0.00652785332619317
0.00637770508469765
0.00623218063844999
0.00608023023264896
0.00592601318977925
0.00577505790586312
0.00560907474240907
0.00547913493757882
0.00528054310029236
0.00480040661895371
0.00470923218697124
0.00501362499478721
0.00562477880610563
0.00647999770424579
0.00762340885236646
0.00912394196184865
0.0109618639723571
0.0131004832065378
0.0155024932353268
0.0180328314285398
0.0209398480857225
0.024237751932186
0.0286592655621312
0.0350442318493164
0.0433308444796693
0.0549827438199475
0.0662715315450585
0.0678964762923876
0.024001077122968
-0.000138172210204374
-0.010369278394548
-0.00242865820085749
0.00616911979760891
0.0153340929209154
0.00580091135600922
0.0033088804325369
0.00158978437280229
0.000925639571306066
0.000702495071423749
0.000642301873610677
0.000670389674163351
0.000773655765155901
0.000942451989385869
0.0011153389438794
0.00124623195689078
0.00132419876044611
0.00138779041061115
0.00148659968599309
0.00167102237943279
0.00201292889455364
0.00258945291249404
0.0034206428214587
0.00411897748426374
0.00468970189591311
0.00532296535128929
0.00591726100502453
0.00650990802059226
0.00707622016823222
0.00762112530673363
0.00813909501536268
0.00862925397115332
0.00909200849561389
0.00950329175177709
0.00990179863973348
0.010264960090006
0.0105942320189837
0.0108898997511443
0.0111520212954657
0.0113807730907742
0.0115766752113856
0.0117405851056176
0.0118736155613267
0.0119770645932646
0.0120523535453109
0.0121010121721969
0.012124646138186
0.0121249342473297
0.0121036011518463
0.0120624210295063
0.0120031820284011
0.0119276538421882
0.0118374708625573
0.0117341425969965
0.011619188114205
0.0114940768463248
0.011360247259985
0.0112190257577741
0.0110717521665814
0.0109193627104365
0.0107626783842805
0.0106024413478074
0.0104395175163897
0.0102747329326305
0.0101087416902649
0.00994299926656069
0.00979810056765421
0.00963205816674058
0.00946751829689617
0.00930429348833442
0.00914234421086056
0.00898167923827865
0.00882245644476943
0.00866478384007646
0.00850876828443309
0.0083544779736255
0.00820196481645083
0.00805126594834928
0.00790238156155279
0.00775529811879285
0.00760999043255627
0.00746640595455695
0.00732449516421922
0.00718415479118656
0.0070453060626865
0.00690781409082853
0.00677159678165791
0.0066364946471596
0.00650243602481805
0.0063692367142936
0.00623686557530537
0.00610509778808919
0.00597389102181757
0.00584031710360835
0.00571820391125652
0.00558937925499083
0.00546517960827936
0.0053345738431231
0.00523597594283086
0.00511684422685283
0.00464808356226918
0.00448676838781201
0.00467923984586979
0.00514568283632974
0.0058267806122901
0.00677181984296756
0.00807281255962934
0.00971886271209538
0.0116777206123822
0.01393036542744
0.0163460170606365
0.0191571010112205
0.022402901075159
0.0266977780948246
0.032852330024495
0.0408656552402962
0.0519316444006668
0.0629429837132715
0.0731619350632039
0.036287474860871
0.00375436147791665
-0.00542628822612596
-0.00261425931039583
0.00207780046058203
0.0143864154530272
0.00699379091539019
0.00348506502210641
0.00172228484683179
0.000979534918127596
0.000723220357696364
0.000654201997884004
0.000691229331241487
0.000812978650123407
0.000988195091599941
0.00114329544637835
0.00124699418185336
0.00130733843469952
0.001366705167891
0.00147114525671826
0.00166482675387648
0.00200057130523577
0.00252953293805451
0.00325247723127772
0.00381515730842383
0.00432773569175895
0.00489524393969659
0.00544479792102611
0.00599285843660146
0.00652149788535709
0.00703060181397212
0.00751613206930874
0.0079754791959485
0.00838906934885156
0.00879822479021565
0.00917184504899005
0.00951281694137357
0.0098221659937306
0.0101000236524557
0.0103464368488787
0.0105615583884937
0.0107458658299153
0.0109001670198842
0.0110255173568765
0.0111231520741206
0.0111944188241356
0.0112407644504645
0.0112637007177576
0.0112648037324132
0.0112456875416059
0.0112080132375484
0.0111534580005111
0.0110836994308541
0.0110002822884747
0.0109046054423702
0.0107980694395645
0.0106820271706201
0.0105578134717947
0.0104266630670405
0.0102898781589255
0.0101483618236544
0.0100028766955514
0.00985408773603149
0.00970278077969238
0.00954974169455418
0.00939560848736534
0.00925359932376674
0.0091107955297962
0.00895708188851082
0.00880465469228761
0.00865342472195324
0.00850340409321347
0.00835462073464364
0.00820722997346602
0.00806134650226456
0.00791708035193153
0.0077745023575283
0.00763366774625263
0.00749462105727563
0.00735737614055925
0.00722193414122983
0.00708829040933726
0.00695640944469418
0.00682627192600748
0.00669779986264159
0.00657096153525662
0.00644565674018857
0.00632187380534015
0.00619949839881478
0.00607856387120257
0.00595895248228295
0.00584078829499756
0.0057239706089957
0.00560868328696788
0.00549297858357528
0.00538824155592952
0.00528015277964509
0.00517793474423475
0.00507624389375446
0.00500166980281616
0.00494800857548232
0.00449763090080884
0.00428464626555708
0.0043812744390277
0.00471738222706042
0.00524009064003629
0.00600633234771457
0.00712714621032073
0.00859569828033452
0.0103805206603984
0.0124702027812296
0.0147267968507559
0.0173561096576326
0.0203978124743289
0.0243435968937374
0.0299110281983341
0.0371570287276002
0.0469096565805622
0.0568808591164801
0.0707702872685886
0.0473651440821585
0.0123072586691826
0.00122291100356637
-0.000117761249802732
-0.000636340362554515
0.0117055816316053
0.00851937536002627
0.00367783011784602
0.00186596112652724
0.00104422830868955
0.000755921657326063
0.000683475904809639
0.000730682524567726
0.000861748471207009
0.0010267015881348
0.00115486915241401
0.00123306126001043
0.00128010601531864
0.00133627919382565
0.00144227539354578
0.00163439346453927
0.00194868515201996
0.00242081474057602
0.00304544413789494
0.00350583286534294
0.00397491073746569
0.00448893536390709
0.00500266089269724
0.0055139194235081
0.00601154750306743
0.00649095280795485
0.0069495543254148
0.00738411276599101
0.00777704172142488
0.00816228086966973
0.00851499115658052
0.00883716506261274
0.0091295486663887
0.00939218184300205
0.00962512212899943
0.00982852149570661
0.0100028354422245
0.0101488425505746
0.0102675597746165
0.0103601787747269
0.0104279925963061
0.0104723841194529
0.0104947897217199
0.0104967003381841
0.0104796355357135
0.0104451570245929
0.0103948420532637
0.0103302870525352
0.0102529620321036
0.0101641706203269
0.0100652073441013
0.00995731853689565