/*--------------------------------*- C++ -*----------------------------------*\
  =========                 |
  \\      /  F ield         | OpenFOAM: The Open Source CFD Toolbox
   \\    /   O peration     | Website:  https://openfoam.org
    \\  /    A nd           | Version:  7
     \\/     M anipulation  |
\*---------------------------------------------------------------------------*/
FoamFile
{
    version     2.0;
    format      ascii;
    class       volScalarField;
    location    "20000";
    object      omega;
}
// * * * * * * * * * * * * * * * * * * * * * * * * * * * * * * * * * * * * * //

dimensions      [0 0 -1 0 0 0 0];

internalField   nonuniform List<scalar> 
15600
(
23353.0699494054
23107.6440549297
22777.4505055386
22763.7104149181
21103.0552631076
17872.4850542654
14435.9342477346
11405.1134650572
9031.73324102554
7355.42579713557
6142.8319831811
5236.19877885045
4529.59791488543
3922.67861480674
3391.16590551498
2932.62359867673
2548.5387483707
2255.76123022171
2051.84068332375
1929.11752647164
1886.75492202218
1904.8460229339
1906.33088935234
1906.33088935231
1906.33088935232
1906.33088935238
1906.33088935235
1906.33088935241
1906.33088935238
1906.33088935246
1906.33088935235
1906.33088935223
1906.33088935233
1906.33088935243
1906.33088935237
1906.33088935218
1906.33088935238
1906.33088935233
1906.33088935238
1906.33088935241
1906.33088935237
1906.33088935219
1906.33088935216
1906.33088935222
1906.3308893523
1906.33088935231
1906.33088935242
1906.33088935233
1906.33088935224
1906.33088935235
1906.33088935242
1906.33088935231
1906.3308893525
1906.33088935249
1906.33088935239
1906.33088935232
1906.33088935237
1906.33088935245
1906.33088935237
1906.33088935232
1906.33088935231
1906.33088935238
1906.33088935239
1906.33088935238
1906.33088935221
1906.33088935224
1906.33088935241
1906.33088935228
1906.33088935229
1906.3308893524
1906.33088935245
1906.3308893523
1906.33088935229
1906.33088935235
1906.33088935243
1906.33088935237
1906.33088935222
1906.33088935215
1906.33088935225
1906.33088935233
1906.33088935217
1906.33088935236
1906.33088935239
1906.33088935232
1906.33088935222
1906.33088935234
1906.33088935236
1906.33088935224
1906.33088935223
1906.33088935232
1906.33088935244
1906.33088935237
1906.33088935238
1906.33088935233
1906.33088935239
1906.33088935251
1906.33088935237
1906.33088935227
1904.84602293382
1886.75492202232
1929.11752647285
2051.8406833294
2255.76123021307
2548.53874835237
2932.6235986773
3391.16590552142
3922.67861479269
4529.59791480955
5236.19877878425
6142.83198319793
7355.42579701204
9031.73324076504
11405.1134650825
14435.9342479128
17872.4850545274
21103.0552634759
22763.710414496
22777.4505051281
23107.6440548719
23353.0699493921
3941.619295883
3903.47532353766
3846.88224291224
3841.06434326313
3559.60553988751
3016.9215711661
2438.39461711532
1927.44329683796
1526.55756776262
1243.14090184448
1038.114982184
884.956133635357
765.65343192335
663.29901521482
573.588306229467
496.094243594177
431.10199453815
381.477161648598
346.867908537814
326.080068314716
319.432504668913
323.721906313146
323.8763467093
323.875034745233
323.882811030174
323.919075800713
323.944444700035
323.974278076152
323.988980925943
323.993063775192
323.979232558899
323.949743016814
323.902814059127
323.839999296905
323.761470147821
323.668999946346
323.56436355164
323.449683352024
323.327077674414
323.198651789922
323.066337517283
322.931966186574
322.797242991009
322.663724637919
322.532816900199
322.405719350158
322.283467085426
322.166849248481
322.056529582206
321.95296220876
321.856551265791
321.767670285778
321.686416541749
321.612779935957
321.546527854799
321.487455170392
321.435249480887
321.389753812236
321.350862657015
321.318225722253
321.291523559332
321.270261642347
321.254168605202
321.242962815098
321.236335319567
321.233907093306
321.235315761976
321.240329143395
321.248661186902
321.260073253817
321.274258372258
321.290972208226
321.310016588455
321.331168610138
321.354234920545
321.37898653733
321.405305792738
321.432970599763
321.461921112864
321.491894269972
321.522924952746
321.554665951564
321.587390102737
321.620453354139
321.65467618186
321.688656734461
321.724524970086
321.759021569661
321.797478807693
321.832028438815
321.875885546036
321.909490093513
321.965550487254
321.995890515115
322.082914303826
322.105052735745
322.265962292558
322.275871451845
322.617602716615
318.902286858729
325.66920582869
346.134773149864
380.414681982167
429.698304088647
494.423627584573
572.000909180308
662.082120189827
765.138218834814
885.266874991279
1039.04131919613
1244.37143392222
1528.09083675816
1928.96313038317
2441.2450665102
3021.96045040168
3569.1400999458
3856.64829064397
3866.35599257482
3914.57027405636
3946.34427262762
1302.14374459008
1293.91893690569
1274.48721100169
1268.13113563307
1171.62426094181
993.499998131513
803.638694957056
635.62310795059
503.557815445643
410.1830566063
342.665027170574
292.330393049195
253.106291791874
219.433411568772
189.815937791524
164.132376859284
142.568923231709
126.09355249792
114.608183787874
107.884949789943
106.652962242475
109.689479145481
109.890699519216
109.84611610463
109.798875298503
109.757762730863
109.693682217687
109.623499942878
109.527288416524
109.412031378837
109.271206575426
109.109620335125
108.926977634859
108.726864163634
108.511074472555
108.284160275053
108.048964188968
107.808656967779
107.566278907476
107.324593698118
107.085953688759
106.852445056155
106.625891193353
106.407853948843
106.199651543054
106.002317551213
105.816665034333
105.643218218293
105.482369171472
105.334301830525
105.199195543995
105.07718856675
104.968082588894
104.87156126121
104.787080648908
104.714171669364
104.652297337138
104.601168080328
104.560536943361
104.529836155848
104.508527299574
104.495885746013
104.49150417664
104.49496522325
104.505794115114
104.52341627774
104.547302829924
104.577097572336
104.612374326282
104.652754125834
104.697772540827
104.747051302331
104.800289806943
104.857162579267
104.917325561372
104.980418427834
105.046217361986
105.114385271135
105.184758623622
105.256953088194
105.330901786085
105.406145247678
105.48287561306
105.560323017965
105.639262953073
105.718124896226
105.799082955355
105.878615394391
105.962329741005
106.041880143101
106.13130794645
106.210120822824
106.313065158847
106.389614393005
106.527144402394
106.601150474036
106.822354718042
106.899658342376
107.391181032753
105.179326035198
106.737618363746
113.106205599051
124.126489022485
140.115792389861
161.305800102236
187.132253385817
217.396678598959
252.290295145901
293.078519576561
344.775905777452
413.26311196314
507.536410167339
640.20395444728
810.760624886457
1005.03063269777
1190.91275709395
1298.1204573144
1312.95678579995
1318.41670963293
1311.40089332325
607.993992843271
606.603536632626
594.855131402405
585.430110992441
536.337509513142
454.576702987544
368.14501334712
291.455791191033
231.093399011316
188.443317871872
157.657445265952
134.792631760846
116.946967665022
101.568497090313
87.9326582139648
76.0242687787563
66.0392208283764
58.4522280534588
53.2611820613227
50.5882914936311
51.2059001329179
53.8463075980388
53.7300771315981
53.3611208793998
53.012775891868
52.7054571390847
52.4062394494854
52.1318209563177
51.8568918397818
51.58837374877
51.3173610008304
51.0480897081931
50.778677642682
50.5117512716675
50.2484443349643
49.9915554861549
49.7407333043349
49.4977412495688
49.2636775763472
49.0394659609236
48.8257174063423
48.6229125542597
48.4314099654584
48.2514575901983
48.0832106217958
47.9267000317833
47.7818850758999
47.648597408678
47.5266693731631
47.4158668231899
47.3160563071446
47.2271261589642
47.1487367831184
47.080510186211
47.0219347036887
46.97261008045
46.9321237069849
46.9003131797849
46.877046295452
46.8619243257233
46.8545833520294
46.8545183461958
46.8615079016546
46.8753134818512
46.8956350107465
46.9220837545654
46.9543104806959
46.9921089445442
47.0351964210665
47.0833315754923
47.1360906965415
47.1934356667773
47.2550177928373
47.320607608969
47.3899425692487
47.462747588362
47.5388661651505
47.6180378788302
47.7001508944499
47.7848952082495
47.8722424497741
47.9618197041978
48.0538480417333
48.1476776585143
48.244095411886
48.3417216098792
48.4427143809012
48.5438797214847
48.6507745984769
48.7556351904425
48.8724414734409
48.9817339755418
49.1193306023101
49.235378039074
49.4178382922764
49.5460489137793
49.8302041100389
49.9869940325505
50.5619488973535
48.7091423862902
48.6760561530326
51.1594414606983
55.8531598628039
62.8202954005939
72.2096556905481
84.0282649118371
98.1904127113993
114.86695214195
134.657955026373
159.49425332682
191.897817526256
236.081023440638
297.539406686349
377.376906520717
469.356957595989
560.054598566252
621.774750063288
645.888185850127
645.368214954561
623.297104100403
353.106801464944
351.830138539521
341.032049916765
327.151991498893
295.086565574625
249.668534343829
202.604968802263
160.636453931656
127.574940924078
104.264578055414
87.509216207733
75.1392295032488
65.4385889760508
56.9884773821589
49.3781730453025
42.6740683508177
37.1045967187372
32.9688893514237
30.3288762935064
29.4426777115364
30.8110425490364
32.7914720807138
32.0220256382527
31.2902576763452
30.6974936837469
30.2458380595769
29.8637259160609
29.5530551336832
29.2755477556067
29.0312643724707
28.8056054013659
28.5983549848582
28.4041164094154
28.2225497758509
28.0525134217447
27.8920135622657
27.7398173695415
27.5960096281244
27.4602049753038
27.3321251108741
27.211433159204
27.0978548080303
26.9911543464999
26.8911256238146
26.7975882665012
26.7103535215008
26.6292482333694
26.5540682983313
26.4846581568114
26.420859147482
26.3626213476822
26.3099276453829
26.2626257569352
26.2205574777604
26.1834858944851
26.1512552512711
26.1237047275209
26.1008506460737
26.0827202169084
26.0691654053887
26.060067319533
26.0552159028885
26.0545864149977
26.0581324697353
26.0657616788891
26.0773292469681
26.0927077801773
26.111859381802
26.1346784682394
26.1611228911616
26.1910437022139
26.224459318638
26.2611508462414
26.3010294856167
26.3439866270772
26.3898994724994
26.438732201668
26.4903695125963
26.5448068902986
26.6018914641469
26.6616888455857
26.7240043468624
26.7891182368189
26.8566305474901
26.9273124496272
27.0002013268435
27.0772686033795
27.1560986806135
27.2416684928253
27.3277771590905
27.426976666816
27.5229623991861
27.6490875936774
27.7624657056338
27.94448964489
28.0885534081977
28.3964424813448
28.6029427438319
29.279671844887
27.7782547631033
27.1711459060499
28.1676407157946
30.4355099665112
33.9226849605868
38.6905239356178
44.895302894746
52.538017010453
61.8158209152599
73.1838520734595
87.5519938889208
106.109557635679
131.231779331034
165.440349612231
210.323153718646
262.654072915652
315.818301810888
358.628753867217
391.690512698269
399.964466153542
374.804812746875
241.003086391447
237.392743199607
226.17942378277
206.763254794155
181.736464989183
153.253293558171
124.792810676247
99.1709546929555
78.9805357438042
64.8085898258105
54.6939484064719
47.2779258314069
41.3820446336695
36.1271375152624
31.2840432609757
27.004959385733
23.5435528017084
21.1042237819404
19.7636717708506
19.756384792182
21.2210144153184
22.4165542557893
21.1955702099187
20.4302779425527
19.8724745836058
19.5064541859459
19.2232088137041
19.0169697325332
18.8453433547455
18.7059443205163
18.5836709475659
18.4770410053208
18.3804651146547
18.2930880938371
18.212328504128
18.1361754940665
18.0640588486452
17.9957637852788
17.9308636736877
17.8690808096199
17.810143077709
17.7538608100121
17.7000963947882
17.6487521041967
17.5997620605219
17.55306589163
17.5086210048575
17.4663706379787
17.4262952578199
17.3883785989425
17.3526831763966
17.3192881154163
17.2881811758393
17.2593464513288
17.2327130344075
17.2082591663498
17.1859561708799
17.1658926420679
17.1481533000577
17.1327069763547
17.1195434743888
17.1085948860243
17.0999094315204
17.0935133245595
17.0893987162454
17.0875304954211
17.087877588234
17.0904607528395
17.0952849179525
17.1024387512241
17.1118263143651
17.1234417379691
17.1371796765742
17.1530146526906
17.1709122321532
17.1908263721415
17.2127725725506
17.2367102135989
17.2626768656485
17.2906071874011
17.3205940278723
17.3525480295859
17.3867292711119
17.4229083241833
17.4617271325413
17.5025586222566
17.5469838609042
17.5933164849448
17.6455073756907
17.6990344750669
17.7639051619701
17.8278108945816
17.9174500287214
18.000648761305
18.1443538776547
18.2639707614783
18.5351246239807
18.7290522062557
19.4283726160174
18.3325865469949
17.6190055202115
17.9984698246319
19.2034941428507
21.1390808031256
23.8009021228321
27.328756897011
31.743811597892
37.2162433529887
44.1240288794319
53.026021744168
64.5419688928833
80.2153442753473
101.087945954261
128.675779309003
161.111455489986
194.641041272574
225.166445023181
263.198835842778
285.771510031127
267.004330345781
184.956748072078
178.927672764808
168.10751672798
142.950189106217
120.506631009743
101.083920143483
82.787406223171
66.024745698178
52.8162829544054
43.6145515288096
37.1060928505787
32.3497031104471
28.4488597174102
24.8456291555584
21.4567897120053
18.51126223094
16.2482267025834
14.7820242534121
14.16072494971
14.528295492401
15.7703687177041
16.3558561815876
15.0843408009221
14.5115778861059
14.1014307565402
13.8708754836262
13.7002003692613
13.5903646214503
13.5034120228152
13.4390552481229
13.3848081437947
13.3399797715177
13.3002050460106
13.2649516717255
13.231581878622
13.1993768630932
13.1680851239377
13.1376045446966
13.1077155790282
13.0783097994426
13.049282500642
13.0205879980072
12.992214444508
12.9641749720859
12.9365014730057
12.9092263010566
12.8823903490899
12.8560222058988
12.8301744661802
12.8049017854093
12.7803141701128
12.756525512582
12.7335811509052
12.7115211809822
12.6903442496316
12.6700800615203
12.6507523016755
12.6324665880579
12.6153169010767
12.5993141042167
12.5844839702982
12.5708143108345
12.5583711780635
12.5471999711848
12.5373181840871
12.5287280657174
12.5214295318839
12.5154634318851
12.5109274494459
12.5078902201986
12.5062574397937
12.5060264556168
12.5071464773713
12.5096131437224
12.5134181431185
12.5185443513802
12.5250196377844
12.5328317591698
12.5420242418114
12.5525680680599
12.5645490902355
12.577925042741
12.5929095551578
12.6093641356946
12.627791898263
12.6477731291791
12.6705249843199
12.6948621265938
12.7238115436341
12.7540992472493
12.7934144551337
12.8326842702482
12.8921153014973
12.9482590890803
13.0538182452393
13.1433573957344
13.3627114118188
13.5173242361396
14.1657509496886
13.4186707204844
12.769300238733
12.8814481020963
13.5776327863716
14.7605956974979
16.393864331858
18.573595729754
21.3124440729751
24.7271505757772
29.0941072105478
34.7959060791556
42.1698123411285
52.3028554671518
65.5390328043113
83.0766342129223
103.786175690655
125.25941181081
146.036443016154
183.019778667753
218.393861704084
211.57479143116
152.666379954827
145.320750121822
136.472668161662
106.501891152511
84.0513404330741
69.9382706467969
57.8119745680218
46.3518292516881
37.3230052612968
31.0997104352246
26.7322342986441
23.5149537066774
20.7334566125076
18.0685570381312
15.5615063875937
13.4721560697974
11.9758710858414
11.1059420871368
10.8788132613776
11.3570409148274
12.3091675464806
12.5281157866705
11.4277209202324
11.0622274448231
10.7793963567543
10.6477568797498
10.5507536299751
10.4989940897802
10.4600931378747
10.4361653416048
10.4172623384347
10.4035200695801
10.3916716002671
10.3812940314622
10.3704460536449
10.3590636366078
10.3470306931968
10.3343503055707
10.320942281077
10.3068026705646
10.2919249161991
10.2763420807197
10.2601072755317
10.2432875522417
10.2259595309037
10.2081964933733
10.1900743615411
10.17165793536
10.1530281010469
10.1342672674949
10.1154982154088
10.0968403477026
10.0783586031783
10.0601117293346
10.0421262243393
10.0244498866245
10.0071265943106
9.99026090335204
9.97394211183244
9.95819567976325
9.94305796127367
9.92853942284678
9.91470730418574
9.90160988047433
9.8892708578662
9.87770419612473
9.86691804980887
9.85699112691491
9.84803877617758
9.840080565472
9.83304246806697
9.82692578029042
9.82170632466291
9.81738739424907
9.81397045407332
9.81145043722932
9.80985664525174
9.80918893682514
9.80948819375504
9.81074250738236
9.8130256771721
9.81631935738652
9.82079700922249
9.82637320161779
9.83344429930674
9.84172233850982
9.85215342904616
9.86388757084105
9.87926661861426
9.89588303108957
9.91968746021617
9.94392585336147
9.983988283249
10.0224182144827
10.1008564812239
10.1679526699404
10.3445683221422
10.4625074476553
11.0359692989092
10.5436336152254
9.99443945040674
9.98303053878008
10.4097758595747
11.1905358330693
12.2774477403214
13.7338523115943
15.563742687813
17.842402557504
20.7586329877298
24.5804886472402
29.4794230464025
36.2311501623635
44.8729736266785
56.2379935222922
69.6471627365913
83.4241729118184
96.8392669677361
127.513283774968
169.990829862714
176.255380606497
130.580563104513
123.384205731636
117.953544979859
85.0055061091323
60.8219659883769
49.9544454806049
41.8740267509911
33.8264333461788
27.4865959685089
23.1724215655948
20.1496316774479
17.8640701877952
15.7535516241783
13.6922862078234
11.8009243862806
10.3125388934907
9.32445967206798
8.82099901646596
8.80121075529644
9.27346761655794
9.97636870498053
10.0052899113485
9.12410699232366
8.90842108598638
8.71141146167361
8.64059644722032
8.58636446978458
8.56649229325722
8.55308229374341
8.54980550424362
8.54858323045065
8.55004106512827
8.55166694582552
8.55305932100454
8.55297952806584
8.55158772907306
8.54882981408718
8.54476667202961
8.53939181994274
8.5327520119298
8.52488859432565
8.51587036773944
8.50577830500719
8.49470106216978
8.48273182195196
8.46995882130144
8.45646998803386
8.44234366855123
8.42766979848674
8.41253995922187
8.39707626196896
8.38139346963252
8.36556157253505
8.34964407195369
8.33367885995559
8.31771946592659
8.30181755718419
8.28607157859962
8.27056314693346
8.25532249951029
8.24038809560399
8.22578035164151
8.21156309210609
8.19778268753582
8.18446298406414
8.17162065266935
8.15927293980081
8.14753395794693
8.13648457892466
8.12612404183261
8.11639756111081
8.10730924508773
8.09884908817198
8.09102366175488
8.08383862337113
8.07729489892512
8.07142062402208
8.06622184798018
8.06173569793843
8.05795986689547
8.05495780660056
8.05272538694856
8.0514059146115
8.0509482806957
8.05167151971643
8.05337657281965
8.05681468774561
8.06136775327934
8.06888397353403
8.07756573098019
8.09210057274904
8.10738455805168
8.13540201095654
8.16278845821875
8.22299500681171
8.27486642065303
8.41979113719747
8.51023623008765
9.00908840282898
8.69328713904594
8.24005481585288
8.16974351564774
8.44064511633452
8.98548560703725
9.75487979428723
10.7910845429547
12.0934545002744
13.7117144605703
15.7737714647802
18.4743952117889
21.8889521981297
26.5761954402784
32.4503822514695
40.0437915135203
48.9557860613375
57.9401483129803
66.5286324546009
88.7329463075451
131.592926270943
148.599788172985
112.72065606824
107.141161763376
106.093730545525
72.3643967306415
45.4014657963351
36.4496322145851
31.1516928643891
25.4176299127869
20.9013878778497
17.8677868206243
15.721301210587
14.0241974684489
12.357163575116
10.736399702145
9.30701312867854
8.2464616251882
7.59374554368021
7.31394696932934
7.39823830817245
7.82279530464414
8.33849807749179
8.27855228227732
7.59261626894039
7.47210472300384
7.33069476676403
7.29608959826576
7.26662598043476
7.26422568325712
7.26446412911883
7.27181203292787
7.27954461557727
7.28851860652944
7.29671647310627
7.30379984398749
7.30900968690467
7.31256387325796
7.31443997279287
7.31472582531314
7.31345183480183
7.31068704751856
7.30649481978241
7.30095848927528
7.29416926664374
7.28622264331523
7.2772160083781
7.26724142634846
7.2563893187867
7.24474212744466
7.23239121157034
7.21942991620826
7.20597524834593
7.19213469592306
7.17797809218692
7.16356884129552
7.14894967940284
7.1341753775679
7.11930049623382
7.10441653109648
7.08959757560817
7.07487505089713
7.0602867700976
7.04585787561715
7.03164781298378
7.01769977626667
7.00403581192512
6.99067242158509
6.97764745282935
6.96507816218385
6.95301239113448
6.94144451784657
6.93033457116699
6.91968858427894
6.90950467599052
6.89979100931415
6.89055522927287
6.88180167091882
6.87355678200073
6.86583017129409
6.85865553882694
6.8520365765031
6.84602861526294
6.84063675927715
6.83598182991195
6.83203628934512
6.82906247412901
6.82692401636458
6.8262296776535
6.82652737506347
6.82930341666251
6.83320190407282
6.84197931061332
6.85173052741415
6.87199889572635
6.89230574288142
6.93998356467365
6.98145538950893
7.10285902194268
7.17385894034737
7.6057637224081
7.4113493189676
7.04114741178667
6.94400467885994
7.11866857250784
7.51422201301699
8.08412646331689
8.85732036172788
9.83116407669303
11.0402974548266
12.572461738969
14.5761456575494
17.0737685260973
20.4773780827239
24.6635132757755
29.9568506555952
36.132237485804
42.2014823131745
47.9565053710988
62.5855906709861
100.668184873195
124.201353649819
96.6632194960254
93.6615352777333
97.6140338014832
65.1486883940184
35.0442674830325
27.0197209397284
23.6548806859357
19.5427855675113
16.3089959224295
14.1600818649198
12.6023866251472
11.2988192771419
9.95758958928558
8.68042979708702
7.60011007410364
6.84079761363616
6.40878442121497
6.26575783874202
6.39870910132887
6.76631520735741
7.14783097490574
7.05167425736933
6.52150390667734
6.45879174790772
6.35443418852075
6.34158608661232
6.32700277219591
6.33440108535377
6.3421816586572
6.35510422446012
6.36746858960644
6.38020931243731
6.39164032472797
6.40152488313483
6.40939433480464
6.41546544564815
6.41973413235537
6.42229848489642
6.42320682493468
6.42253668077742
6.42036085772357
6.41676741864822
6.41184996262491
6.40570452835777
6.39842772288196
6.39011103528214
6.380843802058
6.37070885186475
6.35979623618424
6.34819833843221
6.33602614334427
6.3233799357025
6.31032780495619
6.29693164702645
6.28323644478372
6.26929672325873
6.25516800996636
6.24093535643248
6.22666631190795
6.21239221128432
6.19814949241924
6.18396575388356
6.16989622804347
6.15598079156945
6.14223913923425
6.12869039489454
6.11539386875191
6.10244658733403
6.08987854025384
6.07768419938458
6.06583464657868
6.05433726640515
6.04319508491598
6.03241708215173
6.02201188443056
6.01198594138275
6.00236400416943
5.9931578324276
5.98439818234582
5.97609268695449
5.9682902930717
5.96100234734614
5.95433250374585
5.9482699364797
5.94303425909012
5.93853463326211
5.93527277461457
5.93291883890686
5.93268686026394
5.93354938772366
5.93856005130643
5.94470607125615
5.95972958595117
5.97526919919761
6.01397212264054
6.04808740536714
6.15150889998891
6.20890800747915
6.58267729214828
6.47211387884446
6.17171241356964
6.06486363815663
6.17739481703211
6.47285400357564
6.90939437414791
7.50746357865579
8.26377884048985
9.20390254796574
10.388839056334
11.9371039422904
13.8428682828384
16.4194369352855
19.5425803591531
23.4051007480166
27.8943754244676
32.1835415811484
36.3240222544442
45.547610764899
76.4133648339466
102.252147936777
81.9086740364556
81.4511644889423
90.7932412411983
61.2363159704879
28.2210677643753
20.3464225298279
18.2761566441404
15.3198317963781
13.0069006866416
11.4803542320973
10.3304794179082
9.30723702966185
8.22173937704423
7.21530932355414
6.39527180968955
5.84687769870314
5.56125963957025
5.5025017327592
5.6547391420596
5.96847689434247
6.25484495964324
6.14886830220732
5.73862022684056
5.71047338785338
5.63207021314054
5.63256621018905
5.62740331990479
5.64046735023291
5.65259104107206
5.66850144149824
5.68331425873635
5.69795713680739
5.71097801734766
5.72225435428189
5.73148513860444
5.73886695451247
5.74440764049597
5.74820694453332
5.7503214345345
5.75083060757333
5.74981073160496
5.74735024043613
5.7435418444856
5.73847971210718
5.73225795486263
5.7249660290461
5.71669114523152
5.70751528514689
5.69752650499496
5.68681547344134
5.67548756805341
5.66363684001323
5.65132946170342
5.63862572774739
5.62557191794571
5.61222200317866
5.59863179401208
5.58488078427465
5.57103107621386
5.55711356253464
5.54316331059849
5.52920936685238
5.51530324686567
5.5014817367402
5.48776226775075
5.47417351947723
5.46078233695543
5.44766372815624
5.4348390869595
5.42230452338561
5.41003942227925
5.39805216036727
5.38634883336573
5.37493883072443
5.36383124896525
5.35303391720542
5.34257001012707
5.33245258554962
5.32270986579138
5.31335211434946
5.30442315298693
5.29593859977191
5.28798863719082
5.28057448092206
5.27388266959069
5.26785608257985
5.26291394363082
5.25881829831802
5.25657334810853
5.25540104992531
5.25781240274152
5.26147313002969
5.27275296870207
5.28491039960599
5.31690287006507
5.34559865776311
5.43480120942613
5.48263738745752
5.80642741629485
5.75404383001576
5.51182604404501
5.40482941638875
5.47612860843434
5.70151274299075
6.04449937657155
6.52009473577009
7.12500967346022
7.87910840771487
8.82509742018738
10.0612486880537
11.5670743542414
13.5884048601387
16.0141263042975
18.9559189748346
22.3723163155904
25.5455521839898
28.7274332342583
34.5378832587949
58.0970427415164
83.1543711471405
68.8526353519453
69.8955164022831
84.699193746038
59.280752524885
23.9517317857539
15.6415222930416
14.3590609583174
12.2279225221488
10.5802445065913
9.49550531211803
8.63588905874545
7.82211221897626
6.9415504717789
6.14610532016443
5.51844474070157
5.11845890043132
4.93136021386446
4.92484602603178
5.08093970104024
5.34770921689571
5.56637660218279
5.46351503164083
5.14492442972523
5.1373435834702
5.07810205312171
5.08697620479053
5.08815048767552
5.10461320931582
5.1193746749123
5.13693279698455
5.15308028725708
5.1686899416029
5.1824953793642
5.19447235604081
5.20441758073838
5.21250321378628
5.21874558070011
5.2232418495402
5.2260519139077
5.22725431850667
5.22692604112286
5.22515414291581
5.2220293064236
5.21764317650305
5.21208710600681
5.20544835084688
5.19781203608629
5.1892591398373
5.17987588741392
5.16975131780939
5.15898608487978
5.14766920209568
5.13586529290868
5.12363344955136
5.11102101100289
5.09808155162895
5.08487102384726
5.07146429980575
5.05791904833942
5.04426573239771
5.0305383108626
5.01676684453292
5.00299969064056
4.98927087209856
4.97559747258576
4.96202044037328
4.94860085222633
4.93539818683009
4.92242957870963
4.9096931323613
4.89717457925683
4.88488306432703
4.87282664580627
4.86101488661857
4.84945707417616
4.8381619640056
4.82715129883446
4.81643887802003
4.80605071129219
4.79599880200652
4.78632276347724
4.77704111493037
4.76823320559893
4.7599089750058
4.75222875787003
4.74516070909491
4.739059117275
4.7337561276968
4.73009097643816
4.72747799866504
4.7280013133177
4.72985142510654
4.73832348406831
4.74795672759609
4.77473394220864
4.79927713479871
4.876891637477
4.91791793194437
5.1988277676837
5.18679264408057
4.99295698153367
4.89122200554371
4.93478988054579
5.10951946074295
5.38440064149256
5.77098330494617
6.26624877452914
6.8862927661647
7.66091416786665
8.67410619290582
9.8981269569602
11.5317382414708
13.4805427017397
15.8070239181869
18.5124907407436
20.9602877913502
23.5275351184999
27.2895103032769
44.7154186197979
67.1164773295115
57.829386475228
58.91713345859
78.824456405822
58.4074709336974
21.52936593192
12.3772391433416
11.4854170899005
9.93909380552619
8.76922629273535
7.9985822103113
7.34954986919538
6.69630659171452
5.9796608081499
5.34697359058125
4.86157076571072
4.56725987429632
4.44753745982193
4.47339228654458
4.6254058869076
4.85261237403295
5.02272274785661
4.92907222894285
4.68083307717487
4.68548268052088
4.64107355303816
4.65535015562665
4.66107785320529
4.67968385056516
4.6961691521198
4.71468776655379
4.73161056938776
4.74772920860676
4.76194084708478
4.77429085121751
4.78463617513049
4.79312570092803
4.79978220784543
4.80469837948542
4.80793498150426
4.80956847432077
4.80967541432671
4.80834101202455
4.80565379129927
4.80170302564384
4.7965776815331
4.7903632053339
4.783143126658
4.77499773043368
4.76601191915905
4.7562735380845
4.74587952446473
4.73491503372372
4.72344369664175
4.71152396371435
4.69920430823774
4.68653824021572
4.67358195437514
4.66040657898685
4.64706623310387
4.6335911084393
4.62001439097577
4.60636699744505
4.59269465702597
4.57902894281447
4.56539098947642
4.55182816859798
4.538392208857
4.52513238164999
4.51206371287119
4.49918624183363
4.48649064944727
4.47398670954582
4.46168374878267
4.44959135790311
4.43771885553933
4.4260756290872
4.41468212879708
4.40355251495269
4.39271083590421
4.38217020481847
4.37196670936067
4.36212078482108
4.3527028883914
4.34372925578617
4.33533906395991
4.32751953133659
4.32057294746128
4.31438545203856
4.30966451037969
4.30597449134008
4.30505861687659
4.30551852746629
4.31179088674877
4.31944813650659
4.34203453976565
4.36327857553067
4.43121117124435
4.46729709774805
4.71138543260497
4.72711105995563
4.57346633854026
4.47998549802859
4.5048924727115
4.64213647832382
4.86600740026275
5.18592406181827
5.59923240491047
6.11938782564946
6.76683158197163
7.61509873872317
8.6332311760196
9.98655979897013
11.5967524181264
13.49695767519
15.7115268347993
17.6695085918407
19.8092575015645
22.3477455062754
35.1313967013914
54.0151814904303
48.762395697432
48.758591959191
72.9081252737986
57.9778450888614
20.428852001955
10.1698447952262
9.36946040966106
8.232064817134
7.40117748222096
6.85306943042083
6.35852414117693
5.8295892908664
5.24324883088532
4.7357141948749
4.35630215727055
4.13836109429655
4.0653950210354
4.11105334746166
4.25512386940926
4.44952333051814
4.58452930110718
4.50268199271583
4.30892691014481
4.32089378260114
4.28842818199766
4.3063116212771
4.31554006706353
4.33560106214631
4.35332958898353
4.3724750118304
4.3899111690277
4.40633687008598
4.42079821988942
4.43338418985028
4.44399120817468
4.45274777447109
4.45968181025476
4.4648808730456
4.46840545761459
4.47032971047619
4.47072946551405
4.46968822295077
4.46729269199357
4.46363028751034
4.45878822819392
4.45285077162934
4.44590051391702
4.43801755203468
4.42928609736908
4.41979337404902
4.4096335990289
4.39888915496425
4.38762328067798
4.37589437525337
4.36375225742949
4.35125075786725