/*--------------------------------*- C++ -*----------------------------------*\
  =========                 |
  \\      /  F ield         | OpenFOAM: The Open Source CFD Toolbox
   \\    /   O peration     | Website:  https://openfoam.org
    \\  /    A nd           | Version:  7
     \\/     M anipulation  |
\*---------------------------------------------------------------------------*/
FoamFile
{
    version     2.0;
    format      ascii;
    class       volScalarField;
    location    "20000";
    object      p;
}
// * * * * * * * * * * * * * * * * * * * * * * * * * * * * * * * * * * * * * //

dimensions      [0 2 -2 0 0 0 0];

internalField   nonuniform List<scalar> 
15600
(
1.22490393623687e-08
-0.0249675176617733
0.0294309141078739
0.0838874780687753
0.116880222910542
0.125429712738199
0.135174382010765
0.137843452112458
0.14165966902633
0.143164976329591
0.145350935540487
0.146629640706182
0.148533036730155
0.150430046539601
0.152844332025442
0.155473317325449
0.158048649978292
0.160344706124637
0.162249637710098
0.163624383679487
0.16408941180334
0.161740241499209
0.162687339189303
0.16409903225411
0.167155998625752
0.171144362108264
0.176239869264651
0.182162347186462
0.188910594144409
0.196354156571004
0.204455620703559
0.213135478637888
0.222345677785396
0.232024300614693
0.24212050174923
0.25257831190059
0.263345709428769
0.274368744339112
0.285595555903728
0.296975518549878
0.308460791321801
0.320006249322662
0.331569957322589
0.343113336271645
0.354601296525474
0.366002469265785
0.377289063630098
0.388437114598015
0.399425984655546
0.410238538909689
0.42086052135972
0.431280224978948
0.441488989249614
0.451480535194168
0.461251254735002
0.470799150164959
0.480124081499909
0.489226767925671
0.49810871926766
0.506772879273671
0.515222787164529
0.523463240040092
0.531499043938588
0.539335483726568
0.546978072944073
0.554432708085047
0.561705516027625
0.568802448859301
0.575729665319
0.58249315548677
0.589099151565531
0.595553694784368
0.601862824568886
0.60803255328111
0.61406877868699
0.619977573490209
0.625764653303301
0.631436220795832
0.636997871496839
0.642456237931223
0.647816777994481
0.65308712777287
0.658272255687731
0.663382144317026
0.66842017746895
0.673401582416684
0.678325107062546
0.683217877084357
0.688065797357746
0.692923878705667
0.697743641919143
0.70264729844431
0.707495827179938
0.712576269091002
0.717514650347134
0.723007267002994
0.728072187213567
0.734408008570993
0.739461866554312
0.747360350979375
0.753760076742981
0.760280333625024
0.765868353457086
0.770268428635917
0.772489026425816
0.770789335836851
0.764806765223077
0.753867164510711
0.738263036960535
0.719104445387694
0.695588478255768
0.66173587116557
0.616825200758976
0.535566815066228
0.414172220898817
0.220565941693652
-0.0333067711768045
-0.298327539088796
-0.235836968818135
-0.106362323694052
-9.79389894554589e-06
-0.0249442245693972
0.0292720305868606
0.0835541012119044
0.116651839153323
0.125318121606094
0.135103202655356
0.137821992085815
0.141652254979955
0.143176811519533
0.145369030644421
0.146654420371162
0.148553845690958
0.150446764940994
0.152853763953604
0.155481799118496
0.158061960219288
0.1603644453622
0.162273280672659
0.163648787075311
0.164105065303282
0.161753320714595
0.162713419110183
0.164129469935917
0.167192962929562
0.171186041241573
0.176285900964661
0.182211693908835
0.188962657598977
0.196408217068755
0.204511113274619
0.213191827245131
0.222402377438893
0.232080866397316
0.242176491072577
0.252633310823865
0.263399347208698
0.274420686126483
0.285645508324739
0.297023230251663
0.308506053615415
0.320048894381104
0.331609856620734
0.343150398089699
0.354635463343674
0.366033714442309
0.377317388104944
0.388462542992911
0.399448561805959
0.410258326427573
0.420877594758403
0.431294671629824
0.44150090489967
0.451490021154766
0.461258414863541
0.470804089289324
0.480126904010088
0.48922757789896
0.498107619995516
0.506769971063113
0.515218166638682
0.523456998985058
0.531491270632674
0.539326262612967
0.54696748408476
0.554420826512738
0.561692412230714
0.568788189656221
0.575714313447691
0.582476769623365
0.589081784532295
0.595535395767089
0.601843640188098
0.608012527590243
0.614047952422969
0.61995598188026
0.62574232784539
0.631413190920883
0.636974163515833
0.6424318746014
0.647791777889471
0.653061506344341
0.658246022265211
0.6633553062051
0.668392731062846
0.673373526265478
0.678296416704107
0.683188544548717
0.688035759714144
0.692893133762963
0.697712045779742
0.70261489547543
0.707462284472502
0.712541822933902
0.71747851905411
0.722970300945398
0.728032523074431
0.734368508544464
0.739418584262457
0.747325151133259
0.753746978135799
0.760283291301103
0.765871141301721
0.770247743078773
0.772405719084202
0.77061476852574
0.76453206836205
0.753499130339227
0.737828235147077
0.718607832113288
0.69496771970755
0.660936965389487
0.615645327323086
0.533866395800792
0.411894435484023
0.217938667163853
-0.0354325168548765
-0.298560711052258
-0.235536534725489
-0.106305507109576
-9.83119182286144e-06
-0.024911574618394
0.029137747361994
0.0832336395522132
0.116425012015836
0.125205001688803
0.135031124706934
0.137799403528358
0.141644553550678
0.143188298013493
0.145387322212789
0.146679368597301
0.148574922005125
0.150463012483863
0.152861583515225
0.155486795343768
0.158070117879968
0.160377963762683
0.162290669933642
0.163669413943558
0.16411656988735
0.161763291072903
0.162738515044293
0.164158678409043
0.167229161878554
0.171226957441645
0.176331349554406
0.182260407938324
0.189014055318749
0.196461475021102
0.204565657549541
0.213247035705794
0.222457732835093
0.232135858093806
0.24223066546355
0.252686252207956
0.263450696719595
0.274470119002913
0.285692743275517
0.297068030313285
0.308548227042128
0.320088292263046
0.33164637090128
0.343183958594691
0.354666034335942
0.366061291079472
0.377341992118206
0.388484219096938
0.39946737345671
0.410274353082408
0.420890929314154
0.431305416732002
0.441509169659355
0.451495917449297
0.461262055525167
0.470805586102001
0.480126367849972
0.489225119186547
0.498103346793389
0.506763987290952
0.515210570507836
0.523447883468015
0.531480724775458
0.53931437129034
0.546954326909931
0.554406477291377
0.561676940137865
0.568771660023266
0.575696787288519
0.582458302831001
0.589062427513791
0.595515198248354
0.60182265229162
0.607990792426942
0.614025506445233
0.619932859619648
0.625718560777192
0.63138880750025
0.636949188183941
0.642406329547462
0.647765679852585
0.653034871648441
0.658218857953369
0.663327623364191
0.668364521656668
0.673344798697394
0.678267135519923
0.68315872539013
0.688005310833055
0.692862109451282
0.697680227254472
0.702582467553525
0.707428716365919
0.712507686556636
0.717442529211697
0.72293415619727
0.727993089067255
0.734330733408488
0.739374284638381
0.747290125041625
0.753731669946191
0.760281231701214
0.765865592154158
0.770214487348948
0.772306480700988
0.770423563582886
0.764243593420645
0.753122594305492
0.737388635961229
0.718103608317797
0.694336209369115
0.660122218226198
0.614452731552838
0.532179203465916
0.409690466268603
0.215508036041
-0.0371715393678743
-0.298366537470105
-0.235112134056363
-0.106248795474639
1.1104744404798e-07
-0.0248650022153185
0.0290285318902615
0.0829318833348943
0.116209698662003
0.125096075791337
0.134960954640383
0.137777159007958
0.141637048504738
0.143199525923309
0.145405292528256
0.14670374610564
0.148595172193912
0.150477334113714
0.152865594870707
0.155484699808643
0.158067708539295
0.160378108509383
0.162293606817456
0.163677686867512
0.16411276753817
0.161765433485548
0.162758264378296
0.164183866284066
0.16726243843184
0.171265395645745
0.176374573783293
0.18230675429397
0.189062792865022
0.196511585247571
0.20461647955973
0.213297854713816
0.222507979897801
0.232184971267861
0.242278183356941
0.252731782809425
0.26349390155954
0.274510699909779
0.285730462865338
0.297102703254626
0.308579720070741
0.320116520430784
0.331671294056673
0.343205576851688
0.354684382593549
0.366076434220747
0.377354018653284
0.388493237245898
0.39947350587215
0.410277734855183
0.420891706338931
0.431303739344438
0.44150518829055
0.45148977784487
0.461253898299557
0.470795545290696
0.480114573582651
0.489211700178047
0.498088426211204
0.506747679979456
0.515192980836968
0.523429107649192
0.531460854188444
0.539293492125075
0.546932517986424
0.554383809293875
0.561653478179185
0.568747465222052
0.575671915788133
0.582432805167701
0.589036362312683
0.595488616716095
0.601795586744322
0.607963275991882
0.613997571776305
0.619904536666302
0.625689876552423
0.631359787265184
0.636919853488254
0.642376701224692
0.647735773019449
0.65300470388461
0.658188436390656
0.663296964740177
0.668333619220101
0.673313673794062
0.678235752897325
0.683127127184296
0.687973397920874
0.69282999072358
0.697647651717974
0.702549751111665
0.70739522735834
0.712474251386556
0.717407556308213
0.722899952396869
0.727955700564962
0.734296459570757
0.739331326358142
0.747255027215738
0.753709338008394
0.760263199389574
0.765836004102051
0.770149161303492
0.772170457118997
0.7701976649168
0.763928557607966
0.752731323440155
0.736943416054705
0.717592935022094
0.693697309170572
0.659299624129688
0.613267943571995
0.530556307246912
0.407659162436117
0.213447413370997
-0.0382547501809134
-0.297458599508938
-0.234466748253733
-0.106198706415029
1.67961255708134e-05
-0.024790203634039
0.0289450137373305
0.082631406705481
0.115996601916194
0.124987111501847
0.134889777330642
0.137754411791244
0.141629436178021
0.143211102901595
0.145423791913106
0.146728759681694
0.148615426993696
0.150489855903973
0.152864493271502
0.155472212607447
0.158049314147944
0.160357473264308
0.162273158347131
0.16366304335315
0.164084166955534
0.161761106123139
0.162775494561098
0.164208337832144
0.167297015370607
0.171305739385627
0.176419872021843
0.182354661579422
0.189112273350962
0.196561286381901
0.20466555427439
0.21334541346279
0.222553339462928
0.232227485812576
0.242317384314565
0.252767264370873
0.263525320695233
0.274537805460952
0.285753092434322
0.297120765865993
0.308593193205987
0.320125442978452
0.331675759661177
0.343205726056576
0.354680393673133
0.366068515361386
0.377342398042968
0.388478157385409
0.399455216557366
0.410256491564461
0.420867770096184
0.431277367223082
0.441476625931453
0.45145925265619
0.461221619843398
0.470761705247932
0.480079352078325
0.489175272907808
0.498050958210198
0.506709319609883
0.515153856803929
0.523389333011177
0.53142053439756
0.539252725164647
0.546891390315135
0.554342394128189
0.561611840163435
0.568705664320209
0.575630009520291
0.582390853181729
0.588994396880524
0.595446659493005
0.60175367379335
0.607921440120911
0.613955841053159
0.61986293657161
0.625648430377149
0.631318518540949
0.636878782978001
0.64233585151911
0.647695161269297
0.652964354495593
0.658148362892663
0.663257199114601
0.668294165753697
0.673274582463637
0.678197002310107
0.68308881169338
0.687935428393466
0.692792574858637
0.69761052163005
0.702513428611546
0.707358994672183
0.712439358874006
0.717372041229472
0.72286707576204
0.727920388303115
0.734267218399581
0.739293369978694
0.747219091732485
0.753670968660822
0.760212548029101
0.765758227520381
0.770020103214312
0.77195837838359
0.76989275814415
0.763539831394389
0.752277548991588
0.736446530476834
0.717030193916276
0.693001110195905
0.658411696467235
0.612017723060309
0.528909549644199
0.405702858458248
0.211671564263256
-0.0386797764304108
-0.295673989126615
-0.233458179495747
-0.106137061436085
4.10864314501776e-05
-0.0246674801387395
0.0289024142032726
0.0823256893968255
0.115782951156992
0.124877059786163
0.134816879867937
0.137730845465318
0.141621597153245
0.143223155484452
0.145443110419122
0.146754868692229
0.148635980928191
0.15050022226736
0.152856608791026
0.155445626101986
0.158009212961157
0.160308815293648
0.162221292952945
0.163616325117729
0.164024470058581
0.161753351692061
0.162793638729113
0.164236227659245
0.1673377048788
0.171352585231548
0.176471297976937
0.182407438806531
0.189164979089056
0.196612199810458
0.204713638934903
0.213389621588416
0.222592906516394
0.232261746668417
0.242345875119836
0.252789578883386
0.263541187802432
0.274547081976596
0.285755746857466
0.297116855714359
0.308582858121717
0.320108893750247
0.331653268332688
0.343177614694612
0.354647021686365
0.366030268726317
0.377299676109153
0.388431365489815
0.399404757588608
0.410202765149641
0.420811174435098
0.431218287117355
0.441415421830647
0.451396251591327
0.461157116393037
0.470695963041883
0.480012614135981
0.489107774213743
0.497982918054906
0.506640931551392
0.5150852844494
0.523320715446806
0.531351999604245
0.53918439123973
0.546823359250843
0.5542747487226
0.56154465079191
0.568638997779861
0.575563927118944
0.582325393768047
0.588929592111751
0.595382549755453
0.601690293090782
0.607858819492108
0.613894006686306
0.619801912565608
0.625588239763343
0.631259187047397
0.636820334980153
0.642278316637372
0.647638564584633
0.65290873468859
0.658093748349235
0.66320364814918
0.668241705791594
0.673223308743524
0.678146924322847
0.683040101591126
0.687888030711678
0.692746837285893
0.697566192054591
0.702471282215659
0.707318264741266
0.712401854003113
0.717335448325474
0.722835815820355
0.727888181814406
0.734245134061403
0.739265656450248
0.747183215146512
0.753610142438236
0.76011663699659
0.765613616871776
0.769803093898865
0.771640466822566
0.76947480386026
0.763040629216747
0.751723395165267
0.735861310885764
0.716380721772378
0.692212782271679
0.657421666671149
0.610660111854768
0.527192633196278
0.403773351848843
0.210133230822399
-0.0384594275208383
-0.292935207747703
-0.231961338085439
-0.10602860000853
7.85466005413914e-05
-0.0244744267529451
0.028927366119692
0.0820122593243691
0.115568093895285
0.124765972750217
0.134742410839338
0.137706418276369
0.141613506395653
0.143235689317648
0.145463384020901
0.146782339081008
0.148656980486799
0.150507977363164
0.152840496995523
0.155402385959397
0.157944394380383
0.160229484486699
0.162135999950107
0.163534442480323
0.163932455336189
0.161744664621212
0.162814715554896
0.16427034380277
0.167386800286905
0.171407497169843
0.176529634955122
0.182465259892545
0.189220614047809
0.19666372217905
0.204759956669974
0.213429655864797
0.222625927215272
0.232287140504417
0.242363232103208
0.25279857250191
0.263541671849473
0.274539047013375
0.28573930568335
0.297092215805948
0.308550312463795
0.320068807584266
0.331606067525989
0.343123772706002
0.35458704494913
0.365964684379559
0.377229016975594
0.388356162085472
0.39932552896859
0.410120019336839
0.420725411868096
0.43112998722105
0.441325030091638
0.45130416888752
0.461063700659829
0.470601531636103
0.479917457326317
0.48901217144475
0.497887129670298
0.506545186155329
0.514989773471648
0.523225599733435
0.531257426219069
0.539090495897435
0.546730258629939
0.554182536316134
0.561453405401017
0.568548794389367
0.575474825219727
0.582237445415424
0.588842847414466
0.595297049747542
0.6016060735393
0.60777591412505
0.613812444968515
0.619721722468433
0.625509449258811
0.631181829151576
0.636744442830877
0.642203931848722
0.647565725524914
0.652837499022273
0.658024164958248
0.66313580600655
0.668175661988825
0.67315920733453
0.678084814509405
0.682980234957046
0.687830399780407
0.692691926172432
0.697513793776531
0.702422404990992
0.707272142993693
0.712360796178534
0.717296934089189
0.722805237255128
0.727858430662346
0.734229058471715
0.739248557094537
0.747147079960606
0.75352783306282
0.759976985217867
0.765403116425329
0.769498110535762
0.771214343530839
0.768936632699909
0.762417942394091
0.751050125496821
0.735165169183721
0.715621317037739
0.691308467507952
0.656304493216749
0.609166387418467
0.525370455391717
0.401827240793735
0.208772090492362
-0.037665916279396
-0.289266428419732
-0.229894320403557
-0.105829840037347
0.00013587442444566
-0.0241902152333625
0.029047848114823
0.0816924947644729
0.11535032635811
0.124653216642463
0.134666363367811
0.137681039863504
0.141605127627102
0.143248765778595
0.145484879493464
0.146811611752763
0.148678760390859
0.150513070963073
0.15281585535568
0.155342604941659
0.157856283112569
0.160122604946565
0.162021225574998
0.163419717306389
0.163810944481202
0.161735164396229
0.162837490048878
0.164309858240421
0.167442471989902
0.171468335753196
0.176592632874638
0.182526068172182
0.189277457369912
0.196714602026665
0.204803803239527
0.213465421572943
0.222652949700665
0.232304863504511
0.2423713032495
0.252796757627161
0.263529926153828
0.274517464694546
0.285708106760687
0.297051715520903
0.308500911273945
0.320010977015477
0.331540337726629
0.343050718600926
0.354507270586635
0.365878809996504
0.377137662931672
0.388259940769348
0.399225035027267
0.410015831217093
0.420618096034075
0.431020083810834
0.441213039341419
0.451190539393202
0.460948831738841
0.470485775794879
0.479801135871479
0.488895592384625
0.497770579474136
0.506428916156693
0.514873993438173
0.523110485398507
0.531143137326693
0.538977179809329
0.546618042071166
0.554071520734529
0.561343678339447
0.568440430803907
0.575367895861043
0.582132015266558
0.58873896608339
0.595194758626621
0.60150541206431
0.607676920128186
0.613715152388679
0.619626164251411
0.62541565910287
0.631089847581248
0.636654311692658
0.642115703786003
0.647479451232617
0.652753252187039
0.6579420123729
0.663055860962275
0.668098006762609
0.673084022769845
0.678012183418445
0.682910465773265
0.687763526845435
0.692628525804921
0.697453703559894
0.702366784042785
0.707220242496213
0.712315216774823
0.717255067077348
0.722772957489718
0.727828260200663
0.734214114067545
0.739236536038775
0.747108540880505
0.753429401191066
0.7598041650664
0.765140572549612
0.769121620964802
0.770697711617281
0.76829349011539
0.761681554028901
0.750259990244623
0.734352483169544
0.714741759885101
0.690274582121692
0.655043624253934
0.60751413683503
0.52340746594622
0.399809614479319
0.207499692229364
-0.0364336307125085
-0.284783677979295
-0.227235780899491
-0.105503157597253
0.000217987003375536
-0.0237976464989021
0.0292815435894287
0.0813749246217735
0.115127473758415
0.124537093774954
0.134588435893737
0.137654515986222
0.141596414119319
0.143262538970972
0.145508040874467
0.146843319030324
0.14870190206123
0.150516055996012
0.152783712422965
0.155268675941365
0.157749006104418
0.159993537211694
0.161882068619658
0.163276052041195
0.163664328706792
0.161723209235464
0.162858827698252
0.164351993253801
0.167501494600809
0.171532235030625
0.176657882866967
0.182588053776233
0.189334305814077
0.196764253881174
0.20484519240555
0.213497512738448
0.222675108360082
0.232316555030564
0.242372214810632
0.252786712825936
0.263508941804012
0.274485700470519
0.285665851311242
0.296999354115183
0.308438915240186
0.319939889071182
0.331460758804984
0.34296329340167
0.354412671057163
0.36577772190399
0.377030768917716
0.388147912196073
0.399108521403636
0.4098954626237
0.420494487442885
0.430893820005464
0.441084661377367
0.451060531985939
0.460817626239784
0.470353752259866
0.479668640216553
0.488762954639256
0.497638105958947
0.50629687590227
0.514742610869274
0.522979948704898
0.53101361646706
0.538848831274201
0.546491000575945
0.553945895442701
0.561219560062413
0.56831790139198
0.575247033244821
0.582012884297712
0.588621617181181
0.595079235628926
0.601391757652226
0.607565175475426
0.61360535496959
0.619518350855719
0.625309867658063
0.630986124058614
0.636552704210379
0.642016272735585
0.647382256115037
0.652658377501404
0.657849537513484
0.662965915134131
0.668010689785756
0.672999538544881
0.677930637989803
0.682832200954374
0.687688605693801
0.692557573778418
0.697386588721767
0.702304737727487
0.707162522602147
0.712264526114548
0.717208757752247
0.722736935788834
0.727794962637634
0.734195598137529
0.739223276114167
0.747064699835397
0.753318328304405
0.759606807978525
0.76483833990739
0.768689264407689
0.770109045998216
0.767564508049019
0.760848781909736
0.749366151025097
0.733430295248079
0.713744084775854
0.689109073454997
0.653633250252968
0.605691827815078
0.521277457010638
0.397671360355675
0.206228259389395
-0.0349123861592202
-0.279650296417277
-0.224023306778781
-0.10502094477073
0.000329327762854474
-0.0232880662064323
0.0296340914405122
0.0810744057540746
0.114898675280109
0.124414822690013
0.134508013316815
0.137626570446387
0.141587359698891
0.14327730038021
0.14553347723607
0.146878201109967
0.148727128197566
0.150517872294403
0.15274578637683
0.155183707580888
0.157626759172347
0.159846647741139
0.161722032759432
0.163106960392749
0.163496613253581
0.161706766198291
0.162875866795896
0.164394251510197
0.167561389522737
0.171597232685981
0.176723906479909
0.18265023990948
0.189390636737404
0.196812577672199
0.204884408298723
0.213526562840423
0.222693350928162
0.232323448587819
0.242367470432566
0.252770182880047
0.263480679903305
0.274445908155733
0.285614862745683
0.296937602660362
0.308366922260365
0.319858248837075
0.331370124515946
0.342864362194162
0.354306166665344
0.365664380815292
0.376911322616296
0.388023078980322
0.398978994868555
0.40976191489519
0.420357573168342
0.430754160604163
0.440942831986676
0.450917048055829
0.46067294708957
0.470208282409431
0.479522747831338
0.488616989294141
0.497492391450744
0.506151697293772
0.51459820629828
0.522836518600297
0.530871340695102
0.538707875040383
0.546351506572042
0.553807981752527
0.561083319536912
0.568183424008156
0.575114399136935
0.581882159818705
0.588492856366433
0.594952485415221
0.601267063644103
0.60744258174109
0.613484902002254
0.619400078609047
0.625193817314551
0.630872345677294
0.636441250511426
0.641907209634127
0.647275649447067
0.652554319043342
0.657748115524613
0.66286726910161
0.667914931655213
0.672906886198374
0.67784121320465
0.682746363659833
0.687606437791006
0.692479722367959
0.697312940582709
0.702236546263712
0.707099041388809
0.712208440707596
0.717157402523395
0.722695961454748
0.727756880355792
0.734170647196942
0.73920436308027
0.747012874226034
0.753195307739208
0.759389154810728
0.764503545075566
0.768210703750032
0.769460504284798
0.766763464314581
0.759933722362746
0.748381671996925
0.732409007007622
0.712635968218572
0.68781730723911
0.652076375246817
0.603699548669583
0.518970427246597
0.395384741546039
0.204898168459528
-0.0332203540808323
-0.274029167218539
-0.220326950829085
-0.10435889239853
0.000475399068827414
-0.0226600365271292
0.0301052410268072
0.080807382641256
0.11466662826399
0.124282864221498
0.134424131561678
0.137596898849823
0.141578072885507
0.143293514408193
0.14556189651629
0.146916968983169
0.148755113911407
0.150519509001217
0.152703830737991
0.155090439677691
0.157492667834977
0.15968470404368
0.161543245191115
0.162915359928997
0.163310760902442
0.161684165796444
0.162886714291036
0.164434967363994
0.16762058126393
0.171662135958576
0.176789836807859
0.182712083939973
0.189446194636647
0.196859583157992
0.204921702217883
0.213553040696084
0.22270834677238
0.232326404604667
0.242358107784474
0.252748367510076
0.263446488575684
0.274399570403976
0.285556744062697
0.296868170573133
0.308286734477936
0.31976793788836
0.331270382956249
0.342755927190111
0.354189801927158
0.365540862461714
0.376781420711551
0.387887549420568
0.398838566844846
0.40961729497519
0.420209448617024
0.430603182988642
0.440789605025399
0.450762113490264
0.460516788838171
0.470051326883045
0.479365383542185
0.4884595834049
0.497335283362061
0.50599518683237
0.514442544631063
0.522681918363281
0.530717991592807
0.538555950822895
0.546201159218811
0.553659334740664
0.560936473489084
0.568038474511468
0.574971428631052
0.581741238531547
0.588354042759589
0.594815829724989
0.601132614565815
0.607310386330615
0.613355003819717
0.619272520703393
0.625068643828228
0.630749610203245
0.636321009586379
0.641789533531388
0.647160608990731
0.652442011197579
0.657638635189246
0.66276076251965
0.667811519525808
0.672806794523297
0.677744574734455
0.682653546430473
0.687517536279629
0.692395387240423
0.697233070124419
0.70216238228183
0.707029829257797
0.712146771112573
0.717100611008403
0.722649262068105
0.727712971537679
0.734137591741624
0.739176892833987
0.746950818482129
0.753059746424638
0.759152957413698
0.764140140291636
0.767691762935013
0.768759719947925
0.765899352811633
0.758946003811043
0.747316146621892
0.731297307670684
0.711425112908621
0.686406427043027
0.650379706032301
0.601544141865585
0.516489728465673
0.392944420079836
0.20348527942289
-0.0314250859863413
-0.268052908632475
-0.216219823283926
-0.103503619268457
0.000664936723062331
-0.021906860605187
0.0306946737225226
0.0805848476450318
0.114438734247761
0.124137948030091
0.134335510886913
0.137565253055918
0.14156883432704
0.143311787028256
0.145593983436599
0.146960177062595
0.148786373949764
0.150521837200777
0.15265934746352
0.154990960133175
0.157348856391704
0.15950945672149
0.161347246139387
0.16270374069243
0.163108942914653
0.161654287991885
0.162890190949963
0.164473034397458
0.167677985567079
0.171726118678642
0.176855060187784
0.182773197006116
0.189500793379015
0.196905278113996
0.204957263184309
0.213577302322884
0.222720608470263
0.232326092101473
0.242344940121423
0.252722215328212
0.263407442327912
0.274347877487035
0.285492790411078
0.296792446847233
0.308199823585395
0.319670499571643
0.331163138201203
0.342639642534053
0.354065270770395
0.365408890784259
0.376642808017323
0.387743080815979
0.398688999428646
0.40946336285987
0.420051865256799
0.430442624120936
0.440626697832735
0.450597421817079
0.460350817982946
0.46988452264623
0.479198152943565
0.488292309317535
0.497168318974032
0.505828845468176
0.51427708974284
0.522517574676155
0.53055495848596
0.538394410574776
0.546041274058677
0.553501231390024
0.560780264165827
0.567884257367553
0.574819290645051
0.581591254429555
0.588206275714907
0.594670333606095
0.600989441483634
0.607169586584327
0.613216624251033
0.619136607577845
0.624935244177376
0.630618780884884
0.636192810499625
0.641664038548484
0.64703789302923
0.652322174891447
0.657521778494479
0.662647035758613
0.667701049686613
0.672699811162223
0.677641218097209
0.682554184733967
0.687422272126324
0.692304860414488
0.697147185820968
0.702082341913526
0.706954872967459
0.712079333752521
0.717038047675051
0.722596216626022
0.727662417949403
0.734095257595454
0.739138718362099
0.746876611636433
0.75291064588152
0.758898840314198
0.763750539322206
0.767136374865013
0.768012019345539
0.764978542742377
0.757892496138402
0.746176495193536
0.730101669306464
0.710117593005422
0.684882621789511
0.648550014064661
0.59923407702842
0.513844948261486
0.390358486798682
0.201990761544808
-0.0295536862409792
-0.261811389670136
-0.211767800992429
-0.102464202621891
0.000903326491446836
-0.0210190446401815
0.0314021488961834
0.0804006982331865
0.114225396811515
0.123978935584219
0.134240713568864
0.137531520161244
0.141560086650844
0.143332762680188
0.145630285306841
0.147008178389852
0.148821267670503
0.150525585384514
0.152613538396918
0.154886804263945
0.157196807032025
0.159322163267584
0.161135371677553
0.162474274235854
0.162892904416187
0.161616460526903
0.162885517342595
0.164507649872044
0.167732765702677
0.171788537857498
0.176919085530625
0.182833264940108
0.189554279334522
0.196949667660635
0.204991245515457
0.213599644823068
0.222730566857256
0.232323075658785
0.242328656930469
0.252692534195233
0.263364459793965
0.27429185048527
0.285424116076851
0.296711629486995
0.308107461606411
0.319567270251252
0.331049781310499
0.342516944516786
0.353934045535191
0.365269965412329
0.376497003221947
0.387591203344165
0.398531827330799
0.409301651582101
0.419886348652144
0.43027399666962
0.440455605521561
0.450424446762473
0.460176483915455
0.469709292458418
0.479022450519112
0.4881165315553
0.496992831198078
0.505653973349458
0.514103108333329
0.522344720695931
0.530383440777969
0.538224421190799
0.545872981501713
0.553334771487886
0.560615757628581
0.567721805589901
0.57465898596032
0.581433176273006
0.588050492391851
0.594516903034191
0.600838419519958
0.607021027043247
0.613070577494819
0.618993123242692
0.624794372160899
0.630480581122372
0.636057345905936
0.641531385981611
0.646908130776678
0.652195405964495
0.657398106593351
0.662526612974354
0.667584007252173
0.67258637820218
0.677531539506906
0.68244862191716
0.687320932314975
0.692208359647919
0.697055433107943
0.701996471698173
0.706874125705392
0.712005935796644
0.716969392205635
0.722536268066019
0.727604493140112
0.734042697328649
0.739088117234499
0.746788545569797
0.75274683331068
0.758626764537383
0.7633361964422
0.76654730331729
0.767221333687244
0.764005845660517
0.756778446177388
0.744968020609625
0.728827071885278
0.708718127601908
0.683250808962404
0.646593061558184
0.596777144746663
0.511047030934345
0.387639885356049
0.200427624848688
-0.0276120802923739
-0.255354344776139
-0.207030109261131
-0.101255671050077
0.0011836645513935
-0.0199856331160919
0.0322246364939224
0.0802475286032726
0.114036627900659
0.123809143456891
0.134138415496937
0.137495751510151
0.141552348218652
0.143357006180462
0.145671161825297
0.147061154881808
0.148860049798236
0.150531354831424
0.152567345146316
0.154779123211835
0.157037631148299
0.159123851607165
0.16090886556122
0.162228882021739
0.162664156297425
0.161570301831907
0.162872155870934
0.1645381950508
0.167784238791944
0.171848869434881
0.176981502367068
0.18289202555793
0.189606523318086
0.196992758465043
0.205023782449584
0.213620326868491
0.222738600388101
0.232317850140578
0.242309864103884
0.252660035904648
0.263318352394315
0.274232393397501
0.285351709560635
0.296626783114801
0.308010780631668
0.319459440800233
0.330931553225119
0.342389115551144
0.35379744172436
0.365125426907501
0.376345364370018
0.387433285550199
0.398368423165528
0.409133532113754
0.419714262805434
0.430098652632716
0.440277663753471
0.450244504078411
0.459995079727452
0.469526904604239
0.47883951825954
0.487933464279558
0.49681000484354
0.505471724879781
0.513921723777862
0.522164448687204
0.530204499587858
0.538047013879935
0.545697279204075
0.55316092456357
0.560443891424571
0.567552026496339
0.574491392014023
0.581267851935025