/*--------------------------------*- C++ -*----------------------------------*\
  =========                 |
  \\      /  F ield         | OpenFOAM: The Open Source CFD Toolbox
   \\    /   O peration     | Website:  https://openfoam.org
    \\  /    A nd           | Version:  7
     \\/     M anipulation  |
\*---------------------------------------------------------------------------*/
FoamFile
{
    version     2.0;
    format      ascii;
    class       volScalarField;
    location    "20000";
    object      Pk;
}
// * * * * * * * * * * * * * * * * * * * * * * * * * * * * * * * * * * * * * //

dimensions      [0 2 -3 0 0 0 0];

internalField   nonuniform List<scalar> 
15600
(
3.96434229638936e-08
3.48577499596687e-08
1.74773540538844e-10
1.01892242995124e-09
4.31015431414363e-10
1.30308131399165e-10
3.74008176785312e-11
1.53142048455715e-11
1.43035553122751e-11
1.61212629621726e-11
3.1281652620624e-11
7.06197520552888e-11
1.88152028170271e-10
4.41398193922545e-10
9.31169700630659e-10
1.60744714813584e-09
2.33840741905622e-09
2.93610046288098e-09
3.18833268651703e-09
2.87493261021958e-09
2.41899781379675e-09
7.31149659437551e-09
2.74239533907837e-08
5.89191275879812e-08
1.04583603857986e-07
1.58853550356666e-07
2.21807416143891e-07
2.89565808600854e-07
3.61374654488169e-07
4.34424989075933e-07
5.07292062817325e-07
5.77615554295304e-07
6.43766700992162e-07
7.03902149155379e-07
7.56766247388841e-07
8.01274394222959e-07
8.36497421587524e-07
8.60745325342734e-07
8.73650975807727e-07
8.75397736381222e-07
8.6656566333892e-07
8.48031980938764e-07
8.20909080147488e-07
7.86468343670198e-07
7.46072115902761e-07
7.0110802615423e-07
6.52927454857166e-07
6.02797686342811e-07
5.51858004612655e-07
5.01104250933839e-07
4.51371709170765e-07
4.03362817452093e-07
3.57649248366166e-07
3.14655456015761e-07
2.74667109675962e-07
2.37838770660388e-07
2.04224214933037e-07
1.73794492841472e-07
1.46483076043729e-07
1.22187564560567e-07
1.00766831665161e-07
8.20498843030099e-08
6.58413065091788e-08
5.19457169593414e-08
4.01677277568194e-08
3.0314740517906e-08
2.21955638763035e-08
1.56283510834566e-08
1.04423666985606e-08
6.47789904851937e-09
3.5858035246536e-09
1.62831154011472e-09
4.78643609083979e-10
2.06313311980104e-11
1.47809931026623e-10
7.62704609217444e-10
1.77588110612983e-09
3.10548926349371e-09
4.67508939629233e-09
6.41511261248404e-09
8.25784147106695e-09
1.01439244900144e-08
1.20081012622275e-08
1.38011643303484e-08
1.54508269029664e-08
1.69244176412719e-08
1.81248192924746e-08
1.90574577224005e-08
1.95615679314541e-08
1.97374835856821e-08
1.92760952407194e-08
1.85212597252215e-08
1.69048151277664e-08
1.52074921119341e-08
1.22274253366791e-08
9.75341060737833e-09
5.73562966690012e-09
3.43333764673976e-09
4.56614023472344e-10
2.1433395720523e-13
4.67931034498248e-10
3.14726059932124e-09
1.26936797771355e-08
3.54287620739479e-08
8.25619263604461e-08
1.52047714559515e-07
2.30018377922009e-07
2.98007370235674e-07
3.34835966930588e-07
3.4654176885718e-07
3.6778130783828e-07
3.93928080727102e-07
4.87476608903518e-07
6.50012884796691e-07
9.4312808399406e-07
1.4177913509714e-06
1.77650694095251e-06
9.81297593200422e-07
1.72202176918462e-07
2.28733343619912e-08
9.12645366208521e-06
7.08037196791989e-06
1.49118393580017e-07
1.42404310268864e-07
6.90336645452071e-08
2.18629940410913e-08
6.40362475247735e-09
2.76271215587097e-09
2.62031556755535e-09
3.13075858144641e-09
6.13400578207761e-09
1.39649949194735e-08
3.60629115801499e-08
8.30342526071591e-08
1.71338161665035e-07
2.97040502151377e-07
4.45209458939295e-07
5.91198545151471e-07
7.00477298205122e-07
7.38599108236616e-07
8.57057157493658e-07
2.01368417385546e-06
5.7515475523647e-06
1.12389318171579e-05
1.84915954669488e-05
2.67558648653016e-05
3.59190111646525e-05
4.54842435109219e-05
5.52953764605549e-05
6.49955275892396e-05
7.43802561712949e-05
8.31639508688609e-05
9.11481101522739e-05
9.8129324732393e-05
0.000103980325548977
0.000108606186665458
0.000111914579196874
0.000113733804572946
0.000114086575917401
0.000113041172116889
0.000110708371016766
0.000107229203438001
0.000102766400042507
9.74953382032663e-05
9.15959208634705e-05
8.5245381875804e-05
7.86115689386208e-05
7.18482750710908e-05
6.50909542184781e-05
5.84556900742301e-05
5.20383476755884e-05
4.59171948750822e-05
4.01536554454478e-05
3.47911276965661e-05
2.98565481805476e-05
2.53617735116605e-05
2.13071597486847e-05
1.76840651417705e-05
1.4478993642722e-05
1.16741159679414e-05
9.24729400516892e-06
7.17330032919849e-06
5.42480062135658e-06
3.97453430864517e-06
2.79542560532244e-06
1.86092657870928e-06
1.1451603585575e-06
6.23634559245124e-07
2.73352563007668e-07
7.28176569487857e-08
2.03102447407329e-09
4.2523844920125e-08
1.77302580452683e-07
3.9075199751596e-07
6.68497817402338e-07
9.97402991547842e-07
1.36527765741134e-06
1.76094875859941e-06
2.17379471484033e-06
2.59416179313979e-06
3.01239268337684e-06
3.42004204632968e-06
3.80741615873121e-06
4.16722320494401e-06
4.48828147457892e-06
4.76533383138753e-06
4.98301956267882e-06
5.14110017510741e-06
5.21418873342069e-06
5.21502197571853e-06
5.09543627565292e-06
4.9034443268047e-06
4.55706240747507e-06
4.16227559767759e-06
3.5349485499381e-06
2.93668113012923e-06
2.03738693136917e-06
1.37202617568868e-06
4.8904899469138e-07
2.65720556813748e-07
6.56750908416297e-07
1.62897988192751e-06
3.74885341938109e-06
7.71533125039698e-06
1.4627927269e-05
2.39782312612532e-05
3.42942974962469e-05
4.34575117535608e-05
4.90493834542794e-05
5.15716277439452e-05
5.48317499364117e-05
5.88017886710311e-05
7.13027077063073e-05
9.31194244051856e-05
0.000132916898728734
0.000197650656303749
0.00024945955316868
0.000157671167409053
3.9482604207264e-05
7.99154635507024e-06
0.000241960220432402
0.000166545438230233
7.66933748068823e-06
2.14165055515887e-06
1.25547141641728e-06
4.19432104142521e-07
1.25742029998554e-07
5.74940594344746e-08
5.55624755588325e-08
7.03711233693844e-08
1.39210934570885e-07
3.18564783814453e-07
7.96525699200431e-07
1.79399175371851e-06
3.616949518861e-06
6.2928329442499e-06
9.70966340021697e-06
1.36005430575062e-05
1.74546278806388e-05
2.10329949675637e-05
2.87116202686305e-05
5.50255376771568e-05
0.000125029500977073
0.000219045607468593
0.000329618986685751
0.000447063362136144
0.000568348324449072
0.000687835349415384
0.000803318176288057
0.000911166433759094
0.00100934076396739
0.00109540755825254
0.00116788932756313
0.00122551032498741
0.00126780969777741
0.00129478891132872
0.00130524127115314
0.00129960726313874
0.00127898044385738
0.00124480195645356
0.00119877570473104
0.00114275825770516
0.00107867903588284
0.00100846828700843
0.000933994772473438
0.000857016163003278
0.000779134753361961
0.000701771613448408
0.000626144429696464
0.000553269286498053
0.000483965682539562
0.000418876729270732
0.000358479571661268
0.000303084520240839
0.000252853312188258
0.00020781705270625
0.000167906529853802
0.00013297668249791
0.000102833206861329
7.72383720609534e-05
5.59165200127028e-05
3.85661283812625e-05
2.48720754752884e-05
1.45187131132983e-05
7.19222013325714e-06
2.58475490293106e-06
3.98614332039173e-07
3.50484489069192e-07
2.17206430999268e-06
5.61056365546168e-06
1.04291400938635e-05
1.64083499186548e-05
2.33420525868004e-05
3.10400845812662e-05
3.93238383670333e-05
4.80287699492608e-05
5.69990283987882e-05
6.60892076123444e-05
7.51577590262857e-05
8.40733709514292e-05
9.27018613457588e-05
0.00010092078847926
0.000108589173757474
0.00011559011187216
0.000121756579401519
0.000126984275720401
0.000131045515281121
0.000133877509864175
0.000135117075744701
0.000134826587378376
0.000132344022467424
0.000128111015114971
0.000121126439857104
0.000112478351895452
9.97052441869442e-05
8.5869542437878e-05
6.63818423428807e-05
4.85750298823103e-05
2.55133388100653e-05
2.23813131879061e-05
3.63143927796432e-05
6.38412873799203e-05
0.000108167585687048
0.000177140627243225
0.000279194206159773
0.000406755739730626
0.000547650739338587
0.00067926933242944
0.000774648288736682
0.000834435609060051
0.000896154483219825
0.000967560132204103
0.00114974338918178
0.00146455749441354
0.00204181349672133
0.00298109266797244
0.00377443666620881
0.0027465295073796
0.000966854266412042
0.000275850450554172
0.00230134914880572
0.00142502857393393
0.000111236266689377
1.06937939524258e-05
8.26793218114293e-06
2.93934365561514e-06
9.05710455979158e-07
4.41215089508865e-07
4.35866310413412e-07
5.83877697408146e-07
1.1635750142146e-06
2.65731239111738e-06
6.40448010007764e-06
1.39953753757983e-05
2.73815519644566e-05
4.73367005997216e-05
7.40888076340082e-05
0.000107245027890256
0.000145489767197182
0.000191647193205207
0.00027238115356581
0.000428727514339683
0.000772084515414715
0.00116352062542461
0.00154685460808992
0.00190180501142237
0.00222223769438417
0.00250082450730088
0.00273656587870887
0.00292700355660514
0.00307242796942486
0.00317313217466367
0.00323087541244213
0.00324797245309234
0.00322798056274973
0.00317317145740127
0.00308611303934931
0.00297172892082346
0.00283451957604909
0.00267896124037013
0.00250938761625745
0.00232989812181106
0.00214429322177529
0.00195603551241535
0.00176821969678853
0.00158356017426702
0.00140438408113798
0.00123264118537766
0.00106991730271833
0.000917463165225931
0.000776227226766939
0.000646882838321592
0.000529849828602707
0.000425314546928422
0.000333261872103115
0.00025350934696599
0.000185741554996312
0.000129542279628667
8.44144712683368e-05
4.97894462420289e-05
2.50442733317073e-05
9.5199542718303e-06
2.53916587229066e-06
3.41540716958693e-06
1.14604740992187e-05
2.59946521036956e-05
4.6354200672145e-05
7.18914359075081e-05
0.000101978122273208
0.000136008454106025
0.000173397485279708
0.000213604768104271
0.000256086859740354
0.000300330257908596
0.000345843408136721
0.000392154703085697
0.000438802999590128
0.000485336388022556
0.000531304647801921
0.000576262929989084
0.00061975829794663
0.00066132797462476
0.000700476873486678
0.000736691646805273
0.00076938853373634
0.000797977663402874
0.000821712795227274
0.000839906225403856
0.000851496356460761
0.000855711997179649
0.000850846097856582
0.000836180272034684
0.000809615088994697
0.000771198966218419
0.000715204228791591
0.000644350551043559
0.000547130325747641
0.000437127026088841
0.000293911662533684
0.000303077067492004
0.000400225144996736
0.0005690575079803
0.000793573697091029
0.00110396468744863
0.00151037739694735
0.00200312066992319
0.00258110402107597
0.00319330790909476
0.00376571494122618
0.00426421799504328
0.00474769945964588
0.00527020079632177
0.00622311597732299
0.00776378891257917
0.0105248999852276
0.0149419745610743
0.0188061984438484
0.0156796898476344
0.00766704656181296
0.00302589345823914
0.0118601316657579
0.00683653334647276
0.00079853261877956
2.62741393757394e-05
3.13467323294938e-05
1.19897056820017e-05
3.81614129530452e-06
1.98985510636747e-06
2.01532377533911e-06
2.84144197625686e-06
5.67291549627839e-06
1.2771901037439e-05
2.93383258542891e-05
6.11063404792681e-05
0.000113627343443966
0.000189409882872161
0.000288931839226733
0.000412525467380852
0.000564622631912423
0.000764711288622436
0.00104394539137374
0.00135550592060795
0.00188160140173061
0.0023283595405074
0.00263943125269915
0.00285288569790957
0.00298652774021893
0.00305666324795493
0.00307337661236307
0.00304601947305446
0.00298162908118042
0.00288712403804086
0.0027682383564995
0.00263055123968634
0.00247934883086446
0.00231758434941345
0.00214899538285158
0.00197694727026937
0.00180428403681021
0.0016334274138282
0.00146639773244084
0.0013048795360287
0.00115025389792484
0.00100363897546207
0.000865919058817618
0.000737774311961708
0.000619707341760392
0.000512066915311224
0.000415069987171103
0.000328818058456211
0.000253314233650642
0.000188473461745029
0.000134136614272902
9.00842390572578e-05
5.60475259191008e-05
3.17174341508587e-05
1.67486885756516e-05
1.07623563642747e-05
1.33528373001234e-05
2.40985141681157e-05
4.25656538805858e-05
6.83141511562013e-05
0.000100889182488646
0.000139829432173408
0.000184674395665214
0.000234971837521999
0.000290268329574514
0.000350105468990139
0.000414022826282502
0.000481566037766164
0.000552308409798239
0.000625799164658052
0.000701601083815356
0.00077927098468794
0.00085837753259678
0.000938478215951862
0.00101913313836564
0.00109987509715554
0.00118024265538578
0.00125972756910103
0.00133784535226026
0.00141399923513879
0.00148766258627788
0.00155806751635431
0.00162464946275101
0.00168633029266444
0.00174256042126391
0.00179165708042164
0.00183324486126505
0.00186439924516002
0.00188534306658943
0.00189041582806421
0.00188184734843323
0.00184937806228044
0.00179852459643348
0.00170715438052181
0.00158649309049398
0.00139749042738905
0.00115312257112768
0.00124512365026335
0.00140792687362685
0.00170140160003421
0.00207314016552646
0.0025756297275201
0.00319100553912328
0.00395611085445101
0.0049659122692975
0.00625233827805406
0.00783846485238143
0.00966450813050294
0.0116172712221546
0.0137649099884951
0.0166755601144518
0.0207922702721077
0.027604422873324
0.0380034265476384
0.0474261084248953
0.0451130115333397
0.0300155818784312
0.0162600406594698
0.0381130816625741
0.02158297689084
0.0035660616537435
3.3706160098457e-05
8.36846856619477e-05
3.49859221830884e-05
1.15753527338263e-05
6.48547045849407e-06
6.74463356775903e-06
9.9201637582186e-06
1.96281929989884e-05
4.27206054256252e-05
9.15314847991799e-05
0.000176125272304949
0.000299710725954454
0.000459448443509084
0.000649354994780571
0.000872867729307632
0.00115618934019827
0.0015389332316208
0.00196382686324694
0.00213573543764832
0.00225973302561113
0.00226774610770198
0.00218048997782842
0.00206884258850936
0.00194166777872632
0.00181062303187662
0.00167618858480879
0.00154200798525015
0.00140890268820414
0.00127887436506349
0.00115294001172113
0.00103251296780709
0.000918308444204094
0.000810299171994918
0.000708998322400438
0.000614777106316846
0.000527817647212006
0.000448206327273719
0.000375937789943393
0.000310951681694522
0.000253142523723102
0.000202375403633467
0.000158493899621258
0.000121328435361251
9.07021889742887e-05
6.64344206261047e-05
4.83409422483543e-05
3.62334513500495e-05
2.9916855373476e-05
2.91966711098042e-05
3.38880489716677e-05
4.38120973212725e-05
5.87923917759791e-05
7.86467301206153e-05
0.000103185427507942
0.000132203707562455
0.000165498146285211
0.00020287793747003
0.000244155800997433
0.000289145695242836
0.000337642091201404
0.000389440222010433
0.000444340506334079
0.000502154125489276
0.000562678478959416
0.000625699944014282
0.000690993837288776
0.000758362936898026
0.000827603068245198
0.000898505316686121
0.000970858312646307
0.00104443557653202
0.00111902506400069
0.00119438914205014
0.00127030067960093
0.00134649047367549
0.00142271644119138
0.00149866515239113
0.00157409423964859
0.00164859488853874
0.00172194246635491
0.00179354002752419
0.00186325995528273
0.00193013059764802
0.00199433758381516
0.00205409330336729
0.00211044772710305
0.00215974819815929
0.00220531485757694
0.00223903953185267
0.00227029745132489
0.00228092740161823
0.00229433482744638
0.00226660577283975
0.00225319916920228
0.00215176499696214
0.00207648497973301
0.00226875810914863
0.00234149650737459
0.00255358346526876
0.00286060940767068
0.00329740898718993
0.003792557418024
0.00439782233903017
0.00528080567202846
0.00661216399800836
0.00868708552703845
0.0116920379764427
0.0154627024095039
0.0200783979342386
0.025716935801591
0.0328810252608996
0.0434388051005432
0.0583159939544073
0.0725753976849323
0.0798425741840143
0.070394441570689
0.050785424794028
0.0823343919600722
0.0482570874188044
0.011011832937003
3.45427878451168e-05
0.000172441756681909
8.07671479692063e-05
2.80163362620068e-05
1.69185550533765e-05
1.80480275203487e-05
2.73033125670947e-05
5.25926764337109e-05
0.000107635623429603
0.000208446272795067
0.000356239995378767
0.000532812200699826
0.000724863688586011
0.00092955743228762
0.00116949411239991
0.00149541286628429
0.00193350635508595
0.00229227225929343
0.00211318674943264
0.00173299166112095
0.00144225200389811
0.00119364162049874
0.00100351471691349
0.000847313679897408
0.000718644275179506
0.000608233171558838
0.000513060756952883
0.000429915364958649
0.000357482067638086
0.000294492028920827
0.000240265362195522
0.000193807038041505
0.000154471227280131
0.000121782138210494
9.52521514779198e-05
7.44010913188603e-05
5.87864570937824e-05
4.79938961805666e-05
4.16451338466487e-05
3.93954316910534e-05
4.09360194715653e-05
4.59933089752666e-05
5.43287227542437e-05
6.5736278834554e-05
8.00392228310827e-05
9.70831197187481e-05
0.000116732670221499
0.000138863047139541
0.000163367526991456
0.00019016576847291
0.000219193030858107
0.000250390348854064
0.000283690865932188
0.000319020525415377
0.000356288339936721
0.000395410373241037
0.000436322114188377
0.000478964616311546
0.000523277161355655
0.000569171004322958
0.000616559348910771
0.00066536148916354
0.000715509852503532
0.000766914003483309
0.000819460144757025
0.000873045474515463
0.000927581028223292
0.000982992216901405
0.00103917945729179
0.00109604290307611
0.00115346792283419
0.00121135990286759
0.00126959694895038
0.00132807325629894
0.00138664068372777
0.00144519167492052
0.00150354680168495
0.00156162122199802
0.00161915647456519
0.00167612407261704
0.00173210473377398
0.00178724003329982
0.00184077413573536
0.00189329946946927
0.00194328862497526
0.00199248058306794
0.00203751581469494
0.00208305290048931
0.00212120355953868
0.00216438451889803
0.00219406701561725
0.00224144949391448
0.00226028448703878
0.00232967610502143
0.00233487258001354
0.00247501616272271
0.00276930891447701
0.00279220709841694
0.00291400579967759
0.00312947953440117
0.00345058076835841
0.00376173648162266
0.00407952224806623
0.00456320046230318
0.00540693533856672
0.00701156391428339
0.00980298400608717
0.0138240000630674
0.019360263555009
0.0261634764018994
0.0344252599020335
0.0454758540742763
0.0595323468168166
0.0736402248883426
0.0972620066088793
0.112610610360136
0.103270299849482
0.131221531623584
0.0817612031144616
0.0251228158459049
0.000219725686619315
0.00028333976524604
0.000154953427788312
5.70304977130618e-05
3.72153751664968e-05
4.05344648926047e-05
6.18267336775595e-05
0.000113141398893198
0.000210808213615528
0.00035713771216573
0.00052563196458865
0.000679181888760893
0.000823545843855956
0.000982448900604697
0.00119273313650694
0.00149887803693429
0.00187836694081766
0.00205552447109798
0.00161494627558671
0.00105647052339645
0.000742658489856336
0.00052467150089255
0.000379834536072275
0.000274996559367927
0.000198224934812604
0.00014002498744149
9.61846252381032e-05
6.34826234840222e-05
4.01247281647986e-05
2.46783049543101e-05
1.61001421751183e-05
1.34636845262186e-05
1.60676630187529e-05
2.32556813208374e-05
3.44141273208488e-05
4.89791280427201e-05
6.64480079371998e-05
8.63754024622155e-05
0.000108371851163515
0.000132100022540101
0.000157273922814808
0.000183657056032415
0.000211060250096412
0.000239336869471564
0.00026837781342018
0.000298102416985322
0.000328456282714341
0.000359398966262069
0.000390909321821859
0.000422995798263172
0.00045568356685153
0.000489000078155703
0.000522958758646237
0.000557562517164463
0.000592790363063555
0.000628626087752875
0.000665076368266258
0.000702154717784759
0.000739870108766053
0.000778192924018761
0.000817092246373878
0.000856543558622855
0.000896539116464649
0.000937035259957068
0.000977964364728243
0.00101927457796601
0.00106094315178908
0.00110294568336069
0.00114523073599749
0.00118774660121084
0.00123042719149108
0.00127323019797963
0.00131608671596882
0.00135894445722336
0.00140170992331086
0.00144433564997434
0.00148670592371138
0.00152880806367277
0.00157045868074332
0.00161171568932557
0.00165225693783141
0.00169233562203413
0.001731334420782
0.00176999469399614
0.00180700712372051
0.00184431285757105
0.00187894058530585
0.00191583616431069
0.00194790820771469
0.00198787561115053
0.00201906683731134
0.00207386096620191
0.00211029499023531
0.0022126782745028
0.00227642038829235
0.00253532771375574
0.00293399395434688
0.00299722821307205
0.00309689495594238
0.00327233749908164
0.0035300567099974
0.00373078616703287
0.00385293774407645
0.00403035539512858
0.00442738858324798
0.00539830850354874
0.00739076353822729
0.0105286007849746
0.0151941123369949
0.0209530741421178
0.0275911429867878
0.0356581803696879
0.0444696657382658
0.0526743762170063
0.0868694648367428
0.135854421554037
0.151387351237172
0.164415716503756
0.113180605208928
0.0449672450807046
0.00129916972622915
0.000366200462980873
0.000251820021660496
9.99666729685355e-05
7.06911316966727e-05
7.79584801599407e-05
0.000117032205304609
0.000198115898290679
0.000326731736292415
0.000474335974559253
0.000597192016626427
0.000677870486340707
0.000761094867683205
0.000882375974554025
0.00106668935527628
0.00133165844209701
0.0016098415259423
0.00162151568006096
0.00109801837960477
0.000589737589454359
0.000347243827622953
0.000199087900571997
0.000111142082625014
5.6908515741078e-05
2.44962822642671e-05
6.9927460136282e-06
5.50526784582544e-07
2.77878792236763e-06
1.20504501049615e-05
2.71649933163061e-05
4.71753742615491e-05
7.13449056139147e-05
9.8970933834156e-05
0.000129392010377341
0.000161995057640522
0.000196218370842432
0.000231564538580315
0.000267605962084808
0.000303979424100994
0.000340382373255596
0.000376570731612765
0.00041235728379882
0.000447608698083417
0.000482239638255939
0.000516207232368654
0.000549500758362788
0.000582141164399545
0.000614164022883052
0.000645620335732516
0.000676591677353589
0.000707177468222344
0.000737476017941105
0.000767565687994329
0.00079751109008778
0.000827342949904181
0.000857089611029554
0.000886806363702512
0.000916557919382356
0.000946403620070389
0.000976352110650833
0.00100640404981371
0.00103656692157177
0.00106686926079487
0.00109728643430624
0.00112778144525129
0.00115834066765436
0.00118896878374799
0.00121966801882913
0.00125041167651678
0.00128117077500935
0.00131190193031421
0.00134258828872196
0.0013731876996201
0.00140367269760632
0.00143397513986732
0.00146407497594966
0.00149388755554708
0.00152343429752854
0.00155256939674152
0.00158138866175387
0.00160962171004477
0.00163756712939149
0.0016646900248275
0.00169178200623737
0.00171768194512708
0.00174436815598264
0.00176917348368106
0.00179701071171294
0.00182151154138455
0.00185499389888097
0.00188261465525197
0.00193596725108019
0.00197785026835077
0.00209109715176196
0.00218445989391413
0.00249550585809704
0.00298009778801537
0.00312379657448835
0.00324791623054017
0.00342535856816392
0.00366749143272824
0.00382415409258019
0.00384558408876206
0.00384832401856616
0.0039704342969435
0.00449878300332513
0.00582821888131098
0.008053389259827
0.0114840518520666
0.0156004915467383
0.0198333076650403
0.0241630005995489
0.0274011134014156
0.0283082627035146
0.0584339555161391
0.132737606010724
0.174348936946208
0.179437968976131
0.137374877556458
0.0671828965971948
0.00462855531372144
0.000347776153393479
0.000346950589259516
0.000151614185448427
0.000116690138157808
0.000128957551319148
0.000186093181259522
0.000285313180524611
0.000410358881769074
0.000510072415072881
0.000559344429428681
0.000579269762061347
0.000630131848965206
0.000735342899697248
0.000900352543184893
0.00111822668677561
0.00129951746746265
0.00121227802348955
0.000726031122603467
0.000334966972105566
0.000167344643816581
8.12253507254771e-05
3.90070939172618e-05
2.39174684870987e-05
2.47126987713744e-05
3.70581187455689e-05
5.75453584045487e-05
8.4553513227283e-05
0.000116659465974253
0.000152894994265626
0.000192456415694652
0.000234699251168763
0.000278937158546046
0.000324530478197701
0.000370877741038941
0.000417420693630492
0.000463666975938234
0.000509205471293611
0.000553697654376378
0.000596873311693072
0.000638527001321784
0.000678516809655616
0.000716760755416796
0.000753230116444519
0.000787943746217745
0.00082095661636123
0.000852361402384457
0.000882264991648087
0.000910782748633446
0.00093806140368661
0.000964267972315294
0.000989566019195936
0.00101409381081626
0.00103797334188531
0.00106128024955906
0.00108407623478108
0.00110645518580035
0.00112852456254681
0.00115038770932714
0.00117208394068642
0.0011936347456991
0.00121506893451379
0.00123643586388082
0.00125772787999404
0.00127893467485837
0.00130006875988677
0.0013211451665399
0.00134218381292245
0.0013631733529636
0.00138409642178105
0.00140492096913279
0.00142564384924209
0.00144623833153141
0.00146668925567403
0.00148694069831669
0.00150698554808111
0.00152675540646894
0.00154628923633725
0.00156546143286273
0.00158438510000328
0.00160281938641749
0.00162108210420272
0.00163869043400808
0.00165645222941535
0.00167330884262656
0.00169123045207094
0.00170777620098021
0.00172776132366925
0.00174538848188324
0.00177252491268498
0.00179577473407618
0.00184565881298011
0.0018889751275962
0.00200554334940286
0.0021160896940733
0.00244838921448687
0.0029956177697458
0.00322854027213879
0.00340244694937839
0.00360874872480256
0.00386631369709868
0.00402036766550461
0.00400192497859174
0.00391839224116495
0.00389188770932775
0.0041579169101125
0.00506607309831514
0.00667163993182714
0.00918752428681393
0.0120847577714495
0.0146024363408698
0.0164295698425205
0.0163257776054507
0.0125955279145699
0.0296160207896241
0.109851200063738
0.178405318700936
0.179426254714726
0.148759067560271
0.0883751111217262
0.0115959735571954
0.00020841024373239
0.00040288903258079
0.000197827282921248
0.000166896745292792
0.000183295838538777
0.00025004294248568
0.000343997812408553
0.000432102582432573
0.000467273662011539
0.000460435361357109
0.000452833729925891
0.000494385904380452
0.000592832059052274
0.00073981942850328
0.000912695653493599
0.00102044105162068
0.000894937216111327
0.000497007614085953
0.0002204439722161
0.000113578346522416
7.73681389770872e-05
7.09577063367343e-05
8.66863098601614e-05
0.000113496475466131
0.000149209389100132
0.00019069876674242
0.000236966728295426
0.000286744363997834
0.000339255807633123
0.000393786519283161
0.00044974330024829
0.000506456616687075
0.000563306940605636
0.000619697835238871
0.000675064510570124
0.000728911159482608
0.000780836422071468
0.000830521072013156
0.000877722407371482
0.000922269108457173
0.000964060407308955
0.00100306190112117
0.00103929822771071
0.00107284748848318
0.0011038285477569
0.00113240517937421
0.00115875430952378
0.00118305162491193
0.00120550512553374
0.00122634708356328
0.00124580513647263
0.00126407685700376
0.00128134200779992
0.00129771936663141
0.00131329778371039
0.00132820471460834
0.0013425869596849
0.001356590534846
0.00137028309810957
0.00138370159140106
0.00139688990051737
0.00140990648033228
0.00142276850982812
0.00143549657716186
0.00144810997545836
0.00146063034689269
0.00147309132955475
0.00148549287759579
0.00149782368372707
0.00151005731217631
0.00152219853699817
0.00153423066130652
0.0015461447339066
0.00155789044800876
0.00156946645903715
0.00158081325210165
0.00159197946252256
0.00160285101307183
0.0016135487377054
0.00162384984010041
0.00163408032733311
0.00164379292332996
0.0016538002842562
0.00166311876562174
0.00167370260918509
0.00168328359702219
0.00169658755039693
0.00170826326029674
0.00172982958896825
0.00174899940544728
0.00179538120059074
0.00183898034533286
0.00195663966289189
0.0020792762616809
0.00241958302217583
0.00300997739574608
0.00332824536459539
0.00356527571630325
0.00381762423369728
0.00411018620857276
0.00428649177899141
0.00426531756194841
0.00415027390770103
0.00405385821573933
0.00417592183730487
0.00484093665558915
0.00608379178135778
0.00805600317335786
0.0102855976142818
0.0119800719702203
0.0127241482155211
0.0114640705255361
0.00596359498912231
0.0108782433396062
0.0790637968335292
0.165682185665654
0.165807195153672
0.151942827396181
0.106271802721083
0.0226431690581956
9.23798323082775e-05
0.000394311247491813
0.000220611916605774
0.000206015790242467
0.000224388505133557
0.000287733935631311
0.00035646326673205
0.000396345886447711
0.000382053566389021
0.000349291551026678
0.000336708161624147
0.000377358898780988
0.000469980544658364
0.000598827519060162
0.000733304760662059
0.000792964046025213
0.000668543680171234
0.000370676074316046
0.00019013609407273
0.000131941793979458
0.000136951631146231
0.000160108173055776
0.000201747844613649
0.000250514623942319
0.00030605365945328
0.000365381561256496
0.000428022487794206
0.000492815095528935
0.00055914270735054
0.000626329458579552
0.00069382323451156
0.000760966665386217
0.000827154786902212
0.000891788518558855
0.000954286596873713
0.00101414157745335
0.00107095601351921
0.00112442556386667
0.0011743313602717
0.00122053293408111
0.00126296789235479
0.00130164713359954
0.00133664696479096
0.00136810387505073
0.00139620047977318
0.00142117291672334
0.00144326899194463
0.0014627227125463
0.00147980144865928
0.00149480242470249
0.00150801817404368
0.00151970697588367
0.0015301089779462
0.00153938681191353
0.00154765253952842
0.00155506432457595
0.00156180713377783
0.00156807055999403
0.00157395068284733
0.00157949688261633
0.00158475891066681
0.00158980645324536
0.00159469020377605
0.00159945525824538
0.001604119718043
0.00160871008644412
0.00161327187161406
0.00161781456910096
0.00162232979976762
0.00162679349055747
0.00163121520346009
0.00163558555498904
0.00163989854143085
0.00164410577178555
0.00164820771163893
0.00165214973372151
0.00165598609537936
0.00165960958415566
0.00166314388604343
0.00166637794032459
0.00166964100204009
0.00167251196985477
0.00167580501892204
0.00167859490091381
0.00168282347967378
0.00168635985639404
0.00169386603250294
0.00170034664861176
0.00171708672376298
0.00173266960572368
0.0017760187434483
0.00181972894908633
0.00193807845597684
0.00207074608312357
0.0024135472493387
0.00303257411171541
0.00342791476754831
0.00373462426493825
0.00404420500683038
0.00438421589673079
0.00459786669914414
0.00459763740809896
0.0044868424708935
0.00437098825970953
0.00442454168936328
0.00496228636844091
0.00601718525104718
0.00771792624970725
0.00969163179646302
0.0112105156333577
0.0118246880343548
0.010704000955143
0.00493559879930905