/*--------------------------------*- C++ -*----------------------------------*\
  =========                 |
  \\      /  F ield         | OpenFOAM: The Open Source CFD Toolbox
   \\    /   O peration     | Website:  https://openfoam.org
    \\  /    A nd           | Version:  7
     \\/     M anipulation  |
\*---------------------------------------------------------------------------*/
FoamFile
{
    version     2.0;
    format      ascii;
    class       volSymmTensorField;
    location    "20000";
    object      tauij_B_bouss;
}
// * * * * * * * * * * * * * * * * * * * * * * * * * * * * * * * * * * * * * //

dimensions      [0 2 -2 0 0 0 0];

internalField   nonuniform List<symmTensor> 
15600
(
(5.31869165182695e-07 -1.16359367367026e-09 2.93030332201907e-36 5.31877748505978e-07 -3.32554196167836e-32 5.31872738768284e-07)
(3.78349198927432e-07 -9.17906732352908e-10 -1.45843462238041e-29 3.78584323884179e-07 -7.80032839216413e-28 3.78467223775888e-07)
(1.49890679229749e-07 -3.84768776685185e-11 -3.27406430601235e-28 1.49921985059164e-07 -4.26292830358951e-28 1.49905637555673e-07)
(2.85252639118659e-08 2.67962935499719e-11 -3.10797616926843e-29 2.84561314149217e-08 -4.40439288924184e-31 2.84904642964382e-08)
(1.97151757387978e-08 9.29232336034127e-12 1.0642710920752e-27 1.96697026208212e-08 1.98769512667948e-27 1.96923139327232e-08)
(1.69618706886567e-08 3.26458605756874e-12 7.87754267521267e-28 1.69354351582687e-08 9.65580173093543e-28 1.6948605900712e-08)
(8.18269283288717e-09 9.84069758229369e-13 -1.47238660777077e-29 8.17159098737843e-09 6.11237508225494e-31 8.17711680641347e-09)
(6.52705250014448e-09 5.98429636445987e-13 -2.48337391885527e-29 6.51990199811127e-09 2.26629523112661e-30 6.5234736131149e-09)
(7.17186978781314e-09 7.95359488626515e-13 1.46792591604201e-27 7.16377142354045e-09 1.80577829863476e-27 7.16781489933409e-09)
(9.47164762115183e-09 1.19875702700299e-12 3.0231184292302e-27 9.46075087423766e-09 3.70040118466794e-27 9.46621031431523e-09)
(1.39929456165851e-08 2.40281910687526e-12 2.95403024606236e-27 1.39728424623503e-08 4.08880085040745e-27 1.39829103507829e-08)
(2.19830209501826e-08 5.10747973375042e-12 1.09910181485803e-24 2.19421204767632e-08 1.42527668963563e-24 2.19626299811707e-08)
(3.55410828755722e-08 1.18821760054473e-11 2.10197161247275e-24 3.5450079160731e-08 2.75436343114806e-24 3.54956572732252e-08)
(5.67220950666103e-08 2.75313895151193e-11 -3.31381119803344e-26 5.65344780644114e-08 -4.46045871627319e-26 5.6628427398395e-08)
(8.78397409454203e-08 6.44617469678311e-11 -3.6522068178781e-26 8.74822481292652e-08 -4.88622806853489e-26 8.76611526401556e-08)
(1.29772693619537e-07 1.39668028632165e-10 -7.86881954305991e-26 1.29182955456401e-07 -1.17737120570543e-25 1.2947812803221e-07)
(1.80895559275915e-07 2.73702366504688e-10 9.82349109724071e-27 1.8006252981093e-07 -1.53133488860198e-27 1.80479782961982e-07)
(2.37567372525978e-07 4.64634060503887e-10 -0 2.36573444915381e-07 -0 2.37071951196283e-07)
(2.93469705745609e-07 6.70273751065742e-10 -1.20319948426519e-29 2.92502983824187e-07 1.80521170497591e-30 2.92988777596353e-07)
(3.35387075891501e-07 7.94475517390957e-10 7.46702976579865e-27 3.34700705212555e-07 -1.37645355432873e-27 3.35046931447934e-07)
(3.60322595402383e-07 8.17033182834156e-10 -2.09167557013033e-27 3.60005727150633e-07 -7.27039323073049e-26 3.60164271454562e-07)
(4.38739435587706e-07 1.58814293036336e-09 -9.85415848923454e-27 4.38620447543139e-07 -1.87457796290951e-28 4.38684683403217e-07)
(6.5374117895254e-07 3.75506635893951e-09 -2.9905430585398e-28 6.53602068607721e-07 2.68148460564128e-28 6.53674563179226e-07)
(8.97507362805806e-07 6.449767588241e-09 3.89959569859702e-29 8.97349787799001e-07 -5.23142688274632e-30 8.97437378960106e-07)
(1.14902610101525e-06 9.72325115420489e-09 2.65393618446607e-29 1.14885283861226e-06 -3.36788592683807e-30 1.14895032411827e-06)
(1.39972278263755e-06 1.32264682485189e-08 -2.97796830379464e-29 1.3995406091298e-06 6.39479016587545e-28 1.39964794268042e-06)
(1.65037118936989e-06 1.69710543439373e-08 -8.69045638223955e-29 1.65018320051525e-06 -1.51012737158306e-27 1.65029729896651e-06)
(1.8969172333561e-06 2.07889003465747e-08 1.41503906948392e-28 1.89672555097427e-06 8.69602364018319e-28 1.89684670006346e-06)
(2.14036764978845e-06 2.46694428947433e-08 -1.07616419927323e-28 2.14017473532335e-06 1.4690672469603e-27 2.14030095930348e-06)
(2.37841281487351e-06 2.85127668689411e-08 -7.94446910170488e-29 2.37822091888209e-06 -4.52152147704185e-27 2.37835150205452e-06)
(2.61078753719287e-06 3.22815810207385e-08 1.38611347859894e-28 2.61059963787114e-06 1.76385684643864e-27 2.61073256794821e-06)
(2.8356890383172e-06 3.58996446939857e-08 1.82696962458128e-28 2.83550799220898e-06 1.51900020176328e-27 2.83564174439366e-06)
(3.0522965034102e-06 3.9320610580977e-08 -6.97758535744673e-29 3.05212543207959e-06 1.80625721196384e-27 3.05225792452645e-06)
(3.25945247860359e-06 4.24885797069546e-08 -2.11003959094274e-28 3.25929432744804e-06 -2.59589953106722e-22 3.25942371035723e-06)
(3.45700279494475e-06 4.53707002609997e-08 1.03701593740171e-28 3.45686048074914e-06 -2.8995322751012e-22 3.45698472595471e-06)
(3.64501602608996e-06 4.79386728003848e-08 -1.84399636927773e-39 3.64489215094299e-06 1.60461244568042e-40 3.64500943023281e-06)
(3.82262918521667e-06 5.01602712131839e-08 -3.67782727934914e-39 3.82252610837599e-06 1.31824510653317e-38 3.82263460837968e-06)
(3.98431000847258e-06 5.19470803132015e-08 1.70628417247135e-23 3.98422967970988e-06 -1.36104629016955e-24 3.98432774502129e-06)
(4.12859569171899e-06 5.32743411501032e-08 4.90802811286877e-23 4.12853941427658e-06 -5.29846996903236e-22 4.1286256927453e-06)
(4.25495463665702e-06 5.41375638510784e-08 1.294992967569e-23 4.25492308166026e-06 -5.61924199563316e-22 4.25499657240591e-06)
(4.36320785091202e-06 5.45447245174664e-08 -1.9590160497289e-23 4.36320111746198e-06 1.41716506376931e-24 4.36326114274884e-06)
(4.45344138726105e-06 5.45134299430281e-08 1.78086578088931e-28 4.45345905700912e-06 -1.22682789741529e-29 4.45350525686427e-06)
(4.52598069170639e-06 5.40696788770722e-08 -0 4.52602188091042e-06 -0 4.52605419446695e-06)
(4.58136910324281e-06 5.32461851983676e-08 -0 4.58143253077265e-06 -0 4.58145116930742e-06)
(4.62034023532299e-06 5.20808271283877e-08 2.54760874234235e-23 4.62042428996818e-06 -1.38262913615461e-24 4.6204297093285e-06)
(4.64380662596866e-06 5.06151134612568e-08 5.5593010528946e-23 4.64390945843532e-06 -1.36657741841453e-21 4.64390230910577e-06)
(4.65280501479913e-06 4.88923265894399e-08 2.47663778391958e-24 4.65292461043778e-06 -1.41412445741924e-21 4.65290570564736e-06)
(4.64848287296756e-06 4.69561292579208e-08 -2.65810068472422e-23 4.6486171570837e-06 1.25613540146422e-24 4.64858740604818e-06)
(4.63199953517422e-06 4.48485931510031e-08 1.83004837714953e-39 4.63214641819132e-06 -3.2426357406066e-27 4.63210680660736e-06)
(4.60452688477256e-06 4.26095949982627e-08 1.5620195287723e-39 4.6046843418819e-06 -1.33404125974948e-38 4.60463587510821e-06)
(4.56716411975458e-06 4.02755274518009e-08 -1.81873243613705e-39 4.56733017837538e-06 3.48247142315397e-27 4.56727388079926e-06)
(4.52101096096974e-06 3.78805537906766e-08 3.86922005794458e-39 4.52118368017298e-06 -3.4600161351133e-27 4.52112060911335e-06)
(4.46729449264539e-06 3.54569480612881e-08 6.79539618004876e-29 4.46747207335872e-06 1.79636848225303e-27 4.46740324304345e-06)
(4.40722598452704e-06 3.30331835780988e-08 -1.13101866784688e-28 4.40740680344603e-06 -4.68190832860601e-28 4.40733317489927e-06)
(4.34198998814613e-06 3.06335657509698e-08 -4.1578200535062e-29 4.34217266636693e-06 -2.60971958032808e-27 4.34209508829839e-06)
(4.27257238185094e-06 2.82771389254245e-08 1.52049863192256e-28 4.27275574005062e-06 1.29628698316682e-27 4.27267498114113e-06)
(4.19980345296493e-06 2.59786789236338e-08 -6.53497827718095e-29 4.1999865204367e-06 9.47770107040242e-31 4.19990324349853e-06)
(4.12424100404783e-06 2.37486229410961e-08 4.72235203800844e-39 4.12442290159883e-06 -1.56423176989948e-38 4.12433772595695e-06)
(4.04638902351892e-06 2.15960981531011e-08 -1.92696252784427e-39 4.04656891740839e-06 1.39734008610433e-41 4.04648244711193e-06)
(3.96692060105563e-06 1.95293242764161e-08 3.12634226327199e-23 3.96709780299864e-06 -0 3.96701055808652e-06)
(3.8864553573405e-06 1.75542242292025e-08 4.12191408758892e-23 3.8866293079108e-06 -2.50449477981882e-22 3.88654174918718e-06)
(3.80561803195871e-06 1.56745974393288e-08 -2.09870910578354e-23 3.80578835246807e-06 -2.52630194709781e-22 3.80570083195647e-06)
(3.72471194340054e-06 1.38911718166513e-08 -2.98364429934006e-23 3.72487831782519e-06 -2.16819478843109e-25 3.72479115467482e-06)
(3.64398775619412e-06 1.22040708482467e-08 8.94844005734054e-40 3.64414991510825e-06 -3.24245882429578e-38 3.64406339355172e-06)
(3.56373489956483e-06 1.06128047454556e-08 -6.69372961042598e-29 3.56389263333495e-06 -1.21349229360532e-30 3.56380700075187e-06)
(3.48431960858271e-06 9.11635598620586e-09 5.89411271360374e-29 3.48447279526858e-06 -1.27704299750784e-27 3.48438824520463e-06)
(3.4059922188352e-06 7.71232413695169e-09 1.36071699248052e-28 3.40614080583023e-06 1.25367267088242e-27 3.40605748461071e-06)
(3.32885519394442e-06 6.397743793229e-09 -1.22080258820882e-28 3.32899913939757e-06 1.25080226191011e-27 3.32891718288252e-06)
(3.25300956423396e-06 5.16955002103852e-09 -6.73735349848511e-29 3.25314885208237e-06 -4.83085791607851e-27 3.25306837093157e-06)
(3.17853558449849e-06 4.02456984049723e-09 6.13476588002395e-29 3.17867021166676e-06 3.53333406270537e-27 3.17859130627783e-06)
(3.10533740367471e-06 2.95931832114964e-09 -1.77664118026803e-39 3.10546740539241e-06 -6.44167155281274e-41 3.1053901441061e-06)
(3.03368380573565e-06 1.97051968279005e-09 -2.82276404812648e-23 3.03380924224236e-06 -1.22815923024909e-24 3.03373367105908e-06)
(2.96327031541294e-06 1.05467081291459e-09 -2.83423305177616e-23 2.96339124224073e-06 2.4551759976988e-22 2.96331740128785e-06)
(2.89413479430006e-06 2.08625531646519e-10 2.68100377509365e-23 2.89425126514016e-06 2.5191500998923e-22 2.89417919211128e-06)
(2.82619040487268e-06 -5.7051826305361e-10 2.64515026744704e-23 2.82630246612e-06 1.34606971963516e-24 2.82623220308044e-06)
(2.75937442329163e-06 -1.2857072816048e-09 -8.01083556493415e-41 2.75948211955432e-06 -3.28905267705993e-27 2.75941370328259e-06)
(2.69355462307143e-06 -1.93936792016836e-09 -3.29059749792434e-39 2.69365797580348e-06 -1.90894580449078e-40 2.69359145761702e-06)
(2.6286254784937e-06 -2.53391861912485e-09 -0 2.62872451706684e-06 -0 2.62865992651163e-06)
(2.56441116504439e-06 -3.07103028930225e-09 -2.54928391856056e-23 2.56450589022676e-06 -1.7561866050576e-24 2.56444327903676e-06)
(2.50079623343326e-06 -3.55265847345215e-09 -2.28254882078492e-23 2.50088665197474e-06 2.12871853670828e-22 2.50082604718369e-06)
(2.43755426258454e-06 -3.97953698980938e-09 2.65147694317953e-23 2.43764033736462e-06 2.20936235886118e-22 2.43758180984564e-06)
(2.37453974147689e-06 -4.35332633520074e-09 2.36136544189581e-23 2.37462144392539e-06 1.79616334397458e-24 2.37456502047231e-06)
(2.31139445032075e-06 -4.67312109068326e-09 -4.0302836741452e-28 2.31147167135558e-06 -9.86939755341917e-27 2.31141747157305e-06)
(2.24798540594573e-06 -4.94072284521558e-09 6.15862147256545e-28 2.24805807785855e-06 1.77579543221207e-27 2.24800611574585e-06)
(2.18373022451059e-06 -5.15244659719253e-09 -2.41811710524388e-29 2.18379812513368e-06 2.10725968165437e-27 2.18374861565933e-06)
(2.11860965332295e-06 -5.31156069221553e-09 -3.7070603398613e-28 2.11867268582017e-06 5.40711949932009e-22 2.11862559044675e-06)
(2.05159891041815e-06 -5.40908985549248e-09 1.85702341204495e-28 2.05165666593483e-06 5.21741727812153e-22 2.0516123893242e-06)
(1.98300574559724e-06 -5.45301316987844e-09 1.8463187324584e-28 1.98305813145275e-06 -5.11954975477939e-27 1.98301648434316e-06)
(1.91084907373772e-06 -5.42322887078204e-09 -1.90458511493575e-28 1.91089534233512e-06 3.45687392221652e-27 1.91085712672355e-06)
(1.83628453710351e-06 -5.3402217567231e-09 -1.58899248011675e-28 1.83632469296072e-06 -3.35762003420591e-27 1.83628933344128e-06)
(1.75524200139536e-06 -5.15967099164535e-09 -1.90763528397641e-23 1.75527466719813e-06 -2.13947635618145e-24 1.75524380816277e-06)
(1.6720583162809e-06 -4.93633951629002e-09 -1.52343362487862e-23 1.67208390266538e-06 5.95250515742146e-22 1.6720559874093e-06)
(1.58349552110842e-06 -4.58942249281092e-09 1.98397450146093e-23 1.58351153933008e-06 5.76770159637106e-22 1.58348990964082e-06)
(1.49183818993704e-06 -4.22506460024216e-09 1.61296529590086e-23 1.49184587655017e-06 1.92991285079065e-24 1.49182685572758e-06)
(1.38448487230304e-06 -3.64968041874549e-09 1.42364432889202e-28 1.38447940923737e-06 -1.02220860481686e-26 1.38447014326028e-06)
(1.27247108875791e-06 -3.12493982163614e-09 1.16459540909509e-28 1.27245603111706e-06 1.65061238831569e-26 1.27244806050366e-06)
(1.13017030239697e-06 -2.25835317098149e-09 -2.52335633474343e-23 1.13013804153487e-06 -3.39144670139432e-24 1.13014526832514e-06)
(9.85337323382146e-07 -1.63135313038141e-09 -2.0012399575984e-23 9.85296295443778e-07 1.85109708475565e-22 9.85301035186483e-07)
(7.8738200110107e-07 -5.30769279909537e-10 1.74496541771001e-23 7.87307723288136e-07 1.6819641811989e-22 7.87340523418069e-07)
(9.02946890425234e-07 -4.78597139770989e-12 2.00691016952489e-23 9.02964578058374e-07 3.27930973789266e-24 9.02943147418755e-07)
(1.23530566661799e-06 -6.30811719568357e-10 5.76845043591223e-25 1.23485200727942e-06 -2.42477290757801e-24 1.23507777946261e-06)
(1.56094944012676e-06 -1.57440818464221e-09 -1.2984420883041e-25 1.55884206121747e-06 -2.89841929796395e-26 1.55989888018619e-06)
(1.83780372838011e-06 -2.76060761831322e-09 2.31589291623882e-24 1.83219373446864e-06 -5.91116132592332e-24 1.83500535412234e-06)
(2.06381276775154e-06 -3.72066819943131e-09 -7.26614438021292e-25 2.05302767089927e-06 2.59158904590536e-24 2.05841904928398e-06)
(2.20984806555843e-06 -4.31377322460874e-09 1.31685485617162e-24 2.19260318845118e-06 -2.2494136187989e-24 2.20120019322372e-06)
(2.20765117840458e-06 -4.36056096513284e-09 6.70884954097212e-24 2.18496259267169e-06 -1.0283661939699e-23 2.19625593594058e-06)
(2.10377961270057e-06 -4.08995508677865e-09 -4.19414351839198e-24 2.07792080121616e-06 6.42159529501576e-24 2.09077922223588e-06)
(1.92471189859353e-06 -3.7336326457733e-09 8.83281344104022e-25 1.89827787281447e-06 -1.20964774211146e-24 1.91141716706366e-06)
(1.6990470294169e-06 -3.31165422170522e-09 -2.1430070384777e-24 1.67448539915193e-06 2.85556083809422e-24 1.68669562822269e-06)
(1.49129808742978e-06 -2.75451634445451e-09 1.44564006808654e-24 1.46960167785315e-06 -2.10704120701325e-24 1.48038998578511e-06)
(1.32749218912027e-06 -2.24022456716065e-09 8.04344540491744e-25 1.30812064110897e-06 -9.98860621403216e-25 1.31774947824971e-06)
(1.189576605189e-06 -1.73896041751972e-09 -7.040686297784e-25 1.17234466998319e-06 1.06369273950392e-24 1.18090878981821e-06)
(1.12267001478937e-06 -1.43195751450437e-09 1.81236965175175e-25 1.10601013195262e-06 -2.16418795331936e-25 1.11427910086566e-06)
(1.07642910965168e-06 -1.49180615981726e-09 -1.90808229705503e-26 1.05970701840806e-06 -1.07114148220127e-27 1.06800165661254e-06)
(1.08386311301853e-06 -2.21285288886872e-09 -6.87364879171035e-26 1.06595451490943e-06 9.11034165714078e-26 1.07483273496187e-06)
(1.13662278559222e-06 -4.0222655128442e-09 -5.60463424580177e-26 1.11688841777657e-06 -1.07272832877468e-25 1.12667506071291e-06)
(1.06429110360642e-06 -6.86399568238281e-09 3.96455589893395e-27 1.04680500353492e-06 -1.42586148329789e-26 1.05548334926433e-06)
(8.10971689372338e-07 -6.3946503187297e-09 -5.88580271950727e-27 8.04249264638468e-07 2.4329969363217e-26 8.07597675216998e-07)
(5.63070444224572e-07 -2.48081405976914e-09 1.06411184364337e-27 5.62333957391175e-07 -7.41094122692443e-27 5.62703074739726e-07)
(4.82753611494613e-07 -8.42126984245843e-10 9.25654775866611e-29 4.82737366522713e-07 -1.1746974714879e-30 4.82746196275334e-07)
(1.71911219728234e-05 -2.44354299852377e-07 -3.20706938106663e-27 1.71941040668548e-05 -3.32583349648594e-29 1.71924396922662e-05)
(1.22265246562265e-05 -1.81334643756752e-07 -4.5765859333377e-25 1.22685295059442e-05 1.70200902483492e-25 1.22476533927221e-05)
(4.8638276511008e-06 -1.59898684800394e-08 -5.84694498743777e-27 4.87430435383684e-06 -1.98298137779999e-25 4.86917820806331e-06)
(9.42623201683894e-07 4.27684786083903e-09 1.77943634798727e-26 9.30994364301347e-07 2.3496230900612e-28 9.36849989590518e-07)
(6.44173440392414e-07 1.65769566653382e-09 2.45998657183296e-25 6.36204541246234e-07 1.14732844636535e-25 6.40206321076464e-07)
(5.55084846967389e-07 6.18081515160646e-10 -1.54595622129406e-25 5.50340934741245e-07 -1.79857081011283e-25 5.52724148964318e-07)
(2.69330522437589e-07 1.89055870544106e-10 6.50614135355877e-32 2.67309376016261e-07 -2.7012242798872e-33 2.683226764257e-07)
(2.13144629464251e-07 1.19220804062206e-10 1.48442763995544e-26 2.11814013265554e-07 -1.29759131213714e-27 2.12480954401333e-07)
(2.33104745826271e-07 1.5464849221756e-10 -2.86477357614249e-26 2.31589065670973e-07 -8.92213170817474e-26 2.32346722244107e-07)
(3.06940293612125e-07 2.36356776580524e-10 -5.382417961549e-25 3.04842972574668e-07 -6.96393580805e-25 3.05890943920861e-07)
(4.52835361517431e-07 4.63042071791172e-10 7.074800841748e-24 4.48945953999344e-07 -8.83439447090636e-25 4.5088571611636e-07)
(7.11195071354796e-07 9.73222470370369e-10 -1.76090850236225e-22 7.0324698997244e-07 -2.76067597080596e-22 7.07213356053931e-07)
(1.15126797943939e-06 2.2141567836281e-09 -3.70638173290704e-22 1.13385310393305e-06 -5.13629296496992e-22 1.14254449241648e-06)
(1.84128406257172e-06 5.11481756469532e-09 -3.72542640009919e-23 1.80571758578919e-06 2.0085323648623e-23 1.8234826568198e-06)
(2.85905104239499e-06 1.19660897871031e-08 -3.82631884306702e-25 2.79203343247905e-06 2.27757524120058e-26 2.82552124452761e-06)
(4.23483613235554e-06 2.62867894910139e-08 2.44637710661882e-23 4.12415227873244e-06 3.86658340188228e-23 4.17945875409222e-06)
(5.91419670958808e-06 5.26285014847183e-08 -1.62742870495948e-28 5.75584218038089e-06 -4.30012438965653e-28 5.83492797791838e-06)
(7.77195496214078e-06 9.21192240104293e-08 -1.86921858041176e-23 7.57850469137054e-06 -4.33022930774695e-23 7.67504182781776e-06)
(9.5857301284905e-06 1.38751543677612e-07 -0 9.39091020731388e-06 -0 9.48804226380945e-06)
(1.09249498251451e-05 1.77039475492806e-07 -2.1583182480473e-24 1.07763193757712e-05 3.6780836625512e-25 1.08504411503574e-05)
(1.17363706313534e-05 2.12326430193312e-07 -3.67204701804376e-24 1.16476049376309e-05 -3.11965170735935e-23 1.16912567100716e-05)
(1.42656606036928e-05 3.63598274628099e-07 2.8333317838168e-24 1.42139765552185e-05 -1.12874585076982e-24 1.42403870429272e-05)
(2.12293963860071e-05 7.50678009000247e-07 8.92237326798939e-26 2.11637699568022e-05 9.62088428808306e-26 2.11953259348157e-05)
(2.9112080073756e-05 1.22975758648589e-06 -1.08922727677528e-26 2.904294473471e-05 1.46123170133868e-27 2.90765797067663e-05)
(3.72412530836231e-05 1.78462234373747e-06 -0 3.71705076567797e-05 -0 3.72036652026122e-05)
(4.53380687337683e-05 2.36890457946555e-06 -0 4.52700029690387e-05 -4.15164811540356e-25 4.53013577009992e-05)
(5.34310558163164e-05 2.97988140508975e-06 -4.21169893405827e-41 5.33670423461415e-05 6.25102830523189e-25 5.33953187227034e-05)
(6.13883480610296e-05 3.59443184994099e-06 1.30441972539429e-26 6.13298888624859e-05 -5.84595737887249e-25 6.13546842447632e-05)
(6.92437881484992e-05 4.20929005670933e-06 4.86229984216441e-27 6.91919188651659e-05 -4.90292425143674e-27 6.92125050619726e-05)
(7.69224190992271e-05 4.81018508263239e-06 -7.80254335872544e-26 7.68782671994852e-05 7.41075950749151e-25 7.68942582922492e-05)
(8.441632149013e-05 5.39092790813601e-06 8.0299247693174e-26 8.43809700681058e-05 1.86702904321768e-26 8.43917852574198e-05)
(9.16673620823041e-05 5.94063126236201e-06 -2.0128002562266e-26 9.16418333112535e-05 -6.34074212822811e-25 9.16470895174186e-05)
(9.86495444652876e-05 6.45245714618478e-06 -2.45422834416669e-21 9.86347554551202e-05 2.39913096073368e-22 9.86340426346273e-05)
(0.00010532578828844 6.91872331977178e-06 -1.00689988023824e-20 0.000105322523482559 4.13317073335368e-20 0.000105315569521478)
(0.000111691561183683 7.33516406656909e-06 -5.06100376701808e-21 0.000111700467397524 4.44498760638128e-20 0.00011168703499617)
(0.000117749356547538 7.69846042825397e-06 3.08782326398717e-21 0.000117770883723677 -2.79870731399846e-22 0.000117750861895654)
(0.000123452964455896 8.00335214277852e-06 6.75232791807853e-37 0.000123487330142518 -5.53317771317629e-25 0.000123460720331384)
(0.000128619558303455 8.23687485671305e-06 -8.51747753495188e-21 0.000128666655567336 6.78787323676418e-22 0.000128633644820226)
(0.00013322586372948 8.39781817891977e-06 -2.38664865053426e-20 0.00013328527919543 -3.23927332509754e-21 0.000133246195949117)
(0.000137256018228055 8.48657965369872e-06 -5.7968618006513e-21 0.000137327079749404 -6.19083408216516e-21 0.00013728237774078)
(0.000140705238636272 8.5052972343279e-06 9.70226714691246e-21 0.00014078706407826 -7.0367038692801e-22 0.000140737290187795)
(0.000143577101163632 8.45744607262518e-06 -0 0.000143668645053846 -0 0.000143614416160518)
(0.000145882702960604 8.34762518842367e-06 -0 0.000145982795736952 8.50209822962163e-25 0.000145924776654734)
(0.000147639973785784 8.18131465534205e-06 2.93009216586481e-26 0.000147747363743666 -8.63893067049342e-25 0.000147686245564127)
(0.000148872808353439 7.96463925323644e-06 -1.87688993119432e-20 0.000148986200480417 1.02079397132307e-21 0.000148922681354596)
(0.000149610663846621 7.70415258887328e-06 -4.18300251880485e-20 0.000149728762005405 8.57422829933857e-20 0.000149663525447361)
(0.000149886873321296 7.40656788802254e-06 -2.62142782575745e-21 0.000150008414507927 8.55485457735852e-20 0.00014994211459183)
(0.0001497381378437 7.07857196691195e-06 1.95689863717337e-20 0.000149861929311364 -9.22861616205374e-22 0.000149795171328057)
(0.000149201505573926 6.72655253159581e-06 -6.3884877684083e-26 0.000149326440787113 -5.53468477230451e-25 0.000149259777083974)
(0.000148314300855054 6.35652344139318e-06 6.82061637343143e-26 0.000148439377667041 1.07694786727534e-24 0.000148373298066412)
(0.000147111573951216 5.97397696830756e-06 -8.75379087747208e-27 0.000147235879491572 -5.20871114992823e-25 0.000147170820858333)
(0.000145628480402576 5.58402153564496e-06 -4.28910243973736e-26 0.000145751183410578 -5.93294913326429e-25 0.000145687536711495)
(0.000143904089544675 5.19143489151549e-06 2.80439841440598e-26 0.000144024475852734 5.79004862314335e-25 0.000143962566749902)
(0.000141976977354042 4.80040327050138e-06 -2.95170850950206e-26 0.000142094460041133 -2.52888018117453e-25 0.000142034548954706)
(0.000139884743853479 4.4144840988155e-06 1.77941512968595e-26 0.000139998874597785 7.79180381182463e-25 0.000139941148564117)
(0.000137658749035809 4.03646787457812e-06 1.10957018742846e-36 0.00013776919409615 -2.33452461615098e-25 0.000137713783985746)
(0.000135325324624041 3.66852334566078e-06 -2.06374604919429e-37 0.000135431850315173 -2.98779122988251e-25 0.000135378835200569)
(0.000132902272534311 3.31222392405456e-06 -1.23166167200982e-36 0.000133004691516533 -7.42955565616409e-36 0.000132954127671117)
(0.000130405765914169 2.96891345913617e-06 5.37561112413924e-37 0.000130503921739026 -3.89813335909663e-39 0.000130455852102569)
(0.000127857233401028 2.63976923939627e-06 -8.79857466938007e-21 0.000127951035362565 -0 0.000127905469103148)
(0.000125276472046866 2.32561662352708e-06 -1.06571111786695e-20 0.000125365891084384 -1.16194496905355e-19 0.000125322810858762)
(0.000122683325386516 2.0269619448732e-06 6.78039942655264e-21 0.000122768401858867 -1.15623069921188e-19 0.000122727755192105)
(0.000120087532889262 1.7439031858497e-06 8.43229775355626e-21 0.000120168328146516 6.12974851497732e-23 0.00012013005568721)
(0.000117497138417969 1.47643536202651e-06 4.57270731600607e-27 0.000117573725417967 4.97385802958879e-29 0.00011753776300998)
(0.000114921426410696 1.22444859519708e-06 1.06861702425702e-36 0.00011499389785804 -3.11479389089586e-25 0.000114960173982992)
(0.000112372114064924 9.87731264521274e-07 5.16577015572497e-40 0.00011244059206582 5.42862351756322e-25 0.000112409022716316)
(0.000109857212332788 7.65885079247218e-07 -2.42195004130181e-40 0.000109921836898678 -2.30984544946799e-25 0.000109892330506919)
(0.000107380079837834 5.5844204049592e-07 -3.74716739101632e-26 0.000107440985909064 3.85055341017911e-25 0.000107413456166494)
(0.00010494397654847 3.6491364685333e-07 3.38357331345844e-26 0.000105001298968879 -4.04570550794811e-25 0.000104975660269149)
(0.000102551539550838 1.84792178518141e-07 3.86193864070451e-26 0.000102605411938923 -5.87238878776811e-25 0.000102581581635965)
(0.00010019963885503 1.75413308445254e-08 -3.50732808629654e-26 0.000100250204369837 1.20994360982962e-24 0.00010022809320251)
(9.78969930619758e-05 -1.37388337327087e-07 8.17511780661513e-21 9.79443915054635e-05 3.55094157755857e-22 9.7923914896054e-05)
(9.56338306647334e-05 -2.80505620366699e-07 8.22947617828872e-21 9.56781832548493e-05 1.05206200929217e-19 9.56592697019104e-05)
(9.34113987033367e-05 -4.12309749051871e-07 -7.77705220569874e-21 9.34528210112315e-05 1.02668678218946e-19 9.34354026676084e-05)
(9.12269406672956e-05 -5.33251216579862e-07 -7.74225851114884e-21 9.12655422343361e-05 -3.93552908423106e-22 9.12495556958255e-05)
(8.90785305529697e-05 -6.43783742281398e-07 -3.25966905456499e-26 8.91144154249445e-05 -1.165165441204e-24 8.90997991424712e-05)
(8.69618425169027e-05 -7.44275865618498e-07 3.26428709656851e-26 8.69951005751806e-05 1.11480371663758e-24 8.69818025585076e-05)
(8.48735251770555e-05 -8.35089631726577e-07 -0 8.49042354027516e-05 -0 8.48922076133146e-05)
(8.28080409787607e-05 -9.16472849700455e-07 7.30147654275268e-21 8.28362668708691e-05 5.02994398074135e-22 8.28254731331352e-05)
(8.07616328543203e-05 -9.88706613348792e-07 6.85116742751993e-21 8.07874280910872e-05 9.49850737536536e-20 8.07778328961795e-05)
(7.87271642130366e-05 -1.05189275342221e-06 -7.36522565154029e-21 7.87505658430974e-05 9.16706125068143e-20 7.87421493518101e-05)
(7.6699848705245e-05 -1.10624136125125e-06 -6.86087022418383e-21 7.67208792684691e-05 -5.22162552444269e-22 7.67136191468297e-05)
(7.46684360185239e-05 -1.15159956250462e-06 1.25002581623036e-25 7.46870954080203e-05 -1.30454609013507e-24 7.4680996075314e-05)
(7.26283570297067e-05 -1.18815585129354e-06 -7.77970391918446e-27 7.26446304186438e-05 7.59830511345678e-25 7.26396809721789e-05)
(7.05614412758362e-05 -1.21534037995835e-06 5.66643206423485e-21 7.05752821056017e-05 5.13130297967379e-22 7.05715222977897e-05)
(6.84663498947572e-05 -1.23349036780543e-06 4.36969594267472e-21 6.847769936485e-05 -8.88446542897914e-20 6.84751224565269e-05)
(6.631134645952e-05 -1.24126646442558e-06 -6.43718929118139e-21 6.63200974823697e-05 -8.87573570817563e-20 6.63188008035466e-05)
(6.41046404183663e-05 -1.23957168475168e-06 -5.12764493642361e-21 6.41106786002903e-05 -5.03807563755503e-22 6.41106411299064e-05)
(6.17852445187528e-05 -1.22547738554912e-06 5.03484085228309e-26 6.178837646979e-05 1.11172976051135e-24 6.17898016307281e-05)
(5.93864197190848e-05 -1.2014691956257e-06 4.97674268733135e-26 5.93864563411969e-05 -2.22555216968339e-25 5.93892623023431e-05)
(5.67832716582703e-05 -1.16119745467823e-06 1.01681716077043e-20 5.67798992639296e-05 1.14291978603563e-21 5.67844951243222e-05)
(5.41013743939493e-05 -1.1118013624911e-06 8.23201167517695e-21 5.40943233571198e-05 -4.27062846594996e-21 5.41004424401796e-05)
(5.12413751295693e-05 -1.0429785042898e-06 -1.0603892147722e-20 5.12301521248722e-05 -8.13230993206778e-21 5.12386338655626e-05)
(4.82834675430567e-05 -9.67485733887691e-07 -8.71197395904232e-21 4.82676166104847e-05 -1.04382806587331e-21 4.82777794294783e-05)
(4.4817127101538e-05 -8.58824566175029e-07 1.66110550579808e-25 4.47959598295918e-05 1.79574205287836e-24 4.48094781610611e-05)
(4.1204048849103e-05 -7.50432196963653e-07 -1.88381101575723e-26 4.11769811683377e-05 -3.51861183921176e-25 4.11921363166764e-05)
(3.6608312290333e-05 -5.88860262744636e-07 7.20580354052939e-21 3.65752298492076e-05 9.67772358763932e-22 3.65949260386755e-05)
(3.19394582917849e-05 -4.51050816843355e-07 6.11523841788733e-21 3.18997670861228e-05 8.45075570560539e-20 3.19201742677858e-05)
(2.55382050318766e-05 -2.39687067803996e-07 -5.35993860674907e-21 2.54905021248867e-05 6.5721384822267e-20 2.55173082048833e-05)
(2.92990768651664e-05 -1.87673990453236e-07 -5.96178292306721e-21 2.92255227858045e-05 -9.12591779329186e-22 2.92627780738315e-05)
(4.0100457479217e-05 -3.26433839506843e-07 -2.47223017002734e-22 3.98605962597063e-05 1.09087680468502e-21 3.99822031360556e-05)
(5.07809670351762e-05 -5.05342223197151e-07 4.91396853977856e-25 5.0145780243953e-05 -1.49125644285661e-24 5.04633942078545e-05)
(5.99865015243652e-05 -6.80055393524298e-07 -1.0296990439208e-21 5.86985069732936e-05 2.61284462394106e-21 5.93430832262578e-05)
(6.76098719248292e-05 -7.95746049702035e-07 7.05707276360526e-23 6.54569391303649e-05 -3.59653107071418e-22 6.65356170039624e-05)
(7.26611961817142e-05 -8.35006192678029e-07 1.28454676388801e-21 6.95255648067193e-05 -2.27020875097476e-21 7.10992174466996e-05)
(7.28999857046947e-05 -7.90632038278589e-07 -1.03486047182755e-21 6.89826804548575e-05 1.85825629640068e-21 7.09520712199073e-05)
(6.9742110659378e-05 -7.11655178137594e-07 7.10757367772803e-22 6.53859516971668e-05 -1.08531183122201e-21 6.75776491988555e-05)
(6.40213704932446e-05 -6.32532261343147e-07 3.60192893371554e-22 5.96089160064738e-05 -4.94672737424622e-22 6.18296914404055e-05)
(5.66704589027347e-05 -5.55475622498811e-07 -2.89306983355855e-23 5.25563929887595e-05 5.16434096557101e-24 5.46266927533296e-05)
(4.98108558398445e-05 -4.6373973406192e-07 8.95339292826961e-24 4.6146010099869e-05 -2.94632591971905e-24 4.7989693753072e-05)