/*--------------------------------*- C++ -*----------------------------------*\
  =========                 |
  \\      /  F ield         | OpenFOAM: The Open Source CFD Toolbox
   \\    /   O peration     | Website:  https://openfoam.org
    \\  /    A nd           | Version:  7
     \\/     M anipulation  |
\*---------------------------------------------------------------------------*/
FoamFile
{
    version     2.0;
    format      ascii;
    class       volScalarField;
    location    "20000";
    object      walldist;
}
// * * * * * * * * * * * * * * * * * * * * * * * * * * * * * * * * * * * * * //

dimensions      [0 1 0 0 0 0 0];

internalField   nonuniform List<scalar> 
15600
(
0.000782192649948912
0.000786335506117601
0.000792014559002582
0.000792253551459739
0.000822835561090851
0.000894114729613835
0.000994862985871959
0.00111927271174793
0.00125776692428312
0.00139374015117236
0.00152511082055082
0.00165187681721141
0.0017760528900228
0.001908509635257
0.00205263250572441
0.0022072806611132
0.00236777319793161
0.00251674466514047
0.00263884512757649
0.00272148770996427
0.0027518703880932
0.00273877139358731
0.00273770455311776
0.00273770455311778
0.00273770455311778
0.00273770455311773
0.00273770455311775
0.00273770455311771
0.00273770455311774
0.00273770455311768
0.00273770455311775
0.00273770455311784
0.00273770455311777
0.0027377045531177
0.00273770455311774
0.00273770455311787
0.00273770455311774
0.00273770455311777
0.00273770455311774
0.00273770455311771
0.00273770455311774
0.00273770455311787
0.00273770455311789
0.00273770455311785
0.00273770455311779
0.00273770455311778
0.00273770455311771
0.00273770455311777
0.00273770455311783
0.00273770455311775
0.0027377045531177
0.00273770455311778
0.00273770455311765
0.00273770455311765
0.00273770455311772
0.00273770455311778
0.00273770455311774
0.00273770455311768
0.00273770455311774
0.00273770455311777
0.00273770455311778
0.00273770455311773
0.00273770455311773
0.00273770455311773
0.00273770455311785
0.00273770455311783
0.00273770455311771
0.0027377045531178
0.0027377045531178
0.00273770455311772
0.00273770455311768
0.00273770455311779
0.0027377045531178
0.00273770455311775
0.0027377045531177
0.00273770455311774
0.00273770455311785
0.0027377045531179
0.00273770455311782
0.00273770455311777
0.00273770455311789
0.00273770455311775
0.00273770455311773
0.00273770455311778
0.00273770455311785
0.00273770455311776
0.00273770455311775
0.00273770455311783
0.00273770455311784
0.00273770455311777
0.00273770455311769
0.00273770455311774
0.00273770455311773
0.00273770455311777
0.00273770455311773
0.00273770455311764
0.00273770455311774
0.00273770455311781
0.00273877139358737
0.0027518703880931
0.00272148770996342
0.00263884512757286
0.00251674466514529
0.00236777319794013
0.00220728066111298
0.00205263250572246
0.00190850963526042
0.00177605289003768
0.00165187681722186
0.00152511082054873
0.00139374015118406
0.00125776692430125
0.00111927271174669
0.000994862985865818
0.000894114729607281
0.000822835561083671
0.000792253551467085
0.000792014559009719
0.000786335506118585
0.000782192649949134
0.00237532799657794
0.00238858467360912
0.00240923087984747
0.00242276922297458
0.00255276857777063
0.00284191033341288
0.00324172705195866
0.00370597306562924
0.00418736020112487
0.00464766117928319
0.00508811438774059
0.00551353937665289
0.00592970035151702
0.00634589543817893
0.00675742657214195
0.00715360081571842
0.00752033577158399
0.00783763941121679
0.00809175367588105
0.00827266472574293
0.00837084101629047
0.0083933021008864
0.00839006644983284
0.00838605858381284
0.00838215719915503
0.00837836244460726
0.00837467446511916
0.0083710934018141
0.00836761939196123
0.00836425256895205
0.0083609930622732
0.00835784099748312
0.00835479649618696
0.00835185967601455
0.00834903065059889
0.00834630952955295
0.00834369641844844
0.00834119141879774
0.00833879462803126
0.00833650613947986
0.00833432604235966
0.00833225442175131
0.00833029135858379
0.00832843692961979
0.00832669120744062
0.00832505426043281
0.00832352615277267
0.00832210694441562
0.00832079669108421
0.00831959544425596
0.00831850325115458
0.00831752015474072
0.00831664619370246
0.00831588140244887
0.00831522581110264
0.00831467944549414
0.00831424232715639
0.00831391447332079
0.0083136958969144
0.00831358660655612
0.00831358660655617
0.00831369589691447
0.00831391447332065
0.00831424232715633
0.0083146794454943
0.00831522581110284
0.00831588140244899
0.00831664619370255
0.00831752015474061
0.00831850325115441
0.00831959544425568
0.00832079669108425
0.00832210694441597
0.00832352615277293
0.00832505426043282
0.00832669120744062
0.00832843692961963
0.00833029135858385
0.00833225442175166
0.00833432604236053
0.00833650613948008
0.00833879462803095
0.00834119141879789
0.00834369641844854
0.0083463095295531
0.00834903065059881
0.0083518596760144
0.00835479649618654
0.00835784099748283
0.00836099306227302
0.00836425256895228
0.00836761939196113
0.00837109340181419
0.00837467446511923
0.008378362444607
0.00838215719915445
0.00838605858381354
0.00839006644983401
0.00839330210088497
0.00837084101628947
0.00827266472574139
0.00809175367587514
0.0078376394112112
0.00752033577160064
0.00715360081572176
0.00675742657212092
0.00634589543814771
0.00592970035158264
0.00551353937665021
0.00508811438772343
0.0046476611792538
0.00418736020120656
0.00370597306563904
0.00324172705191408
0.00284191033343131
0.00255276857775442
0.00242276922297254
0.00240923087985507
0.00238858467361192
0.00237532799657826
0.00402680734794479
0.00405305764419735
0.00412073213112977
0.0042368076561924
0.0045651024200765
0.00512445884249843
0.00582196092110148
0.0065888407908493
0.00736687293387872
0.00811488223155459
0.00883644838626497
0.00953860153344729
0.0102286891630633
0.0109149660855399
0.0115881009075243
0.0122308805926324
0.012820946066216
0.0133299686673694
0.0137377173883733
0.0140286795042451
0.0141885593303331
0.0142286360587895
0.0142233781677756
0.0142165837765283
0.0142099698993077
0.014203536788282
0.0141972846891777
0.0141912138412368
0.0141853244771673
0.0141796168231017
0.0141740910985548
0.0141687475163803
0.0141635862827321
0.0141586075970247
0.0141538116518943
0.0141491986331645
0.0141447687198078
0.014140522083913
0.0141364588906514
0.0141325792982442
0.0141288834579349
0.0141253715139581
0.0141220436035097
0.0141188998567231
0.014115940396643
0.0141131653392018
0.014110574793196
0.0141081688602655
0.0141059476348746
0.0141039112042918
0.0141020596485735
0.014100393040549
0.0140989114458055
0.014097614922675
0.0140965035222233
0.01409557728824
0.0140948362572293
0.0140942804584028
0.0140939099136752
0.0140937246376581
0.0140937246376582
0.0140939099136752
0.0140942804584029
0.0140948362572291
0.01409557728824
0.0140965035222234
0.0140976149226751
0.0140989114458055
0.0141003930405488
0.0141020596485733
0.0141039112042915
0.0141059476348745
0.0141081688602658
0.0141105747931964
0.0141131653392021
0.0141159403966428
0.0141188998567227
0.0141220436035097
0.0141253715139583
0.0141288834579357
0.0141325792982442
0.0141364588906509
0.014140522083913
0.0141447687198079
0.0141491986331645
0.0141538116518941
0.0141586075970244
0.0141635862827321
0.01416874751638
0.0141740910985548
0.0141796168231018
0.0141853244771674
0.0141912138412368
0.0141972846891779
0.0142035367882815
0.0142099698993076
0.0142165837765289
0.0142233781677761
0.0142286360587879
0.0141885593303298
0.0140286795042394
0.0137377173883756
0.013329968667373
0.012820946066203
0.0122308805926151
0.0115881009075639
0.0109149660855554
0.0102286891630073
0.00953860153348326
0.00883644838627246
0.00811488223160692
0.00736687293382333
0.0065888407908043
0.00582196092117719
0.00512445884244552
0.004565102420054
0.00423680765619359
0.0041207321311356
0.00405305764419659
0.00402680734794469
0.00573878515028878
0.0057796142044506
0.00590826317580007
0.00615999638030521
0.00670787571060877
0.00753980357957428
0.00853291438558062
0.00960227175471584
0.0106799470016293
0.0117213953472074
0.0127313154417726
0.013718297273019
0.0146909035579268
0.0156559545502555
0.016599229979823
0.0174967306233717
0.0183174962953957
0.0190246031618111
0.0195911145853588
0.0199958051184591
0.0202194448251706
0.0202777352036287
0.0202703809084035
0.0202606979134782
0.0202512721772737
0.0202421040591664
0.0202331939093537
0.0202245420687888
0.0202161488691153
0.0202080146326044
0.0202001396720961
0.020192524290939
0.0201851687829316
0.0201780734322684
0.0201712385134849
0.0201646642914058
0.0201583510210932
0.0201522989477987
0.0201465083069148
0.0201409793239312
0.0201357122143911
0.0201307071838488
0.0201259644278295
0.0201214841317921
0.0201172664710931
0.0201133116109526
0.0201096197064219
0.0201061909023529
0.02010302533337
0.0201001231238441
0.0200974843878673
0.0200951092292321
0.020092997741409
0.0200911500075303
0.0200895661003719
0.0200882460823402
0.0200871900054591
0.0200863979113598
0.0200858698312733
0.0200856057860235
0.0200856057860235
0.0200858698312733
0.0200863979113597
0.020087190005459
0.0200882460823402
0.0200895661003721
0.0200911500075304
0.020092997741409
0.0200951092292319
0.0200974843878672
0.020100123123844
0.0201030253333701
0.0201061909023531
0.0201096197064225
0.0201133116109529
0.0201172664710929
0.0201214841317919
0.0201259644278294
0.020130707183849
0.0201357122143921
0.0201409793239313
0.0201465083069146
0.0201522989477986
0.0201583510210933
0.0201646642914058
0.0201712385134847
0.0201780734322679
0.0201851687829314
0.020192524290939
0.0202001396720962
0.0202080146326049
0.0202161488691155
0.0202245420687893
0.0202331939093539
0.0202421040591658
0.0202512721772734
0.0202606979134791
0.0202703809084041
0.0202777352036259
0.020219444825167
0.0199958051184522
0.0195911145853598
0.019024603161809
0.0183174962953956
0.0174967306233564
0.0165992299798294
0.0156559545502221
0.0146909035579642
0.0137182972730078
0.0127313154417906
0.0117213953471739
0.0106799470016487
0.00960227175475051
0.00853291438556283
0.00753980357962261
0.0067078757105554
0.00615999638033963
0.00590826317578689
0.00577961420445261
0.0057387851502889
0.00751347763202607
0.00756979553944865
0.00776571100756029
0.00816714271124742
0.00894636484882569
0.0100584433458713
0.0113542252390459
0.0127338719740817
0.0141198220280208
0.0154639848735646
0.0167718654314705
0.0180534629890214
0.0193184741723635
0.0205721231547243
0.0217950946806067
0.0229563461179294
0.0240159944683015
0.0249282221309933
0.0256591438740355
0.0261816091076479
0.0264712751079189
0.0265484303027385
0.026538902779482
0.0265262253630045
0.0265138847613211
0.0265018814449439
0.0264902158723682
0.0264788884899848
0.0264678997319955
0.0264572500203335
0.0264469397645838
0.0264369693619025
0.0264273391969446
0.0264180496417908
0.0264091010558754
0.0264004937859185
0.0263922281658592
0.0263843045167917
0.0263767231469035
0.0263694843514149
0.0263625884125251
0.0263560355993555
0.0263498261678964
0.0263439603609586
0.0263384384081274
0.0263332605257164
0.0263284269167252
0.0263239377708009
0.0263197932642
0.0263159935597543
0.0263125388068386
0.0263094291413421
0.0263066646856415
0.0263042455485769
0.02630217182543
0.0263004435979057
0.0262990609341163
0.0262980238885676
0.0262973325021482
0.0262969868021218
0.0262969868021218
0.0262973325021482
0.0262980238885675
0.0262990609341164
0.0263004435979058
0.0263021718254301
0.026304245548577
0.0263066646856415
0.0263094291413418
0.0263125388068383
0.0263159935597541
0.0263197932642002
0.0263239377708012
0.0263284269167252
0.0263332605257164
0.0263384384081274
0.0263439603609585
0.026349826167896
0.0263560355993557
0.0263625884125259
0.0263694843514148
0.026376723146903
0.0263843045167918
0.0263922281658591
0.0264004937859185
0.0264091010558753
0.0264180496417906
0.0264273391969442
0.0264369693619019
0.0264469397645838
0.0264572500203344
0.0264678997319958
0.0264788884899845
0.0264902158723682
0.0265018814449439
0.0265138847613203
0.0265262253630053
0.0265389027794828
0.0265484303027358
0.0264712751079149
0.0261816091076434
0.0256591438740313
0.0249282221310019
0.0240159944683091
0.0229563461179182
0.0217950946806093
0.0205721231547087
0.0193184741723515
0.0180534629890483
0.0167718654313931
0.0154639848736601
0.0141198220280208
0.012733871974058
0.0113542252390679
0.0100584433458471
0.0089463648488559
0.00816714271126791
0.00776571100756279
0.00756979553944769
0.0075134776320261
0.00935318220901213
0.00942573013669972
0.00969322749782788
0.0102538052730538
0.0112743352971779
0.0126757727441118
0.014283720335299
0.0159836331003107
0.0176881388764891
0.0193454594704695
0.0209617916308819
0.0225485084747808
0.0241164280833475
0.0256690721715235
0.0271818318364725
0.0286163591395287
0.0299235184423749
0.0310482801685094
0.0319495574753943
0.0325940563973195
0.0329521353501168
0.0330488390271461
0.033037058653762
0.0330212771214502
0.0330059148743737
0.0329909724982517
0.0329764505638438
0.0329623496268417
0.0329486702277632
0.0329354128918542
0.0329225781289862
0.0329101664335626
0.0328981782844216
0.032886614144749
0.0328754744619896
0.0328647596677582
0.03285447017776
0.0328446063917108
0.0328351686932591
0.0328261574499111
0.0328175730129632
0.0328094157174323
0.0328016858819894
0.0327943838088986
0.0327875097839591
0.0327810640764505
0.0327750469390777
0.0327694586079233
0.0327642993024011
0.0327595692252127
0.0327552685623081
0.0327513974828495
0.0327479561391781
0.0327449446667839
0.0327423631842786
0.0327402117933729
0.0327384905788567
0.0327371996085816
0.0327363389334482
0.0327359085873958
0.0327359085873958
0.0327363389334482
0.0327371996085816
0.0327384905788566
0.0327402117933729
0.0327423631842787
0.032744944666784
0.0327479561391781
0.0327513974828494
0.0327552685623079
0.0327595692252123
0.0327642993024012
0.0327694586079233
0.0327750469390777
0.0327810640764505
0.032787509783959
0.032794383808898
0.0328016858819891
0.0328094157174326
0.032817573012964
0.032826157449911
0.0328351686932585
0.0328446063917108
0.0328544701777601
0.0328647596677583
0.0328754744619898
0.0328866141447491
0.0328981782844212
0.032910166433562
0.0329225781289867
0.0329354128918549
0.0329486702277635
0.0329623496268415
0.0329764505638439
0.0329909724982516
0.0330059148743729
0.0330212771214503
0.0330370586537627
0.0330488390271437
0.0329521353501129
0.0325940563973174
0.0319495574753967
0.0310482801685225
0.029923518442382
0.028616359139519
0.0271818318364455
0.0256690721715675
0.0241164280833469
0.0225485084747807
0.0209617916308708
0.0193454594704124
0.0176881388765121
0.0159836331003612
0.0142837203352018
0.0126757727442024
0.0112743352971645
0.0102538052730605
0.00969322749781958
0.00942573013669996
0.00935318220901197
0.0112602804579346
0.0113497480585362
0.0116924539861358
0.0124200984146491
0.0136915196619413
0.0153923598304553
0.0173230848320009
0.0193542742953263
0.021388475182895
0.0233700836066091
0.0253059409307694
0.0272087996696887
0.0290906122787356
0.0309531102791739
0.0327661907687559
0.0344839307761631
0.0360476014625063
0.0373926279890243
0.0384704590437851
0.039241431709618
0.0396704121910563
0.0397873764299167
0.0397732606739064
0.0397542613130655
0.0397357667290314
0.0397177776269505
0.0397002946939586
0.0396833185990519
0.03966684999296
0.0396508895080247
0.0396354377580798
0.039620495338336
0.0396060628252672
0.0395921407765015
0.0395787297307158
0.039565830207532
0.0395534427074161
0.0395415677115858
0.0395302056819138
0.0395193570608416
0.0395090222712941
0.0394992017165969
0.0394898957803975
0.0394811048265916
0.0394728291992529
0.0394650692225655
0.0394578252007613
0.0394510974180593
0.0394448861386115
0.0394391916064503
0.0394340140454401
0.0394293536592355
0.0394252106312395
0.0394215851245681
0.039418477282018
0.0394158872260387
0.0394138150587085
0.0394122608617137
0.0394112246963339
0.039410706603428
0.0394107066034279
0.0394112246963339
0.0394122608617138
0.0394138150587083
0.0394158872260388
0.0394184772820181
0.0394215851245683
0.0394252106312395
0.0394293536592353
0.0394340140454398
0.0394391916064498
0.0394448861386115
0.0394510974180595
0.0394578252007617
0.0394650692225658
0.0394728291992526
0.039481104826591
0.0394898957803973
0.0394992017165973
0.0395090222712949
0.0395193570608414
0.0395302056819135
0.0395415677115858
0.0395534427074162
0.039565830207532
0.039578729730716
0.0395921407765015
0.0396060628252668
0.0396204953383352
0.0396354377580797
0.0396508895080249
0.0396668499929604
0.0396833185990519
0.0397002946939584
0.0397177776269498
0.0397357667290304
0.0397542613130656
0.0397732606739068
0.0397873764299134
0.0396704121910525
0.0392414317096154
0.0384704590437812
0.0373926279890224
0.0360476014625126
0.0344839307761759
0.0327661907687554
0.0309531102791812
0.0290906122786929
0.0272087996697509
0.0253059409307342
0.0233700836066455
0.0213884751828922
0.0193542742953276
0.0173230848319808
0.0153923598304604
0.0136915196618651
0.0124200984146366
0.0116924539861575
0.0113497480585349
0.0112602804579347
0.0132372411991787
0.0133443062733809
0.0137655844876919
0.0146676571380134
0.0161995843856652
0.018210464540523
0.0204753084108681
0.0228494864261247
0.025225146862337
0.0275427194175537
0.0298096719931265
0.0320401609567797
0.0342472981168918
0.0364309441424556
0.0385552970048734
0.0405665799003836
0.0423961183664385
0.0439694451787758
0.045230271762362
0.0461323326873007
0.0466348012748463
0.0467727658336071
0.0467562291422297
0.046733894074549
0.0467121524070477
0.0466910049686756
0.0466704525672082
0.0466504959890967
0.046631135999319
0.046612373341236
0.0465942087364529
0.0465766428846809
0.0465596764636049
0.0465433101287565
0.0465275445133867
0.0465123802283466
0.0464978178619703
0.0464838579799619
0.046470501125285
0.0464577478180596
0.0464455985554637
0.0464340538116349
0.0464231140375767
0.0464127796610742
0.0464030510866101
0.0463939286952855
0.0463854128447453
0.0463775038691094
0.0463702020789064
0.0463635077610133
0.0463574211785987
0.0463519425710724
0.0463470721540376
0.0463428101192481
0.0463391566345714
0.0463361118439558
0.0463336758674009
0.046331848800935
0.046330630716596
0.0463300216624172
0.0463300216624172
0.046330630716596
0.046331848800935
0.0463336758674007
0.0463361118439557
0.0463391566345715
0.0463428101192481
0.0463470721540375
0.0463519425710721
0.0463574211785985
0.0463635077610129
0.0463702020789063
0.0463775038691095
0.0463854128447457
0.0463939286952855
0.04640305108661
0.046412779661074
0.0464231140375765
0.0464340538116352
0.0464455985554646
0.0464577478180597
0.0464705011252848
0.046483857979962
0.0464978178619704
0.0465123802283465
0.0465275445133864
0.0465433101287564
0.0465596764636048
0.0465766428846803
0.0465942087364528
0.0466123733412357
0.0466311359993187
0.0466504959890969
0.046670452567208
0.0466910049686751
0.0467121524070471
0.0467338940745492
0.0467562291422299
0.0467727658336035
0.0466348012748377
0.0461323326872941
0.0452302717623598
0.0439694451787738
0.0423961183664311
0.0405665799003849
0.0385552970048788
0.0364309441424019
0.0342472981169655
0.0320401609567191
0.0298096719932205
0.0275427194175153
0.0252251468623244
0.0228494864261462
0.0204753084108664
0.0182104645404883
0.0161995843856827
0.0146676571379963
0.013765584487703
0.0133443062733802
0.0132372411991786
0.0152866236927387
0.0154119690066441
0.0159150960591394
0.0169987866041168
0.0188010272461784
0.0211330912966949
0.0237439855396098
0.0264734461198088
0.0292028739406974
0.0318685869789473
0.0344786764447827
0.0370487374517475
0.0395930730417354
0.0421095948051043
0.0445565902911561
0.0468721402714417
0.048977259644272
0.0507872280840514
0.0522377367912899
0.0532756758458771
0.0538543175300609
0.0540140501210508
0.0539950038093547
0.0539692108383082
0.053944103137343
0.0539196816637467
0.053895947350354
0.0538729011053742
0.0538505438122181
0.0538288763293344
0.0538078994900455
0.0537876141023925
0.0537680209489791
0.0537491207868249
0.0537309143472222
0.0537134023355925
0.0536965854313553
0.0536804642877975
0.0536650395319439
0.0536503117644392
0.053636281559434
0.053622949464471
0.0536103160003791
0.0535983816611721
0.0535871469139547
0.05357661219883
0.0535667779288129
0.053557644489752
0.0535492122402517
0.0535414815116028
0.0535344526077179
0.0535281258050719
0.0535225013526477
0.0535175794718862
0.0535133603566442
0.0535098441731558
0.053507031059999
0.0535049211280692
0.0535035144605571
0.0535028111129323
0.0535028111129323
0.0535035144605572
0.0535049211280691
0.0535070310599989
0.0535098441731558
0.0535133603566442
0.0535175794718862
0.0535225013526475
0.0535281258050718
0.0535344526077176
0.0535414815116026
0.0535492122402517
0.0535576444897522
0.0535667779288132
0.0535766121988299
0.0535871469139548
0.053598381661172
0.0536103160003788
0.0536229494644713
0.0536362815594345
0.0536503117644392
0.0536650395319439
0.0536804642877974
0.0536965854313553
0.0537134023355923
0.0537309143472219
0.0537491207868249
0.053768020948979
0.0537876141023922
0.0538078994900452
0.0538288763293341
0.0538505438122182
0.0538729011053743
0.0538959473503544
0.0539196816637465
0.0539441031373426
0.0539692108383081
0.0539950038093546
0.0540140501210472
0.0538543175300537
0.0532756758458712
0.0522377367912937
0.0507872280840449
0.0489772596442782
0.0468721402714374
0.0445565902911257
0.0421095948051276
0.0395930730417007
0.0370487374517956
0.0344786764447144
0.0318685869789762
0.0292028739407385
0.0264734461197391
0.0237439855396099
0.0211330912966862
0.0188010272462925
0.0169987866041056
0.0159150960591319
0.0154119690066429
0.0152866236927386
0.0174110809512408
0.0175554026579662
0.0181436526452019
0.0194161612651157
0.0214987932521872
0.0241636600953204
0.0271330721184513
0.0302306466404605
0.0333266648286468
0.0363531823321932
0.039318918985517
0.0422409502115099
0.0451348067494081
0.0479963731233947
0.0507778082003241
0.0534087514024323
0.0557995287818945
0.0578547924662924
0.0595019199994371
0.0606807062091902
0.0613383064797687
0.0615206034409386
0.0614989555763955
0.061469578029055
0.0614409809871555
0.0614131655410243
0.061386132753137
0.0613598836579204
0.0613344192615576
0.0613097405417997
0.0612858484477813
0.0612627438998392
0.0612404277893409
0.0612189009785126
0.0611981643002766
0.0611782185580916
0.061159064525799
0.0611407029474755
0.0611231345372876
0.0611063599793544
0.0610903799276186
0.0610751950057182
0.0610608058068633
0.0610472128937245
0.0610344167983214
0.0610224180219205
0.061011217034936
0.061000814276839
0.0609912101560715
0.0609824050499652
0.0609743993046689
0.0609671932350808
0.0609607871247857
0.0609551812259997
0.0609503757595209
0.0609463709146853
0.06094316684933
0.0609407636897621
0.0609391615307339
0.0609383604354235
0.0609383604354235
0.0609391615307339
0.0609407636897621
0.06094316684933
0.0609463709146852
0.0609503757595211
0.0609551812259999
0.0609607871247857
0.0609671932350805
0.0609743993046689
0.0609824050499651
0.0609912101560715
0.0610008142768394
0.0610112170349362
0.0610224180219204
0.0610344167983211
0.0610472128937238
0.0610608058068631
0.0610751950057181
0.061090379927619
0.0611063599793544
0.0611231345372873
0.0611407029474756
0.061159064525799
0.0611782185580917
0.0611981643002764
0.0612189009785123
0.061240427789341
0.0612627438998392
0.061285848447781
0.0613097405417993
0.0613344192615573
0.0613598836579203
0.0613861327531374
0.0614131655410243
0.0614409809871552
0.0614695780290552
0.0614989555763957
0.061520603440936
0.061338306479763
0.0606807062091848
0.0595019199994396
0.0578547924662963
0.0557995287819022
0.0534087514024144
0.0507778082003194
0.0479963731234157
0.0451348067494146
0.0422409502115035
0.039318918985511
0.0363531823321844
0.0333266648286652
0.0302306466405205
0.0271330721184015
0.0241636600953088
0.0214987932521509
0.0194161612651154
0.0181436526451891
0.0175554026579673
0.0174110809512412
0.0196133631743129
0.0197773756561087
0.0204540662917671
0.0219227013511339
0.0242961184309083
0.0273058734984895
0.0306467876761483
0.03412583079771
0.0376017716063438
0.0410022471573325
0.0443366166466311
0.0476234821800451
0.0508796420911102
0.0540988749162738
0.0572269850632939
0.0601848608752192
0.0628717476048405
0.065181281345879
0.0670322217381217
0.0683570084604795
0.0690964561852724
0.0693021433425919
0.0692777986258132
0.0692447051888643
0.0692124909814616
0.0691811572318444
0.0691507051368773
0.0691211358618305
0.0690924505401563
0.0690646502732783
0.0690377361303852
0.0690117091482253
0.0689865703309113
0.0689623206497313
0.0689389610429619
0.068916492415689
0.0688949156396347
0.0688742315529926
0.0688544409602617
0.0688355446320941
0.0688175433051482
0.0688004376819434
0.0687842284307242
0.0687689161853316
0.0687545015450792
0.0687409850746374
0.0687283673039216
0.0687166487279908
0.0687058298069492
0.0686959109658568
0.0686868925946457
0.0686787750480445
0.0686715586455084
0.0686652436711553
0.0686598303737112
0.0686553189664614
0.0686517096272072
0.0686490024982314
0.0686471976862719
0.0686462952624978
0.0686462952624979
0.0686471976862719
0.0686490024982314
0.068651709627207
0.0686553189664616
0.0686598303737115
0.0686652436711552
0.0686715586455083
0.0686787750480445
0.0686868925946455
0.0686959109658566
0.0687058298069495
0.0687166487279912
0.0687283673039219
0.0687409850746375
0.0687545015450788
0.0687689161853312
0.0687842284307241
0.0688004376819433
0.0688175433051486
0.068835544632094
0.0688544409602612
0.0688742315529927
0.0688949156396351
0.0689164924156891
0.0689389610429618
0.0689623206497312
0.0689865703309117
0.069011709148225
0.069037736130385
0.0690646502732784
0.0690924505401559
0.0691211358618303
0.069150705136877
0.0691811572318438
0.0692124909814608
0.0692447051888645
0.0692777986258132
0.0693021433425885
0.0690964561852668
0.0683570084604706
0.067032221738123
0.0651812813458788
0.062871747604831
0.0601848608752418
0.0572269850632948
0.0540988749162521
0.0508796420911361
0.0476234821800455
0.0443366166466465
0.0410022471573293
0.0376017716063151
0.0341258307976758
0.0306467876761983
0.0273058734985
0.0242961184308927
0.0219227013511314
0.0204540662917833
0.0197773756561083
0.0196133631743134
0.0218963213087763
0.0220807603247795
0.0228492807235176
0.0245215171251721
0.0271964596342126
0.0305636575493525
0.0342895728085079
0.0381639628971381
0.0420336727049422
0.0458217585133279
0.0495382333602871
0.0532032762315802
0.056834995777538
0.0604249839940855
0.0639124570947861
0.0672092313592419
0.0702030649970945
0.0727761751346844
0.0748383880728524
0.076314518959624
0.0771388097137759
0.0773687433554168
0.077341602996646
0.0773046575463999
0.0772686936663518
0.0772337127277053
0.0771997160666384
0.0771667049840555
0.0771346807453417
0.0771036445801244
0.0770735976820421
0.0770445412085204
0.0770164762805485
0.0769894039824697
0.0769633253617751
0.0769382414289009
0.0769141531570356
0.0768910614819365
0.0768689673017458
0.0768478714768173
0.0768277748295553
0.0768086781442515
0.076790582166932
0.0767734876052164
0.0767573951281767
0.0767423053662101
0.0767282189109137
0.0767151363149694
0.0767030580920371
0.0766919847166533
0.076681916624137
0.076672854210507
0.0766647978324018
0.0766577478070106
0.0766517044120108
0.0766466678855131
0.0766426384260149
0.0766396161923608
0.0766376013037121
0.0766365938395223
0.0766365938395223
0.076637601303712
0.0766396161923607
0.0766426384260148
0.0766466678855132
0.076651704412011
0.0766577478070108
0.0766647978324018
0.0766728542105067
0.0766819166241369
0.0766919847166531
0.0767030580920373
0.0767151363149695
0.0767282189109139
0.0767423053662102
0.0767573951281763
0.076773487605216
0.0767905821669319
0.0768086781442514
0.0768277748295561
0.0768478714768173
0.0768689673017454
0.0768910614819365
0.0769141531570356
0.0769382414289007
0.0769633253617748
0.0769894039824698
0.0770164762805481
0.0770445412085198
0.0770735976820423
0.0771036445801242
0.0771346807453416
0.0771667049840554
0.0771997160666382
0.077233712727705
0.077268693666351
0.0773046575463999
0.0773416029966461
0.0773687433554143
0.0771388097137691
0.0763145189596141
0.0748383880728485
0.0727761751346891
0.0702030649970916
0.0672092313592225
0.0639124570947819
0.0604249839941141
0.0568349957774895
0.0532032762316209
0.0495382333603074
0.0458217585132786
0.0420336727049771
0.0381639628971912
0.034289572808454
0.0305636575493085
0.0271964596342236
0.0245215171252127
0.0228492807234938
0.02208076032478
0.0218963213087763
0.02426291073927
0.0244685357087884
0.0253323647829648
0.0272158824584208
0.0302034612122974
0.033941134389383
0.0380660704427513
0.0423502176664137
0.0466280676098429
0.0508179274648726
0.0549304813746036
0.0589875386799023
0.063008563564465
0.0669828788442219
0.0708428704534609
0.0744909499251308
0.0778029673436123
0.0806493030247364
0.0829305229131706
0.0845635384032082
0.0854757781010237
0.0857308460292388
0.0857008076203985
0.0856598690465742
0.0856200181326307
0.0855812563979731
0.0855435853231965
0.085507006349809
0.0854715208799601
0.0854371302761775
0.0854038358611108
0.0853716389172805
0.0853405406868351
0.0853105423713156
0.085281645131427
0.0852538500868152
0.0852271583158533
0.0852015708554359
0.0851770887007777
0.0851537128052217
0.0851314440800584
0.0851102833943471
0.0850902315747462
0.0850712894053547
0.0850534576275605
0.0850367369398938
0.0850211279978931
0.0850066314139751
0.0849932477573168
0.0849809775537431
0.0849698212856234
0.0849597793917785
0.0849508522673932
0.0849430402639389
0.084936343689105
0.0849307628067373
0.0849262978367872
0.0849229489552675
0.0849207162942186
0.0849195999416819
0.0849195999416819
0.0849207162942186
0.0849229489552674
0.084926297836787
0.0849307628067373
0.0849363436891051
0.0849430402639391
0.0849508522673932
0.0849597793917784
0.0849698212856234
0.084980977553743
0.084993247757317
0.0850066314139754
0.0850211279978934
0.085036736939894
0.0850534576275603
0.0850712894053545
0.085090231574746
0.0851102833943474
0.0851314440800591
0.0851537128052217
0.0851770887007773
0.0852015708554359
0.0852271583158533
0.085253850086815
0.0852816451314268
0.0853105423713153
0.0853405406868345
0.0853716389172799
0.0854038358611107
0.0854371302761774
0.0854715208799601
0.085507006349809
0.0855435853231962
0.085581256397973