2 	0.0118764442016 	-6.93889390390723e-18 	-0.0393072057355095 	0.000972780682608156 	-2.16556212734727e-21
2 	0.0201337737453494 	0 	-0.0697481043725955 	0.00246590407810311 	-1.78910482190873e-21
2 	0.0286935935154032 	3.46944695195361e-18 	-0.101053423658639 	0.00453349566529419 	-7.60475356781435e-21
2 	0.0375669846194085 	3.46944695195361e-18 	-0.12877406943237 	0.00688193987356613 	-1.19799752905572e-21
2 	0.0467654340988033 	6.93889390390723e-18 	-0.149228826942725 	0.0091742858763863 	-5.14027912203854e-21
2 	0.0563008497993879 	1.38777878078145e-17 	-0.162171163636655 	0.0112247484316432 	1.34843681573155e-21
2 	0.0661855757866513 	2.08166817117217e-17 	-0.169550263068399 	0.0130166270210882 	5.46443698459199e-18
2 	0.0764324083258084 	2.42861286636753e-17 	-0.173378571384007 	0.0146008105918527 	6.13755296343266e-18
2 	0.0870546124472355 	2.42861286636753e-17 	-0.175005445368535 	0.0160305178315324 	-3.1994129634659e-18
2 	0.0980659391187486 	2.08166817117217e-17 	-0.175218810365498 	0.0173452545015353 	-3.85392513150598e-18
2 	0.109480643046957 	2.08166817117217e-17 	-0.174467674684875 	0.0185720563560295 	-1.84934961174871e-22
2 	0.121313501130732 	1.04083408558608e-17 	-0.173012978809993 	0.0197290583086298 	1.23371566281408e-23
2 	0.13357983159069 	6.93889390390723e-18 	-0.171011015065268 	0.020828329131139 	2.12151611453203e-21
2 	0.146295513799441 	1.04083408558608e-17 	-0.168557797408431 	0.0218778171906367 	2.01582502451905e-21
2 	0.159477008838289 	3.46944695195361e-18 	-0.165713029810225 	0.022882620085907 	1.85497142892199e-21
2 	0.173141380806978 	-3.46944695195361e-18 	-0.162513490241723 	0.0238457914751594 	-1.81606196064275e-21
2 	0.187306318914096 	-3.46944695195361e-18 	-0.158980781768735 	0.0247688480168927 	-6.59684418739329e-21
2 	0.201990160376705 	0 	-0.155125974965764 	0.0256520842457232 	3.22133855429417e-21
2 	0.217211914158871 	0 	-0.150952465614388 	0.0264947616056187 	6.32752861059142e-23
2 	0.232991285579799 	6.93889390390723e-18 	-0.146457765114465 	0.0272952113145865 	3.11662819242547e-21
2 	0.24934870182345 	1.38777878078145e-17 	-0.141634624095852 	0.0280508745119424 	2.61223566222174e-23
2 	0.266305338382659 	1.04083408558608e-17 	-0.136471717364376 	0.0287582930149003 	-1.11473800258751e-23
2 	0.283883146471979 	8.23993651088983e-18 	-0.130951457820681 	0.0294155591456193 	3.12862748349267e-21
2 	0.302104881444751 	1.51788304147971e-17 	-0.125048214715299 	0.0300232071418569 	-2.79665475873111e-21
2 	0.320994132251181 	2.03830008427275e-17 	-0.118749118290653 	0.0305645720825867 	-1.97439943424158e-22
2 	0.340575351975563 	1.69135538907739e-17 	-0.112027453925658 	0.0310315616727913 	1.89430312402125e-22
2 	0.360873889492183 	1.30104260698261e-17 	-0.104851976995775 	0.0314144844186941 	4.81332652380255e-21
2 	0.381916022280877 	1.64798730217797e-17 	-0.0971859939074285 	0.0317017564470058 	-6.80812488703454e-25
2 	0.403728990444736 	2.68882138776405e-17 	-0.0889859623839221 	0.0318795410190057 	3.04041380573602e-24
2 	0.426341031973991 	3.20923843055709e-17 	-0.0801993893424328 	0.0319313162798839 	-2.81263378038974e-21
2 	0.449781419301732 	3.12250225675825e-17 	-0.07076168022443 	0.031837376757347 	4.95507356360343e-21
2 	0.474080497198786 	3.81639164714898e-17 	-0.060591403377891 	0.0315742902287295 	-1.52433056004398e-21
2 	0.499269722056809 	4.85722573273506e-17 	-0.0495831417124943 	0.0311143723459137 	-1.29956054854356e-21
2 	0.525381702610457 	4.68375338513738e-17 	-0.0375966751456514 	0.0304254683436236 	3.71627169026378e-21
2 	0.552450242151345 	3.81639164714898e-17 	-0.0244406955746877 	0.0294720254303355 	5.83139561615678e-21
2 	0.58051038228845 	4.16333634234434e-17 	-0.00985001740669094 	0.0282181867232568 	2.47277310363738e-17
2 	0.609598448311611 	4.5102810375397e-17 	0.00653486445006528 	0.0266296631870277 	7.95405596289632e-17
2 	0.63975209621685 	3.81639164714898e-17 	0.0251568310734881 	0.0246740542403171 	-7.54357048221362e-17
2 	0.671010361454398 	2.42861286636753e-17 	0.0465061091027502 	0.0223333302054991 	-3.39079081564325e-17
2 	0.703413709462536 	1.73472347597681e-17 	0.0712552343289668 	0.0195801735474311 	3.40001583950397e-21
2 	0.737004088052664 	1.73472347597681e-17 	0.100780646123258 	0.0163029651036996 	-3.25383560970252e-21
2 	0.761415631590922 	1.38777878078145e-17 	0.125253940136408 	0.0136303755157203 	-6.86000973965301e-21
2 	0.779158441314593 	1.73472347597681e-17 	0.145217720975458 	0.0114938666636729 	-2.38511960296805e-21
2 	0.807992208527445 	1.73472347597681e-17 	0.181046960370796 	0.0077846293408913 	6.15902281878058e-21
2 	0.845474782010776 	6.93889390390723e-18 	0.233239596596647 	0.00270095125607253 	1.35764997812146e-20
2 	0.884326095109732 	-3.46944695195361e-18 	0.292332267702877 	-0.00252055760662245 	-1.19077731385454e-20
2 	0.924595946175681 	-3.46944695195361e-18 	0.356629204473961 	-0.00751547061193867 	-1.27828362466161e-20
2 	0.966335930161379 	3.46944695195361e-18 	0.424858775093547 	-0.0118886831112409 	-5.18831626801912e-21
2 	1.00959950211694 	3.46944695195361e-18 	0.496358544426686 	-0.0152399952689001 	2.39154765224987e-20
2 	1.0544420428071 	0 	0.569587683058951 	-0.0172591508113044 	1.12042485228495e-20
2 	1.1009209265081 	-6.93889390390723e-18 	0.64091914944709 	-0.0178305064795877 	-8.62358328316169e-21
2 	1.14909559104284 	-1.38777878078145e-17 	0.706072043063392 	-0.0173671494309165 	5.32709787887482e-22
2 	1.19902761011263 	-1.38777878078145e-17 	0.762027744385867 	-0.0164589840808835 	1.12725115339047e-20
2 	1.25078076798373 	-1.73472347597681e-17 	0.80813514222225 	-0.0155990725239846 	-1.07089831997074e-20
2 	1.30442113658637 	-1.38777878078145e-17 	0.845710923649142 	-0.0150528881381882 	-2.13387874785716e-20
2 	1.36001715508263 	-1.21430643318376e-17 	0.877464682049762 	-0.0148203757901581 	-2.00216304167036e-21
2 	1.41763971195865 	-1.90819582357449e-17 	0.905460683881753 	-0.0148091766174671 	4.50606122823038e-20
2 	1.47736222969459 	-1.90819582357449e-17 	0.93117172283522 	-0.0148976277614432 	8.51519886119824e-22
2 	1.53926075206349 	-2.25514051876985e-17 	0.955490408721541 	-0.0149761127097491 	1.62051412394278e-20
2 	1.60341403410744 	-2.77555756156289e-17 	0.978844536972412 	-0.0149647844460949 	-6.49199549702919e-21
2 	1.66893387175961 	-2.77555756156289e-17 	1.00102367338584 	-0.0148213438987764 	2.6070153053042e-21
2 	1.70277427891704 	-2.77555756156289e-17 	1.01205612128191 	-0.014711499165477 	2.84874386969323e-21
2 	1.73884797298113 	-3.81639164714898e-17 	1.0229522161538 	-0.0145256594319137 	-2.2659007950815e-21
2 	1.81031023819438 	-4.16333634234434e-17 	1.04355984374543 	-0.0140871782559011 	3.78806522428721e-21
2 	1.8843295834168 	-3.81639164714898e-17 	1.06296739835176 	-0.0135111347927386 	1.8721047304602e-20
2 	1.96099472017776 	-4.5102810375397e-17 	1.08060952165799 	-0.0128436371810858 	3.72021427113161e-20
2 	2.02025965173184 	-4.85722573273506e-17 	1.09311858952291 	-0.0122666323040151 	2.13197636696e-21
2 	2.06006301192217 	-4.85722573273506e-17 	1.10110872050614 	-0.0118386805593914 	0
2 	2.09845978584128 	-5.55111512312578e-17 	1.10802644248818 	-0.0114418105899161 	0
2 	2.13549967996945 	-5.55111512312578e-17 	1.11422901478571 	-0.0110578167862275 	0
2 	2.17123064424048 	-5.55111512312578e-17 	1.11978024857985 	-0.0106868998779997 	0
2 	2.20569893411515 	-6.24500451351651e-17 	1.12473720747649 	-0.0103306019067614 	0
2 	2.23894917046122 	-6.24500451351651e-17 	1.12915062937387 	-0.0099895856031508 	0
2 	2.27102439731725 	-5.55111512312578e-17 	1.13306534078008 	-0.00966391793534531 	0
2 	2.30196613761521 	-5.55111512312578e-17 	1.13652066302677 	-0.00935332548995182 	0
2 	2.33181444693391 	-6.24500451351651e-17 	1.13955080521617 	-0.00905729874896917 	0
2 	2.3606079653529 	-6.59194920871187e-17 	1.14218523767365 	-0.00877516764942502 	0
2 	2.3883839674739 	-6.93889390390723e-17 	1.14444904088011 	-0.00850616590765541 	0
2 	2.41517841067461 	-6.93889390390723e-17 	1.14636322597889 	-0.00824948097020322 	0
2 	2.44102598165722 	-6.93889390390723e-17 	1.14794502420345 	-0.00800429080416267 	0
2 	2.46596014135207 	-6.93889390390723e-17 	1.14920814407802 	-0.00776979012287649 	0
2 	2.49001316823443 	-6.93889390390723e-17 	1.15016299691688 	-0.00754520831486098 	0
2 	2.51321620011054 	-6.93889390390723e-17 	1.15081689289848 	-0.00732982098425832 	0
2 	2.535599274427 	-6.93889390390723e-17 	1.15117421176633 	-0.00712295671827948 	0
2 	2.55719136715571 	-6.93889390390723e-17 	1.15123655397929 	-0.00692400040808738 	0
2 	2.57802043030465 	-6.93889390390723e-17 	1.15100287986576 	-0.00673239417023347 	0
2 	2.59811342810315 	-6.93889390390723e-17 	1.15046964595584 	-0.00654763665938245 	0
2 	2.61749637190832 	-6.24500451351651e-17 	1.14963094902985 	-0.00636928133329673 	0
2 	2.63619435387806 	-5.55111512312578e-17 	1.14847868928168 	-0.0061969340264979 	0
2 	2.65423157945406 	-5.55111512312578e-17 	1.14700276398359 	-0.00603025000710837 	0
2 	2.67163139869691 	-5.55111512312578e-17 	1.14519130167874 	-0.00586893053074848 	0
2 	2.68841633651388 	-5.55111512312578e-17 	1.14303094368876 	-0.00571271876778265 	0
2 	2.7046081218185 	-4.85722573273506e-17 	1.1405071741469 	-0.00556139487187197 	0
2 	2.72022771565972 	-4.16333634234434e-17 	1.13760469164676 	-0.00541476988951321 	0
2 	2.73529533835694 	-4.16333634234434e-17 	1.13430780520388 	-0.00527267819592068 	0
2 	2.74983049567625 	-4.85722573273506e-17 	1.13060082550658 	-0.00513496819560315 	0
2 	2.76385200408156 	-5.55111512312578e-17 	1.12646841105184 	-0.00500149115370416 	0
2 	2.77737801509343 	-4.85722573273506e-17 	1.12189581993386 	-0.00487208822213818 	0
2 	2.79042603878708 	-4.16333634234434e-17 	1.11686901404813 	-0.00474657597236575 	0
2 	2.80301296646003 	-4.16333634234434e-17 	1.11137456494209 	-0.00462473100842767 	0
2 	2.81515509249872 	-4.16333634234434e-17 	1.10539931983307 	-0.00450627446467103 	0
2 	2.82686813547237 	-4.16333634234434e-17 	1.0989298011094 	-0.00439085734993417 	0
2 	2.83816725848142 	-4.16333634234434e-17 	1.0919513301155 	-0.00427804775650303 	0
2 	2.84906708878691 	-3.46944695195361e-17 	1.08444688257887 	-0.00416732090476727 	0
2 	2.85958173674616 	-2.77555756156289e-17 	1.07639569524094 	-0.00405805286547524 	0
2 	2.86972481407933 	-2.77555756156289e-17 	1.06777164876472 	-0.00394951863306326 	0
2 	2.87950945149043 	-3.46944695195361e-17 	1.05854145002224 	-0.00384089507247391 	0
2 	2.88894831566566 	-4.16333634234434e-17 	1.04866262808901 	-0.00373126918150537 	0
2 	2.89805362567106 	-4.16333634234434e-17 	1.03808134432415 	-0.00361965202786669 	0
2 	2.90683716877067 	-4.85722573273506e-17 	1.02672999983357 	-0.00350499828696727 	0
2 	2.91531031568569 	-5.55111512312578e-17 	1.01452460560617 	-0.0033862315688408 	0
2 	2.92348403531448 	-5.55111512312578e-17 	1.00136186414876 	-0.00326228491119449 	0
2 	2.93136890893229 	-4.85722573273506e-17 	0.987115896391012 	-0.00313219307468596 	0
2 	2.93897514388925 	-4.16333634234434e-17 	0.971633464963688 	-0.00299513758595024 	0
2 	2.94631258682425 	-4.16333634234434e-17 	0.954717747321981 	-0.00284987687263645 	0
2 	2.95339073641193 	-4.16333634234434e-17 	0.936042883017337 	-0.0026938466511669 	0
2 	2.96021875565915 	-4.85722573273506e-17 	0.915177357957718 	-0.0025240612493275 	0
2 	2.96680548376697 	-5.55111512312578e-17 	0.891694495365011 	-0.00233877835900986 	0
2 	2.97315944757337 	-5.55111512312578e-17 	0.865139905505699 	-0.00213854633716796 	0
2 	2.97928887259171 	-5.55111512312578e-17 	0.83500060770528 	-0.00192543468568127 	0
2 	2.98520169365902 	-5.55111512312578e-17 	0.800673711163298 	-0.00170259254431551 	0
2 	2.99090556520806 	-4.85722573273506e-17 	0.761422912260127 	-0.00147408643140769 	0
2 	2.99640787117633 	-4.16333634234434e-17 	0.716309415071897 	-0.00124458920602705 	0
2 	3.00171573456492 	-4.16333634234434e-17 	0.664151382656844 	-0.00101925301815542 	0
2 	3.00683602665962 	-4.85722573273506e-17 	0.603521699449955 	-0.00080361578013536 	0
2 	3.01177537592612 	-5.55111512312578e-17 	0.532691898956791 	-0.000602922072781383 	0
2 	3.01654017659085 	-5.55111512312578e-17 	0.449550856417602 	-0.000420853711985436 	0
2 	3.02113659691864 	-5.55111512312578e-17 	0.354121826168387 	-0.000262051832056015 	0
2 	3.02557058719784 	-4.85722573273506e-17 	0.251753590239469 	-0.00013621239481422 	0
2 	3.02984788744324 	-4.85722573273506e-17 	0.149062009510488 	-5.07594730570648e-05 	0
