/*--------------------------------*- C++ -*----------------------------------*\
  =========                 |
  \\      /  F ield         | OpenFOAM: The Open Source CFD Toolbox
   \\    /   O peration     | Website:  https://openfoam.org
    \\  /    A nd           | Version:  7
     \\/     M anipulation  |
\*---------------------------------------------------------------------------*/
FoamFile
{
    version     2.0;
    format      ascii;
    class       volScalarField;
    location    "20000";
    object      Cx;
}
// * * * * * * * * * * * * * * * * * * * * * * * * * * * * * * * * * * * * * //

dimensions      [0 1 0 0 0 0 0];

internalField   nonuniform List<scalar> 
15600
(
0.027533067843108
0.0825992071503881
0.137660125282601
0.192554459849542
0.246877147522095
0.299934252111671
0.350949411108725
0.399606331910972
0.446164130238463
0.491044454833042
0.534664253573971
0.577389810444618
0.619533686179194
0.661385555591744
0.703225975494922
0.745285133606327
0.787651095382803
0.830304127164975
0.873210392549001
0.916333061094618
0.959635091000497
1.00307978907738
1.04662858891098
1.09025312588331
1.13398770242278
1.17793412021703
1.2222167944132
1.26696115098698
1.31229932945499
1.35836742175372
1.40530450995054
1.45324368104535
1.50224992643231
1.55231874835179
1.60341568646696
1.65548293972262
1.70843370546421
1.76214613420311
1.81647034687992
1.8712272961566
1.92621503362063
1.981276489805
2.03634262549122
2.09140876117743
2.14647489686365
2.20154103254986
2.25660716823608
2.3116733039223
2.36673943960851
2.42180557529473
2.47687171098095
2.53193784666716
2.58700398235338
2.64207011803959
2.69713625372581
2.75220238941202
2.80726852509824
2.86233466078446
2.91740079647067
2.97246693215689
3.0275330678431
3.08259920352932
3.13766533921553
3.19273147490175
3.24779761058797
3.30286374627418
3.3579298819604
3.41299601764662
3.46806215333283
3.52312828901905
3.57819442470526
3.63326056039148
3.68832669607769
3.74339283176391
3.79845896745013
3.85352510313635
3.90859123882256
3.96365737450878
4.018723510195
4.07378496637937
4.1287727038434
4.18352965312008
4.23785386579688
4.29156629453578
4.34451706027738
4.39658431353304
4.44768125164821
4.49775007356769
4.54675631895465
4.59469549004945
4.64163257824627
4.68770067054501
4.73303884901301
4.77778320558679
4.82206587978296
4.86601229757721
4.90974687411668
4.95337141108902
4.99692021092262
5.0403649089995
5.08366693890537
5.12678960745101
5.16969587283501
5.2123489046172
5.25471486639367
5.29677402450506
5.33861444440825
5.38046631382081
5.42261018955539
5.46533574642602
5.50895554516695
5.55383586976154
5.60039366808903
5.64905058889126
5.70006574788832
5.75312285247791
5.80744554015045
5.8623398747174
5.91740079284961
5.97246693215689
0.0275229594781567
0.0825688820880805
0.13760970079963
0.192484662244389
0.24679030373615
0.299835431368084
0.350846727971244
0.399509112060182
0.446080687531484
0.490981445361932
0.534626686113292
0.577381241365952
0.619556429143009
0.661440770913889
0.703313705224761
0.745404504179892
0.787800887004963
0.830483198886238
0.873417737888584
0.916567820086549
0.959896551151078
1.00336738396915
1.0469419057079
1.09059186425202
1.13435142270554
1.17832197578772
1.22262744224139
1.26739274723832
1.31274950293416
1.35883325764397
1.40578253809137
1.45372989999224
1.50274007698621
1.55280858954732
1.60390111463375
1.65596008169824
1.70889903435844
1.76259660936144
1.81690352586041
1.87164145118854
1.92660924742473
1.9816504993082
2.03669641826451
2.09174233722083
2.14678825617714
2.20183417513345
2.25688009408977
2.31192601304608
2.36697193200239
2.4220178509587
2.47706376991502
2.53210968887133
2.58715560782764
2.64220152678396
2.69724744574027
2.75229336469658
2.8073392836529
2.86238520260921
2.91743112156553
2.97247704052184
3.02752295947815
3.08256887843446
3.13761479739078
3.19266071634709
3.24770663530341
3.30275255425972
3.35779847321603
3.41284439217235
3.46789031112866
3.52293623008498
3.57798214904129
3.6330280679976
3.68807398695391
3.74311990591023
3.79816582486654
3.85321174382286
3.90825766277917
3.96330358173549
4.0183495006918
4.07339075257527
4.12835854881146
4.18309647413959
4.23740339063856
4.29110096564156
4.34403991830176
4.39609888536625
4.44719141045267
4.49725992301378
4.54627010000775
4.59421746190862
4.64116674235603
4.68725049706583
4.73260725276168
4.7773725577586
4.82167802421228
4.86564857729447
4.90940813574798
4.9530580942921
4.99663261603085
5.04010344884892
5.08343217991345
5.1265822621114
5.16951680111377
5.21219911299504
5.2545954958201
5.29668629477524
5.33855922908611
5.38044357085699
5.42261875863404
5.4653733138867
5.50901855463807
5.55391931246851
5.60049088793981
5.64915327202876
5.70016456863192
5.75320969626384
5.80751533775561
5.86239029920037
5.91743111791192
5.97247704052184
0.0275124808150585
0.0825374461324382
0.137557429124291
0.192412307753064
0.246700278610399
0.299732990530796
0.35074028325358
0.399408330777852
0.445994188100078
0.490916127695862
0.534587742463893
0.577372358380706
0.619580005239092
0.661498008916942
0.703404648729994
0.74552824762657
0.787956165914964
0.8306688305143
0.873632678883595
0.916811178979248
0.96016758934673
1.00366551430044
1.04726670021511
1.09094301159952
1.13472846712964
1.17872403964781
1.22305313330743
1.26784015413006
1.31321616759135
1.35931615847015
1.40627807780226
1.45423393055714
1.50324818317834
1.55331637504208
1.60440432543159
1.65645470275221
1.70938140957921
1.76306358670793
1.81735257341852
1.87207077789602
1.92701790240106
1.98203820984283
2.03706317147295
2.09208813310307
2.14711309473318
2.2021380563633
2.25716301799342
2.31218797962353
2.36721294125365
2.42223790288377
2.47726286451388
2.532287826144
2.58731278777412
2.64233774940424
2.69736271103435
2.75238767266447
2.80741263429459
2.8624375959247
2.91746255755482
2.97248751918494
3.02751248081505
3.08253744244517
3.13756240407529
3.1925873657054
3.24761232733552
3.30263728896564
3.35766225059575
3.41268721222587
3.46771217385599
3.52273713548611
3.57776209711623
3.63278705874634
3.68781202037646
3.74283698200658
3.79786194363669
3.85288690526681
3.90791186689693
3.96293682852705
4.01796179015717
4.07298209759894
4.12792922210398
4.18264742658147
4.23693641329206
4.29061859042079
4.34354529724778
4.3955956745684
4.44668362495792
4.49675181682166
4.54576606944286
4.59372192219774
4.64068384152985
4.68678383240865
4.73215984586994
4.77694686669257
4.82127596035219
4.86527153287035
4.90905698840048
4.95273329978488
4.99633448569956
5.03983241065326
5.08318882102075
5.1263673211164
5.1693311694857
5.21204383408502
5.25447175237344
5.29659535127
5.33850199108306
5.3804199947609
5.42262764161929
5.46541225753612
5.50908387230414
5.55400581189992
5.60059166922213
5.64925971674641
5.7002670094692
5.7532997213896
5.80758769224693
5.86244257087571
5.91746255386756
5.97248751918494
0.0275016182887733
0.0825048585885351
0.137503242588831
0.192337302709616
0.246606955603219
0.299626796985148
0.350629939158316
0.399303857599515
0.44590451996939
0.490848417280818
0.534547372213206
0.577363149989832
0.619604444986869
0.661557343696316
0.703498923739076
0.745656524136009
0.788117133126927
0.830861262356675
0.873855493784289
0.91706345281163
0.960448556458858
1.00397456601498
1.04760339289465
1.09130702250306
1.1351193237976
1.17914083228884
1.22349441868953
1.26830395085271
1.31369992754706
1.35981674937107
1.40679177058325
1.45475642523133
1.50377490277537
1.5538427621869
1.60492597028851
1.65696744319214
1.70988145558083
1.76354767076333
1.81781807086394
1.87251583205921
1.92744152756949
1.98244012331538
2.03744335989293
2.09244659647048
2.14744983304802
2.20245306962557
2.25745630620312
2.31245954278066
2.36746277935821
2.42246601593576
2.4774692525133
2.53247248909085
2.58747572566839
2.64247896224594
2.69748219882349
2.75248543540103
2.80748867197859
2.86249190855613
2.91749514513368
2.97249838171122
3.02750161828877
3.08250485486631
3.13750809144386
3.19251132802141
3.24751456459895
3.3025178011765
3.35752103775405
3.4125242743316
3.46752751090914
3.52253074748669
3.57753398406424
3.63253722064178
3.68754045721933
3.74254369379687
3.79754693037442
3.85255016695197
3.90755340352952
3.96255664010707
4.01755987668461
4.07255847243051
4.12748416794079
4.18218192913606
4.23645232923667
4.29011854441916
4.34303255680786
4.39507402971149
4.44615723781309
4.49622509722462
4.54524357476867
4.59320822941675
4.64018325062893
4.68630007245293
4.73169604914729
4.77650558131046
4.82085916771115
4.8648806762024
4.90869297749694
4.95239660710534
4.996025433985
5.03955144354114
5.08293654718837
5.1261445062157
5.16913873764332
5.21188286687308
5.25434347586398
5.29650107626093
5.33844265630367
5.38039555501313
5.42263685001017
5.46545262778679
5.50915158271918
5.5540954800306
5.60069614240048
5.64937006084168
5.70037320301485
5.75339304439678
5.80766269729038
5.86249675741117
5.91749514141146
5.97249838171122
0.0274903578373389
0.082471077270434
0.137447071046655
0.192259550016981
0.246510213903745
0.299516713258398
0.350515552840141
0.399195557281495
0.445811567062739
0.490778226465456
0.534505523101989
0.577353604273072
0.619629780023726
0.661618852061682
0.703596652293068
0.745789499765975
0.788283997018608
0.83106074352397
0.874086471033984
0.917324968163375
0.960739816212279
1.00429493919477
1.04795241961128
1.09168436819238
1.13552449869252
1.17957289326953
1.22395186965361
1.26878473781424
1.31420140905256
1.36033567838623
1.40732428143442
1.45529806040874
1.5043209176399
1.55438843241323
1.6054667244961
1.65749896678179
1.71039981969303
1.76404948819354
1.81830062080118
1.87297718981791
1.92788067132923
1.98285676001846
2.03783747569313
2.09281819136781
2.14779890704249
2.20277962271717
2.25776033839185
2.31274105406652
2.3677217697412
2.42270248541588
2.47768320109055
2.53266391676523
2.58764463243991
2.64262534811459
2.69760606378926
2.75258677946394
2.80756749513863
2.8625482108133
2.91752892648798
2.97250964216266
3.02749035783734
3.08247107351201
3.13745178918669
3.19243250486137
3.24741322053604
3.30239393621072
3.3573746518854
3.41235536756008
3.46733608323476
3.52231679890943
3.57729751458411
3.63227823025879
3.68725894593347
3.74223966160814
3.79722037728282
3.8522010929575
3.90718180863219
3.96216252430686
4.01714323998154
4.07211932867077
4.12702281018209
4.18169937919882
4.23595051180645
4.28960018030697
4.34250103321821
4.3945332755039
4.44561156758677
4.4956790823601
4.54470193959126
4.59267571856558
4.63966432161377
4.68579859094743
4.73121526218576
4.77604813034639
4.82042710673047
4.86447550130747
4.9083156318076
4.95204758038872
4.99570506080522
5.03926018378772
5.08267503183662
5.12591352896602
5.16893925647603
5.21171600298139
5.25421050023403
5.29640334770692
5.33838114793832
5.38037021997627
5.42264639572693
5.465494476898
5.50922177353454
5.55418843293726
5.60080444271851
5.64948444715986
5.7004832867416
5.75348978609625
5.80774044998302
5.86255292895334
5.91752892272957
5.97250964216266
0.0274786848836676
0.0824360584469643
0.137388841781541
0.192178949021055
0.246409928275498
0.299402596841783
0.350396976220922
0.399083289625832
0.445715209051371
0.490705464387649
0.534462140956696
0.577343708873512
0.619656043145965
0.661682613636359
0.703697960903653
0.745927346657294
0.788456973601155
0.831267532252366
0.874325909642451
0.917596063577673
0.961041745656088
1.00462704857791
1.04831423219677
1.09207553715981
1.13594451633318
1.18002078191419
1.22442607839272
1.26928313741734
1.31472126130057
1.3608736172947
1.40787629971673
1.45585953726153
1.50488693461302
1.55495409211521
1.60602728808371
1.65804996160035
1.71093717295888
1.76456968862084
1.8188008479097
1.8734554484174
1.92833590216874
1.98328865930429
2.03824602907163
2.09320339883897
2.1481607686063
2.20311813837364
2.25807550814097
2.31303287790831
2.36799024767564
2.42294761744298
2.47790498721031
2.53286235697765
2.58781972674498
2.64277709651232
2.69773446627965
2.75269183604699
2.80764920581432
2.86260657558166
2.91756394534899
2.97252131511633
3.02747868488367
3.082436054651
3.13739342441833
3.19235079418567
3.247308163953
3.30226553372034
3.35722290348767
3.41218027325501
3.46713764302235
3.52209501278968
3.57705238255702
3.63200975232435
3.68696712209169
3.74192449185902
3.79688186162636
3.85183923139369
3.90679660116103
3.96175397092837
4.0167113406957
4.07166409783125
4.1265445515826
4.1811991520903
4.23543031137916
4.28906282704111
4.34195003839964
4.39397271191629
4.44504590788479
4.49511306538697
4.54414046273847
4.59212370028327
4.63912638270529
4.68527873869944
4.73071686258266
4.77557392160728
4.81997921808579
4.86405548366681
4.90792446284019
4.95168576780322
4.99537295142209
5.03895825434391
5.08240393642232
5.12567409035755
5.16873246774763
5.21154302639885
5.2540726533427
5.29630203909634
5.33831738636364
5.38034395685403
5.42265629112649
5.46553785904331
5.50929453561234
5.55428479094862
5.60091671037417
5.64960302377907
5.70059740315821
5.7535900717245
5.80782105097894
5.86261115821846
5.91756394155304
5.97252131511633
0.0274665843166761
0.08239975678487
0.137328479413398
0.192095395380632
0.246305968894191
0.299284300006012
0.350274055798013
0.39896690929881
0.445615321198683
0.490630036856891
0.534417169619338
0.577333450981584
0.619683268351277
0.661748710960401
0.703802980716869
0.746070243256699
0.78863628679872
0.831481896237894
0.874574119573003
0.917877089999492
0.961354735651756
1.00497132409557
1.04868929903481
1.0924810357925
1.13637992045303
1.18048507803691
1.2249176587937
1.26979979486519
1.31526015726562
1.36143126248486
1.40844854004445
1.45644158264784
1.50547368642945
1.55554047356418
1.60660838672468
1.65862114093319
1.71149421100355
1.76510894546483
1.81931939975256
1.87395122698155
1.92880780940168
1.98373638028298
2.03866954891633
2.09360271754968
2.14853588618304
2.20346905481639
2.25840222344974
2.31333539208309
2.36826856071644
2.42320172934979
2.47813489798315
2.5330680666165
2.58800123524985
2.6429344038832
2.69786757251656
2.75280074114991
2.80773390978326
2.86266707841662
2.91760024704997
2.97253341568332
3.02746658431667
3.08239975295002
3.13733292158338
3.19226609021673
3.24719925885008
3.30213242748343
3.35706559611679
3.41199876475014
3.46693193338349
3.52186510201684
3.57679827065019
3.63173143928355
3.6866646079169
3.74159777655025
3.79653094518361
3.85146411381696
3.90639728245031
3.96133045108367
4.01626361971702
4.07119219059832
4.12604877301845
4.18068060024744
4.23489105453517
4.28850578899645
4.3413788590668
4.39339161327532
4.44445952643581
4.49452631357055
4.54355841735216
4.59155145995555
4.63856873751514
4.68473984273438
4.7302002051348
4.77508234120629
4.81951492196309
4.86362007954697
4.90751896420749
4.95131070096519
4.99502867590442
5.03864526434825
5.0821229100005
5.125425880427
5.1685181037621
5.21136371320127
5.25392975674329
5.29619701928314
5.33825128903959
5.38031673164873
5.42266654901841
5.46558283038066
5.50936996314311
5.55438467880132
5.60103309070118
5.649725944202
5.70071569999398
5.75369403110581
5.80790460461937
5.8626715205866
5.91760024321513
5.97253341568332
0.0274540404717243
0.0823621252903724
0.137265905800892
0.192008780932095
0.246198201179748
0.299161669610056
0.350146632445539
0.398846265642819
0.445511774198786
0.490551846232357
0.534370550874807
0.577322817318504
0.619711490882708
0.661817229597435
0.703911847682883
0.746218374547813
0.788822168738349
0.831704112982987
0.874831422143729
0.918168411229892
0.961679191379108
1.00532821142856
1.04907810566734
1.09290138902811
1.13683127470408
1.18096638269202
1.22542724723196
1.27033537899669
1.31581879457538
1.36200933585578
1.40904174321027
1.45704495005269
1.50608193266599
1.55614833585656
1.60721077267569
1.65921324419519
1.7120716549347
1.7656679568142
1.81985694761467
1.87446516731428
1.92929700392971
1.9842005025462
2.03910858348964
2.09401666443309
2.14892474537654
2.20383282631999
2.25874090726344
2.31364898820689
2.36855706915034
2.42346515009379
2.47837323103723
2.53328131198068
2.58818939292413
2.64309747386758
2.69800555481103
2.75291363575448
2.80782171669793
2.86272979764138
2.91763787858483
2.97254595952828
3.02745404047172
3.08236212141517
3.13727020235862
3.19217828330207
3.24708636424552
3.30199444518896
3.35690252613242
3.41181060707586
3.46671868801931
3.52162676896276
3.57653484990621
3.63144293084966
3.6863510117931
3.74125909273655
3.79616717368
3.85107525462345
3.9059833355669
3.96089141651035
4.0157994974538
4.07070299607029
4.12553483268572
4.18014305238533
4.2343320431858
4.2879283450653
4.34078675580481
4.3927892273243
4.44385166414343
4.493918067334
4.5429550499473
4.59095825678973
4.63799066414421
4.68418120542461
4.72966462100331
4.77457275276804
4.81903361730798
4.8631687252959
4.9070986109719
4.95092189433266
4.99467178857144
5.03832080862089
5.08183158877011
5.12516857785627
5.16829588701701
5.21117783126165
5.25378162545219
5.29608815231711
5.33818277040257
5.38028850911728
5.4226771826815
5.4656294491252
5.50944815376763
5.55448822580121
5.60115373435719
5.64985336755445
5.70083833038995
5.75380179882024
5.80799121906791
5.86273409419911
5.91763787470963
5.97254595952828
0.027441037110337
0.0823231152480092
0.137201039940108
0.191918993549638
0.246086485621984
0.299034546902855
0.350014541208416
0.398721202481338
0.445404434009103
0.490470791296546
0.534322224375522
0.577311794119059
0.619740747274319
0.661888258245414
0.704024702731973
0.746371932290613
0.78901486005045
0.831934470155694
0.875098150443474
0.918470404396962
0.962015532860859
1.00569817258421
1.04948115542309
1.09333714103427
1.13729916338659
1.1814653189523
1.22595550339517
1.27089058315228
1.31639789641367
1.36260858575193
1.40965667714426
1.45767042056344
1.50671246072494
1.55677846589659
1.60783522575061
1.65982703788792
1.71267025227605
1.76624744633036
1.82041418737179
1.87499793473041
1.92980411903337
1.98468162691753
2.0395637011382
2.09444577535888
2.14932784957955
2.20420992380023
2.2590919980209
2.31397407224157
2.36885614646225
2.42373822068292
2.4786202949036
2.53350236912427
2.58838444334494
2.64326651756562
2.69814859178629
2.75303066600696
2.80791274022764
2.86279481444831
2.91767688866899
2.97255896288966
3.02744103711033
3.08232311133101
3.13720518555168
3.19208725977236
3.24696933399303
3.3018514082137
3.35673348243438
3.41161555665505
3.46649763087572
3.52137970509639
3.57626177931707
3.63114385353775
3.68602592775842
3.74090800197909
3.79579007619977
3.85067215042045
3.90555422464112
3.96043629886179
4.01531837308247
4.07019588096662
4.12500206526958
4.17958581262821
4.23375255366963
4.28732974772394
4.34017296211208
4.39216477424939
4.44322153410341
4.49328753927506
4.54232957943656
4.59034332285574
4.63739141424806
4.68360210358634
4.7291094168477
4.77404449660483
4.81853468104769
4.8627008366134
4.90666285896573
4.9505188445769
4.99430182741578
5.03798446713914
5.08152959560304
5.12490184955652
5.1680655298443
5.21098513994955
5.25362806770938
5.29597529726803
5.33811174175458
5.38025925272568
5.42268820588094
5.46567777562447
5.50952920870346
5.5545955659909
5.60127879751866
5.64998545879159
5.70096545309714
5.75391351437802
5.80808100645036
5.86279896005989
5.91767688475199
5.97255896288966
0.0274275573991834
0.0822826761578856
0.13713379785971
0.191825916999854
0.245970677600202
0.298902767317841
0.349877611088794
0.398591557916759
0.445293161676897
0.49038676712424
0.534272127563322
0.577300367113813
0.619771075398448
0.661961888851421
0.704141691956946
0.746531115269656
0.789214610180301
0.832173265962087
0.875374649763003
0.918783460444041
0.962364195506337
1.00608168649456
1.04989897006924
1.09378885591307
1.13778419220546
1.18198253271555
1.22650311113738
1.2714661260716
1.31699821245664
1.36322978793176
1.41029413790804
1.4583188038809
1.50736608685329
1.55743167941493
1.60848255432996
1.66046331659191
1.71329077793501
1.76684816418429
1.82099184039133
1.87555021891687
1.93032981119182
1.98518037623021
2.04003549102858
2.09489060582695
2.14974572062531
2.20460083542368
2.25945595022205
2.31431106502041
2.36916617981878
2.42402129461714
2.47887640941551
2.53373152421388
2.58858663901225
2.64344175381061
2.69829686860898
2.75315198340735
2.80800709820571
2.86286221300408
2.91771732780245
2.97257244260081
3.02742755739918
3.08228267219754
3.13713778699591
3.19199290179428
3.24684801659264
3.30170313139101
3.35655824618938
3.41141336098775
3.46626847578611
3.52112359058448
3.57597870538285
3.63083382018121
3.68568893497958
3.74054404977795
3.79539916457631
3.85025427937468
3.90510939417305
3.95996450897142
4.01481962376979
4.06967018880817
4.12444978108313
4.17900815960867
4.23315183581571
4.28670922206499
4.33953668340809
4.39151744567003
4.44256832058507
4.49263391314671
4.5416811961191
4.58970586209196
4.63677021206824
4.68300178754335
4.7285338739284
4.77349688886263
4.81801746728444
4.86221580779453
4.90621114408692
4.95010102993076
4.99391831350544
5.03763580449367
5.08121653955595
5.12462535023699
5.16782673403791
5.21078538981969
5.25346888473035
5.29585830804305
5.33803811114857
5.38022892460156
5.42269963288619
5.46572787243667
5.50961323287576
5.5547068383231
5.60140844208324
5.6501223889112
5.70109723268215
5.7540293223998
5.80817408300015
5.86286620214029
5.91771732384211
5.97257244260082
0.0274135838882863
0.0822407556701288
0.137064092512395
0.191729430791553
0.245850627195675
0.29876616025988
0.34973566482471
0.398457164120826
0.445177813159378
0.490299664946726
0.534220195588475
0.577288521510631
0.619802514514734
0.662038216730698
0.704262966802257
0.746696129551395
0.789421677710942
0.832420809532274
0.875661278042014
0.919107984635791
0.962725630675144
1.00647924963625
1.05033209048675
1.09425711843136
1.13828698905434
1.1825186935407
1.22707077936423
1.2720627528238
1.31762051984341
1.36387374657209
1.41095495072526
1.45899093936754
1.50804365719947
1.55810882202471
1.60915359640742
1.66112290399524
1.7139340352058
1.76747088802756
1.82159065446617
1.87612273482551
1.93087476093268
1.9856973961334
2.04052456390998
2.09535173168655
2.15017889946312
2.20500606723969
2.25983323501627
2.31466040279284
2.36948757056941
2.42431473834598
2.47914190612256
2.53396907389913
2.5887962416757
2.64362340945227
2.69845057722885
2.75327774500542
2.80810491278199
2.86293208055856
2.91775924833514
2.97258641611171
3.02741358388828
3.08224075166485
3.13706791944143
3.191895087218
3.24672225499457
3.30154942277114
3.35637659054772
3.41120375832429
3.46603092610086
3.52085809387744
3.57568526165401
3.63051242943058
3.68533959720716
3.74016676498373
3.7949939327603
3.84982110053687
3.90464826831345
3.95947543609002
4.01430260386659
4.06912523906731
4.12387726517449
4.17840934553383
4.23252911197244
4.2860659647942
4.33887709600476
4.39084640359257
4.44189117797529
4.49195634280053
4.54100906063245
4.58904504927474
4.63612625342791
4.68237948015658
4.7279372471762
4.77292922063576
4.81748130645929
4.86171301094565
4.90574288156864
4.94966790951325
4.99352075036375
5.03727436932485
5.0808920153642
5.12433872195798
5.16757919046772
5.21057832228906
5.2533038704486
5.29573703319774
5.33796178326931
5.38019748548526
5.42271147848937
5.46577980441151
5.50970033505327
5.55482218684062
5.60154283587918
5.65026433517528
5.70123383974013
5.75414937280432
5.80827056920845
5.86293590748761
5.91775924432987
5.97258641611171
0.0273990984884335
0.0821972995171593
0.136991833662036
0.191629410019487
0.245726178997895
0.298624548884441
0.349588518660598
0.398317847117391
0.445058239137277
0.490209372010974
0.534166361225776
0.577276241975515
0.619835105320947
0.662117340690016
0.70438868426003
0.746867188750936
0.789636330697927
0.832677421320583
0.875958406332474
0.919444397082838
0.963100306261451
1.00689137667332
1.05078107737066
1.09474253477765
1.13880820482851
1.18307449551465
1.22765924295072
1.2726812357722
1.31826562418197
1.36454129530913
1.41163997104995
1.4596876971341
1.50874604890871
1.55881077031614
1.60984922067457
1.66180665395981
1.71460085680936
1.76811642399908
1.82221140478267
1.8767162235986
1.93143967371295
1.98623335592796
2.04103155290482
2.09582974988169
2.15062794685856
2.20542614383542
2.26022434081229
2.31502253778916
2.36982073476603
2.4246189317429
2.47941712871976
2.53421532569663
2.5890135226735
2.64381171965036
2.69860991662723
2.75340811360409
2.80820631058096
2.86300450755783
2.9178027045347
2.97260090151157
3.02739909848843
3.0821972954653
3.13699549244217
3.19179368941903
3.2465918863959
3.30139008337276
3.35618828034963
3.4109864773265
3.46578467430336
3.52058287128023
3.5753810682571
3.63017926523396
3.68497746221084
3.7397756591877
3.79457385616457
3.84937205314143
3.9041702501183
3.95896844709517
4.01376664407204
4.06856032628704
4.12328377640139
4.17778859521732
4.23188357600091
4.28539914319064
4.33819334604018
4.39015077932542
4.44118922968385
4.49125395109128
4.5403123028659
4.58836002895004
4.63545870469086
4.68173437581803
4.7273187642278
4.77234075704926
4.81692550448535
4.86119179517148
4.90525746522235
4.94921892262934
4.99310862332667
5.03689969373854
5.08055560291715
5.12404159366752
5.16732257867941
5.21036366930207
5.25313281124906
5.29561131573997
5.33788265930998
5.38016489467905
5.42272375802448
5.46583363877422
5.50979062798903
5.55494176086272
5.60168215288261
5.6504114813394
5.70137545111556
5.7542738210021
5.80837058998051
5.86300816633796
5.91780270048284
5.97260090151156
0.0273840824477607
0.0821522514434046
0.136916927766967
0.191525725202917
0.24559717190311
0.298477749868668
0.349435982109441
0.398173426557189
0.444934284821556
0.490115771433727
0.5341105547875
0.577263512612789
0.61986889000565
0.662199363155566
0.704519007073286
0.747044514308545
0.789858847016297
0.832943433520391
0.876266419278968
0.919793133285609
0.963488707299709
1.00731860112341
1.0512465119559
1.09524573334696
1.13934851426745
1.18365065815076
1.22826926369254
1.27332237557407
1.31893436059213
1.36523329831765
1.41235008567392
1.46040997916594
1.50947417125849
1.55953843299136
1.61057032764547
1.66251545162669
1.71529210597127
1.76878560776859
1.82285489492414
1.87733145352827
1.93202528083223
1.98678894943285
2.04155711432837
2.09632527922389
2.15109344411941
2.20586160901493
2.26062977391046
2.31539793880598
2.3701661037015
2.42493426859702
2.47970243349254
2.53447059838807
2.58923876328359
2.64400692817911
2.69877509307463
2.75354325797015
2.80831142286567
2.86307958776119
2.91784775265672
2.97261591755224
3.02738408244776
3.08215224734328
3.1369204122388
3.19168857713432
3.24645674202984
3.30122490692536
3.35599307182089
3.4107612367164
3.46552940161192
3.52029756650745
3.57506573140297
3.62983389629849
3.68460206119401
3.73937022608953
3.79413839098506
3.84890655588058
3.9036747207761
3.95844288567163
4.01321105056715
4.06797471916777
4.12266854647173
4.17714510507586
4.2312143922314
4.28470789402872
4.33748454837331
4.38942967235453
4.44046156700863
4.49052582874151
4.53959002083405
4.58764991432608
4.63476670168235
4.68106563940786
4.72667762442592
4.77173073630746
4.81634934184925
4.86065148573255
4.90475426665304
4.9487534880441
4.99268139887658
5.03651129270029
5.08020686671439
5.12373358072102
5.16705656647961
5.2101411529837
5.25295548569146
5.29548099292671
5.33780063684443
5.38013110999435
5.42273648738721
5.4658894452125
5.50988422856627
5.55506571517845
5.6018265734428
5.65056401789056
5.70152225013132
5.75440282809689
5.80847427479708
5.86308307223303
5.9178477485566
5.97261591755224
0.0273685163274779
0.0821055531326154
0.136839277858738
0.19141824211795
0.245463438905962
0.298325573174003
0.34927785770616
0.398023715484404
0.444805789753059
0.490018742050201
0.534052704033223
0.577250316944496
0.619903912302814
0.662284390305548
0.704654103946598
0.747228335776293
0.790089514720308
0.833219190494142
0.87658571561663
0.920154644698098
0.96389133659255
1.00776147604845
1.0517289967697
1.09576736555423
1.13990861682835
1.1842479273203
1.22890163129217
1.27398700221721
1.31962759478668
1.36595065142968
1.41308621387474
1.46115872049076
1.51022896683566
1.56029275204068
1.61131785082237
1.66325021456188
1.71600867753922
1.76947930561846
1.82352195791108
1.87796922105098
1.93263234037937
1.98736489588331
2.04210192853827
2.09683896119322
2.15157599384818
2.20631302650314
2.26105005915809
2.31578709181305
2.370524124468
2.42526115712296
2.47999818977792
2.53473522243287
2.58947225508783
2.64420928774278
2.69894632039774
2.7536833530527
2.80842038570765
2.86315741836261
2.91789445101756
2.97263148367252
3.02736851632748
3.08210554898243
3.13684258163739
3.19157961429234
3.2463166469473
3.30105367960225
3.35579071225721
3.41052774491216
3.46526477756712
3.52000181022207
3.57473884287703
3.62947587553199
3.68421290818694
3.7389499408419
3.79368697349686
3.84842400615181
3.90316103880677
3.95789807146173
4.01263510411669
4.06736765962063
4.12203077894901
4.17647804208892
4.23052069438154
4.28399132246077
4.33674978543812
4.38868214917763
4.43970724795932
4.48977103316434
4.53884127950924
4.58691378612526
4.63404934857032
4.68037240521331
4.72601299778279
4.77109836870782
4.81575207267971
4.86009138317164
4.90423263444576
4.94827100323029
4.99223852395155
5.03610866340745
5.0798453553019
5.12341428438337
5.16678080950586
5.20991048527969
5.2527716642237
5.2953458960534
5.33771560969445
5.38009608769719
5.42274968305549
5.46594729596678
5.5099812579498
5.55519421024694
5.60197628451559
5.65072214229383
5.701674426826
5.75453656109404
5.80858175788205
5.86316072214126
5.91789444686739
5.97263148367252
0.0273523799767061
0.0820571441321741
0.136758783416964
0.191306821623528
0.24532480688322
0.298167821800268
0.349113940751983
0.397868520094656
0.444672587594804
0.489918158257251
0.533992734076316
0.577236637889084
0.619940217548429
0.662372532207598
0.704794149764458
0.747418891115218
0.790328632416293
0.833505049219136
0.876916708687303
0.920529399312299
0.964308715361661
1.00822057477059
1.05222915641163
1.09630810667768
1.1404892375916
1.18486707621805
1.22955716438135
1.27467597609431
1.32034622419204
1.36669428329426
1.41384930860579
1.46193489038894
1.51101141275665
1.56107470396208
1.61209275790415
1.66401189394421