/*--------------------------------*- C++ -*----------------------------------*\
  =========                 |
  \\      /  F ield         | OpenFOAM: The Open Source CFD Toolbox
   \\    /   O peration     | Website:  https://openfoam.org
    \\  /    A nd           | Version:  7
     \\/     M anipulation  |
\*---------------------------------------------------------------------------*/
FoamFile
{
    version     2.0;
    format      ascii;
    class       volScalarField;
    location    "20000";
    object      Dk;
}
// * * * * * * * * * * * * * * * * * * * * * * * * * * * * * * * * * * * * * //

dimensions      [0 2 -3 0 0 0 0];

internalField   nonuniform List<scalar> 
15600
(
0.00223885838473774
0.00230970763228141
0.00185121467084323
0.00123446139135596
0.000651804453780227
0.000275651813129894
0.000102381511706505
6.81769751023895e-05
5.21128765386345e-05
2.91533585153349e-05
1.51244595686547e-05
9.26756894969483e-06
6.64303315703544e-06
5.31207728468641e-06
4.58413496837326e-06
4.25614493194359e-06
4.23648210997962e-06
4.43649633546217e-06
4.84552354314264e-06
5.48813349711488e-06
6.40713915297418e-06
7.66406728056858e-06
9.32253021231398e-06
1.14150478206881e-05
1.39010746044856e-05
1.67843991835502e-05
2.00568623148108e-05
2.3660189497563e-05
2.74861520444852e-05
3.13810548888541e-05
3.51772551595158e-05
3.88190895502738e-05
4.24363248028818e-05
4.58266458577378e-05
4.87990895945165e-05
5.11704589775326e-05
5.26394055235043e-05
5.32335923038125e-05
5.39588862759761e-05
5.64447759635806e-05
6.42857591679807e-05
8.32432891488099e-05
0.000104890450491987
0.000127309928651043
0.000149979372195582
0.000172738258659047
0.000195271630590514
0.000217513165435853
0.000239327326907775
0.000260670462821711
0.00028146793349013
0.00030167454087227
0.000321232235853641
0.000340092373397008
0.000358203358495189
0.000375520112744168
0.000392002901451297
0.000407623555696868
0.00042236883749526
0.000436246320349166
0.000449289388524292
0.000461562680934778
0.000473167075871916
0.000484244362795109
0.000494981084665185
0.00050561177900389
0.000516421264770095
0.000527748385990544
0.000539991623354241
0.000553618546950676
0.000569180314844021
0.000587332162686354
0.000608865870078792
0.000634744476611432
0.000666157796612331
0.000704640466380955
0.000752262641337556
0.0008128309548396
0.000891740331398924
0.000949719374193242
0.000824012729641314
0.000765139930410704
0.000762759755973483
0.000790973668030876
0.000841030652566093
0.00090912976511377
0.000993242492926751
0.00109244747317521
0.00120594589757803
0.00133719186412061
0.00149842937096499
0.00168703630284146
0.00189592076185217
0.0021185937863802
0.00234921065972521
0.00257972782587698
0.00280044668897201
0.00298931841272107
0.00313410183865783
0.00324179176741471
0.00331886118007968
0.00338404096554232
0.00345738604553458
0.00355571540348897
0.00369177704901787
0.00392739566302569
0.00424201424714396
0.0046141509619661
0.00505039949928025
0.00557634978377689
0.0062014783038881
0.00692317735325626
0.0075259503407647
0.00760221153077173
0.0063701283283379
0.00504288129944317
0.00381798208866309
0.00288360901869946
0.00229287870478708
0.00220303243645729
0.0122280187207194
0.0126008247815646
0.0101202045181471
0.00675998988943082
0.0035801164350979
0.00152179640273516
0.000567543558377535
0.00037498478256899
0.00028726837514499
0.000161925287521068
8.42035420486063e-05
5.14013084608427e-05
3.67118026576779e-05
2.92805750423105e-05
2.52130464159085e-05
2.33547171411901e-05
2.3196627643468e-05
2.42487419197767e-05
2.64428403729172e-05
2.99078573424769e-05
3.4873882998482e-05
4.16747680652472e-05
5.06611348127138e-05
6.20249632662411e-05
7.55542647777802e-05
9.12671828434975e-05
0.000109127382501476
0.000128830540126052
0.000149797976106821
0.000171198408990566
0.000192106532139592
0.000212177709197528
0.000232109521391398
0.000250804489553889
0.00026712053998497
0.000280163775921396
0.000288322322508374
0.000291803766927776
0.000296110499282105
0.000310312952858917
0.000354241782879525
0.0004579961191598
0.00057664900685418
0.000699593960902662
0.000823894233434148
0.000948642393585198
0.00107214921240611
0.00119404473032093
0.00131359639900584
0.00143056064335426
0.00154452901339837
0.00165525037304453
0.00176240511497926
0.00186572464878742
0.00196492553688138
0.0020597607608874
0.00215001388112455
0.00223553297469028
0.00231624919887319
0.00239220881594956
0.00246360036986116
0.00253078423432646
0.00259431969018667
0.0026549902977454
0.00271382471657938
0.00277211422914412
0.00283142493205602
0.00289361777250438
0.0029608784550764
0.00303576778455634
0.00312129850454232
0.00322104273985388
0.00333929760971571
0.00348126128764351
0.00365329214797219
0.00386339768077271
0.00412211276916079
0.00444922315346483
0.00485023201614928
0.00508512603595309
0.00446331508690735
0.00417554858776263
0.00417746650486156
0.00434055554956165
0.00462037237078823
0.00499693201594148
0.0054597113026298
0.00600378762246875
0.00662665747134582
0.00734963451746793
0.00823271534787509
0.00925958169113121
0.0103924061676095
0.0115970096222124
0.0128420262775504
0.014084425560423
0.0152704106493876
0.0162844560562681
0.0170667978874091
0.0176548559164379
0.0180828265966511
0.0184510179529977
0.0188682478239269
0.0194227070129941
0.0201885241988013
0.021493223844524
0.02322207786861
0.0252612029450541
0.0276490804144097
0.0305205993355469
0.0339240262262443
0.0378253374042711
0.0410549794153303
0.0414150900169852
0.0347513787002573
0.027536557692296
0.0208635174169411
0.0157652995472917
0.0125407702256062
0.0120368107264446
0.0295066021602688
0.0303285178821397
0.0245307979825484
0.0164525721002764
0.00873678611310491
0.00372623073125853
0.00139116703674236
0.0009102667738894
0.000698815093008143
0.000397062491844518
0.000207095599140558
0.000126008776648548
8.96998465378779e-05
7.13696760666736e-05
6.13316770914935e-05
5.66880739562661e-05
5.61793417168164e-05
5.86210511634347e-05
6.3825376600036e-05
7.2091510684184e-05
8.39679370383805e-05
0.000100257248441326
0.000121813524420052
0.000149130975516502
0.000181724809106182
0.000219624886584145
0.000262746831623299
0.00031036860870043
0.000361098641443198
0.000412932476221829
0.000463639183529139
0.000512356004919475
0.000560654477018521
0.00060597697682721
0.000644901041497297
0.000675852566350997
0.000695835775492266
0.000706106508481164
0.000720262386561768
0.00075964110891771
0.000875933256498029
0.00113028367119839
0.00141976180956942
0.00171902696555039
0.00202069825375193
0.00232249746587308
0.00262056857946754
0.00291403498671244
0.00320122629666165
0.00348158103161803
0.00375416537767316
0.00401840874727133
0.00427358904227554
0.00451910943269243
0.00475434822222773
0.00497877862146159
0.00519195592127172
0.00539359606110535
0.00558361774266681
0.00576221460863787
0.00592991532869273
0.00608764911289232
0.00623680567433069
0.00637929115191074
0.00651757262068987
0.00665471411896149
0.00679439681583124
0.00694095429832181
0.00709942400867962
0.0072756362075225
0.0074763465185254
0.00770940747784066
0.00798400648702736
0.00831083407203458
0.00870215546568961
0.00917172795380906
0.00973365450708335
0.0104086176926796
0.0110545569299418
0.0112139672199057
0.0101710756380845
0.00973593676986976
0.00984061803723139
0.0102762021967615
0.010961704853345
0.0118593116735584
0.0129499798048668
0.014226618682034
0.0156945759186923
0.0174080907426114
0.0194680715883958
0.02183488473533
0.0244316554444037
0.0271883906449904
0.0300378100055151
0.0328873286611747
0.0356134101252832
0.0379754126604055
0.0398622214872634
0.0413469211389489
0.0424931781489323
0.0435192504536976
0.0446715288759614
0.0461400400317515
0.0481140841410254
0.0513220744487838
0.0555167293497415
0.0604451795620555
0.0661996446944869
0.0730773497215916
0.0811849491436107
0.0903946392555872
0.0980468887495917
0.0991752044553746
0.0841402160126942
0.0670510394432721
0.050916158226264
0.0384475988754189
0.0305174500621324
0.0291443775492571
0.051365101635845
0.0524987499822867
0.0430327248963378
0.0291728613076257
0.0155484937815263
0.00662919884506723
0.00246101808537432
0.00158652988694038
0.00121925805407003
0.00069856845796741
0.000365583803834173
0.000221762511268296
0.000157341025890434
0.000124881190356257
0.000107106861097445
9.87981024134121e-05
9.76989889380071e-05
0.000101769604194068
0.000110649772901956
0.000124841042285131
0.000145289062681362
0.000173384487478177
0.000210614286983834
0.000257855795007316
0.000314303582512452
0.00037995423567144
0.000454598593073599
0.000536918642798073
0.000624426264041456
0.000713621403539888
0.000800772684132396
0.000884544229541486
0.000967277425444734
0.00104483886372732
0.0011115269871337
0.00116373723071266
0.00120092862580193
0.00122786222409897
0.00126608225534772
0.0013569607140125
0.00158891776185756
0.00203072986397985
0.00252196290594638
0.00302098001920828
0.00351514280508914
0.00400152041833403
0.00447513662274948
0.00493534736945683
0.00538039097945697
0.00581002031732019
0.00622344223957159
0.00662033577957015
0.00700015918500598
0.00736253039622828
0.00770703354711999
0.00803338153695784
0.00834140295121207
0.00863114495143572
0.00890292729219362
0.00915743167577859
0.00939577446434119
0.00961958614251421
0.00983108449191711
0.0100331413106864
0.0102293297321276
0.0104239562764448
0.0106220557441478
0.0108293940558364
0.0110524665089284
0.0112985098263355
0.0115755097015996
0.0118921481722679
0.0122576247853604
0.0126810497101496
0.0131699611417405
0.013726985749213
0.0143405837090891
0.0149512476607959
0.0153285055621417
0.015193674399163
0.0145405431063205
0.0143809710373195
0.0147629947959081
0.0155357741376268
0.0166303842334476
0.0180163788318208
0.0196837956272673
0.0216387933680668
0.0239109563829275
0.0265731073811188
0.0296960979530377
0.0332357348452429
0.0371125541660026
0.0412490187101848
0.04556275157065
0.049936566501008
0.0541996620552624
0.0580642846401904
0.0614249356195693
0.0643447096274672
0.0668641026506067
0.0692739046774102
0.0718967892769884
0.0750037569421794
0.0789182804309298
0.0846994002128006
0.0920396848086815
0.100579423639985
0.110461544595686
0.122109637817993
0.135667032326674
0.150823197666066
0.163542667069415
0.166467924617132
0.144694694971161
0.11750641765578
0.0903949619968881
0.0685485516050168
0.0542544127034166
0.0511967573632417
0.0768108177817502
0.0775560832582977
0.0647831780265313
0.0449801259275252
0.0242477552674508
0.0102937784682481
0.00376164428543589
0.00236858313644617
0.00181853462722142
0.00105110414074577
0.000552186917034532
0.000334001111068278
0.000236187117351266
0.000186988203155787
0.000160066407466117
0.000147377676751032
0.00014544148737141
0.000151271082998137
0.000164293048843657
0.000185234960177071
0.000215503348638295
0.000257159780951542
0.000312378483940942
0.000382384999541651
0.000465943215560984
0.00056281517415739
0.000672348468522572
0.000792202436186142
0.00091833708358046
0.00104548549826624
0.00116859813083135
0.00128621889607748
0.00140106409590937
0.00150825668234113
0.00160196419053681
0.00167869251004189
0.00174177539197974
0.00180402683435179
0.00189236927441937
0.0020713688028533
0.00243946829536074
0.00302333571920342
0.0036434907682206
0.00424808250422058
0.00482558537416965
0.00537699345947496
0.00590116999622751
0.00639983812592841
0.00687379435629819
0.00732432070764745
0.00775223344540979
0.00815830924166749
0.00854310427923762
0.00890709749082483
0.00925070156240822
0.00957434118225434
0.00987851131551665
0.0101638478724454
0.0104311978243694
0.0106816887906983
0.0109167967258378
0.0111384109984057
0.0113488979988115
0.0115511541751529
0.0117486341158737
0.0119453593535594
0.0121458663515598
0.0123551436118417
0.0125785248345058
0.0128215413530501
0.0130896840064496
0.0133879534420311
0.0137200306806532
0.014086711491265
0.0144829757706694
0.0148928135223314
0.0152803396348628
0.0155372612210582
0.0155617318380459
0.0153834282833422
0.015402916364782
0.0156083168626779
0.016238250547199
0.017204630494173
0.018481431683118
0.0200589672124384
0.0219465917006556
0.0241693209997701
0.0267756372937901
0.029825158677564
0.0333242291334854
0.0372512587159472
0.0415586587900941
0.046193307174558
0.0510907707147766
0.0561547118504118
0.0612326535689771
0.066119737113446
0.07080292349465
0.0753259966167246
0.0796954754880474
0.0841921923324903
0.0890980663502525
0.0947016312499731
0.101407288795056
0.110316543046122
0.121169500405327
0.133581866379383
0.147697687195405
0.1639092046583
0.182283165898879
0.202147774708263
0.218792518379909
0.224055770304291
0.201752273230384
0.170002502928566
0.135431778407373
0.105072893185562
0.0837724019449542
0.0778245878621291
0.103938177463215
0.102821874279027
0.0878286664761737
0.063661797655103
0.0354501563648011
0.0150384070232099
0.00534921543942404
0.00324513006813039
0.00248047237666291
0.00144732968325964
0.000763774125774452
0.000460805701128906
0.000324778339973024
0.000256462665483373
0.000219131508089976
0.000201431046757301
0.000198422752412023
0.000206124440331134
0.000223721898344832
0.000252188637521568
0.000293437491366842
0.000350217690891489
0.000425286841168952
0.000519923551901599
0.000632081622400784
0.000760676330500438
0.000903767668718571
0.00105709615803608
0.0012144085537892
0.00136866865915892
0.00151435632102025
0.00165072779026041
0.00178083295138558
0.00190160251029369
0.00201071574890609
0.0021099039307478
0.00220727620792122
0.00232035955919348
0.00248337751096779
0.00275951578346069
0.00321180635840943
0.00378966896692055
0.00438723340912611
0.00494651704003786
0.00546938113083959
0.00595923624394767
0.0064211593272655
0.00685689458663976
0.00726969517761232
0.00766069109638258
0.0080316469604591
0.00838333127633638
0.00871670910332307
0.00903234722474364
0.00933088475289185
0.00961286391573201
0.00987892407871118
0.0101297855513584
0.0103663466420277
0.010589713594424
0.0108012616556283
0.0110026748344053
0.0111959922373015
0.0113836384636069
0.0115684249595003
0.0117535330526733
0.0119424158574109
0.0121386762496344
0.0123458702978944
0.0125672319811994
0.0128052644741319
0.0130610507107643
0.0133331360948949
0.013615762435481
0.013896091198127
0.014150365622975
0.0143340663066558
0.0143833315266069
0.0142906557808368
0.0142255816691158
0.014582196641641
0.0149543926540703
0.0156778895545552
0.0166698899489498
0.0179351956517985
0.019473169508388
0.0213028162904519
0.0234554477949789
0.0259793916579257
0.0289115135177163
0.032223811611441
0.0359134624610582
0.0399552981525075
0.0443164970288306
0.0489527932719999
0.0537967024994225
0.0587386804718585
0.0636751919697493
0.0686787155972518
0.0738120021597353
0.07911460036908
0.0848563707975744
0.0913063823560827
0.0987572295394094
0.107654344829871
0.118897414230725
0.132302696458902
0.147515780198851
0.164595610405288
0.18368776610179
0.204618234566008
0.226182009837471
0.243972572789003
0.250681291443011
0.234723858190949
0.207781318276233
0.175077828280999
0.142499083363578
0.116906945136766
0.107495919006744
0.128034054581704
0.123477309061091
0.107837641818759
0.0830994883519231
0.0493931962421549
0.0213613533622753
0.00736177187555164
0.00421615864030204
0.00318879016009192
0.00188010771497974
0.000997696028097957
0.000600685693727508
0.000422005602302157
0.000332376065435234
0.00028350248581148
0.000260237141588482
0.00025595223781824
0.000265652641759094
0.000288261936270599
0.000324991725925786
0.000378231032190323
0.000451251320094082
0.000546947781834649
0.000665882518875859
0.000804341516383528
0.000959234221345944
0.00112607844841595
0.00129788348548055
0.00146635758406934
0.00162421498688123
0.0017678520079579
0.00189900392478442
0.00202202977019193
0.00213860163773582
0.00225193033049134
0.00236918425863722
0.00250248285516691
0.00267078241651111
0.00290425907979174
0.00324436755385506
0.00369847460969746
0.00416407600331418
0.00467135221072936
0.00513450706655229
0.00557435586048447
0.00598537576813483
0.00637742086407884
0.0067481760354987
0.00710211811370745
0.00743864150095
0.00775970388077644
0.00806535878403091
0.00835652394332639
0.00863347467246938
0.00889678409255859
0.00914686997199584
0.00938431278115313
0.00960974607090907
0.00982397490082556
0.0100279673221212
0.0102229084179851
0.0104102158144922
0.0105915687002071
0.0107689181265285
0.0109444632333755
0.0111206173482113
0.0112998735788903
0.0114846461078329
0.0116770210755356
0.0118784183459713
0.0120891317725407
0.0123076025453651
0.0125293768683703
0.0127457106515937
0.0129418132875991
0.0130955156373658
0.0131684184547867
0.0131413477050963
0.013053986084277
0.0130987332564066
0.013564317056751
0.0139908966656232
0.0147248793665561
0.0156781493238852
0.0168708555887203
0.0183038730605618
0.0199982474923207
0.0219834595735355
0.0242993275175442
0.0269650112000624
0.0299435810693296
0.0332405821208068
0.0368400367256175
0.0407185389296638
0.0448427760182885
0.0491627226485487
0.0536001121231035
0.0581088121319517
0.0627886921074009
0.0677104711210053
0.0729417551066265
0.0787342650711442
0.0853575950707038
0.0931040622802858
0.102431672657681
0.114028835189423
0.127793832952571
0.143448312329738
0.160971790060148
0.180237881709849
0.200836560885955
0.221121740876199
0.237617833445454
0.244306204787595
0.236451691141634
0.219478658288409
0.196729695405005
0.17038149397008
0.146553446546205
0.134807242246233
0.144173891367946
0.135724166469637
0.120594150485637
0.0994553207577658
0.0651190492965862
0.0297143491734895
0.0100640142390762
0.00528930036185767
0.00392160478724328
0.00233882498384344
0.00125003075657284
0.000751594630782113
0.000526444418143955
0.00041358471292597
0.000352222463943856
0.000322936281056846
0.000317205026136228
0.000329018570055369
0.000356997440569771
0.000402496821490367
0.000468167867795188
0.000557294227144869
0.000671964549924902
0.000810767415657222
0.000967246281862877
0.00113531097829075
0.00130761619474349
0.00147550653738217
0.00163123375155302
0.00177064361820913
0.00189463712987018
0.00200815388207149
0.00211690447340956
0.00222701279761765
0.00234513556409887
0.002480787466019
0.00264651340757174
0.0028584707176581
0.00313695101655576
0.00349782476554768
0.00390743757813113
0.00425960862797339
0.00469341493890864
0.00507970571429294
0.00546035394689865
0.00581545926310593
0.00615972738771414
0.00648624342244163
0.00680060050821174
0.00710061379578518
0.00738840718350043
0.00766346829432618
0.00792668139443553
0.00817810968038395
0.00841827616036909
0.00864750694946641
0.00886633102235015
0.00907530721317362
0.00927515419172302
0.00946671617195523
0.00965101022123722
0.00982922367218051
0.0100027284636581
0.0101730783055436
0.0103419634792158
0.010511173150347
0.0106824350020805
0.0108572423014861
0.0110365846449925
0.0112205962074444
0.0114081283363667
0.0115961027227945
0.0117787077009399
0.0119465427532086
0.012085935239763
0.0121775756934698
0.0121991398197733
0.0121548499785034
0.0121046407423958
0.0122230053058404
0.0127065522019744
0.0131475284854308
0.0138619831278404
0.0147633108489151
0.015877230461902
0.017204214218649
0.0187642876944091
0.0205827939044298
0.022690462650649
0.025095315695081
0.0277616324225439
0.0306975063673426
0.0338906059999198
0.0373219242292837
0.040964094292138
0.0447772622526821
0.0487033644399263
0.052724419539038
0.0569383472015991
0.0614109330070374
0.0662159219538905
0.0715753497315964
0.0777383622603517
0.084971050268862
0.0936962770894335
0.104428693873962
0.117115554354601
0.131551978067293
0.147682604391967
0.16522831013202
0.18369188119157
0.201262127196582
0.21546852473095
0.22124861475665
0.218621350296671
0.210246480226519
0.198357490779428
0.182107207964002
0.165203515527986
0.153376397279933
0.150948627273331
0.139556217723276
0.125290078780664
0.109622804623878
0.080492722432233
0.0402196833464756
0.0137777622648357
0.00649424924049407
0.00465083778022338
0.00280700506734531
0.00151428053003647
0.000910214231930979
0.000635889776307616
0.000498379406120696
0.000423879702921549
0.000388236507175598
0.000380898533610864
0.000394829014645977
0.000428242670569972
0.000482382950815915
0.000559672210246227
0.000662511719665599
0.000790931887668256
0.000940426933716266
0.00110158626269025
0.00126592194397827
0.00142513019930288
0.00157197904509297
0.00170243117456898
0.0018172077687399
0.00192116846744108
0.00202065578167557
0.00212146147935112
0.0022318368092518
0.0023591576601164
0.00251277056858267
0.00270337059972149
0.00294252607005784
0.00324047831016124
0.00359418405177951
0.00395170910150998
0.00423052323249205
0.00461869786882362
0.00495420963470831
0.00529743334076287
0.00561594765365165
0.00592896951288061
0.00622616631544282
0.00651409823425885
0.00678958769489254
0.00705490972177033
0.00730924337438758
0.00755346732096537
0.00778754146936466
0.00801196516545866
0.00822701792043561
0.00843319387387037
0.00863099792400971
0.00882107649774538
0.00900416912642535
0.00918114859890336
0.00935300571255063
0.00952085077507991
0.00968590475144312
0.00984943405470203
0.0100127226189228
0.0101768922401593
0.0103427325913841
0.0105104337305572
0.0106792483768346
0.0108471430289776
0.0110102777903841
0.0111624781722777
0.0112948926037808
0.0113959940735931
0.0114506510868472
0.0114501855508416
0.0114113934293753
0.0113996221353909
0.0115619534824928
0.0120309853181272
0.0124723208149728
0.0131578353137556
0.014008908928402
0.0150513746996962
0.0162852426052715
0.0177284543564164
0.0194021040890573
0.0213293771365748
0.0235118035642834
0.0259178921041883
0.0285556582548942
0.0314144771694189
0.034477797216469
0.037722027008176
0.0411139926301164
0.0446093208923618
0.0482042168096545
0.0519861227287586
0.0560124867388716
0.0603531747640388
0.0652021572513797
0.0707782813575792
0.077312559332433
0.0851729283417176
0.0947393651837057
0.105976093484183
0.118725458594934
0.132917080680523
0.14821103446016
0.164126367374636
0.178886379604339
0.190821069711242
0.195507625550243
0.195318988552276
0.191834310615662
0.187360124174495
0.179633450970517
0.170946113478944
0.160889947020349
0.150119857678194
0.137346020016217
0.124006556821361
0.112997056400552
0.0932177322521778
0.0523661517670329
0.0188733383022409
0.00791204443534351
0.00534909142718288
0.00326186757315776
0.00178046065831579
0.00107136127701183
0.000746960346662018
0.000584187644027398
0.000496351599183922
0.00045415828681081
0.000445010963964626
0.000460799682637289
0.00049913824566574
0.000560724822150908
0.000647051050912231
0.000758655707551852
0.000892646558138933
0.0010414478322808
0.00119413635838205
0.00134202712928662
0.00147855229694032
0.00160007278064024
0.00170681644682115
0.00180298994526634
0.00189495325449667
0.00198861356734784
0.0020891213022942
0.00220515006977109
0.00234346260985356
0.00251219472739817
0.00271947256649202
0.00297233369437042
0.00327323186373773
0.00360820442990596
0.00392278542840132
0.00416347711436582
0.00452240878135168
0.00482517441065414
0.00514363863398654
0.00543749505141801
0.00572901583250868
0.00600590539335137
0.00627528319409156
0.006533499000772
0.00678288185722483
0.007022490413998
0.00725318704927431
0.00747489660302807
0.0076880999992993
0.00789305458164094
0.00809022496070368
0.00828007279326633
0.00846317969368103
0.00864019285674021
0.00881185768504162
0.00897899389587553
0.00914248476602346
0.00930326940623676
0.00946225546498635
0.0096203150403587
0.00977808826908741
0.00993582883987122
0.0100931520769457
0.0102487220408438
0.0104000046839664
0.0105428819908457
0.010671378242037
0.0107777639783445
0.0108522780695277
0.0108857370609106
0.01087783163779
0.0108521595850544
0.0108723135709005
0.0110588758119911
0.0115029008050341
0.0119390217790574
0.0125936639250147
0.0133994895901666
0.0143796690147811
0.0155340345801224
0.0168781569851272
0.0184293801210483
0.0202050552354806
0.0222031060949173
0.024396703537623
0.0267926932998027
0.029381447167172
0.0321480338696381
0.0350715792508287
0.0381237592959326
0.0412699748026393
0.0445138801976577
0.0479313589321352
0.0515714880834723
0.0554987431472042
0.0598835921006967
0.0649151766197154
0.0707920408105997
0.0778280330943561
0.0863040412598743
0.0961872415385639
0.107349061003266
0.11971231962213
0.132922444391873
0.146550138538621
0.158935432174688
0.168968192059886
0.172700416846872
0.173407020071926
0.172118127155699
0.17160561910847
0.169014851795269
0.166932355634055
0.159322593101197
0.14438805973722
0.131631933922562
0.119353315029535
0.111017811945501
0.101797647728081
0.0651123251676386
0.0256282320772135
0.00969303431282718
0.00600620542678641
0.00367810637654743
0.00203535778030388
0.00122779806585577
0.00085491078796142
0.000667425213605199
0.000566678505733208
0.000517925021271334
0.000506692064355263
0.000523714968655312
0.000565750438284182
0.000632456942477812
0.000723769041799251
0.000837826464153333
0.000968964218426193
0.00110788563900774
0.00124435416031195
0.00137142976660729
0.00148549938362853
0.00158635321667319
0.00167698676319244
0.00176295750096853
0.00185040489219129
0.00194420417271095
0.00204885254549985
0.002172629787496
0.00232128089776207
0.002501445687011
0.00271873428162233
0.00297645567123661
0.00327180771433819
0.0035858646467272
0.00386955345265855
0.00409358548063141
0.00443118648933354
0.00471262916741406
0.00501338649546353
0.00528999222142291
0.00556591773438076
0.00582817922610387
0.00608398340697972
0.00632959224204582
0.00656727393205027
0.00679608745378445
0.00701685546546644
0.00722950558709994
0.00743449661854361
0.00763207504022253
0.00782267604066574
0.00800672293655919
0.00818473661729863
0.00835728039003914
0.00852498522702924
0.0086885202651931
0.00884856893865195
0.00900583051360057
0.00916090422262777
0.00931432491760377
0.00946634844420383
0.00961682212816382
0.00976495734058398
0.00990904003063687
0.0100462979054881
0.0101726370203568
0.01028257691581
0.010369471378146
0.0104258699105444
0.0104474880231959
0.0104394133022127
0.0104283360600071
0.0104729585162825
0.0106712422885152
0.0110880407007502
0.0115163278526909
0.0121409502052881
0.0129066916531528
0.0138328763260077
0.0149193813815382
0.0161794380287437
0.0176272370658211
0.0192757200484371
0.0211209326242271
0.0231402866594358
0.0253390754527795
0.0277083642870191
0.0302344148992385
0.0328984579568662
0.0356759147788801
0.0385394176940457
0.0414965780111575
0.044612779292885
0.0479293316390519
0.0515071266879583
0.0554968931197826
0.0600620932575718
0.0653743496338322
0.0717007749839107
0.0792508502781343
0.0879906646359287
0.0978111477573005
0.108632716516903
0.120107037537107
0.131859204849693
0.142365121711057
0.150884325747265
0.153859379451861
0.154773018294434
0.154279205762777
0.155582500480156
0.155418242600684
0.157557859974716
0.152170282695776
0.136167686264767
0.124275792763974
0.113209407644109
0.1058437660722
0.105778363105624
0.0772514176318175
0.0340573284749456
0.0120592801718349
0.00665040893096431
0.0040375002407463
0.00226514507713569
0.00137102853570064
0.000953981431345112
0.000743734256365875
0.000631275532176097
0.000576217781836167
0.000562616827461533
0.000579978778019872
0.000623988747031739
0.000692917518904425
0.000784890047694063
0.000895811248120179
0.00101824413085107
0.00114287997928803
0.00126162799212209
0.00136985393587929
0.00146654448336679
0.00155366731493434
0.00163540614061771
0.00171736195451066
0.00180486633134359
0.00190187613078538
0.00201240562849014
0.0021439906897503
0.00230131229367419
0.00248952786560887
0.00271208058555486
0.00296948816174592
0.00325576046392061
0.0035507708523669
0.00381373079766757
0.00403230121742837
0.00435270407447034
0.00462016943836696
0.00490747099354159
0.00517173005378736
0.00543595813579611
0.00568745425628533
0.00593311062944106
0.00616936280862527
0.0063983243089325
0.00661912681084318
0.00683253255234694
0.00703849140416145
0.00723743502861976
0.0074296036007615
0.0076154017614677
0.00779521685417355
0.00796951204376781
0.00813877333249605
0.00830352812944121
0.00846431279287159
0.00862160669355562
0.00877583509637875
0.0089275035943769
0.00907686322092173
0.00922385049993019
0.00936793921123467
0.00950799855451159
0.00964216553966073
0.00976760790530385
0.00988044071612197
0.00997575532546686
0.010047932916753
0.0100922035348992
0.0101076529436857
0.0101028926523515
0.0101054188997332
0.010167956067383
0.0103701305514869
0.0107605656843826
0.0111795787948375
0.0117760519281012
0.0125062780245923
0.0133854684211729
0.0144136420433269
0.015601857294885
0.0169616977878302
0.0185027936747173
0.0202203305320921
0.0220953151791854
0.0241314331785717
0.0263202788474083
0.0286490484347823
0.0311006710239107
0.0336535673931783
0.0362858461437144
0.0390071428391986
0.0418738282243498
0.0449199254228799
0.048205700538728
0.0518643672115701
0.0560382469834791
0.0608772892120513
0.0666097881844211
0.0733937683709723
0.0811938271382386
0.0899151168283811
0.0994779360701499
0.109548947490578
0.11979962369611
0.128836396534451
0.13615563756032
0.13853859125245
0.139378406872179
0.139049906656053
0.141056780664723
0.141754339365269
0.146151335250792
0.142444528553657
0.127083347018752
0.11644259444625
0.106620337279001
0.0993931925914276
0.105500854818015
0.0877381509186487
0.0438273646320557
0.0152829024572079
0.00735983796235007
0.00434128597677245
0.00246068610090691
0.00149357559461517
0.00103861887514349
0.000808847050746304
0.000686430725554318
0.000625929294993553
0.000609861226001669
0.000626708603401207
0.000671013816945433
0.000739585004460939
0.000828898696111229
0.0009332549804204
0.00104460544570436
0.00115477188696805
0.0012581086472663
0.00135189467386981
0.00143684675079014
0.00151599231574472
0.00159377436754548
0.001675333438785
0.00176518067943838
0.00186662021652894
0.0019833020036855
0.00212188048605934
0.00228604506599113
0.00247960438901002
0.00270426247539767
0.00295858562976645
0.00323491323455018
0.00351406215781445
0.00376375344678989
0.00398213851576057
0.0042881019114043
0.00454644666353492
0.00482318332571488
0.00507855103683269
0.00533388639453294
0.00557742897872066
0.00581547269043057
0.00604478717893302
0.00626726961487367
0.00648216304981701
0.00669015602164245
0.0068912289808243
0.00708578276431456
0.00727405234416606
0.00745641089808709
0.00763321111093455
0.00780486120333892