/*--------------------------------*- C++ -*----------------------------------*\
  =========                 |
  \\      /  F ield         | OpenFOAM: The Open Source CFD Toolbox
   \\    /   O peration     | Website:  https://openfoam.org
    \\  /    A nd           | Version:  7
     \\/     M anipulation  |
\*---------------------------------------------------------------------------*/
FoamFile
{
    version     2.0;
    format      ascii;
    class       volTensorField;
    location    "20000";
    object      gradU;
}
// * * * * * * * * * * * * * * * * * * * * * * * * * * * * * * * * * * * * * //

dimensions      [0 0 -1 0 0 0 0];

internalField   nonuniform List<tensor> 
15600
(
(0.0691171050423085 -0.000174515458867429 0 39.9671457777621 -0.048423572320815 0 0 0 0)
(0.055352636420398 -0.0137324483171294 7.00608562701242e-23 45.3743836809851 -0.0903057542168283 5.77457352638212e-21 0 0 0)
(1.86387621314729 -0.102362866246476 4.5862954859366e-19 46.6409216150497 -1.84123820449244 1.97888242495084e-20 -5.79155420581279e-21 4.08527135913076e-22 -4.82141006908057e-39)
(3.30465354629655 -0.376373917904578 1.82909281470023e-18 31.6482347257523 -3.32528003981108 1.61643999709333e-17 -3.92088639645546e-17 4.11815373756826e-18 -2.00065573378062e-35)
(1.89492141781651 -0.366539422019591 -4.5701661644444e-19 10.3270721754696 -1.95056847853571 -9.43686048674287e-21 -5.74736547729328e-21 8.17234510969146e-22 -9.55018063774228e-39)
(-2.47926202749261 0.857735760899386 -4.18832681210229e-17 -6.89861519917961 2.37217057055672 -1.83679633914634e-16 3.50240480742851e-21 -1.35572845818787e-21 -3.88640681954705e-37)
(-5.4743389640932 2.57530118089025 7.13415719748908e-17 -11.5650925926436 5.39460449830138 1.50789118504438e-16 6.29771798240898e-17 -2.93694358991249e-17 -8.21458752321303e-34)
(-5.7089232050829 3.3079555242891 -2.92647812517797e-16 -9.80283973080885 5.64588862086846 -4.66474921965803e-16 -3.87033093722571e-21 1.94921912083944e-21 3.75498477849251e-37)
(-4.84921236555673 3.23426514585533 3.06307071492865e-16 -7.23053226046906 4.80251089941319 4.76347001089175e-16 0 0 0)
(-4.00103503505135 2.93731429270606 1.17405597766532e-16 -5.41475927106657 3.96389341403692 1.59399205073531e-16 9.46377822951435e-22 -7.05982024735252e-22 1.19802077232508e-37)
(-3.21741475812948 2.52491724905408 3.30825192468764e-17 -4.07678452181969 3.19280088175543 1.39656820986761e-19 2.56401582885591e-17 -2.00798478451377e-17 2.37897215371066e-36)
(-2.65234323006141 2.17452199874242 2.94154164956215e-16 -3.21623146093701 2.63328653018093 3.29678882777394e-16 0 0 0)
(-2.19218772201318 1.84474432993661 7.07401303603173e-16 -2.5917868621476 2.17930542006489 8.27606860766563e-16 0 0 0)
(-1.84463011742476 1.56645789762206 -1.81683991985293e-16 -2.16141768952428 1.83506536553563 -1.64665443440963e-16 1.40179588008383e-17 -1.19013938452952e-17 1.07156376542262e-33)
(-1.55074484598512 1.30983568525394 -2.87660096600053e-16 -1.82896336399305 1.54524545947379 -3.4147181170385e-16 -1.18254783012796e-17 9.99096676192955e-18 -2.20676247198769e-33)
(-1.3472755624632 1.12086595103091 -5.76866453512267e-16 -1.61537685027623 1.34461512228157 -6.88826628865948e-16 1.03682023762425e-17 -8.63018954048764e-18 4.42049988905998e-33)
(-1.21207928225051 0.993850006200617 -7.19059694805232e-16 -1.47706584795967 1.21173113700345 -8.79861653817485e-16 0 0 0)
(-1.13070979575089 0.915573603649796 -1.15246166357147e-16 -1.39764455470378 1.1322139159952 -1.76694204097517e-16 8.85175011630201e-18 -7.17056591064789e-18 1.10902281011081e-33)
(-1.09706195501844 0.879147671101911 -4.26769990403059e-16 -1.37240660105412 1.10022104531395 -5.41257403474654e-16 0 0 0)
(-1.10897242571343 0.881068969033826 7.20478348548986e-16 -1.40095179500082 1.11342956212291 9.1373697874336e-16 -2.22729304177265e-21 1.77877539860146e-21 1.11403813397583e-36)
(-1.16353252577718 0.917999396113598 -6.05542891086869e-17 -1.48126989020599 1.16906935136123 4.23259642541323e-18 2.1303646005181e-21 -1.70136577018941e-21 -1.06555687093625e-36)
(-1.25875602403073 0.987498797722553 1.72213354162439e-16 -1.6118461551532 1.26491402470627 1.79331868057908e-16 -1.00449692177079e-17 7.88276504178857e-18 1.13135647547126e-33)
(-1.38894838912534 1.08453920553481 3.22835837868328e-16 -1.78628581288298 1.39529251663386 3.7456997227655e-16 1.11114793244641e-17 -8.67915557792815e-18 -2.34473104024041e-33)
(-1.53348649430655 1.19125146131548 -6.82458140789616e-17 -1.98030049901443 1.53924878975913 6.08354243361251e-18 6.40789767749858e-21 -4.96511730709782e-21 2.3521909669315e-36)
(-1.66904905851892 1.28249896491162 5.3034883669397e-16 -2.17646580767457 1.674172560876 7.54167858384948e-16 -1.34769198447624e-17 1.03660134247053e-17 4.63974793119406e-33)
(-1.78834197103268 1.34850482334694 -6.85974587828531e-16 -2.37331691346803 1.79257276146385 -9.67124356617037e-16 0 0 0)
(-1.88047269355663 1.37971099208462 -3.87779608159505e-16 -2.56149249681511 1.88378438417331 -5.86803837140291e-16 -8.04872616449241e-21 5.80347545134421e-21 4.80805784840527e-39)
(-1.93504634762247 1.36841233561507 -3.72345967596553e-16 -2.73118139116428 1.93753971350033 -5.93694462868645e-16 1.64780648153376e-17 -1.16872650375606e-17 3.54560355149951e-33)
(-1.94238987731764 1.30959781027345 2.78535639261853e-16 -2.87187417579228 1.94441058021593 4.12184438975082e-16 1.10047959056539e-21 -1.5547448478483e-22 -7.00213970681239e-38)
(-1.89532178767996 1.20266944061718 -4.15340681876358e-17 -2.9737022453814 1.89741947778561 2.21705116440615e-18 -3.4012487969503e-20 2.16249158084874e-20 4.54840273721291e-36)
(-1.79275897215924 1.05409676514427 -4.40273321405806e-17 -3.03136602487266 1.79550494684925 7.76755343334063e-18 1.67175424748017e-20 -1.02933798142502e-20 8.84451068953007e-39)
(-1.65221992231829 0.884687551414872 -2.92367215186147e-16 -3.06435029994966 1.65654428188519 -4.47786992750813e-16 -1.71521366334264e-17 9.26747103307858e-18 -2.53965373315832e-33)
(-1.49052925577799 0.715781188701041 1.43749997553095e-16 -3.07773167854929 1.49595392305494 2.04614906043336e-16 -1.68196814584455e-17 8.17049770901208e-18 1.15159559211602e-33)
(-1.30515591472018 0.552304341727485 2.68054268287154e-14 -3.05170551979729 1.31175050897339 6.24477629696991e-14 0 0 0)
(-1.10191227587567 0.401431579102204 2.43434812729343e-14 -2.98182366508673 1.10948539614929 6.57380001427093e-14 1.56584236979609e-17 -5.82224919911893e-18 -3.45273476939035e-31)
(-0.890114010607655 0.270270910217662 -1.02116386649045e-16 -2.87067202782775 0.898442434642872 -2.49200296244493e-16 0 0 0)
(-0.68265119761417 0.164626675537326 1.15870747580456e-16 -2.73348256885165 0.691177964787766 2.51500094264497e-16 -1.23080730711207e-20 2.88480755551062e-21 5.05722439301908e-36)
(-0.494074713726155 0.0873137053096627 -5.72032194586651e-15 -2.61137097354101 0.502370936791726 7.22655718045376e-16 1.21149394113452e-20 -2.83954023887021e-21 -4.97786832731442e-36)
(-0.326889763772052 0.035353236686632 7.48337757515259e-15 -2.55956253139164 0.336152110873321 1.04382770834358e-13 -1.40508077076058e-15 1.84325107172444e-16 5.77583764045424e-29)
(-0.189392584915516 0.00604953499406583 1.25738878653477e-14 -2.58627199192087 0.189626200115616 1.02954694348331e-13 -1.43048701432214e-15 1.04718257441161e-16 5.65076175919327e-29)
(-0.0876554106363337 -0.00237087691276207 5.88575432084482e-15 -3.37825012079207 0.101528234788506 -4.28412725208285e-16 5.3573849981067e-21 3.22642091013146e-22 -5.6926763092799e-34)
(-0.0646130484108206 -0.000717394299765554 -1.65222907552299e-23 -4.71396157334763 0.0697322471331112 -1.03863992667328e-18 -1.78075742055992e-20 1.8907898437328e-22 -9.80615641398094e-39)
(-0.0559095044427483 6.06516571435871e-05 1.01442393485024e-19 -5.78898539044203 0.0645354529690691 1.43588105403247e-18 0 0 0)
(-0.0510935565235845 1.42697894391776e-05 3.72387831274268e-31 -6.79464690203938 0.0581561406457539 -1.42680424077416e-18 0 0 0)
(-0.0451846015911408 7.93160097223902e-06 -6.12829803836213e-15 -7.66508361974389 0.052793460100572 3.3329591461603e-16 2.68174339507043e-31 -1.84662491790535e-33 4.83133322953165e-62)
(-0.040241321953308 -1.78833362979505e-05 -6.24480445016473e-15 -8.44158316985402 0.0473252941955823 1.7073718391339e-13 -4.83822474233847e-15 2.71530921211054e-17 9.8301927086258e-29)
(-0.0355980617823763 -2.82693051870961e-05 6.12829803836276e-15 -9.12122581671163 0.0426184621384087 1.70351813220971e-13 -5.25422538839218e-15 2.45242773350615e-17 9.77194522618515e-29)
(-0.03163336405655 -4.20598149779003e-05 6.24480445016456e-15 -9.72311648792983 0.0383111272413651 -2.93622422676028e-16 0 0 0)
(-0.0281138731289401 -5.15197362889941e-05 -3.01175267972138e-33 -10.2544742788131 0.0345325258197087 -7.21405537233908e-19 3.58688121840041e-31 -1.20775949942236e-33 2.52356012791791e-50)
(-0.0250532587327737 -6.14167839252855e-05 -3.86780936071541e-31 -10.7260106506842 0.0311166363411762 1.54261161953532e-32 0 0 0)
(-0.0223393791550795 -6.98524841376556e-05 2.99019499903122e-33 -11.1443993323568 0.0280397252877525 -7.47260169654686e-19 0 0 0)
(-0.0199313178255082 -7.80101954039061e-05 8.20215170044617e-31 -11.5162131625664 0.0252173106019455 7.44269546344004e-19 0 0 0)
(-0.0177689498368823 -8.5391296917897e-05 2.89159378302088e-20 -11.846348081721 0.0226124450846635 -7.33895419165159e-22 8.28676317908953e-31 -1.5816208239058e-33 1.86833939162613e-61)
(-0.0158179825202065 -9.22714149469106e-05 -2.88938013308964e-20 -12.1391626068134 0.0201814629081846 2.96690991194324e-19 1.54084502828462e-20 -1.9202296760911e-23 -5.35055751046096e-43)
(-0.0140465173128048 -9.84901925610762e-05 -2.89159378306415e-20 -12.3982334240067 0.0179001039045952 -2.95206716733904e-19 -1.54084502828489e-20 1.92022967609143e-23 5.35055751046188e-43)
(-0.0124350935374388 -0.000104077483072733 2.88938013300747e-20 -12.626757454699 0.0157485839434692 -5.23809702461259e-22 -4.41622274126136e-31 5.50762635595722e-34 4.79397107559892e-62)
(-0.0109701242660881 -0.000108946067764561 4.31843739700352e-31 -12.8275917607811 0.0137175553942012 -6.26304414009339e-33 0 0 0)
(-0.0096458016481301 -0.000113055662046797 0 -13.0034417276134 0.0118036413714527 0 0 0 0)
(-0.00846183892912683 -0.000116341394606698 0 -13.156945991285 0.0100103960052326 0 0 0 0)
(-0.00742304924385218 -0.000118774782574837 -7.78516563965059e-15 -13.2907847503674 0.00834622222010407 0 0 0 0)
(-0.00653771380507891 -0.000120353001647974 -7.92754952279543e-15 -13.407741807222 0.00682331501882416 2.39291157752362e-14 -7.70445292978436e-15 3.92086208162113e-18 1.37503096737481e-29)
(-0.00581679158168602 -0.000121107849701919 7.78518270517684e-15 -13.510755885744 0.0054563204839853 2.44896389532336e-14 -7.7606764558197e-15 3.13579450958312e-18 1.41054548115754e-29)
(-0.00527323748925207 -0.000121098363506361 7.92753246188383e-15 -13.6029527826358 0.00426168439428949 5.74342615342836e-17 8.6784291399057e-21 2.75306196482104e-24 -5.57671434372873e-44)
(-0.0049216122775856 -0.000120416371284609 -1.70655260104253e-20 -13.6876700493854 0.00325703558982857 5.19408500899303e-20 -8.67842913990463e-21 -2.7530619648207e-24 5.57671434372804e-44)
(-0.00477757718844507 -0.000119193014283006 1.70609115777219e-20 -13.7684699584244 0.00246052144916681 2.47434968851571e-22 0 0 0)
(-0.00485725367223739 -0.000117609986721184 0 -13.8491394643565 0.00188992206172367 0 0 0 0)
(-0.00517632785496696 -0.000115912636789941 0 -13.9336715781534 0.00156145259438006 0 0 0 0)
(-0.00574869496577531 -0.000114430279735035 0 -14.0262222707854 0.0014880578908406 0 0 0 0)
(-0.00658411178228644 -0.000113603512330354 0 -14.131028602128 0.00167667980601784 0 0 0 0)
(-0.00768457011776173 -0.000114029385832694 0 -14.2522645082415 0.00212419593855056 0 0 0 0)
(-0.00904007530648841 -0.000116404578037096 0 -14.3938068731968 0.00281027154964525 0 0 0 0)
(-0.0106099289581282 -0.000122066706875104 9.74030787479677e-15 -14.558863814399 0.00368809858617329 4.23792028589665e-16 0 0 0)
(-0.0123009633725716 -0.000132586259591633 9.82453872167588e-15 -14.7491124365805 0.00464708177716637 -2.67077473307501e-14 8.49467355974095e-15 -2.63831044750429e-18 1.51036086988147e-29)
(-0.0139934186504289 -0.000148475727370485 -9.74030787479638e-15 -14.9636143018249 0.00549876971381115 -3.00706286417366e-14 8.57505924811484e-15 -3.20530920087268e-18 1.75658316974878e-29)
(-0.0152331769743271 -0.00017787188249486 -9.82453872167635e-15 -15.1974475451335 0.0058772135578473 -4.99791048337483e-16 0 0 0)
(-0.0147815840267984 -0.000243017842473207 0 -15.4318034614045 0.00486824919033547 0 0 0 0)
(-0.0135574631881388 -0.000265897313227821 0 -15.6261681555377 0.000807761662720439 -2.30752090829795e-18 0 0 0)
(-0.00654209974913999 -0.000383685166063813 0 -15.7533073396978 -0.00726398945860675 2.3073622372053e-18 0 0 0)
(0.0391474271059769 -0.00455781461039807 1.1287216666282e-14 -15.5455773505976 -0.0407366811819508 7.77569676464287e-16 0 0 0)
(0.228147578893674 -0.018644885671257 1.16312524561714e-14 -14.2200386234755 -0.253928570753688 -2.85064282785168e-14 8.20394423261152e-15 1.46208149352096e-16 1.59337078504128e-29)
(0.910667152376602 0.0254198083126284 -8.94146424497133e-15 -12.5297529854957 -0.89638804861617 -3.69106748004081e-14 7.17357236443091e-15 5.12497327556218e-16 2.17095739738997e-29)
(1.56653066338334 0.167019566848032 -1.13248706766928e-14 -11.8028197152505 -1.55019128687637 -1.1239153390567e-15 -1.22175292835124e-19 -1.54093272163442e-20 1.09656825852078e-33)
(2.20108139322104 0.385182970900243 1.53254021195492e-16 -11.3584294799524 -2.17830878509901 -6.63717705321627e-16 2.06770115121079e-21 -3.15964206278273e-21 2.50920552829686e-36)
(2.82462724582 0.675676319295554 1.6993053199122e-16 -11.1109485406193 -2.79787725869865 -6.7376247973164e-16 1.16427389934236e-19 2.87147293766809e-20 -5.80499706955431e-38)
(3.43566105457338 1.03366788598512 -9.97937058926384e-17 -10.9475701577271 -3.40385912892028 -1.09915981519154e-17 -5.87700641112964e-20 -1.62455212219458e-20 1.96634525538343e-38)
(4.03161784947754 1.4534563351228 4.71629677336412e-14 -10.8291579425227 -3.99434714722846 -1.27223909500601e-13 0 0 0)
(4.6042688486063 1.9259953673564 5.185387410024e-14 -10.7199276926465 -4.56028949873232 -1.21243932676226e-13 -5.9033769695337e-20 -2.61778456123308e-20 -1.02877475327487e-35)
(5.14387373738456 2.43988716299013 6.87898629431092e-16 -10.5980986992116 -5.09232396419457 -9.86191181858095e-16 6.09986141916349e-20 2.70491332861787e-20 1.06301587360878e-35)
(5.64310968695472 2.98282300929242 -1.51752518923153e-16 -10.4571319037555 -5.58359687369551 6.57464666735629e-16 5.84767289617977e-17 3.12082534710164e-17 -3.57215358110812e-33)
(6.10877020034942 3.54292763874815 7.94185067520314e-18 -10.3317793739992 -6.03840131407982 -3.87931036014568e-16 5.90684000862363e-17 3.45082159942464e-17 2.10236013243338e-33)
(6.50889373497716 4.06795744911212 -1.01753470994507e-16 -10.2256936733337 -6.4271537706302 -9.82806017093247e-18 0 0 0)
(6.79691148087355 4.50608623060633 -9.36954103668739e-17 -10.0693035592171 -6.70358922186637 -1.38691450748885e-17 -6.25883197970219e-20 -4.11400380394031e-20 -1.12377092740622e-35)
(6.94283017032041 4.82050917052238 -3.74590675552217e-16 -9.81948828764764 -6.83918039241512 3.9440509757827e-16 -5.90833845950785e-17 -4.11454029473943e-17 2.43656520947666e-33)
(6.92322284911207 4.9807374418604 -1.13641777921697e-15 -9.44582721549211 -6.81144410403755 1.85736781257043e-15 -5.75701714683543e-17 -4.15078850794581e-17 1.11995380468766e-32)
(6.71858399446252 4.96289963158108 4.13435142426725e-16 -8.92241142619331 -6.60221556105661 -4.18639075103812e-16 5.48814595244528e-17 4.06053283629703e-17 2.62455239219424e-33)
(6.31485125913177 4.75097562879 -3.13624072259561e-18 -8.22741220761889 -6.19770377506625 -2.11404563941512e-18 0 0 0)
(5.69711060812702 4.33443482856699 -8.23869210200389e-16 -7.33294973232661 -5.58449985882504 1.06884983023133e-15 0 0 0)
(4.86504783690938 3.72525649680351 -9.5249365655846e-17 -6.21285480057649 -4.76226355338057 -1.05651696910994e-17 -1.92815779926985e-20 -1.39071365125297e-20 6.20513869729741e-39)
(3.86067317660824 2.98032268713533 1.07114139382551e-15 -4.87758362094632 -3.77088329882302 -1.6338649349854e-15 3.47530687095648e-20 2.50473630010599e-20 1.31054021551661e-35)
(2.71076349236669 2.11929943534001 1.77573258256422e-15 -3.36519435374309 -2.63685302023352 -2.26594638339892e-15 -2.10736709860733e-17 -1.65093311957918e-17 -1.41742524064484e-32)
(1.42868744619668 1.14386654007815 1.01539090188718e-16 -1.70527364116285 -1.37189148061514 7.44666411126531e-18 0 0 0)
(-0.00429471424996801 0.0310559534945185 8.42088726187459e-16 0.111279634749063 0.0412199232657532 -1.16036536142512e-15 0 0 0)
(-1.603000765615 -1.24327143154099 -2.70635250158032e-16 2.08700115398295 1.61902317676427 5.6265882148301e-16 1.31933019385695e-17 1.0235210810499e-17 3.49757137902475e-33)
(-3.44238535693482 -2.75027186244576 -8.67990839220095e-16 4.29502802601537 3.43215570666916 1.16188026626032e-15 -5.78673304801638e-22 -5.03038144950682e-22 1.85206402631564e-36)
(-5.58063125567301 -4.55696038885767 1.32639737909749e-15 6.78411949059309 5.54124875679558 -1.69417040347596e-15 -4.42700223430864e-21 -3.6110772633474e-21 -1.85358944281714e-36)
(-8.23177351900562 -6.84795264696333 3.26896353828046e-19 9.7947955057532 8.14832102466596 -4.08714201405793e-19 0 0 0)
(-11.5865637574659 -9.71246141115875 6.186931362798e-17 13.6590565846062 11.4443394768128 1.01589300552115e-18 0 0 0)
(-15.6913644303335 -13.0489352226633 3.69757869633991e-16 18.6259167632707 15.4743857272591 -5.08161979154694e-16 -1.20371319756711e-16 -1.00003928737291e-16 3.27669487080906e-33)
(-20.539817382301 -16.6734563472874 8.01497264590169e-16 24.9665286153439 20.2368970361297 -1.04202680898953e-15 4.07397042027542e-21 3.17311452890529e-21 -1.89413398516179e-37)
(-26.224828180406 -20.4013450895708 -1.15775103529537e-15 33.254629021266 25.816859931832 1.43261912148505e-15 -3.06910708267127e-21 -2.36487771510218e-21 2.09970845476727e-37)
(-32.4983446757962 -23.7053719939784 3.61150034168416e-16 43.9745026437224 31.9845511360724 -4.79277137004099e-16 2.69976131513604e-16 1.96351036897655e-16 -2.94573280037097e-33)
(-39.0958582556096 -25.9233536244264 1.05024223031645e-16 58.2350366338457 38.459022318722 -3.9822244860627e-18 2.0473250392589e-20 1.37326853195199e-20 -1.36293485667459e-36)
(-44.0593727471642 -25.4079440687309 -3.32912369619739e-16 75.6553340218271 43.3657196460575 5.5019486414859e-16 -4.31894575034166e-16 -2.47516103664912e-16 -3.13737469426088e-33)
(-44.8693562238215 -20.9421725839768 -8.15819430295779e-17 95.5309605929813 44.1688877992382 1.29760430049987e-16 -3.1258418485179e-20 -1.56153404717217e-20 -1.92308006837482e-37)
(-35.9531373989041 -12.1425009715663 6.73799342074756e-18 106.910924221916 35.5155626577258 2.07906100659934e-18 2.77782824820851e-16 9.22483514404539e-17 6.58958768319807e-36)
(-21.4790654918773 -4.71970333383928 -1.32234007746507e-17 100.271574197281 21.2992024974281 4.47179708243372e-17 2.8414064943099e-20 4.7399351336387e-21 -1.38777835441448e-37)
(-9.55950345174267 -1.22036797189454 5.52368083674946e-18 81.5329066184884 9.54698742465782 -3.66531004519387e-17 -1.01010838071829e-16 -1.18234733684624e-17 4.53948792529327e-35)
(-2.90597015846521 -0.189777860450498 4.41198569001084e-18 61.6075057181957 2.91518018849193 -1.47504883795796e-17 -3.79408404687866e-17 -1.79419961466645e-18 8.98740181361187e-36)
(-0.178250946559705 -0.0191420779046693 1.51348127012473e-18 42.6252347909619 0.218343914430376 -3.26827152767418e-20 0 0 0)
(-0.00783726772794593 -0.000662423520480996 -2.6272193479343e-22 37.3281177226911 -0.0179478985954543 3.70828605277317e-21 0 0 0)
(0.161170100657824 -0.00190304194877429 5.98536527264066e-23 41.6294906045309 -0.115565852554055 2.12043443057086e-24 0 0 0)
(0.139919731555887 -0.0377432018718752 -2.16264280801889e-25 45.5450824167022 -0.178374231334932 -5.48227389583493e-21 -2.68423565440261e-20 7.94108956601546e-23 -2.59869041876172e-44)
(1.67360055352927 -0.138712290330096 -4.0727913384959e-22 46.4210608065911 -1.65178862823964 -6.05367089661051e-21 0 0 0)
(3.14069929110243 -0.35723934187887 -4.40191107598715e-18 34.6620429107475 -3.13400475242726 -3.9038935987225e-17 -4.29957009427793e-17 3.88384130027769e-18 4.83784695221408e-35)
(2.32412804777056 -0.34659442220532 -5.97730446699605e-18 15.1189909721173 -2.25190058012175 -3.31480116741224e-19 0 0 0)
(-1.4905387984575 0.704421157152101 1.04950725050943e-16 -2.86301346317241 1.57311468412452 3.59148998061795e-16 -2.46284480364869e-17 9.99822589906698e-18 4.72318233759915e-34)
(-4.60998248417681 2.29624568604677 -2.86098409030558e-16 -9.59243510161717 4.68781382652455 -5.83411406252662e-16 -6.07434300422301e-17 2.83273158598141e-17 7.92340454424828e-34)
(-5.07397092354489 2.9942261098872 5.68590788660517e-16 -8.84512045366092 5.13033448246469 9.14124593034398e-16 -1.04463230932364e-16 6.03485933799957e-17 2.64409727139569e-33)
(-4.39663990026929 2.95612235071899 -2.66774386712967e-16 -6.68898201217579 4.44137227072593 -4.57845550118297e-16 8.11910785389262e-17 -5.39053787677733e-17 -1.85973560949006e-36)
(-3.68124316389107 2.71392378622322 -1.33257271525451e-16 -5.07862361010152 3.71231685490806 -1.54209450220418e-16 6.32324747791953e-17 -4.62493490109e-17 -2.56866862818586e-36)
(-3.00198955271474 2.35939979766006 -2.32090160601243e-17 -3.8726199665463 3.02550227724495 -7.2092078808743e-19 2.43459407539717e-17 -1.90187756772153e-17 1.15079284510045e-36)
(-2.49681431314503 2.04743046460822 -2.32347818159028e-16 -3.07647480495464 2.51302371828539 -3.18149987871429e-16 0 0 0)
(-2.08204877800161 1.7492159801344 -1.1266475579675e-15 -2.49793983556044 2.0943289104818 -1.29432788443628e-15 3.22772939003147e-17 -2.71014147408615e-17 3.20286172735283e-33)
(-1.76558631696072 1.49389392519752 -7.49574395406392e-16 -2.09670034339197 1.77368295954218 -8.43375599041375e-16 -1.35144295822206e-17 1.1473889189645e-17 -1.0329827388429e-33)
(-1.50147464928915 1.26048440407692 6.66650745604382e-16 -1.79186827754298 1.50637993105366 8.40630400316278e-16 -1.15747468960588e-17 9.73027009833396e-18 5.41905849703784e-33)
(-1.31890047512937 1.08959131922081 7.89594973117466e-17 -1.59572949207455 1.32113423297879 1.48384158493029e-16 -3.02288361469133e-17 2.51154533200826e-17 -7.58802418560206e-33)
(-1.20018099102791 0.976809651934717 2.92945722338939e-16 -1.47180622683692 1.20037934897882 3.21039948671024e-16 -1.84456423851567e-17 1.50865784372873e-17 -3.35029376417888e-33)
(-1.13272389448142 0.910569049391129 -3.00840593020084e-16 -1.40452841657887 1.1311352069945 -3.64022291899203e-16 -8.52847939451531e-18 6.90873172233722e-18 -1.06598862436658e-33)
(-1.11080999809089 0.88465256338789 6.91338305738296e-17 -1.3888666723926 1.1078107666598 -2.43931537573348e-17 -1.7087863734066e-17 1.36629777659394e-17 -3.40818017715636e-33)
(-1.13198201959039 0.895453446879271 -6.4763263269369e-16 -1.42379447854198 1.12773719633588 -8.82880753067352e-16 1.74065373824854e-17 -1.38094099812466e-17 -1.12528168916194e-35)
(-1.19293904709999 0.939432146064029 -4.2093540701531e-16 -1.50673927772166 1.18780888471304 -5.5064595280971e-16 -6.33486220261377e-21 5.00206335749439e-21 1.5843385652608e-36)
(-1.29052150414138 1.01323058310411 -1.30988712358561e-16 -1.63488426560144 1.28476075981006 -1.72934302463807e-16 9.70217457019352e-18 -7.61370266761414e-18 -1.09434725212272e-33)
(-1.41681780078848 1.10968873159609 -1.17881356651796e-15 -1.8002166208913 1.41125952519298 -1.4719398437287e-15 1.11876182427898e-17 -8.76996338850066e-18 9.17107693151913e-33)
(-1.55306416993957 1.21122154301041 1.10589727534793e-16 -1.98158399304683 1.54786304918825 -9.19743338647265e-18 0 0 0)
(-1.67893268717859 1.29509443479189 -1.68026625373135e-16 -2.16430505913922 1.67450170011096 -1.45756685774269e-16 3.94039157257274e-17 -3.03666378360986e-17 -8.02690898600322e-33)
(-1.7868432024122 1.35182399128454 5.18352667799704e-16 -2.34588336290824 1.78331329710165 9.37141968671401e-16 -2.85350192438885e-17 2.16187367326485e-17 -4.64620472372427e-35)
(-1.8673397698036 1.37278042418949 3.93456124466e-16 -2.51898122004217 1.86480717980553 5.53572992790928e-16 -3.04651124009482e-17 2.24723786544292e-17 -7.60568234661718e-35)
(-1.91184941409443 1.35154596683761 4.07990656140092e-17 -2.6761038951805 1.91019276376124 -2.7305286205098e-17 -1.58245259944292e-17 1.12233541694641e-17 -3.41105337145969e-33)
(-1.91301081205835 1.2846991720324 -2.07719454522098e-16 -2.81001756567866 1.91197199160915 -4.03426762818807e-16 -5.00173743942729e-20 3.28671909216984e-20 -1.37767802610417e-38)
(-1.8663931530027 1.17349007257128 1.40387380734714e-18 -2.91518686405505 1.86550153372913 1.5732264681451e-18 -2.38618327845886e-21 -5.83657659499568e-22 4.10808967340168e-38)
(-1.77428449812506 1.02668573499243 -1.2659468368084e-18 -2.99170483131505 1.772402117226 -1.92234962505121e-18 9.87224858018875e-20 -5.81963623173928e-20 -4.00294080654301e-38)
(-1.64896777709696 0.8624017473495 3.0453525992004e-16 -3.05323434642534 1.64646671233516 4.28445345935849e-16 -1.71241586934359e-17 9.22182432926309e-18 2.43331467247762e-33)
(-1.50245052786181 0.698087973265761 6.79918192750925e-15 -3.10247475580721 1.49893624513214 -1.49219296008377e-16 1.62432622946038e-17 -7.89098019835217e-18 -1.10186510378635e-33)
(-1.33369139088484 0.5387493968796 -1.84226253210688e-14 -3.12718217279548 1.32933278990344 -6.00643801513588e-14 2.94913951124237e-15 -1.25944830558774e-15 1.94145319611551e-31)
(-1.14746912499221 0.391423026363924 -2.86646477214601e-14 -3.12462619339535 1.14230671069232 -6.00310346915579e-14 2.912528491465e-15 -1.07286524561324e-15 -1.61090910741251e-30)
(-0.951274488209636 0.262890173008493 -6.71017814535575e-15 -3.09833801384476 0.945613649387515 4.95969979379149e-16 0 0 0)
(-0.756183314568885 0.158829076640829 -6.28272145096798e-17 -3.06291504202339 0.750130049443135 -2.48198504725797e-16 0 0 0)
(-0.573492586130832 0.0813861506939643 1.65199390881589e-14 -3.05163428211209 0.567735401729613 -1.57844497713524e-15 -3.83111540977606e-20 6.09650082530789e-21 1.55782810829511e-33)
(-0.40492946834893 0.0285442076924984 1.51166470037239e-14 -3.11334194969323 0.403150366903844 -1.37247984218742e-14 4.17281440351893e-15 -5.43564192403027e-16 -9.96072653988904e-29)
(-0.288225575443457 0.00116191160468645 -1.70706106931205e-14 -3.36257004510879 0.275432561927402 -8.09858196804261e-15 4.32155692082014e-15 -3.29934235747794e-16 -1.00316143477174e-28)
(-0.196895327566078 -0.00678143627524213 -1.6598253715168e-14 -4.14678607939339 0.201450763906589 1.20395139643277e-15 -4.40283184778811e-20 2.2366466243009e-21 1.54862694851811e-33)
(-0.176946695234513 -0.00298282115309561 2.95202644464978e-19 -5.24784547463481 0.167949852479179 9.82143732614493e-19 0 0 0)
(-0.15264481935046 -0.00123056039227724 -1.44545150727539e-19 -6.15833640023608 0.14868522234404 5.97145223481698e-20 8.94711528856564e-20 -1.03359742702867e-21 -1.48316528930566e-40)
(-0.136944044904837 -0.00120470389918328 -1.46135397356973e-19 -6.96833069755838 0.130525757219233 -1.34431863618637e-18 -8.94711528856646e-20 1.03359742702877e-21 1.48316528930579e-40)
(-0.119866030095985 -0.00110564790692162 2.36214923186067e-14 -7.65850663608637 0.114199904569347 -1.28405144052525e-15 -2.58792504878675e-31 1.78202242971704e-33 -4.66231344383058e-62)
(-0.105681247513041 -0.00101242979890331 2.37667812671461e-14 -8.25910350189129 0.0994633686612328 -6.6186091074797e-14 2.10183412898824e-14 -1.70750164313443e-16 -1.92660046266204e-28)
(-0.0928216810947266 -0.000883961945733802 -2.36212742702281e-14 -8.77753957338375 0.0868479500787266 -6.09840425828104e-14 2.26211270780747e-14 -1.51371813847449e-16 -1.97851521443961e-28)
(-0.0819246159856376 -0.000775597425202849 -2.37668543505216e-14 -9.22942974254333 0.0759549815419912 1.12027259977201e-15 6.97886774842297e-20 -2.8445628748075e-22 -1.95789501984199e-41)
(-0.072379867658298 -0.00067543745126529 -7.350322708205e-20 -9.62333554151818 0.0666538575198673 -6.71060788282719e-19 -6.97886774845833e-20 2.84456287481946e-22 1.95789501740692e-41)
(-0.0641189076627133 -0.000594064684530494 -2.6192533165327e-21 -9.96817838017394 0.058624724624751 -9.87777992354507e-21 0 0 0)
(-0.0568387173591129 -0.00052516886290843 7.53996593813426e-20 -10.2701508596827 0.0516742831929425 1.27780441059853e-18 -7.88046204534924e-20 2.00765063659586e-22 -1.41284956673344e-41)
(-0.0504020613295139 -0.0004688676597649 7.57026302327411e-20 -10.5347426760772 0.0456000950945531 -6.30211164991785e-19 7.88046204534943e-20 -2.00765063659591e-22 1.41284956673347e-41)
(-0.0446471492773948 -0.000421539245729891 -7.53996593813404e-20 -10.7662150545253 0.0402633022134446 -3.3395558487795e-19 -7.99685832878281e-31 1.52628926219864e-33 -1.80297724238331e-61)
(-0.0394761239575873 -0.000381613858648136 1.12272403492378e-30 -10.9682484285104 0.0355462721775828 4.86648705823103e-20 0 0 0)
(-0.0348045271249154 -0.000346837656218666 5.86608488464092e-31 -11.1439329123621 0.0313666513752502 2.85385128469719e-19 0 0 0)
(-0.0305797534466651 -0.000315669330775078 1.28313282374623e-45 -11.2960238612835 0.0276633225301226 -3.49635940221277e-19 4.26172521731206e-31 -5.31494707216949e-34 -4.62625837076985e-62)
(-0.0267661679052256 -0.000286537161522103 -5.86608488464038e-31 -11.4270157666983 0.0243975904040026 3.48224116091421e-19 0 0 0)
(-0.0233477078997096 -0.000258176140934404 0 -11.5392680763925 0.0215476085456675 -1.80158473415059e-19 0 0 0)
(-0.0203221323874706 -0.00022946034098759 0 -11.6350718306691 0.0191067725182031 1.79575101164287e-19 0 0 0)
(-0.0176991474544628 -0.00019954407696751 1.05022915893074e-14 -11.7167152778855 0.017079917081837 0 0 0 0)
(-0.015496329537035 -0.000167797824850792 1.07009932080884e-14 -11.7865198662143 0.0154803124670715 8.05844586841736e-14 7.42934698660592e-15 -3.78110594263644e-18 -1.32567186094522e-29)
(-0.0137369223184755 -0.000133757872138411 -1.05023145899867e-14 -11.8468648571368 0.0143271545285709 8.19828025320351e-14 7.49474895534723e-15 -3.02867995508658e-18 -1.36245373664856e-29)