/*--------------------------------*- C++ -*----------------------------------*\
  =========                 |
  \\      /  F ield         | OpenFOAM: The Open Source CFD Toolbox
   \\    /   O peration     | Website:  https://openfoam.org
    \\  /    A nd           | Version:  7
     \\/     M anipulation  |
\*---------------------------------------------------------------------------*/
FoamFile
{
    version     2.0;
    format      ascii;
    class       volScalarField;
    location    "20000";
    object      nut;
}
// * * * * * * * * * * * * * * * * * * * * * * * * * * * * * * * * * * * * * //

dimensions      [0 2 -1 0 0 0 0];

internalField   nonuniform List<scalar> 
15600
(
4.56105898678813e-11
4.70541409837159e-11
3.78163616900711e-11
2.53719009173705e-11
1.33785296584783e-11
5.53139596841888e-12
1.98915007662723e-12
1.35285906893725e-12
1.12740308514588e-12
7.26365166570093e-13
4.52005425216396e-13
3.41493321602018e-13
3.0776067732049e-13
3.13745837072171e-13
3.48641149319512e-13
4.16658036528224e-13
5.24891608217856e-13
6.83996731718306e-13
9.1572176987763e-13
1.2542933954497e-12
1.74952371503706e-12
2.47306942697737e-12
3.51975947115234e-12
5.00482893657538e-12
7.08226383829584e-12
9.96376590601208e-12
1.39039119781742e-11
1.91870231492358e-11
2.61072406515873e-11
3.49319421388596e-11
4.5871814556667e-11
5.91015805817385e-11
7.463598453702e-11
9.18925920726253e-11
1.09967622248525e-10
1.27536765827382e-10
1.42564556848801e-10
1.53638314479393e-10
1.62459534260933e-10
1.73279311798171e-10
1.9687610076923e-10
2.54483995254163e-10
3.20661775599669e-10
3.89200614366934e-10
4.58503625124798e-10
5.28080072835808e-10
5.96967097535491e-10
6.64961943797508e-10
7.31650262114343e-10
7.96898602901567e-10
8.60478784331085e-10
9.22252630964525e-10
9.82042680200974e-10
1.03970021875051e-09
1.09506751493625e-09
1.14800675906237e-09
1.1983964777535e-09
1.24615055548785e-09
1.2912285222715e-09
1.33365353114437e-09
1.37352764152034e-09
1.41104846175061e-09
1.446524387994e-09
1.4803888864015e-09
1.51321223955554e-09
1.54571145475105e-09
1.57875725523003e-09
1.61338552487669e-09
1.65081446348551e-09
1.69247348483484e-09
1.74004754043971e-09
1.79553975858032e-09
1.86137069757725e-09
1.94048447659029e-09
2.03651849037969e-09
2.1541642928335e-09
2.29975057936276e-09
2.48491465160742e-09
2.72614939395285e-09
2.90852981494036e-09
2.52962929283964e-09
2.30368499644761e-09
2.20141302115631e-09
2.14221284112817e-09
2.09617680852009e-09
2.04870294539496e-09
1.99167155970541e-09
1.92137026696415e-09
1.83603761626086e-09
1.7437238050473e-09
1.66798242669745e-09
1.60240191769812e-09
1.53748031268098e-09
1.46866150153748e-09
1.3945679449967e-09
1.31430940511456e-09
1.22783161704048e-09
1.12862941238323e-09
1.01132351197853e-09
8.85198751092738e-10
7.58513921129079e-10
6.39526349362846e-10
5.33042422811322e-10
4.4054598321278e-10
3.61408880840775e-10
2.98693591534496e-10
2.50544982595056e-10
2.1376593970399e-10
1.86098178475426e-10
1.66653250896541e-10
1.54511797286411e-10
1.49775104071155e-10
1.49340010401145e-10
1.4770185941645e-10
1.27826847040956e-10
1.03507020606522e-10
7.8471035170919e-11
5.89059731112414e-11
4.6711296410778e-11
4.48807345787809e-11
8.73852199985521e-09
9.01073752860741e-09
7.24362728338052e-09
4.86437704381928e-09
2.57492554008091e-09
1.0727377966463e-09
3.88050942538135e-10
2.61921842792842e-10
2.18608757080182e-10
1.4179475031233e-10
8.83714518359352e-11
6.64639967217051e-11
5.96402330956365e-11
6.06020710223686e-11
6.7156305463076e-11
8.00520829813295e-11
1.00638170269344e-10
1.30925578709318e-10
1.75019824526867e-10
2.39408104699852e-10
3.33536409673626e-10
4.71014008620592e-10
6.69913383345948e-10
9.52278497749471e-10
1.34739479131767e-09
1.89561786957952e-09
2.64574009738614e-09
3.65252098052112e-09
4.97296323213617e-09
6.65936127082068e-09
8.75286898513001e-09
1.12866583353093e-08
1.42667760982777e-08
1.75829032947495e-08
2.10542025974082e-08
2.44322504900621e-08
2.73258594294323e-08
2.94616897062866e-08
3.1162597854864e-08
3.32192913000786e-08
3.7617495741037e-08
4.85912754105566e-08
6.12039161741136e-08
7.42690901357734e-08
8.747644154428e-08
1.00737081437877e-07
1.13863392310985e-07
1.26818624321396e-07
1.39522738325893e-07
1.51951369915391e-07
1.64061134250089e-07
1.75826456133663e-07
1.87213918339042e-07
1.98195713377477e-07
2.08742118942902e-07
2.18827139469749e-07
2.2842770794246e-07
2.37527332588762e-07
2.46118014239436e-07
2.54203680440593e-07
2.61803099642557e-07
2.68953066758984e-07
2.75711316344323e-07
2.82159256080492e-07
2.88404217649659e-07
2.94581359567192e-07
3.00855009212585e-07
3.07420855873623e-07
3.14509243630165e-07
3.22390734887248e-07
3.31384697457294e-07
3.41871532828152e-07
3.54312700996932e-07
3.69272088147693e-07
3.87452304412467e-07
4.09779739552417e-07
4.37524255111882e-07
4.72998548801339e-07
5.18294995041942e-07
5.4953247402324e-07
4.80184194188507e-07
4.38549767330441e-07
4.19715592595029e-07
4.08800471951453e-07
4.00267158294203e-07
3.91371657468977e-07
3.8060247458747e-07
3.67264314994576e-07
3.51097666054485e-07
3.33753961118006e-07
3.19533983986552e-07
3.07129600181677e-07
2.94766296640425e-07
2.8161607176321e-07
2.67429316303709e-07
2.52042515634381e-07
2.35415520995741e-07
2.16307705412035e-07
1.93764480717553e-07
1.69581470563392e-07
1.45325590992778e-07
1.2256270223962e-07
1.02199932065661e-07
8.45049516203757e-08
6.93744285235203e-08
5.73837991204246e-08
4.81665096264292e-08
4.11155263525515e-08
3.58063089750939e-08
3.20686435760281e-08
2.97266319068303e-08
2.87871028923946e-08
2.86494436290414e-08
2.82532681783504e-08
2.43903891234394e-08
1.97227667837955e-08
1.49614840251991e-08
1.12503087424054e-08
8.93711789942379e-09
8.59910035998591e-09
1.93114131473628e-07
1.9884575229369e-07
1.59787707007694e-07
1.0724733519247e-07
5.70444471912301e-08
2.40317990947876e-08
8.75906399231506e-09
5.87036703205578e-09
4.90882068991812e-09
3.20667576925824e-09
2.00263811217426e-09
1.50012589088116e-09
1.34074558692449e-09
1.35831880285765e-09
1.50146837081601e-09
1.78541544936578e-09
2.23947527359221e-09
2.90797111933785e-09
3.88057464411985e-09
5.2994700600798e-09
7.37160600456508e-09
1.03953906887603e-08
1.47686173616189e-08
2.09802756402902e-08
2.96756875072256e-08
4.17434787384272e-08
5.82657747809033e-08
8.04658839053503e-08
1.09628845487142e-07
1.4694694836832e-07
1.93344728991018e-07
2.49510421381948e-07
3.15662220195692e-07
3.89459530158049e-07
4.66358292459083e-07
5.40950478331436e-07
6.04866194271598e-07
6.52184422698868e-07
6.8969446306791e-07
7.30497328677995e-07
8.1762768553324e-07
1.05178356364362e-06
1.32258080254388e-06
1.60278699264213e-06
1.8856823516418e-06
2.16945000174149e-06
2.44997527272807e-06
2.7265870212369e-06
2.99757851945429e-06
3.26252666092696e-06
3.52055019749879e-06
3.7711778337204e-06
4.01374457874888e-06
4.24770765606145e-06
4.47246542630698e-06
4.68748636504632e-06
4.89228436760654e-06
5.08649863666051e-06
5.26993209420123e-06
5.44262597119724e-06
5.60492251001981e-06
5.75753454738594e-06
5.9016093084313e-06
6.03878913949055e-06
6.17126224766655e-06
6.30180686360619e-06
6.43382259792037e-06
6.57138097782498e-06
6.71930045799608e-06
6.8832733769826e-06
7.07006621229283e-06
7.28780957743816e-06
7.54649475293887e-06
7.85857017905085e-06
8.23998578710524e-06
8.71238019612791e-06
9.30685733524367e-06
1.00736633285336e-05
1.09541634522613e-05
1.14518579117102e-05
1.01047272601222e-05
9.32116610474506e-06
8.96286015049534e-06
8.7534243896207e-06
8.58681451604824e-06
8.4088041503134e-06
8.18948488053647e-06
7.91494733137018e-06
7.58216359194666e-06
7.22825096666413e-06
6.93715499807816e-06
6.67985047122647e-06
6.42057794337926e-06
6.14286401357361e-06
5.84146954515626e-06
5.51282243362636e-06
5.15510358459519e-06
4.74184187718604e-06
4.25360790139704e-06
3.72885887149889e-06
3.20109656046767e-06
2.70449619178495e-06
2.25892715278265e-06
1.87035696657718e-06
1.5375220768419e-06
1.27280436047803e-06
1.06861840806976e-06
9.11988887879985e-07
7.93738321773234e-07
7.09998896081853e-07
6.56821569755058e-07
6.33875782526526e-07
6.27981855600612e-07
6.1624286435933e-07
5.30264175312582e-07
4.27264758171368e-07
3.24801449048483e-07
2.45598507795616e-07
1.96401982391511e-07
1.90100318875684e-07
1.5495366750576e-06
1.59327750282212e-06
1.27999273484172e-06
8.58858449072063e-07
4.61323637917292e-07
1.98422606062536e-07
7.3200572762449e-08
4.87527723529436e-08
4.0871840275424e-08
2.69080432609447e-08
1.68467621898333e-08
1.25707705957754e-08
1.11897047946817e-08
1.13012438800318e-08
1.24590608929467e-08
1.47752169951339e-08
1.84832114097786e-08
2.39446905665301e-08
3.18815787506238e-08
4.34413693701844e-08
6.02906101756196e-08
8.48307757293793e-08
1.20273503281474e-07
1.70597650200022e-07
2.40998307017244e-07
3.38608609648158e-07
4.72172387890686e-07
6.51628478693786e-07
8.8747432169913e-07
1.1894365173155e-06
1.56463554297356e-06
2.0175917361035e-06
2.55040878311517e-06
3.14450070782645e-06
3.7610947202512e-06
4.34776886748213e-06
4.84577496645884e-06
5.2095115181478e-06
5.46903545388293e-06
5.70539483930453e-06
6.26883857833498e-06
7.99559703763161e-06
9.99584048707359e-06
1.20548516362439e-05
1.41221698754435e-05
1.61864582062058e-05
1.82164834703582e-05
2.02100661616844e-05
2.21550130013449e-05
2.40503056188129e-05
2.58903820837334e-05
2.76733191135269e-05
2.93952328226638e-05
3.10532761010982e-05
3.26438756844156e-05
3.41638968562233e-05
3.561029795854e-05
3.69807674161158e-05
3.82739359612504e-05
3.94899243822131e-05
4.06307687846496e-05
4.17009183929277e-05
4.2707691201472e-05
4.36617277108265e-05
4.45773798271399e-05
4.54730752595888e-05
4.63715684790903e-05
4.73003385749061e-05
4.82921471708882e-05
4.93859719303404e-05
5.06284973357725e-05
5.20762390694031e-05
5.37993013608463e-05
5.5886181532256e-05
5.84513803164859e-05
6.16487903554878e-05
6.5690208490139e-05
7.06420615633498e-05
7.57906564360579e-05
7.78287726198905e-05
6.94659777761467e-05
6.51812524658837e-05
6.31786677212808e-05
6.20380119893488e-05
6.11317988259528e-05
6.0136013148638e-05
5.88620472752254e-05
5.72178731075602e-05
5.5191510942058e-05
5.30365068388283e-05
5.12648081533534e-05
4.96655711251384e-05
4.80120751467419e-05
4.61981641451441e-05
4.41852546522061e-05
4.19439817300628e-05
3.94507597222192e-05
3.65115354252725e-05
3.29849254279969e-05
2.91371444972579e-05
2.52060395341115e-05
2.14557014320841e-05
1.80368033626269e-05
1.50142543360244e-05
1.23979014127874e-05
1.02925899223909e-05
8.65283921958002e-06
7.3846661780443e-06
6.41933696465045e-06
5.7263457400855e-06
5.27352382120641e-06
5.05355433043698e-06
4.96122828759896e-06
4.82319038849705e-06
4.12069382177372e-06
3.28860901210981e-06
2.50339582149616e-06
1.91322549402365e-06
1.5528650801052e-06
1.52250273841925e-06
7.03948182946894e-06
7.24721309762589e-06
5.8421978905342e-06
3.92770963616535e-06
2.14850907577617e-06
9.59184774524818e-07
3.61756886187961e-07
2.39621883006596e-07
2.01468466233502e-07
1.33727170814838e-07
8.39477485052769e-08
6.23947943675938e-08
5.53022599488579e-08
5.56674691061277e-08
6.11934305926036e-08
7.23501640693414e-08
9.02226917382003e-08
1.16544998519824e-07
1.54721318756386e-07
2.10166358671987e-07
2.90703123323621e-07
4.0756868474354e-07
5.75810314449653e-07
8.14165661245972e-07
1.14668125177261e-06
1.60616352474461e-06
2.23290115600258e-06
3.07249672524726e-06
4.17248707727244e-06
5.57491103419622e-06
7.30513560360707e-06
9.37198792922753e-06
1.17791048207735e-05
1.44318548121878e-05
1.71416050298522e-05
1.96423262692234e-05
2.1663048053488e-05
2.30264369136932e-05
2.3754697414229e-05
2.42728488189236e-05
2.62266782350682e-05
3.31098680968756e-05
4.09313746867859e-05
4.89139713985269e-05
5.68176217984068e-05
6.46292719576694e-05
7.22160935265662e-05
7.95959784528655e-05
8.6722514194467e-05
9.36089028501947e-05
0.000100239300253172
0.000106617839096061
0.000112736431419163
0.000118592699536498
0.000124179481826049
0.000129491389817377
0.000134522191141212
0.000139267778633453
0.000143726438590479
0.000147900921916439
0.000151799713014119
0.000155438733731307
0.000158842855269559
0.000162047526135747
0.000165100170447148
0.000168061652225096
0.00017100715096189
0.000174027577138577
0.000177231339543797
0.000180747241189078
0.000184729116826938
0.000189361928995983
0.000194872703222444
0.000201543360295989
0.000209726301385496
0.000219861294597969
0.000232476420889954
0.000246786929995214
0.000260343327742132
0.000262565030132227
0.000237378862315073
0.000226474729072543
0.000221143933813492
0.000218392097773579
0.000216310078825405
0.000213995454821845
0.000210863329420979
0.000206617540260735
0.00020122737469719
0.000195479467871489
0.000190815712396218
0.000186500674042736
0.000181862563704213
0.00017657478788982
0.000170496925777444
0.00016350635166092
0.000155473997499375
0.00014569408825364
0.000133629593436288
0.000120090139775907
0.000105832534267213
9.18082553908547e-05
7.85570969422685e-05
6.64542420578632e-05
5.56620310436459e-05
4.67200807045344e-05
3.95777246547552e-05
3.39322134469609e-05
2.95467225071195e-05
2.63207895296967e-05
2.41259124840482e-05
2.29261234230268e-05
2.22505181010556e-05
2.13952218204262e-05
1.81154669258565e-05
1.42076227072751e-05
1.07525142296642e-05
8.30085556241048e-06
6.87195790260712e-06
6.86858912567722e-06
2.17361283032333e-05
2.25253503955392e-05
1.83876188977424e-05
1.2440487467098e-05
6.98402602479086e-06
3.30687795267731e-06
1.30181123628941e-06
8.59552804462447e-07
7.24983112658698e-07
4.85357169254499e-07
3.05521780987008e-07
2.26156425457351e-07
1.99523426239944e-07
2.00103067589976e-07
2.19250648104176e-07
2.58305370575581e-07
3.20877513429264e-07
4.12943525851193e-07
5.46015117257585e-07
7.38368971772268e-07
1.01615530881549e-06
1.41669556957512e-06
1.98987610659116e-06
2.79777578352887e-06
3.91780646025538e-06
5.4542313975643e-06
7.53374255724743e-06
1.02955848986076e-05
1.38761943145049e-05
1.83774121925184e-05
2.38231887788543e-05
3.01707239674834e-05
3.73767938155105e-05
4.50750407653366e-05
5.26339827123613e-05
5.92525989348162e-05
6.41436182724989e-05
6.6854508752727e-05
6.76774442617918e-05
6.82051288375332e-05
7.33953623554086e-05
9.19955043665683e-05
0.00011212611340841
0.000132531596377041
0.000152269738520388
0.000171524263603707
0.000189890465779286
0.000207536989637005
0.00022434144150468
0.000240403403815413
0.000255697760378704
0.000270273238739649
0.000284128769868811
0.000297284054151196
0.000309739592890255
0.000321501080443348
0.000332568613752725
0.000342946210948166
0.00035264091782654
0.000361668102153052
0.00037005367912609
0.000377837898150527
0.000385078491976527
0.000391854415012457
0.000398268899928594
0.000404453176986354
0.000410568185161623
0.000416807596879541
0.00042340100903787
0.000430619072725186
0.000438781979245109
0.000448268986588198
0.000459535371429259
0.000473127222541659
0.000489684085214587
0.000509892496999124
0.000534069300040889
0.000560186668916613
0.000581770563637216
0.000578582916978387
0.000530095985804313
0.00051162373085159
0.000501949198084891
0.000497562981019644
0.000494476515319908
0.000491086348493715
0.000486215795505778
0.000479284703645011
0.000470276284902196
0.000460740023227517
0.000453194024233345
0.000446045651004131
0.000438040829271667
0.000428546369317038
0.000417252332678608
0.000403862643030456
0.000388012005205937
0.000368139124314665
0.000343046872730423
0.000314208864125523
0.000283050762223254
0.000251455861958448
0.000220496551137756
0.0001911523181453
0.000163972966651107
0.000140555112479226
0.000121139144802054
0.000105244754764547
9.24799438353074e-05
8.27637340136268e-05
7.58451800837582e-05
7.17188830385456e-05
6.89958967831823e-05
6.58824704810991e-05
5.55576888399785e-05
4.27256770710835e-05
3.18110805915884e-05
2.45555187274553e-05
2.06025359400677e-05
2.09659783717585e-05
5.0326424490879e-05
5.27369428945717e-05
4.40848272331158e-05
3.0193727560171e-05
1.74140846467925e-05
8.89767691191514e-06
3.7822777981085e-06
2.50459510045754e-06
2.12023469256243e-06
1.43231305004825e-06
9.04161118910739e-07
6.66414235493054e-07
5.8495084035044e-07
5.84204936201271e-07
6.37657424510333e-07
7.47959355035471e-07
9.24613867086318e-07
1.18392086328736e-06
1.55665203669755e-06
2.09143764314243e-06
2.85680816354641e-06
3.94965254126108e-06
5.49878206530282e-06
7.66286915264995e-06
1.06307160906477e-05
1.46509394908656e-05
2.001578694581e-05
2.7022715151871e-05
3.59192057155097e-05
4.68066826319013e-05
5.9543649049798e-05
7.38368188986732e-05
8.94429620996745e-05
0.000105360729002761
0.000120146982704666
0.000132195387237543
0.000140161317325409
0.00014362007417311
0.000143885276219403
0.000145164897077648
0.000157672323965128
0.000196750365497052
0.000236090013363086
0.000275844978010121
0.000313095899765056
0.000348990704719275
0.000382542101691971
0.000414411077372353
0.000444338687788824
0.000472663084571384
0.000499358028521338
0.000524587912586443
0.0005483799905957
0.000570812955678261
0.000591914413976938
0.000611722979269004
0.000630260435347784
0.000647553872451159
0.000663631647438277
0.000678533913749565
0.000692315617302391
0.000705053171066015
0.000716849622460055
0.000727841431955324
0.000738203453247918
0.000748156323068162
0.000757968812180317
0.000767962817933496
0.000778517544980095
0.000790075901090826
0.000803156141866555
0.000818361130957392
0.000836393798140683
0.000858057580861924
0.000884208592562948
0.000915561779926979
0.000951481820695506
0.000988240341786749
0.00101380961317983
0.000999439709171371
0.000926977870760315
0.00090124125421361
0.000886879995327415
0.000881106441367719
0.000877352654981091
0.0008733585336402
0.000867267541919474
0.000858218738702024
0.000846285613139443
0.000833851416871507
0.00082430702608744
0.000815049924699586
0.00080424017508686
0.00079091183491903
0.000774542985312144
0.000754609108987546
0.000730391306003587
0.000699304729195641
0.000659444699591726
0.000612944620752423
0.000561934577137694
0.000509151339095362
0.000456173438233706
0.000404622433640045
0.000355481724068109
0.000311810244430593
0.0002744153759529
0.000242768377442226
0.000216484983444108
0.000195803066730356
0.000180466389870478
0.000170828286058932
0.000163865667673454
0.000156460212811346
0.000132728284759765
0.00010100346292953
7.3674668052229e-05
5.61016895415995e-05
4.69137052671197e-05
4.80402386306092e-05
9.45693742645071e-05
0.000100216676173287
8.63982011882805e-05
6.02686817480905e-05
3.5424657175377e-05
1.95507570235537e-05
9.35351411995799e-06
6.2827801130404e-06
5.3542233204882e-06
3.65292316488799e-06
2.31301796734579e-06
1.69709452408145e-06
1.48118959329317e-06
1.47210573372946e-06
1.59928868378848e-06
1.86543641112054e-06
2.29134298621504e-06
2.91381795668231e-06
3.80111103486094e-06
5.06042645831423e-06
6.83983381170071e-06
9.34659609402481e-06
1.28539738338201e-05
1.76908686889849e-05
2.42213969161757e-05
3.29096899188572e-05
4.42672286291025e-05
5.87404209659599e-05
7.65736997994252e-05
9.7622068932957e-05
0.000121253337772218
0.000146672734456612
0.000173282276895126
0.000199130260638894
0.000221848434801628
0.000239144296390869
0.000249549529600106
0.000253395570855662
0.000253991770274312
0.000259300057308083
0.000285577451877064
0.000353786258972169
0.000417297976658664
0.000481577118566622
0.000539793387036235
0.000595478493148109
0.000646609361437924
0.000694815360338602
0.000739606676917669
0.000781724446305132
0.00082113495363059
0.000858179782960331
0.000892925405770602
0.000925536095121601
0.000956077757762056
0.000984635788440198
0.00101126258006128
0.00103601724118999
0.00105895678452957
0.00108015335108346
0.00109969781870983
0.0011177098613109
0.00113434530510948
0.00114980682600366
0.00116435048620141
0.00117829844162164
0.00119204121354173
0.00120604475762752
0.00122085459883942
0.00123710110466021
0.00125551226913297
0.00127691600401663
0.00130224164276643
0.00133248415006326
0.00136856406000362
0.00141070186100303
0.00145729551067781
0.00150186874612514
0.00152689130980605
0.00149791816308633
0.00140380167752164
0.00137112764932999
0.00135220598696354
0.00134533388641814
0.00134127956430264
0.00133717481886246
0.00133047060246703
0.00132006179497147
0.00130618184592614
0.00129200427092376
0.00128148786157252
0.00127101799349351
0.00125820487468098
0.00124174297159173
0.00122086741061649
0.00119478505845897
0.00116232847052128
0.00111984704526761
0.00106481887796783
0.00100002628827315
0.000928332147688392
0.000853237492917998
0.000776802417835172
0.000701228874287583
0.000627898667001523
0.000561455956812315
0.00050334824589867
0.00045300688208805
0.00041013982229917
0.00037558147897506
0.000349176405224398
0.000332148527891063
0.00031909464482694
0.00030605766505034
0.000263028811340917
0.000201448489434972
0.000145077709733945
0.000108290427482168
8.87213019181951e-05
8.99773226158043e-05
0.000154430745479901
0.000164779240889217
0.000146573091142976
0.000104767454021683
6.19548741850917e-05
3.63369551481547e-05
2.00261893202708e-05
1.39964776569959e-05
1.20997419022836e-05
8.35387149723869e-06
5.30990164397611e-06
3.87788023152777e-06
3.36289809539586e-06
3.32286223968592e-06
3.58877050949187e-06
4.155414391105e-06
5.06144818852082e-06
6.37678363711097e-06
8.22999195836348e-06
1.08224593433944e-05
1.44265389784768e-05
1.94215550768019e-05
2.63028281333504e-05
3.56437910542796e-05
4.80166076724902e-05
6.41231251870953e-05
8.46579161386511e-05
0.000110065913314542
0.000140310811300098
0.000174644718944822
0.000211656480104029
0.000249955438602646
0.000288557399690685
0.000324492353344879
0.000354711001442761
0.000376681104695337
0.000389460535500173
0.000394850575155879
0.000398782225704613
0.000413304656899787
0.000460271970540051
0.000563274730460499
0.000653137789495522
0.000744590615992602
0.000825047653666129
0.000901867070553443
0.000971492633945574
0.00103690767255145
0.00109727870171798
0.00115384849421629
0.00120655488304408
0.00125594303436655
0.00130211726481512
0.00134533586388791
0.00138570520992644
0.00142336155353313
0.00145839072005908
0.0014908871599819
0.00152093983952973
0.00154865654966945
0.00157416818694288
0.00159764226369216
0.0016192923699723
0.00163939371632814
0.00165828998424996
0.00167641333164169
0.00169428515774105
0.00171252514106015
0.00173185376029467
0.0017530925446086
0.00177717511121663
0.00180513376389466
0.00183807256164854
0.00187707443037795
0.00192290897305356
0.00197495934420976
0.00203042945293044
0.00207969257032341
0.002100576796673
0.002055804878382
0.00194319879482237
0.00190371298342852
0.00188065997676201
0.00187298231681645
0.00186903431834264
0.00186532953981008
0.00185865749769593
0.0018477047892957
0.00183290395373466
0.00181811131924555
0.00180756976338437
0.00179673012817565
0.00178268567303999
0.00176378661842692
0.00173899780823417
0.0017072218686748
0.00166676681085949
0.00161293684589455
0.00154272189184744
0.00145953610426402
0.00136698731416795
0.00126934399409714
0.0011691245449177
0.00106906536872514
0.000970947064246772
0.000881018803459998
0.000801372551526394
0.000731343337754158
0.000670720789293026
0.000621088868346893
0.000582377337940286
0.000557151748426154
0.000536914218330581
0.000517867607046037
0.000452126579344881
0.000352875700276703
0.000254578101580757
0.000187256851510201
0.000149010073195318
0.000147805813477629
0.000230408245060395
0.000245981710900703
0.000224730460850018
0.00016562406448051
9.74906002379654e-05
5.91357634901239e-05
3.74098406893614e-05
2.80831251300701e-05
2.49615611897107e-05
1.75198696735753e-05
1.12004891103623e-05
8.14455549180688e-06
7.01245257339849e-06
6.88036394170741e-06
7.37571929240504e-06
8.45891639551102e-06
1.01913583727414e-05
1.26839050909163e-05
1.61447897072512e-05
2.09038385658534e-05
2.74010189968228e-05
3.62530506232459e-05
4.82558765643752e-05
6.42780311860224e-05
8.5067551546917e-05
0.000111504691529324
0.000144312257988649
0.000183658742839185
0.000228890436149299
0.000278380582853971
0.000329865696886365
0.000381468843414815
0.000431903465655544
0.000477359302711782
0.000514543251870965
0.000541203741088665
0.000557476684314915
0.00056704395968337
0.000578579976478841
0.000607864813031397
0.000681020545389919
0.000820665869223422
0.000937299052043794
0.00105668738422623
0.00115956761995762
0.0012579185900595
0.00134632675331529
0.0014292942728065
0.00150557537744775
0.00157693246981717
0.00164326228727375
0.00170531019050152
0.00176321579751837
0.00181732837287268
0.0018677944942627
0.00191480061826664
0.00195846702992762
0.00199892476180706
0.00203629692695424
0.00207072954698169
0.00210239685737783
0.00213151799553076
0.00215836816282975
0.00218330028202736
0.00220674975034008
0.00222926438318112
0.00225150131388776
0.00227423788710708
0.0022983707545278
0.00232490584242822
0.00235496487076399
0.0023897469390233
0.00243045939848081
0.00247815739046967
0.00253311695445732
0.00259400009049615
0.0026563058090607
0.00270743826154863
0.00272178421557379
0.00266150477767538
0.00253357320538013
0.00248734213745494
0.00246075976265173
0.00245257825063119
0.00244917888408413
0.00244640022569355
0.00244042486961314
0.00242975527659868
0.0024150303288127
0.0024006514819626
0.00239091401222181
0.00238044571177574
0.00236584614954455
0.00234511653430514
0.00231692680605142
0.00227984250256376
0.00223158991646253
0.00216648398828917
0.00208115499029601
0.00197960179605484
0.00186621498370689
0.00174604482433599
0.00162204673122385
0.00149745972038479
0.00137449663329004
0.00126099412655044
0.00115969658810575
0.00106979629330379
0.000991127845198883
0.000926093975109008
0.00087461607580012
0.000840946010586882
0.000812880831999672
0.000787843778916492
0.000698093307217011
0.000557836054098547
0.000408104150705816
0.00029944930700852
0.000231835042020376
0.000223571401674507
0.000324128212580235
0.000344232397389085
0.000320792694517831
0.000245004314339903
0.000143043107162538
8.71843568286683e-05
6.16504062317701e-05
5.08949420722303e-05
4.74015720047513e-05
3.41179708794654e-05
2.20274279716215e-05
1.59688223470551e-05
1.36427467677564e-05
1.32730039735703e-05
1.40958499130025e-05
1.59693200705e-05
1.89771331215087e-05
2.32608258605979e-05
2.9114165904285e-05
3.70224753160653e-05
4.76347218670908e-05
6.18759456885864e-05
8.09133705158015e-05
0.000105911901030206
0.000137676282748124
0.000177115444237811
0.000224730383299055
0.000280109921707693
0.000341738573027586
0.000407040596635743
0.000473042727223954
0.000537597101615377
0.00059925256803191
0.00065367446109339
0.000697767318839899
0.000729980716309396
0.000751849759599308
0.00076901876916359
0.000792647188470149
0.000841483901086783
0.000944213703502337
0.00111964155501804
0.00126291015570772
0.0014099327723019
0.00153511562788668
0.00165499207565747
0.00176229040072253
0.00186296438618128
0.00195537024366554
0.00204174260240949
0.00212194506922133
0.00219690096319409
0.00226678722703139
0.00233203559475199
0.00239283345066911
0.00244941530329219
0.0025019371314164
0.00255056744909682
0.0025954657708121
0.00263681873932234
0.00267484704382821
0.00270982482205887
0.00274209161688755
0.00277208222304676
0.00280032528870039
0.00282748707621303
0.00285436083588749
0.00288187975049071
0.00291111095780954
0.00294322870668603
0.00297951481799726
0.00302128645230425
0.0030697729694492
0.00312581853243199
0.00318914521364893
0.00325755372936382
0.0033246832414912
0.00337539007909203
0.00338184732552952
0.00330722871758436
0.00316688358745873
0.00311405814326661
0.00308462723508917
0.00307626007972544
0.00307386941133305
0.00307254646863006
0.00306793063049444
0.00305835161706583
0.00304463592874278
0.00303158264135128
0.00302336037090824
0.00301389424646117
0.00299930693646961
0.00297724659511763
0.00294606699257457
0.00290396754654853
0.00284805519988922
0.00277173522563434
0.00267139396641669
0.00255152890689649
0.00241740924420112
0.00227483314910438
0.0021271749970294
0.0019781476550107
0.00183044193976712
0.00169343625786711
0.00157054395316958
0.0014607965066504
0.00136404352537996
0.00128353097014129
0.00121906247686746
0.0011768018371675
0.00114040118328077
0.00110934563873031
0.000995336500948076
0.000813855412679037
0.000607448881426594
0.000449866193453674
0.00034176553853484
0.000320437653618338
0.000438075512929616
0.000460709520607989
0.000434943027435048
0.000344810217432132
0.000200749230471761
0.000119919862097734
9.13096994861415e-05
8.3351522158257e-05
8.28827885537055e-05
6.20047928583141e-05
4.07091591312291e-05
2.95075892589939e-05
2.50130991629659e-05
2.40954272101219e-05
2.52983316311825e-05
2.82329131392678e-05
3.30011232840301e-05
3.9732510461937e-05
4.8797651579031e-05
6.08645034862721e-05
7.68413114117791e-05
9.80385122265096e-05
0.000126034430022655
0.000162209503143961
0.000207215406858316
0.00026177870843108
0.000325913390527399
0.000398415163599926
0.000476837711750979
0.00055777511030639
0.000637791427179412
0.000714685335634923
0.000786989949813685
0.000850194424548148
0.000901745120782842
0.000941056423625547
0.000971157363995315
0.000999498154040274
0.00103925774414841
0.00111123866871637
0.00124505175272332
0.00145414649092134
0.00162391824503338
0.00179775393896408
0.00194512957601949
0.00208635443594549
0.00221261832533169
0.00233107707239512
0.00243978252959146
0.00254135055123811
0.00263563863856391
0.00272371581254046
0.00280580308096261
0.00288240415705395
0.00295374925645926
0.00302011866963805
0.00308170590639684
0.0031387180470732
0.00319135349048498
0.0032398417948984
0.0032844529295834
0.0033255189143573
0.00336343570848754
0.00339869877208324
0.0034319897001776
0.00346409007161206
0.00349592050467982
0.00352853933083265
0.00356314931242789
0.00360109569980431
0.00364378527919938
0.00369259917753429
0.00374868516528339
0.00381252269577898
0.00388335960509755
0.00395790226871361
0.00402802608333572
0.00407658390868388
0.00407462482781669
0.0039873093729727
0.00383717335240806
0.0037780678162767
0.00374648698540091
0.00373827260396955
0.00373734953247614
0.00373800057862772
0.00373538510847454
0.00372766108447915
0.0037158049005483
0.00370486793108639
0.00369875822066408
0.00369081446480708
0.00367669694780279
0.00365369839785027
0.00361983919915148
0.00357292887112928
0.0035094370434294
0.00342195584152262