/*--------------------------------*- C++ -*----------------------------------*\
  =========                 |
  \\      /  F ield         | OpenFOAM: The Open Source CFD Toolbox
   \\    /   O peration     | Website:  https://openfoam.org
    \\  /    A nd           | Version:  7
     \\/     M anipulation  |
\*---------------------------------------------------------------------------*/
FoamFile
{
    version     2.0;
    format      ascii;
    class       volScalarField;
    location    "20000";
    object      omega;
}
// * * * * * * * * * * * * * * * * * * * * * * * * * * * * * * * * * * * * * //

dimensions      [0 0 -1 0 0 0 0];

internalField   nonuniform List<scalar> 
15600
(
23353.8890583096
23353.8413354918
23322.0791782243
23250.9658203095
23266.6155755991
23531.076600287
23914.1934876187
23663.0832062232
22662.7004732558
21117.6475575908
19281.7680483717
17364.8305918204
15486.575380637
13715.8255165399
12086.9888343385
10653.6167110298
9469.92673239418
8489.29832566396
7667.73914426421
6972.5479727389
6378.97509449982
5868.00189350122
5424.8677087658
5034.11339415814
4670.00001014801
4326.33243427325
4003.51755349775
3701.55370486437
3420.22936463984
3159.37479050198
2919.01791091117
2701.48070616872
2513.46877687975
2353.95160539443
2220.50721077138
2111.40089679727
2025.48228444498
1962.10328719726
1921.04541448616
1902.4675808319
1904.75724474398
1906.43992313848
1906.43992313832
1906.43992313844
1906.43992313852
1906.4399231386
1906.43992313841
1906.43992313856
1906.43992313852
1906.43992313852
1906.43992313864
1906.4399231386
1906.43992313871
1906.4399231386
1906.43992313856
1906.4399231386
1906.43992313848
1906.43992313868
1906.4399231386
1906.43992313849
1906.43992313848
1906.4399231386
1906.43992313867
1906.43992313848
1906.43992313844
1906.43992313852
1906.43992313853
1906.43992313844
1906.43992313852
1906.43992313856
1906.43992313868
1906.43992313851
1906.43992313852
1906.43992313852
1906.43992313871
1906.43992313849
1906.43992313844
1906.43992313832
1906.43992313847
1904.75724474403
1902.46758083147
1921.04541448598
1962.10328719675
2025.48228444578
2111.40089679667
2220.50721077186
2353.95160539659
2513.46877687853
2701.48070616157
2919.01791090531
3159.37479049835
3420.22936464066
3701.55370486283
4003.51755349345
4326.33243427346
4670.00001014541
5034.11339416423
5424.86770876999
5868.00189349891
6378.97509450758
6972.54797274886
7667.73914427298
8489.29832563852
9469.92673238912
10653.6167110086
12086.9888343714
13715.8255165755
15486.5753807201
17364.8305917839
19281.7680483787
21117.6475576963
22662.7004733313
23663.0832061831
23914.1934876607
23531.0766003411
23266.6155755876
23250.9658202639
23322.0791782311
23353.8413354785
23353.8890583096
3943.10008655893
3941.83155586608
3939.99201769134
3929.5077834021
3930.47450406596
3970.18030388872
4031.19654715273
3988.40919074199
3821.1041634124
3562.09918169085
3253.77809136181
2931.38327587449
2615.24231321971
2316.99348726612
2042.43389442426
1800.44447608026
1600.33095120952
1434.53483861787
1295.65440198179
1178.15375356489
1077.84738797287
991.513037382888
916.657033504358
850.70701503987
789.333990855499
731.409624604824
676.974055270473
626.025176660432
578.527614927165
534.456446015802
493.82673412142
457.031289675716
425.169694015715
398.108183215566
375.459405731349
356.946394993089
342.397798906469
331.73811048458
324.929259592113
322.168826938335
323.469768363864
323.616379655632
323.552614583469
323.517456498994
323.496005822249
323.470982416542
323.455322170012
323.442827213767
323.435156136697
323.429457125714
323.425252434245
323.421197728141
323.416781617912
323.411449805895
323.405014803003
323.397414790207
323.388808472357
323.379503226486
323.369969095502
323.360800648071
323.352693945418
323.346418630106
323.342800409569
323.342702360181
323.347001855787
323.356559413759
323.372175068724
323.394525066338
323.424062628271
323.460864652421
323.504385532625
323.553065894671
323.603304823434
323.648660926603
323.676987098562
323.659390254494
323.547175269087
323.289005630568
322.456766560013
320.651241070246
321.368709180174
325.256566849777
332.550558553349
343.47545722715
358.131280378794
376.648099097287
399.234239749911
426.188806980512
457.943643749606
494.65044305551
535.046796274692
578.780101794088
625.889821198954
676.430273155296
730.450877908765
787.973136552375
848.958687904542
914.596170014849
989.276479371839
1075.52778797145
1175.82003313257
1293.3311781487
1432.25130831821
1598.05803119058
1798.17237894559
2040.02212410004
2314.49739106281
2612.77993403428
2929.13449701645
3251.88350225922
3560.89844249807
3820.94838033973
3990.28181013333
4035.74487761581
3978.83015104253
3938.67049747442
3936.2726534813
3945.91420503558
3948.59059732838
3943.73706553578
1302.96070459222
1301.8057333882
1306.05931500547
1305.57670246478
1304.51149180767
1312.56395768651
1328.43263136625
1312.59414554304
1257.68331446639
1172.95311270358
1071.92140125083
966.084889933995
862.186874767199
764.072821380083
673.694608121641
593.956927282549
527.9513837001
473.271662622351
427.491434626734
388.780601170721
355.757798875651
327.352926552656
302.730780361937
281.03284491568
260.846768804887
241.782687758908
223.841561232318
207.019734287593
191.306291205552
176.700581923465
163.231000694954
151.049856057492
140.480191031373
131.484827079393
123.955394732848
117.821887091679
113.05830387548
109.680303061706
107.71985084966
107.491385015382
109.102941263691
109.272098166963
109.213263014337
109.164689867976
109.117701719267
109.064031434586
109.017359671833
108.972382114285
108.931039795818
108.890493077688
108.850436472285
108.809620175443
108.767778340611
108.724611556486
108.680278598591
108.635094022493
108.589640977996
108.544666362427
108.501083477961
108.459903828377
108.422192444499
108.389016360296
108.361404110137
108.34029768555
108.3264930721
108.320561471415
108.322745313247
108.332811570727
108.349839440786
108.37190905562
108.395615515907
108.415340321573
108.421783911933
108.400000233156
108.325058656889
108.152339401372
107.799111285455
107.147380439189
105.891184683104
104.308670731208
105.754751567092
107.728966637966
110.45022953639
114.210510665033
119.09725630961
125.181850724175
132.551607251462
141.320633716764
151.655080050785
163.582825279667
176.583253168302
190.577149427786
205.621314652394
221.760935626582
239.029674381157
257.457793223793
277.055532962111
298.302204107372
322.686478218965
351.004237749461
384.051057175189
422.840192175842
468.75189948201
523.546762026132
589.663406104924
669.344993284116
759.765127670002
858.153163795013
962.648858619887
1069.40276535354
1171.90606953569
1258.7746939551
1317.11017844735
1337.2245641398
1327.80534650086
1320.48346191159
1319.76795741435
1318.86546009466
1313.95330928937
1305.16288358331
606.892668809685
605.072638807104
611.187433938499
614.338117704732
611.955797260942
609.27547036462
611.193755256046
601.316631006233
575.724174293696
537.083948179198
491.036749528977
442.73296539452
395.266874322787
350.400031559297
309.061378285163
272.575057901793
242.345558335504
217.311732131836
196.374050943367
178.692236659287
163.632801805165
150.697880985175
139.488267048554
129.592739567766
120.377803619356
111.659426310443
103.42904047988
95.6825980116714
88.4181508833384
81.6473408769531
75.4096238534421
69.7946087265139
64.9156445708214
60.7613697954009
57.303561598293
54.534707158567
52.4753957739495
51.1746714512592
50.7170911537858
51.4066768378475
53.0683899534874
53.1226062576816
52.9466435427349
52.7681340038971
52.5895574583006
52.4101434992194
52.2455881452352
52.0899259894169
51.9457066489176
51.8092459026833
51.6802786970577
51.5570581227294
51.4392053861991
51.3261375285077
51.2178698636844
51.1145146264368
51.0164802381868
50.9242909468334
50.8386015523069
50.7600963459875
50.6894427776007
50.627225717077
50.5738961743105
50.5297036723073
50.4946150038343
50.4682066805763
50.4495318484014
50.4369363891595
50.4278080825521
50.4182220334632
50.4024082945607
50.3719884504306
50.3145495433054
50.2116079511405
50.0349656962625
49.7398025509251
49.2506355987438
48.4937512678905
47.404636297429
46.5736271547935
48.2261933354719
49.5121175165986
50.9542891061865
52.7492462760395
54.9789320263234
57.6959304857672
60.9558634200431
64.8230423593935
69.381083388677
74.6126492103764
80.2266708195783
86.2290638226666
92.6752847133216
99.6031783826555
107.039737634434
115.014675006509
123.551877423898
132.928540623158
143.844528484786
156.64324599347
171.681282534556
189.405340629205
210.452315362029
235.596248098881
265.946000145914
302.382447403371
343.785052215488
389.016375008089
437.259460373581
486.760057661378
534.644928709689
575.856598788819
605.201056698137
619.265413754297
624.625739083464
630.091204329859
633.411723192323
630.949800028375
623.059348522926
611.252898588874
348.192645404387
344.826920450523
351.011817464462
356.713373442332
354.116300969306
345.314659653243
339.906292267104
331.405585263475
316.691197827298
295.523342687428
270.344336100018
243.881311685097
217.838886529414
193.190208436324
170.481180351675
150.443988306556
133.833553386821
120.090840115994
108.620865905237
98.959757768972
90.7571621835665
83.7297635753041
77.6389371905735
72.239175108575
67.1929773981056
62.3974389444204
57.8417209580638
53.5243149772168
49.451823001628
45.6476875093412
42.1596695229313
39.0499361218452
36.3539498639378
34.0765248594511
32.2239967590853
30.8154036789732
29.8892514730619
29.5044057191396
29.7513678651117
30.7926513919516
32.1480540859824
31.8524767593397
31.4491865479443
31.0640984587475
30.7193640877936
30.4042200835924
30.1321979726298
29.889433031521
29.6763908864041
29.4851841092402
29.3138697131452
29.1584133926891
29.0171301256082
28.8880262904394
28.7700859156478
28.6624129650476
28.5645594138513
28.4762304620291
28.3973297171556
28.3278272343134
28.2677265752622
28.2169936174771
28.1755076126943
28.142989772193
28.1189224455401
28.1024407270121
28.0922069101724
28.0862403011883
28.0816964861411
28.0745643243865
28.0592235788977
28.0278321168859
27.9692474813812
27.8675832798306
27.7000911636516
27.4342271787127
27.0243833928768
26.4487347559306
25.7711906048318
25.5144886582562
26.8509219321689
27.6724051418459
28.563462295141
29.5857756827316
30.8111687883502
32.2723621882574
34.0064860254624
36.0518351558872
38.4507772263455
41.1736674653363
44.0505905201949
47.1095567970797
50.3892451376765
53.9142945311703
57.7021102238803
61.7738305886711
66.1517599377438
71.0106256966677
76.7278478714386
83.4828973670888
91.4715377970945
100.942437403777
112.258742181396
125.833454864484
142.276707539404
161.974733902328
184.437825172733
209.144478585697
235.673600029768
263.045550852857
289.741132059472
313.002578072783
330.54067901479
341.113113252416
351.773562873706
364.624372911495
374.096825590078
375.027109074903
368.034883160705
354.816159676257
230.502266145795
225.208991411073
230.37436051719
238.451190581058
237.484296975544
224.78668334706
213.673066183771
204.813471477901
194.976377599166
182.025299936646
166.663357901576
150.464207298595
134.48545825215
119.333931240041
105.380611941981
93.0840417134936
82.8905150796549
74.4728817298475
67.4730993389162
61.6034144044538
56.6443373565463
52.4094397931354
48.7311543738369
45.4403886621963
42.3393160387921
39.3651505876678
36.5091530354132
33.7761761094078
31.1835796537845
28.7664141287103
26.5761971306045
24.6560561786891
23.0085533950693
21.650630699856
20.6025495973156
19.8909893031831
19.5537635444752
19.6377188558814
20.1919444280316
21.2024803640641
22.0505340656137
21.3942014367013
20.8507043899925
20.3642671364527
19.9774953523072
19.6476794871872
19.3835754228575
19.1599656129663
18.9750134646958
18.8166546559431
18.6817513920233
18.5645974434828
18.4627936647313
18.3735573836218
18.2953952526286
18.2269467184808
18.1674067244105
18.1161482723548
18.0727922897679
18.0370599570005
18.0087523347015
17.987678890533
17.9736139109181
17.9662285602151
17.965018341489
17.969203877084
17.977619896414
17.9885681793725
17.9996332382939
18.0074380972285
18.0073012540369
17.9927877320921
17.9550007883601
17.8817804951016
17.7568971124572
17.5599496094907
17.268898734216
16.8904844434586
16.5207193276584
16.5284054808204
17.4828794401629
18.0213696511604
18.6291338555348
19.2939469949689
20.0751578871384
20.990275396861
22.0639225631145
23.3186726193352
24.775172932269
26.4050010526381
28.107687271059
29.9100906748714
31.8352772865264
33.8971002286441
36.1050622058526
38.4715542176811
41.0126901406164
43.8387224360876
47.1642676511835
51.0896610973802
55.7281851818637
61.2336418730209
67.8310301601345
75.7658342777732
85.4099365692123
96.9486188984087
110.159217269694
124.795163773313
140.625503701558
157.035854991957
173.135816139737
187.193608470498
198.215501857553
205.614988092899
216.663261928518
232.454264043409
247.289177313497
253.927784904836
251.095287002242
238.680625342658
168.129320020705
161.292750583525
164.861544728883
174.871708915191
177.526007019884
163.325806532633
147.059542760825
136.762948020059
129.270594976038
120.767794907657
110.727361981755
100.076073362086
89.5319758493206
79.5080322895256
70.2851329278336
62.1762300916324
55.4597630181891
49.9314844708275
45.360373605586
41.5520483061044
38.3545405891905
35.6294027334227
33.2443942639795
31.0729042813735
28.9946404853204
26.9717012122319
25.0021141607748
23.1010705706186
21.2978286132178
19.635708263193
18.1628491190334
16.9046112371711
15.8489111699195
15.0177306008607
14.4311116290366
14.1113971188142
14.0847847843178
14.3744231752203
14.9757384226647
15.7584306483121
16.1440439669603
15.3348769416923
14.8272716263647
14.3812151106379
14.0649243379761
13.8043997101381
13.610110919639
13.4510525389575
13.3264853604756
13.2236004091332
13.1399980604734
13.0701764692782
13.0122013924762
12.9635708050922
12.9230734585808
12.8895453980214
12.8623392456704
12.840937993123
12.8250427991835
12.8144337701025
12.8089613760325
12.8084824236632
12.8128239411494
12.8217231689462
12.8347656226435
12.8512987184921
12.8703355410383
12.8904315524892
12.9095342798936
12.9247944804274
12.9323160171524
12.9268580495218
12.9014368098461
12.8470246229505
12.7526060785202
12.6065490996235
12.4006744753547
12.1553483423019
11.9611273816358
12.0674384978073
12.750964254528
13.1335154139594
13.5822646541501
14.0608623091464
14.6170657984503
15.2599798037492
16.0065659450933
16.8704927826808
17.861478027156
18.955476767687
20.0902857323446
21.2873180936096
22.5603529861566
23.9172256668182
25.3630937937101
26.9051666714875
28.55510732668
30.3855086974574
32.5259711702436
35.0345097040351
37.9772900710066
41.4512077652611
45.5968492178185
50.5636110013083
56.5831653190105
63.7442329375612
71.9332152026566
81.027121162729
90.894947617532
101.13280147698
111.199278127487
119.926338940832
126.932921293776
131.717668732607
140.691615507487
155.384166177346
172.248167855307
183.696967096346
186.306023292105
176.576449281484
130.150786783127
122.669710273513
124.534452639516
135.408806537711
142.915700716964
129.95113210561
109.339469763156
96.7168024764566
90.2116064575341
84.3446108432736
77.4907013322095
70.148366714965
62.8419542013764
55.8716480637085
49.4679415026709
43.8578098582536
39.2196509345901
35.4207491975903
32.3039789442463
29.7280493968419
27.5776192949788
25.7391546778246
24.1008977706447
22.5658817986352
21.0643317732891
19.5782679877309
18.1166428929839
16.7063196609792
15.3849832938701
14.1961415397029
13.1763437428004
12.333960279668
11.6507075960966
11.147345723952
10.8376354203309
10.7360249249147
10.8551896846816
11.1955674126839
11.7144739618067
12.2426790149338
12.3299925048573
11.5662643456221
11.1789260041149
10.8259271356115
10.6016963941071
10.4168812624838
10.2881786569866
10.1845222542816
10.1076912037118
10.0461543047569
9.99877709254886
9.96098504723929
9.93154595768633
9.90851406983528
9.89108017454501
9.87839519704513
9.8700362432925
9.86565494033581
9.86507055732492
9.86814937519148
9.87480324893961
9.88493488699386
9.89840788975139
9.91499495823668
9.93432538838979
9.95581203959785
9.97856841597376
10.0013079011392
10.0222244067627
10.03885346181
10.0479036934682
10.0450847939382
10.0249399082106
9.98088014042416
9.905726009661
9.79358156182882
9.64427390657637
9.48282108932362
9.38535351747374
9.52190188186407
10.0285866030021
10.3219526185359
10.6725943050703
11.0421994328351
11.4684959557701
11.9564450236664
12.5182074760501
13.1623603682098
13.8930820034544
14.6907207111636
15.5147219494635
16.3815293754471
17.2998656660786
18.2744747602376
19.308394936405
20.4062227114361
21.5771355136488
22.8720606845695
24.3749258054442
26.1213660230885
28.1519359261474
30.5299096592238
33.3458010274144
36.6930948167273
40.7188151506937
45.460145502943
50.845410124727
56.8034922439871
63.2524638515662
69.914763347771
76.4541882182661
82.0528383377093
86.6185494293063
89.622570326105
96.0999961550863
107.686461021271
123.254476856325
136.693316037346
143.838264587196
137.623145041698
104.21409111988
97.0067805892297
97.456309851989
107.824140443818
120.148765748556
110.898022594592
87.4317014311361
71.8015540042554
65.3516094814824
61.1021438574941
56.2909627047927
51.0685303945708
45.8366440358193
40.8227841949226
36.2265696689191
32.2195715605967
28.9165181278347
26.2290423554502
24.0449572460436
22.2541872892842
20.7617778647019
19.4685464430072
18.278774042893
17.1217964655964
15.9658580546977
14.8106755813729
13.6764137137537
12.597248619562
11.6109554596199
10.7523479254053
10.0425889130825
9.4774961974073
9.03816389954275
8.74193815502466
8.59646498839668
8.60930801617883
8.7821289594026
9.09960451325608
9.50200836156605
9.82977896587082
9.76706245473582
9.13514937645759
8.8641299890864
8.59819233639903
8.44640649826001
8.31800171946102
8.23471547088234
8.16806264706237
8.12170895430406
8.08585692588597
8.06029496098967
8.04136889800087
8.02836065620547
8.01980062249113
8.01517200227094
8.01387107757889
8.01563331220021
8.02023076057414
8.02755928289834
8.03753746659237
8.05010764858839
8.06518947513725
8.0826540304823
8.10227928509583
8.12370501041894
8.14637287892345
8.16945490951208
8.19177311789658
8.21170720709583
8.22709794283111
8.23514627101708
8.23233791521985
8.21443562703021
8.17671858990116
8.11475644706797
8.02628831472962
7.91573151167067
7.80815659221528
7.76523657281246
7.90502791692382
8.29412788706025
8.53201570173867
8.81689821831329
9.11620457822201
9.45928239890915
9.84913471518122
10.294719030387
10.8015695936536
11.3709821535257
11.9870269647527
12.6220835354593
13.2887278742784
13.9928531458877
14.7375563650702
15.5248259083571
16.3579391951205
17.2446398695845
18.2226938686637
19.349896124872
20.6497002134394
22.1486144506392
23.8902151794243
25.9357232033549
28.3466433645933
31.2199180205896
34.5661803574318
38.3323519510217
42.470758612346
46.9243492466459
51.4922823250343
55.9584518126404
59.7283659882721
62.8404745281561
64.766618464137
69.2820866226127
77.719681405764
90.4288080222789
103.241306880879
112.901717070246
109.975878945055
85.0841783451902
78.7653805955776
78.3015030271756
87.0664007080572
103.073408983605
99.1925308399105
74.8704042838995
55.9500380977121
48.7958495534312
45.4827245533122
42.0268115005601
38.2307681900321
34.4027017529483
30.7149083136473
27.3445806858103
24.4244616747436
22.0266303745572
20.0913139047895
18.534162787216
17.2639677004454
16.1981218584683
15.2485599411437
14.3365088847792
13.4173337397799
12.4888871022993
11.5641262028046
10.6695346818083
9.83881535745196
9.10245061698106
8.48312619823563
7.98931267385941
7.61069657988894
7.33106769130459
7.16432246669908
7.11372080385132
7.18166263937378
7.36220205008124
7.6316626282737
7.92839776900077
8.12121130932818
8.00010919704877
7.50798939030381
7.32191300043233
7.12298438116856
7.02046583746916
6.93029808711946
6.876121128912
6.83293299434492
6.80525116099492
6.78492594705363
6.77224135460716
6.76429639628935
6.76068108507749
6.76027926041177
6.76275589481966
6.76767537564943
6.77486915374864
6.7841836948697
6.79555565097374
6.80892849313612
6.82425321748431
6.84144880813621
6.8603789360431
6.88081384665341
6.90239067601938
6.92456671313914
6.94655725519495
6.96727336862327
6.98525251446492
6.99859590259013
7.00492187758802
7.00136083727448
6.98465270631184
6.95150175835651
6.89940407775957
6.82845846045893
6.74544919472682
6.6735597020141
6.66212664827844
6.79470507334262
7.10257296492745
7.30290000152661
7.5408479965724
7.79132708658605
8.07686710083764
8.39957137822598
8.76614268307523
9.18021478332737
9.64156362946437
10.137270954442
10.6478602139438
11.1829862495696
11.746867961479
12.3416645940114
12.9688136334756
13.6308890172419
14.3347014390409
15.1094525715345
15.9969211440997
17.0135388538396
18.1777230873619
19.5211308564304
21.0872616003789
22.9188797971413
25.0827374651379
27.5764133129479
30.3574501586428
33.3908385621386
36.6339146718409
39.9346953303508
43.1482448125668
45.8252720122653
48.0582312050315
49.3520711305067
52.5357994819728
58.5515991707049
68.3532220960866
79.191674023145
89.4456997502105
88.9834630578398
70.3535421904175
65.1828740507691
64.295970130563
70.955850668165
88.9230087912458
91.0942707386995
67.9626176814359
46.0014274342959
37.5216963010357
34.6098160441631
32.0418240453598
29.2284491875414
26.3868917243806
23.6371677668837
21.1349625128205
18.9831805703764
17.2240586049877
15.8166197480054
14.6939655933194
13.777217075402
12.9932241246721
12.2657711511068
11.5351293529242
10.7808705179728
10.0212335007444
9.27549967742463
8.57006443029618
7.93257973220906
7.38408286553234
6.93714550289411
6.59267921335637
6.33900685504256
6.16352476326137
6.07702259785889
6.07977184320105
6.17047490331605
6.33864740664969
6.55782744466973
6.77224512988307
6.88101945436547
6.74798363742478
6.37369346385543
6.24385101018732
6.09412244620271
6.02384505202237
5.95947912246023
5.92390927982864
5.89580238199245
5.87974179560491
5.86902712292536
5.864138819271
5.86277173044058
5.86468421413357
5.86901820513032
5.87554685270553
5.88394829524825
5.89410979542916
5.90592243812
5.91934218886196
5.93432180758503
5.95081003151725
5.96871780242764
5.9878964881979
6.00810585970869
6.02897767086465
6.0499825612911
6.07037543108201
6.08914911234596
6.10498415288092
6.11621201202966
6.12081138255485
6.11645194242186
6.10065688369012
6.07120885193518
6.02695222332974
5.96951286451032
5.90665566713669
5.85901040893464
5.86592408594876
5.98761848367326
6.23720619180574
6.41021205798928
6.61307944181435
6.82770404373971
7.07118640185388
7.345221949288
7.65486778554062
8.00252723137585
8.38718777703156
8.7983368465445
9.22185213763105
9.66518392536934
10.1314996486211
10.6223871491475
11.1389744305847
11.683431722642
12.2618816009393
12.8976033566924
13.6219541705911
14.4470503137754
15.3864106001396
16.4641118005702
17.7123982100707
19.1625403878579
20.8623242559448
22.8032255755656
24.9500831221081
27.2758354671313
29.7471217500843
32.2448081093822
34.6673775029904
36.6630742448062
38.3417542168744
39.2561128428028
41.5663036508816
45.8943067858223
53.3462935549012
61.9566693729103
71.5705982466901
72.6393413323561
58.7680506429449
54.7467601019299
53.7778973390418
58.4011399370111
76.5156411599887
84.6031267637396
64.3762355770071
40.0943031973116
29.8586895621149
26.8981490258768
24.8645549787877
22.7214021035684
20.5856674928668
18.5191190131233
16.6510752289015
15.05893391502
13.7632418912422
12.7353766377251
11.9197641750305
11.2470201792132
10.6533396240878
10.0760112775557
9.47458294572407
8.84791436664174
8.22495218616331
7.62515569684786
7.07090924974148
6.58248427639773
6.17314189513223
5.84897949270095
5.60740504885423
5.43766469140577
5.3303032049475
5.29335555472207
5.32506144605836
5.42162417798947
5.57038530365717
5.74550948869498
5.89988210111646
5.95849248058158
5.83391450412992
5.55074337096737
5.45727998343936
5.34370619903205
5.29460233963654
5.24810631828101
5.22472629835264
5.20666201961779
5.19809736376223
5.19357745786399
5.19360524846224
5.19634766304047
5.20164855532531
5.2088409885356
5.21776207308565
5.22816833924254
5.23997916263282
5.25311240276211
5.26753166717075
5.28319110228662
5.30003276916113
5.31795779312519
5.33680437261054
5.35632148003762
5.37614253257234
5.39575290144535
5.41444689752282
5.43129379742613
5.44510536510939
5.45442162149325
5.45753419640156
5.45256459581875
5.43766133756969
5.41141560740568
5.37363224344104
5.32686110592234
5.27904637804871
5.24816780654688
5.26564725312845
5.37564883206024
5.58200969950544
5.73398551202575
5.90971431878672
6.09687513733992
6.30831939395847
6.54554675396039
6.81238531903871
7.11041903989436
7.43825301064012
7.78729281122249
8.14705923673856
8.52332789308012
8.91856683073433
9.3339935991269
9.77054941722762
10.230152644677
10.7183675276891
11.254173732799
11.861809756096
12.5505683649802
13.3308993263862
14.2217901250641
15.2479936100646
16.4333725332512
17.8132477275993
19.3765379456044
21.0935902152199
22.9427840478385
24.8971659096163
26.8607245661421
28.7592884250244
30.3092118526911
31.6204449450905
32.2962157477835
34.0252967855476
37.2033594297061
42.9129502384914
49.575564852244
57.9995097429406
59.8520444420676
49.5641861736099
46.5580112258053
45.6746274394708
48.6919158401729
65.3958660934791
78.688331885997
62.593171747505
36.9852009756512
24.7865051334364
21.4144797837779
19.6369061366979
17.9266184267694
16.2922528439568
14.7297554040126
13.3333733132997
12.1563375869823
11.2027705049544
10.4519454895183
9.85620669977396
9.35480484282619
8.89389248347844
8.42480029555086
7.92397374555961
7.40303465125452
6.8939195856872
6.41302286783324
5.97784304673018
5.60250539789523
5.29509283139152
5.05813263886507
4.88781782115681
4.77499879606154
4.71252706930727
4.70605887856788
4.75248929526388
4.84648751823561
4.97484832504608
5.11410654183228
5.22594819609032
5.25550738391159
5.14678034853303
4.93183236435858
4.86226202033324
4.77565980069612
4.74078058712202
4.70709178702079
4.6919859528359
4.68089425193783
4.67737881649402
4.67704112979021
4.68031831159067
4.68575343158218
4.69322988510465
4.70222478301841
4.71261344960238
4.72420774676102
4.73694550276711
4.75076076651906
4.76561877770296
4.78147143961012
4.79825306644666
4.81585487330378
4.83410168737984
4.85273869503976
4.87140574865368
4.889605597089
4.90667285005804
4.92174983627377
4.93376940739643
4.94145913100772
4.94338156885966
4.93803545884792
4.92406804693761
4.90068062713015
4.86835088250843
4.83013065245707
4.79369846574499
4.77453852191795
4.79783871822284
4.89654166821064
5.06991332141265
5.20499079249305
5.35916160260848
5.52459038311245
5.710850970531
5.91932458612861
6.15290818238021
6.41262778940679
6.69693568097836
6.99876979038165
7.31019849674243
7.6357150335278
7.97729639706722
8.33590673087021
8.7123658540073
9.10842008178416
9.52915229004898
9.9903006719368
10.511046139898
11.0987340216706
11.7618493040542
12.5157830194643
13.3800961817764
14.3736488076741
15.5232261008558
16.817009675724
18.2297026886122
19.7435833036578
21.3362587440416
22.9285972156317
24.4641419103996
25.7085823628011
26.7640165912795
27.2815965139138
28.6115864168234
30.9984594137053
35.4453934181606
40.5771005561096
47.7012193918948
49.8502149676454
42.2074920456333
40.0383062117389
39.2774797131866
41.2498512436422
55.4336112951053
72.8546118899806
61.6281435718789
35.7805965466568
21.6103284270346
17.558910851066
15.8262664147541
14.365087802544
13.0736461734474
11.8808150600956
10.8364224997047
9.96918941019562
9.27007703309673
8.72295372270325
8.28620976509087
7.90747358985415
7.54294166399941
7.15692069717371
6.73884516288556
6.30714798243124
5.89216772568216
5.50655256066757
5.16366279679092
4.87329845542726
4.64043270138287
4.46578302940909
4.34538430617061
4.27165269669317
4.23898555865412
4.25106015036184
4.30394553735117
4.39151928490302
4.50104092647806
4.61209325278284
4.69419622614293
4.70750775966203
4.61608264777886
4.45181000160657
4.39852498276211
4.33239800180491
4.30740169286254
4.2832094238574
4.27395390542667
4.26791343478304
4.2679634540664
4.27059001257436
4.27612840294107
4.2834221500682
4.29237026803808
4.30255996390592
4.31388997812509
4.32621210020767
4.33947480241183
4.35362200373827
4.36861770374156
4.38441020735782
4.40092680128387
4.41804669982743
4.43558826904067
4.45329843079851
4.47082479973232
4.48769039903965
4.50327123328801
4.51678061463305
4.5272637054507
4.5336147261019
4.53463001263479
4.52912219862014
4.51613617918074
4.49533353272746
4.46764320348716
4.43633662163867
4.40859282427501
4.3976554948952
4.42382466883686
4.51209350453003
4.65966610446211
4.78072468047081
4.91740543798035
5.06519507051669
5.23117036053902
5.41661008824
5.62369900393672
5.85307621239999
6.1031708574767
6.36814887846706
6.64190009894181
6.92792797667916
7.22784710364127
7.54243966896178
7.87244041258504
8.21946691401616
8.58817248667451
8.99177945711076
9.44575493022638
9.95605763600188
10.5298826326635
11.1799712371031
11.9221611905742
12.7717890793748
13.7495892317037
14.8439428517264
16.033088099777
17.3021643671204
18.6320839715898
19.9563942595422
21.2303744119344
22.2565760421297
23.1259278980507
23.5329902614187
24.5788548885049
26.4093753958415
29.9360215479832
33.9168139943183
39.8423672537907
42.0147663623347
36.292820708061
34.7883490270514
34.1171464011672
35.5658055939355
46.6369417180342
66.8976977274607
60.8321415938549
35.828259093839
19.8307206548572
14.9110607611079
13.0727628237189
11.7246887016049
10.65101608351
9.72209328814667
8.93725624460945
8.29992094983117
7.78971923038814
7.39247383560288
7.07143468441754
6.7821650259391
6.49015012661234
6.17054782095975
5.82174467186369
5.46473499454821
5.12631026105095
4.81596370303571
4.544022272813
4.31745594662072
4.13943767473638
4.00981020694147
3.92485667774247
3.87829097508914
3.86549984603305
3.88857677066177
3.94315866607048
4.02287069244707
4.11599655314686
4.2052449810957
4.2666769891975
4.2714135994133
4.19626180047876
4.06978779082121
4.02816458710782
3.97783903982756
3.95999609016382
3.94306904694539
3.93813625208766
3.93590984356148
3.93860584847289
3.9434410960202
3.95064287357667
3.95929445451848
3.96929919766686
3.98032927452801