/*--------------------------------*- C++ -*----------------------------------*\
  =========                 |
  \\      /  F ield         | OpenFOAM: The Open Source CFD Toolbox
   \\    /   O peration     | Website:  https://openfoam.org
    \\  /    A nd           | Version:  7
     \\/     M anipulation  |
\*---------------------------------------------------------------------------*/
FoamFile
{
    version     2.0;
    format      ascii;
    class       volScalarField;
    location    "20000";
    object      p;
}
// * * * * * * * * * * * * * * * * * * * * * * * * * * * * * * * * * * * * * //

dimensions      [0 2 -2 0 0 0 0];

internalField   nonuniform List<scalar> 
15600
(
6.00509420207513e-09
0.0195975442699221
0.00511768389834553
0.0198398487313304
0.0458063120799897
0.0801613024682516
0.098902138084605
0.11041746134966
0.117718645174543
0.123438079336246
0.127223029181503
0.130312670320048
0.132661036974709
0.134707598989619
0.136393985886493
0.137861847016951
0.13917166427791
0.140371074859211
0.141478399719475
0.142524522340187
0.143524739973767
0.144507684499215
0.145497326853256
0.14654384692579
0.147649075524245
0.148829705390945
0.1500913449102
0.15143358250237
0.152843718380193
0.154299245857807
0.155762187197244
0.157173405046985
0.158542564690546
0.159845287920345
0.161057962459068
0.162150779991543
0.163097569952486
0.163866781630368
0.164459478399763
0.164900264492127
0.164622261966552
0.165033416084651
0.165579629845315
0.166506057776043
0.167719419278738
0.169255755584864
0.171073949934801
0.173164328418734
0.17550059220812
0.17806573857583
0.180840210835211
0.183807978413589
0.186953374663667
0.190262409853429
0.193721815114731
0.197319247630225
0.201042962656744
0.204881821702058
0.20882520796837
0.212863077423641
0.216986034753861
0.221185473903144
0.225453750312721
0.2297843978917
0.23417239192832
0.238614468351854
0.24310950924512
0.247659006433832
0.25226761998863
0.256943850602749
0.261700822160444
0.266557167212376
0.271538566714625
0.276677981014024
0.28201553137241
0.287612116119182
0.293529983219222
0.299713318822404
0.306572602265935
0.314534135259355
0.319651550021666
0.324084323228913
0.328074823057077
0.331970319105855
0.335894968891718
0.339980181224232
0.344312335133468
0.348979371337464
0.354030316384429
0.359500684489466
0.36560432988482
0.37241611222177
0.379934217382652
0.388083092783632
0.396737667833978
0.405698518388355
0.414745390365111
0.423544528065254
0.431745465830356
0.439127799853616
0.445468300267671
0.450639258647848
0.454365522215346
0.456492800721661
0.456436531263299
0.453811488907872
0.446913449320016
0.434167353640342
0.413532033063845
0.383024439793351
0.338936967303237
0.279460051916179
0.198520597318123
0.104189281543258
-0.00255269693556038
-0.0616084485305239
-0.0822633250757549
-0.0661600319153318
-0.0470234991193651
-0.0032006535055125
-1.35788095630013e-05
0.0195815926631915
0.00515533007105054
0.0198287864654271
0.0456550467368568
0.079902288425889
0.0986819619267102
0.110241108510238
0.117581293675028
0.123333763448938
0.127149543595737
0.130258206558572
0.132622236549592
0.134679939997545
0.136377449298035
0.137853792101359
0.139170347985265
0.140375378684193
0.141487519545407
0.142537647218793
0.143541051002529
0.144526061869052
0.145515947018239
0.146561049595537
0.147664112535405
0.148841863242575
0.150100317113122
0.151439545995083
0.152847462072523
0.154302254532553
0.15576688006277
0.157181162812959
0.158553255274973
0.159858985077263
0.161074505565149
0.162169653396379
0.163117852634621
0.163886828831885
0.164478177121464
0.164917704958772
0.16464105414363
0.165054649729401
0.165600425911204
0.166526774226834
0.167739851380844
0.169275874427859
0.171093606518115
0.173183398824091
0.175518926558337
0.178083194360262
0.180856645482536
0.183823257549878
0.186967371607193
0.190275007963233
0.193732908307219
0.197328741431697
0.201050774888717
0.204887883195114
0.208829463027608
0.212865483953753
0.216986563922096
0.221184109318812
0.22545048666867
0.229779238950552
0.234165347682574
0.238605551135059
0.243098728515309
0.247646361814768
0.252253092036152
0.256927388559476
0.261682327235281
0.266536468051354
0.271515392215602
0.276651905684999
0.281985848491088
0.287577886182897
0.293490080644135
0.29966392298222
0.306502236644786
0.314439437075888
0.319591173961474
0.324052362496007
0.328063161811046
0.331977254299659
0.33592111464448
0.340027935866534
0.344384828756008
0.349079849149636
0.354161449439245
0.359668716534362
0.365813632407711
0.372665539462873
0.380218892628657
0.388394908832021
0.397065516188875
0.406029382061476
0.415063939065821
0.423834702522201
0.431996918793124
0.439333762534338
0.44562408563559
0.450739143775981
0.454403546033767
0.456457201284267
0.45631205885343
0.453563929963237
0.446495743900499
0.433538729722142
0.412659315307049
0.381868860079208
0.337490960382017
0.277729172529908
0.196677475257249
0.102512169475663
-0.00348945079522926
-0.0617967760971271
-0.0821462132897152
-0.0660197350515746
-0.0469421930673236
-0.00318739793045449
-2.60559569675456e-05
0.01957494117258
0.00520844464487234
0.0198410729687712
0.0455227741683541
0.0796614503051183
0.0984715546966013
0.110067562869576
0.117443974354476
0.123228866510778
0.127075148683691
0.130202996064662
0.132582698045388
0.134651655147582
0.136360334023395
0.137845308838847
0.139168725108673
0.140379488918431
0.141496547174378
0.142550789173557
0.143557481057662
0.144544665540768
0.145534868067831
0.14657855481639
0.147679332252824
0.148853989635914
0.150108921040008
0.151444673473
0.152849772162688
0.154303137648829
0.155768750324819
0.157185508174784
0.158560136032022
0.159868609851657
0.161086903777523
0.162184536740032
0.163134517582629
0.163903646062418
0.164494837552532
0.164934031499221
0.164657017050119
0.165074737536219
0.165619883795734
0.166546223686084
0.16775897982226
0.169294830398863
0.17111220392754
0.173201537429865
0.175536426563444
0.178099902668937
0.180872398897597
0.183837909373685
0.1869807830708
0.190287054982088
0.193743479663677
0.197337740778691
0.201058120640611
0.204893509276708
0.208833318816611
0.212867533984639
0.216986787040185
0.221182497430181
0.225447042892626
0.229773974997745
0.23415828021563
0.238596696827393
0.243088097434901
0.247633948540183
0.252238863786877
0.256911268788603
0.261664174018557
0.266516038218335
0.271492297925266
0.276625541609342
0.281955234453669
0.287541326366047
0.293445826275853
0.299608457303719
0.306411889316377
0.314285139909979
0.319461370904418
0.323954474426337
0.327989169287283
0.331925796479962
0.335892781268888
0.340025359664356
0.344411316703539
0.349138794805025
0.354255865825097
0.35980605135774
0.365998033396561
0.372894860732253
0.380487298844165
0.388693335048855
0.397382029806862
0.406350197924791
0.415373110750547
0.424115711195422
0.432239590322676
0.439531585164761
0.445772338904476
0.450832051586754
0.454434768020171
0.456414751191002
0.456179920605984
0.453307850969946
0.446069688400064
0.432904353425175
0.41178634415267
0.380724256137873
0.336076156619096
0.276068864033733
0.194971187236194
0.101068112050215
-0.00413195845623163
-0.061753654370982
-0.0819107877304415
-0.0658297564057541
-0.0468459349944124
-0.00316545737353714
-2.93524426970773e-05
0.0195817700103497
0.00528972984780449
0.0198800043845405
0.0454046300676118
0.0794345258580646
0.0982765238477363
0.109904124536485
0.117312620819961
0.123127616754721
0.127002919332916
0.130149188250341
0.132544028458695
0.134623915645394
0.13634347190356
0.137836922051436
0.139167097162611
0.140383509678654
0.141505400785655
0.142563677406578
0.143573574063975
0.144562852739101
0.145553327056565
0.146595506744677
0.14769378276534
0.148864997556984
0.150115898240773
0.151447477229719
0.152848856319528
0.154299691754208
0.155764997016464
0.157183021470939
0.158559172761284
0.15986957197563
0.161090069913616
0.162189967305602
0.163141877559351
0.163911545723503
0.164503956744826
0.164942007225247
0.164664254231358
0.165087824684715
0.165633409234386
0.166560493807526
0.167773634516666
0.169310015373947
0.171127606863243
0.173216958949864
0.175551571159966
0.178114529926584
0.180886268937186
0.183850818977053
0.186992549779037
0.190297524854756
0.193752522424222
0.197345251256975
0.201064017137487
0.204897733392502
0.208835834010938
0.212868323792497
0.216985852642429
0.221179854818138
0.225442719248799
0.229768003939578
0.23415069550053
0.238587524076587
0.243077343200206
0.247621585610638
0.252224811431609
0.256895364419323
0.261646136525517
0.266495404106651
0.271468330929321
0.276597102792566
0.281920568035774
0.28749692834421
0.293387889853334
0.299533583458511
0.306281674435568
0.314038631035687
0.319231131430653
0.323757895900025
0.327820678582192
0.33178534675921
0.335781323799029
0.339945833508166
0.344367110898723
0.349133240815013
0.354292236181666
0.359892895359735
0.366138248664078
0.373084587013339
0.380719251301193
0.388957189093682
0.397664951337047
0.406637788919337
0.415649227231416
0.424364220387705
0.432451449617765
0.439701152560291
0.445895337263977
0.450902894588492
0.454446986300653
0.45635620840037
0.456034219222818
0.453041363509032
0.445639252413254
0.432275979154843
0.41093517392585
0.37962648755219
0.334748002844144
0.274562050583543
0.19352340951157
0.100022388253429
-0.00428596139363562
-0.0613213676817829
-0.0814656419201329
-0.0655569834431378
-0.046724962860669
-0.00313778389969399
-2.13706629069437e-05
0.0196021710313538
0.00541899396731803
0.0199661226694488
0.0453032375583745
0.079205435183031
0.0980852613312343
0.109743546664049
0.117181892008064
0.123025861140215
0.126929910967253
0.130094536613843
0.132504606412207
0.13459553641285
0.136326154313013
0.137828294531529
0.139165432108747
0.140387666635781
0.14151452593234
0.142576935883221
0.143590091374378
0.144581463842274
0.145572157536372
0.146612609649668
0.147707948997934
0.148875046720152
0.150120979948947
0.151447155720928
0.152843279505504
0.154289751067105
0.155752691104325
0.157170064091291
0.158545954447089
0.159856654851157
0.1610780379065
0.162179397475932
0.163133158798323
0.163904101291499
0.164499324316392
0.164936108776289
0.164662241311865
0.165094232209953
0.165641742850586
0.16657107933452
0.167785778932836
0.169323705746337
0.171142223792033
0.173232082382448
0.175566687828217
0.178129240412849
0.180900203070501
0.183863679817429
0.187004086412324
0.190307539226317
0.193760860147151
0.197351801516862
0.201068708992124
0.20490053404487
0.208836745334331
0.212867378106059
0.216983107539024
0.221175387274878
0.225436618405605
0.229760361905421
0.234141595503255
0.238577025272596
0.243065460948781
0.247608265237495
0.252209893219034
0.256878533359783
0.261626857653553
0.266472812104575
0.271441064707329
0.276563076181306
0.281876671508418
0.287436997406437
0.29330476568111
0.299422009746888
0.3060918730508
0.313689622747539
0.318897377696129
0.323461334667345
0.327558071257251
0.331557709753079
0.335589696573849
0.339793139271205
0.344256458696395
0.34906762735109
0.354274959499554
0.3599328224731
0.366235935094181
0.373233654992637
0.380910352611371
0.389178248815276
0.3979018717869
0.406875352036623
0.415871152521502
0.424555427537059
0.432604955571742
0.439812834281368
0.445961794657083
0.450918771735576
0.45440547633155
0.4562444549253
0.455834531784
0.452718651610828
0.445151372287016
0.431592343137188
0.410035690295294
0.378496011094955
0.33341897239674
0.273116644403882
0.19225048830293
0.0993223489265247
-0.00393050242334978
-0.0604103109913486
-0.0807096702184535
-0.0651323049461643
-0.0465460334547577
-0.00310112705540031
2.48881161545555e-06
0.0196366312758477
0.00561417166226123
0.0201275408224228
0.0452382617362727
0.0789732707485548
0.0978932336673741
0.109583932721951
0.117050701524577
0.122922782798527
0.126855507064026
0.130038539652307
0.132464026608333
0.134566185883118
0.136308148435029
0.1378192939048
0.139163686313486
0.140391998614933
0.141524035284346
0.142590743410166
0.143607268223412
0.144600777061169
0.145591650973726
0.146630092379017
0.147721914944243
0.148883979950394
0.150123647141721
0.151442682885763
0.152831344484548
0.154270777016301
0.155728363208484
0.157142273347006
0.158515223332674
0.159823753867385
0.161044041048438
0.162145735275068
0.163101429726415
0.163875161789891
0.164475311460208
0.164911874649785
0.164651394098784
0.165094526779331
0.165645997569404
0.166580184227075
0.167798262513601
0.169339125304687
0.171159396673811
0.173250203022028
0.175584908248077
0.178146925902693
0.180916805430198
0.183878779807937
0.187017351285677
0.190318723932483
0.193769792203319
0.197358377323301
0.201072887192031
0.204902331153607
0.208836229434469
0.212864661211835
0.216978336657197
0.221168734200108
0.225428267367131
0.229750494045228
0.234130369113412
0.238564550832079
0.243051769254159
0.247593265721736
0.25219331934362
0.256859865637149
0.261605225689377
0.266446834080088
0.271408608613738
0.276520924308771
0.281820191222079
0.287357538970353
0.293191828687304
0.299268165250755
0.305843877678662
0.3132602348687
0.318483794512517
0.323087233381686
0.327223198125414
0.331263302893935
0.335336494865333
0.339583555430721
0.344092899579297
0.348952430180696
0.354210985147971
0.35992814967545
0.366288204900536
0.373333789393711
0.381046854379305
0.389337328038729
0.398068308398538
0.407033377989257
0.416004870135278
0.424651695015719
0.432659672023718
0.439824010732287
0.445927284723311
0.450833710488356
0.454262776620083
0.456030308256928
0.455529419633249
0.452284916606641
0.444547310210983
0.430790995345236
0.409021844737814
0.377263193321607
0.332015703656484
0.271655575221784
0.1910727449561
0.0988926560837149
-0.00310924536557213
-0.0589971578567452
-0.0795737391697895
-0.0644867401038273
-0.0462672441202949
-0.0030444379549638
5.23994630387186e-05
0.0196878614166056
0.0058875913817148
0.0203894916005668
0.0452367115997042
0.0787477338221417
0.0976984759798293
0.10942523166896
0.116919472320746
0.122818834449212
0.126780031016119
0.129981402546446
0.132422391040733
0.134535894194111
0.136289440270212
0.137809898095258
0.139161842770156
0.140396504986641
0.141533949083313
0.142605147125553
0.143625182220295
0.144620901763441
0.145611938272817
0.146648042204906
0.147735639434387
0.148891528830982
0.150123282545139
0.151432962149999
0.152811362756156
0.154240424116226
0.155689048147561
0.157096211771619
0.158463216842133
0.159766981297863
0.160984299586992
0.162085526822602
0.163043708332476
0.163822210642433
0.164429120150194
0.164866736197906
0.164632213253116
0.165089296988508
0.165647930391168
0.166590374401065
0.167813971635114
0.169359109924216
0.171181729959477
0.173273597043255
0.175608156291471
0.178169159740194
0.180937321634956
0.18389706550317
0.18703302455658
0.190331524878383
0.19377956097081
0.197365045372615
0.201076467169706
0.204902909267138
0.208833955968782
0.212859739219428
0.21697100910179
0.221159269346836
0.225416941264188
0.229737568705232
0.234116064943757
0.238549012105523
0.243035020669284
0.247575156566711
0.252173451933255
0.256837496753563
0.261579143775666
0.266415165608118
0.271368542383633
0.276468315152447
0.281749294510009
0.287258282372373
0.293051982466548
0.299079396225044
0.305554896440246
0.31278321256787
0.318020446700691
0.32266188979462
0.326839928742741
0.330923417100813
0.335040632849605
0.339333569634876
0.343890470170702
0.348799137703811
0.354108916874354
0.359883971420315
0.366296921062658
0.37338409908126
0.381125368961872
0.389428701961893
0.39815626422109
0.40710161014176
0.416037853553378
0.424637962647537
0.432597364070984
0.439712728925221
0.445765860516578
0.450617811899351
0.453985096441782
0.455676061593922
0.455077073236681
0.451693872168248
0.443776021456248
0.429816195943558
0.407833213429359
0.375862654139969
0.330466732612803
0.270098803465834
0.189897015410814
0.0986230954957845
-0.00193396454358451
-0.0571395806970519
-0.0780455790568774
-0.0635739276632411
-0.0458485952206762
-0.0029513560371832
0.000141822280248856
0.0197626970854475
0.00624452723199125
0.0207658664369453
0.0453224058243825
0.0785479025105927
0.0974989570169129
0.10926726388985
0.116788198814804
0.122714247715891
0.126703713197985
0.129923279586142
0.132379769993937
0.134504668166995
0.136270002153136
0.137800080348563
0.139159890366117
0.140401205697305
0.141544327350256
0.142620257545288
0.143643999639333
0.144642056165539
0.145633266181479
0.146666655713601
0.147749182795839
0.148897537261648
0.150119448498351
0.151417256853728
0.152782362525746
0.154197636542608
0.155633809287221
0.157031260154552
0.158389816031085
0.159686888444074
0.160900070205269
0.162000531631002
0.162961753882719
0.1637463252597
0.164360443690242
0.16480018162122
0.164604880387368
0.165078839304831
0.165648614170727
0.166602404400991
0.167833286097504
0.169383561850906
0.171208746501273
0.173301488897226
0.175635456522055
0.178194844231361
0.180960597321742
0.183917376326788
0.187049977550814
0.190344872574864
0.193789173664535
0.197370898519275
0.201078628306333
0.20490152784745
0.2088292512023
0.212851985799055
0.216960521212103
0.221146382670793
0.225401991570136
0.229720865335727
0.23409785753097
0.238529449074438
0.243014097647382
0.247552651074794
0.252148841376528
0.256809847876421
0.261546978242826
0.266376253669283
0.271319625611038
0.276404693705679
0.28166466512044
0.287142064223983
0.292891460100435
0.29886594088445
0.305240680470058
0.312280034953295
0.31752706539506
0.322202344010502
0.326423243804258
0.330551273753835
0.334714024474348
0.339054024355082
0.343659177104367
0.348617062097487
0.353977380148937
0.35980825970491
0.366270033815227
0.37339316363637
0.381155493337953
0.38946321613663
0.398177892922665
0.407093422510747
0.415984380574473
0.424528532223813
0.432431051968537
0.439489510003283
0.445484630552792
0.450274028976232
0.453570627118981
0.4551746917847
0.454464869965331
0.450927198891197
0.442812892513566
0.428636220466319
0.406430375027805
0.374246514369338
0.328714373061627
0.268375594585465
0.188633721652939
0.0983955682902178
-0.000545373992254367
-0.0549496252859956
-0.0761695170387467
-0.0623845209175802
-0.0452654201919283
-0.002806752743633
0.000281958161098079
0.0198706373653982
0.00668475643365008
0.0212563629901841
0.045507769904656
0.0783957535378896
0.0972976046312029
0.109110670352659
0.116656485487342
0.122608897811727
0.126626593240608
0.129864209997496
0.132336154274317
0.134472455876121
0.136249766974237
0.137789794284632
0.139157818847551
0.14040614657687
0.141555285496354
0.142636272250684
0.143664000742658
0.144664585301554
0.145656002586627
0.146686246817791
0.147762752144885
0.148902093804103
0.150112160255184
0.15139563244428
0.152744659209721
0.154143210805329
0.155564089726675
0.156949557222296
0.158297892507685
0.159587046767991
0.160795388402395
0.161894780614181
0.162858911672383
0.163649561690449
0.164270274095877
0.164713588375075
0.164569207034002
0.165062508074379
0.165647409008611
0.166614812546697
0.167854312882602
0.169410297409221
0.171238177031753
0.173331638101473
0.175664682435693
0.178222017898934
0.180984865127752
0.183938153794105
0.187066863682489
0.190357627997395
0.193797687860526
0.197375175210688
0.201078769813603
0.204897723255663
0.208821761975012
0.212841129263225
0.216946652177805
0.22112987307658
0.225383206457487
0.229700133199705
0.234075433455645
0.238505468796532
0.242988520888338
0.247525190686703
0.25211887574625
0.256776304977181
0.26150819759621
0.266329777559001
0.271261934751179
0.276330789130022
0.281567981330974
0.287011911395918
0.292714963827142
0.298633907156651
0.304908958649048
0.311760167297647
0.317013379796295
0.321717445934477
0.32598100977785
0.33015394538034
0.334363241289687
0.338751180288165
0.343405178783402
0.348412434713152
0.353822823154612
0.359707897398577
0.366215312909018
0.373370079109444
0.381147963265309
0.38945348743087
0.398147830260709
0.407025510592108
0.415863055312721
0.424343377454185
0.4321813523664
0.439174886147859
0.445103483751627
0.44982097207224
0.45303608713954
0.454540492184302
0.453704224865542
0.449993380173647
0.441662748683653
0.427250817979066
0.404806838620065
0.372400929868456
0.326736273783067
0.266452453576484
0.187232799586678
0.0981314559180023
0.000942239731661857
-0.0525439370550553
-0.0740204488320777
-0.0609428391997
-0.0445141744148986
-0.0026023191295678
0.000478149965535616
0.0200195986785993
0.00720562450315237
0.0218499332639202
0.0457921668629513
0.0783052279506484
0.0971059609784236
0.108959124656908
0.116524276990882
0.122502406072794
0.126548550538951
0.129804144792583
0.132291475007184
0.134439162260288
0.136228639129197
0.137778984132186
0.139155629972879
0.140411411636322
0.141567005247396
0.142653479073509
0.143685566574964
0.144688927148288
0.145680592650231
0.146707223635219
0.147776727229096
0.148905611876221
0.150101982223949
0.151368968368029
0.152699624599907
0.154079145735742
0.15548252477829
0.156854254408034
0.158191013250379
0.159471266497339
0.160674002801731
0.161771581627405
0.162737708926009
0.163533623560139
0.164160332540978
0.164609381395027
0.164524821226495
0.165039130092871
0.165642827768275
0.166625523980979
0.167874825650052
0.169437089795813
0.171267928002902
0.17336214111594
0.175694147509561
0.178249219364514
0.181008883505573
0.183958365858045
0.187082845051373
0.190369130375385
0.193804600942978
0.197377511153613
0.201076644938844
0.204891344969159
0.208811412275887
0.212827146338809
0.216929410052504
0.221109759521964
0.225360597192189
0.229675360025169
0.234048745272877
0.238476982942009
0.242958163110509
0.247492620891411
0.252083396911994
0.25673674462011
0.26146276891446
0.266275870443396
0.271195865785291
0.276247368692099
0.281460478123772
0.286869613308637
0.292524826977976
0.298385790956561
0.304562656440221
0.311227899444742
0.31648458711489
0.321212307642989
0.32551795889569
0.329735793245457
0.333992412957185
0.338429027009518
0.343132448506458
0.348189329480746
0.353649528679689
0.359587508594131
0.366137951584963
0.373320846738325
0.381109783519558
0.389407704510365
0.39807558117315
0.406908780586602
0.415686159494986
0.424095937895164
0.431862611477035
0.438783926773162
0.444638037062544
0.44927459769751
0.452397663013155
0.453789758402836
0.452811504812475
0.448909135626151
0.440342482856366
0.425676100859147
0.402977024380743
0.370337728800266
0.324540902192093
0.264332766166876
0.185688052348219
0.0978043323107667
0.00246679740059233
-0.0500085692888473
-0.0716729563470045
-0.059289977295164
-0.0436063143617093
-0.00233624241110776
0.000730728808577377
0.020213369115964
0.0078044622841149
0.0225304885347962
0.0461667866186436
0.0782798948866574
0.0969382594291744
0.10882118044063
0.116393213031627
0.122394331809894
0.126469305414535
0.129742939231221
0.132245600349642
0.134404651863958
0.136206504845678
0.137767603052256
0.139153361999327
0.140417149435307
0.14157975502218
0.142672260121941
0.143709159962181
0.144715574661268
0.145707518091032
0.146730059574725
0.147791630158245
0.14890875033494
0.15008982328716
0.151338540721613
0.152648987820995
0.154007644344238
0.155391705878629
0.156748158282186
0.158072061919455
0.159342333539777
0.160538399177205
0.161632973395795
0.1625997539161
0.163399945785486
0.164032604689315
0.164489924321738
0.164471297773855
0.165007675293905
0.165633522640985
0.166632891850878
0.167893172587503
0.169462370492315
0.171296578940625
0.173391745770817
0.175722771035386
0.178275534462125
0.181031893781504
0.183977397056265
0.18709743549342
0.190379008905258
0.193809643197314
0.197377723519408
0.201072143481786
0.204882341233249
0.20879819470864
0.212810060142377
0.216908835185745
0.221086087116154
0.225334202556943
0.229646569434871
0.234017795222463
0.238443970028588
0.242922981631732
0.247454886492764
0.252042352771159
0.256691140783395
0.261410723246776
0.266214658558712
0.271121681310611
0.276154867447437
0.281342789191643
0.286716004294334
0.292322059383083
0.298122605844642
0.304203130418672
0.310685968055352
0.315944195649401
0.320690548993125
0.325037542122262
0.32930002446385
0.333604586062784
0.338090496026955
0.342843883970337
0.347950681752957
0.353460528135928
0.359450276224491
0.366041414868445
0.373249365249489
0.381045413615839
0.389331014131364
0.397967074280466
0.406750004498596
0.415461293483844
0.423794509177315
0.431483677370821
0.438325971511179
0.444098049001858
0.448645092909036
0.451666043191045
0.45293379621966
0.451798868551364
0.447687996005794
0.438867343465557
0.423928841200133
0.400959012743665
0.368076036304775
0.322148206278503
0.262036379126568
0.184015760797346
0.0974190884219152
0.00400702304478485
-0.0473928682336316
-0.0691841166682585
-0.057468313915883
-0.0425591695880669
-0.00200982627738713
0.00103758809595332
0.0204520145580903
0.00847908535324834
0.0232808765888849
0.0466208928327326
0.0783161994728479
0.0968042028034276
0.108709037690748
0.11626849479317
0.122284642619071
0.126388482999543
0.129680360135232
0.132198342688758
0.134368763638334
0.136183257966765
0.13775564652884
0.139151125131769
0.140423601599433
0.141593900504731
0.142693075998536
0.143735285057267
0.144745022945333
0.145737243841276
0.146755231984233
0.147808025544597
0.148912237930557
0.150076655744411
0.151305625559061
0.152594344561905
0.153930586703645
0.155293699680234
0.156633373183047
0.157943064474422
0.159202081934807
0.160390142913643
0.161480272055413
0.162446276879234
0.16324991016283
0.163888996380254
0.164357111774217
0.164408333694347
0.164967507376464
0.165618551583585
0.166635785940476
0.167908225724726
0.169485066507035
0.171323155883773
0.173419588933864
0.175749804604006
0.178300326122071
0.181053364066617
0.183994812708813
0.187110288885568
0.190386996906467
0.193812618123209
0.1973756765627
0.201065180958205
0.204870669268777
0.208782098632282
0.21278988270631
0.216884953184068
0.221058886028521
0.225304049040244
0.229613778672006
0.233982588037067
0.238406420215444
0.242882952458596
0.247411953042508
0.251995707349582
0.25663946964274
0.261352065800654
0.266146194440044
0.271039494178999
0.276053476792298
0.281215186985295
0.286551423985777
0.292107097728459
0.297844892022918
0.303831275181041
0.310136429599476
0.315394805468313
0.320154967892718
0.324542471909017
0.328849168011155
0.333202170828754
0.337737908517292
0.342541782326461
0.347698812669647
0.353258199994589
0.359298663737066
0.365928352868602
0.373158588723367
0.380958207071329
0.389227267219686
0.397826727207703
0.406554205231081
0.415194056879669
0.423445144565194
0.431050921308101
0.437807635004698
0.44349028727037
0.447939395172342
0.450848393649474
0.451980126326149
0.45067444681809
0.446339215290334
0.437248209059346
0.422021733739928
0.39876754296913
0.365632846395867
0.319577626632814
0.259584768477049
0.182236808740281
0.0969903716750665
0.00556058597210651
-0.0447208304309468
-0.0665911523770133
-0.0555136786912061
-0.0413907170638314
-0.00162540653749597
0.00139597798763507
0.0207335006838205
0.00922698253481162
0.024085122684981
0.0471452292298476
0.0784074774325866
0.0967083943611191
0.108631991915395
0.116160051596576
0.122174533123559
0.126305829651131
0.129616154159471
0.132149503217772
0.134331355933434
0.136158847730651
0.137743196199439
0.139149134129467
0.14043111330395
0.141609885504496
0.142716418663357
0.143764425527477
0.144777709127323
0.14577016467861
0.146783160460755
0.147826431066137
0.148916747916529
0.15006335695549
0.151271324852803
0.152537002264182
0.15384943969618
0.155190058153153
0.156511426893791
0.157805443055048
0.159051774710087
0.160230341768586
0.161314518223242
0.162278419790636
0.163084885490164
0.163731227237903
0.164212465937191
0.164335828085849
0.164918314695255
0.165597278538937
0.166633407529828
0.167919165672614
0.16950437721403
0.171346920472605
0.173445004821476
0.175774663860195
0.178323090308633
0.181072868786624
0.184010260658372
0.18712112122218
0.190392872215061
0.193813358983261
0.197371252160227
0.201055680945332
0.204856287271986
0.208763109702125
0.212766620118788
0.216857782764095
0.221028179591432
0.225270158964012
0.229577006085381
0.233943135423228
0.238364336374976
0.242838068843157
0.247363804889667
0.251943439326518
0.256581710015483
0.261286782217066
0.266070477284601
0.270949323195939
0.275943243832658
0.281077742601342
0.286375954561285
0.291880112222573
0.297553021975748
0.303447781811827
0.309580880757717
0.314838392518069
0.319607823334458
0.324034969047471
0.328385310547545
0.332787167899031
0.337373201207608
0.342228071095914
0.347435673844138
0.353044540821416
0.359134731201951
0.365800979278727
0.373050980259966
0.380850953673174
0.38909966233626
0.397658202529021
0.406325535706134
0.414889057291382
0.423052793267576
0.430569519222522
0.437234203686109
0.442820086981997
0.447162863317431
0.44995012559575
0.450934300387334
0.449444139969864
0.444869472132285
0.435493013917632
0.419964260150564
0.396414022352381
0.36302189042467
0.316845594684278
0.256996885092156
0.180370587975332
0.0965335346365687
0.00713111568465193
-0.0420035163051655
-0.0639164100103143
-0.0534530668401792
-0.0401174724912091
-0.00118585579993892
0.0018032483499869
0.0210551437496684
0.010044501344271
0.0249305910370108
0.0477320775379636
0.0785459746374951
0.096656652198926
0.108593534047668
0.116081137650245
0.122067365056314
0.126221596690088
0.129550202449111
0.132098958683563
0.134292375759664
0.136133333088676
0.137730452231301
0.139147714159124
0.14044010743314
0.141628178760263
0.142742745978917
0.143796986151344
0.144813972127307
0.145806579741142
0.14681418088324
0.147847282481948
0.14892285605852
0.150050667651173
0.151236541529235
0.152477995827237
0.153765333012889
0.15508195799842
0.156383464920291
0.157660259783688
0.158892376787673
0.160059905082946
0.16113666546109
0.162097309105348
0.162906208770615
0.163560838725875
0.164057272622898
0.164253844214811
0.164859991014368
0.165569255921659
0.166625159949681
0.167925358393328
0.169519664791097
0.171367275826776
0.173467446442341
0.175796864009969
0.178343404384275
0.181090048203378
0.18402344063815
0.187129688424776
0.190396442264777
0.193811720010187
0.197364346121808
0.201043575517596
0.20483915806393
0.20874121590687
0.212740279911553