/*--------------------------------*- C++ -*----------------------------------*\
  =========                 |
  \\      /  F ield         | OpenFOAM: The Open Source CFD Toolbox
   \\    /   O peration     | Website:  https://openfoam.org
    \\  /    A nd           | Version:  7
     \\/     M anipulation  |
\*---------------------------------------------------------------------------*/
FoamFile
{
    version     2.0;
    format      ascii;
    class       surfaceScalarField;
    location    "20000";
    object      phi;
}
// * * * * * * * * * * * * * * * * * * * * * * * * * * * * * * * * * * * * * //

dimensions      [0 3 -1 0 0 0 0];

internalField   nonuniform List<scalar> 
30950
(
1.0108173363892e-05
-7.01317876749823e-07
1.15590682845015e-05
-1.45090679853405e-06
9.39084487811279e-06
2.1682049616881e-06
4.74561023185226e-06
4.64520814162852e-06
-3.11311970862394e-07
5.05687237648604e-06
-2.99747777024276e-06
2.68616110891422e-06
-3.4958166511499e-06
4.98365258889297e-07
-3.04785531919494e-06
-4.47946950663102e-07
-2.57513070079538e-06
-4.72728739666571e-07
-2.19188278037215e-06
-3.83251293666986e-07
-1.93895756809922e-06
-2.52925320479155e-07
-1.75918948331819e-06
-1.79767343689891e-07
-1.64361025945123e-06
-1.15578076016441e-07
-1.55290434966437e-06
-9.07042594571341e-08
-1.4989692282074e-06
-5.3933151739628e-08
-1.49132562097371e-06
-7.64161134075882e-09
-1.52548306905796e-06
3.41593178912558e-08
-1.60691460497388e-06
8.14332408647356e-08
-1.75247730435563e-06
1.45564247631578e-07
-1.97696249506686e-06
2.24486576538925e-07
-2.29940628101805e-06
3.22444943268109e-07
-2.73227986134991e-06
4.32874385350276e-07
-3.27386147214252e-06
5.41581914939763e-07
-3.88732257148809e-06
6.1346078774437e-07
-4.56072616200663e-06
6.73402639832902e-07
-5.27725712757219e-06
7.16529433586682e-07
-6.00736395454303e-06
7.30104813342832e-07
-6.71049445724704e-06
7.03128117835612e-07
-7.33969207284473e-06
6.29194957802735e-07
-7.84649665310892e-06
5.06801732186194e-07
-8.2144840369551e-06
3.67984403616888e-07
-8.49393396085186e-06
2.79446835362392e-07
-8.6371388299107e-06
1.43201661245391e-07
-8.59981627384444e-06
-3.73259071920094e-08
-8.3672164976058e-06
-2.32603293634941e-07
-7.96465185093297e-06
-4.0256833985799e-07
-7.47513710996096e-06
-4.89518597508001e-07
-7.07249428774745e-06
-4.02646808603824e-07
-6.8823996155077e-06
-1.90098744185973e-07
-7.5116281536561e-06
6.29224455615972e-07
-1.12224843008329e-05
3.71085206956666e-06
-1.49613533383026e-05
3.73886522530839e-06
-1.83979382551719e-05
3.43658148089085e-06
-2.14540264123629e-05
3.05608518755754e-06
-2.41932820275177e-05
2.73925322114429e-06
-2.66136199716013e-05
2.42033623975172e-06
-2.87630872158222e-05
2.14946633349755e-06
-3.06685243522409e-05
1.90543709337074e-06
-3.23639697276577e-05
1.69544623373901e-06
-3.38737026002471e-05
1.50973461903552e-06
-3.52203890564409e-05
1.34668903138021e-06
-3.64216313463821e-05
1.20124559302376e-06
-3.74926795373498e-05
1.07105208823083e-06
-3.84460682564584e-05
9.53393054661801e-07
-3.9292727361171e-05
8.46663711951366e-07
-4.00422491800702e-05
7.49526531346372e-07
-4.07034868571392e-05
6.61242337407603e-07
-4.12848998871532e-05
5.81417496860347e-07
-4.17949506395044e-05
5.10054904682607e-07
-4.22423835930632e-05
4.47436693066404e-07
-4.26364480413518e-05
3.9406770022362e-07
-4.29870509770538e-05
3.50605648602929e-07
-4.33048797244941e-05
3.17830892248316e-07
-4.36014971552281e-05
2.96618999384304e-07
-4.3889408302199e-05
2.87912150652028e-07
-4.41820879785051e-05
2.92680143137216e-07
-4.4493953909284e-05
3.11865903182141e-07
-4.48402587840513e-05
3.46304406483394e-07
-4.5236845543903e-05
3.96585912763768e-07
-4.56996806588191e-05
4.6283395604572e-07
-4.62440278916235e-05
5.44345831569946e-07
-4.68830687638081e-05
6.39039297855842e-07
-4.76241942006597e-05
7.41123756223692e-07
-4.84649514287681e-05
8.40755503327627e-07
-4.93842581393197e-05
9.19304997652821e-07
-5.02988812525953e-05
9.14621461238187e-07
-5.10309419545957e-05
7.32059149169135e-07
-5.14248230654115e-05
3.93879684381387e-07
-4.99002596414322e-05
-1.52456469564767e-06
-4.32602244202647e-05
-6.64003633840224e-06
-3.91376038044466e-05
-4.12262166527496e-06
-3.69854515719304e-05
-2.15215321531107e-06
-3.56791361190226e-05
-1.30631635049428e-06
-3.47441751183206e-05
-9.3496179330066e-07
-3.39484642601861e-05
-7.95711528400681e-07
-3.3139977746537e-05
-8.08487050209784e-07
-3.22300834772476e-05
-9.09894669468405e-07
-3.11562144475299e-05
-1.07386930023347e-06
-2.99557245171148e-05
-1.2004900866191e-06
-2.87694293079461e-05
-1.18629526961417e-06
-2.74503340383544e-05
-1.31909525372971e-06
-2.58658644094918e-05
-1.58446955818735e-06
-2.39663108109734e-05
-1.89955349409406e-06
-2.1755073916727e-05
-2.21123677323077e-06
-1.92538279780109e-05
-2.50124581093321e-06
-1.65098089355188e-05
-2.74401890912679e-06
-1.35482515729065e-05
-2.96155721614909e-06
-1.04529285467634e-05
-3.0953228540493e-06
-7.37501120940259e-06
-3.07791712900549e-06
-4.42470378053194e-06
-2.95030718041844e-06
-1.6784353383162e-06
-2.74626815941407e-06
8.54769319558897e-07
-2.53320435694925e-06
3.15709597288195e-06
-2.30232635774107e-06
5.2864557283491e-06
-2.12935949415658e-06
7.26937249181238e-06
-1.98291656264918e-06
9.32408089492334e-06
-2.05470824767369e-06
1.14622537027085e-05
-2.13817263374776e-06
1.36799813438442e-05
-2.21772748560259e-06
1.60058538241451e-05
-2.32587264006712e-06
1.85701744813599e-05
-2.56432107082777e-06
2.14480140660501e-05
-2.87783904808639e-06
2.48139756892372e-05
-3.36595993017499e-06
2.82046021165471e-05
-3.39062742817659e-06
3.0574017764551e-05
-2.36942029369007e-06
2.85143429745165e-05
2.0596754592597e-06
2.34598861455181e-05
5.05446491443566e-06
1.74372839728409e-05
6.02260726039003e-06
1.24286512760726e-05
5.00863047707278e-06
8.98482905926186e-06
3.44381102178628e-06
-4.22208574332706e-07
3.26090202549112e-05
-2.77424935536326e-06
3.59236327802194e-05
-4.76552962412501e-06
3.04472925015034e-05
7.64452830178192e-06
1.71004547571812e-05
1.79920226015832e-05
1.70022955674304e-06
2.04570595877437e-05
-7.68714035573329e-06
1.20735300315273e-05
-1.00362580184402e-05
2.84749669038138e-06
-9.02804755846651e-06
-1.45614949883748e-06
-7.69276409464483e-06
-1.80801390443085e-06
-6.62062602509441e-06
-1.455390836219e-06
-5.88157407800876e-06
-9.91977797857686e-07
-5.37207182714965e-06
-6.89270301121348e-07
-5.03682530744952e-06
-4.50825332733125e-07
-4.79373412857471e-06
-3.33795959435074e-07
-4.65965262585884e-06
-1.8801476854728e-07
-4.66804075913677e-06
7.46893005315564e-10
-4.80762394624797e-06
1.73743396727368e-07
-5.09774379051533e-06
3.71554504804011e-07
-5.5856884300093e-06
6.33510841091482e-07
-6.31752667999645e-06
9.56327324344189e-07
-7.3447698776575e-06
1.3496911630871e-06
-8.70082794134888e-06
1.78893590374163e-06
-1.03689946400282e-05
2.2097523067658e-06
-1.22534792423258e-05
2.49794901956291e-06
-1.43104471451671e-05
2.73037374577939e-06
-1.64910374370911e-05
2.89712213627455e-06
-1.87110378803362e-05
2.95010654907533e-06
-2.08600126384092e-05
2.85210279120793e-06
-2.28134261871666e-05
2.58260686577451e-06
-2.44541329774072e-05
2.14750523796116e-06
-2.5755426086612e-05
1.66927260335927e-06
-2.68140430089453e-05
1.33805734825975e-06
-2.75223540283547e-05
8.51504990579629e-07
-2.77630882214554e-05
2.03399611956577e-07
-2.75036159832044e-05
-4.92084845176596e-07
-2.68219290625844e-05
-1.08426486342099e-06
-2.59663704218905e-05
-1.34508679473726e-06
-2.54052518693186e-05
-9.63774570207313e-07
-2.57562496948174e-05
1.60890491048349e-07
-2.91760385080892e-05
4.04900556319726e-06
-3.95872820359739e-05
1.41220889158132e-05
-5.03855545452238e-05
1.4537132231205e-05
-6.00185006102068e-05
1.30695233553978e-05
-6.8530867370147e-05
1.15684492121873e-05
-7.60376130584721e-05
1.02459977710357e-05
-8.2627151897801e-05
9.00987564776513e-06
-8.8427824222896e-05
7.95014099190742e-06
-9.3540852152049e-05
7.01846910466346e-06
-9.80614229031912e-05
6.21602272071833e-06
-0.000102064564020381
5.51288295297981e-06
-0.000105614080900415
4.89621436980684e-06
-0.000108761358690078
4.34853279299848e-06
-0.00011154957617724
3.85927961699345e-06
-0.000114014853457113
3.41868067601192e-06
-0.000116188512401651
3.02033297433252e-06
-0.000118098354184048
2.65937830786954e-06
-0.000119770075955658
2.33297351430797e-06
-0.000121228311220062
2.03966135490491e-06
-0.000122497584909441
1.77933619927217e-06
-0.000123603017435626
1.55287570621226e-06
-0.000124570835373319
1.36189092283298e-06
-0.000125428712463744
1.20848678196483e-06
-0.000126206002298738
1.09512352910759e-06
-0.000126933869432394
1.02448773192862e-06
-0.000127645299733066
9.99342918046531e-07
-0.000128374952074142
1.02233191728822e-06
-0.000129158795344905
1.09570769370488e-06
-0.000130033434960708
1.22094176477454e-06
-0.000131034960166965
1.39810822981106e-06
-0.00013219706174758
1.62493216502102e-06
-0.000133547837376819
1.89511775435169e-06
-0.0001351046857206
2.19588374168149e-06
-0.000136864624327927
2.50105840088247e-06
-0.000138787076217347
2.7632034842787e-06
-0.000140761045393912
2.8932704204572e-06
-0.00014254884460538
2.70241715456968e-06
-0.00014358845891235
1.77167023097707e-06
-0.00014268390205145
-5.10680063741383e-07
-0.000136835751031005
-7.37271823354425e-06
-0.000122697684258117
-2.07781052864933e-05
-0.000113208900328236
-1.36114074203264e-05
-0.000108009835551562
-7.35121947368579e-06
-0.000104544168736215
-4.77198430483903e-06
-0.00010180304215108
-3.67608919201725e-06
-9.92130411891751e-05
-3.38571300956733e-06
-9.64337862200326e-05
-3.58774228433173e-06
-9.3266203510797e-05
-4.07747743346417e-06
-8.96215424141214e-05
-4.71853028598362e-06
-8.56174697451543e-05
-5.20456251946369e-06
-8.14913346057879e-05
-5.31243008088723e-06
-7.69535129270879e-05
-5.85691653880835e-06
-7.1735965509421e-05
-6.80201653666371e-06
-6.57590038541132e-05
-7.87651467863519e-06
-5.9051435794122e-05
-8.91880433988402e-06
-5.16856517529401e-05
-9.8670293419037e-06
-4.37762592073352e-05
-1.06534109322761e-05
-3.54139537724752e-05
-1.13238621218832e-05
-2.68121735881804e-05
-1.16971025117202e-05
-1.83142563150403e-05
-1.15758338925002e-05
-1.01882893867253e-05
-1.10762736338346e-05
-2.60479322667747e-06
-1.03297638974622e-05
4.39560891821695e-06
-9.53360614865682e-06
1.07908651241384e-05
-8.69758228806643e-06
1.6693634671587e-05
-8.0321288432437e-06
2.22213555317074e-05
-7.51063729491825e-06
2.78680175332131e-05
-7.70137016905223e-06
3.37316871821135e-05
-8.00184220796273e-06
3.98200662527948e-05
-8.30610649224657e-06
4.62493215159733e-05
-8.75512797753906e-06
5.33246580951831e-05
-9.63965783582165e-06
6.13520668046689e-05
-1.09052474897832e-05
7.06691214299801e-05
-1.26830137175445e-05
8.04131007849668e-05
-1.31346073079108e-05
8.7549521712694e-05
-9.50584384906416e-06
8.40798768177885e-05
5.52932067410107e-06
7.15832212707022e-05
1.75511259375097e-05
5.54127590266494e-05
2.21930734419154e-05
4.0778714199738e-05
1.96426736303417e-05
3.08471397209968e-05
1.33753761732112e-05
-1.11170495443152e-07
5.82522171496577e-05
-5.7049836208195e-06
6.28137140194608e-05
-9.32703432161187e-06
5.46471631235166e-05
1.58110653311921e-05
3.30584548678326e-05
3.95807126970039e-05
6.6440851892013e-06
4.68714029524456e-05
-1.1034032883494e-05
2.97516470276563e-05
-1.63359420666657e-05
8.14941150504025e-06
-1.51478076052077e-05
-2.64428040232184e-06
-1.30341384601996e-05
-3.92168426654636e-06
-1.13108738876801e-05
-3.17865612963156e-06
-1.00903753715947e-05
-2.21247687389025e-06
-9.255766884194e-06
-1.5238798391489e-06
-8.70139976754674e-06
-1.00519362451128e-06
-8.31708366403926e-06
-7.1811313229506e-07
-8.11894129086745e-06
-3.86157811161894e-07
-8.16705441428719e-06
4.8859974905756e-08
-8.44632955514279e-06
4.53019246090978e-07
-8.99161516729591e-06
9.1684160450369e-07
-9.88018990831272e-06
1.52208784260954e-06
-1.11904675019567e-05
2.26660794925845e-06
-1.3003796567367e-05
3.16302401392366e-06
-1.53701165940967e-05
4.15526038378726e-06
-1.8250850741176e-05
5.09049136589623e-06
-2.14957885027917e-05
5.74289178976709e-06
-2.50244068164356e-05
6.25899668865567e-06
-2.87542931563488e-05
6.62701221187232e-06
-3.25490980065923e-05
6.7449137625632e-06
-3.62362942737306e-05
6.53929965731985e-06
-3.96286462073192e-05
5.97495735572661e-06
-4.25659282280032e-05
5.08478362170147e-06
-4.50273847690453e-05
4.13072331200404e-06
-4.71351452033265e-05
3.44580990682427e-06
-4.87440451681958e-05
2.46039533160392e-06
-4.96861733774459e-05
1.14551685964797e-06
-4.99244689668949e-05
-2.53801078961782e-07
-4.95951206939861e-05
-1.41362532259035e-06
-4.91006003693333e-05
-1.83961920667493e-06
-4.91963946604994e-05
-8.67991869765248e-07
-5.12262026106014e-05
2.1906877412711e-06
-5.85890221767571e-05
1.14118156832966e-05
-7.53138762454989e-05
3.08469349852832e-05
-9.26016077913817e-05
3.18248573247564e-05
-0.000107755377395561
2.82232881612564e-05
-0.00012098700664842
2.4800075468907e-05
-0.000132504853938786
2.17638440156155e-05
-0.000142529707490306
1.90347302123151e-05
-0.000151280617927927
1.67010545434423e-05
-0.000158940828171026
1.46786845170384e-05
-0.000165666005614627
1.29412072506933e-05
-0.000171581029545954
1.14279156614857e-05
-0.000176788400844677
1.01035958371788e-05
-0.000181371339281719
8.93148243819469e-06
-0.000185399060112897
7.88701231483938e-06
-0.000188929867436046
6.94950013767649e-06
-0.000192014344509836
6.10482208708878e-06
-0.000194697641412649
5.34268681056758e-06
-0.00019702152713642
4.65687010286987e-06
-0.000199025987540246
4.0441316427731e-06
-0.000200750545343955
3.50390271390701e-06
-0.000202235218703617
3.03755646470244e-06
-0.000203521162370564
2.64784058930703e-06
-0.000204651054004325
2.33838297786025e-06
-0.000205669283141265
2.11335579839658e-06
-0.000206621940251523
1.97714659389559e-06
-0.000207556558754431
1.93396187777987e-06
-0.000208521534550931
1.98730699236645e-06
-0.000209565118503706
2.13928988778296e-06
-0.000210733812138942
2.38963276237493e-06
-0.000212069884993716
2.73417773668166e-06
-0.000213607582332183
3.16262561753115e-06
-0.000215367085250294
3.65461641814556e-06
-0.000217345368512692
4.1741625429278e-06
-0.000219500406214966
4.65609158381727e-06
-0.00022172231202007
4.98510484360277e-06
-0.000223785697123565
4.95665126305209e-06
-0.00022526826470184
4.18498074507629e-06
-0.00022520800167576
1.71140355596651e-06
-0.000221767747646298
-3.9509373536082e-06
-0.000212192779087171
-1.6947689630812e-05
-0.000194879362110057
-3.80915247143647e-05
-0.0001828271012362
-2.56636703530778e-05
-0.000175697533502933
-1.44807888652924e-05
-0.000170490905428384
-9.97861362088388e-06
-0.000165976243881174
-8.19075158028116e-06
-0.000161410522861818
-7.95143450962354e-06
-0.000156374828950077
-8.62343637025858e-06
-0.000150639341478398
-9.8129648316475e-06
-0.000144144811336831
-1.12130601625814e-05
-0.000137060847814422
-1.2288525633891e-05
-0.000129625338996969
-1.27479383860591e-05
-0.000121503618609527
-1.39786363401097e-05
-0.000112393302306145
-1.59123322015878e-05
-0.000102225405417785
-1.80444108899144e-05
-9.10579023543567e-05
-2.00863066962551e-05
-7.9006553668107e-05
-2.19183772984888e-05
-6.62341095640401e-05
-2.34258542938009e-05
-5.28986146558519e-05
-2.46593562893836e-05
-3.93169090713077e-05
-2.52788073787108e-05
-2.59508014139145e-05
-2.49419408814272e-05
-1.31702702028028e-05
-2.38568042511873e-05
-1.20284825145854e-06
-2.22971853504688e-05
9.87849272732973e-06
-2.06149467365578e-05
2.00553111448831e-05
-1.88744004204497e-05
2.94672392901925e-05
-1.74440567936469e-05
3.83255205923945e-05
-1.63689184724262e-05
4.73185498939902e-05
-1.6694399396074e-05
5.66469573649795e-05
-1.73302496285863e-05
6.63389180784261e-05
-1.79980671675622e-05
7.65919283898806e-05
-1.90081383102978e-05
8.78325664442191e-05
-2.08802959619329e-05
0.000100579817577505
-2.36524984584515e-05
0.000115248296787134
-2.73514924829244e-05
0.000130784369610964
-2.86706805944822e-05
0.000142629665469676
-2.13511415065411e-05
0.000139624675096807
8.53431146615357e-06
0.000122163884471521
3.50119207163126e-05
9.76297479271572e-05
4.67272129890334e-05
7.39672646637851e-05
4.33051557055713e-05
5.75231135813342e-05
2.98195205160589e-05
2.09044782999464e-06
8.72612780929233e-05
-8.63824510145746e-06
9.25727646528771e-05
-1.4638525483604e-05
8.2146180263974e-05
2.62376402035082e-05
5.29940388510598e-05
6.87328425279488e-05
1.50212043767425e-05
8.48442233290229e-05
-1.25696630711197e-05
5.73425105645281e-05
-2.21678699740416e-05
1.77476179577394e-05
-2.12984554903754e-05
-3.51369424964211e-06
-1.85446781085148e-05
-6.67546323491307e-06
-1.62235773021466e-05
-5.49975760237456e-06
-1.45466894904573e-05
-3.88936524373181e-06
-1.3397641957705e-05
-2.67292836028782e-06
-1.26351213630421e-05
-1.7677152306379e-06
-1.21259058303454e-05
-1.22732954689542e-06
-1.18878537918499e-05
-6.24210344828431e-07
-1.20069552619515e-05
1.6796158401677e-07
-1.24685733235064e-05
9.14638226494982e-07
-1.33239585421972e-05
1.77222856092035e-06
-1.4680648315833e-05
2.87878015960223e-06
-1.66487563523802e-05
4.23471931764361e-06
-1.93365449865762e-05
5.85081673609871e-06
-2.28034117125306e-05
7.6221318531972e-06
-2.69839647479443e-05
9.27104957644531e-06
-3.16743713611056e-05
1.0433303633028e-05
-3.67557207370115e-05
1.13403508609775e-05
-4.21104114127604e-05
1.19817067233393e-05
-4.75548914561497e-05
1.21893961908786e-05
-5.28655485970939e-05
1.18499573347956e-05
-5.78123981266847e-05
1.09218052952882e-05
-6.22190598533288e-05
9.49144148443347e-06
-6.60806783990962e-05
7.99233572014633e-06
-6.95378746823572e-05
6.90299793191093e-06
-7.24253737923633e-05
5.34788436220616e-06
-7.4552459380379e-05
3.27259096506533e-06
-7.58921436618156e-05
1.08587080730111e-06
-7.66414946614297e-05
-6.64287117127129e-07
-7.73389498365474e-05
-1.14217673707128e-06
-7.90388259383262e-05
8.31872041572334e-07
-8.38363553727041e-05
6.98820593581766e-06
-9.56555307107765e-05
2.32309811379277e-05
-0.000117906821125375
5.30982170628433e-05
-0.000140444021754852
5.43620512162248e-05
-0.000159851019209974
4.76302805422208e-05
-0.000176492581960837
4.14416349370671e-05
-0.000190751202924883
3.60224636176124e-05
-0.000202998561846007
3.12820897828677e-05
-0.00021355858687215
2.72610822548806e-05
-0.000222695910900592
2.38160132057078e-05
-0.000230624863121657
2.08701659577915e-05
-0.000237516038600951
1.8319099221984e-05
-0.00024350698831713
1.60945549337552e-05
-0.000248709324510701
1.41338289708063e-05
-0.000253215486857911
1.23931855975844e-05
-0.000257103562356869
1.08375868067018e-05
-0.000260441326493669
9.44259728557878e-06
-0.000263289318290647
8.19068925124123e-06
-0.00026570333096782
7.07089273888193e-06
-0.000267736337030274
6.07714676006993e-06
-0.00026943995752072
5.2075311853409e-06
-0.000270865473649534
4.46307937939963e-06
-0.000272064426490303
3.84679894621633e-06
-0.000273088891494831
3.36285219807006e-06
-0.000273991471138257
3.01593836699983e-06
-0.000274824985538552
2.81066267566251e-06
-0.000275641786734564
2.750763590707e-06
-0.000276492584220449
2.83810393697931e-06
-0.00027742463295911
3.07133715478629e-06
-0.000278479059956324
3.44405750060673e-06
-0.0002796869744517
3.94208933780891e-06
-0.000281063841860638
4.53948965203323e-06
-0.000282601080529102
5.19185138445836e-06
-0.000284253928891546
5.82700702046333e-06
-0.00028592199823282
6.32415699058844e-06
-0.000287416297990714
6.47940073507866e-06
-0.000288407158167571
5.94750774101479e-06
-0.00028834230004184
4.1201191695097e-06
-0.000286170379222531
-4.60520406038476e-07
-0.000280244522971785
-9.87679639498376e-06
-0.000268784736306816
-2.84074787079129e-05
-0.000251802652276342
-5.50736108028161e-05
-0.000239709817733617
-3.77565066481744e-05
-0.000231747755943981
-2.24428520811272e-05
-0.000225279138725979
-1.64472319066328e-05
-0.000219161781039108
-1.43081099834628e-05
-0.000212673823701662
-1.44393922439358e-05
-0.000205427339246194
-1.58699209495894e-05
-0.000197227252663651
-1.80130513163665e-05
-0.000188054786282223
-2.03855262732082e-05
-0.000178080479813
-2.22628317007041e-05
-0.000167487027519124
-2.33413901794079e-05
-0.00015597096212819
-2.54947011592682e-05
-0.000143283537665382
-2.85997560403055e-05
-0.000129394077150177
-3.19338707404361e-05
-0.000114383839215507
-3.50965439330569e-05
-9.83936600280439e-05
-3.79085557621036e-05
-8.16112894559136e-05
-4.02082241267425e-05
-6.42457854115936e-05
-4.20248595957851e-05
-4.66741712148608e-05
-4.28504208619878e-05
-2.93966931720729e-05
-4.2219418261888e-05
-1.281922977138e-05
-4.0434267066029e-05
2.80401045350965e-06
-3.79204250858742e-05
1.73696834103215e-05
-3.51806193099197e-05
3.08504937825376e-05
-3.23552105098507e-05
4.33864825055932e-05
-2.99800453161102e-05
5.5246519589664e-05
-2.82289554170979e-05
6.72428387006385e-05
-2.86907184168019e-05
7.96715482795216e-05
-2.97589591553264e-05
9.25987627260969e-05
-3.09252815786911e-05
0.000106284488447891
-3.26938640182904e-05
0.000121245976877009
-3.58417844011254e-05
0.000138152306336257
-4.05588277775322e-05
0.000157490881389204
-4.66900672716816e-05
0.000178109468680058
-4.92892685093274e-05
0.000194631080800958
-3.78727551621651e-05
0.000193741732468212
9.42366067705382e-06
0.000174080186093295
5.46734708974562e-05
0.000143493114102843
7.73142873704002e-05
0.000112075807219243
7.47224618362685e-05
8.92358354714186e-05
5.26594883805669e-05
6.99825882944476e-06
0.000119685917181571
-1.06964261466192e-05
0.000125136197492791
-2.00888073578204e-05
0.000112899941799852
3.8473890865434e-05
7.71148110025327e-05
0.000104517967877004
2.73731328795503e-05
0.000134585898472251
-1.17802751039928e-05
9.64959123388711e-05
-2.72674398122684e-05
3.32347777572197e-05
-2.73663467708514e-05
-3.41478841978509e-06
-2.41652733431848e-05
-9.87653854991622e-06
-2.13255189236082e-05
-8.33951279154904e-06
-1.92329171814178e-05
-5.98196768288105e-06
-1.77897257411154e-05
-4.11612090477655e-06
-1.68370395074524e-05
-2.72040250549443e-06
-1.62257730281491e-05
-1.83859686146789e-06
-1.59787449571757e-05
-8.71238811276857e-07
-1.62070683380697e-05
3.96285259176096e-07
-1.69010155326908e-05
1.60858656074792e-06
-1.81291589223784e-05
3.00037398122378e-06
-2.00290181620847e-05
4.77864230580833e-06
-2.27407026822379e-05
6.94640759189538e-06
-2.63947867205563e-05
9.50490532228101e-06
-3.10513115778524e-05
1.22786619188705e-05
-3.66119983531627e-05
1.48317419557121e-05
-4.28195750286832e-05
1.6640885890226e-05
-4.95147119101569e-05
1.80354927824041e-05
-5.65430651390849e-05
1.90100639076517e-05
-6.36794635481143e-05
1.93257969806427e-05
-7.0661905723084e-05
1.88323999329566e-05
-7.72386203021522e-05
1.74985180885861e-05
-8.3239710851572e-05
1.54925279267427e-05
-8.8681879641973e-05
1.34344981198947e-05
-9.3717577181965e-05
1.1938686987595e-05
-9.81807646598658e-05
9.81106159537013e-06
-0.000101888596351952
6.98041109399412e-06
-0.00010484582298316
4.04308507003628e-06
-0.000107317372563085
1.80724979868685e-06
-0.000109965524486358
1.50596269569443e-06
-0.000114107642482067
4.97397815701137e-06
-0.000122302662847807
1.51832154612767e-05
-0.000138280971343045
3.92092802191352e-05
-0.000164301844824595
7.91190827351594e-05
-0.000189797740170082
7.98579403678404e-05
-0.000211193107761789
6.90256435700084e-05
-0.000229109666735286
5.93581910410535e-05
-0.000244146825662441
5.10596214343241e-05
-0.000256836095328472
4.39713601248449e-05
-0.000267597954905182
3.80229442639236e-05
-0.000276764343854145
3.29824062441027e-05
-0.000284592809383049
2.86986370661201e-05
-0.000291285372691049
2.50116693733788e-05
-0.00029700193404805
2.18111241285562e-05
-0.000301871462552987
1.90033660128201e-05
-0.000306000003638838
1.65217356174813e-05
-0.000309476914499265
1.43145067051403e-05
-0.000312379466338129
1.23451579960211e-05
-0.000314776416926694
1.05876483066595e-05
-0.000316730703217116
9.02518689084838e-06
-0.00031830148033222
7.64793097088784e-06
-0.000319545576726162
6.45163378863243e-06
-0.000320518431236056
5.43593913023101e-06
-0.000321274564064779
4.60293600165617e-06
-0.000321867677894802
3.95596922829904e-06
-0.00032235041858398
3.49868124814663e-06
-0.00032277376293084
3.23400825174119e-06
-0.000323185948614697
3.16294961002362e-06
-0.000323630824674497
3.28297952687941e-06
-0.000324145461297329
3.58597260572571e-06
-0.000324756794644407
4.0553890874951e-06
-0.000325476971555462
4.66226401972305e-06
-0.000326296940072195
5.3594555911512e-06
-0.000327177423167754
6.07233167149111e-06
-0.000328036449247343
6.6860301716033e-06
-0.000328730912617268
7.01861741350142e-06
-0.000329028414253397
6.77689949479767e-06
-0.000328564404933437
5.48349569007212e-06
-0.000326793109839665
2.34882154946479e-06
-0.000322867532892486
-4.38609962677213e-06
-0.000315597957170059
-1.71463741064818e-05
-0.000303886321598884
-4.01191159854973e-05
-0.000288728618305259
-7.02313155445663e-05
-0.000277529964428385
-4.89551617617293e-05
-0.000269288052307606
-3.06847652047491e-05
-0.000261941386584348
-2.37938983715745e-05
-0.000254559078662313
-2.16904183916539e-05
-0.000246526501185729
-2.24719699758828e-05
-0.000237532007464969
-2.48644147303725e-05
-0.000227429643640696
-2.8115415043509e-05
-0.000216225629918992
-3.15895397760099e-05
-0.000204062569699007
-3.44258916092614e-05
-0.000191055052768831
-3.63489067291694e-05
-0.000176967747398869
-3.9582006098173e-05
-0.000161633133909578
-4.39343690597694e-05
-0.000145059719374546
-4.85072847731242e-05
-0.000127340063048434
-5.28161997276191e-05
-0.000108623767968768
-5.66248502848287e-05
-8.91037032730627e-05
-5.97282882474976e-05
-6.90179958867925e-05
-6.21105664020635e-05
-4.8760138973269e-05
-6.31082772091477e-05
-2.88057966859759e-05
-6.21737600184173e-05
-9.54312846439867e-06
-5.96969348145182e-05
8.78087607544652e-06
-5.62444292288898e-05
2.60436776927724e-05
-5.24434206159224e-05
4.2207873266349e-05
-4.85194058532837e-05
5.7386399823486e-05
-4.51585717082677e-05
7.18644339730106e-05
-4.27069894474406e-05
8.64820475785753e-05
-4.33083319429829e-05
0.000101612499773268
-4.48894113131828e-05
0.000117364423535401
-4.66772053197122e-05
0.000134040401634723
-4.9369842072648e-05
0.000152203460757216
-5.40048434684254e-05
0.000172611260596412
-6.0966627510502e-05
0.000195791702888424
-6.98705094967232e-05
0.000220613168409768
-7.4110734776761e-05
0.000241532323093286
-5.87919109960275e-05
0.000244207042334707
6.74894296494706e-06
0.000225229307416684
7.36512096213036e-05
0.000191544770405799
0.000110998826420881
0.00015439333460246
0.000111873897294987
0.000125832898163692
8.12199233284024e-05
1.5203419207536e-05
0.00015482781690047
-1.11078321482368e-05
0.000159795748681871
-2.50567381777109e-05
0.000146343645918543
5.19259930229211e-05
0.000105266469347552
0.000145595144514882
4.41264239257124e-05
0.000195725950551687
-8.0896532294971e-06
0.000148711981715918
-3.13005042328185e-05
5.6445619434026e-05
-3.3212803087387e-05
-1.50249229273308e-06
-2.98282712890506e-05
-1.3261072348829e-05
-2.65805814893989e-05
-1.15872034103027e-05
-2.41310101526105e-05
-8.43153988318201e-06
-2.24247211860512e-05
-5.82241115721059e-06
-2.13072214316216e-05
-3.83790342572511e-06
-2.06231826870382e-05
-2.52263649741385e-06
-2.04043683465661e-05
-1.09005353857906e-06
-2.07864250574786e-05
7.78342346722984e-07
-2.17689544598464e-05
2.5911172680087e-06
-2.34384991032353e-05
4.66992090804709e-06
-2.5961285830469e-05
7.30143227881919e-06
-2.95039447322376e-05
1.04890706657414e-05
-3.42121753386685e-05
1.42131409555353e-05
-4.01353932358995e-05
1.82018855333819e-05
-4.71343473176748e-05
2.18307021378196e-05
-5.48963234926902e-05
2.44028680864608e-05
-6.32172291699013e-05
2.63564038478109e-05
-7.19022577532609e-05
2.76950966868764e-05
-8.06878540640406e-05
2.81113958090753e-05
-8.92839390885719e-05
2.7428485437485e-05
-9.74329910892913e-05
2.56475683203177e-05
-0.000104984380214229
2.30439129747691e-05
-0.00011197604034281
2.04261519632098e-05
-0.000118565519363568
1.85281577686447e-05
-0.000124607822121478
1.58533545473056e-05
-0.000129964418796198
1.23369968688291e-05
-0.000134706448112154
8.78510289251188e-06
-0.000139188120814441
6.28891089569152e-06
-0.000144185196568814
6.50302714404829e-06
-0.000151160573092719
1.19493440315616e-05
-0.000162674052244793
2.66966849882514e-05
-0.000181670588244838
5.82058079480713e-05
-0.000208951797134023
0.000106400284872018
-0.000234520273982351
0.000105426412008809
-0.000255386945842252
8.98923117248821e-05
-0.000272514392032192
7.64856350088421e-05
-0.000286658021564634
6.52032502182986e-05
-0.000298444460701161
5.57577999509302e-05
-0.000308327355068359
4.79058406848642e-05
-0.000316653973281323
4.13090277563565e-05
-0.000323683830118112
3.57284982872432e-05
-0.000329617895020812
3.09457395508684e-05
-0.000334613085214464
2.68063202703575e-05
-0.0003387955027402
2.31857899333116e-05
-0.000342268574807747
1.99948143022568e-05
-0.000345119566385186
1.71655049112593e-05
-0.000347424097540061
1.46496956010659e-05
-0.000349249636419383
1.24131932939936e-05
-0.000350658044340382
1.04336004430403e-05
-0.000351707455337099
8.69734701691032e-06
-0.000352453556053416
7.19773889604681e-06
-0.000352950341944278
5.93272870474212e-06
-0.000353250406994132
4.90300400354925e-06
-0.000353404854233887
4.11041868721227e-06
-0.000353462847666421
3.55667618627778e-06
-0.000353470765734733
3.24192714949928e-06
-0.000353470870992477
3.16305507388131e-06
-0.000353499386544501
3.31149472705288e-06
-0.000353583832800025
3.6704180263101e-06
-0.000353739432745627
4.21098779632159e-06
-0.000353964318284625
4.88714800458759e-06
-0.000354233200444208
5.62833596393665e-06
-0.000354488899205575
6.32802849550389e-06
-0.000354631122458546
6.82825141380623e-06
-0.000354501105821216
6.88859876206214e-06
-0.0003538607848148
6.13657653237318e-06
-0.000352362340787449
3.98504981661817e-06
-0.000349526275212686
-4.87245722944427e-07
-0.000344708539008663
-9.20383734706166e-06
-0.000337050506089003
-2.4804408344589e-05
-0.000325775721286748
-5.13939019220655e-05
-0.000312226158695527
-8.37808791117164e-05
-0.00030167799668195
-5.95033246136862e-05
-0.000293181329619587
-3.91814329473144e-05
-0.00028513242872641
-3.18427997678524e-05
-0.000276761999904741
-3.00608475437263e-05