/*--------------------------------*- C++ -*----------------------------------*\
  =========                 |
  \\      /  F ield         | OpenFOAM: The Open Source CFD Toolbox
   \\    /   O peration     | Website:  https://openfoam.org
    \\  /    A nd           | Version:  7
     \\/     M anipulation  |
\*---------------------------------------------------------------------------*/
FoamFile
{
    version     2.0;
    format      ascii;
    class       volScalarField;
    location    "20000";
    object      Pk_bouss;
}
// * * * * * * * * * * * * * * * * * * * * * * * * * * * * * * * * * * * * * //

dimensions      [0 2 -3 0 0 0 0];

internalField   nonuniform List<scalar> 
15600
(
7.28635150971866e-08
9.68195903703191e-08
8.2423866167701e-08
2.59277799362429e-08
1.52576561448469e-09
3.32086956518497e-10
3.95697027105319e-10
2.31478703554084e-10
1.23033724437041e-10
5.05411421416922e-11
1.96619792078861e-11
9.91106924201826e-12
6.05288929638134e-12
4.35902631832079e-12
3.43550881542292e-12
3.12087835175058e-12
3.2059950467073e-12
3.66135191615998e-12
4.64371401590353e-12
6.5338038169803e-12
1.00740481635188e-11
1.67145888397595e-11
2.9018404846425e-11
5.03702988284829e-11
8.4819975551811e-11
1.3823037808775e-10
2.16433461326738e-10
3.23381932292347e-10
4.58131456284369e-10
6.12062575150665e-10
7.69974608838373e-10
9.27833721107448e-10
1.08207280627621e-09
1.20336261269192e-09
1.2699957579327e-09
1.27041081200432e-09
1.20987987463577e-09
1.13137406661246e-09
1.10657240553363e-09
1.1785226729193e-09
2.25709368920282e-09
5.66133633951118e-09
1.07505880848652e-08
1.79729135870811e-08
2.69430736307777e-08
3.76353948787624e-08
4.96697098430569e-08
6.28686408853361e-08
7.69397705603009e-08
9.16845808290102e-08
1.06872917521785e-07
1.2231554478782e-07
1.37819420326246e-07
1.53213052146309e-07
1.68333299511368e-07
1.83036281426999e-07
1.97196642783474e-07
2.1071509224339e-07
2.23522689118898e-07
2.35587611268306e-07
2.46920269680883e-07
2.5757824285292e-07
2.6767017435871e-07
2.77359211091238e-07
2.86865818532609e-07
2.96470486819336e-07
3.06516485495476e-07
3.17414547198758e-07
3.29649941982143e-07
3.43792858143583e-07
3.60512115469837e-07
3.80590370192536e-07
4.04923644259842e-07
4.34502876816338e-07
4.70371273196479e-07
5.13011021437074e-07
5.61566284342804e-07
6.16703322775243e-07
6.59218670829192e-07
5.90352296618698e-07
4.03789259691255e-07
3.34278309503296e-07
3.07298303371416e-07
3.00997442174195e-07
3.04081570489203e-07
3.12059194783153e-07
3.21302494250004e-07
3.29201919800968e-07
3.33985193342641e-07
3.37661542111403e-07
3.42372186073875e-07
3.41657415946707e-07
3.30461686561415e-07
3.06336735267646e-07
2.69327244036846e-07
2.21663812452456e-07
1.67316663779331e-07
1.11595235399556e-07
6.2543195996704e-08
2.6689667720097e-08
6.18905932159846e-09
1.45392092893093e-11
5.91322358607742e-09
2.18711521979013e-08
4.64977512154064e-08
8.27362279237863e-08
1.36798760369831e-07
2.14283749931271e-07
3.22237587416248e-07
4.78894776639758e-07
7.05959625403079e-07
1.05725318614225e-06
1.51850539698797e-06
1.99271433377156e-06
1.80093868675365e-06
1.1344518251341e-06
5.34792451433865e-07
2.24197613195936e-07
8.48018864718792e-08
6.25351765333748e-08
1.51432627476503e-05
1.866142883167e-05
1.55963744859582e-05
5.91603047112484e-06
6.15847630615403e-07
1.50697279855918e-08
5.42042432675689e-08
3.62396860705714e-08
2.01219755805866e-08
8.54413236954605e-09
3.41297049414842e-09
1.73853621808312e-09
1.07369278775716e-09
7.81152147727108e-10
6.26539605258244e-10
5.78451864013544e-10
6.04601688154885e-10
7.0294060037089e-10
9.05982919048647e-10
1.28931348178797e-09
1.99779749318313e-09
3.30580194823856e-09
5.6773816400806e-09
9.72196683818254e-09
1.61701032976754e-08
2.60346950471719e-08
4.03281848511697e-08
5.97642350812222e-08
8.43270525551716e-08
1.12946563184013e-07
1.4389995976776e-07
1.76745403911264e-07
2.1099766507124e-07
2.42498642327607e-07
2.6767306947755e-07
2.84342487993299e-07
2.9246166283727e-07
2.98294287516651e-07
3.16892491261759e-07
3.8590372849178e-07
6.54951924271919e-07
1.34550200811615e-06
2.32765131553595e-06
3.61289319171364e-06
5.13700695279464e-06
6.8774827811285e-06
8.77807104832129e-06
1.08076878979009e-05
1.29255132820014e-05
1.51026708172069e-05
1.73082102752314e-05
1.95167144595555e-05
2.17032686804209e-05
2.38462032183759e-05
2.59256288340674e-05
2.79246729366474e-05
2.98294207163281e-05
3.16297698043421e-05
3.3319891172623e-05
3.48989319243394e-05
3.63715054560643e-05
3.77481411542243e-05
3.9045596069325e-05
4.02870775988294e-05
4.15023387540974e-05
4.27276830754355e-05
4.40058484043934e-05
4.53859623881323e-05
4.6923517802081e-05
4.8680361211002e-05
5.07244161107172e-05
5.31282314222849e-05
5.59656868427028e-05
5.93032972542024e-05
6.31738023915055e-05
6.75310229688536e-05
7.22029044183451e-05
7.64793158253906e-05
7.81182506115938e-05
7.31362523126241e-05
5.63870270262274e-05
4.86586442198848e-05
4.56652399006584e-05
4.49040317748718e-05
4.51567276635094e-05
4.58438851953735e-05
4.65253100859718e-05
4.69067735640786e-05
4.68172796718893e-05
4.63630647227844e-05
4.57628392521953e-05
4.43859679786897e-05
4.17349706139407e-05
3.76229735333812e-05
3.21559228135401e-05
2.56690315907132e-05
1.86995706773075e-05
1.192739350637e-05
6.23864071765378e-06
2.30193942553785e-06
3.24988324102477e-07
1.76709648157648e-07
1.58695226244313e-06
4.33420703899572e-06
8.27037769024681e-06
1.38395806236417e-05
2.18849240879901e-05
3.32190734446279e-05
4.88633260469908e-05
7.12461075718847e-05
0.000103348043844863
0.000151886411612217
0.000215262002345446
0.000280412869703356
0.00026428339737596
0.000184265911968335
9.79670652066326e-05
4.57368854107246e-05
1.9891993667052e-05
1.43553614946207e-05
0.000363526502527369
0.000415369104815611
0.000339601589397652
0.000150926526211335
2.32935739938411e-05
9.97853577136734e-08
7.83200840261353e-07
6.36234696338735e-07
3.73219342670546e-07
1.64724482876827e-07
6.78503324732273e-08
3.50281176617778e-08
2.19216708529029e-08
1.61418572203916e-08
1.31972842053052e-08
1.24021923426676e-08
1.32008042753467e-08
1.56313505635806e-08
2.04718879859517e-08
2.94568189874979e-08
4.58468923520243e-08
7.56167204711693e-08
1.28412105070302e-07
2.16799831850278e-07
3.558233504268e-07
5.65434785345537e-07
8.65691911161785e-07
1.27154079651297e-06
1.78652068680129e-06
2.39987081578389e-06
3.09663737791155e-06
3.87576837548668e-06
4.73648770609285e-06
5.62252668632657e-06
6.47097525861258e-06
7.24684090513417e-06
7.94001648687537e-06
8.65358918608822e-06
9.78668466575046e-06
1.25481215949564e-05
1.91034880256006e-05
3.36671088254507e-05
5.32411431882394e-05
7.6742505433223e-05
0.000103062575813563
0.000131582340375582
0.000161464841080595
0.000192215291989055
0.000223288369257149
0.000254307489311894
0.000284897504043619
0.000314766646743256
0.00034364419019648
0.000371310962679188
0.000397579858082351
0.000422308860654104
0.000445397938379431
0.000466796525579535
0.000486505610466105
0.000504582337836011
0.000521141903102002
0.000536358934636333
0.000550467113781753
0.000563757321339851
0.000576573416231392
0.000589305633618063
0.000602380147188974
0.000616246535376454
0.000631361021780385
0.000648164047828965
0.000667046545655121
0.000688294423686635
0.000712012296287594
0.000737966765990548
0.000765295145063842
0.000792406285012534
0.000816288380927191
0.000829643539723485
0.000827810671167676
0.000824881018532966
0.000724023869289432
0.000657075912078871
0.000630175716294348
0.000621361542897134
0.000620807077280959
0.000622525720476887
0.000622335504224485
0.000617490467997839
0.000606065144364576
0.00058729777527047
0.000563097228374302
0.000529238244242696
0.00048200803500558
0.000420700580224967
0.000347475951581973
0.000266707434388271
0.000184919940882649
0.000110040186021639
5.09365671179081e-05
1.39740092449063e-05
1.517418943797e-06
1.26375553401061e-05
4.48015045481575e-05
9.61037760726126e-05
0.000165433304730742
0.000259863544841994
0.000391595886539367
0.000573552881963991
0.000821861619419339
0.00117065519378259
0.00166300182672225
0.00238423649788306
0.00331404993034614
0.00426631253167299
0.00420371717282306
0.00325924306419022
0.00197618369286487
0.00103904087554367
0.000516724015355366
0.000373809886369793
0.00312694303666442
0.00332315166114324
0.00265342369886686
0.00134509641409123
0.00028203582998668
6.93034413602077e-06
3.59691646221227e-06
3.96382496157586e-06
2.50000844289741e-06
1.15645394837057e-06
4.9387783119668e-07
2.59280179491475e-07
1.64794176936921e-07
1.2305371906184e-07
1.02704183820643e-07
9.83634864945083e-08
1.06678282808475e-07
1.28640125776478e-07
1.71070718447137e-07
2.48571804492766e-07
3.87965640800049e-07
6.36584588990644e-07
1.0671354169435e-06
1.77311401122991e-06
2.86494247225563e-06
4.48203766789817e-06
6.76431701466942e-06
9.82154533270523e-06
1.37068183832092e-05
1.84203693300926e-05
2.39753974328546e-05
3.04131252415057e-05
3.78177184819652e-05
4.60085155050538e-05
5.46915226884532e-05
6.36365746330003e-05
7.28727017914841e-05
8.30351716411836e-05
9.71342253227796e-05
0.000123260144998829
0.000167579639334343
0.000256534329756969
0.000365616763759419
0.000482474609406161
0.000602052221266444
0.000721464566127858
0.000837967417683076
0.000950336273246366
0.00105729603977637
0.00115826029990552
0.00125264278274586
0.00134016891629417
0.0014206171615511
0.00149393346892325
0.00156014356197042
0.00161939131985245
0.00167191087901994
0.0017180370251612
0.00175819352635367
0.0017928906565511
0.00182271396974872
0.00184831290155199
0.00187038454526116
0.00188965295962732
0.00190683976185901
0.00192262553891189
0.00193759438606077
0.00195216719703765
0.00196651652243723
0.00198046240884302
0.00199334228618689
0.00200385254416508
0.0020099047477925
0.00200844426223383
0.00199546887349327
0.00196756958304714
0.00192373843521798
0.00187151268021561
0.00188045623565655
0.00205785413697399
0.0020757074900442
0.00199393973834569
0.00195239626701024
0.00192574209522513
0.00190704967698941
0.0018866388249702
0.00185855663864593
0.0018175981336267
0.00175664729773387
0.00166626269897533
0.00154939041720777
0.00140700933412824
0.00123623149678086
0.00103888907011517
0.000822233578070099
0.000598643334861395
0.000386049267222788
0.000205746830980834
7.88591108796107e-05
2.28182759096415e-05
5.04276962211738e-05
0.00016804369219481
0.000377470021759063
0.000680993188180004
0.00108331608483928
0.00161913970804831
0.00234428666660469
0.00332709650570135
0.00465204864893555
0.00646940191361531
0.00897007245035643
0.0124657989344973
0.0168387113884396
0.0212456963345131
0.0218647546306679
0.0188873932231541
0.0132234948270399
0.00797969059235171
0.00456428436113352
0.00340792652698706
0.0145175339604879
0.0144781559383339
0.0113745238410233
0.00647399617082171
0.00177055614726929
0.000104903796017327
7.42508914355215e-06
1.37450484877901e-05
9.589105459959e-06
4.70356498795461e-06
2.09708325988738e-06
1.12413603877606e-06
7.2738140038117e-07
5.51990045758018e-07
4.7098431779457e-07
4.60181712875236e-07
5.08632594731306e-07
6.24211236343427e-07
8.4161798178758e-07
1.2321358319809e-06
1.9227790461942e-06
3.12756236241529e-06
5.1566500699665e-06
8.39832077732928e-06
1.32921151041287e-05
2.0354041580929e-05
3.0080288776352e-05
4.28502119814297e-05
5.8890885899089e-05
7.83583063393084e-05
0.000101492841516999
0.000128383278071925
0.000159507914162476
0.00019481307633119
0.000233877781899837
0.000276248333225222
0.000322182763110333
0.000373727488516173
0.000437853159606888
0.000529567066333619
0.000641593700301826
0.000845024430463088
0.00105691409291228
0.00124699942874325
0.00141288497674069
0.00155631117651184
0.00167837445645509
0.00178193804287366
0.00186858515009715
0.00194039114769348
0.00199877175995114
0.00204523146669968
0.00208098851900018
0.00210723977879917
0.0021250519755829
0.00213544575427006
0.00213936420454265
0.0021376927469349
0.002131243633747
0.00212075202488216
0.00210686076825147
0.00209010618016807
0.00207089920992779
0.00204950282410053
0.00202600075127086
0.00200025990650103
0.0019718790153121
0.00194013509196313
0.00190392865912922
0.00186174334911659
0.00181163874418653
0.00175132456557376
0.00167841124456161
0.0015909372450249
0.00148865982323453
0.00137690578628909
0.00127146372163933
0.00120889151989671
0.00130213110923058
0.00167489190565867
0.00195663854732241
0.0019703111838934
0.00195144851225249
0.00190618840656818
0.00185221750994166
0.00178931531035346
0.001718815265243
0.00163791382747016
0.001537304747959
0.00140203348506798
0.00123758949120005
0.00106139986389082
0.000878554107426995
0.000694144362328186
0.000515387090863339
0.000353171835889637
0.000222426611427931
0.000138915450691213
0.0001194247870612
0.000189908738419197
0.000384550470426566
0.000740336848237069
0.00129769541770937
0.00209664894530891
0.00318876421189823
0.00465438912245121
0.00661062375406834
0.00923436184158953
0.0127449697736548
0.0174363588232476
0.0236666547570064
0.0318207847329187
0.041498206727648
0.0510083294045671
0.0550943638071804
0.0535485806906976
0.0439486192684772
0.0310731959050322
0.0206578322400545
0.0163376304534795
0.0418190250517955
0.039668195571196
0.0312136398462791
0.0199236218384276
0.00701337687152252
0.000744429514869247
8.28435567728988e-06
3.15943415240083e-05
2.56525270445682e-05
1.35868381106833e-05
6.38686603531072e-06
3.51476501446764e-06
2.32207392704542e-06
1.79512700268323e-06
1.56776866221261e-06
1.56354191959603e-06
1.7603463209372e-06
2.19508103933416e-06
2.99238042229565e-06
4.39696850432487e-06
6.82643104430943e-06
1.09416683418776e-05
1.76269721868694e-05
2.79237903650314e-05
4.28847064341123e-05
6.35642652827845e-05
9.07895126869733e-05
0.000124969573360259
0.000166181928013878
0.000214482894821996
0.000270000568813138
0.000332065855176176
0.000401630458711529
0.000479553341074065
0.00056641452965897
0.000663017384404556
0.000770280495723144
0.000889430264071861
0.00102322834315073
0.0011661819553005
0.00126603955104303
0.00141992764565625
0.00153152689271851
0.00159345384176216
0.00161972754212681
0.00162418618535934
0.00161347432666059
0.00159339610019629
0.00156659554674221
0.00153535891419534
0.00150089198190364
0.00146423321275809
0.00142605342400899
0.00138692356869786
0.00134726746744536
0.00130743526698883
0.00126769230317073
0.00122823552133691
0.00118918786093006
0.00115059842760937
0.00111243685749349
0.00107458869642496
0.00103684982287376
0.000998920885817884
0.000960400119602188
0.00092077825501688
0.000879434929188309
0.0008356472405624
0.00078861765494814
0.000737538046946673
0.000681707061999867
0.000620742318273864
0.00055493095059935
0.000485768461478613
0.000416873492896228
0.000356206996940893
0.000317134382016123
0.000323235824663419
0.000443425864132156
0.000757503774827261
0.00101798203728904
0.00104984310504271
0.00103479040642049
0.000982594564750621
0.000917915437605174
0.000845224042479513
0.000769397175826664
0.000690271289303951
0.000602972363131984
0.000501616833326628
0.000398801352985326
0.000313048137448481
0.000249788516670883
0.000212441793794086
0.000203856363996372
0.000227482906511643
0.000286207464195978
0.000378745407619307
0.00051245196838983
0.000718200251089526
0.0010422504033831
0.00154296387248431
0.00230255861997178
0.00340998414705609
0.00499643407165305
0.00717921984347829
0.0100960975768499
0.0140070937028786
0.0192459173425872
0.0260979169474231
0.0348476795020103
0.0453846664033419
0.056946571504168
0.0678712352763966
0.0775858748221567
0.0868867523266771
0.085437620763187
0.0720288502017629
0.0559605944984762
0.0475075504843638
0.0805759472599673
0.0737146846300869
0.0590717393147141
0.0425125581504159
0.0191800313968763
0.00326826160773307
4.1410029202975e-05
4.98665150430283e-05
5.21028802354155e-05
3.07116106544593e-05
1.5454395230699e-05
8.79879862357087e-06
5.95750474662302e-06
4.70389798742982e-06
4.2085776775677e-06
4.28305776885104e-06
4.90407380918406e-06
6.19439127921473e-06
8.49866595708855e-06
1.24573202201852e-05
1.90935555498824e-05
2.98809269281472e-05
4.65464276090355e-05
7.08483649227206e-05
0.000104047269671748
0.000146782849222607
0.000198809612121334
0.000258990188405049
0.000325999843023306
0.000399111226502703
0.000477957076547971
0.000560959059936566
0.000650315729622256
0.000749622113060308
0.000862295483304589
0.000991346103465816
0.00113766474368015
0.00129659518458083
0.00145197706338856
0.00155949401465975
0.00152641491661324
0.00146264256598548
0.00136773029400016
0.00126197059946388
0.00115702097353664
0.00106141140668995
0.000975433065584967
0.000899117470938858
0.00083098403994434
0.000769942581350023
0.00071482620137081
0.000664762778808257
0.000619001174085829
0.000576954399495106
0.000538131367663588
0.000502124190708288
0.000468577572806436
0.00043717381117205
0.000407617970439774
0.000379628944672454
0.000352932531327098
0.000327257751248659
0.000302336196308051
0.00027790444532919
0.000253709215552121
0.000229516738930774
0.000205127679173591
0.000180402088046925
0.000155297507753777
0.000129925311605491
0.000104624980003582
8.00627960675702e-05
5.73409297658467e-05
3.80883180002382e-05
2.45151132591595e-05
1.95993953780275e-05
2.67420856997743e-05
5.37248155131476e-05
0.00013064830250723
0.00029861123728147
0.000435477912391675
0.000446564550927837
0.000429556312551405
0.000386492468026536
0.000336689435237603
0.000284454586104764
0.000234726982165707
0.000189057156062907
0.000147605577667796
0.000114048508067693
0.000103728838854177
0.00012773462151423
0.000188075879379273
0.000284838154432911
0.000416457783319957
0.000579891888612239
0.000767876923505523
0.000965801717922452
0.00117578056437676
0.00143023215991157
0.0017747318600261
0.00226411768192847
0.00298510729559744
0.00403029723214643
0.00555429226608225
0.00766317376180481
0.0104452807469473
0.0141311561584149
0.0190469758877808
0.0253297332295723
0.0330185691473098
0.0413643114394429
0.0494395194000288
0.0562275369102357
0.0674639431262654
0.089161479156338
0.107877714096079
0.110051318778483
0.0998200781948173
0.0910592521621972
0.113762325884975
0.101619316004624
0.0832393809275046
0.0673402240115582
0.0385312841935752
0.00991229831946473
0.000363926984076864
4.86601940798861e-05
8.1881246101193e-05
5.66936598902479e-05
3.13026448361806e-05
1.86549719683934e-05
1.30115630852367e-05
1.05228519805991e-05
9.64860496649552e-06
1.00064483274488e-05
1.16153943477469e-05
1.47870269946554e-05
2.02769397663159e-05
2.93879675101152e-05
4.39922260856389e-05
6.63863817476441e-05
9.86048351957001e-05
0.000141938403256781
0.000195843202291104
0.00025812025863399
0.000325475414603345
0.000394589266202924
0.000463819792645511
0.000533852473355436
0.000606187101715501
0.000680503506802311
0.0007610527414166
0.000854194907723011
0.000964776750201186
0.0010951052001778
0.0012419664396881
0.0013900807423247
0.00150386391894878
0.00151862146379783
0.00134510530260288
0.00111962264853423
0.0009259080386641
0.000767543054676117
0.000639203200815568
0.000537093093040002
0.000454756460816331
0.000387827570227043
0.000332589509216424
0.00028645658362249
0.000247457127341047
0.00021416235334571
0.000185489614219138
0.000160617571816212
0.000138904697794741
0.000119840678897358
0.000103010306902184
8.80699535428205e-05
7.47324233096605e-05
6.27580353352588e-05
5.19502628965055e-05
4.21552539943398e-05
3.32648448493898e-05
2.52223739036054e-05
1.80308045599254e-05
1.17627827146773e-05
6.57255811591923e-06
2.709352469812e-06
5.29991840668976e-07
5.06110719495817e-07
3.21567797804318e-06
9.29960375778491e-06
1.93456396292058e-05
3.36443861224003e-05
5.18090663856964e-05
7.18865645574167e-05
9.04388402971717e-05
0.000107058667862528
0.000128506967463926
0.00016373246063628
0.000187910650663611
0.000175471049978581
0.000156960613868719
0.00012737753323447
9.8476913050466e-05
7.3467900343412e-05
5.66829577135743e-05
5.09122789996847e-05
5.99366625059479e-05
9.37963840380731e-05
0.000167739755774954
0.000285955791902127
0.000447552676386323
0.000649779013019379
0.000887480474246626
0.00115253371174525
0.00142979435127676
0.0016945205547136
0.00194544760991857
0.00221589847844166
0.00254880354738688
0.002990247593482
0.00361640122581442
0.00449999962955187
0.00577207799992518
0.00749466727199978
0.00967097847151246
0.0124237020412233
0.0159756070194122
0.0203045097178344
0.0252668984356066
0.0298449651990317
0.0331496116607315
0.0345404671893756
0.0413305115797477
0.0644585952008995
0.097827793456906
0.122169641095205
0.129213954395486
0.126612482041825
0.129960672107812
0.114755244347981
0.0954426961330669
0.0852486626494772
0.0605788183386138
0.0222690639562787
0.00181667367437044
2.45701460851457e-05
9.49993155709208e-05
8.59361165341542e-05
5.42697874498985e-05
3.44838157865903e-05
2.49638099572991e-05
2.07470530209609e-05
1.94917007199318e-05
2.05434721009705e-05
2.40555150798205e-05
3.06419999776846e-05
4.16034133053883e-05
5.89466668902679e-05
8.50629220713825e-05
0.000122024260167722
0.000170240589136355
0.000228166437495881
0.000291365517471959
0.000354230132938416
0.000412242085297859
0.000463788075856094
0.000511097520731116
0.00055888019603723
0.000611131582832225
0.000668227495781909
0.000734247434059232
0.000815278637286687
0.000914375300860328
0.00103018289028166
0.00115334885445016
0.00125965626143555
0.0013067018355505
0.00123891142909174
0.00100098108685126
0.000741091274074479
0.000552594914288976
0.000414278058519398
0.000311459319695271
0.000235334569824795
0.00017787692922203
0.000134135407411929
0.000100419831724583
7.42731616711411e-05
5.3923409000889e-05
3.81178987206053e-05
2.59359706147988e-05
1.6693858044751e-05
9.87210558278285e-06
5.07088348591348e-06
1.98002857958453e-06
3.60370982203619e-07
3.29600396652441e-08
8.74074010132097e-07
2.81473147536304e-06
5.8435562185329e-06
1.00117104627942e-05
1.54387221118083e-05
2.23180823606616e-05
3.09214044436373e-05
4.15992405265612e-05
5.47747965009492e-05
7.09250717171862e-05
9.05383783840376e-05
0.000114035348741987
0.000141619385323053
0.000173016239752269
0.000207043111738203
0.000241117196482329
0.000269833591551637
0.000285443755660151
0.000283445176361182
0.000256221712174202
0.000184586921426109
0.000116791546114097
8.15774425947359e-05
6.03649301349994e-05
4.29270521379707e-05
3.36410716735303e-05
3.45523148659903e-05
4.93130273638524e-05
8.166212076887e-05
0.000137932704015808
0.000232624855974869
0.000380458350161508
0.000580576793643753
0.000830062666909932
0.00112391588129987
0.00145400716332696
0.0018079638372254
0.00216402919369974
0.00248892896605054
0.00277886932345212
0.00306906988132026
0.00340198162463983
0.00381893335416464
0.00438848813312282
0.00516778142412257
0.00626359181055861
0.00770500595142047
0.00942931098409207
0.011460372820257
0.013921935331626
0.0166884162599019
0.0195377799709797
0.0214516399540817
0.0216269878270162
0.0195134625207467
0.0207596760670517
0.0367918457979058
0.0703391657679339
0.107929886166663
0.133232860499371
0.14089836553107
0.129748642286009
0.114720195886205
0.0962466630570909
0.0923586710285558
0.0793853236780378
0.0394321989310844
0.00594868152219971
9.5399939674254e-05
6.81611619607061e-05
0.000103624101038791
8.0471057507985e-05
5.61578607480172e-05
4.26848882431937e-05
3.66098280617504e-05
3.52179120081046e-05
3.75683496638865e-05
4.40783355289141e-05
5.5670021167864e-05
7.40179533917558e-05
0.000101264942438192
0.0001390455706317
0.000187194528344434
0.000242403261880483
0.00029944437081488
0.000351564907151484
0.000393730077429255
0.000425083225782735
0.000449155504906349
0.000472363528018461
0.000501170402218865
0.000539214905792065
0.000585540725328003
0.000642239083542234
0.000713328652104514
0.000799031856696404
0.000894216151344206
0.000985044579669251
0.00104440404642251
0.00103583728788072
0.000927082332265537
0.00069474057534672
0.000470257046562783
0.000322153917906224
0.000220645618844963
0.000149583840270605
0.000100654633925803
6.65541565794824e-05
4.32072467378703e-05
2.75497390691589e-05
1.7647911420958e-05
1.2103138850962e-05
9.95588358304192e-06
1.05058230074648e-05
1.32472036410559e-05
1.78062268015781e-05
2.39099574337194e-05
3.1362745205307e-05
4.00338996783475e-05
4.98504671106504e-05
6.07954926679438e-05
7.29105085925713e-05
8.63005935102176e-05
0.000101139514999476
0.000117673184734883
0.000136220185848856
0.000157166840679844
0.000180955143272368
0.000208056074224089
0.000238922187452749
0.000273904515078284
0.000313120935407179
0.000356235945060756
0.000402118014759787
0.000448312984353838
0.000490575680677165
0.000521155038727547
0.000529336991853759
0.000508028386671262
0.000440215990359212
0.000282531623422183
0.000138205704705796
8.0284607514276e-05
5.43291054783202e-05
4.65451958370154e-05
5.44116231815449e-05
7.88487428846513e-05
0.000122811282427508
0.000190818099387332
0.000291164058272528
0.000441853791479468
0.000657328663359218
0.000933125999327806
0.00126490455027971
0.00164577877688037
0.00206499136050305
0.002506325302159
0.00294209625373772
0.00333146922486853
0.00366870232925662
0.00399196542279748
0.00434542630008099
0.00477008406152171
0.00533249728799461
0.0060832510674984
0.00711637444540519
0.00844752947820688
0.00997737834588
0.0116651123893988
0.0135744092037705
0.0155295791862044
0.0172883562610702
0.0178928215464446
0.0165789860183867
0.0127628578548472
0.00999284545836072
0.0181383169714953
0.0437492677144376
0.0819325876861287
0.117875773779839
0.135430107709703
0.118868640263817
0.106493377807361
0.090027827243276
0.0902733500260778
0.0914148368012429
0.0583278378062605
0.0142395049662673
0.000656431320109929
1.3542343536082e-05
9.10610609183305e-05
9.9698665258411e-05
8.0181342107552e-05
6.51551976717526e-05
5.80247937261645e-05
5.71227691744366e-05
6.13767402779721e-05
7.1606794563502e-05
8.8807587393142e-05
0.000114400225949675
0.000149508535015923
0.000193421735261812
0.000242446096991429
0.00028986477777874
0.000329509919256447
0.000356932571930662
0.000371710218292079
0.000377956563176631
0.000382431264079901
0.000392075568009866
0.000411918592894423
0.000443712844163038
0.0004849916040435
0.000535907228203095
0.000598368140852138
0.000670282425765961
0.000744080065087687
0.000804424351594683
0.000826840297479176
0.000786560157417332
0.000672928242027749
0.000480162078789808
0.000308664111810526
0.000202499505973818
0.000134924729507462
9.09041457850304e-05
6.43570508857813e-05
4.90132520313063e-05
4.18818685900024e-05
4.04869593637785e-05
4.33982247375821e-05
4.95356184202495e-05
5.8194867262764e-05
6.88589553516367e-05
8.11727373432161e-05
9.48849912830988e-05
0.000109831136873878
0.000125913541439272
0.000143094234208982
0.000161389477133887
0.000180869941162311
0.000201665294110477
0.000223970606841194
0.000248051141236456
0.00027424195776708
0.000302940069440144
0.000334592351025515
0.000369670261570221
0.000408624978393821
0.00045181559150807
0.000499393138435695
0.000551133502754587
0.000606171423425963
0.000662616870654132
0.000716971918785613
0.000763734114733088
0.000793437176954146
0.00079314725328523
0.000753396611514438
0.00065091128619026
0.00042261106543432
0.000213143783485327
0.000132286868206784
9.95301474585471e-05
9.90406009135107e-05
0.000121860253713046
0.000167839255574071
0.000239213576175862
0.000341200636408299
0.000483755205520985
0.000687848488728257
0.000967937113851686
0.00131695728705615
0.00172953323765683
0.00219709101691434
0.00270642318525531
0.00323764742718751
0.00375756599976579
0.00421854642542291
0.0046133861534472
0.00498393246277448
0.00537762293891064
0.00583837353640797
0.0064350578940973
0.00721868349979262
0.00828007109165843
0.00963471005859142
0.0111668136337527
0.0127964547950527
0.0145557572208644
0.0162460034100192
0.0176206626384076
0.0177521283001306
0.015847623329141
0.0112260973062767
0.00580453951833474
0.00810975487816704
0.0251181679385411
0.0568511287284386
0.0945594971040979
0.118376287312202
0.103048232575605
0.0943343982883849
0.0806203492396932
0.0825997861546562
0.0961476567387902
0.0756338529033797
0.0269185152222715
0.0024024708348054
2.65900598682368e-05
4.59881030092696e-05
9.80940663900217e-05
9.85183032526828e-05
8.80476402427344e-05
8.22086443261404e-05
8.28837625174985e-05
8.9324238950648e-05
0.000102920408234135
0.000124338807921334
0.000153968105367921
0.000190953476087694
0.000231738783621186
0.000270048316790919
0.00029869408893131
0.000314389856418972
0.000317626877567304
0.000312249709938083
0.000304448883397779
0.000300622957083897
0.000305793227297878
0.000322839101779694
0.000352078954004396
0.000390326691884013
0.000436406544422801
0.000490609464040716
0.000549398599201283
0.000604295116651516
0.000640973603779799
0.000640444225060781
0.000589262262897773
0.000490753622705757
0.0003459903313785
0.000224216090917349
0.000153552746185531
0.000114098192398163
9.20734076156042e-05
8.3774331037432e-05
8.3734189959079e-05
8.99324581205196e-05
0.000100335664290728
0.000113932240597898
0.00012988552015011
0.000147697200908031
0.000166994177123732
0.000187543837934549
0.000209195369999801
0.000231875138126883
0.000255568476389794
0.000280316101940949
0.000306208956192454
0.000333389215146356
0.000362056520091575
0.000392476046967856
0.000424983181654655
0.000459971226695328
0.000497887171425434
0.000539204055631319
0.000584386168977464
0.000633827172588047
0.000687758909496119
0.00074611468001119
0.000808332660411914
0.00087306229120898
0.000937758624918324
0.000998055041153167
0.00104743924210092
0.00107510970927866
0.00106626964979144
0.00100882634592675
0.000875491890254924
0.000588307368794961
0.000322783443955101
0.000218847048488584
0.000177525537794669
0.00018235125192214
0.000218383238951695
0.000284474102846833
0.000382122180831387
0.000517218442507212
0.00070122560503395
0.000957706379365891
0.00130132307164252
0.0017231259236984
0.00221696006026785
0.00277265981199595
0.00337465526399609
0.00399947692444497
0.00460872769851649
0.00514871188015111
0.00561125871739538
0.0060423258057554
0.00649369081958469
0.00701442093697672
0.00767866896807128
0.0085424802802382
0.0096995507138315
0.0111723589241784
0.012840427110065
0.0145997064239411
0.0164649526106992
0.0182221297971322
0.0196140533301479
0.0196909338349854