/*--------------------------------*- C++ -*----------------------------------*\
  =========                 |
  \\      /  F ield         | OpenFOAM: The Open Source CFD Toolbox
   \\    /   O peration     | Website:  https://openfoam.org
    \\  /    A nd           | Version:  7
     \\/     M anipulation  |
\*---------------------------------------------------------------------------*/
FoamFile
{
    version     2.0;
    format      ascii;
    class       volSymmTensorField;
    location    "20000";
    object      tauij_B;
}
// * * * * * * * * * * * * * * * * * * * * * * * * * * * * * * * * * * * * * //

dimensions      [0 2 -2 0 0 0 0];

internalField   nonuniform List<symmTensor> 
15600
(
(7.10116798828512e-07 -1.82291713450631e-09 0 7.10127521027768e-07 0 7.10123103772374e-07)
(7.32591419332859e-07 -2.13440647821512e-09 -3.29665340837428e-33 7.32605126993756e-07 -2.71717596831218e-31 7.32596628474375e-07)
(5.87829817678094e-07 -1.75991897017937e-09 -1.71246853827773e-29 5.88110045571936e-07 -7.63790345172556e-31 5.87970787712138e-07)
(3.93113109999355e-07 -7.93426553918512e-10 9.48395849928087e-28 3.93449538035425e-07 -5.14606943043345e-28 3.9328080068404e-07)
(2.07464701828933e-07 -1.33257282856275e-10 6.19110165701542e-30 2.07567595830192e-07 1.15317921761879e-31 2.0751540435371e-07)
(8.68005623862228e-08 3.34144961706077e-11 2.31653567241002e-28 8.6746891996795e-08 1.01601228558699e-27 8.67731348262557e-08)
(3.17343917691233e-08 1.7882044275552e-11 -2.67180155433417e-28 3.16911518496812e-08 -2.41521970958412e-28 3.17126132055835e-08)
(2.13573245467676e-08 8.78666300048756e-12 3.95916483181658e-28 2.1326601626458e-08 6.31072191594468e-28 2.13418778097039e-08)
(1.70442663214867e-08 4.50540387408256e-12 -3.45331537403057e-28 1.70225035563149e-08 -5.37035078627926e-28 1.70333322875238e-08)
(1.02318948154514e-08 1.79952973437507e-12 -8.52800239938336e-29 1.02203239222921e-08 -1.15781517343625e-28 1.0226082390492e-08)
(5.81321775493714e-09 7.01452426505827e-13 -2.65429688292499e-29 5.80742285044507e-09 9.0130745227675e-30 5.81030917708544e-09)
(3.95512730023738e-09 3.55736824389083e-13 -1.00451682853966e-28 3.95151728571021e-09 -1.12583136741694e-28 3.95331578523806e-09)
(3.17878862403606e-09 2.29910315700467e-13 -2.1771030433431e-28 3.17609787665544e-09 -2.54704848024602e-28 3.17743928567978e-09)
(2.87001292858899e-09 1.86666157934647e-13 5.26045199300271e-29 2.86770395031005e-09 5.53971101635628e-29 2.86885543854843e-09)
(2.81042909294139e-09 1.80989270559175e-13 1.04412995038215e-28 2.80827031370464e-09 1.15567862757954e-28 2.80934778601058e-09)
(2.96039938687567e-09 2.06041940321361e-13 2.36036049015009e-28 2.95815619110116e-09 2.90600988520448e-28 2.95927668049464e-09)
(3.31506246866859e-09 2.53635940297253e-13 3.77428399610959e-28 3.31251799317064e-09 4.61831998481482e-28 3.3137900481811e-09)
(3.87264834316685e-09 3.29734954977259e-13 7.27734329818151e-29 3.86955267832093e-09 1.25762901763722e-28 3.87110153955722e-09)
(4.6830196471273e-09 4.51687940343783e-13 3.90802570942548e-28 4.67899544737133e-09 4.9564118746918e-28 4.68101044009707e-09)
(5.83319586802036e-09 6.52085595018131e-13 -9.0368844047055e-28 5.8276207797496e-09 -1.1460964887222e-27 5.83041391444174e-09)
(7.44418339246625e-09 9.85455087395286e-13 1.05937437719468e-28 7.43602150786266e-09 -7.40205124267862e-30 7.44011213697212e-09)
(9.68087670225355e-09 1.54405436147583e-12 -4.01053674829112e-28 9.66839427977093e-09 -4.62994785401645e-28 9.67465072017544e-09)
(1.27392638602797e-08 2.46997926756275e-12 -1.17541423255524e-27 1.27196641436837e-08 -1.28784766748264e-27 1.27294863317846e-08)
(1.6811933931884e-08 3.94905545625266e-12 3.41526554670811e-28 1.67811769029558e-08 -3.0422239645856e-29 1.67965842567229e-08)
(2.20730894227246e-08 6.33130904313554e-12 -3.6606232857318e-27 2.20257342675677e-08 -5.41463059346982e-27 2.20494481311416e-08)
(2.87733463126426e-08 1.02109877636176e-11 6.83489021059661e-27 2.87019875203946e-08 9.6362006913347e-27 2.87377090711241e-08)
(3.71619956315559e-08 1.6431386019207e-11 5.39176544756079e-27 3.7057319833412e-08 8.15878820904166e-27 3.71097037779388e-08)
(4.74221199737147e-08 2.61474814158849e-11 6.82804568873317e-27 4.72735131769104e-08 1.16154732274607e-26 4.73478644155814e-08)
(5.96299216174514e-08 4.07867250388873e-11 -7.27182569473843e-27 5.94269743476323e-08 -1.07609942821522e-26 5.95285007375187e-08)
(7.37078127932346e-08 6.18656154620461e-11 1.45205378898369e-27 7.34428371563688e-08 -7.82013033017066e-29 7.35753982511911e-08)
(8.94315730788358e-08 9.07009288108593e-11 2.01884675136925e-27 8.91023727246895e-08 -3.55839594643203e-28 8.92670988646044e-08)
(1.06636484048184e-07 1.28821513573542e-10 1.8293082913172e-26 1.06245377659702e-07 2.59171968494661e-26 1.06441186430428e-07)
(1.25285972080625e-07 1.76286500237521e-10 -9.47356910931931e-27 1.24840173855914e-07 -1.58814481041638e-26 1.25063477843653e-07)
(1.44447011408933e-07 2.29676452882208e-10 -2.46322015290375e-24 1.43966062779963e-07 -5.73848680842256e-24 1.44207143088808e-07)
(1.63031614781964e-07 2.8375958216463e-10 -2.67871667245831e-24 1.62545250494287e-07 -7.22841130816638e-24 1.62789265436155e-07)
(1.79747872352633e-07 3.31646748393901e-10 1.30235936911976e-26 1.79291658943579e-07 3.17821998262482e-26 1.79520827828372e-07)
(1.92702633255605e-07 3.66227802038787e-10 -1.6517307085564e-26 1.92310914564157e-07 -3.58554107575605e-26 1.92507989524664e-07)
(2.01121312198796e-07 3.87791904340524e-10 8.7885876072354e-25 2.00815127738364e-07 -1.11027170207211e-25 2.00969494586308e-07)
(2.08167641605236e-07 4.10081866394895e-10 -9.87477267941245e-25 2.07952206656935e-07 -1.69879217056794e-23 2.08061428887682e-07)
(2.19837817716803e-07 4.47099171622462e-10 -1.93092083055685e-24 2.19706465488345e-07 -1.78580640906519e-23 2.19772182083255e-07)
(2.50035300682338e-07 6.6556348020671e-10 -1.15876541551464e-24 2.49960809205457e-07 8.43441633384097e-26 2.50000786171424e-07)
(3.23471851541623e-07 1.19981034002768e-09 4.535947288188e-30 3.23403474086515e-07 2.64269120594944e-28 3.23438965568212e-07)
(4.07584129967023e-07 1.85628688555161e-09 -3.25286980159882e-29 4.07506885779211e-07 -4.60432168335975e-28 4.07548273885088e-07)
(4.94698164179932e-07 2.64447519486929e-09 -1.44933572714715e-40 4.94613124081416e-07 5.55313087090647e-28 4.94658392892753e-07)
(5.82781178501693e-07 3.51446498986948e-09 2.80984686643422e-24 5.82691331908756e-07 -1.52817385090735e-25 5.82739743894434e-07)
(6.71211123592537e-07 4.45784129901958e-09 5.85272686321847e-24 6.71118639222469e-07 -9.01772435236287e-23 6.71168622312081e-07)
(7.58763773437719e-07 5.4450885776132e-09 -5.21792612888092e-25 7.58670388055191e-07 -1.01709067685091e-22 7.58721271694479e-07)
(8.45182067982096e-07 6.46553040775974e-09 -4.15255730581675e-24 8.45089047132313e-07 1.95247736925185e-25 8.45139998015592e-07)
(9.29939318691652e-07 7.50272648836694e-09 -2.60230708724026e-40 9.2984764818323e-07 5.27816550407928e-28 9.29898179646365e-07)
(1.01286613732367e-06 8.54759184518687e-09 3.08225187584371e-40 1.01277661390185e-06 -1.22930504442742e-41 1.01282620750991e-06)
(1.09367251676536e-06 9.58957929618715e-09 -2.57299935767928e-42 1.09358581646427e-06 6.43001522363505e-28 1.09363407164172e-06)
(1.17218292001419e-06 1.06209298330331e-08 -7.56445598530663e-40 1.17209964313149e-06 -6.86404547262531e-28 1.17214615659359e-06)
(1.24817181424176e-06 1.16337032786651e-08 -2.83966850881167e-29 1.24809250173517e-06 7.20716624425724e-31 1.24813691450752e-06)
(1.32145022866771e-06 1.26211859523622e-08 1.40207224345852e-29 1.32137537140514e-06 -3.08449723813901e-28 1.32141733674794e-06)
(1.39181771644068e-06 1.35770105186369e-08 4.85381975425096e-29 1.39174774902646e-06 3.23250257874889e-28 1.39178695267106e-06)
(1.45909916281584e-06 1.44957223846897e-08 -3.31702792214242e-29 1.45903445271135e-06 6.01337078887344e-31 1.45907061167298e-06)
(1.52314021907509e-06 1.53726713447637e-08 -5.17520016596799e-40 1.5230810478184e-06 7.5056100375026e-42 1.52311392595853e-06)
(1.58383148639114e-06 1.62043870164953e-08 0 1.58377802792048e-06 0 1.58380744614898e-06)
(1.64112158883797e-06 1.69887741532599e-08 0 1.64107388508474e-06 0 1.64109973650242e-06)
(1.69504002315717e-06 1.77254604184154e-08 1.03827136458638e-23 1.69499796166802e-06 0 1.69502022360549e-06)
(1.745716580347e-06 1.84160692907619e-08 2.14709874609322e-23 1.74567987686218e-06 -3.28726873668751e-23 1.74569862088575e-06)
(1.79340249619274e-06 1.90645021987121e-08 -3.45795054586792e-26 1.79337068237787e-06 -3.45604921318073e-23 1.79338608064312e-06)
(1.83848981777693e-06 1.96771781205497e-08 -1.14673815962885e-23 1.83846223278285e-06 -8.30800639981383e-26 1.83847456204367e-06)
(1.88152955500446e-06 2.02632528848987e-08 3.8111065096567e-29 1.88150533984565e-06 -7.68885816210428e-29 1.88151498320423e-06)
(1.92324660942349e-06 2.08347976253686e-08 -2.58167802173835e-29 1.92322470386459e-06 -3.74421623360241e-31 1.92323215044694e-06)
(1.96455236715189e-06 2.14069552996044e-08 0 1.96453150877826e-06 0 1.96453735132661e-06)
(2.0065535845404e-06 2.19980680939185e-08 0 2.00653230990086e-06 0 2.00653724021008e-06)
(2.05056693374821e-06 2.2629888600545e-08 0 2.0505435824036e-06 0 2.05054838402572e-06)
(2.0981408042161e-06 2.33278939386416e-08 0 2.09811353014764e-06 0 2.09811906592218e-06)
(2.15109202542405e-06 2.41217727707634e-08 0 2.15105882327111e-06 0 2.15106601356172e-06)
(2.21156219315729e-06 2.504611079677e-08 0 2.21152095282349e-06 0 2.21153073283568e-06)
(2.28209722065856e-06 2.61412379941352e-08 -1.74891100500105e-23 2.28204587530471e-06 -7.6093543670215e-25 2.28205911956e-06)
(2.36577339971987e-06 2.74538124969017e-08 -3.40988449433266e-23 2.36571030653062e-06 4.97179291535135e-23 2.36572760641432e-06)
(2.46633235895819e-06 2.90369493812198e-08 2.26114687144368e-24 2.46625671038031e-06 5.83578079333481e-23 2.46627805093485e-06)
(2.58839548147316e-06 3.09502451716174e-08 2.00078547661451e-23 2.58830949807185e-06 1.01783371126553e-24 2.58833343618001e-06)
(2.73792022315911e-06 3.32431634909407e-08 0 2.73783556522096e-06 0 2.73785653923811e-06)
(2.92295323607293e-06 3.5936900766418e-08 0 2.92288716320458e-06 5.30672254574988e-27 2.92289087850528e-06)
(3.1582595113962e-06 3.91465776445804e-08 0 3.15826309906483e-06 -5.73359822979712e-27 3.15822699827716e-06)
(3.46461325057829e-06 4.23919915565168e-08 -3.07706388741993e-23 3.46504880260508e-06 -2.11977110224923e-24 3.46482669404765e-06)
(3.69203500963694e-06 4.1413635511853e-08 -5.76912609545315e-23 3.69483927534558e-06 8.24865458039474e-23 3.69336215770778e-06)
(3.20375118015667e-06 3.16313274924289e-08 4.47211108758842e-24 3.21289353969709e-06 9.20738959413022e-23 3.20835848076603e-06)
(2.94310474619247e-06 2.68052182235377e-08 2.60892161179958e-23 2.95746463738229e-06 2.58918240209816e-24 2.95032233256389e-06)
(2.8699088383797e-06 2.41566477493854e-08 -3.37379949668559e-25 2.88919053150625e-06 1.4611237545442e-24 2.87959981685902e-06)
(2.88057420063012e-06 2.23545741531878e-08 -3.64276779981109e-25 2.90466340332788e-06 1.44328112288948e-24 2.89267610614491e-06)
(2.9361762228534e-06 2.07812920239603e-08 2.09308444373848e-25 2.96484991003349e-06 2.30743866194451e-26 2.95057972890247e-06)
(3.01625393392684e-06 1.92080274982245e-08 -9.66229109094781e-23 3.04913957018361e-06 2.60643998118544e-22 3.0327731086527e-06)
(3.10719192762283e-06 1.75146249102542e-08 -1.03275768730113e-22 3.14369750805814e-06 2.41478144635747e-22 3.12553231026084e-06)
(3.19976954444605e-06 1.56749450772999e-08 -1.32182517419792e-24 3.23910459626721e-06 1.89478644296394e-24 3.2195361165581e-06)
(3.28595820742787e-06 1.37231122857874e-08 1.71257859055495e-25 3.32718351853203e-06 -1.26442938679962e-24 3.30668013074374e-06)
(3.37200332970086e-06 1.18378823796939e-08 -1.16847369434911e-25 3.41436595396827e-06 6.16271784516383e-25 3.39330734573669e-06)
(3.49147431253376e-06 1.027099581024e-08 1.69723001474307e-25 3.53462851235432e-06 1.63930316536405e-26 3.51318775326813e-06)
(3.63193862726233e-06 8.91451011593727e-09 1.50237996895059e-25 3.67520508369424e-06 2.22898675406833e-26 3.65372139524508e-06)
(3.77269503563633e-06 7.68583197608345e-09 6.66765329596896e-25 3.81507417545506e-06 -5.43129825758668e-25 3.79404396503864e-06)
(3.89953899263345e-06 6.55770545144158e-09 1.75356413647116e-24 3.93988214581451e-06 -2.66688356769062e-24 3.91987473436356e-06)
(4.00350397774266e-06 5.52180822660259e-09 -6.53099321190893e-25 4.04065749786637e-06 5.27193745331779e-25 4.02224302149155e-06)
(4.07528395334256e-06 4.56911329183907e-09 4.12199067841068e-27 4.10817469086948e-06 2.77851006672471e-27 4.09188329014612e-06)
(4.10670554102035e-06 3.68167140300317e-09 1.01157266459021e-24 4.13440937706527e-06 -1.31236761542638e-24 4.12069572608122e-06)
(4.07079516410777e-06 2.80757661183282e-09 1.07522997346072e-25 4.09252649770228e-06 1.19398572635047e-26 4.08177683627055e-06)
(3.94849007637551e-06 1.91874459072139e-09 -1.08330562282469e-24 3.9639260213687e-06 1.65234069316089e-24 3.95629885548664e-06)
(3.75964139569063e-06 1.1028646257632e-09 -1.55322187712272e-24 3.76910880260718e-06 2.02042694798372e-24 3.76444052460653e-06)
(3.52368244341313e-06 4.25835101593468e-10 -7.70188134469238e-26 3.52793099961955e-06 -5.64839839436703e-27 3.5258498020469e-06)
(3.26915297503484e-06 -9.10273591338309e-11 -5.38537928898275e-25 3.2690947594149e-06 7.42084223519305e-25 3.26914748186899e-06)
(3.01847969980138e-06 -4.49743735448385e-10 1.37227479812169e-25 3.01504474890418e-06 -3.0537682298788e-25 3.01677076497764e-06)
(2.78432518026557e-06 -6.80536122903775e-10 3.82390132616103e-25 2.77826807736157e-06 -5.11861462663746e-25 2.78129212218224e-06)
(2.57090824101446e-06 -8.04915078412544e-10 -4.7937019237184e-25 2.56286914859816e-06 6.12289534549204e-25 2.56687446162146e-06)
(2.41178829317801e-06 -8.80203077179725e-10 -9.76418459844305e-29 2.40200303464016e-06 1.2208031272905e-28 2.40687073718383e-06)
(2.29676008771472e-06 -9.88799619041116e-10 -1.55010461060903e-26 2.28521953321476e-06 -2.54526895386737e-28 2.29095417688482e-06)
(2.21371011789624e-06 -1.19216869973974e-09 -5.33103501840527e-26 2.20038576615821e-06 1.3000515679646e-25 2.20700155937087e-06)
(2.16202040697903e-06 -1.54332564305039e-09 -1.49157939151741e-25 2.14684346242406e-06 1.93918700564678e-25 2.1543755617769e-06)
(2.15098712460451e-06 -2.14204155191327e-09 1.92943485237482e-25 2.13364129159241e-06 -2.3875023977747e-25 2.14224621886357e-06)
(2.18532654102315e-06 -3.13181980612502e-09 -9.75164381740102e-26 2.1653998047709e-06 4.37154202266816e-26 2.17528378573377e-06)
(2.27458338709571e-06 -4.83948568544995e-09 -1.57330803177651e-26 2.25135180647721e-06 5.94381272461835e-28 2.26287221461774e-06)
(2.36905638245835e-06 -7.50394573822577e-09 1.14216277069482e-25 2.3429442540437e-06 -4.52020492388382e-26 2.35589672808969e-06)
(2.36803513773832e-06 -1.10169026805494e-08 1.20544216068083e-26 2.34173290933556e-06 -1.91635503822382e-26 2.35478056304817e-06)
(2.01446043859042e-06 -1.2113948743135e-08 -3.63693991133366e-26 1.99618920140971e-06 -1.20575757226387e-26 2.00526888620055e-06)
(1.6099518400332e-06 -9.89028946645404e-09 1.36577376126449e-27 1.60109613790064e-06 -4.62911454416008e-27 1.60550537188425e-06)
(1.21785185935633e-06 -6.30220804480266e-09 7.49297607376497e-27 1.21485324712122e-06 3.80400692922634e-27 1.21635157109318e-06)
(9.16215537314114e-07 -3.61787102574188e-09 1.97504981804928e-27 9.15529736262485e-07 9.74580946122935e-28 9.15873179314081e-07)
(7.27275455966812e-07 -1.9901858256247e-09 -7.06966722209568e-29 7.27238405046598e-07 1.52665200080095e-30 7.27258803301211e-07)
(6.98760500956859e-07 -1.67528361378339e-09 1.17911534234877e-32 6.9876140850194e-07 -1.66430602076708e-31 6.98759797472194e-07)
(2.29684277924102e-05 -3.63763589716523e-07 -5.23032461121398e-31 2.29732643188408e-05 -1.85294629207939e-32 2.29712445693508e-05)
(2.36766847946421e-05 -4.1005468929014e-07 2.41871378168188e-28 2.36824209213552e-05 4.86837803975993e-29 2.36792063545943e-05)
(1.90023099065049e-05 -3.35252082451314e-07 2.95017824590448e-30 1.90504856661147e-05 4.38505356712944e-29 1.9026555783767e-05)
(1.27125165456606e-05 -1.66871498973134e-07 2.3055985583594e-25 1.27735615982728e-05 1.7100763556848e-25 1.27430716367269e-05)
(6.7351505434336e-06 -3.80378211645715e-08 1.53911139329078e-26 6.7587164094058e-06 8.53536618625977e-28 6.74711945677085e-06)
(2.84250622893436e-06 2.31560355421787e-09 -8.61647424661012e-26 2.83593323516117e-06 -3.95998179669872e-25 2.83930831432141e-06)
(1.0464508958822e-06 2.83129317964886e-09 1.34592302563856e-25 1.03923485863841e-06 2.15400904464868e-25 1.04287307978606e-06)
(6.99092290996512e-07 1.53247702850743e-09 -1.21565145211099e-25 6.93746830043786e-07 -2.55235812737871e-25 6.96434323367367e-07)
(5.58806842526182e-07 8.1603581094582e-10 4.05701363347554e-26 5.54942708814661e-07 1.11873234498412e-25 5.56884554558328e-07)
(3.37768604614265e-07 3.35302021090435e-10 9.92914857030696e-27 3.35671868620696e-07 2.84240053849142e-26 3.36724642703739e-07)
(1.9222464294074e-07 1.33725463271895e-10 -1.00471685823423e-28 1.91159326532855e-07 1.74442563543948e-27 1.91694062590401e-07)
(1.30219528808503e-07 6.83943996632739e-11 1.5442764624417e-26 1.29553581091508e-07 2.11455197508972e-26 1.29887632291855e-07)
(1.04230788523536e-07 4.46540652618727e-11 6.52684976419001e-26 1.03732628245863e-07 7.88103514223281e-26 1.03982440774663e-07)
(9.38237322905312e-08 3.65313173681599e-11 4.62447631683357e-26 9.33947581944074e-08 5.04149665040644e-26 9.36097359157781e-08)
(9.16432099817826e-08 3.56857777246394e-11 -4.39924838707857e-26 9.12392171798106e-08 -5.71070809361498e-26 9.14415430013971e-08)
(9.62973818621941e-08 4.05174150133063e-11 -3.90099093130229e-27 9.587470130714e-08 -1.38890053220917e-26 9.60862204016358e-08)
(1.07611153874607e-07 4.98155495877496e-11 -2.76251857853372e-26 1.07127977874128e-07 -3.38271586671694e-26 1.07369585836749e-07)
(1.25508141012621e-07 6.46719160079431e-11 4.05043248406464e-26 1.24915346886667e-07 4.67552995311011e-26 1.25211535949815e-07)
(1.51565631596773e-07 8.82474648819754e-11 -9.10907598362654e-27 1.50789026362897e-07 1.87799351915641e-27 1.51176804054876e-07)
(1.88581716130387e-07 1.26489125025533e-10 1.50881235010844e-25 1.87499725941109e-07 2.14674892438467e-25 1.88039704790658e-07)
(2.40463342520503e-07 1.89217583875329e-10 1.40399397267588e-25 2.38875210285473e-07 1.8365880573121e-25 2.39667565307044e-07)
(3.12560060971949e-07 2.92807592966823e-10 5.71276583554118e-26 3.10134072927002e-07 8.50406396454019e-26 3.11344353558195e-07)
(4.11285500201532e-07 4.62593874612491e-10 7.8220824949154e-25 4.07496366501907e-07 9.91947316639408e-25 4.0938720978851e-07)
(5.43031231434053e-07 7.33599596643289e-10 -1.05312219603356e-25 5.3712533880633e-07 8.758518048421e-27 5.40073332204736e-07)
(7.13554042241146e-07 1.17116986780357e-09 1.73305569024082e-25 7.04517242188227e-07 2.37307648862165e-25 7.09029671925791e-07)
(9.31089780064827e-07 1.88435670827287e-09 -9.28507087437824e-25 9.17554475149479e-07 -1.81744392581458e-24 9.24315436255569e-07)
(1.20394592668829e-06 3.03254940524334e-09 -9.60379875611284e-25 1.18419734502045e-06 -1.52406633714667e-24 1.19406493527946e-06)
(1.53834620158427e-06 4.83797562318803e-09 -9.12200299393719e-26 1.51042602309816e-06 5.87395941674675e-26 1.52438006139111e-06)
(1.93702437006757e-06 7.58535228890385e-09 1.03322994450161e-24 1.89898137237519e-06 2.00606301102565e-24 1.91799770520548e-06)
(2.39761701091719e-06 1.15985881587197e-08 -9.3330124052575e-27 2.34791294102999e-06 -1.04727966249824e-26 2.37275903835873e-06)
(2.91266062958848e-06 1.71995547033905e-08 1.02165618206134e-26 2.85057326303752e-06 1.73354595464623e-26 2.88160047007961e-06)
(3.4761266818891e-06 2.47271790156266e-08 -3.24391090131967e-24 3.40173779559187e-06 -4.93979981536394e-24 3.43890401007704e-06)
(4.08673746942312e-06 3.43028478801772e-08 -9.72341451974934e-23 4.00109724327385e-06 2.24145713337997e-24 4.04386721886363e-06)
(4.71349879105374e-06 4.55121631838889e-08 2.72068804626856e-22 4.61985139776898e-06 1.0782509454223e-21 4.6665984575518e-06)
(5.31831702511059e-06 5.75454132185576e-08 5.4219033558093e-22 5.22189821641628e-06 1.28649388876896e-21 5.26999893024687e-06)
(5.86048604249202e-06 6.92763718988175e-08 1.63944753280272e-22 5.76779555023322e-06 -1.21176627717423e-23 5.81400248933053e-06)
(6.27886946582372e-06 7.9356644861031e-08 1.7168076320343e-24 6.19654685134038e-06 6.78223745073243e-24 6.23754274791014e-06)
(6.5495023044739e-06 8.75085287985185e-08 -4.86704190670758e-22 6.48225729474895e-06 4.65034765215895e-23 6.51571018323101e-06)
(6.77566387366197e-06 9.61303114975613e-08 -6.01109728670827e-22 6.72530013978076e-06 4.44639246196099e-22 6.75042656529849e-06)
(7.15396270528103e-06 1.11663595965326e-07 4.23514531062411e-22 7.11651405756306e-06 2.79989335001146e-22 7.13481340657945e-06)
(8.12689517414687e-06 1.56246808330774e-07 6.24386394674066e-22 8.096925609348e-06 -4.52897206647702e-23 8.11208175585457e-06)
(1.05004845520116e-05 2.55144443854174e-07 -1.43442729991224e-26 1.04669666257354e-05 -4.77236166042229e-26 1.04832884208094e-05)
(1.32204763220438e-05 3.76989619927138e-07 3.37074434728789e-27 1.31835911648186e-05 -3.59150240989297e-27 1.32017914005879e-05)
(1.60385728440425e-05 5.17621052935316e-07 1.74982841165491e-26 1.59988433663574e-05 9.97645576216534e-26 1.60182314248133e-05)
(1.8886490536295e-05 6.70035626212588e-07 -2.06632409199726e-21 1.88455400261925e-05 1.12324250776955e-22 1.88655196287453e-05)
(2.17449738398645e-05 8.3209997129698e-07 -4.51152253823269e-21 2.17036425000523e-05 6.68459451986454e-21 2.17236817989901e-05)
(2.45742848118591e-05 9.9954108287521e-07 1.13880152108894e-22 2.45333692244578e-05 6.96108567354132e-21 2.45531468288802e-05)
(2.73664953967767e-05 1.17056194341881e-06 3.01407092267606e-21 2.7326451250043e-05 -1.42071393893686e-22 2.7345716262582e-05)
(3.01045697113737e-05 1.34276836546427e-06 1.99924789050691e-26 3.00657729792607e-05 9.35885506441735e-26 3.0084372436703e-05)
(3.27831852992093e-05 1.51476862937105e-06 3.97999129602576e-28 3.27458831730604e-05 1.50094219110542e-27 3.27636993874957e-05)
(3.53929925552009e-05 1.68501875875839e-06 5.58621775574293e-28 3.5357387023298e-05 -2.09670978696622e-25 3.53743425063223e-05)
(3.79283927216799e-05 1.85236891035373e-06 -2.71664623351162e-26 3.78946332837895e-05 1.10843095566031e-25 3.79106686900291e-05)
(4.03821324310456e-05 2.0156642240524e-06 1.41158656743596e-26 4.03503395943825e-05 6.25211335962074e-26 4.03654152955278e-05)
(4.27481566695807e-05 2.17393545602096e-06 -2.22519091027759e-37 4.27184184349381e-05 -9.64516874148359e-27 4.27325086724824e-05)
(4.50200290526414e-05 2.3262805691113e-06 -1.22449898871888e-37 4.49924036286152e-05 -5.95718964315617e-26 4.50054987111596e-05)
(4.71921374869135e-05 2.47194566596336e-06 -9.32581138510496e-38 4.71666471554936e-05 7.65098326544382e-26 4.71787541269686e-05)
(4.92595377978259e-05 2.61031247323631e-06 1.33997632479431e-37 4.92361633577453e-05 -7.95440366890526e-26 4.92473095290559e-05)
(5.12187386477364e-05 2.74095289010227e-06 0 5.11974109182144e-05 4.27925616335424e-26 5.12076472101775e-05)
(5.30681197247051e-05 2.86365724882096e-06 0 5.3048711397147e-05 -4.41966673054001e-26 5.30581164389684e-05)
(5.48086688001515e-05 2.9784828711518e-06 -2.66972117506223e-21 5.47909868677367e-05 0 5.47996704233044e-05)
(5.64446056759993e-05 3.08579136496415e-06 -4.74657926054502e-21 5.64283861142129e-05 -2.10962711612783e-20 5.64364917017875e-05)
(5.79840631188384e-05 3.18628660939609e-06 8.08894000915216e-22 5.79689672797709e-05 -2.20487115897249e-20 5.79766739440676e-05)
(5.94397101129999e-05 3.28104581454303e-06 2.95038508017672e-21 5.94253224724039e-05 2.14972943282653e-23 5.9432846087588e-05)
(6.08293364944293e-05 3.37154593299552e-06 -1.31333496922414e-26 6.08151633030621e-05 -1.04933895918246e-25 6.08227575713364e-05)
(6.21763333588366e-05 3.45968159297432e-06 6.6267423242731e-27 6.21618021912112e-05 -1.16559450487308e-25 6.21697593997209e-05)
(6.35100981698867e-05 3.54777651092591e-06 0 6.3494558385787e-05 1.18893585929978e-25 6.3503209931383e-05)
(6.48663181672663e-05 3.63858550334387e-06 0 6.48490425402854e-05 0 6.48587591395964e-05)
(6.62874347918027e-05 3.73530346705896e-06 0 6.62676232670009e-05 -2.61108833551137e-25 6.6278814453825e-05)
(6.7823338231328e-05 3.84158087954533e-06 0 6.78001264792614e-05 2.66367136791067e-25 6.78132382060084e-05)
(6.95325382689789e-05 3.96155346146391e-06 0 6.9505015847955e-05 -2.82340449098325e-25 6.95205239083724e-05)
(7.14839591369556e-05 4.09988102002648e-06 0 7.14512088085982e-05 5.83645619570174e-25 7.14696019505578e-05)
(7.3759457484105e-05 4.26176605510748e-06 4.39502060846881e-21 7.37206446053341e-05 1.90920845525414e-22 7.37423883924396e-05)
(7.64578350263789e-05 4.45295780820693e-06 7.54964618675443e-21 7.64123935637754e-05 3.58894237802264e-20 7.6437840655683e-05)
(7.96990804570383e-05 4.67956954278488e-06 -1.66196932965817e-21 7.96470783423079e-05 3.73019840553148e-20 7.96762778977143e-05)
(8.36307578193914e-05 4.94732481334578e-06 -5.11060865774211e-21 8.35739942992109e-05 -2.59404840558534e-22 8.36062630244148e-05)
(8.84423982906599e-05 5.26042307607735e-06 5.04852478511949e-26 8.83864059475018e-05 3.09303307346346e-27 8.84193737614538e-05)
(9.43893867478654e-05 5.62050295897806e-06 -8.43406667679113e-27 9.43466102807766e-05 2.91855437830079e-26 9.43731579021072e-05)
(0.000101929677963593 6.01452814122108e-06 -2.12018205452125e-25 0.000101941078121872 -4.51796159575452e-26 0.000101943487004458)
(0.000111301069145031 6.36227971862265e-06 7.60857786853868e-21 0.000111496665442505 5.23113339831011e-22 0.000111418485483641)
(0.000117127120438169 6.32984923672726e-06 1.21669382077889e-20 0.000117830646101323 6.47460417674082e-20 0.000117472179869303)
(0.000102041107935971 5.13620880501697e-06 -7.41736079400462e-21 0.000103709058700496 5.60098160286446e-20 0.000102877449770055)
(9.38609905834739e-05 4.45057280886636e-06 -6.7155106416777e-21 9.63361723301747e-05 -7.45060457747065e-22 9.50941278097784e-05)
(9.14095075526764e-05 4.05619905061418e-06 9.43455168697064e-23 9.47041400704612e-05 -2.22734554537473e-22 9.30511031673511e-05)
(9.15684583381599e-05 3.76327632034866e-06 -9.57538866080563e-24 9.56645635351257e-05 1.3404815975181e-23 9.36086193454665e-05)
(9.31481149418903e-05 3.49061954007358e-06 5.14301973817492e-21 9.80021025473408e-05 4.61127234668098e-22 9.55654599289894e-05)
(9.55174141120564e-05 3.20689153591269e-06 2.32826503074851e-20 0.000101051959346937 -3.79872620789024e-20 9.82729272174965e-05)
(9.82629499740196e-05 2.8984690066088e-06 1.50976587101752e-20 0.000104364248546962 -3.79999631373922e-20 0.000101299693059242)
(0.000101103434789271 2.56627506036811e-06 -4.25338919655675e-21 0.000107627644618687 -1.22393386808713e-21 0.000104349293502702)
(0.00010381520841414 2.220602031938e-06 -3.0416136853038e-22 0.000110599380665198 7.07027878695891e-22 0.000107188629669982)
(0.00010663002567406 1.8868622407304e-06 -2.27951502658932e-22 0.000113533203602818 3.42614396861883e-22 0.000110061029825702)
(0.000110528111488592 1.60187433715871e-06 -4.50681051863021e-23 0.000117472634666321 -5.960736309807e-24 0.000113977089621929)
(0.000115097337887641 1.35292944250142e-06 -4.38261616196839e-23 0.000121968031296584 -3.14032021122367e-24 0.000118507000838086)
(0.00011970116688947 1.1298292122381e-06 -1.4809924030013e-22 0.000126342039672045 5.1916832175601e-23 0.000122994149799836)
(0.000123904433182494 9.29213331029297e-07 -2.66263052467245e-22 0.000130143513765286 3.97218028976607e-22 0.00012699575756514)
(0.000127422245385795 7.4986578045711e-07 -1.17529157732553e-22 0.000133092123469057 2.97311740145973e-22 0.00013022931924839)
(0.000129953848189613 5.89850491603472e-07 -3.63233953872274e-23 0.000134902195510792 -3.53798428878154e-24 0.000132401821059316)
(0.000131212037649631 4.46068261481304e-07 6.87258023492252e-23 0.000135312286053579 -9.12777812400598e-23 0.000133238701211272)
(0.000130333471879501 3.12024078836629e-07 3.03615198823194e-23 0.000133484662404603 2.14084039582623e-24 0.000131889465943031)
(0.000126722122895309 1.83327434144124e-07 2.16947828826837e-25 0.000128890202884547 1.94994323011008e-23 0.000127791095541049)
(0.000120982954535831 6.98610297375309e-08 4.7374398993766e-22 0.000122224642945432 -6.37850430001377e-22 0.000121593055943994)
(0.000113708393980434 -2.12175044802283e-08 -1.0016205888955e-25 0.000114140892152955 1.15121568226725e-25 0.000113917827477425)
(0.000105797531813245 -8.8215345014315e-08 9.31935787786951e-23 0.000105561974723609 -1.37664651493799e-22 0.00010567610938977)
(9.79652953107161e-05 -1.32387622773923e-07 2.34679213690399e-22 9.72046121585756e-05 -2.88671568323457e-22 9.7583990940717e-05)
(9.06122816323565e-05 -1.5825653700277e-07 -5.62536717589264e-23 8.94440068375762e-05 9.53512067770859e-23 9.00292110748751e-05)
(8.3900143050173e-05 -1.69348625036926e-07 8.50807213615412e-23 8.2423564669785e-05 -1.14565041162248e-22 8.31647874507528e-05)
(7.89121754938515e-05 -1.74670195357964e-07 7.15527908112536e-23 7.71644326359453e-05 -9.32307400245925e-23 7.80428131803856e-05)
(7.53239996940278e-05 -1.86740441323008e-07 -6.06083988195794e-23 7.33048565892937e-05 7.66156335932296e-23 7.43208405779815e-05)
(7.2757593395032e-05 -2.1565751314142e-07 1.04563576603257e-23 7.04603872764164e-05 -2.22938062873064e-23 7.16172148208027e-05)
(7.12057449195556e-05 -2.70403751919959e-07 -2.01418930108614e-23 6.86161784802686e-05 1.71465202831506e-23 6.99209965531847e-05)
(7.09768693315016e-05 -3.66602252865918e-07 -2.36053435445929e-23 6.80440741223011e-05 5.28363053518383e-23 6.95223286564778e-05)
(7.22263578198015e-05 -5.27924577179916e-07 4.88471339483797e-23 6.88836526061768e-05 -4.67431436581029e-23 7.05690115051635e-05)
(7.52432861579887e-05 -8.04455802392549e-07 1.83308137975366e-24 7.13831649232336e-05 -6.48511098334634e-26 7.33293561142455e-05)
(7.834896845253e-05 -1.23584696873034e-06 1.10988278033155e-24 7.40409704911184e-05 2.17966123470372e-23 7.62129025222695e-05)