/*--------------------------------*- C++ -*----------------------------------*\
  =========                 |
  \\      /  F ield         | OpenFOAM: The Open Source CFD Toolbox
   \\    /   O peration     | Website:  https://openfoam.org
    \\  /    A nd           | Version:  7
     \\/     M anipulation  |
\*---------------------------------------------------------------------------*/
FoamFile
{
    version     2.0;
    format      ascii;
    class       volVectorField;
    location    "20000";
    object      U;
}
// * * * * * * * * * * * * * * * * * * * * * * * * * * * * * * * * * * * * * //

dimensions      [0 1 -1 0 0 0 0];

internalField   nonuniform List<vector> 
15600
(
(0.0306402443070874 -7.51109063369466e-06 0)
(0.0354414003579988 -3.51370120721581e-05 0)
(0.0366333038881668 -0.00151875595759469 7.6981004403988e-24)
(0.0237469275353915 -0.00273502150940759 5.01051357317959e-20)
(0.00634174857506512 -0.00153441798072952 4.0686564614638e-23)
(-0.0073386299266769 0.00215339002930934 1.10357487903662e-22)
(-0.0107500653556128 0.00482190193468847 1.97560441825071e-18)
(-0.00929091710961487 0.00525161073979891 -1.28439241995151e-22)
(-0.00721830441155643 0.00472584231294267 0)
(-0.00574983376482823 0.00415576595280411 -1.31248600457546e-18)
(-0.00461409614334987 0.00357532366796088 -4.86567050941451e-22)
(-0.00388896670419132 0.00315383549093062 1.52778014076236e-18)
(-0.0033393456120204 0.00278623938127466 1.64679715472156e-18)
(-0.00295903514889565 0.00249754407272034 1.77644395130754e-18)
(-0.00264392844197601 0.0022275938331361 -1.91571775633747e-18)
(-0.00245668130837178 0.00204483133949016 2.06218061699754e-18)
(-0.00235318781505212 0.0019360629189277 -2.20758349797258e-18)
(-0.00232484937795263 0.00189388218727555 2.35099792179394e-18)
(-0.00237856427172907 0.00192135171927459 0)
(-0.00252757512464772 0.00202608644965447 2.63080217449775e-18)
(-0.00278165525965754 0.00221387761336308 1.3477540816741e-21)
(-0.00315173175843372 0.00249113993158607 -2.90645226242658e-18)
(-0.00363887859136435 0.00285708264271654 3.04178194086425e-18)
(-0.00419834660193822 0.00327385358714574 3.11513611674937e-21)
(-0.00479085821869833 0.00369106940623457 -3.32535895660721e-18)
(-0.00541216613458255 0.00408823632601801 -3.47637517058463e-18)
(-0.00603481674712715 0.00443381576432218 -3.57135561532693e-21)
(-0.0066265890870343 0.00469398652758504 1.12752071025192e-20)
(-0.0071491564568503 0.00483428001721097 4.00426368678232e-18)
(-0.00756172176158646 0.0048246374307336 -1.64165936404147e-20)
(-0.00783163191915079 0.00464933123293448 8.5727181797524e-21)
(-0.00800906809067845 0.00435190045771189 -4.63146667542555e-18)
(-0.00810943311363788 0.00397652330622286 -4.82170185382485e-18)
(-0.00806683202335383 0.00351658510398425 0)
(-0.00786395194155935 0.00298869138162759 5.21712426950224e-18)
(-0.00750463450800046 0.00242152708001365 -2.69251050842771e-18)
(-0.00703072774436058 0.00185357767572581 2.75430048335488e-18)
(-0.00656738812563393 0.00133141800311079 2.83440892952449e-18)
(-0.00628541440683333 0.000873548664083866 -6.3083363270016e-16)
(-0.00602066512886802 0.000432544526287043 -6.49161837119603e-16)
(-0.0081576673123896 0.000150693906651481 4.54031826942539e-24)
(-0.0121260991626071 6.47082198383011e-05 -1.11720810869463e-20)
(-0.0152746150368088 7.16647126477856e-05 0)
(-0.0182835398114969 7.13879245296722e-05 0)
(-0.0209016644082949 7.32362769537053e-05 4.10119172454478e-32)
(-0.0232598225618828 7.22614497508845e-05 -6.74923375301285e-16)
(-0.0253335325500361 7.12667445288293e-05 -6.87754490923564e-16)
(-0.0271803179199643 6.91480869942262e-05 0)
(-0.0288173867470011 6.66346016220017e-05 4.25970625517051e-32)
(-0.0302765625911901 6.34741014776608e-05 0)
(-0.031576559006632 5.98706317811758e-05 0)
(-0.0327368491319429 5.57810888219144e-05 0)
(-0.033771640286424 5.12791918641988e-05 9.03321587126625e-32)
(-0.0346937839161804 4.63767514387674e-05 3.18457787760986e-21)
(-0.0355137106110375 4.11171314634303e-05 -3.18213993459597e-21)
(-0.0362407587559578 3.55298029416055e-05 -4.75599314159962e-32)
(-0.0368832156922096 2.96548419780652e-05 0)
(-0.0374489234455276 2.35313251715588e-05 0)
(-0.0379455297254219 1.72037652602104e-05 0)
(-0.0383808449766855 1.07183832676762e-05 0)
(-0.0387630469903015 4.12282881516922e-06 -8.57397965618004e-16)
(-0.0391008582398226 -2.5363660267294e-06 -8.73079025905713e-16)
(-0.0394036634523533 -9.2150536090581e-06 1.87946512133507e-21)
(-0.0396816118557067 -1.58732037147079e-05 -1.87895692338597e-21)
(-0.0399456917854329 -2.24767819454023e-05 0)
(-0.0402077772774278 -2.90002009672308e-05 0)
(-0.040480632159191 -3.54294367787882e-05 0)
(-0.0407778580152872 -4.17659227993987e-05 0)
(-0.0411137489863456 -4.80319032632742e-05 0)
(-0.0415029811929828 -5.42773355127077e-05 0)
(-0.0419600681387653 -6.05902183922066e-05 0)
(-0.0424985852090828 -6.70972359512119e-05 0)
(-0.04312856370137 -7.40337019336874e-05 1.0727222184984e-15)
(-0.0438533182306957 -8.16992617146529e-05 1.08199875288446e-15)
(-0.0446696906649121 -9.03856708555539e-05 0)
(-0.0455309825929227 -0.000101288695934915 0)
(-0.0462976200706387 -0.000117149777541227 0)
(-0.0470240967917072 -0.000130572570675321 0)
(-0.0470181163677521 -0.000159405895914028 0)
(-0.0427116534675549 -0.000632650240780572 1.24338946886113e-15)
(-0.0368288878770062 -0.00248064009677012 1.25128671205173e-15)
(-0.0344259013979376 -0.0043998606017651 -2.78322755210254e-18)
(-0.0329472054202602 -0.00619454612596376 -2.58593907204562e-22)
(-0.032104061407492 -0.00794384666814459 4.28956260192626e-20)
(-0.0315068223352144 -0.00962685098453736 -2.11651127712025e-20)
(-0.0310259124207998 -0.0112345872573208 -1.07756290860734e-17)
(-0.0305414982048096 -0.0127328511130591 -2.08782065468437e-20)
(-0.0299771121162527 -0.014086139703021 -1.04125230154529e-17)
(-0.0292985622464788 -0.0152666336682123 2.0459555011664e-17)
(-0.0286339872715974 -0.0162935990271187 1.00156976201844e-17)
(-0.0280008775509736 -0.0170822203315288 0)
(-0.0271825922593504 -0.0175017908786084 -1.89814080567542e-20)
(-0.0260654110625306 -0.0174910919768072 -9.43989102339538e-18)
(-0.024591965574509 -0.017019345027348 -9.30870066779704e-18)
(-0.0227305757246072 -0.0160780438062085 9.17552348733082e-18)
(-0.0204749239391249 -0.0146804008047664 0)
(-0.0178099898276394 -0.0128456934939134 8.92802109322357e-18)
(-0.0147307186740506 -0.0106274727915485 -8.68007181301021e-21)
(-0.0113368246573374 -0.00817418442955192 1.68801788539102e-20)
(-0.00778130477142655 -0.00559076070395945 -1.69136688125268e-17)
(-0.00418312765008459 -0.00294097947977236 0)
(-0.000568650683506012 -0.000228122673492496 -7.93500649999842e-18)
(0.00301725132147901 0.00253480946827922 -7.60793217045022e-18)
(0.00665910057785743 0.0054224587497391 7.23086735660216e-18)
(0.0103632716210219 0.0084623598683292 1.66313685887008e-21)
(0.0144338493567228 0.0118821163465372 0)
(0.0192172684984929 0.0158192606108277 0)
(0.0248083868217674 0.0201502899784312 5.3646963087053e-18)
(0.0312775451081411 0.0247089929729413 -4.82731391254728e-18)
(0.0390490972243652 0.0294842632880493 1.34581182736912e-22)
(0.0483080916226845 0.034142306109897 -7.16209013685935e-18)
(0.0599722218973397 0.0384678192546439 -3.8529082106098e-22)
(0.0732785844238104 0.0408308216773853 1.97170163315277e-18)
(0.0877354163161211 0.039458999217338 -1.03358576094219e-18)
(0.0933543248647021 0.0302199344343401 2.30054781858468e-21)
(0.0832373303866109 0.0172706454761105 -3.099029130213e-19)
(0.0647818141795013 0.00737346777214457 -4.14409106140611e-19)
(0.0473544502806975 0.00209047205874629 -1.66577782192207e-19)
(0.0315033801583195 6.54431102786992e-05 2.89341612489054e-23)
(0.0278293769794028 -1.59172301776058e-05 0)
(0.0955758500626384 -0.000146505127514609 0)
(0.107825819958134 -0.000250221852921437 1.83955611219068e-23)
(0.11087568966 -0.00429878149854686 0)
(0.0771280317259537 -0.00785123584660627 1.55567353472585e-24)
(0.027172262246187 -0.00478210268338607 0)
(-0.015461542755542 0.00569918857407923 -6.19215397005745e-19)
(-0.0291197419161171 0.0137781487801965 -1.52285821371733e-18)
(-0.0263483909153345 0.0152742561276313 -1.70732928750706e-18)
(-0.0207585752407507 0.0138564712233965 1.86198186852381e-18)
(-0.0166670331270743 0.0122553512976747 2.02599714520861e-18)
(-0.0134828756307919 0.0105985321641894 -1.27185497260702e-21)
(-0.0114145439762287 0.00937688805810072 0)
(-0.00985389671928221 0.00830811475181581 2.5458123994332e-18)
(-0.00877404857491764 0.0074645092484779 -2.74719403105455e-18)
(-0.00790087341707576 0.00668159817878683 3.65285677254586e-22)
(-0.00739110017380585 0.00615217643489951 -6.37533552241698e-18)
(-0.00713054087024121 0.00584369629624313 -3.40967622455731e-18)
(-0.00709462645194466 0.0057361936845193 -3.62837596640784e-18)
(-0.00730214888259479 0.00583875162174055 -3.84810539250517e-18)
(-0.00778950417880273 0.00617281853066455 4.06054572677571e-18)
(-0.00858244571832775 0.00675423931184842 -2.07585456266809e-21)
(-0.00970623311482997 0.00759846145277359 4.47449381558607e-18)
(-0.0111531253757517 0.00869638141016295 -3.94345068118198e-21)
(-0.0127987231867734 0.00993677802198108 0)
(-0.0145363064838406 0.011174489665479 1.01682712322041e-17)
(-0.0163471573491747 0.0123448856925659 -5.31087403294117e-18)
(-0.0181581326581696 0.0133557670599505 -5.55379222311116e-18)
(-0.0198842445773362 0.0141096891948037 -5.78488146319223e-18)
(-0.0214283776133028 0.0145094842544854 -1.19000374812725e-20)
(-0.0226928992015415 0.0144736111630797 -1.17270692472699e-22)
(-0.023614143229614 0.0139684637113425 2.5963654850596e-20)
(-0.0243104513751607 0.0131105085840681 -1.37847158675811e-20)
(-0.0248112250914724 0.0120149871735437 7.25140512647589e-18)
(-0.0249603698606452 0.0106695394819995 6.82040232523782e-16)
(-0.0247140374930906 0.00912237295448437 7.19284991617811e-16)
(-0.0240887243482599 0.00745569753022272 0)
(-0.0232100939721474 0.00578274125499246 0)
(-0.0224150155035302 0.00423465855749881 -1.65110968595983e-20)
(-0.022152843212129 0.00285294093963512 1.81845301554242e-15)
(-0.0227077893892906 0.00166767630766035 1.82996539330761e-15)
(-0.0292780791658784 0.000973927075286827 -1.64150665270665e-20)
(-0.0400459299673839 0.000710056589183041 0)
(-0.048761076284489 0.000645478845970226 1.60883142916568e-20)
(-0.0568508784817619 0.000574581935512855 -1.59132411195849e-20)
(-0.0638374977036314 0.000512850781113573 -5.7912871570053e-32)
(-0.0700471498845981 0.000452859126773499 2.60051756006044e-15)
(-0.0754721403397147 0.000401390525093188 2.61652860048823e-15)
(-0.0802660592354169 0.000355542132656426 8.09210526770902e-21)
(-0.0844913717788006 0.000316003580066971 -8.04588319196551e-21)
(-0.0882344918009674 0.000281181983117799 0)
(-0.0915503400861087 0.000250601907869858 -8.33424160018278e-21)
(-0.0944919705867394 0.000223365178459224 8.30088698258325e-21)
(-0.097099195587823 0.000198983406069835 -1.23414022315197e-31)
(-0.0994072572509868 0.000176957148685101 0)
(-0.101445194577359 0.000156970835487731 0)
(-0.103238951565214 0.000138773154099474 6.45808058778769e-32)
(-0.104811775798004 0.00012221821909488 0)
(-0.106185688149448 0.000107227751724692 0)
(-0.107382167841791 9.37951335653163e-05 0)
(-0.108422989028226 8.1966041351576e-05 0)
(-0.109330699491842 7.18269596432843e-05 1.15621656989279e-15)
(-0.110129008407988 6.34928706312039e-05 1.1780919960457e-15)
(-0.110843022499527 5.71013098358164e-05 -2.53218697830024e-21)
(-0.111499414915583 5.28072925226451e-05 2.52961013989245e-21)
(-0.112126492225838 5.0777858468934e-05 0)
(-0.11275414558297 5.11847452666475e-05 0)
(-0.113413638889036 5.41942770437921e-05 0)
(-0.114137182617133 5.99524022812372e-05 0)
(-0.114957172488337 6.8559795353455e-05 0)
(-0.115904905442395 8.00337604823953e-05 0)
(-0.117008538861449 9.42392268457408e-05 0)
(-0.118289760614511 0.000110786414346754 0)
(-0.119756892366496 0.000128687108081385 -1.41531494831174e-15)
(-0.121396080238373 0.000146151157236357 -1.45215477007374e-15)
(-0.12315597899722 0.000159405321024706 -1.21725143566725e-20)
(-0.124876091759971 0.000159509862804876 0)
(-0.12624887557456 0.00013069846958682 -2.5735931778774e-20)
(-0.126917879632342 5.46937485715284e-05 2.57341621096864e-20)
(-0.12464182765149 -0.000285505325799164 0)
(-0.114445115149542 -0.00216038365505581 -1.61651587957528e-15)
(-0.102062747646252 -0.00742863556797246 -1.70123356689617e-15)
(-0.0965588051340471 -0.0127747881787631 -3.7968910748933e-22)
(-0.092998601619534 -0.0179305814131812 -7.45262292357096e-18)
(-0.0907328403724261 -0.0229601384914233 -7.56436797328658e-18)
(-0.0889093376247961 -0.0277867042366908 0)
(-0.0872258012159971 -0.0323578236528911 -1.39138957230201e-15)
(-0.0854129682474867 -0.0365721187132811 -1.32398919023751e-15)
(-0.0833197785274801 -0.040332976458898 -5.71768355021127e-20)
(-0.0809246002681811 -0.043571534433053 -1.4409812249469e-17)
(-0.0784698196619521 -0.046293192211462 -1.42319351621877e-17)
(-0.0759549387360474 -0.0482545070041238 0)
(-0.0729261080642576 -0.0491497143928091 -2.73417221729922e-20)
(-0.0691558807442858 -0.0488406915645284 1.37291807568039e-17)
(-0.0645285005126538 -0.0472623000888967 2.71632371164512e-17)
(-0.058982954138707 -0.0444067795850405 -1.34600830845374e-17)
(-0.0525035067670383 -0.0403167039019106 -1.29307144902665e-20)
(-0.0450600652771498 -0.0350568133443213 0)
(-0.036663559489394 -0.0287886859952758 -1.30212538476688e-20)
(-0.0275371306446964 -0.0218982303300406 -1.30514502685869e-17)
(-0.0180185190768906 -0.0146408620406167 -5.9078722026848e-21)
(-0.00837222501488257 -0.00717246456450397 0)
(0.00134586211860171 0.000503128197200717 0)
(0.0110338794132447 0.00835852993808845 1.16436784431555e-17)
(0.0208997425837809 0.0165960524993965 5.38637487762155e-21)
(0.0309744724921222 0.0253019882109409 -1.03989916993524e-17)
(0.0420150371836498 0.0350823106649131 -2.37344743122959e-21)
(0.0549038414491325 0.0462940580617501 5.37925086608019e-22)
(0.069973393099316 0.0586109779392569 -8.16762201397072e-18)
(0.08748075276615 0.0715739201960256 0)
(0.108519989930867 0.0851052319193633 6.4105408860954e-18)
(0.133686317512459 0.0982562564631274 5.42008502780934e-18)
(0.165281650054009 0.110314809962012 5.79298917658882e-22)
(0.201719046316554 0.116809949070942 -2.69809302354448e-20)
(0.241713173282928 0.112861714133863 1.51908800283545e-18)
(0.261221295577051 0.0875590052056019 6.10757770022034e-21)
(0.240837541934545 0.0515550453747858 4.66622805243727e-19)
(0.194812405610084 0.0230164130897623 3.12143791111341e-19)
(0.147478718126709 0.00712850763724442 1.26097893254056e-19)
(0.103139715951783 0.000626375129017963 -1.17427097338218e-23)
(0.0900823083392477 -4.07124761362927e-05 1.18061637241418e-23)
(0.165756330705649 -0.00038409708550037 0)
(0.183215046526658 -0.000613308790188424 -1.87814481229049e-23)
(0.187517608272845 -0.00687410226551057 -1.20346152933266e-23)
(0.13738139531606 -0.0129889821692871 -7.8119334034196e-20)
(0.0568749759568593 -0.00905675547945349 6.3552540772792e-23)
(-0.0168722280952883 0.00744825065466119 1.27282108269422e-18)
(-0.0446804156974635 0.0213952747900272 1.73672534028406e-22)
(-0.0423340310437087 0.0244020028022058 3.5329103570947e-18)
(-0.0338199989277193 0.0223771699043076 -1.92875640802665e-18)
(-0.0273585587292101 0.0199435121796645 -2.09934108282183e-18)
(-0.0222795229845674 0.0173718527088182 -1.30808245191542e-21)
(-0.0189292404443545 0.0154365315365766 0)
(-0.0164021242862176 0.0137363026315737 -5.28129192595428e-18)
(-0.014650387537863 0.012385994689732 -2.84887465552746e-18)
(-0.01325538190751 0.0111467929975962 3.07243954650407e-18)
(-0.0124490627226916 0.0103163353383054 3.3056315171959e-18)
(-0.0120606422514351 0.00985225545989232 4.12926804001987e-23)
(-0.0120498279622908 0.00972523055002128 0)
(-0.0124452690365374 0.00995069347573783 -2.51672567421363e-22)
(-0.0133038799524327 0.0105618234178483 -4.19807804224308e-18)
(-0.0146643600743071 0.0115820236257449 -4.40845647758321e-18)
(-0.0165604122084034 0.0130292812764557 -4.61692624383442e-18)
(-0.0189670386246617 0.0148746347835742 -9.61646993513869e-18)
(-0.0216866064163488 0.016935003766803 4.90832722940741e-21)
(-0.0245520497401134 0.0189792277737787 -5.21691297643477e-18)
(-0.0275254063931195 0.020895249620445 5.42848753748661e-18)
(-0.0304940240279337 0.0225347460578012 5.65690029274148e-18)
(-0.0333290787579828 0.023744097402488 0)
(-0.0358893997074609 0.0243751721283764 1.20820612167113e-20)
(-0.0380426541573373 0.0243112391480281 1.18742791746233e-22)
(-0.0397231776862583 0.0235200095062464 -1.30526927788498e-20)
(-0.041099855197192 0.0221703680962681 -4.41393177117138e-23)
(-0.0422093546951371 0.0204245089653536 0)
(-0.0428425047239384 0.0182717761512989 -6.97582017216308e-16)
(-0.0429418260011554 0.0157852393445244 -7.1347125469449e-16)
(-0.0425442650710136 0.0130894774463386 -3.98520742392172e-18)
(-0.041856288125518 0.0103583763352265 -1.60229681727665e-20)
(-0.0413848634870699 0.0077869773075334 0)
(-0.0418600251032957 0.00546144828678644 -8.65076887644557e-16)
(-0.0444628428704441 0.00356697824522341 -8.48411684757162e-16)
(-0.0554734773623508 0.00244337145462348 0)
(-0.0719076556038102 0.00198033270631896 0)
(-0.0853521044987654 0.00176864622139303 0)
(-0.0975213208140962 0.00156108719645294 -1.50657306366279e-20)
(-0.107940983872331 0.00137664298164074 7.35809404336608e-21)
(-0.117087322236242 0.00120756788574166 -1.54604286273401e-15)
(-0.125019657190887 0.00106269542086929 -1.5275984806444e-15)
(-0.131972718067024 0.000936342639876233 0)
(-0.138060466220143 0.000827739487003852 -7.50180958292591e-21)
(-0.143415668165956 0.000732980917523455 -1.1223812569547e-22)
(-0.14812701087204 0.000650066342487128 1.51063065298483e-20)
(-0.152276028701912 0.000576645045561747 -7.5608116470464e-21)
(-0.15592509272017 0.000511208851745539 -3.88637537162806e-21)
(-0.159128668276365 0.000452429922869454 3.86470888482107e-21)
(-0.161932132908655 0.000399414191272177 0)
(-0.164375996142852 0.000351495798159819 -4.04238075182121e-21)
(-0.166496772242715 0.000308274989348546 4.02605768531449e-21)
(-0.168329005826854 0.000269542976893797 -2.08293559506589e-21)
(-0.169906272639118 0.000235269972868988 2.07619082862073e-21)
(-0.17126227469649 0.000205558091649693 0)
(-0.172431448444502 0.000180606814596888 1.09334376060295e-21)
(-0.173449417404631 0.000160681826838025 -1.09071106053925e-21)
(-0.174353219341334 0.000146095961073417 -2.26122218294799e-21)
(-0.175181396529838 0.000137191478527165 2.25635515285988e-21)
(-0.175973891669641 0.000134319257863764 4.67654349493496e-21)
(-0.176771712860137 0.000137811313065734 -4.66631779008513e-21)
(-0.177616280972776 0.000147943677110813 0)
(-0.178548368165316 0.000164882744357975 9.81995247159864e-21)
(-0.179606425940159 0.000188601667184379 -9.79193172768114e-21)
(-0.180824015509056 0.000218751998340211 1.01253885428128e-20)
(-0.182225903729413 0.000254433826093229 -2.03628203143208e-20)
(-0.183821920157827 0.000293863718941193 1.02317186495272e-20)
(-0.185596363949987 0.000333505326411381 1.05679664196941e-20)
(-0.187492886545139 0.000366848143829758 -1.05134849836824e-20)
(-0.189385989288673 0.000381781877511532 0)
(-0.191002267596111 0.000354348430723562 0)
(-0.191847580985538 0.000225137998239256 0)
(-0.191059699049161 -0.000105142980214608 0)
(-0.185935598294795 -0.00101084753747787 2.31246551905116e-20)
(-0.172757960097473 -0.00429536048214768 -4.64436442654067e-20)
(-0.15817505801744 -0.0122590888416805 2.43185212107475e-20)
(-0.151076653018402 -0.0204505564309509 3.2237183677434e-18)
(-0.14620067494583 -0.0285247475516176 6.61345039169524e-18)
(-0.142751586504744 -0.0363946365539187 2.77856137576435e-20)
(-0.139700597454781 -0.0439061208518991 0)
(-0.136667300377382 -0.0509434316343829 1.20291992138424e-15)
(-0.133327014693174 -0.0573476021076823 1.2101446022159e-15)
(-0.129520806056466 -0.0629796038700553 1.31837051994614e-17)
(-0.125261140574859 -0.0677411787856606 0)
(-0.120801894464104 -0.0715722331103863 -2.56174069264891e-20)
(-0.116100868784127 -0.0741001779425275 5.04424615360821e-20)
(-0.110615939009951 -0.0749570874273613 -5.01056825419196e-20)
(-0.104077342844712 -0.0739889713733503 -1.27402578888229e-17)
(-0.0963396011766668 -0.0711318928492306 -2.5426790798072e-17)
(-0.0873222193956791 -0.0663979674762157 -2.45677955576648e-20)
(-0.0769966814420096 -0.0598605845122997 1.25621528108109e-20)
(-0.0653239194526809 -0.0516335875346538 1.27279323602639e-17)
(-0.0523459607907925 -0.0419741551787769 0)
(-0.0383627458416277 -0.0314166007000659 -6.69860834358809e-21)
(-0.0238020445237267 -0.0202857166994552 1.2640667004708e-17)
(-0.00900448676400551 -0.00878050060370632 -6.13217332307599e-21)
(0.0059651816276665 0.00310131895604115 5.90296342745109e-21)
(0.0209730588669407 0.0153328575749365 1.16615990359903e-17)
(0.0363188234374805 0.0282031725538155 -2.70907463302673e-21)
(0.0520693342981643 0.0418569336242836 1.04748281171394e-17)
(0.0693289159528534 0.0571469904385392 9.76947774830273e-18)
(0.0894011784903246 0.0745649616547678 -9.02258892799476e-18)
(0.112860578309217 0.0936473134247009 8.23291138678494e-18)
(0.140148329802427 0.113702660290311 -7.38259106687204e-18)
(0.172860007677628 0.134512637266766 -6.48015149879484e-18)
(0.211944033075495 0.154617237893676 0)
(0.260653191610358 0.172716842304653 -4.47499182374686e-22)
(0.316910743222308 0.182259956317889 -2.34381667253906e-20)
(0.378756372685214 0.175915290585455 -1.87060988798882e-20)
(0.413233943241186 0.138467707269381 3.04485298987582e-21)
(0.390861519977648 0.0843930926825644 -4.6815688537915e-19)
(0.326393568537311 0.0396125118594828 3.11480446220609e-19)
(0.254419363324062 0.0133168662438766 -6.94743426135047e-23)
(0.184843418427584 0.00180242160886812 0)
(0.160519402586215 5.18721215470582e-05 0)
(0.24156814842266 -0.000670860202083804 0)
(0.261737260041117 -0.00107669452669902 0)
(0.266486028953834 -0.00928409701648403 0)
(0.204222253433143 -0.0180730667351277 0)
(0.0959143971922737 -0.0141994131616447 3.64927570159741e-19)
(-0.0106606807056537 0.00748459718028191 -6.50491508135545e-19)
(-0.0568679968532748 0.0276878782758632 -1.61593629650976e-18)
(-0.0569771509677929 0.032630684779608 -1.82654260700536e-18)
(-0.0462414005862469 0.0302744484466791 1.99160311391393e-18)
(-0.0377146260693572 0.0272087801855034 -2.58835935819455e-22)
(-0.0309292679911236 0.0238843617794987 -1.34228922560811e-21)
(-0.0263795279032125 0.0213253845302043 0)
(-0.0229453300746676 0.0190644085415279 8.06285821456188e-22)
(-0.0205601980213596 0.0172576006079294 2.9538523324493e-18)
(-0.0186898266809632 0.0156189632404496 -3.18365016989802e-18)
(-0.0176218236930876 0.0145342675016575 -3.42908023232808e-18)
(-0.0171421142430803 0.0139594786336324 1.82330234204921e-21)
(-0.0171955666303696 0.0138592446367587 0)
(-0.0178186712858143 0.0142555949643371 4.12076737782093e-18)
(-0.0190856981148293 0.0151912553733447 4.33898858200115e-18)
(-0.0210446544863473 0.0166941499968963 4.54130818932559e-18)
(-0.0237307618055795 0.0187778718236594 4.04708173868014e-21)
(-0.027092967299023 0.0213826596760852 -1.02797127639188e-20)
(-0.030866481552834 0.0242553341181785 4.98971727441568e-21)
(-0.0348316747984087 0.0270864616623913 0)
(-0.0389278551120753 0.0297149200884871 -1.08358149802496e-20)
(-0.04300994606206 0.0319413956942662 5.7481234828232e-18)
(-0.0469161660183263 0.0335647814443798 -5.9490266633011e-18)
(-0.0504785266864936 0.0343990252832073 -2.41998431871399e-20)
(-0.053554058042426 0.0343089789257009 6.45426421567558e-18)
(-0.0560985230493636 0.0332764363001485 2.89732900841003e-15)
(-0.0583163548747471 0.0315032754446258 3.14123959860704e-15)
(-0.060248453604789 0.0291809997999109 1.39731578158976e-20)
(-0.0616673692635158 0.0263054232648156 -7.41468488116177e-18)
(-0.0625168819367601 0.0229678767187569 -1.04410500545032e-15)
(-0.062861202323084 0.0193234518091407 -1.10746710084112e-15)
(-0.0629779291947676 0.0155905870661273 8.20300861071705e-23)
(-0.0635072766758603 0.0120147505779038 4.01934712846811e-18)
(-0.065482819457881 0.00876186924908796 -4.04340030657726e-18)
(-0.0709408915895909 0.00616868173073092 -1.00489453321506e-18)
(-0.0859009869636054 0.00452686182795361 -1.16828390747081e-19)
(-0.106519468791468 0.00383040012045848 1.40622722418527e-20)
(-0.123381402999215 0.00338166593414334 0)
(-0.138244073204616 0.00296082024601922 -1.34706540446986e-20)
(-0.150796251065939 0.00258870077165485 1.31535342036735e-20)
(-0.161642918752426 0.0022583365906423 0)
(-0.170938956109772 0.00197667456885799 0)
(-0.178988584398372 0.00173386326088377 0)
(-0.185956718977774 0.00152565356920006 0)
(-0.19201421205768 0.00134476948062299 6.45840171440504e-21)
(-0.197278892954875 0.00118668952886915 -1.28445372138397e-20)
(-0.201855301086788 0.00104700326855404 6.39294312084763e-21)
(-0.205824464253858 0.000922690185606789 0)
(-0.209256469970689 0.000811274786139795 -3.29250330009537e-21)
(-0.212210138720399 0.000711048372018459 3.26082691047913e-21)
(-0.214737866895879 0.000620780164032134 0)
(-0.21688690741659 0.000539717217064987 0)
(-0.218701663140964 0.000467463003116464 -1.71411494983353e-21)
(-0.22022483098206 0.000403930959714216 1.70254221925227e-21)
(-0.221498544530977 0.00034925903341416 0)
(-0.22256495928088 0.000303740756689523 0)
(-0.223466628733912 0.000267766924099631 0)
(-0.224246600096729 0.000241784000088092 1.83238821968908e-21)
(-0.224948303793847 0.000226252676790421 -1.82386886657313e-21)
(-0.225615159959757 0.000221597388877289 0)
(-0.226289844634287 0.000228139934881085 3.82497871915153e-21)
(-0.227013092349193 0.000246010812220464 -3.80725772521506e-21)
(-0.227821913492617 0.000275024084150513 0)
(-0.228746974721919 0.000314489897684101 0)
(-0.22980880474971 0.000362931991598225 0)
(-0.231012299846013 0.000417604719569222 0)
(-0.232338581339412 0.000473806737954627 -8.24990502326908e-21)
(-0.233732155302917 0.000523279476919052 8.17969654889246e-21)
(-0.235082623235853 0.000551619837496729 0)
(-0.236192725397823 0.000533680820619273 0)
(-0.236704697971998 0.000422513433025059 0)
(-0.236023488752687 0.000103246796418299 0)
(-0.233217999120292 -0.000593531835238221 0)
(-0.226177584939972 -0.00207883601716409 0)
(-0.212748823535491 -0.00637346227670665 -1.74973721813884e-20)
(-0.199177647590133 -0.016134995069195 1.84403892944669e-20)
(-0.191821110018013 -0.0263806978132018 -1.88602732520586e-21)
(-0.186304103931727 -0.0366365483804261 -5.0777974678167e-18)
(-0.18194409773299 -0.0466118781996371 5.13347906009535e-18)
(-0.177777685861732 -0.0560809592188029 -5.15118501456747e-18)
(-0.17344804641346 -0.0648703773456428 5.15772615555026e-18)
(-0.168657062194193 -0.0727867862434001 2.02578050769828e-20)
(-0.163274602406684 -0.0796671227247973 -1.0306732364407e-17)
(-0.157326603406027 -0.0853839260845676 -2.02366016805058e-20)
(-0.151004884202994 -0.0897945206626032 1.99099855594758e-20)
(-0.144219408027458 -0.0924344315368676 0)
(-0.136466133673204 -0.0929563847008716 0)
(-0.127490788320321 -0.0912304572749056 -2.59442141876543e-20)
(-0.117139529425369 -0.0872122136147549 3.37778920921729e-20)
(-0.105315117397469 -0.0809347960848539 -2.00027832082653e-20)
(-0.0919716494803553 -0.0724933117562429 -1.04477813520859e-17)
(-0.0770602563512377 -0.0620370461488145 -1.0545310439511e-17)
(-0.0606500074042562 -0.0498847680463429 -1.03408072477285e-20)
(-0.0430572054391148 -0.0366281132040785 1.08427255829836e-17)
(-0.0246991066860639 -0.0225838763352378 1.09753890307875e-17)
(-0.00592194843652657 -0.00794894201640445 -1.1038123481728e-17)
(0.0132197465539297 0.00729300553639054 1.09244764660199e-17)
(0.0325826896316905 0.0231261953535244 -1.06523218256716e-17)
(0.0525145566958888 0.0398838831103594 5.02874059649378e-21)
(0.0731205243982223 0.0577601388422217 -7.21564627056284e-21)
(0.0957185861931313 0.0777236668960557 -9.31165411364344e-18)
(0.121913273475267 0.100320341925183 8.68326801398596e-18)
(0.152516744896112 0.125001902965342 -1.22134841769162e-20)
(0.18815384394427 0.150900732439291 7.1973439153436e-18)
(0.230758728892696 0.177601245457865 -7.24807112568947e-22)
(0.281567881309474 0.203210627912641 1.01355220081189e-22)
(0.344382601039071 0.225789974007591 1.30608085474349e-22)
(0.41693010313301 0.237328933865922 -2.87121086058302e-18)
(0.496758808542066 0.228694854194346 -1.47450637789623e-18)
(0.546627573197353 0.182443155855354 -7.16737693172708e-22)
(0.529628410419624 0.114928139592121 0)
(0.456422041307553 0.0566326850974464 -3.07470609977236e-19)
(0.366540753846755 0.020506432369525 6.86743852717858e-23)
(0.276017891373427 0.00359565049856907 0)
(0.239387967448791 0.000354747886450878 0)
(0.322456204767409 -0.000920800415447626 -4.69195863588134e-24)
(0.342692785398345 -0.00158323848705542 4.6626980302908e-24)
(0.34701699054372 -0.0115388431042555 -2.43351240533943e-23)
(0.276685982780121 -0.023051468643241 -3.83839645061598e-23)
(0.14433831222605 -0.0201210202177204 -4.83407484330076e-22)
(0.00407522463305272 0.00575805214377579 -1.26409067592528e-22)
(-0.0650415795657313 0.0325738690594611 3.32122000665523e-18)
(-0.0700008973912014 0.0399090148156689 -2.37986186713638e-22)
(-0.0578736901838509 0.0375038476358399 -2.3126534092484e-21)
(-0.0476404374206513 0.0340171252431482 2.6750049448244e-22)
(-0.0393688553506889 0.0301099263536972 -2.43032594268703e-18)
(-0.0337222145600692 0.0270244939875851 0)
(-0.0294522653080439 0.0242780526753185 2.83667044713144e-18)
(-0.0264813040430478 0.022069677947128 0)
(-0.0241890743214384 0.0200915370869851 3.30062046129906e-18)
(-0.0229007885138323 0.0188025636322897 2.26914709388019e-22)
(-0.022371434238726 0.0181645431579263 3.79155625972463e-18)
(-0.0225324396264411 0.0181393040070884 1.97385598226762e-21)
(-0.0234259360318056 0.0187554668936934 -2.06821981477502e-21)
(-0.0251397598817232 0.0200626436410113 -4.46920557085435e-18)
(-0.0277265745552001 0.0220893101146612 0)
(-0.0312150150870043 0.024836685779321 4.86568382059006e-18)
(-0.0355191089127844 0.0282041261641711 5.04067298400416e-18)
(-0.0403124747001553 0.0318704753638547 -3.7104138342547e-23)