5 	0.00273779077457398 	-1.73472347597681e-17 	-0.029410052424003 	-2.10596191311583e-05 	-1.51975827203267e-32
5 	0.00831366561724397 	-2.08166817117217e-17 	-0.0820339568425119 	-0.000153126558910511 	-4.72990357132893e-22
5 	0.0140938010840032 	-4.16333634234434e-17 	-0.122977810317661 	-0.000420565428635699 	-1.30615474986567e-21
5 	0.0200856798396764 	-4.5102810375397e-17 	-0.149605264513859 	-0.00082266270752247 	-1.1930186642782e-21
5 	0.0262970586610137 	-3.12250225675825e-17 	-0.1624678967747 	-0.00132541915791278 	-4.30171506873174e-22
5 	0.0327359784782123 	-2.77555756156289e-17 	-0.166578336194179 	-0.00188517492191597 	1.08801394368274e-16
5 	0.0394107747842904 	-2.42861286636753e-17 	-0.166599639732322 	-0.00248726819987182 	2.32578762672215e-16
5 	0.0463300884257853 	-1.38777878078145e-17 	-0.164845806048434 	-0.00312914947936959 	-1.80742491005903e-16
5 	0.0535028767887471 	-1.38777878078145e-17 	-0.162229848482505 	-0.0038075395949981 	-2.2473172724036e-16
5 	0.060938425394508 	-2.42861286636753e-17 	-0.15911973612706 	-0.00451947098716054 	9.57590543720152e-17
5 	0.0686463599202388 	-3.46944695195361e-17 	-0.155676798975579 	-0.00526341358984578 	5.13544085971717e-17
5 	0.0766366586598531 	-3.81639164714898e-17 	-0.151976198432918 	-0.0060388485375007 	1.12402553480987e-17
5 	0.0849196654413917 	-3.46944695195361e-17 	-0.148053031126043 	-0.00684576955552239 	1.24291886937806e-17
5 	0.0935061030176072 	-3.81639164714898e-17 	-0.143921813568558 	-0.00768444296797316 	-8.96680036112014e-18
5 	0.102407086947087 	-5.20417042793042e-17 	-0.139585476388035 	-0.00855530637165845 	-1.01579369348429e-17
5 	0.11163413998388 	-5.89805981832114e-17 	-0.135039817172092 	-0.00945891561154182 	-1.7915313044507e-24
5 	0.121199206994262 	-4.85722573273506e-17 	-0.130275819378313 	-0.0103959109222153 	-1.34136274036466e-22
5 	0.131114670419936 	-4.16333634234434e-17 	-0.125280895246747 	-0.0113669937593174 	-4.67985317447503e-23
5 	0.141393366307709 	-2.77555756156289e-17 	-0.12003955140896 	-0.0123729101161094 	-1.74993696712471e-22
5 	0.152048600926373 	-2.08166817117217e-17 	-0.114533726541808 	-0.013414437597417 	-1.8523410133842e-22
5 	0.163094167992309 	-2.77555756156289e-17 	-0.108742932023435 	-0.0144923745538964 	-1.31169546283301e-22
5 	0.174544366526125 	-2.77555756156289e-17 	-0.102644267218077 	-0.0156075302114382 	-7.14611526950416e-23
5 	0.186414019363427 	-1.38777878078145e-17 	-0.0962123498742 	-0.0167607150618422 	-4.36687425544985e-23
5 	0.198718492343699 	3.46944695195361e-18 	-0.0894191851201348 	-0.0179527309485916 	1.82249155157512e-22
5 	0.211473714202121 	1.04083408558608e-17 	-0.0822339869616352 	-0.0191843603617736 	2.70621082561974e-22
5 	0.224696197190089 	1.04083408558608e-17 	-0.0746229606691891 	-0.0204563544813144 	1.87080898972513e-22
5 	0.238403058451125 	6.93889390390723e-18 	-0.0665490512495271 	-0.021769419492237 	9.58856042559721e-23
5 	0.252612042179841 	6.93889390390723e-18 	-0.0579716613991691 	-0.0231242006465838 	-6.4007228833888e-23
5 	0.267341542592663 	0 	-0.0488463414378513 	-0.0245212634663768 	-1.96746299356687e-22
5 	0.282610627740032 	-6.93889390390723e-18 	-0.039124453449963 	-0.0259610713663238 	-2.66967619589692e-22
5 	0.298439064190914 	-1.38777878078145e-17 	-0.0287528120910542 	-0.0274439588052699 	-1.38699074901908e-22
5 	0.314847342621581 	-2.08166817117217e-17 	-0.0176733052034361 	-0.0289700988717109 	-6.66186297685473e-23
5 	0.331856704341784 	-1.38777878078145e-17 	-0.00582249961005765 	-0.0305394638299918 	8.20996707040199e-23
5 	0.349489168792655 	-6.93889390390723e-18 	0.00686875540546365 	-0.0321517766465356 	1.3571057849327e-22
5 	0.367767562051934 	-1.38777878078145e-17 	0.020475716982708 	-0.0338064511408719 	-7.48394597637935e-23
5 	0.386715546383437 	-2.42861286636753e-17 	0.0350801294281797 	-0.0355025174805522 	-9.82749098590595e-23
5 	0.406357650868995 	-2.42861286636753e-17 	0.0507705773915267 	-0.0372385216997298 	-1.73699513076314e-22
5 	0.426719303162537 	-2.08166817117217e-17 	0.0676427821775293 	-0.0390123825558189 	6.15618219964381e-23
5 	0.447826862407423 	-1.04083408558608e-17 	0.0857998100499248 	-0.0408213309967577 	1.52106917464321e-22
5 	0.469707653359621 	-3.46944695195361e-18 	0.105352157017686 	-0.0426623382760521 	6.70427335375836e-24
5 	0.492390001760931 	-1.38777878078145e-17 	0.126417913841683 	-0.0445319341263079 	2.63211428117367e-22
5 	0.515903271008025 	-2.08166817117217e-17 	0.149146232624417 	-0.0464208261997779 	4.66536977896315e-22
5 	0.540277900164784 	-1.73472347597681e-17 	0.17383587153399 	-0.0483132470690918 	9.24947622218328e-22
5 	0.565545443367138 	-2.08166817117217e-17 	0.201026384538472 	-0.0501951842709707 	6.08036377110813e-22
5 	0.59173861067142 	-3.12250225675825e-17 	0.231254256730582 	-0.0520464383462586 	1.67195937665317e-22
5 	0.618891310399117 	-3.81639164714898e-17 	0.264732369370168 	-0.053837410928627 	6.76584689630367e-22
5 	0.647038693032829 	-4.5102810375397e-17 	0.301371184472764 	-0.0555398142899547 	4.50629872956834e-22
5 	0.674618736516081 	-4.85722573273506e-17 	0.338755199521771 	-0.057045288171282 	4.74940845954152e-22
5 	0.689470405318345 	-4.5102810375397e-17 	0.359260235285833 	-0.0578069179852811 	1.01106983791898e-21
5 	0.706464594445211 	-4.5102810375397e-17 	0.38328803562558 	-0.0585708518298967 	1.06999441191749e-21
5 	0.737820042926438 	-4.5102810375397e-17 	0.428165103711483 	-0.0598376682715407 	1.67921642007193e-21
5 	0.770324133308009 	-4.85722573273506e-17 	0.475396890486346 	-0.0608924532274644 	1.24972283496238e-21
5 	0.804018943706462 	-5.55111512312578e-17 	0.524709814849379 	-0.0617011347142119 	-8.6456722097853e-22
5 	0.838948093682962 	-5.55111512312578e-17 	0.575715818888476 	-0.0622343031282125 	3.63128345282711e-22
5 	0.87515680071094 	-5.55111512312578e-17 	0.627908753929254 	-0.062470719685861 	-5.82737053669458e-22
5 	0.912691938712297 	-5.55111512312578e-17 	0.680703894594707 	-0.0623994211382921 	-1.63382486413986e-21
5 	0.951602098737956 	-4.85722573273506e-17 	0.733516380800173 	-0.0620192710777287 	4.61930005203206e-22
5 	0.991937651871334 	-4.5102810375397e-17 	0.785875723125354 	-0.0613315756896708 	2.22223182886909e-21
5 	1.03375081443614 	-5.55111512312578e-17 	0.837430342848892 	-0.0603232499262959 	2.20162022746188e-21
5 	1.07709571559294 	-6.24500451351651e-17 	0.887554335368028 	-0.0589594111323746 	1.08758961775736e-21
5 	1.12202846741196 	-5.89805981832114e-17 	0.934954997757127 	-0.0572106939489421 	0
5 	1.16860723751287 	-6.59194920871187e-17 	0.978259391884596 	-0.0550881929893299 	0
5 	1.2168923243656 	-7.63278329429795e-17 	1.01701763011221 	-0.0526300079351928 	-9.62176731049676e-22
5 	1.26694623534962 	-8.32667268468867e-17 	1.05138609668678 	-0.0498855571410312 	-4.62170583323634e-21
5 	1.31883376767274 	-8.67361737988404e-17 	1.08125736301075 	-0.0469221272667395 	-1.25982361865937e-20
5 	1.37262209225426 	-8.67361737988404e-17 	1.10529191005305 	-0.0439968162991595 	-1.20196199707643e-20
5 	1.41220272459524 	-8.67361737988404e-17 	1.12074931431524 	-0.0417348232309771 	-3.14417681464982e-21
5 	1.43617694926586 	-8.32667268468867e-17 	1.12984985889225 	-0.0401942976918874 	0
5 	1.45930396367274 	-8.32667268468867e-17 	1.13686823241549 	-0.0388700800165416 	0
5 	1.48161370685419 	-8.32667268468867e-17 	1.14301432879572 	-0.0375968284365681 	0
5 	1.50313505985141 	-8.32667268468867e-17 	1.14840960788636 	-0.036370081527562 	0
5 	1.52389588309638 	-8.32667268468867e-17 	1.15314887352967 	-0.0351865438955721 	0
5 	1.54392305247858 	-8.32667268468867e-17 	1.15730639636224 	-0.0340433318686216 	0
5 	1.56324249413704 	-8.32667268468867e-17 	1.16094050568098 	-0.0329377601987954 	0
5 	1.58187921802306 	-8.32667268468867e-17 	1.16409700179128 	-0.0318673632099389 	0
5 	1.5998573502768 	-8.32667268468867e-17 	1.16681167027954 	-0.030829892232704 	0
5 	1.61720016445966 	-8.32667268468867e-17 	1.16911211896414 	-0.029823287376265 	0
5 	1.63393011168312 	-8.32667268468867e-17 	1.17101910596442 	-0.0288456464089402 	0
5 	1.65006884967273 	-8.32667268468867e-17 	1.17254748386438 	-0.0278951963642425 	0
5 	1.66563727080512 	-7.97972798949331e-17 	1.17370685129594 	-0.0269702682639729 	0
5 	1.68065552915414 	-7.97972798949331e-17 	1.17450197837889 	-0.0260692750342031 	0
5 	1.69514306658136 	-8.32667268468867e-17 	1.17493305464651 	-0.0251906926259414 	0
5 	1.70911863790442 	-8.32667268468867e-17 	1.17499579590053 	-0.0243330442397853 	0
5 	1.72260033517611 	-7.97972798949331e-17 	1.1746814388292 	-0.0234948875613629 	0
5 	1.73560561110536 	-7.97972798949331e-17 	1.17397664853275 	-0.0226748050248004 	0
5 	1.74815130165068 	-7.97972798949331e-17 	1.17286336398885 	-0.0218713972883244 	0
5 	1.76025364781502 	-7.63278329429795e-17 	1.17131860981693 	-0.0210832803032193 	0
5 	1.77192831667064 	-7.63278329429795e-17 	1.16931430935939 	-0.0203090865638334 	5.18755350129303e-16
5 	1.78319042164083 	-7.97972798949331e-17 	1.16681714376508 	-0.0195474713124619 	1.53713365180882e-15
5 	1.79405454206499 	-8.32667268468867e-17 	1.16378851354446 	-0.018797124591783 	-1.64493412469016e-15
5 	1.80453474207227 	-8.67361737988404e-17 	1.16018467106323 	-0.0180567900200139 	-5.40238981936836e-16
5 	1.81464458878829 	-9.36750677027476e-17 	1.15595710131722 	-0.0173252909208098 	0
5 	1.82439716989841 	-9.71445146547012e-17 	1.15105322914675 	-0.0166015638780691 	0
5 	1.83380511059041 	-9.0205620750794e-17 	1.14541751772151 	-0.0158846988423062 	0
5 	1.84288058989839 	-8.32667268468867e-17 	1.13899298994366 	-0.0151739835930063 	0
5 	1.8516353564691 	-9.0205620750794e-17 	1.13172314874111 	-0.0144689487700731 	0
5 	1.86008074377114 	-9.0205620750794e-17 	1.123554197831 	-0.0137694083017082 	0
5 	1.8682276847667 	-8.32667268468867e-17 	1.11443738401464 	-0.0130754903128727 	0
5 	1.87608672606481 	-8.32667268468867e-17 	1.10433121615976 	-0.0123876558819405 	-8.5979873141185e-16
5 	1.88366804157438 	-7.97972798949331e-17 	1.09320328838512 	-0.0117066953025856 	-8.26562525213416e-16
5 	1.89098144567491 	-7.63278329429795e-17 	1.08103146214818 	-0.0110336543444103 	9.26201346997989e-16
5 	1.89803640592158 	-7.63278329429795e-17 	1.06780422012191 	-0.0103697148510002 	8.92965140799639e-16
5 	1.90484205530155 	-7.28583859910259e-17 	1.05351736315716 	-0.00971650916614842 	0
5 	1.91140720405698 	-7.28583859910259e-17 	1.0381347901726 	-0.00907614215641248 	0
5 	1.91774035109035 	-7.63278329429795e-17 	1.02151315043212 	-0.00844773493401391 	0
5 	1.9238496949667 	-7.97972798949331e-17 	1.00350590788726 	-0.0078304146747905 	0
5 	1.92974314452705 	-8.32667268468867e-17 	0.984125900809812 	-0.00722717233826818 	0
5 	1.9354283291268 	-8.32667268468867e-17 	0.963492813883957 	-0.00664147351756264 	0
5 	1.9409126085123 	-8.32667268468867e-17 	0.941744730743587 	-0.00607604932096723 	0
5 	1.94620308234835 	-8.32667268468867e-17 	0.918995084824066 	-0.00553312983088433 	0
5 	1.95130659940914 	-7.63278329429795e-17 	0.895317212236137 	-0.00501438411940344 	0
5 	1.95622976644424 	-6.93889390390723e-17 	0.870741874061723 	-0.00452094104251311 	0
5 	1.96097895673142 	-6.93889390390723e-17 	0.845258790839496 	-0.00405350470704075 	-1.41975575080658e-15
5 	1.96556031832711 	-6.93889390390723e-17 	0.818817975402334 	-0.00361247453940108 	-4.20315445894058e-15
5 	1.96997978202541 	-6.93889390390723e-17 	0.791329338680548 	-0.0031980356463943 	4.5179420777612e-15
5 	1.97424306903575 	-7.28583859910259e-17 	0.762659875894138 	-0.0028102188081714 	1.482627478532e-15
5 	1.9783556983893 	-7.63278329429795e-17 	0.732628177950853 	-0.00244893949963359 	0
5 	1.98232299408358 	-7.63278329429795e-17 	0.7009965850474 	-0.00211403190276561 	0
5 	1.98615009197469 	-7.97972798949331e-17 	0.66746097723535 	-0.00180528384265809 	0
5 	1.98984194642589 	-8.32667268468867e-17 	0.631637738498622 	-0.0015224516824505 	0
5 	1.99340333672126 	-7.63278329429795e-17 	0.593041224624268 	-0.00126511357439976 	0
5 	1.99683887325273 	-6.93889390390723e-17 	0.551014247334021 	-0.00103238500501614 	0
5 	2.00015300348844 	-6.93889390390723e-17 	0.504648400136241 	-0.000822952082471912 	0
5 	2.00335001773022 	-6.93889390390723e-17 	0.452989587614519 	-0.000635667184476675 	0
5 	2.00643405466757 	-6.93889390390723e-17 	0.395575305341819 	-0.000470748700173193 	0
5 	2.00940910673542 	-6.93889390390723e-17 	0.333094797766262 	-0.000329548536579948 	0
5 	2.01227902528252 	-6.93889390390723e-17 	0.2677898830434 	-0.000213977566948105 	0
5 	2.01504752555717 	-7.63278329429795e-17 	0.202720451862712 	-0.000125087532857704 	0
5 	2.01771819151684 	-7.97972798949331e-17 	0.140287979478728 	-6.2101039283125e-05 	0
5 	2.02029448046774 	-7.28583859910259e-17 	0.0815721330823141 	-2.29117492995697e-05 	0
5 	2.02277972754047 	-6.93889390390723e-17 	0.02655546717454 	-4.16054932491433e-06 	0
