# k  FACE_DATA 15463
#  x  y  z  k
0.0005 4.59758e-05 4.70511e-05 6.6469
0.0005 0.000133748 4.70511e-05 6.98677
0.0005 0.000213541 4.70511e-05 7.56857
0.0005 0.000286079 4.70511e-05 8.3098
0.0005 0.000352024 4.70511e-05 9.14366
0.0005 0.000411973 4.70511e-05 10.0186
0.0005 0.000466473 4.70511e-05 10.8964
0.0005 0.000516018 4.70511e-05 11.7503
0.0005 0.000561059 4.70511e-05 12.5622
0.0005 0.000602005 4.70511e-05 13.3213
0.0005 0.000639229 4.70511e-05 14.0209
0.0005 0.000673069 4.70511e-05 14.654
0.0005 0.000703833 4.70511e-05 15.2117
0.0005 0.000731799 4.70511e-05 15.6887
0.0005 0.000757224 4.70511e-05 16.083
0.0005 0.000780337 4.70511e-05 16.3939
0.0005 0.000801349 4.70511e-05 16.6206
0.0005 0.000820451 4.70511e-05 16.7612
0.0005 0.000837816 4.70511e-05 16.8122
0.0005 0.000853602 4.70511e-05 16.7683
0.0005 0.000867954 4.70511e-05 16.6225
0.0005 0.000881001 4.70511e-05 16.3654
0.0005 0.000892861 4.70511e-05 15.9864
0.0005 0.000903644 4.70511e-05 15.4734
0.0005 0.000913446 4.70511e-05 14.8139
0.0005 0.000922357 4.70511e-05 13.997
0.0005 0.000930458 4.70511e-05 13.0159
0.0005 0.000937823 4.70511e-05 11.8715
0.0005 0.000944518 4.70511e-05 10.5761
0.0005 0.000950604 4.70511e-05 9.15628
0.0005 0.000956137 4.70511e-05 7.6439
0.0005 0.000961167 4.70511e-05 6.10962
0.0005 0.00096574 4.70511e-05 4.64949
0.0005 0.000969897 4.70511e-05 3.36019
0.0005 0.000973676 4.70511e-05 2.30831
0.0005 0.000977112 4.70511e-05 1.5122
0.0005 0.000980235 4.70511e-05 0.947737
0.0005 0.000983075 4.70511e-05 0.568696
0.0005 0.000985656 4.70511e-05 0.325751
0.0005 0.000988002 4.70511e-05 0.176733
0.0005 0.000990136 4.70511e-05 0.0895559
0.0005 0.000992075 4.70511e-05 0.0414162
0.0005 0.000993838 4.70511e-05 0.0168167
0.0005 0.000995441 4.70511e-05 0.00559556
0.0005 0.000996898 4.70511e-05 0.00133081
0.0005 0.000998222 4.70511e-05 0.000165817
0.0005 0.000999427 4.70511e-05 4.97351e-06
0.0005 4.59758e-05 0.000140529 6.64682
0.0005 0.000133748 0.000140529 6.98669
0.0005 0.000213541 0.000140529 7.56849
0.0005 0.000286079 0.000140529 8.30971
0.0005 0.000352024 0.000140529 9.14357
0.0005 0.000411973 0.000140529 10.0185
0.0005 0.000466473 0.000140529 10.8963
0.0005 0.000516018 0.000140529 11.7502
0.0005 0.000561059 0.000140529 12.5621
0.0005 0.000602005 0.000140529 13.3212
0.0005 0.000639229 0.000140529 14.0207
0.0005 0.000673069 0.000140529 14.6539
0.0005 0.000703833 0.000140529 15.2116
0.0005 0.000731799 0.000140529 15.6886
0.0005 0.000757224 0.000140529 16.0829
0.0005 0.000780337 0.000140529 16.3938
0.0005 0.000801349 0.000140529 16.6205
0.0005 0.000820451 0.000140529 16.7611
0.0005 0.000837816 0.000140529 16.8121
0.0005 0.000853602 0.000140529 16.7683
0.0005 0.000867954 0.000140529 16.6224
0.0005 0.000881001 0.000140529 16.3654
0.0005 0.000892861 0.000140529 15.9864
0.0005 0.000903644 0.000140529 15.4733
0.0005 0.000913446 0.000140529 14.8138
0.0005 0.000922357 0.000140529 13.997
0.0005 0.000930458 0.000140529 13.0159
0.0005 0.000937823 0.000140529 11.8714
0.0005 0.000944518 0.000140529 10.576
0.0005 0.000950604 0.000140529 9.15625
0.0005 0.000956137 0.000140529 7.64387
0.0005 0.000961167 0.000140529 6.1096
0.0005 0.00096574 0.000140529 4.64947
0.0005 0.000969897 0.000140529 3.36018
0.0005 0.000973676 0.000140529 2.3083
0.0005 0.000977112 0.000140529 1.5122
0.0005 0.000980235 0.000140529 0.947734
0.0005 0.000983075 0.000140529 0.568694
0.0005 0.000985656 0.000140529 0.325749
0.0005 0.000988002 0.000140529 0.176732
0.0005 0.000990136 0.000140529 0.0895555
0.0005 0.000992075 0.000140529 0.041416
0.0005 0.000993838 0.000140529 0.0168166
0.0005 0.000995441 0.000140529 0.00559553
0.0005 0.000996898 0.000140529 0.0013308
0.0005 0.000998222 0.000140529 0.000165817
0.0005 0.000999427 0.000140529 4.97349e-06
0.0005 4.59758e-05 0.000232765 6.64667
0.0005 0.000133748 0.000232765 6.98654
0.0005 0.000213541 0.000232765 7.56834
0.0005 0.000286079 0.000232765 8.30955
0.0005 0.000352024 0.000232765 9.1434
0.0005 0.000411973 0.000232765 10.0183
0.0005 0.000466473 0.000232765 10.8961
0.0005 0.000516018 0.000232765 11.75
0.0005 0.000561059 0.000232765 12.5619
0.0005 0.000602005 0.000232765 13.321
0.0005 0.000639229 0.000232765 14.0205
0.0005 0.000673069 0.000232765 14.6537
0.0005 0.000703833 0.000232765 15.2114
0.0005 0.000731799 0.000232765 15.6884
0.0005 0.000757224 0.000232765 16.0827
0.0005 0.000780337 0.000232765 16.3936
0.0005 0.000801349 0.000232765 16.6203
0.0005 0.000820451 0.000232765 16.7609
0.0005 0.000837816 0.000232765 16.8119
0.0005 0.000853602 0.000232765 16.7681
0.0005 0.000867954 0.000232765 16.6222
0.0005 0.000881001 0.000232765 16.3652
0.0005 0.000892861 0.000232765 15.9862
0.0005 0.000903644 0.000232765 15.4731
0.0005 0.000913446 0.000232765 14.8137
0.0005 0.000922357 0.000232765 13.9968
0.0005 0.000930458 0.000232765 13.0157
0.0005 0.000937823 0.000232765 11.8713
0.0005 0.000944518 0.000232765 10.5759
0.0005 0.000950604 0.000232765 9.15612
0.0005 0.000956137 0.000232765 7.64375
0.0005 0.000961167 0.000232765 6.10949
0.0005 0.00096574 0.000232765 4.64939
0.0005 0.000969897 0.000232765 3.36011
0.0005 0.000973676 0.000232765 2.30825
0.0005 0.000977112 0.000232765 1.51216
0.0005 0.000980235 0.000232765 0.947713
0.0005 0.000983075 0.000232765 0.568682
0.0005 0.000985656 0.000232765 0.325742
0.0005 0.000988002 0.000232765 0.176728
0.0005 0.000990136 0.000232765 0.0895536
0.0005 0.000992075 0.000232765 0.0414151
0.0005 0.000993838 0.000232765 0.0168163
0.0005 0.000995441 0.000232765 0.00559541
0.0005 0.000996898 0.000232765 0.00133077
0.0005 0.000998222 0.000232765 0.000165813
0.0005 0.000999427 0.000232765 4.97338e-06
0.0005 4.59758e-05 0.000323776 6.64646
0.0005 0.000133748 0.000323776 6.98632
0.0005 0.000213541 0.000323776 7.56811
0.0005 0.000286079 0.000323776 8.30931
0.0005 0.000352024 0.000323776 9.14314
0.0005 0.000411973 0.000323776 10.018
0.0005 0.000466473 0.000323776 10.8958
0.0005 0.000516018 0.000323776 11.7497
0.0005 0.000561059 0.000323776 12.5616
0.0005 0.000602005 0.000323776 13.3207
0.0005 0.000639229 0.000323776 14.0202
0.0005 0.000673069 0.000323776 14.6534
0.0005 0.000703833 0.000323776 15.2111
0.0005 0.000731799 0.000323776 15.6881
0.0005 0.000757224 0.000323776 16.0824
0.0005 0.000780337 0.000323776 16.3932
0.0005 0.000801349 0.000323776 16.6199
0.0005 0.000820451 0.000323776 16.7606
0.0005 0.000837816 0.000323776 16.8116
0.0005 0.000853602 0.000323776 16.7678
0.0005 0.000867954 0.000323776 16.6219
0.0005 0.000881001 0.000323776 16.3649
0.0005 0.000892861 0.000323776 15.9859
0.0005 0.000903644 0.000323776 15.4728
0.0005 0.000913446 0.000323776 14.8134
0.0005 0.000922357 0.000323776 13.9965
0.0005 0.000930458 0.000323776 13.0154
0.0005 0.000937823 0.000323776 11.871
0.0005 0.000944518 0.000323776 10.5756
0.0005 0.000950604 0.000323776 9.15587
0.0005 0.000956137 0.000323776 7.64353
0.0005 0.000961167 0.000323776 6.1093
0.0005 0.00096574 0.000323776 4.64923
0.0005 0.000969897 0.000323776 3.35999
0.0005 0.000973676 0.000323776 2.30816
0.0005 0.000977112 0.000323776 1.51211
0.0005 0.000980235 0.000323776 0.947675
0.0005 0.000983075 0.000323776 0.568659
0.0005 0.000985656 0.000323776 0.325729
0.0005 0.000988002 0.000323776 0.176721
0.0005 0.000990136 0.000323776 0.0895499
0.0005 0.000992075 0.000323776 0.0414134
0.0005 0.000993838 0.000323776 0.0168156
0.0005 0.000995441 0.000323776 0.00559518
0.0005 0.000996898 0.000323776 0.00133072
0.0005 0.000998222 0.000323776 0.000165806
0.0005 0.000999427 0.000323776 4.97318e-06
0.0005 4.59758e-05 0.00041358 6.64617
0.0005 0.000133748 0.00041358 6.98602
0.0005 0.000213541 0.00041358 7.5678
0.0005 0.000286079 0.00041358 8.30899
0.0005 0.000352024 0.00041358 9.1428
0.0005 0.000411973 0.00041358 10.0177
0.0005 0.000466473 0.00041358 10.8954
0.0005 0.000516018 0.00041358 11.7493
0.0005 0.000561059 0.00041358 12.5612
0.0005 0.000602005 0.00041358 13.3202
0.0005 0.000639229 0.00041358 14.0198
0.0005 0.000673069 0.00041358 14.6529
0.0005 0.000703833 0.00041358 15.2106
0.0005 0.000731799 0.00041358 15.6876
0.0005 0.000757224 0.00041358 16.0819
0.0005 0.000780337 0.00041358 16.3928
0.0005 0.000801349 0.00041358 16.6195
0.0005 0.000820451 0.00041358 16.7601
0.0005 0.000837816 0.00041358 16.8111
0.0005 0.000853602 0.00041358 16.7673
0.0005 0.000867954 0.00041358 16.6214
0.0005 0.000881001 0.00041358 16.3644
0.0005 0.000892861 0.00041358 15.9854
0.0005 0.000903644 0.00041358 15.4724
0.0005 0.000913446 0.00041358 14.8129
0.0005 0.000922357 0.00041358 13.9961
0.0005 0.000930458 0.00041358 13.015
0.0005 0.000937823 0.00041358 11.8706
0.0005 0.000944518 0.00041358 10.5752
0.0005 0.000950604 0.00041358 9.15551
0.0005 0.000956137 0.00041358 7.6432
0.0005 0.000961167 0.00041358 6.10902
0.0005 0.00096574 0.00041358 4.649
0.0005 0.000969897 0.00041358 3.35981
0.0005 0.000973676 0.00041358 2.30804
0.0005 0.000977112 0.00041358 1.51202
0.0005 0.000980235 0.00041358 0.947619
0.0005 0.000983075 0.00041358 0.568625
0.0005 0.000985656 0.00041358 0.325709
0.0005 0.000988002 0.00041358 0.17671
0.0005 0.000990136 0.00041358 0.0895445
0.0005 0.000992075 0.00041358 0.0414109
0.0005 0.000993838 0.00041358 0.0168145
0.0005 0.000995441 0.00041358 0.00559484
0.0005 0.000996898 0.00041358 0.00133064
0.0005 0.000998222 0.00041358 0.000165796
0.0005 0.000999427 0.00041358 4.97288e-06
0.0005 4.59758e-05 0.00050219 6.64582
0.0005 0.000133748 0.00050219 6.98566
0.0005 0.000213541 0.00050219 7.56742
0.0005 0.000286079 0.00050219 8.30858
0.0005 0.000352024 0.00050219 9.14237
0.0005 0.000411973 0.00050219 10.0172
0.0005 0.000466473 0.00050219 10.895
0.0005 0.000516018 0.00050219 11.7488
0.0005 0.000561059 0.00050219 12.5607
0.0005 0.000602005 0.00050219 13.3197
0.0005 0.000639229 0.00050219 14.0192
0.0005 0.000673069 0.00050219 14.6524
0.0005 0.000703833 0.00050219 15.2101
0.0005 0.000731799 0.00050219 15.687
0.0005 0.000757224 0.00050219 16.0813
0.0005 0.000780337 0.00050219 16.3922
0.0005 0.000801349 0.00050219 16.6189
0.0005 0.000820451 0.00050219 16.7595
0.0005 0.000837816 0.00050219 16.8105
0.0005 0.000853602 0.00050219 16.7667
0.0005 0.000867954 0.00050219 16.6208
0.0005 0.000881001 0.00050219 16.3638
0.0005 0.000892861 0.00050219 15.9848
0.0005 0.000903644 0.00050219 15.4718
0.0005 0.000913446 0.00050219 14.8123
0.0005 0.000922357 0.00050219 13.9955
0.0005 0.000930458 0.00050219 13.0144
0.0005 0.000937823 0.00050219 11.87
0.0005 0.000944518 0.00050219 10.5747
0.0005 0.000950604 0.00050219 9.15502
0.0005 0.000956137 0.00050219 7.64276
0.0005 0.000961167 0.00050219 6.10864
0.0005 0.00096574 0.00050219 4.64869
0.0005 0.000969897 0.00050219 3.35957
0.0005 0.000973676 0.00050219 2.30786
0.0005 0.000977112 0.00050219 1.5119
0.0005 0.000980235 0.00050219 0.947545
0.0005 0.000983075 0.00050219 0.56858
0.0005 0.000985656 0.00050219 0.325684
0.0005 0.000988002 0.00050219 0.176696
0.0005 0.000990136 0.00050219 0.0895373
0.0005 0.000992075 0.00050219 0.0414076
0.0005 0.000993838 0.00050219 0.0168132
0.0005 0.000995441 0.00050219 0.0055944
0.0005 0.000996898 0.00050219 0.00133053
0.0005 0.000998222 0.00050219 0.000165783
0.0005 0.000999427 0.00050219 4.97248e-06
0.0005 4.59758e-05 0.000589625 6.64539
0.0005 0.000133748 0.000589625 6.98522
0.0005 0.000213541 0.000589625 7.56696
0.0005 0.000286079 0.000589625 8.30809
0.0005 0.000352024 0.000589625 9.14185
0.0005 0.000411973 0.000589625 10.0166
0.0005 0.000466473 0.000589625 10.8944
0.0005 0.000516018 0.000589625 11.7482
0.0005 0.000561059 0.000589625 12.56
0.0005 0.000602005 0.000589625 13.319
0.0005 0.000639229 0.000589625 14.0185
0.0005 0.000673069 0.000589625 14.6516
0.0005 0.000703833 0.000589625 15.2093
0.0005 0.000731799 0.000589625 15.6863
0.0005 0.000757224 0.000589625 16.0806
0.0005 0.000780337 0.000589625 16.3914
0.0005 0.000801349 0.000589625 16.6181
0.0005 0.000820451 0.000589625 16.7587
0.0005 0.000837816 0.000589625 16.8097
0.0005 0.000853602 0.000589625 16.7659
0.0005 0.000867954 0.000589625 16.62
0.0005 0.000881001 0.000589625 16.363
0.0005 0.000892861 0.000589625 15.984
0.0005 0.000903644 0.000589625 15.471
0.0005 0.000913446 0.000589625 14.8116
0.0005 0.000922357 0.000589625 13.9947
0.0005 0.000930458 0.000589625 13.0137
0.0005 0.000937823 0.000589625 11.8693
0.0005 0.000944518 0.000589625 10.5741
0.0005 0.000950604 0.000589625 9.15442
0.0005 0.000956137 0.000589625 7.64222
0.0005 0.000961167 0.000589625 6.10817
0.0005 0.00096574 0.000589625 4.64831
0.0005 0.000969897 0.000589625 3.35928
0.0005 0.000973676 0.000589625 2.30765
0.0005 0.000977112 0.000589625 1.51176
0.0005 0.000980235 0.000589625 0.947453
0.0005 0.000983075 0.000589625 0.568524
0.0005 0.000985656 0.000589625 0.325651
0.0005 0.000988002 0.000589625 0.176678
0.0005 0.000990136 0.000589625 0.0895284
0.0005 0.000992075 0.000589625 0.0414035
0.0005 0.000993838 0.000589625 0.0168115
0.0005 0.000995441 0.000589625 0.00559384
0.0005 0.000996898 0.000589625 0.0013304
0.0005 0.000998222 0.000589625 0.000165766
0.0005 0.000999427 0.000589625 4.97198e-06
0.0005 4.59758e-05 0.000675898 6.64489
0.0005 0.000133748 0.000675898 6.9847
0.0005 0.000213541 0.000675898 7.56641
0.0005 0.000286079 0.000675898 8.30751
0.0005 0.000352024 0.000675898 9.14123
0.0005 0.000411973 0.000675898 10.016
0.0005 0.000466473 0.000675898 10.8937
0.0005 0.000516018 0.000675898 11.7474
0.0005 0.000561059 0.000675898 12.5593
0.0005 0.000602005 0.000675898 13.3182
0.0005 0.000639229 0.000675898 14.0177
0.0005 0.000673069 0.000675898 14.6508
0.0005 0.000703833 0.000675898 15.2085
0.0005 0.000731799 0.000675898 15.6854
0.0005 0.000757224 0.000675898 16.0797
0.0005 0.000780337 0.000675898 16.3905
0.0005 0.000801349 0.000675898 16.6172
0.0005 0.000820451 0.000675898 16.7578
0.0005 0.000837816 0.000675898 16.8088
0.0005 0.000853602 0.000675898 16.765
0.0005 0.000867954 0.000675898 16.6191
0.0005 0.000881001 0.000675898 16.3621
0.0005 0.000892861 0.000675898 15.9831
0.0005 0.000903644 0.000675898 15.4701
0.0005 0.000913446 0.000675898 14.8107
0.0005 0.000922357 0.000675898 13.9939
0.0005 0.000930458 0.000675898 13.0129
0.0005 0.000937823 0.000675898 11.8685
0.0005 0.000944518 0.000675898 10.5733
0.0005 0.000950604 0.000675898 9.1537
0.0005 0.000956137 0.000675898 7.64157
0.0005 0.000961167 0.000675898 6.10761
0.0005 0.00096574 0.000675898 4.64784
0.0005 0.000969897 0.000675898 3.35892
0.0005 0.000973676 0.000675898 2.3074
0.0005 0.000977112 0.000675898 1.51158
0.0005 0.000980235 0.000675898 0.947342
0.0005 0.000983075 0.000675898 0.568457
0.0005 0.000985656 0.000675898 0.325612
0.0005 0.000988002 0.000675898 0.176657
0.0005 0.000990136 0.000675898 0.0895177
0.0005 0.000992075 0.000675898 0.0413985
0.0005 0.000993838 0.000675898 0.0168095
0.0005 0.000995441 0.000675898 0.00559317
0.0005 0.000996898 0.000675898 0.00133024
0.0005 0.000998222 0.000675898 0.000165747
0.0005 0.000999427 0.000675898 4.97139e-06
0.0005 4.59758e-05 0.000761026 6.64432
0.0005 0.000133748 0.000761026 6.98411
0.0005 0.000213541 0.000761026 7.56579
0.0005 0.000286079 0.000761026 8.30684
0.0005 0.000352024 0.000761026 9.14052
0.0005 0.000411973 0.000761026 10.0152
0.0005 0.000466473 0.000761026 10.8929
0.0005 0.000516018 0.000761026 11.7466
0.0005 0.000561059 0.000761026 12.5584
0.0005 0.000602005 0.000761026 13.3173
0.0005 0.000639229 0.000761026 14.0168
0.0005 0.000673069 0.000761026 14.6498
0.0005 0.000703833 0.000761026 15.2075
0.0005 0.000731799 0.000761026 15.6844
0.0005 0.000757224 0.000761026 16.0786
0.0005 0.000780337 0.000761026 16.3895
0.0005 0.000801349 0.000761026 16.6161
0.0005 0.000820451 0.000761026 16.7567
0.0005 0.000837816 0.000761026 16.8077
0.0005 0.000853602 0.000761026 16.7639
0.0005 0.000867954 0.000761026 16.618
0.0005 0.000881001 0.000761026 16.361
0.0005 0.000892861 0.000761026 15.9821
0.0005 0.000903644 0.000761026 15.469
0.0005 0.000913446 0.000761026 14.8096
0.0005 0.000922357 0.000761026 13.9928
0.0005 0.000930458 0.000761026 13.0119
0.0005 0.000937823 0.000761026 11.8676
0.0005 0.000944518 0.000761026 10.5724
0.0005 0.000950604 0.000761026 9.15286
0.0005 0.000956137 0.000761026 7.64082
0.0005 0.000961167 0.000761026 6.10696
0.0005 0.00096574 0.000761026 4.64731
0.0005 0.000969897 0.000761026 3.35851
0.0005 0.000973676 0.000761026 2.3071
0.0005 0.000977112 0.000761026 1.51138
0.0005 0.000980235 0.000761026 0.947213
0.0005 0.000983075 0.000761026 0.568378
0.0005 0.000985656 0.000761026 0.325567
0.0005 0.000988002 0.000761026 0.176633
0.0005 0.000990136 0.000761026 0.0895052
0.0005 0.000992075 0.000761026 0.0413928
0.0005 0.000993838 0.000761026 0.0168072
0.0005 0.000995441 0.000761026 0.00559239
0.0005 0.000996898 0.000761026 0.00133005
0.0005 0.000998222 0.000761026 0.000165723
0.0005 0.000999427 0.000761026 4.97069e-06
0.0005 4.59758e-05 0.000845023 6.64366
0.0005 0.000133748 0.000845023 6.98343
0.0005 0.000213541 0.000845023 7.56507
0.0005 0.000286079 0.000845023 8.30608
0.0005 0.000352024 0.000845023 9.1397
0.0005 0.000411973 0.000845023 10.0144
0.0005 0.000466473 0.000845023 10.892
0.0005 0.000516018 0.000845023 11.7456
0.0005 0.000561059 0.000845023 12.5574
0.0005 0.000602005 0.000845023 13.3162
0.0005 0.000639229 0.000845023 14.0157
0.0005 0.000673069 0.000845023 14.6487
0.0005 0.000703833 0.000845023 15.2063
0.0005 0.000731799 0.000845023 15.6832
0.0005 0.000757224 0.000845023 16.0774
0.0005 0.000780337 0.000845023 16.3883
0.0005 0.000801349 0.000845023 16.6149
0.0005 0.000820451 0.000845023 16.7555
0.0005 0.000837816 0.000845023 16.8065
0.0005 0.000853602 0.000845023 16.7627
0.0005 0.000867954 0.000845023 16.6168
0.0005 0.000881001 0.000845023 16.3598
0.0005 0.000892861 0.000845023 15.9808
0.0005 0.000903644 0.000845023 15.4678
0.0005 0.000913446 0.000845023 14.8084
0.0005 0.000922357 0.000845023 13.9917
0.0005 0.000930458 0.000845023 13.0107
0.0005 0.000937823 0.000845023 11.8665
0.0005 0.000944518 0.000845023 10.5713
0.0005 0.000950604 0.000845023 9.1519
0.0005 0.000956137 0.000845023 7.63995
0.0005 0.000961167 0.000845023 6.1062
0.0005 0.00096574 0.000845023 4.64669
0.0005 0.000969897 0.000845023 3.35803
0.0005 0.000973676 0.000845023 2.30675
0.0005 0.000977112 0.000845023 1.51115
0.0005 0.000980235 0.000845023 0.947065
0.0005 0.000983075 0.000845023 0.568288
0.0005 0.000985656 0.000845023 0.325515
0.0005 0.000988002 0.000845023 0.176605
0.0005 0.000990136 0.000845023 0.0894909
0.0005 0.000992075 0.000845023 0.0413861
0.0005 0.000993838 0.000845023 0.0168045
0.0005 0.000995441 0.000845023 0.00559149
0.0005 0.000996898 0.000845023 0.00132984
0.0005 0.000998222 0.000845023 0.000165697
0.0005 0.000999427 0.000845023 4.9699e-06
0.0005 4.59758e-05 0.000927906 6.64293
0.0005 0.000133748 0.000927906 6.98267
0.0005 0.000213541 0.000927906 7.56427
0.0005 0.000286079 0.000927906 8.30523
0.0005 0.000352024 0.000927906 9.13879
0.0005 0.000411973 0.000927906 10.0134
0.0005 0.000466473 0.000927906 10.8909
0.0005 0.000516018 0.000927906 11.7445
0.0005 0.000561059 0.000927906 12.5562
0.0005 0.000602005 0.000927906 13.315
0.0005 0.000639229 0.000927906 14.0144
0.0005 0.000673069 0.000927906 14.6474
0.0005 0.000703833 0.000927906 15.205
0.0005 0.000731799 0.000927906 15.6819
0.0005 0.000757224 0.000927906 16.0761
0.0005 0.000780337 0.000927906 16.3869
0.0005 0.000801349 0.000927906 16.6135
0.0005 0.000820451 0.000927906 16.7541
0.0005 0.000837816 0.000927906 16.8051
0.0005 0.000853602 0.000927906 16.7613
0.0005 0.000867954 0.000927906 16.6154
0.0005 0.000881001 0.000927906 16.3584
0.0005 0.000892861 0.000927906 15.9795
0.0005 0.000903644 0.000927906 15.4665
0.0005 0.000913446 0.000927906 14.8071
0.0005 0.000922357 0.000927906 13.9903
0.0005 0.000930458 0.000927906 13.0094
0.0005 0.000937823 0.000927906 11.8652
0.0005 0.000944518 0.000927906 10.5702
0.0005 0.000950604 0.000927906 9.15081
0.0005 0.000956137 0.000927906 7.63896
0.0005 0.000961167 0.000927906 6.10535
0.0005 0.00096574 0.000927906 4.64599
0.0005 0.000969897 0.000927906 3.3575
0.0005 0.000973676 0.000927906 2.30637
0.0005 0.000977112 0.000927906 1.51089
0.0005 0.000980235 0.000927906 0.946897
0.0005 0.000983075 0.000927906 0.568186
0.0005 0.000985656 0.000927906 0.325457
0.0005 0.000988002 0.000927906 0.176573
0.0005 0.000990136 0.000927906 0.0894747
0.0005 0.000992075 0.000927906 0.0413786
0.0005 0.000993838 0.000927906 0.0168014
0.0005 0.000995441 0.000927906 0.00559048
0.0005 0.000996898 0.000927906 0.0013296
0.0005 0.000998222 0.000927906 0.000165667
0.0005 0.000999427 0.000927906 4.969e-06
0.0005 4.59758e-05 0.00100969 6.64211
0.0005 0.000133748 0.00100969 6.98183
0.0005 0.000213541 0.00100969 7.56338
0.0005 0.000286079 0.00100969 8.30428
0.0005 0.000352024 0.00100969 9.13777
0.0005 0.000411973 0.00100969 10.0123
0.0005 0.000466473 0.00100969 10.8898
0.0005 0.000516018 0.00100969 11.7433
0.0005 0.000561059 0.00100969 12.5549
0.0005 0.000602005 0.00100969 13.3137
0.0005 0.000639229 0.00100969 14.0131
0.0005 0.000673069 0.00100969 14.646
0.0005 0.000703833 0.00100969 15.2036
0.0005 0.000731799 0.00100969 15.6804
0.0005 0.000757224 0.00100969 16.0746
0.0005 0.000780337 0.00100969 16.3854
0.0005 0.000801349 0.00100969 16.612
0.0005 0.000820451 0.00100969 16.7526
0.0005 0.000837816 0.00100969 16.8036
0.0005 0.000853602 0.00100969 16.7597
0.0005 0.000867954 0.00100969 16.6139
0.0005 0.000881001 0.00100969 16.3569
0.0005 0.000892861 0.00100969 15.9779
0.0005 0.000903644 0.00100969 15.4649
0.0005 0.000913446 0.00100969 14.8056
0.0005 0.000922357 0.00100969 13.9888
0.0005 0.000930458 0.00100969 13.008
0.0005 0.000937823 0.00100969 11.8638
0.0005 0.000944518 0.00100969 10.5688
0.0005 0.000950604 0.00100969 9.14959
0.0005 0.000956137 0.00100969 7.63787
0.0005 0.000961167 0.00100969 6.1044
0.0005 0.00096574 0.00100969 4.64521
0.0005 0.000969897 0.00100969 3.3569
0.0005 0.000973676 0.00100969 2.30593
0.0005 0.000977112 0.00100969 1.5106
0.0005 0.000980235 0.00100969 0.94671
0.0005 0.000983075 0.00100969 0.568072
0.0005 0.000985656 0.00100969 0.325391
0.0005 0.000988002 0.00100969 0.176537
0.0005 0.000990136 0.00100969 0.0894566
0.0005 0.000992075 0.00100969 0.0413703
0.0005 0.000993838 0.00100969 0.016798
0.0005 0.000995441 0.00100969 0.00558935
0.0005 0.000996898 0.00100969 0.00132933
0.0005 0.000998222 0.00100969 0.000165633
0.0005 0.000999427 0.00100969 4.96799e-06
0.0005 4.59758e-05 0.00109038 6.64121
0.0005 0.000133748 0.00109038 6.9809
0.0005 0.000213541 0.00109038 7.56239
0.0005 0.000286079 0.00109038 8.30322
0.0005 0.000352024 0.00109038 9.13664
0.0005 0.000411973 0.00109038 10.0111
0.0005 0.000466473 0.00109038 10.8885
0.0005 0.000516018 0.00109038 11.7419
0.0005 0.000561059 0.00109038 12.5535
0.0005 0.000602005 0.00109038 13.3122
0.0005 0.000639229 0.00109038 14.0115
0.0005 0.000673069 0.00109038 14.6444
0.0005 0.000703833 0.00109038 15.2019
0.0005 0.000731799 0.00109038 15.6788
0.0005 0.000757224 0.00109038 16.0729
0.0005 0.000780337 0.00109038 16.3837
0.0005 0.000801349 0.00109038 16.6103
0.0005 0.000820451 0.00109038 16.7508
0.0005 0.000837816 0.00109038 16.8018
0.0005 0.000853602 0.00109038 16.758
0.0005 0.000867954 0.00109038 16.6121
0.0005 0.000881001 0.00109038 16.3552
0.0005 0.000892861 0.00109038 15.9762
0.0005 0.000903644 0.00109038 15.4632
0.0005 0.000913446 0.00109038 14.8039
0.0005 0.000922357 0.00109038 13.9872
0.0005 0.000930458 0.00109038 13.0064
0.0005 0.000937823 0.00109038 11.8623
0.0005 0.000944518 0.00109038 10.5674
0.0005 0.000950604 0.00109038 9.14824
0.0005 0.000956137 0.00109038 7.63665
0.0005 0.000961167 0.00109038 6.10335
0.0005 0.00096574 0.00109038 4.64435
0.0005 0.000969897 0.00109038 3.35623
0.0005 0.000973676 0.00109038 2.30545
0.0005 0.000977112 0.00109038 1.51027
0.0005 0.000980235 0.00109038 0.946502
0.0005 0.000983075 0.00109038 0.567946
0.0005 0.000985656 0.00109038 0.325318
0.0005 0.000988002 0.00109038 0.176497
0.0005 0.000990136 0.00109038 0.0894365
0.0005 0.000992075 0.00109038 0.0413609
0.0005 0.000993838 0.00109038 0.0167943
0.0005 0.000995441 0.00109038 0.00558809
0.0005 0.000996898 0.00109038 0.00132903
0.0005 0.000998222 0.00109038 0.000165596
0.0005 0.000999427 0.00109038 4.96687e-06
0.0005 4.59758e-05 0.00117001 6.64022
0.0005 0.000133748 0.00117001 6.97987
0.0005 0.000213541 0.00117001 7.5613
0.0005 0.000286079 0.00117001 8.30206
0.0005 0.000352024 0.00117001 9.13539
0.0005 0.000411973 0.00117001 10.0098
0.0005 0.000466473 0.00117001 10.8871
0.0005 0.000516018 0.00117001 11.7404
0.0005 0.000561059 0.00117001 12.552
0.0005 0.000602005 0.00117001 13.3106
0.0005 0.000639229 0.00117001 14.0098
0.0005 0.000673069 0.00117001 14.6427
0.0005 0.000703833 0.00117001 15.2002
0.0005 0.000731799 0.00117001 15.677
0.0005 0.000757224 0.00117001 16.0711
0.0005 0.000780337 0.00117001 16.3818
0.0005 0.000801349 0.00117001 16.6084
0.0005 0.000820451 0.00117001 16.749
0.0005 0.000837816 0.00117001 16.7999
0.0005 0.000853602 0.00117001 16.7561
0.0005 0.000867954 0.00117001 16.6102
0.0005 0.000881001 0.00117001 16.3533
0.0005 0.000892861 0.00117001 15.9743
0.0005 0.000903644 0.00117001 15.4614
0.0005 0.000913446 0.00117001 14.802
0.0005 0.000922357 0.00117001 13.9854
0.0005 0.000930458 0.00117001 13.0046
0.0005 0.000937823 0.00117001 11.8606
0.0005 0.000944518 0.00117001 10.5658
0.0005 0.000950604 0.00117001 9.14675
0.0005 0.000956137 0.00117001 7.6353
0.0005 0.000961167 0.00117001 6.10218
0.0005 0.00096574 0.00117001 4.64339
0.0005 0.000969897 0.00117001 3.35549
0.0005 0.000973676 0.00117001 2.30492
0.0005 0.000977112 0.00117001 1.50991
0.0005 0.000980235 0.00117001 0.946272
0.0005 0.000983075 0.00117001 0.567807
0.0005 0.000985656 0.00117001 0.325238
0.0005 0.000988002 0.00117001 0.176454
0.0005 0.000990136 0.00117001 0.0894143
0.0005 0.000992075 0.00117001 0.0413507
0.0005 0.000993838 0.00117001 0.0167901
0.0005 0.000995441 0.00117001 0.00558671
0.0005 0.000996898 0.00117001 0.0013287
0.0005 0.000998222 0.00117001 0.000165555
0.0005 0.000999427 0.00117001 4.96564e-06
0.0005 4.59758e-05 0.00124857 6.63913
0.0005 0.000133748 0.00124857 6.97875
0.0005 0.000213541 0.00124857 7.56012
0.0005 0.000286079 0.00124857 8.30079
0.0005 0.000352024 0.00124857 9.13403
0.0005 0.000411973 0.00124857 10.0083
0.0005 0.000466473 0.00124857 10.8855
0.0005 0.000516018 0.00124857 11.7388
0.0005 0.000561059 0.00124857 12.5502
0.0005 0.000602005 0.00124857 13.3088
0.0005 0.000639229 0.00124857 14.008
0.0005 0.000673069 0.00124857 14.6408
0.0005 0.000703833 0.00124857 15.1982
0.0005 0.000731799 0.00124857 15.675
0.0005 0.000757224 0.00124857 16.069
0.0005 0.000780337 0.00124857 16.3798
0.0005 0.000801349 0.00124857 16.6064
0.0005 0.000820451 0.00124857 16.7469
0.0005 0.000837816 0.00124857 16.7979
0.0005 0.000853602 0.00124857 16.754
0.0005 0.000867954 0.00124857 16.6082
0.0005 0.000881001 0.00124857 16.3512
0.0005 0.000892861 0.00124857 15.9722
0.0005 0.000903644 0.00124857 15.4593
0.0005 0.000913446 0.00124857 14.8
0.0005 0.000922357 0.00124857 13.9834
0.0005 0.000930458 0.00124857 13.0027
0.0005 0.000937823 0.00124857 11.8587
0.0005 0.000944518 0.00124857 10.564
0.0005 0.000950604 0.00124857 9.14511
0.0005 0.000956137 0.00124857 7.63383
0.0005 0.000961167 0.00124857 6.10091
0.0005 0.00096574 0.00124857 4.64235
0.0005 0.000969897 0.00124857 3.35469
0.0005 0.000973676 0.00124857 2.30434
0.0005 0.000977112 0.00124857 1.50952
0.0005 0.000980235 0.00124857 0.946021
0.0005 0.000983075 0.00124857 0.567654
0.0005 0.000985656 0.00124857 0.32515
0.0005 0.000988002 0.00124857 0.176406
0.0005 0.000990136 0.00124857 0.08939
0.0005 0.000992075 0.00124857 0.0413395
0.0005 0.000993838 0.00124857 0.0167855
0.0005 0.000995441 0.00124857 0.00558519
0.0005 0.000996898 0.00124857 0.00132834
0.0005 0.000998222 0.00124857 0.00016551
0.0005 0.000999427 0.00124857 4.96429e-06
0.0005 4.59758e-05 0.0013261 6.63795
0.0005 0.000133748 0.0013261 6.97752
0.0005 0.000213541 0.0013261 7.55882
0.0005 0.000286079 0.0013261 8.2994
0.0005 0.000352024 0.0013261 9.13254
0.0005 0.000411973 0.0013261 10.0067
0.0005 0.000466473 0.0013261 10.8838
0.0005 0.000516018 0.0013261 11.737
0.0005 0.000561059 0.0013261 12.5484
0.0005 0.000602005 0.0013261 13.3069
0.0005 0.000639229 0.0013261 14.006
0.0005 0.000673069 0.0013261 14.6387
0.0005 0.000703833 0.0013261 15.1961
0.0005 0.000731799 0.0013261 15.6728
0.0005 0.000757224 0.0013261 16.0668
0.0005 0.000780337 0.0013261 16.3775
0.0005 0.000801349 0.0013261 16.6041
0.0005 0.000820451 0.0013261 16.7446
0.0005 0.000837816 0.0013261 16.7956
0.0005 0.000853602 0.0013261 16.7517
0.0005 0.000867954 0.0013261 16.6059
0.0005 0.000881001 0.0013261 16.3489
0.0005 0.000892861 0.0013261 15.97
0.0005 0.000903644 0.0013261 15.4571
0.0005 0.000913446 0.0013261 14.7978
0.0005 0.000922357 0.0013261 13.9812
0.0005 0.000930458 0.0013261 13.0006
0.0005 0.000937823 0.0013261 11.8567
0.0005 0.000944518 0.0013261 10.5621
0.0005 0.000950604 0.0013261 9.14333
0.0005 0.000956137 0.0013261 7.63222
0.0005 0.000961167 0.0013261 6.09952
0.0005 0.00096574 0.0013261 4.64121
0.0005 0.000969897 0.0013261 3.35381
0.0005 0.000973676 0.0013261 2.30371
0.0005 0.000977112 0.0013261 1.50909
0.0005 0.000980235 0.0013261 0.945747
0.0005 0.000983075 0.0013261 0.567488
0.0005 0.000985656 0.0013261 0.325054
0.0005 0.000988002 0.0013261 0.176354
0.0005 0.000990136 0.0013261 0.0893635
0.0005 0.000992075 0.0013261 0.0413272
0.0005 0.000993838 0.0013261 0.0167805
0.0005 0.000995441 0.0013261 0.00558353
0.0005 0.000996898 0.0013261 0.00132795
0.0005 0.000998222 0.0013261 0.000165461
0.0005 0.000999427 0.0013261 4.96282e-06
0.0005 4.59758e-05 0.00140259 6.63668
0.0005 0.000133748 0.00140259 6.9762
0.0005 0.000213541 0.00140259 7.55742
0.0005 0.000286079 0.00140259 8.2979
0.0005 0.000352024 0.00140259 9.13093
0.0005 0.000411973 0.00140259 10.005
0.0005 0.000466473 0.00140259 10.882
0.0005 0.000516018 0.00140259 11.7351
0.0005 0.000561059 0.00140259 12.5463
0.0005 0.000602005 0.00140259 13.3047
0.0005 0.000639229 0.00140259 14.0038
0.0005 0.000673069 0.00140259 14.6364
0.0005 0.000703833 0.00140259 15.1938
0.0005 0.000731799 0.00140259 15.6704
0.0005 0.000757224 0.00140259 16.0644
0.0005 0.000780337 0.00140259 16.3751
0.0005 0.000801349 0.00140259 16.6017
0.0005 0.000820451 0.00140259 16.7422
0.0005 0.000837816 0.00140259 16.7931