# omega  FACE_DATA 15463
#  x  y  z  omega
0.0005 4.59758e-05 4.70511e-05 20661.9
0.0005 0.000133748 4.70511e-05 22118.3
0.0005 0.000213541 4.70511e-05 24716.3
0.0005 0.000286079 4.70511e-05 28242
0.0005 0.000352024 4.70511e-05 32553.2
0.0005 0.000411973 4.70511e-05 37568.6
0.0005 0.000466473 4.70511e-05 43256.1
0.0005 0.000516018 4.70511e-05 49623.4
0.0005 0.000561059 4.70511e-05 56716.9
0.0005 0.000602005 4.70511e-05 64629.1
0.0005 0.000639229 4.70511e-05 73493.6
0.0005 0.000673069 4.70511e-05 83426.5
0.0005 0.000703833 4.70511e-05 94526.2
0.0005 0.000731799 4.70511e-05 106936
0.0005 0.000757224 4.70511e-05 120862
0.0005 0.000780337 4.70511e-05 136571
0.0005 0.000801349 4.70511e-05 154387
0.0005 0.000820451 4.70511e-05 174697
0.0005 0.000837816 4.70511e-05 197956
0.0005 0.000853602 4.70511e-05 224696
0.0005 0.000867954 4.70511e-05 255538
0.0005 0.000881001 4.70511e-05 291202
0.0005 0.000892861 4.70511e-05 332525
0.0005 0.000903644 4.70511e-05 380476
0.0005 0.000913446 4.70511e-05 436175
0.0005 0.000922357 4.70511e-05 500935
0.0005 0.000930458 4.70511e-05 576335
0.0005 0.000937823 4.70511e-05 664384
0.0005 0.000944518 4.70511e-05 767845
0.0005 0.000950604 4.70511e-05 890812
0.0005 0.000956137 4.70511e-05 1.03969e+06
0.0005 0.000961167 4.70511e-05 1.2239e+06
0.0005 0.00096574 4.70511e-05 1.45787e+06
0.0005 0.000969897 4.70511e-05 1.76527e+06
0.0005 0.000973676 4.70511e-05 2.18394e+06
0.0005 0.000977112 4.70511e-05 2.77293e+06
0.0005 0.000980235 4.70511e-05 3.62444e+06
0.0005 0.000983075 4.70511e-05 4.88683e+06
0.0005 0.000985656 4.70511e-05 6.81141e+06
0.0005 0.000988002 4.70511e-05 9.85159e+06
0.0005 0.000990136 4.70511e-05 1.4889e+07
0.0005 0.000992075 4.70511e-05 2.38022e+07
0.0005 0.000993838 4.70511e-05 4.11013e+07
0.0005 0.000995441 4.70511e-05 7.95353e+07
0.0005 0.000996898 4.70511e-05 1.84801e+08
0.0005 0.000998222 4.70511e-05 5.94344e+08
0.0005 0.000999427 4.70511e-05 3.64963e+09
0.0005 4.59758e-05 0.000140529 20661.8
0.0005 0.000133748 0.000140529 22118.2
0.0005 0.000213541 0.000140529 24716.2
0.0005 0.000286079 0.000140529 28241.9
0.0005 0.000352024 0.000140529 32553.1
0.0005 0.000411973 0.000140529 37568.5
0.0005 0.000466473 0.000140529 43256
0.0005 0.000516018 0.000140529 49623.3
0.0005 0.000561059 0.000140529 56716.8
0.0005 0.000602005 0.000140529 64629
0.0005 0.000639229 0.000140529 73493.6
0.0005 0.000673069 0.000140529 83426.5
0.0005 0.000703833 0.000140529 94526.2
0.0005 0.000731799 0.000140529 106936
0.0005 0.000757224 0.000140529 120862
0.0005 0.000780337 0.000140529 136571
0.0005 0.000801349 0.000140529 154387
0.0005 0.000820451 0.000140529 174697
0.0005 0.000837816 0.000140529 197956
0.0005 0.000853602 0.000140529 224696
0.0005 0.000867954 0.000140529 255539
0.0005 0.000881001 0.000140529 291203
0.0005 0.000892861 0.000140529 332526
0.0005 0.000903644 0.000140529 380477
0.0005 0.000913446 0.000140529 436176
0.0005 0.000922357 0.000140529 500936
0.0005 0.000930458 0.000140529 576336
0.0005 0.000937823 0.000140529 664385
0.0005 0.000944518 0.000140529 767846
0.0005 0.000950604 0.000140529 890812
0.0005 0.000956137 0.000140529 1.03969e+06
0.0005 0.000961167 0.000140529 1.2239e+06
0.0005 0.00096574 0.000140529 1.45787e+06
0.0005 0.000969897 0.000140529 1.76527e+06
0.0005 0.000973676 0.000140529 2.18394e+06
0.0005 0.000977112 0.000140529 2.77293e+06
0.0005 0.000980235 0.000140529 3.62444e+06
0.0005 0.000983075 0.000140529 4.88683e+06
0.0005 0.000985656 0.000140529 6.81141e+06
0.0005 0.000988002 0.000140529 9.85159e+06
0.0005 0.000990136 0.000140529 1.4889e+07
0.0005 0.000992075 0.000140529 2.38022e+07
0.0005 0.000993838 0.000140529 4.11013e+07
0.0005 0.000995441 0.000140529 7.95353e+07
0.0005 0.000996898 0.000140529 1.84801e+08
0.0005 0.000998222 0.000140529 5.94344e+08
0.0005 0.000999427 0.000140529 3.64963e+09
0.0005 4.59758e-05 0.000232765 20661.7
0.0005 0.000133748 0.000232765 22118
0.0005 0.000213541 0.000232765 24716
0.0005 0.000286079 0.000232765 28241.7
0.0005 0.000352024 0.000232765 32552.9
0.0005 0.000411973 0.000232765 37568.3
0.0005 0.000466473 0.000232765 43255.8
0.0005 0.000516018 0.000232765 49623.1
0.0005 0.000561059 0.000232765 56716.5
0.0005 0.000602005 0.000232765 64628.7
0.0005 0.000639229 0.000232765 73493.3
0.0005 0.000673069 0.000232765 83426.2
0.0005 0.000703833 0.000232765 94526
0.0005 0.000731799 0.000232765 106936
0.0005 0.000757224 0.000232765 120862
0.0005 0.000780337 0.000232765 136570
0.0005 0.000801349 0.000232765 154387
0.0005 0.000820451 0.000232765 174697
0.0005 0.000837816 0.000232765 197956
0.0005 0.000853602 0.000232765 224696
0.0005 0.000867954 0.000232765 255538
0.0005 0.000881001 0.000232765 291202
0.0005 0.000892861 0.000232765 332526
0.0005 0.000903644 0.000232765 380476
0.0005 0.000913446 0.000232765 436175
0.0005 0.000922357 0.000232765 500935
0.0005 0.000930458 0.000232765 576335
0.0005 0.000937823 0.000232765 664384
0.0005 0.000944518 0.000232765 767844
0.0005 0.000950604 0.000232765 890811
0.0005 0.000956137 0.000232765 1.03968e+06
0.0005 0.000961167 0.000232765 1.22389e+06
0.0005 0.00096574 0.000232765 1.45787e+06
0.0005 0.000969897 0.000232765 1.76527e+06
0.0005 0.000973676 0.000232765 2.18394e+06
0.0005 0.000977112 0.000232765 2.77293e+06
0.0005 0.000980235 0.000232765 3.62443e+06
0.0005 0.000983075 0.000232765 4.88683e+06
0.0005 0.000985656 0.000232765 6.81141e+06
0.0005 0.000988002 0.000232765 9.85159e+06
0.0005 0.000990136 0.000232765 1.4889e+07
0.0005 0.000992075 0.000232765 2.38022e+07
0.0005 0.000993838 0.000232765 4.11013e+07
0.0005 0.000995441 0.000232765 7.95353e+07
0.0005 0.000996898 0.000232765 1.84801e+08
0.0005 0.000998222 0.000232765 5.94344e+08
0.0005 0.000999427 0.000232765 3.64963e+09
0.0005 4.59758e-05 0.000323776 20661.4
0.0005 0.000133748 0.000323776 22117.7
0.0005 0.000213541 0.000323776 24715.7
0.0005 0.000286079 0.000323776 28241.4
0.0005 0.000352024 0.000323776 32552.6
0.0005 0.000411973 0.000323776 37568
0.0005 0.000466473 0.000323776 43255.4
0.0005 0.000516018 0.000323776 49622.7
0.0005 0.000561059 0.000323776 56716.1
0.0005 0.000602005 0.000323776 64628.3
0.0005 0.000639229 0.000323776 73492.9
0.0005 0.000673069 0.000323776 83425.8
0.0005 0.000703833 0.000323776 94525.5
0.0005 0.000731799 0.000323776 106936
0.0005 0.000757224 0.000323776 120861
0.0005 0.000780337 0.000323776 136570
0.0005 0.000801349 0.000323776 154386
0.0005 0.000820451 0.000323776 174697
0.0005 0.000837816 0.000323776 197955
0.0005 0.000853602 0.000323776 224695
0.0005 0.000867954 0.000323776 255537
0.0005 0.000881001 0.000323776 291201
0.0005 0.000892861 0.000323776 332524
0.0005 0.000903644 0.000323776 380475
0.0005 0.000913446 0.000323776 436174
0.0005 0.000922357 0.000323776 500933
0.0005 0.000930458 0.000323776 576332
0.0005 0.000937823 0.000323776 664381
0.0005 0.000944518 0.000323776 767841
0.0005 0.000950604 0.000323776 890806
0.0005 0.000956137 0.000323776 1.03968e+06
0.0005 0.000961167 0.000323776 1.22389e+06
0.0005 0.00096574 0.000323776 1.45786e+06
0.0005 0.000969897 0.000323776 1.76526e+06
0.0005 0.000973676 0.000323776 2.18393e+06
0.0005 0.000977112 0.000323776 2.77292e+06
0.0005 0.000980235 0.000323776 3.62443e+06
0.0005 0.000983075 0.000323776 4.88683e+06
0.0005 0.000985656 0.000323776 6.81141e+06
0.0005 0.000988002 0.000323776 9.85159e+06
0.0005 0.000990136 0.000323776 1.4889e+07
0.0005 0.000992075 0.000323776 2.38022e+07
0.0005 0.000993838 0.000323776 4.11013e+07
0.0005 0.000995441 0.000323776 7.95353e+07
0.0005 0.000996898 0.000323776 1.84801e+08
0.0005 0.000998222 0.000323776 5.94344e+08
0.0005 0.000999427 0.000323776 3.64963e+09
0.0005 4.59758e-05 0.00041358 20661.1
0.0005 0.000133748 0.00041358 22117.4
0.0005 0.000213541 0.00041358 24715.3
0.0005 0.000286079 0.00041358 28241
0.0005 0.000352024 0.00041358 32552.2
0.0005 0.000411973 0.00041358 37567.5
0.0005 0.000466473 0.00041358 43254.9
0.0005 0.000516018 0.00041358 49622.2
0.0005 0.000561059 0.00041358 56715.5
0.0005 0.000602005 0.00041358 64627.7
0.0005 0.000639229 0.00041358 73492.2
0.0005 0.000673069 0.00041358 83425.1
0.0005 0.000703833 0.00041358 94524.7
0.0005 0.000731799 0.00041358 106935
0.0005 0.000757224 0.00041358 120861
0.0005 0.000780337 0.00041358 136569
0.0005 0.000801349 0.00041358 154385
0.0005 0.000820451 0.00041358 174695
0.0005 0.000837816 0.00041358 197953
0.0005 0.000853602 0.00041358 224694
0.0005 0.000867954 0.00041358 255536
0.0005 0.000881001 0.00041358 291199
0.0005 0.000892861 0.00041358 332522
0.0005 0.000903644 0.00041358 380472
0.0005 0.000913446 0.00041358 436171
0.0005 0.000922357 0.00041358 500930
0.0005 0.000930458 0.00041358 576328
0.0005 0.000937823 0.00041358 664376
0.0005 0.000944518 0.00041358 767835
0.0005 0.000950604 0.00041358 890800
0.0005 0.000956137 0.00041358 1.03967e+06
0.0005 0.000961167 0.00041358 1.22388e+06
0.0005 0.00096574 0.00041358 1.45785e+06
0.0005 0.000969897 0.00041358 1.76525e+06
0.0005 0.000973676 0.00041358 2.18392e+06
0.0005 0.000977112 0.00041358 2.77291e+06
0.0005 0.000980235 0.00041358 3.62442e+06
0.0005 0.000983075 0.00041358 4.88682e+06
0.0005 0.000985656 0.00041358 6.8114e+06
0.0005 0.000988002 0.00041358 9.85158e+06
0.0005 0.000990136 0.00041358 1.4889e+07
0.0005 0.000992075 0.00041358 2.38022e+07
0.0005 0.000993838 0.00041358 4.11013e+07
0.0005 0.000995441 0.00041358 7.95353e+07
0.0005 0.000996898 0.00041358 1.84801e+08
0.0005 0.000998222 0.00041358 5.94344e+08
0.0005 0.000999427 0.00041358 3.64963e+09
0.0005 4.59758e-05 0.00050219 20660.6
0.0005 0.000133748 0.00050219 22116.9
0.0005 0.000213541 0.00050219 24714.9
0.0005 0.000286079 0.00050219 28240.5
0.0005 0.000352024 0.00050219 32551.6
0.0005 0.000411973 0.00050219 37566.9
0.0005 0.000466473 0.00050219 43254.3
0.0005 0.000516018 0.00050219 49621.5
0.0005 0.000561059 0.00050219 56714.8
0.0005 0.000602005 0.00050219 64626.9
0.0005 0.000639229 0.00050219 73491.3
0.0005 0.000673069 0.00050219 83424.1
0.0005 0.000703833 0.00050219 94523.7
0.0005 0.000731799 0.00050219 106934
0.0005 0.000757224 0.00050219 120859
0.0005 0.000780337 0.00050219 136567
0.0005 0.000801349 0.00050219 154384
0.0005 0.000820451 0.00050219 174694
0.0005 0.000837816 0.00050219 197952
0.0005 0.000853602 0.00050219 224691
0.0005 0.000867954 0.00050219 255533
0.0005 0.000881001 0.00050219 291197
0.0005 0.000892861 0.00050219 332519
0.0005 0.000903644 0.00050219 380469
0.0005 0.000913446 0.00050219 436167
0.0005 0.000922357 0.00050219 500925
0.0005 0.000930458 0.00050219 576323
0.0005 0.000937823 0.00050219 664370
0.0005 0.000944518 0.00050219 767828
0.0005 0.000950604 0.00050219 890791
0.0005 0.000956137 0.00050219 1.03966e+06
0.0005 0.000961167 0.00050219 1.22387e+06
0.0005 0.00096574 0.00050219 1.45784e+06
0.0005 0.000969897 0.00050219 1.76524e+06
0.0005 0.000973676 0.00050219 2.18391e+06
0.0005 0.000977112 0.00050219 2.7729e+06
0.0005 0.000980235 0.00050219 3.62441e+06
0.0005 0.000983075 0.00050219 4.88681e+06
0.0005 0.000985656 0.00050219 6.81139e+06
0.0005 0.000988002 0.00050219 9.85158e+06
0.0005 0.000990136 0.00050219 1.4889e+07
0.0005 0.000992075 0.00050219 2.38022e+07
0.0005 0.000993838 0.00050219 4.11013e+07
0.0005 0.000995441 0.00050219 7.95353e+07
0.0005 0.000996898 0.00050219 1.84801e+08
0.0005 0.000998222 0.00050219 5.94344e+08
0.0005 0.000999427 0.00050219 3.64963e+09
0.0005 4.59758e-05 0.000589625 20660.1
0.0005 0.000133748 0.000589625 22116.4
0.0005 0.000213541 0.000589625 24714.3
0.0005 0.000286079 0.000589625 28239.9
0.0005 0.000352024 0.000589625 32551
0.0005 0.000411973 0.000589625 37566.2
0.0005 0.000466473 0.000589625 43253.5
0.0005 0.000516018 0.000589625 49620.6
0.0005 0.000561059 0.000589625 56713.8
0.0005 0.000602005 0.000589625 64625.8
0.0005 0.000639229 0.000589625 73490.2
0.0005 0.000673069 0.000589625 83422.8
0.0005 0.000703833 0.000589625 94522.3
0.0005 0.000731799 0.000589625 106932
0.0005 0.000757224 0.000589625 120858
0.0005 0.000780337 0.000589625 136566
0.0005 0.000801349 0.000589625 154382
0.0005 0.000820451 0.000589625 174692
0.0005 0.000837816 0.000589625 197949
0.0005 0.000853602 0.000589625 224689
0.0005 0.000867954 0.000589625 255530
0.0005 0.000881001 0.000589625 291194
0.0005 0.000892861 0.000589625 332516
0.0005 0.000903644 0.000589625 380465
0.0005 0.000913446 0.000589625 436162
0.0005 0.000922357 0.000589625 500920
0.0005 0.000930458 0.000589625 576316
0.0005 0.000937823 0.000589625 664362
0.0005 0.000944518 0.000589625 767818
0.0005 0.000950604 0.000589625 890780
0.0005 0.000956137 0.000589625 1.03965e+06
0.0005 0.000961167 0.000589625 1.22385e+06
0.0005 0.00096574 0.000589625 1.45782e+06
0.0005 0.000969897 0.000589625 1.76522e+06
0.0005 0.000973676 0.000589625 2.18389e+06
0.0005 0.000977112 0.000589625 2.77288e+06
0.0005 0.000980235 0.000589625 3.6244e+06
0.0005 0.000983075 0.000589625 4.8868e+06
0.0005 0.000985656 0.000589625 6.81139e+06
0.0005 0.000988002 0.000589625 9.85157e+06
0.0005 0.000990136 0.000589625 1.4889e+07
0.0005 0.000992075 0.000589625 2.38022e+07
0.0005 0.000993838 0.000589625 4.11013e+07
0.0005 0.000995441 0.000589625 7.95353e+07
0.0005 0.000996898 0.000589625 1.84801e+08
0.0005 0.000998222 0.000589625 5.94344e+08
0.0005 0.000999427 0.000589625 3.64963e+09
0.0005 4.59758e-05 0.000675898 20659.5
0.0005 0.000133748 0.000675898 22115.8
0.0005 0.000213541 0.000675898 24713.6
0.0005 0.000286079 0.000675898 28239.1
0.0005 0.000352024 0.000675898 32550.1
0.0005 0.000411973 0.000675898 37565.3
0.0005 0.000466473 0.000675898 43252.5
0.0005 0.000516018 0.000675898 49619.5
0.0005 0.000561059 0.000675898 56712.6
0.0005 0.000602005 0.000675898 64624.5
0.0005 0.000639229 0.000675898 73488.8
0.0005 0.000673069 0.000675898 83421.3
0.0005 0.000703833 0.000675898 94520.6
0.0005 0.000731799 0.000675898 106930
0.0005 0.000757224 0.000675898 120856
0.0005 0.000780337 0.000675898 136563
0.0005 0.000801349 0.000675898 154379
0.0005 0.000820451 0.000675898 174689
0.0005 0.000837816 0.000675898 197946
0.0005 0.000853602 0.000675898 224686
0.0005 0.000867954 0.000675898 255527
0.0005 0.000881001 0.000675898 291190
0.0005 0.000892861 0.000675898 332511
0.0005 0.000903644 0.000675898 380460
0.0005 0.000913446 0.000675898 436156
0.0005 0.000922357 0.000675898 500913
0.0005 0.000930458 0.000675898 576308
0.0005 0.000937823 0.000675898 664352
0.0005 0.000944518 0.000675898 767807
0.0005 0.000950604 0.000675898 890767
0.0005 0.000956137 0.000675898 1.03963e+06
0.0005 0.000961167 0.000675898 1.22384e+06
0.0005 0.00096574 0.000675898 1.45781e+06
0.0005 0.000969897 0.000675898 1.7652e+06
0.0005 0.000973676 0.000675898 2.18388e+06
0.0005 0.000977112 0.000675898 2.77287e+06
0.0005 0.000980235 0.000675898 3.62438e+06
0.0005 0.000983075 0.000675898 4.88679e+06
0.0005 0.000985656 0.000675898 6.81138e+06
0.0005 0.000988002 0.000675898 9.85156e+06
0.0005 0.000990136 0.000675898 1.4889e+07
0.0005 0.000992075 0.000675898 2.38022e+07
0.0005 0.000993838 0.000675898 4.11013e+07
0.0005 0.000995441 0.000675898 7.95353e+07
0.0005 0.000996898 0.000675898 1.84801e+08
0.0005 0.000998222 0.000675898 5.94344e+08
0.0005 0.000999427 0.000675898 3.64963e+09
0.0005 4.59758e-05 0.000761026 20658.8
0.0005 0.000133748 0.000761026 22115
0.0005 0.000213541 0.000761026 24712.8
0.0005 0.000286079 0.000761026 28238.3
0.0005 0.000352024 0.000761026 32549.2
0.0005 0.000411973 0.000761026 37564.2
0.0005 0.000466473 0.000761026 43251.4
0.0005 0.000516018 0.000761026 49618.3
0.0005 0.000561059 0.000761026 56711.2
0.0005 0.000602005 0.000761026 64623
0.0005 0.000639229 0.000761026 73487.1
0.0005 0.000673069 0.000761026 83419.5
0.0005 0.000703833 0.000761026 94518.6
0.0005 0.000731799 0.000761026 106928
0.0005 0.000757224 0.000761026 120853
0.0005 0.000780337 0.000761026 136561
0.0005 0.000801349 0.000761026 154376
0.0005 0.000820451 0.000761026 174686
0.0005 0.000837816 0.000761026 197943
0.0005 0.000853602 0.000761026 224682
0.0005 0.000867954 0.000761026 255523
0.0005 0.000881001 0.000761026 291185
0.0005 0.000892861 0.000761026 332506
0.0005 0.000903644 0.000761026 380454
0.0005 0.000913446 0.000761026 436149
0.0005 0.000922357 0.000761026 500905
0.0005 0.000930458 0.000761026 576299
0.0005 0.000937823 0.000761026 664341
0.0005 0.000944518 0.000761026 767794
0.0005 0.000950604 0.000761026 890752
0.0005 0.000956137 0.000761026 1.03962e+06
0.0005 0.000961167 0.000761026 1.22382e+06
0.0005 0.00096574 0.000761026 1.45778e+06
0.0005 0.000969897 0.000761026 1.76518e+06
0.0005 0.000973676 0.000761026 2.18385e+06
0.0005 0.000977112 0.000761026 2.77285e+06
0.0005 0.000980235 0.000761026 3.62437e+06
0.0005 0.000983075 0.000761026 4.88678e+06
0.0005 0.000985656 0.000761026 6.81137e+06
0.0005 0.000988002 0.000761026 9.85156e+06
0.0005 0.000990136 0.000761026 1.48889e+07
0.0005 0.000992075 0.000761026 2.38022e+07
0.0005 0.000993838 0.000761026 4.11013e+07
0.0005 0.000995441 0.000761026 7.95353e+07
0.0005 0.000996898 0.000761026 1.84801e+08
0.0005 0.000998222 0.000761026 5.94344e+08
0.0005 0.000999427 0.000761026 3.64963e+09
0.0005 4.59758e-05 0.000845023 20657.9
0.0005 0.000133748 0.000845023 22114.2
0.0005 0.000213541 0.000845023 24711.9
0.0005 0.000286079 0.000845023 28237.3
0.0005 0.000352024 0.000845023 32548.1
0.0005 0.000411973 0.000845023 37563.1
0.0005 0.000466473 0.000845023 43250.1
0.0005 0.000516018 0.000845023 49616.8
0.0005 0.000561059 0.000845023 56709.6
0.0005 0.000602005 0.000845023 64621.3
0.0005 0.000639229 0.000845023 73485.2
0.0005 0.000673069 0.000845023 83417.4
0.0005 0.000703833 0.000845023 94516.3
0.0005 0.000731799 0.000845023 106926
0.0005 0.000757224 0.000845023 120851
0.0005 0.000780337 0.000845023 136558
0.0005 0.000801349 0.000845023 154373
0.0005 0.000820451 0.000845023 174682
0.0005 0.000837816 0.000845023 197939
0.0005 0.000853602 0.000845023 224678
0.0005 0.000867954 0.000845023 255518
0.0005 0.000881001 0.000845023 291180
0.0005 0.000892861 0.000845023 332500
0.0005 0.000903644 0.000845023 380447
0.0005 0.000913446 0.000845023 436142
0.0005 0.000922357 0.000845023 500896
0.0005 0.000930458 0.000845023 576288
0.0005 0.000937823 0.000845023 664329
0.0005 0.000944518 0.000845023 767779
0.0005 0.000950604 0.000845023 890734
0.0005 0.000956137 0.000845023 1.0396e+06
0.0005 0.000961167 0.000845023 1.2238e+06
0.0005 0.00096574 0.000845023 1.45776e+06
0.0005 0.000969897 0.000845023 1.76516e+06
0.0005 0.000973676 0.000845023 2.18383e+06
0.0005 0.000977112 0.000845023 2.77282e+06
0.0005 0.000980235 0.000845023 3.62434e+06
0.0005 0.000983075 0.000845023 4.88676e+06
0.0005 0.000985656 0.000845023 6.81135e+06
0.0005 0.000988002 0.000845023 9.85155e+06
0.0005 0.000990136 0.000845023 1.48889e+07
0.0005 0.000992075 0.000845023 2.38022e+07
0.0005 0.000993838 0.000845023 4.11013e+07
0.0005 0.000995441 0.000845023 7.95353e+07
0.0005 0.000996898 0.000845023 1.84801e+08
0.0005 0.000998222 0.000845023 5.94344e+08
0.0005 0.000999427 0.000845023 3.64963e+09
0.0005 4.59758e-05 0.000927906 20657
0.0005 0.000133748 0.000927906 22113.2
0.0005 0.000213541 0.000927906 24710.9
0.0005 0.000286079 0.000927906 28236.2
0.0005 0.000352024 0.000927906 32546.9
0.0005 0.000411973 0.000927906 37561.7
0.0005 0.000466473 0.000927906 43248.6
0.0005 0.000516018 0.000927906 49615.2
0.0005 0.000561059 0.000927906 56707.8
0.0005 0.000602005 0.000927906 64619.3
0.0005 0.000639229 0.000927906 73483
0.0005 0.000673069 0.000927906 83415
0.0005 0.000703833 0.000927906 94513.7
0.0005 0.000731799 0.000927906 106923
0.0005 0.000757224 0.000927906 120847
0.0005 0.000780337 0.000927906 136555
0.0005 0.000801349 0.000927906 154370
0.0005 0.000820451 0.000927906 174678
0.0005 0.000837816 0.000927906 197935
0.0005 0.000853602 0.000927906 224673
0.0005 0.000867954 0.000927906 255513
0.0005 0.000881001 0.000927906 291174
0.0005 0.000892861 0.000927906 332493
0.0005 0.000903644 0.000927906 380439
0.0005 0.000913446 0.000927906 436133
0.0005 0.000922357 0.000927906 500885
0.0005 0.000930458 0.000927906 576276
0.0005 0.000937823 0.000927906 664314
0.0005 0.000944518 0.000927906 767762
0.0005 0.000950604 0.000927906 890715
0.0005 0.000956137 0.000927906 1.03957e+06
0.0005 0.000961167 0.000927906 1.22377e+06
0.0005 0.00096574 0.000927906 1.45773e+06
0.0005 0.000969897 0.000927906 1.76513e+06
0.0005 0.000973676 0.000927906 2.1838e+06
0.0005 0.000977112 0.000927906 2.7728e+06
0.0005 0.000980235 0.000927906 3.62432e+06
0.0005 0.000983075 0.000927906 4.88674e+06
0.0005 0.000985656 0.000927906 6.81134e+06
0.0005 0.000988002 0.000927906 9.85154e+06
0.0005 0.000990136 0.000927906 1.48889e+07
0.0005 0.000992075 0.000927906 2.38022e+07
0.0005 0.000993838 0.000927906 4.11013e+07
0.0005 0.000995441 0.000927906 7.95353e+07
0.0005 0.000996898 0.000927906 1.84801e+08
0.0005 0.000998222 0.000927906 5.94344e+08
0.0005 0.000999427 0.000927906 3.64963e+09
0.0005 4.59758e-05 0.00100969 20656
0.0005 0.000133748 0.00100969 22112.2
0.0005 0.000213541 0.00100969 24709.8
0.0005 0.000286079 0.00100969 28235
0.0005 0.000352024 0.00100969 32545.6
0.0005 0.000411973 0.00100969 37560.2
0.0005 0.000466473 0.00100969 43246.9
0.0005 0.000516018 0.00100969 49613.3
0.0005 0.000561059 0.00100969 56705.8
0.0005 0.000602005 0.00100969 64617
0.0005 0.000639229 0.00100969 73480.6
0.0005 0.000673069 0.00100969 83412.3
0.0005 0.000703833 0.00100969 94510.8
0.0005 0.000731799 0.00100969 106920
0.0005 0.000757224 0.00100969 120844
0.0005 0.000780337 0.00100969 136551
0.0005 0.000801349 0.00100969 154366
0.0005 0.000820451 0.00100969 174674
0.0005 0.000837816 0.00100969 197930
0.0005 0.000853602 0.00100969 224668
0.0005 0.000867954 0.00100969 255507
0.0005 0.000881001 0.00100969 291167
0.0005 0.000892861 0.00100969 332486
0.0005 0.000903644 0.00100969 380431
0.0005 0.000913446 0.00100969 436123
0.0005 0.000922357 0.00100969 500874
0.0005 0.000930458 0.00100969 576263
0.0005 0.000937823 0.00100969 664298
0.0005 0.000944518 0.00100969 767743
0.0005 0.000950604 0.00100969 890693
0.0005 0.000956137 0.00100969 1.03955e+06
0.0005 0.000961167 0.00100969 1.22374e+06
0.0005 0.00096574 0.00100969 1.4577e+06
0.0005 0.000969897 0.00100969 1.7651e+06
0.0005 0.000973676 0.00100969 2.18377e+06
0.0005 0.000977112 0.00100969 2.77277e+06
0.0005 0.000980235 0.00100969 3.6243e+06
0.0005 0.000983075 0.00100969 4.88672e+06
0.0005 0.000985656 0.00100969 6.81132e+06
0.0005 0.000988002 0.00100969 9.85152e+06
0.0005 0.000990136 0.00100969 1.48889e+07
0.0005 0.000992075 0.00100969 2.38022e+07
0.0005 0.000993838 0.00100969 4.11013e+07
0.0005 0.000995441 0.00100969 7.95353e+07
0.0005 0.000996898 0.00100969 1.84801e+08
0.0005 0.000998222 0.00100969 5.94344e+08
0.0005 0.000999427 0.00100969 3.64963e+09
0.0005 4.59758e-05 0.00109038 20654.9
0.0005 0.000133748 0.00109038 22111
0.0005 0.000213541 0.00109038 24708.5
0.0005 0.000286079 0.00109038 28233.6
0.0005 0.000352024 0.00109038 32544
0.0005 0.000411973 0.00109038 37558.5
0.0005 0.000466473 0.00109038 43245
0.0005 0.000516018 0.00109038 49611.3
0.0005 0.000561059 0.00109038 56703.5
0.0005 0.000602005 0.00109038 64614.6
0.0005 0.000639229 0.00109038 73477.9
0.0005 0.000673069 0.00109038 83409.4
0.0005 0.000703833 0.00109038 94507.6
0.0005 0.000731799 0.00109038 106916
0.0005 0.000757224 0.00109038 120840
0.0005 0.000780337 0.00109038 136547
0.0005 0.000801349 0.00109038 154361
0.0005 0.000820451 0.00109038 174669
0.0005 0.000837816 0.00109038 197924
0.0005 0.000853602 0.00109038 224662
0.0005 0.000867954 0.00109038 255500
0.0005 0.000881001 0.00109038 291160
0.0005 0.000892861 0.00109038 332477
0.0005 0.000903644 0.00109038 380421
0.0005 0.000913446 0.00109038 436112
0.0005 0.000922357 0.00109038 500861
0.0005 0.000930458 0.00109038 576247
0.0005 0.000937823 0.00109038 664280
0.0005 0.000944518 0.00109038 767722
0.0005 0.000950604 0.00109038 890668
0.0005 0.000956137 0.00109038 1.03952e+06
0.0005 0.000961167 0.00109038 1.22371e+06
0.0005 0.00096574 0.00109038 1.45767e+06
0.0005 0.000969897 0.00109038 1.76506e+06
0.0005 0.000973676 0.00109038 2.18373e+06
0.0005 0.000977112 0.00109038 2.77274e+06
0.0005 0.000980235 0.00109038 3.62427e+06
0.0005 0.000983075 0.00109038 4.8867e+06
0.0005 0.000985656 0.00109038 6.8113e+06
0.0005 0.000988002 0.00109038 9.85151e+06
0.0005 0.000990136 0.00109038 1.48889e+07
0.0005 0.000992075 0.00109038 2.38022e+07
0.0005 0.000993838 0.00109038 4.11013e+07
0.0005 0.000995441 0.00109038 7.95353e+07
0.0005 0.000996898 0.00109038 1.84801e+08
0.0005 0.000998222 0.00109038 5.94344e+08
0.0005 0.000999427 0.00109038 3.64963e+09
0.0005 4.59758e-05 0.00117001 20653.6
0.0005 0.000133748 0.00117001 22109.7
0.0005 0.000213541 0.00117001 24707.1
0.0005 0.000286079 0.00117001 28232.1
0.0005 0.000352024 0.00117001 32542.4
0.0005 0.000411973 0.00117001 37556.7
0.0005 0.000466473 0.00117001 43243
0.0005 0.000516018 0.00117001 49609
0.0005 0.000561059 0.00117001 56701
0.0005 0.000602005 0.00117001 64611.8
0.0005 0.000639229 0.00117001 73474.9
0.0005 0.000673069 0.00117001 83406.1
0.0005 0.000703833 0.00117001 94504
0.0005 0.000731799 0.00117001 106912
0.0005 0.000757224 0.00117001 120836
0.0005 0.000780337 0.00117001 136542
0.0005 0.000801349 0.00117001 154356
0.0005 0.000820451 0.00117001 174663
0.0005 0.000837816 0.00117001 197918
0.0005 0.000853602 0.00117001 224655
0.0005 0.000867954 0.00117001 255493
0.0005 0.000881001 0.00117001 291152
0.0005 0.000892861 0.00117001 332468
0.0005 0.000903644 0.00117001 380411
0.0005 0.000913446 0.00117001 436100
0.0005 0.000922357 0.00117001 500847
0.0005 0.000930458 0.00117001 576231
0.0005 0.000937823 0.00117001 664261
0.0005 0.000944518 0.00117001 767699
0.0005 0.000950604 0.00117001 890641
0.0005 0.000956137 0.00117001 1.03949e+06
0.0005 0.000961167 0.00117001 1.22368e+06
0.0005 0.00096574 0.00117001 1.45763e+06
0.0005 0.000969897 0.00117001 1.76502e+06
0.0005 0.000973676 0.00117001 2.1837e+06
0.0005 0.000977112 0.00117001 2.7727e+06
0.0005 0.000980235 0.00117001 3.62424e+06
0.0005 0.000983075 0.00117001 4.88667e+06
0.0005 0.000985656 0.00117001 6.81128e+06
0.0005 0.000988002 0.00117001 9.85149e+06
0.0005 0.000990136 0.00117001 1.48889e+07
0.0005 0.000992075 0.00117001 2.38022e+07
0.0005 0.000993838 0.00117001 4.11013e+07
0.0005 0.000995441 0.00117001 7.95353e+07
0.0005 0.000996898 0.00117001 1.84801e+08
0.0005 0.000998222 0.00117001 5.94344e+08
0.0005 0.000999427 0.00117001 3.64963e+09
0.0005 4.59758e-05 0.00124857 20652.3
0.0005 0.000133748 0.00124857 22108.3
0.0005 0.000213541 0.00124857 24705.6
0.0005 0.000286079 0.00124857 28230.4
0.0005 0.000352024 0.00124857 32540.5
0.0005 0.000411973 0.00124857 37554.6
0.0005 0.000466473 0.00124857 43240.7
0.0005 0.000516018 0.00124857 49606.5
0.0005 0.000561059 0.00124857 56698.3
0.0005 0.000602005 0.00124857 64608.8
0.0005 0.000639229 0.00124857 73471.6
0.0005 0.000673069 0.00124857 83402.5
0.0005 0.000703833 0.00124857 94500.1
0.0005 0.000731799 0.00124857 106908
0.0005 0.000757224 0.00124857 120831
0.0005 0.000780337 0.00124857 136537
0.0005 0.000801349 0.00124857 154350
0.0005 0.000820451 0.00124857 174658
0.0005 0.000837816 0.00124857 197912
0.0005 0.000853602 0.00124857 224648
0.0005 0.000867954 0.00124857 255485
0.0005 0.000881001 0.00124857 291143
0.0005 0.000892861 0.00124857 332458
0.0005 0.000903644 0.00124857 380399
0.0005 0.000913446 0.00124857 436086
0.0005 0.000922357 0.00124857 500831
0.0005 0.000930458 0.00124857 576213
0.0005 0.000937823 0.00124857 664239
0.0005 0.000944518 0.00124857 767674
0.0005 0.000950604 0.00124857 890611
0.0005 0.000956137 0.00124857 1.03946e+06
0.0005 0.000961167 0.00124857 1.22364e+06
0.0005 0.00096574 0.00124857 1.45759e+06
0.0005 0.000969897 0.00124857 1.76498e+06
0.0005 0.000973676 0.00124857 2.18365e+06
0.0005 0.000977112 0.00124857 2.77266e+06
0.0005 0.000980235 0.00124857 3.6242e+06
0.0005 0.000983075 0.00124857 4.88664e+06
0.0005 0.000985656 0.00124857 6.81126e+06
0.0005 0.000988002 0.00124857 9.85148e+06
0.0005 0.000990136 0.00124857 1.48889e+07
0.0005 0.000992075 0.00124857 2.38022e+07
0.0005 0.000993838 0.00124857 4.11013e+07
0.0005 0.000995441 0.00124857 7.95353e+07
0.0005 0.000996898 0.00124857 1.84801e+08
0.0005 0.000998222 0.00124857 5.94344e+08
0.0005 0.000999427 0.00124857 3.64963e+09
0.0005 4.59758e-05 0.0013261 20650.8
0.0005 0.000133748 0.0013261 22106.7
0.0005 0.000213541 0.0013261 24703.9
0.0005 0.000286079 0.0013261 28228.6
0.0005 0.000352024 0.0013261 32538.5
0.0005 0.000411973 0.0013261 37552.4
0.0005 0.000466473 0.0013261 43238.3
0.0005 0.000516018 0.0013261 49603.8
0.0005 0.000561059 0.0013261 56695.3
0.0005 0.000602005 0.0013261 64605.5
0.0005 0.000639229 0.0013261 73468
0.0005 0.000673069 0.0013261 83398.5
0.0005 0.000703833 0.0013261 94495.8
0.0005 0.000731799 0.0013261 106903
0.0005 0.000757224 0.0013261 120826
0.0005 0.000780337 0.0013261 136532
0.0005 0.000801349 0.0013261 154344
0.0005 0.000820451 0.0013261 174651
0.0005 0.000837816 0.0013261 197905
0.0005 0.000853602 0.0013261 224640
0.0005 0.000867954 0.0013261 255476
0.0005 0.000881001 0.0013261 291133
0.0005 0.000892861 0.0013261 332447
0.0005 0.000903644 0.0013261 380387
0.0005 0.000913446 0.0013261 436072
0.0005 0.000922357 0.0013261 500814
0.0005 0.000930458 0.0013261 576193
0.0005 0.000937823 0.0013261 664216
0.0005 0.000944518 0.0013261 767646
0.0005 0.000950604 0.0013261 890579
0.0005 0.000956137 0.0013261 1.03942e+06
0.0005 0.000961167 0.0013261 1.2236e+06
0.0005 0.00096574 0.0013261 1.45754e+06
0.0005 0.000969897 0.0013261 1.76493e+06
0.0005 0.000973676 0.0013261 2.18361e+06
0.0005 0.000977112 0.0013261 2.77262e+06
0.0005 0.000980235 0.0013261 3.62416e+06
0.0005 0.000983075 0.0013261 4.88661e+06
0.0005 0.000985656 0.0013261 6.81124e+06
0.0005 0.000988002 0.0013261 9.85146e+06
0.0005 0.000990136 0.0013261 1.48889e+07
0.0005 0.000992075 0.0013261 2.38022e+07
0.0005 0.000993838 0.0013261 4.11013e+07
0.0005 0.000995441 0.0013261 7.95353e+07
0.0005 0.000996898 0.0013261 1.84801e+08
0.0005 0.000998222 0.0013261 5.94344e+08
0.0005 0.000999427 0.0013261 3.64963e+09
0.0005 4.59758e-05 0.00140259 20649.2
0.0005 0.000133748 0.00140259 22105
0.0005 0.000213541 0.00140259 24702.1
0.0005 0.000286079 0.00140259 28226.6
0.0005 0.000352024 0.00140259 32536.3
0.0005 0.000411973 0.00140259 37550
0.0005 0.000466473 0.00140259 43235.6