# p  FACE_DATA 15463
#  x  y  z  p
0.0005 4.59758e-05 4.70511e-05 9.40402e-14
0.0005 0.000133748 4.70511e-05 1.30375e-13
0.0005 0.000213541 4.70511e-05 1.15714e-13
0.0005 0.000286079 4.70511e-05 1.07398e-13
0.0005 0.000352024 4.70511e-05 1.0441e-13
0.0005 0.000411973 4.70511e-05 1.01501e-13
0.0005 0.000466473 4.70511e-05 9.83905e-14
0.0005 0.000516018 4.70511e-05 9.66695e-14
0.0005 0.000561059 4.70511e-05 9.56311e-14
0.0005 0.000602005 4.70511e-05 9.42748e-14
0.0005 0.000639229 4.70511e-05 9.21928e-14
0.0005 0.000673069 4.70511e-05 8.98712e-14
0.0005 0.000703833 4.70511e-05 9.14526e-14
0.0005 0.000731799 4.70511e-05 9.15169e-14
0.0005 0.000757224 4.70511e-05 9.09856e-14
0.0005 0.000780337 4.70511e-05 9.01694e-14
0.0005 0.000801349 4.70511e-05 8.92343e-14
0.0005 0.000820451 4.70511e-05 8.82137e-14
0.0005 0.000837816 4.70511e-05 8.70871e-14
0.0005 0.000853602 4.70511e-05 8.57407e-14
0.0005 0.000867954 4.70511e-05 8.41723e-14
0.0005 0.000881001 4.70511e-05 8.33702e-14
0.0005 0.000892861 4.70511e-05 8.23792e-14
0.0005 0.000903644 4.70511e-05 8.12279e-14
0.0005 0.000913446 4.70511e-05 8.01673e-14
0.0005 0.000922357 4.70511e-05 7.92357e-14
0.0005 0.000930458 4.70511e-05 7.83987e-14
0.0005 0.000937823 4.70511e-05 7.79991e-14
0.0005 0.000944518 4.70511e-05 7.74308e-14
0.0005 0.000950604 4.70511e-05 7.6968e-14
0.0005 0.000956137 4.70511e-05 7.66363e-14
0.0005 0.000961167 4.70511e-05 7.63864e-14
0.0005 0.00096574 4.70511e-05 7.62e-14
0.0005 0.000969897 4.70511e-05 7.60896e-14
0.0005 0.000973676 4.70511e-05 7.5953e-14
0.0005 0.000977112 4.70511e-05 7.58545e-14
0.0005 0.000980235 4.70511e-05 7.57918e-14
0.0005 0.000983075 4.70511e-05 7.57483e-14
0.0005 0.000985656 4.70511e-05 7.57004e-14
0.0005 0.000988002 4.70511e-05 7.56571e-14
0.0005 0.000990136 4.70511e-05 7.56052e-14
0.0005 0.000992075 4.70511e-05 7.55446e-14
0.0005 0.000993838 4.70511e-05 7.55004e-14
0.0005 0.000995441 4.70511e-05 7.54454e-14
0.0005 0.000996898 4.70511e-05 7.54097e-14
0.0005 0.000998222 4.70511e-05 7.53966e-14
0.0005 0.000999427 4.70511e-05 7.5404e-14
0.0005 4.59758e-05 0.000140529 1.25409e-13
0.0005 0.000133748 0.000140529 1.2168e-13
0.0005 0.000213541 0.000140529 1.13463e-13
0.0005 0.000286079 0.000140529 1.08366e-13
0.0005 0.000352024 0.000140529 1.04679e-13
0.0005 0.000411973 0.000140529 1.01628e-13
0.0005 0.000466473 0.000140529 9.86614e-14
0.0005 0.000516018 0.000140529 9.67041e-14
0.0005 0.000561059 0.000140529 9.58526e-14
0.0005 0.000602005 0.000140529 9.49928e-14
0.0005 0.000639229 0.000140529 9.37405e-14
0.0005 0.000673069 0.000140529 9.24864e-14
0.0005 0.000703833 0.000140529 9.14127e-14
0.0005 0.000731799 0.000140529 8.95314e-14
0.0005 0.000757224 0.000140529 8.91608e-14
0.0005 0.000780337 0.000140529 8.78346e-14
0.0005 0.000801349 0.000140529 8.77387e-14
0.0005 0.000820451 0.000140529 8.6828e-14
0.0005 0.000837816 0.000140529 8.53414e-14
0.0005 0.000853602 0.000140529 8.39376e-14
0.0005 0.000867954 0.000140529 8.26857e-14
0.0005 0.000881001 0.000140529 8.14225e-14
0.0005 0.000892861 0.000140529 7.98584e-14
0.0005 0.000903644 0.000140529 7.9279e-14
0.0005 0.000913446 0.000140529 7.86022e-14
0.0005 0.000922357 0.000140529 7.7966e-14
0.0005 0.000930458 0.000140529 7.74239e-14
0.0005 0.000937823 0.000140529 7.69364e-14
0.0005 0.000944518 0.000140529 7.66054e-14
0.0005 0.000950604 0.000140529 7.63267e-14
0.0005 0.000956137 0.000140529 7.61022e-14
0.0005 0.000961167 0.000140529 7.59295e-14
0.0005 0.00096574 0.000140529 7.58129e-14
0.0005 0.000969897 0.000140529 7.57325e-14
0.0005 0.000973676 0.000140529 7.56574e-14
0.0005 0.000977112 0.000140529 7.56028e-14
0.0005 0.000980235 0.000140529 7.55583e-14
0.0005 0.000983075 0.000140529 7.55122e-14
0.0005 0.000985656 0.000140529 7.54715e-14
0.0005 0.000988002 0.000140529 7.53866e-14
0.0005 0.000990136 0.000140529 7.53319e-14
0.0005 0.000992075 0.000140529 7.52731e-14
0.0005 0.000993838 0.000140529 7.52069e-14
0.0005 0.000995441 0.000140529 7.51555e-14
0.0005 0.000996898 0.000140529 7.50979e-14
0.0005 0.000998222 0.000140529 7.50586e-14
0.0005 0.000999427 0.000140529 7.50378e-14
0.0005 4.59758e-05 0.000232765 1.14646e-13
0.0005 0.000133748 0.000232765 1.11293e-13
0.0005 0.000213541 0.000232765 1.05571e-13
0.0005 0.000286079 0.000232765 1.04998e-13
0.0005 0.000352024 0.000232765 1.03228e-13
0.0005 0.000411973 0.000232765 1.01155e-13
0.0005 0.000466473 0.000232765 9.92018e-14
0.0005 0.000516018 0.000232765 9.74573e-14
0.0005 0.000561059 0.000232765 9.6968e-14
0.0005 0.000602005 0.000232765 9.8023e-14
0.0005 0.000639229 0.000232765 9.54579e-14
0.0005 0.000673069 0.000232765 9.36357e-14
0.0005 0.000703833 0.000232765 9.21656e-14
0.0005 0.000731799 0.000232765 9.11005e-14
0.0005 0.000757224 0.000232765 9.04976e-14
0.0005 0.000780337 0.000232765 8.99342e-14
0.0005 0.000801349 0.000232765 8.87811e-14
0.0005 0.000820451 0.000232765 8.76911e-14
0.0005 0.000837816 0.000232765 8.68608e-14
0.0005 0.000853602 0.000232765 8.55133e-14
0.0005 0.000867954 0.000232765 8.40228e-14
0.0005 0.000881001 0.000232765 8.27155e-14
0.0005 0.000892861 0.000232765 8.16825e-14
0.0005 0.000903644 0.000232765 8.1101e-14
0.0005 0.000913446 0.000232765 7.9857e-14
0.0005 0.000922357 0.000232765 7.88401e-14
0.0005 0.000930458 0.000232765 7.82555e-14
0.0005 0.000937823 0.000232765 7.77496e-14
0.0005 0.000944518 0.000232765 7.71999e-14
0.0005 0.000950604 0.000232765 7.67308e-14
0.0005 0.000956137 0.000232765 7.63274e-14
0.0005 0.000961167 0.000232765 7.59875e-14
0.0005 0.00096574 0.000232765 7.57386e-14
0.0005 0.000969897 0.000232765 7.55203e-14
0.0005 0.000973676 0.000232765 7.53326e-14
0.0005 0.000977112 0.000232765 7.51681e-14
0.0005 0.000980235 0.000232765 7.50225e-14
0.0005 0.000983075 0.000232765 7.48892e-14
0.0005 0.000985656 0.000232765 7.47778e-14
0.0005 0.000988002 0.000232765 7.47013e-14
0.0005 0.000990136 0.000232765 7.4674e-14
0.0005 0.000992075 0.000232765 7.46538e-14
0.0005 0.000993838 0.000232765 7.46468e-14
0.0005 0.000995441 0.000232765 7.4632e-14
0.0005 0.000996898 0.000232765 7.46368e-14
0.0005 0.000998222 0.000232765 7.46405e-14
0.0005 0.000999427 0.000232765 7.46471e-14
0.0005 4.59758e-05 0.000323776 1.07306e-13
0.0005 0.000133748 0.000323776 1.0699e-13
0.0005 0.000213541 0.000323776 1.04716e-13
0.0005 0.000286079 0.000323776 1.03276e-13
0.0005 0.000352024 0.000323776 1.01808e-13
0.0005 0.000411973 0.000323776 1.00671e-13
0.0005 0.000466473 0.000323776 9.89027e-14
0.0005 0.000516018 0.000323776 9.73942e-14
0.0005 0.000561059 0.000323776 9.6415e-14
0.0005 0.000602005 0.000323776 9.5211e-14
0.0005 0.000639229 0.000323776 9.37637e-14
0.0005 0.000673069 0.000323776 9.23732e-14
0.0005 0.000703833 0.000323776 9.09601e-14
0.0005 0.000731799 0.000323776 8.96768e-14
0.0005 0.000757224 0.000323776 8.86609e-14
0.0005 0.000780337 0.000323776 8.7875e-14
0.0005 0.000801349 0.000323776 8.7004e-14
0.0005 0.000820451 0.000323776 8.60797e-14
0.0005 0.000837816 0.000323776 8.5112e-14
0.0005 0.000853602 0.000323776 8.4142e-14
0.0005 0.000867954 0.000323776 8.32001e-14
0.0005 0.000881001 0.000323776 8.23174e-14
0.0005 0.000892861 0.000323776 8.15524e-14
0.0005 0.000903644 0.000323776 7.99667e-14
0.0005 0.000913446 0.000323776 7.89816e-14
0.0005 0.000922357 0.000323776 7.81065e-14
0.0005 0.000930458 0.000323776 7.73191e-14
0.0005 0.000937823 0.000323776 7.68876e-14
0.0005 0.000944518 0.000323776 7.64846e-14
0.0005 0.000950604 0.000323776 7.61234e-14
0.0005 0.000956137 0.000323776 7.58033e-14
0.0005 0.000961167 0.000323776 7.55539e-14
0.0005 0.00096574 0.000323776 7.53477e-14
0.0005 0.000969897 0.000323776 7.5097e-14
0.0005 0.000973676 0.000323776 7.48962e-14
0.0005 0.000977112 0.000323776 7.47228e-14
0.0005 0.000980235 0.000323776 7.4548e-14
0.0005 0.000983075 0.000323776 7.43824e-14
0.0005 0.000985656 0.000323776 7.42237e-14
0.0005 0.000988002 0.000323776 7.40717e-14
0.0005 0.000990136 0.000323776 7.3933e-14
0.0005 0.000992075 0.000323776 7.38069e-14
0.0005 0.000993838 0.000323776 7.36933e-14
0.0005 0.000995441 0.000323776 7.36096e-14
0.0005 0.000996898 0.000323776 7.35333e-14
0.0005 0.000998222 0.000323776 7.34727e-14
0.0005 0.000999427 0.000323776 7.34275e-14
0.0005 4.59758e-05 0.00041358 1.03517e-13
0.0005 0.000133748 0.00041358 1.03098e-13
0.0005 0.000213541 0.00041358 1.01943e-13
0.0005 0.000286079 0.00041358 1.00679e-13
0.0005 0.000352024 0.00041358 1.01028e-13
0.0005 0.000411973 0.00041358 1.01851e-13
0.0005 0.000466473 0.00041358 9.80441e-14
0.0005 0.000516018 0.00041358 9.63111e-14
0.0005 0.000561059 0.00041358 9.78985e-14
0.0005 0.000602005 0.00041358 9.49017e-14
0.0005 0.000639229 0.00041358 9.30202e-14
0.0005 0.000673069 0.00041358 9.15914e-14
0.0005 0.000703833 0.00041358 9.04778e-14
0.0005 0.000731799 0.00041358 8.94639e-14
0.0005 0.000757224 0.00041358 8.85117e-14
0.0005 0.000780337 0.00041358 8.76426e-14
0.0005 0.000801349 0.00041358 8.68631e-14
0.0005 0.000820451 0.00041358 8.61955e-14
0.0005 0.000837816 0.00041358 8.44468e-14
0.0005 0.000853602 0.00041358 8.28308e-14
0.0005 0.000867954 0.00041358 8.23247e-14
0.0005 0.000881001 0.00041358 8.18357e-14
0.0005 0.000892861 0.00041358 8.14437e-14
0.0005 0.000903644 0.00041358 8.02745e-14
0.0005 0.000913446 0.00041358 7.95557e-14
0.0005 0.000922357 0.00041358 7.88848e-14
0.0005 0.000930458 0.00041358 7.83941e-14
0.0005 0.000937823 0.00041358 7.76408e-14
0.0005 0.000944518 0.00041358 7.69579e-14
0.0005 0.000950604 0.00041358 7.63396e-14
0.0005 0.000956137 0.00041358 7.57109e-14
0.0005 0.000961167 0.00041358 7.53794e-14
0.0005 0.00096574 0.00041358 7.50514e-14
0.0005 0.000969897 0.00041358 7.47629e-14
0.0005 0.000973676 0.00041358 7.44163e-14
0.0005 0.000977112 0.00041358 7.40589e-14
0.0005 0.000980235 0.00041358 7.37557e-14
0.0005 0.000983075 0.00041358 7.35024e-14
0.0005 0.000985656 0.00041358 7.32813e-14
0.0005 0.000988002 0.00041358 7.30999e-14
0.0005 0.000990136 0.00041358 7.29552e-14
0.0005 0.000992075 0.00041358 7.28314e-14
0.0005 0.000993838 0.00041358 7.27534e-14
0.0005 0.000995441 0.00041358 7.27024e-14
0.0005 0.000996898 0.00041358 7.26767e-14
0.0005 0.000998222 0.00041358 7.26413e-14
0.0005 0.000999427 0.00041358 7.25924e-14
0.0005 4.59758e-05 0.00050219 1.00051e-13
0.0005 0.000133748 0.00050219 9.95348e-14
0.0005 0.000213541 0.00050219 9.80978e-14
0.0005 0.000286079 0.00050219 9.51486e-14
0.0005 0.000352024 0.00050219 1.00538e-13
0.0005 0.000411973 0.00050219 9.74075e-14
0.0005 0.000466473 0.00050219 9.5065e-14
0.0005 0.000516018 0.00050219 9.26091e-14
0.0005 0.000561059 0.00050219 8.89446e-14
0.0005 0.000602005 0.00050219 9.00506e-14
0.0005 0.000639229 0.00050219 8.97096e-14
0.0005 0.000673069 0.00050219 8.86906e-14
0.0005 0.000703833 0.00050219 8.92988e-14
0.0005 0.000731799 0.00050219 8.88107e-14
0.0005 0.000757224 0.00050219 8.75575e-14
0.0005 0.000780337 0.00050219 8.62744e-14
0.0005 0.000801349 0.00050219 8.49809e-14
0.0005 0.000820451 0.00050219 8.36111e-14
0.0005 0.000837816 0.00050219 8.19541e-14
0.0005 0.000853602 0.00050219 8.11711e-14
0.0005 0.000867954 0.00050219 8.01444e-14
0.0005 0.000881001 0.00050219 7.89112e-14
0.0005 0.000892861 0.00050219 7.79769e-14
0.0005 0.000903644 0.00050219 7.7362e-14
0.0005 0.000913446 0.00050219 7.65056e-14
0.0005 0.000922357 0.00050219 7.58747e-14
0.0005 0.000930458 0.00050219 7.54525e-14
0.0005 0.000937823 0.00050219 7.52018e-14
0.0005 0.000944518 0.00050219 7.47545e-14
0.0005 0.000950604 0.00050219 7.4414e-14
0.0005 0.000956137 0.00050219 7.41721e-14
0.0005 0.000961167 0.00050219 7.39773e-14
0.0005 0.00096574 0.00050219 7.37825e-14
0.0005 0.000969897 0.00050219 7.35629e-14
0.0005 0.000973676 0.00050219 7.33928e-14
0.0005 0.000977112 0.00050219 7.32762e-14
0.0005 0.000980235 0.00050219 7.313e-14
0.0005 0.000983075 0.00050219 7.29799e-14
0.0005 0.000985656 0.00050219 7.2826e-14
0.0005 0.000988002 0.00050219 7.26832e-14
0.0005 0.000990136 0.00050219 7.25944e-14
0.0005 0.000992075 0.00050219 7.25197e-14
0.0005 0.000993838 0.00050219 7.2453e-14
0.0005 0.000995441 0.00050219 7.23983e-14
0.0005 0.000996898 0.00050219 7.23526e-14
0.0005 0.000998222 0.00050219 7.23261e-14
0.0005 0.000999427 0.00050219 7.23137e-14
0.0005 4.59758e-05 0.000589625 9.74195e-14
0.0005 0.000133748 0.000589625 9.67998e-14
0.0005 0.000213541 0.000589625 9.61193e-14
0.0005 0.000286079 0.000589625 9.58379e-14
0.0005 0.000352024 0.000589625 9.76932e-14
0.0005 0.000411973 0.000589625 9.48131e-14
0.0005 0.000466473 0.000589625 9.32632e-14
0.0005 0.000516018 0.000589625 9.20391e-14
0.0005 0.000561059 0.000589625 9.1095e-14
0.0005 0.000602005 0.000589625 9.06941e-14
0.0005 0.000639229 0.000589625 9.07132e-14
0.0005 0.000673069 0.000589625 8.94853e-14
0.0005 0.000703833 0.000589625 8.88378e-14
0.0005 0.000731799 0.000589625 8.84134e-14
0.0005 0.000757224 0.000589625 8.73765e-14
0.0005 0.000780337 0.000589625 8.54573e-14
0.0005 0.000801349 0.000589625 8.48586e-14
0.0005 0.000820451 0.000589625 8.34248e-14
0.0005 0.000837816 0.000589625 8.25702e-14
0.0005 0.000853602 0.000589625 8.15208e-14
0.0005 0.000867954 0.000589625 8.03854e-14
0.0005 0.000881001 0.000589625 7.92395e-14
0.0005 0.000892861 0.000589625 7.80612e-14
0.0005 0.000903644 0.000589625 7.71159e-14
0.0005 0.000913446 0.000589625 7.6599e-14
0.0005 0.000922357 0.000589625 7.61472e-14
0.0005 0.000930458 0.000589625 7.57638e-14
0.0005 0.000937823 0.000589625 7.55255e-14
0.0005 0.000944518 0.000589625 7.50839e-14
0.0005 0.000950604 0.000589625 7.45044e-14
0.0005 0.000956137 0.000589625 7.4063e-14
0.0005 0.000961167 0.000589625 7.37097e-14
0.0005 0.00096574 0.000589625 7.33798e-14
0.0005 0.000969897 0.000589625 7.30548e-14
0.0005 0.000973676 0.000589625 7.27577e-14
0.0005 0.000977112 0.000589625 7.2495e-14
0.0005 0.000980235 0.000589625 7.22583e-14
0.0005 0.000983075 0.000589625 7.20463e-14
0.0005 0.000985656 0.000589625 7.18634e-14
0.0005 0.000988002 0.000589625 7.16759e-14
0.0005 0.000990136 0.000589625 7.15116e-14
0.0005 0.000992075 0.000589625 7.13738e-14
0.0005 0.000993838 0.000589625 7.12587e-14
0.0005 0.000995441 0.000589625 7.11657e-14
0.0005 0.000996898 0.000589625 7.10878e-14
0.0005 0.000998222 0.000589625 7.10402e-14
0.0005 0.000999427 0.000589625 7.1013e-14
0.0005 4.59758e-05 0.000675898 9.50531e-14
0.0005 0.000133748 0.000675898 9.5084e-14
0.0005 0.000213541 0.000675898 9.45137e-14
0.0005 0.000286079 0.000675898 9.42261e-14
0.0005 0.000352024 0.000675898 9.40905e-14
0.0005 0.000411973 0.000675898 9.2214e-14
0.0005 0.000466473 0.000675898 9.07864e-14
0.0005 0.000516018 0.000675898 9.06247e-14
0.0005 0.000561059 0.000675898 9.10973e-14
0.0005 0.000602005 0.000675898 8.93099e-14
0.0005 0.000639229 0.000675898 8.78816e-14
0.0005 0.000673069 0.000675898 8.63664e-14
0.0005 0.000703833 0.000675898 8.67032e-14
0.0005 0.000731799 0.000675898 8.62126e-14
0.0005 0.000757224 0.000675898 8.57286e-14
0.0005 0.000780337 0.000675898 8.53498e-14
0.0005 0.000801349 0.000675898 8.21919e-14
0.0005 0.000820451 0.000675898 8.12494e-14
0.0005 0.000837816 0.000675898 8.02958e-14
0.0005 0.000853602 0.000675898 7.86603e-14
0.0005 0.000867954 0.000675898 7.80054e-14
0.0005 0.000881001 0.000675898 7.73004e-14
0.0005 0.000892861 0.000675898 7.65515e-14
0.0005 0.000903644 0.000675898 7.57719e-14
0.0005 0.000913446 0.000675898 7.50657e-14
0.0005 0.000922357 0.000675898 7.44469e-14
0.0005 0.000930458 0.000675898 7.38946e-14
0.0005 0.000937823 0.000675898 7.34093e-14
0.0005 0.000944518 0.000675898 7.29257e-14
0.0005 0.000950604 0.000675898 7.24488e-14
0.0005 0.000956137 0.000675898 7.20226e-14
0.0005 0.000961167 0.000675898 7.16505e-14
0.0005 0.00096574 0.000675898 7.12905e-14
0.0005 0.000969897 0.000675898 7.09437e-14
0.0005 0.000973676 0.000675898 7.05924e-14
0.0005 0.000977112 0.000675898 7.02398e-14
0.0005 0.000980235 0.000675898 6.98816e-14
0.0005 0.000983075 0.000675898 6.95318e-14
0.0005 0.000985656 0.000675898 6.91977e-14
0.0005 0.000988002 0.000675898 6.88919e-14
0.0005 0.000990136 0.000675898 6.85837e-14
0.0005 0.000992075 0.000675898 6.83173e-14
0.0005 0.000993838 0.000675898 6.81129e-14
0.0005 0.000995441 0.000675898 6.79489e-14
0.0005 0.000996898 0.000675898 6.78124e-14
0.0005 0.000998222 0.000675898 6.76968e-14
0.0005 0.000999427 0.000675898 6.75981e-14
0.0005 4.59758e-05 0.000761026 9.28168e-14
0.0005 0.000133748 0.000761026 9.48723e-14
0.0005 0.000213541 0.000761026 9.26095e-14
0.0005 0.000286079 0.000761026 9.243e-14
0.0005 0.000352024 0.000761026 9.3831e-14
0.0005 0.000411973 0.000761026 8.73387e-14
0.0005 0.000466473 0.000761026 8.49587e-14
0.0005 0.000516018 0.000761026 8.71503e-14
0.0005 0.000561059 0.000761026 8.70703e-14
0.0005 0.000602005 0.000761026 8.64263e-14
0.0005 0.000639229 0.000761026 8.58358e-14
0.0005 0.000673069 0.000761026 8.57165e-14
0.0005 0.000703833 0.000761026 8.51741e-14
0.0005 0.000731799 0.000761026 8.40321e-14
0.0005 0.000757224 0.000761026 8.29374e-14
0.0005 0.000780337 0.000761026 8.1816e-14
0.0005 0.000801349 0.000761026 8.06263e-14
0.0005 0.000820451 0.000761026 7.94798e-14
0.0005 0.000837816 0.000761026 7.84136e-14
0.0005 0.000853602 0.000761026 7.77718e-14
0.0005 0.000867954 0.000761026 7.66101e-14
0.0005 0.000881001 0.000761026 7.60514e-14
0.0005 0.000892861 0.000761026 7.48872e-14
0.0005 0.000903644 0.000761026 7.40105e-14
0.0005 0.000913446 0.000761026 7.37258e-14
0.0005 0.000922357 0.000761026 7.33451e-14
0.0005 0.000930458 0.000761026 7.27023e-14
0.0005 0.000937823 0.000761026 7.22183e-14
0.0005 0.000944518 0.000761026 7.18906e-14
0.0005 0.000950604 0.000761026 7.16833e-14
0.0005 0.000956137 0.000761026 7.13151e-14
0.0005 0.000961167 0.000761026 7.09572e-14
0.0005 0.00096574 0.000761026 7.05679e-14
0.0005 0.000969897 0.000761026 7.01683e-14
0.0005 0.000973676 0.000761026 6.9785e-14
0.0005 0.000977112 0.000761026 6.94008e-14
0.0005 0.000980235 0.000761026 6.90192e-14
0.0005 0.000983075 0.000761026 6.86334e-14
0.0005 0.000985656 0.000761026 6.82567e-14
0.0005 0.000988002 0.000761026 6.78512e-14
0.0005 0.000990136 0.000761026 6.74709e-14
0.0005 0.000992075 0.000761026 6.7114e-14
0.0005 0.000993838 0.000761026 6.67948e-14
0.0005 0.000995441 0.000761026 6.65167e-14
0.0005 0.000996898 0.000761026 6.62655e-14
0.0005 0.000998222 0.000761026 6.60636e-14
0.0005 0.000999427 0.000761026 6.59074e-14
0.0005 4.59758e-05 0.000845023 9.01939e-14
0.0005 0.000133748 0.000845023 9.06315e-14
0.0005 0.000213541 0.000845023 8.99063e-14
0.0005 0.000286079 0.000845023 9.05591e-14
0.0005 0.000352024 0.000845023 9.3615e-14
0.0005 0.000411973 0.000845023 8.91406e-14
0.0005 0.000466473 0.000845023 8.687e-14
0.0005 0.000516018 0.000845023 8.62733e-14
0.0005 0.000561059 0.000845023 8.52858e-14
0.0005 0.000602005 0.000845023 8.34132e-14
0.0005 0.000639229 0.000845023 8.11774e-14
0.0005 0.000673069 0.000845023 8.26092e-14
0.0005 0.000703833 0.000845023 8.25239e-14
0.0005 0.000731799 0.000845023 8.15949e-14
0.0005 0.000757224 0.000845023 8.06172e-14
0.0005 0.000780337 0.000845023 7.95855e-14
0.0005 0.000801349 0.000845023 7.85149e-14
0.0005 0.000820451 0.000845023 7.74025e-14
0.0005 0.000837816 0.000845023 7.59336e-14
0.0005 0.000853602 0.000845023 7.53133e-14
0.0005 0.000867954 0.000845023 7.40423e-14
0.0005 0.000881001 0.000845023 7.3229e-14
0.0005 0.000892861 0.000845023 7.28603e-14
0.0005 0.000903644 0.000845023 7.25936e-14
0.0005 0.000913446 0.000845023 7.19855e-14
0.0005 0.000922357 0.000845023 7.16098e-14
0.0005 0.000930458 0.000845023 7.14079e-14
0.0005 0.000937823 0.000845023 7.0888e-14
0.0005 0.000944518 0.000845023 7.03612e-14
0.0005 0.000950604 0.000845023 7.01493e-14
0.0005 0.000956137 0.000845023 7.01076e-14
0.0005 0.000961167 0.000845023 6.98034e-14
0.0005 0.00096574 0.000845023 6.94448e-14
0.0005 0.000969897 0.000845023 6.90683e-14
0.0005 0.000973676 0.000845023 6.88338e-14
0.0005 0.000977112 0.000845023 6.85785e-14
0.0005 0.000980235 0.000845023 6.82891e-14
0.0005 0.000983075 0.000845023 6.79744e-14
0.0005 0.000985656 0.000845023 6.76315e-14
0.0005 0.000988002 0.000845023 6.72578e-14
0.0005 0.000990136 0.000845023 6.69067e-14
0.0005 0.000992075 0.000845023 6.65533e-14
0.0005 0.000993838 0.000845023 6.6242e-14
0.0005 0.000995441 0.000845023 6.59524e-14
0.0005 0.000996898 0.000845023 6.57466e-14
0.0005 0.000998222 0.000845023 6.55723e-14
0.0005 0.000999427 0.000845023 6.54271e-14
0.0005 4.59758e-05 0.000927906 8.88267e-14
0.0005 0.000133748 0.000927906 8.92749e-14
0.0005 0.000213541 0.000927906 8.77976e-14
0.0005 0.000286079 0.000927906 8.73998e-14
0.0005 0.000352024 0.000927906 8.74964e-14
0.0005 0.000411973 0.000927906 8.54916e-14
0.0005 0.000466473 0.000927906 8.14013e-14
0.0005 0.000516018 0.000927906 8.29588e-14
0.0005 0.000561059 0.000927906 8.38835e-14
0.0005 0.000602005 0.000927906 8.23436e-14
0.0005 0.000639229 0.000927906 8.15422e-14
0.0005 0.000673069 0.000927906 8.12126e-14
0.0005 0.000703833 0.000927906 8.05471e-14
0.0005 0.000731799 0.000927906 7.98165e-14
0.0005 0.000757224 0.000927906 7.90214e-14
0.0005 0.000780337 0.000927906 7.81623e-14
0.0005 0.000801349 0.000927906 7.72591e-14
0.0005 0.000820451 0.000927906 7.63457e-14
0.0005 0.000837816 0.000927906 7.48619e-14
0.0005 0.000853602 0.000927906 7.41837e-14
0.0005 0.000867954 0.000927906 7.29639e-14
0.0005 0.000881001 0.000927906 7.22035e-14
0.0005 0.000892861 0.000927906 7.18891e-14
0.0005 0.000903644 0.000927906 7.1738e-14
0.0005 0.000913446 0.000927906 7.12498e-14
0.0005 0.000922357 0.000927906 7.0958e-14
0.0005 0.000930458 0.000927906 7.08541e-14
0.0005 0.000937823 0.000927906 7.08087e-14
0.0005 0.000944518 0.000927906 7.04669e-14
0.0005 0.000950604 0.000927906 7.01892e-14
0.0005 0.000956137 0.000927906 6.99728e-14
0.0005 0.000961167 0.000927906 6.97621e-14
0.0005 0.00096574 0.000927906 6.9564e-14
0.0005 0.000969897 0.000927906 6.9354e-14
0.0005 0.000973676 0.000927906 6.9144e-14
0.0005 0.000977112 0.000927906 6.89468e-14
0.0005 0.000980235 0.000927906 6.87525e-14
0.0005 0.000983075 0.000927906 6.85794e-14
0.0005 0.000985656 0.000927906 6.84256e-14
0.0005 0.000988002 0.000927906 6.82415e-14
0.0005 0.000990136 0.000927906 6.81084e-14
0.0005 0.000992075 0.000927906 6.79918e-14
0.0005 0.000993838 0.000927906 6.78723e-14
0.0005 0.000995441 0.000927906 6.77871e-14
0.0005 0.000996898 0.000927906 6.76908e-14
0.0005 0.000998222 0.000927906 6.76448e-14
0.0005 0.000999427 0.000927906 6.76443e-14
0.0005 4.59758e-05 0.00100969 8.7405e-14
0.0005 0.000133748 0.00100969 8.71886e-14
0.0005 0.000213541 0.00100969 8.6502e-14
0.0005 0.000286079 0.00100969 8.58356e-14
0.0005 0.000352024 0.00100969 8.5069e-14
0.0005 0.000411973 0.00100969 8.38449e-14
0.0005 0.000466473 0.00100969 8.15719e-14
0.0005 0.000516018 0.00100969 7.8641e-14
0.0005 0.000561059 0.00100969 8.10919e-14
0.0005 0.000602005 0.00100969 8.01421e-14
0.0005 0.000639229 0.00100969 7.94515e-14
0.0005 0.000673069 0.00100969 7.9595e-14
0.0005 0.000703833 0.00100969 7.91692e-14
0.0005 0.000731799 0.00100969 7.88062e-14
0.0005 0.000757224 0.00100969 7.82569e-14
0.0005 0.000780337 0.00100969 7.75721e-14
0.0005 0.000801349 0.00100969 7.68107e-14
0.0005 0.000820451 0.00100969 7.59722e-14
0.0005 0.000837816 0.00100969 7.53742e-14
0.0005 0.000853602 0.00100969 7.52317e-14
0.0005 0.000867954 0.00100969 7.37765e-14
0.0005 0.000881001 0.00100969 7.30611e-14
0.0005 0.000892861 0.00100969 7.23786e-14
0.0005 0.000903644 0.00100969 7.16845e-14
0.0005 0.000913446 0.00100969 7.09732e-14
0.0005 0.000922357 0.00100969 7.06793e-14
0.0005 0.000930458 0.00100969 7.03527e-14
0.0005 0.000937823 0.00100969 7.00131e-14
0.0005 0.000944518 0.00100969 6.96919e-14
0.0005 0.000950604 0.00100969 6.94079e-14
0.0005 0.000956137 0.00100969 6.91253e-14
0.0005 0.000961167 0.00100969 6.87748e-14
0.0005 0.00096574 0.00100969 6.84771e-14
0.0005 0.000969897 0.00100969 6.82606e-14
0.0005 0.000973676 0.00100969 6.79815e-14
0.0005 0.000977112 0.00100969 6.77255e-14
0.0005 0.000980235 0.00100969 6.75178e-14
0.0005 0.000983075 0.00100969 6.73198e-14
0.0005 0.000985656 0.00100969 6.71421e-14
0.0005 0.000988002 0.00100969 6.69891e-14
0.0005 0.000990136 0.00100969 6.68272e-14
0.0005 0.000992075 0.00100969 6.66865e-14
0.0005 0.000993838 0.00100969 6.66122e-14
0.0005 0.000995441 0.00100969 6.65474e-14
0.0005 0.000996898 0.00100969 6.65141e-14
0.0005 0.000998222 0.00100969 6.64832e-14
0.0005 0.000999427 0.00100969 6.64512e-14
0.0005 4.59758e-05 0.00109038 8.61819e-14
0.0005 0.000133748 0.00109038 8.58441e-14
0.0005 0.000213541 0.00109038 8.52289e-14
0.0005 0.000286079 0.00109038 8.4463e-14
0.0005 0.000352024 0.00109038 8.34835e-14
0.0005 0.000411973 0.00109038 8.24189e-14
0.0005 0.000466473 0.00109038 8.1119e-14
0.0005 0.000516018 0.00109038 8.04817e-14
0.0005 0.000561059 0.00109038 8.22462e-14
0.0005 0.000602005 0.00109038 8.02343e-14
0.0005 0.000639229 0.00109038 7.95647e-14
0.0005 0.000673069 0.00109038 8.04803e-14
0.0005 0.000703833 0.00109038 8.19168e-14
0.0005 0.000731799 0.00109038 8.00318e-14
0.0005 0.000757224 0.00109038 7.91197e-14
0.0005 0.000780337 0.00109038 7.82338e-14
0.0005 0.000801349 0.00109038 7.78725e-14
0.0005 0.000820451 0.00109038 7.65095e-14
0.0005 0.000837816 0.00109038 7.63003e-14
0.0005 0.000853602 0.00109038 7.58123e-14
0.0005 0.000867954 0.00109038 7.54015e-14
0.0005 0.000881001 0.00109038 7.50918e-14
0.0005 0.000892861 0.00109038 7.38385e-14
0.0005 0.000903644 0.00109038 7.31922e-14
0.0005 0.000913446 0.00109038 7.25032e-14
0.0005 0.000922357 0.00109038 7.16785e-14
0.0005 0.000930458 0.00109038 7.11804e-14
0.0005 0.000937823 0.00109038 7.07291e-14
0.0005 0.000944518 0.00109038 7.02973e-14
0.0005 0.000950604 0.00109038 6.98556e-14
0.0005 0.000956137 0.00109038 6.95861e-14
0.0005 0.000961167 0.00109038 6.93051e-14
0.0005 0.00096574 0.00109038 6.90401e-14
0.0005 0.000969897 0.00109038 6.87914e-14
0.0005 0.000973676 0.00109038 6.85689e-14
0.0005 0.000977112 0.00109038 6.83692e-14
0.0005 0.000980235 0.00109038 6.8194e-14
0.0005 0.000983075 0.00109038 6.80481e-14
0.0005 0.000985656 0.00109038 6.79226e-14
0.0005 0.000988002 0.00109038 6.78452e-14
0.0005 0.000990136 0.00109038 6.778e-14
0.0005 0.000992075 0.00109038 6.77222e-14
0.0005 0.000993838 0.00109038 6.76535e-14
0.0005 0.000995441 0.00109038 6.76014e-14
0.0005 0.000996898 0.00109038 6.75508e-14
0.0005 0.000998222 0.00109038 6.755e-14
0.0005 0.000999427 0.00109038 6.75847e-14
0.0005 4.59758e-05 0.00117001 8.52869e-14
0.0005 0.000133748 0.00117001 8.48036e-14
0.0005 0.000213541 0.00117001 8.41674e-14
0.0005 0.000286079 0.00117001 8.34319e-14
0.0005 0.000352024 0.00117001 8.23026e-14
0.0005 0.000411973 0.00117001 8.15466e-14
0.0005 0.000466473 0.00117001 8.22843e-14
0.0005 0.000516018 0.00117001 7.64784e-14
0.0005 0.000561059 0.00117001 7.98616e-14
0.0005 0.000602005 0.00117001 7.99185e-14
0.0005 0.000639229 0.00117001 7.75797e-14
0.0005 0.000673069 0.00117001 7.80026e-14
0.0005 0.000703833 0.00117001 7.6591e-14
0.0005 0.000731799 0.00117001 7.80857e-14
0.0005 0.000757224 0.00117001 7.99341e-14
0.0005 0.000780337 0.00117001 7.8094e-14
0.0005 0.000801349 0.00117001 7.64113e-14
0.0005 0.000820451 0.00117001 7.59729e-14
0.0005 0.000837816 0.00117001 7.51782e-14
0.0005 0.000853602 0.00117001 7.51142e-14
0.0005 0.000867954 0.00117001 7.46265e-14
0.0005 0.000881001 0.00117001 7.37418e-14
0.0005 0.000892861 0.00117001 7.28956e-14
0.0005 0.000903644 0.00117001 7.27197e-14
0.0005 0.000913446 0.00117001 7.20433e-14
0.0005 0.000922357 0.00117001 7.13858e-14
0.0005 0.000930458 0.00117001 7.08663e-14
0.0005 0.000937823 0.00117001 7.03602e-14
0.0005 0.000944518 0.00117001 6.98786e-14
0.0005 0.000950604 0.00117001 6.9409e-14
0.0005 0.000956137 0.00117001 6.89598e-14
0.0005 0.000961167 0.00117001 6.85693e-14
0.0005 0.00096574 0.00117001 6.82344e-14
0.0005 0.000969897 0.00117001 6.80453e-14
0.0005 0.000973676 0.00117001 6.77965e-14
0.0005 0.000977112 0.00117001 6.75437e-14
0.0005 0.000980235 0.00117001 6.73612e-14
0.0005 0.000983075 0.00117001 6.71548e-14
0.0005 0.000985656 0.00117001 6.70065e-14
0.0005 0.000988002 0.00117001 6.69038e-14
0.0005 0.000990136 0.00117001 6.68085e-14
0.0005 0.000992075 0.00117001 6.671e-14
0.0005 0.000993838 0.00117001 6.66316e-14
0.0005 0.000995441 0.00117001 6.65527e-14
0.0005 0.000996898 0.00117001 6.65153e-14
0.0005 0.000998222 0.00117001 6.64955e-14
0.0005 0.000999427 0.00117001 6.64877e-14
0.0005 4.59758e-05 0.00124857 8.4794e-14
0.0005 0.000133748 0.00124857 8.39845e-14
0.0005 0.000213541 0.00124857 8.32419e-14
0.0005 0.000286079 0.00124857 8.29805e-14
0.0005 0.000352024 0.00124857 8.40066e-14
0.0005 0.000411973 0.00124857 8.06973e-14
0.0005 0.000466473 0.00124857 7.94904e-14
0.0005 0.000516018 0.00124857 7.91548e-14
0.0005 0.000561059 0.00124857 7.95043e-14
0.0005 0.000602005 0.00124857 7.88551e-14
0.0005 0.000639229 0.00124857 7.89994e-14
0.0005 0.000673069 0.00124857 7.84989e-14
0.0005 0.000703833 0.00124857 7.80072e-14
0.0005 0.000731799 0.00124857 7.76893e-14
0.0005 0.000757224 0.00124857 7.72055e-14
0.0005 0.000780337 0.00124857 7.64417e-14
0.0005 0.000801349 0.00124857 7.56127e-14
0.0005 0.000820451 0.00124857 7.50363e-14
0.0005 0.000837816 0.00124857 7.44593e-14
0.0005 0.000853602 0.00124857 7.38842e-14
0.0005 0.000867954 0.00124857 7.32955e-14
0.0005 0.000881001 0.00124857 7.27023e-14
0.0005 0.000892861 0.00124857 7.21075e-14
0.0005 0.000903644 0.00124857 7.12333e-14
0.0005 0.000913446 0.00124857 7.06137e-14
0.0005 0.000922357 0.00124857 7.01599e-14
0.0005 0.000930458 0.00124857 6.97253e-14
0.0005 0.000937823 0.00124857 6.93069e-14
0.0005 0.000944518 0.00124857 6.89261e-14
0.0005 0.000950604 0.00124857 6.86023e-14
0.0005 0.000956137 0.00124857 6.83343e-14
0.0005 0.000961167 0.00124857 6.81117e-14
0.0005 0.00096574 0.00124857 6.79269e-14
0.0005 0.000969897 0.00124857 6.77561e-14
0.0005 0.000973676 0.00124857 6.76014e-14
0.0005 0.000977112 0.00124857 6.74833e-14
0.0005 0.000980235 0.00124857 6.73944e-14
0.0005 0.000983075 0.00124857 6.73308e-14
0.0005 0.000985656 0.00124857 6.72878e-14
0.0005 0.000988002 0.00124857 6.72485e-14
0.0005 0.000990136 0.00124857 6.72633e-14
0.0005 0.000992075 0.00124857 6.72771e-14
0.0005 0.000993838 0.00124857 6.7285e-14
0.0005 0.000995441 0.00124857 6.73e-14
0.0005 0.000996898 0.00124857 6.73013e-14
0.0005 0.000998222 0.00124857 6.73287e-14
0.0005 0.000999427 0.00124857 6.73707e-14