# U  FACE_DATA 15463
#  x  y  z  U_x  U_y  U_z  
0.0005 4.59758e-05 4.70511e-05 48.2552 -2.5044e-15 -2.26625e-15
0.0005 0.000133748 4.70511e-05 48.0784 -3.68415e-15 -8.5444e-16
0.0005 0.000213541 4.70511e-05 47.764 -1.98755e-15 -4.26976e-16
0.0005 0.000286079 4.70511e-05 47.3401 -1.30582e-15 -2.68044e-16
0.0005 0.000352024 4.70511e-05 46.8282 -9.0147e-16 -1.64465e-16
0.0005 0.000411973 4.70511e-05 46.2451 -5.89978e-16 -1.16387e-16
0.0005 0.000466473 4.70511e-05 45.6037 -4.58275e-16 -9.43644e-17
0.0005 0.000516018 4.70511e-05 44.9143 -4.25062e-16 -7.89895e-17
0.0005 0.000561059 4.70511e-05 44.1846 -3.57122e-16 -7.88905e-17
0.0005 0.000602005 4.70511e-05 43.4186 -2.61276e-16 -9.13871e-17
0.0005 0.000639229 4.70511e-05 42.6156 -2.57808e-16 -1.0486e-16
0.0005 0.000673069 4.70511e-05 41.777 -3.86305e-16 -9.8259e-17
0.0005 0.000703833 4.70511e-05 40.9077 -4.80144e-16 -6.45993e-17
0.0005 0.000731799 4.70511e-05 40.0118 -4.67369e-16 -3.1297e-17
0.0005 0.000757224 4.70511e-05 39.0914 -4.14259e-16 -1.23578e-17
0.0005 0.000780337 4.70511e-05 38.1471 -3.57493e-16 -8.89345e-18
0.0005 0.000801349 4.70511e-05 37.1776 -3.09712e-16 -1.4951e-17
0.0005 0.000820451 4.70511e-05 36.1809 -2.65592e-16 -2.38433e-17
0.0005 0.000837816 4.70511e-05 35.1543 -2.23074e-16 -3.07368e-17
0.0005 0.000853602 4.70511e-05 34.0945 -1.92139e-16 -3.76842e-17
0.0005 0.000867954 4.70511e-05 32.9976 -1.80506e-16 -4.26032e-17
0.0005 0.000881001 4.70511e-05 31.8595 -1.66166e-16 -4.39402e-17
0.0005 0.000892861 4.70511e-05 30.6757 -1.30121e-16 -4.29861e-17
0.0005 0.000903644 4.70511e-05 29.4418 -8.70927e-17 -4.41645e-17
0.0005 0.000913446 4.70511e-05 28.1535 -5.20993e-17 -4.57018e-17
0.0005 0.000922357 4.70511e-05 26.8073 -2.25062e-17 -4.65227e-17
0.0005 0.000930458 4.70511e-05 25.401 -1.47285e-18 -4.63028e-17
0.0005 0.000937823 4.70511e-05 23.9347 2.50234e-17 -4.45814e-17
0.0005 0.000944518 4.70511e-05 22.411 6.64994e-17 -4.26382e-17
0.0005 0.000950604 4.70511e-05 20.8355 1.0371e-16 -4.07771e-17
0.0005 0.000956137 4.70511e-05 19.209 1.29203e-16 -3.85185e-17
0.0005 0.000961167 4.70511e-05 17.5373 1.46729e-16 -3.57993e-17
0.0005 0.00096574 4.70511e-05 15.8441 1.57107e-16 -3.26833e-17
0.0005 0.000969897 4.70511e-05 14.1627 1.61578e-16 -2.92585e-17
0.0005 0.000973676 4.70511e-05 12.5295 1.58925e-16 -2.56988e-17
0.0005 0.000977112 4.70511e-05 10.9759 1.49367e-16 -2.22078e-17
0.0005 0.000980235 4.70511e-05 9.52266 1.35201e-16 -1.89068e-17
0.0005 0.000983075 4.70511e-05 8.17912 1.20415e-16 -1.59093e-17
0.0005 0.000985656 4.70511e-05 6.94583 1.05177e-16 -1.33198e-17
0.0005 0.000988002 4.70511e-05 5.81825 8.98825e-17 -1.11262e-17
0.0005 0.000990136 4.70511e-05 4.78946 7.48183e-17 -9.32188e-18
0.0005 0.000992075 4.70511e-05 3.85178 5.99544e-17 -7.83269e-18
0.0005 0.000993838 4.70511e-05 2.9976 4.68419e-17 -6.55787e-18
0.0005 0.000995441 4.70511e-05 2.21972 3.48014e-17 -5.39821e-18
0.0005 0.000996898 4.70511e-05 1.51146 2.35816e-17 -4.18625e-18
0.0005 0.000998222 4.70511e-05 0.866691 1.31586e-17 -2.7269e-18
0.0005 0.000999427 4.70511e-05 0.279795 4.38735e-18 -9.68683e-19
0.0005 4.59758e-05 0.000140529 48.2553 -9.41407e-16 -3.52821e-15
0.0005 0.000133748 0.000140529 48.0785 -1.44627e-15 -1.40442e-15
0.0005 0.000213541 0.000140529 47.764 -1.04695e-15 -6.78348e-16
0.0005 0.000286079 0.000140529 47.3402 -7.87312e-16 -4.45353e-16
0.0005 0.000352024 0.000140529 46.8283 -5.57673e-16 -3.14034e-16
0.0005 0.000411973 0.000140529 46.2451 -3.90754e-16 -2.6508e-16
0.0005 0.000466473 0.000140529 45.6038 -3.48277e-16 -2.55505e-16
0.0005 0.000516018 0.000140529 44.9143 -4.02611e-16 -2.42943e-16
0.0005 0.000561059 0.000140529 44.1847 -4.2963e-16 -2.43946e-16
0.0005 0.000602005 0.000140529 43.4186 -3.83675e-16 -2.56383e-16
0.0005 0.000639229 0.000140529 42.6157 -3.35984e-16 -2.51048e-16
0.0005 0.000673069 0.000140529 41.7771 -3.29674e-16 -2.11999e-16
0.0005 0.000703833 0.000140529 40.9077 -3.47394e-16 -1.44074e-16
0.0005 0.000731799 0.000140529 40.0118 -3.88927e-16 -8.42047e-17
0.0005 0.000757224 0.000140529 39.0915 -4.40875e-16 -4.4537e-17
0.0005 0.000780337 0.000140529 38.1471 -4.7517e-16 -2.39301e-17
0.0005 0.000801349 0.000140529 37.1776 -4.64152e-16 -1.61716e-17
0.0005 0.000820451 0.000140529 36.1809 -4.07419e-16 -2.42954e-17
0.0005 0.000837816 0.000140529 35.1544 -3.41089e-16 -4.54994e-17
0.0005 0.000853602 0.000140529 34.0945 -2.90375e-16 -7.07246e-17
0.0005 0.000867954 0.000140529 32.9977 -2.40314e-16 -9.38494e-17
0.0005 0.000881001 0.000140529 31.8595 -1.91271e-16 -1.12906e-16
0.0005 0.000892861 0.000140529 30.6757 -1.67891e-16 -1.28352e-16
0.0005 0.000903644 0.000140529 29.4418 -1.55938e-16 -1.41182e-16
0.0005 0.000913446 0.000140529 28.1535 -1.29039e-16 -1.49838e-16
0.0005 0.000922357 0.000140529 26.8073 -9.59956e-17 -1.55708e-16
0.0005 0.000930458 0.000140529 25.4011 -6.37768e-17 -1.59651e-16
0.0005 0.000937823 0.000140529 23.9347 -3.84973e-17 -1.61651e-16
0.0005 0.000944518 0.000140529 22.411 -1.82229e-17 -1.61713e-16
0.0005 0.000950604 0.000140529 20.8355 1.23606e-18 -1.60521e-16
0.0005 0.000956137 0.000140529 19.209 1.75484e-17 -1.5752e-16
0.0005 0.000961167 0.000140529 17.5373 2.98738e-17 -1.52649e-16
0.0005 0.00096574 0.000140529 15.8441 3.90456e-17 -1.45715e-16
0.0005 0.000969897 0.000140529 14.1627 4.54734e-17 -1.37097e-16
0.0005 0.000973676 0.000140529 12.5295 4.72286e-17 -1.27106e-16
0.0005 0.000977112 0.000140529 10.9759 4.46553e-17 -1.16104e-16
0.0005 0.000980235 0.000140529 9.52266 3.96408e-17 -1.04464e-16
0.0005 0.000983075 0.000140529 8.17912 3.31225e-17 -9.25773e-17
0.0005 0.000985656 0.000140529 6.94583 2.61615e-17 -8.08226e-17
0.0005 0.000988002 0.000140529 5.81825 1.85842e-17 -6.94117e-17
0.0005 0.000990136 0.000140529 4.78946 1.17507e-17 -5.85206e-17
0.0005 0.000992075 0.000140529 3.85178 6.84779e-18 -4.81912e-17
0.0005 0.000993838 0.000140529 2.9976 3.3926e-18 -3.84474e-17
0.0005 0.000995441 0.000140529 2.21972 1.54272e-18 -2.92621e-17
0.0005 0.000996898 0.000140529 1.51146 6.61519e-19 -2.0555e-17
0.0005 0.000998222 0.000140529 0.866691 6.04418e-20 -1.21387e-17
0.0005 0.000999427 0.000140529 0.279795 -1.40308e-19 -3.99848e-18
0.0005 4.59758e-05 0.000232765 48.2551 -3.88364e-16 -1.87785e-15
0.0005 0.000133748 0.000232765 48.0783 -5.88336e-16 -9.6637e-16
0.0005 0.000213541 0.000232765 47.7639 -6.2602e-16 -5.58664e-16
0.0005 0.000286079 0.000232765 47.34 -6.35546e-16 -3.63801e-16
0.0005 0.000352024 0.000232765 46.8281 -4.92238e-16 -2.87932e-16
0.0005 0.000411973 0.000232765 46.245 -3.79522e-16 -2.76877e-16
0.0005 0.000466473 0.000232765 45.6036 -3.40508e-16 -2.82978e-16
0.0005 0.000516018 0.000232765 44.9142 -3.77261e-16 -2.75361e-16
0.0005 0.000561059 0.000232765 44.1845 -3.92228e-16 -2.48032e-16
0.0005 0.000602005 0.000232765 43.4185 -2.83259e-16 -2.07383e-16
0.0005 0.000639229 0.000232765 42.6155 -1.35514e-16 -1.67239e-16
0.0005 0.000673069 0.000232765 41.7769 -6.36727e-17 -1.30482e-16
0.0005 0.000703833 0.000232765 40.9076 -7.02694e-17 -9.87245e-17
0.0005 0.000731799 0.000232765 40.0117 -1.19593e-16 -7.8328e-17
0.0005 0.000757224 0.000232765 39.0914 -1.77147e-16 -6.7605e-17
0.0005 0.000780337 0.000232765 38.147 -2.2142e-16 -6.53411e-17
0.0005 0.000801349 0.000232765 37.1775 -2.85139e-16 -6.94924e-17
0.0005 0.000820451 0.000232765 36.1808 -3.70791e-16 -8.08523e-17
0.0005 0.000837816 0.000232765 35.1542 -4.07629e-16 -1.00084e-16
0.0005 0.000853602 0.000232765 34.0944 -3.86054e-16 -1.22072e-16
0.0005 0.000867954 0.000232765 32.9975 -3.45685e-16 -1.4452e-16
0.0005 0.000881001 0.000232765 31.8594 -3.02579e-16 -1.65837e-16
0.0005 0.000892861 0.000232765 30.6756 -2.52285e-16 -1.83454e-16
0.0005 0.000903644 0.000232765 29.4417 -1.88591e-16 -1.93878e-16
0.0005 0.000913446 0.000232765 28.1534 -1.33935e-16 -2.01009e-16
0.0005 0.000922357 0.000232765 26.8072 -1.04796e-16 -2.05653e-16
0.0005 0.000930458 0.000232765 25.4009 -9.04077e-17 -2.08241e-16
0.0005 0.000937823 0.000232765 23.9346 -7.15391e-17 -2.08762e-16
0.0005 0.000944518 0.000232765 22.4109 -4.81653e-17 -2.0691e-16
0.0005 0.000950604 0.000232765 20.8354 -3.24083e-17 -2.02662e-16
0.0005 0.000956137 0.000232765 19.2089 -2.23332e-17 -1.96082e-16
0.0005 0.000961167 0.000232765 17.5372 -1.23406e-17 -1.87321e-16
0.0005 0.00096574 0.000232765 15.844 -3.34113e-18 -1.76459e-16
0.0005 0.000969897 0.000232765 14.1626 2.50029e-18 -1.63898e-16
0.0005 0.000973676 0.000232765 12.5294 9.35215e-18 -1.50218e-16
0.0005 0.000977112 0.000232765 10.9758 1.67259e-17 -1.35922e-16
0.0005 0.000980235 0.000232765 9.52259 2.32535e-17 -1.21435e-16
0.0005 0.000983075 0.000232765 8.17906 2.75007e-17 -1.07129e-16
0.0005 0.000985656 0.000232765 6.94578 2.87941e-17 -9.32379e-17
0.0005 0.000988002 0.000232765 5.81821 2.73263e-17 -7.99293e-17
0.0005 0.000990136 0.000232765 4.78942 2.5092e-17 -6.72855e-17
0.0005 0.000992075 0.000232765 3.85175 2.28192e-17 -5.53482e-17
0.0005 0.000993838 0.000232765 2.99758 2.01427e-17 -4.41238e-17
0.0005 0.000995441 0.000232765 2.2197 1.62766e-17 -3.35633e-17
0.0005 0.000996898 0.000232765 1.51145 1.14605e-17 -2.35453e-17
0.0005 0.000998222 0.000232765 0.866685 6.71095e-18 -1.38534e-17
0.0005 0.000999427 0.000232765 0.279793 2.28742e-18 -4.51783e-18
0.0005 4.59758e-05 0.000323776 48.2548 -1.95812e-16 -1.13866e-15
0.0005 0.000133748 0.000323776 48.078 -3.07918e-16 -6.38513e-16
0.0005 0.000213541 0.000323776 47.7635 -3.42866e-16 -4.24697e-16
0.0005 0.000286079 0.000323776 47.3396 -3.97811e-16 -2.46455e-16
0.0005 0.000352024 0.000323776 46.8278 -3.79264e-16 -2.03621e-16
0.0005 0.000411973 0.000323776 46.2446 -3.19074e-16 -1.85082e-16
0.0005 0.000466473 0.000323776 45.6033 -2.7328e-16 -1.71375e-16
0.0005 0.000516018 0.000323776 44.9139 -2.5717e-16 -1.5897e-16
0.0005 0.000561059 0.000323776 44.1842 -2.00803e-16 -1.45977e-16
0.0005 0.000602005 0.000323776 43.4181 -1.02779e-16 -9.16343e-17
0.0005 0.000639229 0.000323776 42.6152 -2.96511e-17 -5.77766e-17
0.0005 0.000673069 0.000323776 41.7766 -4.5614e-18 -5.46032e-17
0.0005 0.000703833 0.000323776 40.9073 -3.06998e-17 -7.16113e-17
0.0005 0.000731799 0.000323776 40.0113 -1.00871e-16 -9.86572e-17
0.0005 0.000757224 0.000323776 39.091 -1.88156e-16 -1.29374e-16
0.0005 0.000780337 0.000323776 38.1467 -2.58533e-16 -1.62283e-16
0.0005 0.000801349 0.000323776 37.1772 -3.02369e-16 -1.95392e-16
0.0005 0.000820451 0.000323776 36.1805 -3.28668e-16 -2.16689e-16
0.0005 0.000837816 0.000323776 35.1539 -3.41543e-16 -2.24295e-16
0.0005 0.000853602 0.000323776 34.0941 -3.41278e-16 -2.30205e-16
0.0005 0.000867954 0.000323776 32.9972 -3.28522e-16 -2.40868e-16
0.0005 0.000881001 0.000323776 31.8591 -2.93443e-16 -2.54474e-16
0.0005 0.000892861 0.000323776 30.6753 -2.39957e-16 -2.67044e-16
0.0005 0.000903644 0.000323776 29.4414 -2.08011e-16 -2.77388e-16
0.0005 0.000913446 0.000323776 28.1531 -1.98387e-16 -2.8746e-16
0.0005 0.000922357 0.000323776 26.8069 -1.92518e-16 -2.96514e-16
0.0005 0.000930458 0.000323776 25.4007 -1.87652e-16 -3.02041e-16
0.0005 0.000937823 0.000323776 23.9343 -1.79802e-16 -3.03246e-16
0.0005 0.000944518 0.000323776 22.4106 -1.68245e-16 -3.00836e-16
0.0005 0.000950604 0.000323776 20.8352 -1.53482e-16 -2.95016e-16
0.0005 0.000956137 0.000323776 19.2086 -1.40748e-16 -2.85921e-16
0.0005 0.000961167 0.000323776 17.537 -1.27132e-16 -2.73959e-16
0.0005 0.00096574 0.000323776 15.8438 -1.11605e-16 -2.59226e-16
0.0005 0.000969897 0.000323776 14.1624 -9.90845e-17 -2.41763e-16
0.0005 0.000973676 0.000323776 12.5292 -9.03634e-17 -2.22106e-16
0.0005 0.000977112 0.000323776 10.9756 -8.2936e-17 -2.0118e-16
0.0005 0.000980235 0.000323776 9.52246 -7.64965e-17 -1.798e-16
0.0005 0.000983075 0.000323776 8.17895 -7.10066e-17 -1.58627e-16
0.0005 0.000985656 0.000323776 6.94568 -6.53491e-17 -1.38026e-16
0.0005 0.000988002 0.000323776 5.81813 -5.97321e-17 -1.18251e-16
0.0005 0.000990136 0.000323776 4.78936 -5.35871e-17 -9.94112e-17
0.0005 0.000992075 0.000323776 3.8517 -4.65352e-17 -8.16046e-17
0.0005 0.000993838 0.000323776 2.99754 -3.93162e-17 -6.48412e-17
0.0005 0.000995441 0.000323776 2.21967 -3.10676e-17 -4.90729e-17
0.0005 0.000996898 0.000323776 1.51143 -2.19747e-17 -3.41729e-17
0.0005 0.000998222 0.000323776 0.866673 -1.2825e-17 -1.99398e-17
0.0005 0.000999427 0.000323776 0.279789 -4.57018e-18 -6.46101e-18
0.0005 4.59758e-05 0.00041358 48.2542 -8.9651e-17 -6.53299e-16
0.0005 0.000133748 0.00041358 48.0774 -1.54034e-16 -2.58955e-16
0.0005 0.000213541 0.00041358 47.763 -2.13886e-16 -8.46222e-17
0.0005 0.000286079 0.00041358 47.3391 -3.28065e-16 1.14039e-18
0.0005 0.000352024 0.00041358 46.8272 -3.35588e-16 -2.24135e-17
0.0005 0.000411973 0.00041358 46.2441 -2.44964e-16 1.00311e-17
0.0005 0.000466473 0.00041358 45.6027 -2.06076e-16 5.52449e-17
0.0005 0.000516018 0.00041358 44.9133 -2.32168e-16 1.02608e-16
0.0005 0.000561059 0.00041358 44.1837 -1.43284e-16 1.36591e-16
0.0005 0.000602005 0.00041358 43.4176 2.4892e-18 1.45959e-16
0.0005 0.000639229 0.00041358 42.6147 3.40202e-17 1.26434e-16
0.0005 0.000673069 0.00041358 41.7761 -1.61813e-17 8.76227e-17
0.0005 0.000703833 0.00041358 40.9068 -9.42463e-17 3.41326e-17
0.0005 0.000731799 0.00041358 40.0109 -1.70934e-16 -1.63215e-17
0.0005 0.000757224 0.00041358 39.0906 -2.3386e-16 -5.15722e-17
0.0005 0.000780337 0.00041358 38.1462 -2.72579e-16 -7.65309e-17
0.0005 0.000801349 0.00041358 37.1767 -2.72039e-16 -9.42501e-17
0.0005 0.000820451 0.00041358 36.18 -2.38427e-16 -1.06371e-16
0.0005 0.000837816 0.00041358 35.1535 -2.25229e-16 -1.15223e-16
0.0005 0.000853602 0.00041358 34.0937 -2.58669e-16 -1.22754e-16
0.0005 0.000867954 0.00041358 32.9968 -3.01684e-16 -1.27833e-16
0.0005 0.000881001 0.00041358 31.8587 -3.07949e-16 -1.29502e-16
0.0005 0.000892861 0.00041358 30.6749 -2.76304e-16 -1.31587e-16
0.0005 0.000903644 0.00041358 29.441 -2.49055e-16 -1.34407e-16
0.0005 0.000913446 0.00041358 28.1527 -2.46022e-16 -1.34707e-16
0.0005 0.000922357 0.00041358 26.8065 -2.46301e-16 -1.33375e-16
0.0005 0.000930458 0.00041358 25.4003 -2.33547e-16 -1.3079e-16
0.0005 0.000937823 0.00041358 23.9339 -2.19529e-16 -1.26733e-16
0.0005 0.000944518 0.00041358 22.4103 -2.10426e-16 -1.21138e-16
0.0005 0.000950604 0.00041358 20.8348 -2.09418e-16 -1.14377e-16
0.0005 0.000956137 0.00041358 19.2083 -2.17395e-16 -1.06913e-16
0.0005 0.000961167 0.00041358 17.5366 -2.2099e-16 -9.88667e-17
0.0005 0.00096574 0.00041358 15.8435 -2.08665e-16 -9.05374e-17
0.0005 0.000969897 0.00041358 14.1621 -1.81989e-16 -8.22677e-17
0.0005 0.000973676 0.00041358 12.529 -1.51297e-16 -7.42438e-17
0.0005 0.000977112 0.00041358 10.9754 -1.24941e-16 -6.66207e-17
0.0005 0.000980235 0.00041358 9.52226 -1.02906e-16 -5.92593e-17
0.0005 0.000983075 0.00041358 8.17878 -8.46595e-17 -5.20943e-17
0.0005 0.000985656 0.00041358 6.94554 -6.87077e-17 -4.51076e-17
0.0005 0.000988002 0.00041358 5.81801 -5.46788e-17 -3.83396e-17
0.0005 0.000990136 0.00041358 4.78926 -4.22412e-17 -3.18286e-17
0.0005 0.000992075 0.00041358 3.85162 -3.23577e-17 -2.56298e-17
0.0005 0.000993838 0.00041358 2.99747 -2.41402e-17 -1.98163e-17
0.0005 0.000995441 0.00041358 2.21963 -1.73061e-17 -1.44643e-17
0.0005 0.000996898 0.00041358 1.5114 -1.11124e-17 -9.66106e-18
0.0005 0.000998222 0.00041358 0.866655 -5.2753e-18 -5.38671e-18
0.0005 0.000999427 0.00041358 0.279784 -1.63863e-18 -1.64429e-18
0.0005 4.59758e-05 0.00050219 48.2535 -3.81998e-17 -4.31809e-16
0.0005 0.000133748 0.00050219 48.0767 -6.76129e-17 -1.07764e-16
0.0005 0.000213541 0.00050219 47.7622 -1.44473e-16 2.08194e-17
0.0005 0.000286079 0.00050219 47.3384 -3.14857e-16 4.78436e-17
0.0005 0.000352024 0.00050219 46.8265 -2.85349e-16 4.46721e-17
0.0005 0.000411973 0.00050219 46.2434 -1.10326e-16 1.02241e-16
0.0005 0.000466473 0.00050219 45.602 -3.21307e-17 1.31783e-16
0.0005 0.000516018 0.00050219 44.9126 -3.55805e-17 1.43931e-16
0.0005 0.000561059 0.00050219 44.183 -6.03013e-17 1.61323e-16
0.0005 0.000602005 0.00050219 43.4169 -9.01785e-17 1.2526e-16
0.0005 0.000639229 0.00050219 42.614 -1.48318e-16 7.98743e-17
0.0005 0.000673069 0.00050219 41.7754 -2.34247e-16 2.80803e-17
0.0005 0.000703833 0.00050219 40.9061 -3.06731e-16 -6.93358e-18
0.0005 0.000731799 0.00050219 40.0102 -3.32896e-16 -3.18698e-17
0.0005 0.000757224 0.00050219 39.0899 -3.51102e-16 -4.26748e-17
0.0005 0.000780337 0.00050219 38.1456 -3.79475e-16 -4.83482e-17
0.0005 0.000801349 0.00050219 37.1761 -3.96758e-16 -5.76803e-17
0.0005 0.000820451 0.00050219 36.1794 -4.08963e-16 -7.50691e-17
0.0005 0.000837816 0.00050219 35.1529 -4.25393e-16 -9.84848e-17
0.0005 0.000853602 0.00050219 34.0931 -4.25393e-16 -1.19708e-16
0.0005 0.000867954 0.00050219 32.9962 -3.96807e-16 -1.30825e-16
0.0005 0.000881001 0.00050219 31.8581 -3.62856e-16 -1.32649e-16
0.0005 0.000892861 0.00050219 30.6743 -3.37227e-16 -1.29469e-16
0.0005 0.000903644 0.00050219 29.4404 -3.04821e-16 -1.25443e-16
0.0005 0.000913446 0.00050219 28.1521 -2.74741e-16 -1.19455e-16
0.0005 0.000922357 0.00050219 26.806 -2.56964e-16 -1.11565e-16
0.0005 0.000930458 0.00050219 25.3997 -2.41098e-16 -1.03279e-16
0.0005 0.000937823 0.00050219 23.9334 -2.20111e-16 -9.51242e-17
0.0005 0.000944518 0.00050219 22.4098 -1.97166e-16 -8.70058e-17
0.0005 0.000950604 0.00050219 20.8343 -1.81237e-16 -7.82679e-17
0.0005 0.000956137 0.00050219 19.2078 -1.71633e-16 -6.94381e-17
0.0005 0.000961167 0.00050219 17.5362 -1.60167e-16 -6.04468e-17
0.0005 0.00096574 0.00050219 15.8431 -1.48125e-16 -5.1861e-17
0.0005 0.000969897 0.00050219 14.1618 -1.39022e-16 -4.41206e-17
0.0005 0.000973676 0.00050219 12.5286 -1.35393e-16 -3.75754e-17
0.0005 0.000977112 0.00050219 10.9751 -1.29827e-16 -3.20611e-17
0.0005 0.000980235 0.00050219 9.522 -1.19948e-16 -2.73183e-17
0.0005 0.000983075 0.00050219 8.17855 -1.09357e-16 -2.30558e-17
0.0005 0.000985656 0.00050219 6.94535 -9.91047e-17 -1.91205e-17
0.0005 0.000988002 0.00050219 5.81785 -8.93897e-17 -1.54192e-17
0.0005 0.000990136 0.00050219 4.78913 -7.83125e-17 -1.19475e-17
0.0005 0.000992075 0.00050219 3.85151 -6.58201e-17 -8.75037e-18
0.0005 0.000993838 0.00050219 2.99739 -5.2961e-17 -5.88611e-18
0.0005 0.000995441 0.00050219 2.21956 -4.08853e-17 -3.45908e-18
0.0005 0.000996898 0.00050219 1.51136 -2.94781e-17 -1.58219e-18
0.0005 0.000998222 0.00050219 0.866631 -1.76852e-17 -3.76818e-19
0.0005 0.000999427 0.00050219 0.279776 -6.36823e-18 1.04735e-19
0.0005 4.59758e-05 0.000589625 48.2525 -2.32568e-17 -3.97809e-16
0.0005 0.000133748 0.000589625 48.0757 -6.38535e-17 -1.45374e-16
0.0005 0.000213541 0.000589625 47.7613 -1.58336e-16 -4.36896e-17
0.0005 0.000286079 0.000589625 47.3374 -2.88147e-16 -8.54542e-18
0.0005 0.000352024 0.000589625 46.8256 -1.75126e-16 6.21751e-17
0.0005 0.000411973 0.000589625 46.2424 -2.15187e-17 9.53182e-17
0.0005 0.000466473 0.000589625 45.6011 -4.11384e-17 7.02315e-17
0.0005 0.000516018 0.000589625 44.9117 -8.18486e-17 -1.0499e-18
0.0005 0.000561059 0.000589625 44.1821 -1.03936e-16 -6.53005e-17
0.0005 0.000602005 0.000589625 43.4161 -9.21961e-17 -8.40714e-17
0.0005 0.000639229 0.000589625 42.6132 -1.09849e-16 -8.96021e-17
0.0005 0.000673069 0.000589625 41.7746 -1.49444e-16 -9.8817e-17
0.0005 0.000703833 0.000589625 40.9053 -1.8249e-16 -1.11484e-16
0.0005 0.000731799 0.000589625 40.0094 -2.17406e-16 -1.26402e-16
0.0005 0.000757224 0.000589625 39.0891 -2.58824e-16 -1.43583e-16
0.0005 0.000780337 0.000589625 38.1448 -3.38807e-16 -1.48345e-16
0.0005 0.000801349 0.000589625 37.1753 -4.25532e-16 -1.49671e-16
0.0005 0.000820451 0.000589625 36.1787 -4.88419e-16 -1.50475e-16
0.0005 0.000837816 0.000589625 35.1521 -5.15457e-16 -1.53629e-16
0.0005 0.000853602 0.000589625 34.0923 -5.01932e-16 -1.53691e-16
0.0005 0.000867954 0.000589625 32.9955 -4.5866e-16 -1.5557e-16
0.0005 0.000881001 0.000589625 31.8574 -4.05449e-16 -1.60004e-16
0.0005 0.000892861 0.000589625 30.6736 -3.67583e-16 -1.62697e-16
0.0005 0.000903644 0.000589625 29.4397 -3.44559e-16 -1.63534e-16
0.0005 0.000913446 0.000589625 28.1514 -3.25748e-16 -1.63653e-16
0.0005 0.000922357 0.000589625 26.8053 -3.12993e-16 -1.62816e-16
0.0005 0.000930458 0.000589625 25.3991 -3.00131e-16 -1.60641e-16
0.0005 0.000937823 0.000589625 23.9327 -2.82501e-16 -1.57529e-16
0.0005 0.000944518 0.000589625 22.4091 -2.56806e-16 -1.53427e-16
0.0005 0.000950604 0.000589625 20.8337 -2.37277e-16 -1.48314e-16
0.0005 0.000956137 0.000589625 19.2073 -2.27427e-16 -1.42002e-16
0.0005 0.000961167 0.000589625 17.5356 -2.14547e-16 -1.3473e-16
0.0005 0.00096574 0.000589625 15.8426 -1.94453e-16 -1.2684e-16
0.0005 0.000969897 0.000589625 14.1613 -1.7103e-16 -1.18564e-16
0.0005 0.000973676 0.000589625 12.5282 -1.47592e-16 -1.09924e-16
0.0005 0.000977112 0.000589625 10.9747 -1.24221e-16 -1.00858e-16
0.0005 0.000980235 0.000589625 9.52167 -1.00937e-16 -9.15159e-17
0.0005 0.000983075 0.000589625 8.17827 -7.85629e-17 -8.19475e-17
0.0005 0.000985656 0.000589625 6.94511 -5.79465e-17 -7.21915e-17
0.0005 0.000988002 0.000589625 5.81765 -4.02487e-17 -6.22947e-17
0.0005 0.000990136 0.000589625 4.78896 -2.62579e-17 -5.23627e-17
0.0005 0.000992075 0.000589625 3.85138 -1.56388e-17 -4.2563e-17
0.0005 0.000993838 0.000589625 2.99729 -8.03244e-18 -3.30707e-17
0.0005 0.000995441 0.000589625 2.21949 -2.89074e-18 -2.4055e-17
0.0005 0.000996898 0.000589625 1.5113 -1.38683e-19 -1.57188e-17
0.0005 0.000998222 0.000589625 0.866601 7.00386e-19 -8.30581e-18
0.0005 0.000999427 0.000589625 0.279766 3.59492e-19 -2.26008e-18
0.0005 4.59758e-05 0.000675898 48.2514 -4.3145e-17 -4.06274e-16
0.0005 0.000133748 0.000675898 48.0746 -6.67262e-17 -2.25086e-16
0.0005 0.000213541 0.000675898 47.7601 -9.99445e-17 -9.10701e-17
0.0005 0.000286079 0.000675898 47.3363 -1.56968e-16 -2.9657e-17
0.0005 0.000352024 0.000675898 46.8245 -7.185e-17 5.205e-17
0.0005 0.000411973 0.000675898 46.2413 -9.12023e-18 8.33647e-17
0.0005 0.000466473 0.000675898 45.6 -9.02411e-17 7.47761e-17
0.0005 0.000516018 0.000675898 44.9107 -1.58096e-16 8.23719e-18
0.0005 0.000561059 0.000675898 44.181 -7.8369e-17 -3.52588e-17
0.0005 0.000602005 0.000675898 43.415 5.43664e-18 -5.25281e-17
0.0005 0.000639229 0.000675898 42.6121 -3.54872e-17 -7.6138e-17
0.0005 0.000673069 0.000675898 41.7736 -1.42341e-16 -1.00292e-16
0.0005 0.000703833 0.000675898 40.9043 -2.36455e-16 -1.32241e-16
0.0005 0.000731799 0.000675898 40.0084 -2.83575e-16 -1.61397e-16
0.0005 0.000757224 0.000675898 39.0881 -2.766e-16 -1.96827e-16
0.0005 0.000780337 0.000675898 38.1438 -2.6403e-16 -2.28153e-16
0.0005 0.000801349 0.000675898 37.1743 -2.86675e-16 -2.4878e-16
0.0005 0.000820451 0.000675898 36.1777 -3.24406e-16 -2.59105e-16
0.0005 0.000837816 0.000675898 35.1512 -3.48852e-16 -2.61851e-16
0.0005 0.000853602 0.000675898 34.0914 -3.6477e-16 -2.58873e-16
0.0005 0.000867954 0.000675898 32.9946 -3.83215e-16 -2.52214e-16
0.0005 0.000881001 0.000675898 31.8565 -3.78013e-16 -2.41947e-16
0.0005 0.000892861 0.000675898 30.6727 -3.54125e-16 -2.29274e-16
0.0005 0.000903644 0.000675898 29.4388 -3.33525e-16 -2.14252e-16
0.0005 0.000913446 0.000675898 28.1506 -3.23027e-16 -1.99465e-16
0.0005 0.000922357 0.000675898 26.8045 -3.19441e-16 -1.84121e-16
0.0005 0.000930458 0.000675898 25.3983 -3.17205e-16 -1.6799e-16
0.0005 0.000937823 0.000675898 23.932 -3.10372e-16 -1.5219e-16
0.0005 0.000944518 0.000675898 22.4084 -2.9756e-16 -1.37937e-16
0.0005 0.000950604 0.000675898 20.833 -2.84604e-16 -1.25219e-16
0.0005 0.000956137 0.000675898 19.2066 -2.73284e-16 -1.13072e-16
0.0005 0.000961167 0.000675898 17.535 -2.60699e-16 -1.01505e-16
0.0005 0.00096574 0.000675898 15.842 -2.4671e-16 -9.08583e-17
0.0005 0.000969897 0.000675898 14.1607 -2.32977e-16 -8.14215e-17
0.0005 0.000973676 0.000675898 12.5277 -2.19162e-16 -7.31909e-17
0.0005 0.000977112 0.000675898 10.9743 -2.05484e-16 -6.58935e-17
0.0005 0.000980235 0.000675898 9.52128 -1.91849e-16 -5.92127e-17
0.0005 0.000983075 0.000675898 8.17793 -1.77582e-16 -5.28117e-17
0.0005 0.000985656 0.000675898 6.94482 -1.62006e-16 -4.64701e-17
0.0005 0.000988002 0.000675898 5.81741 -1.44817e-16 -4.00581e-17
0.0005 0.000990136 0.000675898 4.78876 -1.26857e-16 -3.35775e-17
0.0005 0.000992075 0.000675898 3.85122 -1.08914e-16 -2.70754e-17
0.0005 0.000993838 0.000675898 2.99716 -8.97287e-17 -2.06682e-17
0.0005 0.000995441 0.000675898 2.2194 -6.97786e-17 -1.45532e-17
0.0005 0.000996898 0.000675898 1.51124 -4.90003e-17 -8.96457e-18
0.0005 0.000998222 0.000675898 0.866566 -2.76182e-17 -4.23751e-18
0.0005 0.000999427 0.000675898 0.279755 -9.58211e-18 -8.60375e-19
0.0005 4.59758e-05 0.000761026 48.25 -8.08123e-17 -3.9206e-16
0.0005 0.000133748 0.000761026 48.0732 -5.80336e-17 -1.73478e-16
0.0005 0.000213541 0.000761026 47.7588 -2.77111e-17 -1.10798e-16
0.0005 0.000286079 0.000761026 47.335 -7.81722e-17 -1.3401e-16
0.0005 0.000352024 0.000761026 46.8232 4.10931e-17 -1.81601e-16
0.0005 0.000411973 0.000761026 46.24 8.62933e-17 -2.01943e-16
0.0005 0.000466473 0.000761026 45.5987 -9.35056e-17 -1.98914e-16
0.0005 0.000516018 0.000761026 44.9094 -1.95715e-16 -1.82444e-16
0.0005 0.000561059 0.000761026 44.1798 -1.47212e-16 -1.49051e-16
0.0005 0.000602005 0.000761026 43.4138 -1.20592e-16 -1.43591e-16
0.0005 0.000639229 0.000761026 42.6109 -1.73778e-16 -1.61644e-16
0.0005 0.000673069 0.000761026 41.7724 -2.43983e-16 -2.00192e-16
0.0005 0.000703833 0.000761026 40.9031 -2.84564e-16 -2.33606e-16
0.0005 0.000731799 0.000761026 40.0073 -3.24305e-16 -2.6024e-16
0.0005 0.000757224 0.000761026 39.087 -3.6001e-16 -2.8825e-16
0.0005 0.000780337 0.000761026 38.1427 -3.75735e-16 -3.22997e-16
0.0005 0.000801349 0.000761026 37.1732 -3.80998e-16 -3.53822e-16
0.0005 0.000820451 0.000761026 36.1766 -3.72144e-16 -3.76176e-16
0.0005 0.000837816 0.000761026 35.1501 -3.4415e-16 -3.90791e-16
0.0005 0.000853602 0.000761026 34.0904 -2.94122e-16 -4.01848e-16
0.0005 0.000867954 0.000761026 32.9935 -2.2535e-16 -4.05425e-16
0.0005 0.000881001 0.000761026 31.8555 -1.54234e-16 -4.03992e-16
0.0005 0.000892861 0.000761026 30.6717 -1.10249e-16 -4.01691e-16
0.0005 0.000903644 0.000761026 29.4379 -1.02739e-16 -3.96751e-16
0.0005 0.000913446 0.000761026 28.1496 -1.13136e-16 -3.88353e-16
0.0005 0.000922357 0.000761026 26.8035 -1.20808e-16 -3.76651e-16
0.0005 0.000930458 0.000761026 25.3973 -1.35772e-16 -3.61794e-16
0.0005 0.000937823 0.000761026 23.9311 -1.67241e-16 -3.42731e-16
0.0005 0.000944518 0.000761026 22.4075 -1.97297e-16 -3.21797e-16
0.0005 0.000950604 0.000761026 20.8322 -2.10559e-16 -3.00724e-16
0.0005 0.000956137 0.000761026 19.2058 -2.11738e-16 -2.79176e-16
0.0005 0.000961167 0.000761026 17.5342 -2.0424e-16 -2.56614e-16
0.0005 0.00096574 0.000761026 15.8413 -1.91501e-16 -2.3342e-16
0.0005 0.000969897 0.000761026 14.1601 -1.80027e-16 -2.10384e-16
0.0005 0.000973676 0.000761026 12.5271 -1.69729e-16 -1.88132e-16
0.0005 0.000977112 0.000761026 10.9738 -1.60157e-16 -1.66913e-16
0.0005 0.000980235 0.000761026 9.52082 -1.50676e-16 -1.46714e-16
0.0005 0.000983075 0.000761026 8.17754 -1.41047e-16 -1.27503e-16
0.0005 0.000985656 0.000761026 6.94449 -1.30371e-16 -1.09261e-16
0.0005 0.000988002 0.000761026 5.81712 -1.19596e-16 -9.19797e-17
0.0005 0.000990136 0.000761026 4.78853 -1.08442e-16 -7.56803e-17
0.0005 0.000992075 0.000761026 3.85103 -9.52916e-17 -6.03576e-17
0.0005 0.000993838 0.000761026 2.99702 -8.02868e-17 -4.60768e-17
0.0005 0.000995441 0.000761026 2.21929 -6.24729e-17 -3.29455e-17
0.0005 0.000996898 0.000761026 1.51117 -4.2922e-17 -2.12174e-17
0.0005 0.000998222 0.000761026 0.866524 -2.36544e-17 -1.12356e-17
0.0005 0.000999427 0.000761026 0.279741 -8.10841e-18 -3.23713e-18
0.0005 4.59758e-05 0.000845023 48.2485 -5.19178e-17 -4.65653e-16
0.0005 0.000133748 0.000845023 48.0717 -6.6043e-17 -1.81857e-16
0.0005 0.000213541 0.000845023 47.7573 -1.10535e-16 -1.92155e-16
0.0005 0.000286079 0.000845023 47.3335 -1.89672e-16 -2.17322e-16
0.0005 0.000352024 0.000845023 46.8216 -6.021e-17 -2.69773e-16
0.0005 0.000411973 0.000845023 46.2386 8.13439e-17 -3.34011e-16
0.0005 0.000466473 0.000845023 45.5973 4.69105e-17 -3.39277e-16
0.0005 0.000516018 0.000845023 44.908 1.79227e-17 -2.87047e-16
0.0005 0.000561059 0.000845023 44.1784 5.17789e-17 -2.59198e-16
0.0005 0.000602005 0.000845023 43.4124 1.60583e-17 -2.54645e-16
0.0005 0.000639229 0.000845023 42.6095 -1.33696e-16 -2.59476e-16
0.0005 0.000673069 0.000845023 41.771 -2.7103e-16 -2.68163e-16
0.0005 0.000703833 0.000845023 40.9018 -3.28694e-16 -2.7888e-16
0.0005 0.000731799 0.000845023 40.0059 -3.58671e-16 -2.92788e-16
0.0005 0.000757224 0.000845023 39.0857 -3.76569e-16 -3.03607e-16
0.0005 0.000780337 0.000845023 38.1414 -3.69482e-16 -3.12197e-16
0.0005 0.000801349 0.000845023 37.172 -3.38691e-16 -3.17529e-16
0.0005 0.000820451 0.000845023 36.1754 -3.12775e-16 -3.16541e-16
0.0005 0.000837816 0.000845023 35.1489 -3.03131e-16 -3.12872e-16
0.0005 0.000853602 0.000845023 34.0892 -2.82666e-16 -3.08218e-16
0.0005 0.000867954 0.000845023 32.9923 -2.59889e-16 -3.04769e-16
0.0005 0.000881001 0.000845023 31.8543 -2.52619e-16 -3.04444e-16
0.0005 0.000892861 0.000845023 30.6706 -2.38317e-16 -3.07678e-16
0.0005 0.000903644 0.000845023 29.4367 -2.04521e-16 -3.10088e-16
0.0005 0.000913446 0.000845023 28.1485 -1.7302e-16 -3.08911e-16
0.0005 0.000922357 0.000845023 26.8024 -1.47497e-16 -3.04876e-16
0.0005 0.000930458 0.000845023 25.3963 -1.08984e-16 -2.99384e-16
0.0005 0.000937823 0.000845023 23.93 -8.1024e-17 -2.9085e-16
0.0005 0.000944518 0.000845023 22.4065 -9.08038e-17 -2.78906e-16
0.0005 0.000950604 0.000845023 20.8312 -1.10125e-16 -2.64396e-16
0.0005 0.000956137 0.000845023 19.2048 -1.09591e-16 -2.48461e-16
0.0005 0.000961167 0.000845023 17.5333 -9.45522e-17 -2.31419e-16
0.0005 0.00096574 0.000845023 15.8404 -8.1509e-17 -2.13836e-16
0.0005 0.000969897 0.000845023 14.1593 -7.87142e-17 -1.95983e-16
0.0005 0.000973676 0.000845023 12.5264 -7.96575e-17 -1.78106e-16
0.0005 0.000977112 0.000845023 10.9732 -7.92e-17 -1.60393e-16
0.0005 0.000980235 0.000845023 9.52029 -7.64493e-17 -1.42912e-16
0.0005 0.000983075 0.000845023 8.17708 -7.41342e-17 -1.25736e-16
0.0005 0.000985656 0.000845023 6.9441 -7.28621e-17 -1.0888e-16
0.0005 0.000988002 0.000845023 5.8168 -7.24928e-17 -9.24212e-17
0.0005 0.000990136 0.000845023 4.78827 -7.09828e-17 -7.65093e-17
0.0005 0.000992075 0.000845023 3.85082 -6.73672e-17 -6.13016e-17