# V  FACE_DATA 15463
#  x  y  z  V
0.0005 4.59758e-05 4.70511e-05 8.65285e-12
0.0005 0.000133748 4.70511e-05 7.86623e-12
0.0005 0.000213541 4.70511e-05 7.15112e-12
0.0005 0.000286079 4.70511e-05 6.50102e-12
0.0005 0.000352024 4.70511e-05 5.91002e-12
0.0005 0.000411973 4.70511e-05 5.37274e-12
0.0005 0.000466473 4.70511e-05 4.88431e-12
0.0005 0.000516018 4.70511e-05 4.44028e-12
0.0005 0.000561059 4.70511e-05 4.03662e-12
0.0005 0.000602005 4.70511e-05 3.66965e-12
0.0005 0.000639229 4.70511e-05 3.33605e-12
0.0005 0.000673069 4.70511e-05 3.03277e-12
0.0005 0.000703833 4.70511e-05 2.75707e-12
0.0005 0.000731799 4.70511e-05 2.50642e-12
0.0005 0.000757224 4.70511e-05 2.27857e-12
0.0005 0.000780337 4.70511e-05 2.07142e-12
0.0005 0.000801349 4.70511e-05 1.88311e-12
0.0005 0.000820451 4.70511e-05 1.71192e-12
0.0005 0.000837816 4.70511e-05 1.55629e-12
0.0005 0.000853602 4.70511e-05 1.41481e-12
0.0005 0.000867954 4.70511e-05 1.28619e-12
0.0005 0.000881001 4.70511e-05 1.16926e-12
0.0005 0.000892861 4.70511e-05 1.06297e-12
0.0005 0.000903644 4.70511e-05 9.66335e-13
0.0005 0.000913446 4.70511e-05 8.78486e-13
0.0005 0.000922357 4.70511e-05 7.98624e-13
0.0005 0.000930458 4.70511e-05 7.26022e-13
0.0005 0.000937823 4.70511e-05 6.6002e-13
0.0005 0.000944518 4.70511e-05 6.00018e-13
0.0005 0.000950604 4.70511e-05 5.45471e-13
0.0005 0.000956137 4.70511e-05 4.95882e-13
0.0005 0.000961167 4.70511e-05 4.50802e-13
0.0005 0.00096574 4.70511e-05 4.0982e-13
0.0005 0.000969897 4.70511e-05 3.72564e-13
0.0005 0.000973676 4.70511e-05 3.38694e-13
0.0005 0.000977112 4.70511e-05 3.07904e-13
0.0005 0.000980235 4.70511e-05 2.79913e-13
0.0005 0.000983075 4.70511e-05 2.54466e-13
0.0005 0.000985656 4.70511e-05 2.31333e-13
0.0005 0.000988002 4.70511e-05 2.10303e-13
0.0005 0.000990136 4.70511e-05 1.91184e-13
0.0005 0.000992075 4.70511e-05 1.73804e-13
0.0005 0.000993838 4.70511e-05 1.58003e-13
0.0005 0.000995441 4.70511e-05 1.43639e-13
0.0005 0.000996898 4.70511e-05 1.30581e-13
0.0005 0.000998222 4.70511e-05 1.1871e-13
0.0005 0.000999427 4.70511e-05 1.07918e-13
0.0005 4.59758e-05 0.000140529 8.53796e-12
0.0005 0.000133748 0.000140529 7.76178e-12
0.0005 0.000213541 0.000140529 7.05617e-12
0.0005 0.000286079 0.000140529 6.4147e-12
0.0005 0.000352024 0.000140529 5.83154e-12
0.0005 0.000411973 0.000140529 5.3014e-12
0.0005 0.000466473 0.000140529 4.81946e-12
0.0005 0.000516018 0.000140529 4.38132e-12
0.0005 0.000561059 0.000140529 3.98302e-12
0.0005 0.000602005 0.000140529 3.62093e-12
0.0005 0.000639229 0.000140529 3.29175e-12
0.0005 0.000673069 0.000140529 2.9925e-12
0.0005 0.000703833 0.000140529 2.72046e-12
0.0005 0.000731799 0.000140529 2.47314e-12
0.0005 0.000757224 0.000140529 2.24831e-12
0.0005 0.000780337 0.000140529 2.04392e-12
0.0005 0.000801349 0.000140529 1.85811e-12
0.0005 0.000820451 0.000140529 1.68919e-12
0.0005 0.000837816 0.000140529 1.53563e-12
0.0005 0.000853602 0.000140529 1.39603e-12
0.0005 0.000867954 0.000140529 1.26911e-12
0.0005 0.000881001 0.000140529 1.15374e-12
0.0005 0.000892861 0.000140529 1.04885e-12
0.0005 0.000903644 0.000140529 9.53504e-13
0.0005 0.000913446 0.000140529 8.66822e-13
0.0005 0.000922357 0.000140529 7.8802e-13
0.0005 0.000930458 0.000140529 7.16382e-13
0.0005 0.000937823 0.000140529 6.51256e-13
0.0005 0.000944518 0.000140529 5.92051e-13
0.0005 0.000950604 0.000140529 5.38228e-13
0.0005 0.000956137 0.000140529 4.89298e-13
0.0005 0.000961167 0.000140529 4.44817e-13
0.0005 0.00096574 0.000140529 4.04379e-13
0.0005 0.000969897 0.000140529 3.67617e-13
0.0005 0.000973676 0.000140529 3.34197e-13
0.0005 0.000977112 0.000140529 3.03816e-13
0.0005 0.000980235 0.000140529 2.76196e-13
0.0005 0.000983075 0.000140529 2.51087e-13
0.0005 0.000985656 0.000140529 2.28261e-13
0.0005 0.000988002 0.000140529 2.0751e-13
0.0005 0.000990136 0.000140529 1.88646e-13
0.0005 0.000992075 0.000140529 1.71496e-13
0.0005 0.000993838 0.000140529 1.55906e-13
0.0005 0.000995441 0.000140529 1.41732e-13
0.0005 0.000996898 0.000140529 1.28848e-13
0.0005 0.000998222 0.000140529 1.17134e-13
0.0005 0.000999427 0.000140529 1.06486e-13
0.0005 4.59758e-05 0.000232765 8.4246e-12
0.0005 0.000133748 0.000232765 7.65873e-12
0.0005 0.000213541 0.000232765 6.96248e-12
0.0005 0.000286079 0.000232765 6.32953e-12
0.0005 0.000352024 0.000232765 5.75411e-12
0.0005 0.000411973 0.000232765 5.23101e-12
0.0005 0.000466473 0.000232765 4.75547e-12
0.0005 0.000516018 0.000232765 4.32315e-12
0.0005 0.000561059 0.000232765 3.93014e-12
0.0005 0.000602005 0.000232765 3.57285e-12
0.0005 0.000639229 0.000232765 3.24805e-12
0.0005 0.000673069 0.000232765 2.95277e-12
0.0005 0.000703833 0.000232765 2.68434e-12
0.0005 0.000731799 0.000232765 2.44031e-12
0.0005 0.000757224 0.000232765 2.21846e-12
0.0005 0.000780337 0.000232765 2.01678e-12
0.0005 0.000801349 0.000232765 1.83344e-12
0.0005 0.000820451 0.000232765 1.66676e-12
0.0005 0.000837816 0.000232765 1.51524e-12
0.0005 0.000853602 0.000232765 1.37749e-12
0.0005 0.000867954 0.000232765 1.25226e-12
0.0005 0.000881001 0.000232765 1.13842e-12
0.0005 0.000892861 0.000232765 1.03493e-12
0.0005 0.000903644 0.000232765 9.40844e-13
0.0005 0.000913446 0.000232765 8.55312e-13
0.0005 0.000922357 0.000232765 7.77557e-13
0.0005 0.000930458 0.000232765 7.0687e-13
0.0005 0.000937823 0.000232765 6.42609e-13
0.0005 0.000944518 0.000232765 5.8419e-13
0.0005 0.000950604 0.000232765 5.31082e-13
0.0005 0.000956137 0.000232765 4.82802e-13
0.0005 0.000961167 0.000232765 4.3891e-13
0.0005 0.00096574 0.000232765 3.9901e-13
0.0005 0.000969897 0.000232765 3.62736e-13
0.0005 0.000973676 0.000232765 3.2976e-13
0.0005 0.000977112 0.000232765 2.99782e-13
0.0005 0.000980235 0.000232765 2.72529e-13
0.0005 0.000983075 0.000232765 2.47754e-13
0.0005 0.000985656 0.000232765 2.2523e-13
0.0005 0.000988002 0.000232765 2.04755e-13
0.0005 0.000990136 0.000232765 1.86141e-13
0.0005 0.000992075 0.000232765 1.69219e-13
0.0005 0.000993838 0.000232765 1.53835e-13
0.0005 0.000995441 0.000232765 1.3985e-13
0.0005 0.000996898 0.000232765 1.27137e-13
0.0005 0.000998222 0.000232765 1.15579e-13
0.0005 0.000999427 0.000232765 1.05072e-13
0.0005 4.59758e-05 0.000323776 8.31274e-12
0.0005 0.000133748 0.000323776 7.55704e-12
0.0005 0.000213541 0.000323776 6.87003e-12
0.0005 0.000286079 0.000323776 6.24548e-12
0.0005 0.000352024 0.000323776 5.67771e-12
0.0005 0.000411973 0.000323776 5.16156e-12
0.0005 0.000466473 0.000323776 4.69232e-12
0.0005 0.000516018 0.000323776 4.26575e-12
0.0005 0.000561059 0.000323776 3.87795e-12
0.0005 0.000602005 0.000323776 3.52541e-12
0.0005 0.000639229 0.000323776 3.20492e-12
0.0005 0.000673069 0.000323776 2.91356e-12
0.0005 0.000703833 0.000323776 2.64869e-12
0.0005 0.000731799 0.000323776 2.4079e-12
0.0005 0.000757224 0.000323776 2.189e-12
0.0005 0.000780337 0.000323776 1.99e-12
0.0005 0.000801349 0.000323776 1.80909e-12
0.0005 0.000820451 0.000323776 1.64463e-12
0.0005 0.000837816 0.000323776 1.49512e-12
0.0005 0.000853602 0.000323776 1.3592e-12
0.0005 0.000867954 0.000323776 1.23564e-12
0.0005 0.000881001 0.000323776 1.12331e-12
0.0005 0.000892861 0.000323776 1.02119e-12
0.0005 0.000903644 0.000323776 9.28351e-13
0.0005 0.000913446 0.000323776 8.43956e-13
0.0005 0.000922357 0.000323776 7.67233e-13
0.0005 0.000930458 0.000323776 6.97484e-13
0.0005 0.000937823 0.000323776 6.34076e-13
0.0005 0.000944518 0.000323776 5.76433e-13
0.0005 0.000950604 0.000323776 5.2403e-13
0.0005 0.000956137 0.000323776 4.76391e-13
0.0005 0.000961167 0.000323776 4.33083e-13
0.0005 0.00096574 0.000323776 3.93712e-13
0.0005 0.000969897 0.000323776 3.5792e-13
0.0005 0.000973676 0.000323776 3.25381e-13
0.0005 0.000977112 0.000323776 2.95801e-13
0.0005 0.000980235 0.000323776 2.6891e-13
0.0005 0.000983075 0.000323776 2.44464e-13
0.0005 0.000985656 0.000323776 2.2224e-13
0.0005 0.000988002 0.000323776 2.02036e-13
0.0005 0.000990136 0.000323776 1.83669e-13
0.0005 0.000992075 0.000323776 1.66972e-13
0.0005 0.000993838 0.000323776 1.51793e-13
0.0005 0.000995441 0.000323776 1.37994e-13
0.0005 0.000996898 0.000323776 1.25449e-13
0.0005 0.000998222 0.000323776 1.14044e-13
0.0005 0.000999427 0.000323776 1.03677e-13
0.0005 4.59758e-05 0.00041358 8.20236e-12
0.0005 0.000133748 0.00041358 7.45669e-12
0.0005 0.000213541 0.00041358 6.77881e-12
0.0005 0.000286079 0.00041358 6.16256e-12
0.0005 0.000352024 0.00041358 5.60233e-12
0.0005 0.000411973 0.00041358 5.09302e-12
0.0005 0.000466473 0.00041358 4.63002e-12
0.0005 0.000516018 0.00041358 4.20911e-12
0.0005 0.000561059 0.00041358 3.82646e-12
0.0005 0.000602005 0.00041358 3.4786e-12
0.0005 0.000639229 0.00041358 3.16237e-12
0.0005 0.000673069 0.00041358 2.87488e-12
0.0005 0.000703833 0.00041358 2.61353e-12
0.0005 0.000731799 0.00041358 2.37593e-12
0.0005 0.000757224 0.00041358 2.15994e-12
0.0005 0.000780337 0.00041358 1.96358e-12
0.0005 0.000801349 0.00041358 1.78507e-12
0.0005 0.000820451 0.00041358 1.62279e-12
0.0005 0.000837816 0.00041358 1.47527e-12
0.0005 0.000853602 0.00041358 1.34115e-12
0.0005 0.000867954 0.00041358 1.21923e-12
0.0005 0.000881001 0.00041358 1.10839e-12
0.0005 0.000892861 0.00041358 1.00763e-12
0.0005 0.000903644 0.00041358 9.16025e-13
0.0005 0.000913446 0.00041358 8.3275e-13
0.0005 0.000922357 0.00041358 7.57045e-13
0.0005 0.000930458 0.00041358 6.88223e-13
0.0005 0.000937823 0.00041358 6.25657e-13
0.0005 0.000944518 0.00041358 5.68779e-13
0.0005 0.000950604 0.00041358 5.17072e-13
0.0005 0.000956137 0.00041358 4.70066e-13
0.0005 0.000961167 0.00041358 4.27332e-13
0.0005 0.00096574 0.00041358 3.88484e-13
0.0005 0.000969897 0.00041358 3.53167e-13
0.0005 0.000973676 0.00041358 3.21061e-13
0.0005 0.000977112 0.00041358 2.91874e-13
0.0005 0.000980235 0.00041358 2.6534e-13
0.0005 0.000983075 0.00041358 2.41218e-13
0.0005 0.000985656 0.00041358 2.19289e-13
0.0005 0.000988002 0.00041358 1.99354e-13
0.0005 0.000990136 0.00041358 1.81231e-13
0.0005 0.000992075 0.00041358 1.64755e-13
0.0005 0.000993838 0.00041358 1.49777e-13
0.0005 0.000995441 0.00041358 1.36161e-13
0.0005 0.000996898 0.00041358 1.23783e-13
0.0005 0.000998222 0.00041358 1.1253e-13
0.0005 0.000999427 0.00041358 1.023e-13
0.0005 4.59758e-05 0.00050219 8.09346e-12
0.0005 0.000133748 0.00050219 7.35769e-12
0.0005 0.000213541 0.00050219 6.68881e-12
0.0005 0.000286079 0.00050219 6.08073e-12
0.0005 0.000352024 0.00050219 5.52794e-12
0.0005 0.000411973 0.00050219 5.0254e-12
0.0005 0.000466473 0.00050219 4.56854e-12
0.0005 0.000516018 0.00050219 4.15322e-12
0.0005 0.000561059 0.00050219 3.77566e-12
0.0005 0.000602005 0.00050219 3.43242e-12
0.0005 0.000639229 0.00050219 3.12038e-12
0.0005 0.000673069 0.00050219 2.83671e-12
0.0005 0.000703833 0.00050219 2.57882e-12
0.0005 0.000731799 0.00050219 2.34439e-12
0.0005 0.000757224 0.00050219 2.13126e-12
0.0005 0.000780337 0.00050219 1.93751e-12
0.0005 0.000801349 0.00050219 1.76137e-12
0.0005 0.000820451 0.00050219 1.60125e-12
0.0005 0.000837816 0.00050219 1.45568e-12
0.0005 0.000853602 0.00050219 1.32334e-12
0.0005 0.000867954 0.00050219 1.20304e-12
0.0005 0.000881001 0.00050219 1.09367e-12
0.0005 0.000892861 0.00050219 9.94248e-13
0.0005 0.000903644 0.00050219 9.03862e-13
0.0005 0.000913446 0.00050219 8.21693e-13
0.0005 0.000922357 0.00050219 7.46994e-13
0.0005 0.000930458 0.00050219 6.79085e-13
0.0005 0.000937823 0.00050219 6.1735e-13
0.0005 0.000944518 0.00050219 5.61227e-13
0.0005 0.000950604 0.00050219 5.10207e-13
0.0005 0.000956137 0.00050219 4.63824e-13
0.0005 0.000961167 0.00050219 4.21658e-13
0.0005 0.00096574 0.00050219 3.83326e-13
0.0005 0.000969897 0.00050219 3.48478e-13
0.0005 0.000973676 0.00050219 3.16798e-13
0.0005 0.000977112 0.00050219 2.87998e-13
0.0005 0.000980235 0.00050219 2.61817e-13
0.0005 0.000983075 0.00050219 2.38015e-13
0.0005 0.000985656 0.00050219 2.16377e-13
0.0005 0.000988002 0.00050219 1.96707e-13
0.0005 0.000990136 0.00050219 1.78824e-13
0.0005 0.000992075 0.00050219 1.62568e-13
0.0005 0.000993838 0.00050219 1.47789e-13
0.0005 0.000995441 0.00050219 1.34353e-13
0.0005 0.000996898 0.00050219 1.22139e-13
0.0005 0.000998222 0.00050219 1.11036e-13
0.0005 0.000999427 0.00050219 1.00942e-13
0.0005 4.59758e-05 0.000589625 7.98599e-12
0.0005 0.000133748 0.000589625 7.25999e-12
0.0005 0.000213541 0.000589625 6.59999e-12
0.0005 0.000286079 0.000589625 5.99999e-12
0.0005 0.000352024 0.000589625 5.45454e-12
0.0005 0.000411973 0.000589625 4.95867e-12
0.0005 0.000466473 0.000589625 4.50788e-12
0.0005 0.000516018 0.000589625 4.09808e-12
0.0005 0.000561059 0.000589625 3.72552e-12
0.0005 0.000602005 0.000589625 3.38684e-12
0.0005 0.000639229 0.000589625 3.07895e-12
0.0005 0.000673069 0.000589625 2.79904e-12
0.0005 0.000703833 0.000589625 2.54458e-12
0.0005 0.000731799 0.000589625 2.31326e-12
0.0005 0.000757224 0.000589625 2.10296e-12
0.0005 0.000780337 0.000589625 1.91178e-12
0.0005 0.000801349 0.000589625 1.73798e-12
0.0005 0.000820451 0.000589625 1.57999e-12
0.0005 0.000837816 0.000589625 1.43635e-12
0.0005 0.000853602 0.000589625 1.30577e-12
0.0005 0.000867954 0.000589625 1.18707e-12
0.0005 0.000881001 0.000589625 1.07915e-12
0.0005 0.000892861 0.000589625 9.81047e-13
0.0005 0.000903644 0.000589625 8.91861e-13
0.0005 0.000913446 0.000589625 8.10783e-13
0.0005 0.000922357 0.000589625 7.37075e-13
0.0005 0.000930458 0.000589625 6.70068e-13
0.0005 0.000937823 0.000589625 6.09153e-13
0.0005 0.000944518 0.000589625 5.53775e-13
0.0005 0.000950604 0.000589625 5.03432e-13
0.0005 0.000956137 0.000589625 4.57666e-13
0.0005 0.000961167 0.000589625 4.1606e-13
0.0005 0.00096574 0.000589625 3.78236e-13
0.0005 0.000969897 0.000589625 3.43851e-13
0.0005 0.000973676 0.000589625 3.12592e-13
0.0005 0.000977112 0.000589625 2.84174e-13
0.0005 0.000980235 0.000589625 2.5834e-13
0.0005 0.000983075 0.000589625 2.34855e-13
0.0005 0.000985656 0.000589625 2.13504e-13
0.0005 0.000988002 0.000589625 1.94095e-13
0.0005 0.000990136 0.000589625 1.7645e-13
0.0005 0.000992075 0.000589625 1.60409e-13
0.0005 0.000993838 0.000589625 1.45826e-13
0.0005 0.000995441 0.000589625 1.32569e-13
0.0005 0.000996898 0.000589625 1.20518e-13
0.0005 0.000998222 0.000589625 1.09562e-13
0.0005 0.000999427 0.000589625 9.96014e-14
0.0005 4.59758e-05 0.000675898 7.87996e-12
0.0005 0.000133748 0.000675898 7.1636e-12
0.0005 0.000213541 0.000675898 6.51236e-12
0.0005 0.000286079 0.000675898 5.92033e-12
0.0005 0.000352024 0.000675898 5.38212e-12
0.0005 0.000411973 0.000675898 4.89283e-12
0.0005 0.000466473 0.000675898 4.44803e-12
0.0005 0.000516018 0.000675898 4.04366e-12
0.0005 0.000561059 0.000675898 3.67606e-12
0.0005 0.000602005 0.000675898 3.34187e-12
0.0005 0.000639229 0.000675898 3.03806e-12
0.0005 0.000673069 0.000675898 2.76188e-12
0.0005 0.000703833 0.000675898 2.5108e-12
0.0005 0.000731799 0.000675898 2.28254e-12
0.0005 0.000757224 0.000675898 2.07504e-12
0.0005 0.000780337 0.000675898 1.8864e-12
0.0005 0.000801349 0.000675898 1.71491e-12
0.0005 0.000820451 0.000675898 1.55901e-12
0.0005 0.000837816 0.000675898 1.41728e-12
0.0005 0.000853602 0.000675898 1.28844e-12
0.0005 0.000867954 0.000675898 1.17131e-12
0.0005 0.000881001 0.000675898 1.06482e-12
0.0005 0.000892861 0.000675898 9.68021e-13
0.0005 0.000903644 0.000675898 8.80019e-13
0.0005 0.000913446 0.000675898 8.00017e-13
0.0005 0.000922357 0.000675898 7.27288e-13
0.0005 0.000930458 0.000675898 6.61171e-13
0.0005 0.000937823 0.000675898 6.01065e-13
0.0005 0.000944518 0.000675898 5.46423e-13
0.0005 0.000950604 0.000675898 4.96748e-13
0.0005 0.000956137 0.000675898 4.51589e-13
0.0005 0.000961167 0.000675898 4.10535e-13
0.0005 0.00096574 0.000675898 3.73214e-13
0.0005 0.000969897 0.000675898 3.39285e-13
0.0005 0.000973676 0.000675898 3.08441e-13
0.0005 0.000977112 0.000675898 2.80401e-13
0.0005 0.000980235 0.000675898 2.5491e-13
0.0005 0.000983075 0.000675898 2.31737e-13
0.0005 0.000985656 0.000675898 2.1067e-13
0.0005 0.000988002 0.000675898 1.91518e-13
0.0005 0.000990136 0.000675898 1.74107e-13
0.0005 0.000992075 0.000675898 1.58279e-13
0.0005 0.000993838 0.000675898 1.4389e-13
0.0005 0.000995441 0.000675898 1.30809e-13
0.0005 0.000996898 0.000675898 1.18917e-13
0.0005 0.000998222 0.000675898 1.08107e-13
0.0005 0.000999427 0.000675898 9.82789e-14
0.0005 4.59758e-05 0.000761026 7.77533e-12
0.0005 0.000133748 0.000761026 7.06848e-12
0.0005 0.000213541 0.000761026 6.42589e-12
0.0005 0.000286079 0.000761026 5.84172e-12
0.0005 0.000352024 0.000761026 5.31065e-12
0.0005 0.000411973 0.000761026 4.82787e-12
0.0005 0.000466473 0.000761026 4.38897e-12
0.0005 0.000516018 0.000761026 3.98997e-12
0.0005 0.000561059 0.000761026 3.62725e-12
0.0005 0.000602005 0.000761026 3.2975e-12
0.0005 0.000639229 0.000761026 2.99773e-12
0.0005 0.000673069 0.000761026 2.72521e-12
0.0005 0.000703833 0.000761026 2.47746e-12
0.0005 0.000731799 0.000761026 2.25224e-12
0.0005 0.000757224 0.000761026 2.04749e-12
0.0005 0.000780337 0.000761026 1.86135e-12
0.0005 0.000801349 0.000761026 1.69214e-12
0.0005 0.000820451 0.000761026 1.53831e-12
0.0005 0.000837816 0.000761026 1.39846e-12
0.0005 0.000853602 0.000761026 1.27133e-12
0.0005 0.000867954 0.000761026 1.15575e-12
0.0005 0.000881001 0.000761026 1.05068e-12
0.0005 0.000892861 0.000761026 9.55168e-13
0.0005 0.000903644 0.000761026 8.68334e-13
0.0005 0.000913446 0.000761026 7.89395e-13
0.0005 0.000922357 0.000761026 7.17632e-13
0.0005 0.000930458 0.000761026 6.52392e-13
0.0005 0.000937823 0.000761026 5.93084e-13
0.0005 0.000944518 0.000761026 5.39167e-13
0.0005 0.000950604 0.000761026 4.90152e-13
0.0005 0.000956137 0.000761026 4.45593e-13
0.0005 0.000961167 0.000761026 4.05084e-13
0.0005 0.00096574 0.000761026 3.68259e-13
0.0005 0.000969897 0.000761026 3.3478e-13
0.0005 0.000973676 0.000761026 3.04346e-13
0.0005 0.000977112 0.000761026 2.76678e-13
0.0005 0.000980235 0.000761026 2.51526e-13
0.0005 0.000983075 0.000761026 2.2866e-13
0.0005 0.000985656 0.000761026 2.07872e-13
0.0005 0.000988002 0.000761026 1.88975e-13
0.0005 0.000990136 0.000761026 1.71795e-13
0.0005 0.000992075 0.000761026 1.56178e-13
0.0005 0.000993838 0.000761026 1.4198e-13
0.0005 0.000995441 0.000761026 1.29072e-13
0.0005 0.000996898 0.000761026 1.17339e-13
0.0005 0.000998222 0.000761026 1.06671e-13
0.0005 0.000999427 0.000761026 9.6974e-14
0.0005 4.59758e-05 0.000845023 7.67209e-12
0.0005 0.000133748 0.000845023 6.97463e-12
0.0005 0.000213541 0.000845023 6.34057e-12
0.0005 0.000286079 0.000845023 5.76415e-12
0.0005 0.000352024 0.000845023 5.24014e-12
0.0005 0.000411973 0.000845023 4.76376e-12
0.0005 0.000466473 0.000845023 4.33069e-12
0.0005 0.000516018 0.000845023 3.937e-12
0.0005 0.000561059 0.000845023 3.57909e-12
0.0005 0.000602005 0.000845023 3.25372e-12
0.0005 0.000639229 0.000845023 2.95792e-12
0.0005 0.000673069 0.000845023 2.68902e-12
0.0005 0.000703833 0.000845023 2.44456e-12
0.0005 0.000731799 0.000845023 2.22233e-12
0.0005 0.000757224 0.000845023 2.0203e-12
0.0005 0.000780337 0.000845023 1.83664e-12
0.0005 0.000801349 0.000845023 1.66967e-12
0.0005 0.000820451 0.000845023 1.51788e-12
0.0005 0.000837816 0.000845023 1.37989e-12
0.0005 0.000853602 0.000845023 1.25445e-12
0.0005 0.000867954 0.000845023 1.14041e-12
0.0005 0.000881001 0.000845023 1.03673e-12
0.0005 0.000892861 0.000845023 9.42485e-13
0.0005 0.000903644 0.000845023 8.56805e-13
0.0005 0.000913446 0.000845023 7.78914e-13
0.0005 0.000922357 0.000845023 7.08103e-13
0.0005 0.000930458 0.000845023 6.4373e-13
0.0005 0.000937823 0.000845023 5.85209e-13
0.0005 0.000944518 0.000845023 5.32008e-13
0.0005 0.000950604 0.000845023 4.83644e-13
0.0005 0.000956137 0.000845023 4.39676e-13
0.0005 0.000961167 0.000845023 3.99706e-13
0.0005 0.00096574 0.000845023 3.63369e-13
0.0005 0.000969897 0.000845023 3.30335e-13
0.0005 0.000973676 0.000845023 3.00305e-13
0.0005 0.000977112 0.000845023 2.73004e-13
0.0005 0.000980235 0.000845023 2.48186e-13
0.0005 0.000983075 0.000845023 2.25624e-13
0.0005 0.000985656 0.000845023 2.05112e-13
0.0005 0.000988002 0.000845023 1.86466e-13
0.0005 0.000990136 0.000845023 1.69514e-13
0.0005 0.000992075 0.000845023 1.54104e-13
0.0005 0.000993838 0.000845023 1.40094e-13
0.0005 0.000995441 0.000845023 1.27359e-13
0.0005 0.000996898 0.000845023 1.15781e-13
0.0005 0.000998222 0.000845023 1.05255e-13
0.0005 0.000999427 0.000845023 9.56864e-14
0.0005 4.59758e-05 0.000927906 7.57022e-12
0.0005 0.000133748 0.000927906 6.88202e-12
0.0005 0.000213541 0.000927906 6.25638e-12
0.0005 0.000286079 0.000927906 5.68762e-12
0.0005 0.000352024 0.000927906 5.17056e-12
0.0005 0.000411973 0.000927906 4.70051e-12
0.0005 0.000466473 0.000927906 4.27319e-12
0.0005 0.000516018 0.000927906 3.88472e-12
0.0005 0.000561059 0.000927906 3.53156e-12
0.0005 0.000602005 0.000927906 3.21051e-12
0.0005 0.000639229 0.000927906 2.91865e-12
0.0005 0.000673069 0.000927906 2.65332e-12
0.0005 0.000703833 0.000927906 2.41211e-12
0.0005 0.000731799 0.000927906 2.19282e-12
0.0005 0.000757224 0.000927906 1.99348e-12
0.0005 0.000780337 0.000927906 1.81225e-12
0.0005 0.000801349 0.000927906 1.6475e-12
0.0005 0.000820451 0.000927906 1.49773e-12
0.0005 0.000837816 0.000927906 1.36157e-12
0.0005 0.000853602 0.000927906 1.23779e-12
0.0005 0.000867954 0.000927906 1.12527e-12
0.0005 0.000881001 0.000927906 1.02297e-12
0.0005 0.000892861 0.000927906 9.29971e-13
0.0005 0.000903644 0.000927906 8.45428e-13
0.0005 0.000913446 0.000927906 7.68571e-13
0.0005 0.000922357 0.000927906 6.98701e-13
0.0005 0.000930458 0.000927906 6.35183e-13
0.0005 0.000937823 0.000927906 5.77439e-13
0.0005 0.000944518 0.000927906 5.24945e-13
0.0005 0.000950604 0.000927906 4.77222e-13
0.0005 0.000956137 0.000927906 4.33838e-13
0.0005 0.000961167 0.000927906 3.94399e-13
0.0005 0.00096574 0.000927906 3.58544e-13
0.0005 0.000969897 0.000927906 3.25949e-13
0.0005 0.000973676 0.000927906 2.96318e-13
0.0005 0.000977112 0.000927906 2.6938e-13
0.0005 0.000980235 0.000927906 2.44891e-13
0.0005 0.000983075 0.000927906 2.22628e-13
0.0005 0.000985656 0.000927906 2.02389e-13
0.0005 0.000988002 0.000927906 1.8399e-13
0.0005 0.000990136 0.000927906 1.67264e-13
0.0005 0.000992075 0.000927906 1.52058e-13
0.0005 0.000993838 0.000927906 1.38234e-13
0.0005 0.000995441 0.000927906 1.25668e-13
0.0005 0.000996898 0.000927906 1.14243e-13
0.0005 0.000998222 0.000927906 1.03857e-13
0.0005 0.000999427 0.000927906 9.44159e-14
0.0005 4.59758e-05 0.00100969 7.46971e-12
0.0005 0.000133748 0.00100969 6.79064e-12
0.0005 0.000213541 0.00100969 6.17331e-12
0.0005 0.000286079 0.00100969 5.6121e-12
0.0005 0.000352024 0.00100969 5.10191e-12
0.0005 0.000411973 0.00100969 4.6381e-12
0.0005 0.000466473 0.00100969 4.21645e-12
0.0005 0.000516018 0.00100969 3.83314e-12
0.0005 0.000561059 0.00100969 3.48467e-12
0.0005 0.000602005 0.00100969 3.16788e-12
0.0005 0.000639229 0.00100969 2.8799e-12
0.0005 0.000673069 0.00100969 2.61809e-12
0.0005 0.000703833 0.00100969 2.38008e-12
0.0005 0.000731799 0.00100969 2.16371e-12
0.0005 0.000757224 0.00100969 1.96701e-12
0.0005 0.000780337 0.00100969 1.78819e-12
0.0005 0.000801349 0.00100969 1.62563e-12
0.0005 0.000820451 0.00100969 1.47784e-12
0.0005 0.000837816 0.00100969 1.34349e-12
0.0005 0.000853602 0.00100969 1.22136e-12
0.0005 0.000867954 0.00100969 1.11032e-12
0.0005 0.000881001 0.00100969 1.00939e-12
0.0005 0.000892861 0.00100969 9.17623e-13
0.0005 0.000903644 0.00100969 8.34203e-13
0.0005 0.000913446 0.00100969 7.58366e-13
0.0005 0.000922357 0.00100969 6.89424e-13
0.0005 0.000930458 0.00100969 6.26749e-13
0.0005 0.000937823 0.00100969 5.69772e-13
0.0005 0.000944518 0.00100969 5.17974e-13
0.0005 0.000950604 0.00100969 4.70886e-13
0.0005 0.000956137 0.00100969 4.28078e-13
0.0005 0.000961167 0.00100969 3.89162e-13
0.0005 0.00096574 0.00100969 3.53784e-13
0.0005 0.000969897 0.00100969 3.21621e-13
0.0005 0.000973676 0.00100969 2.92383e-13
0.0005 0.000977112 0.00100969 2.65803e-13
0.0005 0.000980235 0.00100969 2.41639e-13
0.0005 0.000983075 0.00100969 2.19672e-13
0.0005 0.000985656 0.00100969 1.99702e-13
0.0005 0.000988002 0.00100969 1.81547e-13
0.0005 0.000990136 0.00100969 1.65043e-13
0.0005 0.000992075 0.00100969 1.50039e-13
0.0005 0.000993838 0.00100969 1.36399e-13
0.0005 0.000995441 0.00100969 1.23999e-13
0.0005 0.000996898 0.00100969 1.12726e-13
0.0005 0.000998222 0.00100969 1.02478e-13
0.0005 0.000999427 0.00100969 9.31623e-14
0.0005 4.59758e-05 0.00109038 7.37053e-12
0.0005 0.000133748 0.00109038 6.70048e-12
0.0005 0.000213541 0.00109038 6.09134e-12
0.0005 0.000286079 0.00109038 5.53759e-12
0.0005 0.000352024 0.00109038 5.03417e-12
0.0005 0.000411973 0.00109038 4.57652e-12
0.0005 0.000466473 0.00109038 4.16047e-12
0.0005 0.000516018 0.00109038 3.78225e-12
0.0005 0.000561059 0.00109038 3.4384e-12
0.0005 0.000602005 0.00109038 3.12582e-12
0.0005 0.000639229 0.00109038 2.84166e-12
0.0005 0.000673069 0.00109038 2.58332e-12
0.0005 0.000703833 0.00109038 2.34848e-12
0.0005 0.000731799 0.00109038 2.13498e-12
0.0005 0.000757224 0.00109038 1.94089e-12
0.0005 0.000780337 0.00109038 1.76445e-12
0.0005 0.000801349 0.00109038 1.60404e-12
0.0005 0.000820451 0.00109038 1.45822e-12
0.0005 0.000837816 0.00109038 1.32565e-12
0.0005 0.000853602 0.00109038 1.20514e-12
0.0005 0.000867954 0.00109038 1.09558e-12
0.0005 0.000881001 0.00109038 9.95983e-13
0.0005 0.000892861 0.00109038 9.05439e-13
0.0005 0.000903644 0.00109038 8.23127e-13
0.0005 0.000913446 0.00109038 7.48297e-13
0.0005 0.000922357 0.00109038 6.8027e-13
0.0005 0.000930458 0.00109038 6.18427e-13
0.0005 0.000937823 0.00109038 5.62207e-13
0.0005 0.000944518 0.00109038 5.11097e-13
0.0005 0.000950604 0.00109038 4.64634e-13
0.0005 0.000956137 0.00109038 4.22394e-13
0.0005 0.000961167 0.00109038 3.83995e-13
0.0005 0.00096574 0.00109038 3.49086e-13
0.0005 0.000969897 0.00109038 3.17351e-13
0.0005 0.000973676 0.00109038 2.88501e-13
0.0005 0.000977112 0.00109038 2.62274e-13
0.0005 0.000980235 0.00109038 2.3843e-13
0.0005 0.000983075 0.00109038 2.16755e-13
0.0005 0.000985656 0.00109038 1.9705e-13
0.0005 0.000988002 0.00109038 1.79136e-13
0.0005 0.000990136 0.00109038 1.62851e-13
0.0005 0.000992075 0.00109038 1.48047e-13
0.0005 0.000993838 0.00109038 1.34588e-13
0.0005 0.000995441 0.00109038 1.22353e-13
0.0005 0.000996898 0.00109038 1.1123e-13
0.0005 0.000998222 0.00109038 1.01118e-13
0.0005 0.000999427 0.00109038 9.19253e-14
0.0005 4.59758e-05 0.00117001 7.27266e-12
0.0005 0.000133748 0.00117001 6.61151e-12
0.0005 0.000213541 0.00117001 6.01046e-12
0.0005 0.000286079 0.00117001 5.46406e-12
0.0005 0.000352024 0.00117001 4.96733e-12
0.0005 0.000411973 0.00117001 4.51575e-12
0.0005 0.000466473 0.00117001 4.10523e-12
0.0005 0.000516018 0.00117001 3.73203e-12
0.0005 0.000561059 0.00117001 3.39275e-12
0.0005 0.000602005 0.00117001 3.08432e-12
0.0005 0.000639229 0.00117001 2.80393e-12
0.0005 0.000673069 0.00117001 2.54902e-12
0.0005 0.000703833 0.00117001 2.31729e-12
0.0005 0.000731799 0.00117001 2.10663e-12
0.0005 0.000757224 0.00117001 1.91512e-12
0.0005 0.000780337 0.00117001 1.74102e-12
0.0005 0.000801349 0.00117001 1.58274e-12
0.0005 0.000820451 0.00117001 1.43886e-12
0.0005 0.000837816 0.00117001 1.30805e-12
0.0005 0.000853602 0.00117001 1.18914e-12
0.0005 0.000867954 0.00117001 1.08103e-12
0.0005 0.000881001 0.00117001 9.82759e-13
0.0005 0.000892861 0.00117001 8.93417e-13
0.0005 0.000903644 0.00117001 8.12197e-13
0.0005 0.000913446 0.00117001 7.38361e-13
0.0005 0.000922357 0.00117001 6.71238e-13
0.0005 0.000930458 0.00117001 6.10216e-13
0.0005 0.000937823 0.00117001 5.54742e-13
0.0005 0.000944518 0.00117001 5.04311e-13
0.0005 0.000950604 0.00117001 4.58464e-13
0.0005 0.000956137 0.00117001 4.16786e-13
0.0005 0.000961167 0.00117001 3.78896e-13
0.0005 0.00096574 0.00117001 3.44451e-13
0.0005 0.000969897 0.00117001 3.13137e-13
0.0005 0.000973676 0.00117001 2.8467e-13
0.0005 0.000977112 0.00117001 2.58791e-13
0.0005 0.000980235 0.00117001 2.35265e-13
0.0005 0.000983075 0.00117001 2.13877e-13
0.0005 0.000985656 0.00117001 1.94434e-13
0.0005 0.000988002 0.00117001 1.76758e-13
0.0005 0.000990136 0.00117001 1.60689e-13
0.0005 0.000992075 0.00117001 1.46081e-13
0.0005 0.000993838 0.00117001 1.32801e-13
0.0005 0.000995441 0.00117001 1.20728e-13
0.0005 0.000996898 0.00117001 1.09753e-13
0.0005 0.000998222 0.00117001 9.97752e-14
0.0005 0.000999427 0.00117001 9.07047e-14
0.0005 4.59758e-05 0.00124857 7.1761e-12
0.0005 0.000133748 0.00124857 6.52373e-12
0.0005 0.000213541 0.00124857 5.93066e-12
0.0005 0.000286079 0.00124857 5.39151e-12
0.0005 0.000352024 0.00124857 4.90137e-12
0.0005 0.000411973 0.00124857 4.45579e-12
0.0005 0.000466473 0.00124857 4.05072e-12
0.0005 0.000516018 0.00124857 3.68247e-12
0.0005 0.000561059 0.00124857 3.3477e-12
0.0005 0.000602005 0.00124857 3.04337e-12
0.0005 0.000639229 0.00124857 2.7667e-12
0.0005 0.000673069 0.00124857 2.51518e-12
0.0005 0.000703833 0.00124857 2.28653e-12
0.0005 0.000731799 0.00124857 2.07866e-12
0.0005 0.000757224 0.00124857 1.88969e-12
0.0005 0.000780337 0.00124857 1.7179e-12
0.0005 0.000801349 0.00124857 1.56173e-12
0.0005 0.000820451 0.00124857 1.41975e-12
0.0005 0.000837816 0.00124857 1.29068e-12
0.0005 0.000853602 0.00124857 1.17335e-12
0.0005 0.000867954 0.00124857 1.06668e-12
0.0005 0.000881001 0.00124857 9.6971e-13
0.0005 0.000892861 0.00124857 8.81555e-13
0.0005 0.000903644 0.00124857 8.01413e-13
0.0005 0.000913446 0.00124857 7.28558e-13
0.0005 0.000922357 0.00124857 6.62325e-13
0.0005 0.000930458 0.00124857 6.02114e-13
0.0005 0.000937823 0.00124857 5.47376e-13
0.0005 0.000944518 0.00124857 4.97615e-13
0.0005 0.000950604 0.00124857 4.52377e-13
0.0005 0.000956137 0.00124857 4.11252e-13
0.0005 0.000961167 0.00124857 3.73865e-13
0.0005 0.00096574 0.00124857 3.39877e-13
0.0005 0.000969897 0.00124857 3.0898e-13
0.0005 0.000973676 0.00124857 2.8089e-13
0.0005 0.000977112 0.00124857 2.55355e-13
0.0005 0.000980235 0.00124857 2.32141e-13
0.0005 0.000983075 0.00124857 2.11037e-13
0.0005 0.000985656 0.00124857 1.91852e-13
0.0005 0.000988002 0.00124857 1.74411e-13
0.0005 0.000990136 0.00124857 1.58555e-13
0.0005 0.000992075 0.00124857 1.44141e-13
0.0005 0.000993838 0.00124857 1.31037e-13
0.0005 0.000995441 0.00124857 1.19125e-13
0.0005 0.000996898 0.00124857 1.08295e-13
0.0005 0.000998222 0.00124857 9.84504e-14
0.0005 0.000999427 0.00124857 8.95004e-14