6 	0.00391112967796271 	-3.46944695195361e-18 	-0.0187693368624071 	-0.0001015508648503 	-3.10499403758808e-17
6 	0.0118766651674914 	0 	-0.0417557288681585 	-0.000271340290235181 	-5.63735076238181e-16
6 	0.020134001548576 	-1.38777878078145e-17 	-0.0468238179819559 	-0.000706921828183221 	-5.42898276845904e-16
6 	0.0286938283423949 	-3.12250225675825e-17 	-0.0442276251045383 	-0.00121341150306797 	-8.77398421594099e-23
6 	0.0375672266585909 	-3.12250225675825e-17 	-0.0401919566200403 	-0.0017461965724608 	1.43521244614818e-20
6 	0.0467656835403032 	-3.12250225675825e-17 	-0.0360939888475449 	-0.0023160061244639 	-2.23270633505282e-20
6 	0.0563011068347007 	-3.46944695195361e-17 	-0.032067265671658 	-0.00291877979202371 	8.94422079137662e-21
6 	0.0661858406082649 	-3.12250225675825e-17 	-0.0280824024916311 	-0.00354943623359852 	-5.16993170486107e-17
6 	0.0764326811267816 	-3.46944695195361e-17 	-0.0240982940728177 	-0.00420602763249084 	-2.05561367411098e-16
6 	0.0870548934207257 	-3.81639164714898e-17 	-0.0200791900691545 	-0.00488799472334029 	2.05738848647967e-16
6 	0.0980662284574838 	-3.12250225675825e-17 	-0.0159948710633616 	-0.00559518848571783 	2.85944205871498e-17
6 	0.109480940942647 	-3.12250225675825e-17 	-0.0118189818060637 	-0.00632762829590288 	-2.26328524185415e-17
6 	0.121313807773417 	-3.81639164714898e-17 	-0.00752757524531249 	-0.00708542763018825 	1.66757943847435e-22
6 	0.133580147168011 	-4.16333634234434e-17 	-0.00309803941500381 	-0.00786874476286489 	-1.81728935709836e-21
6 	0.146295838495839 	-4.16333634234434e-17 	0.00149168355366855 	-0.00867774625182103 	-4.0092714285577e-21
6 	0.159477342834115 	-4.16333634234434e-17 	0.00626368245315439 	-0.00951257926704984 	4.38291727431129e-21
6 	0.173141724277517 	-4.16333634234434e-17 	0.0112405361552992 	-0.0103733482312094 	-1.5446635246467e-21
6 	0.18730667202848 	-4.5102810375397e-17 	0.0164456915487112 	-0.011260092833068 	-8.15609453226583e-21
6 	0.201990523296728 	-4.5102810375397e-17 	0.0219037873923195 	-0.0121727656007076 	-4.16805332513555e-21
6 	0.217212287037676 	-5.20417042793042e-17 	0.0276409465372175 	-0.0131112083148101 	-8.05387012156412e-22
6 	0.232991668560441 	-5.89805981832114e-17 	0.0336850483236636 	-0.0140751262714181 	2.89327667164286e-21
6 	0.249349095037321 	-5.20417042793042e-17 	0.0400659889135997 	-0.0150640597125499 	-1.90864293293716e-21
6 	0.266305741947753 	-5.20417042793042e-17 	0.0468159342073967 	-0.0160773517571659 	-2.34427341245491e-21
6 	0.283883560490999 	-4.85722573273506e-17 	0.0539695674165913 	-0.0171141121828054 	-5.44066521880031e-21
6 	0.30210530600303 	-4.85722573273506e-17 	0.0615643311385856 	-0.0181731764156289 	-2.82973676616271e-22
6 	0.320994567414414 	-4.85722573273506e-17 	0.0696406616498702 	-0.019253059083263 	3.30742139842975e-21
6 	0.340575797787321 	-4.16333634234434e-17 	0.078242210907671 	-0.0203519014880747 	5.34613739276855e-21
6 	0.360874345971201 	-4.16333634234434e-17 	0.0874160492681145 	-0.0214674123806148 	5.23077346310134e-21
6 	0.381916489418091 	-4.85722573273506e-17 	0.0972128390506529 	-0.0225968014466703 	9.57248622302751e-21
6 	0.403729468200046 	-5.20417042793042e-17 	0.107686965667674 	-0.0237367049976818 	3.70558830728688e-21
6 	0.426341520272733 	-4.85722573273506e-17 	0.118896608973207 	-0.0248831039455506 	-1.95277800515273e-21
6 	0.441285719951471 	-4.16333634234434e-17 	0.126480774426356 	-0.0256225337235963 	-3.97522165093783e-21
6 	0.453216730116548 	-3.81639164714898e-17 	0.132687387032305 	-0.026196476670624 	-4.10488576828944e-21
6 	0.474081006202548 	-4.5102810375397e-17 	0.143757363448634 	-0.027175653783511 	-1.82830666743194e-16
6 	0.499270241132363 	-4.5102810375397e-17 	0.157543065538574 	-0.0283098507091221 	-2.24232896758053e-16
6 	0.525382231502763 	-2.77555756156289e-17 	0.172329909586376 	-0.0294262264677495 	2.53392069411206e-16
6 	0.552450780547767 	-1.04083408558608e-17 	0.1881919287998 	-0.03051644787428 	1.67142557756295e-16
6 	0.58051092981285 	-3.46944695195361e-18 	0.205204958642839 	-0.0315721237487187 	1.28235604277485e-20
6 	0.609599004517911 	6.93889390390723e-18 	0.223479026588037 	-0.0325794384554957 	7.0102251308157e-21
6 	0.639752660582033 	1.38777878078145e-17 	0.243265197759688 	-0.0335104906407153 	3.29398373849586e-21
6 	0.671010933370887 	1.04083408558608e-17 	0.264992403674741 	-0.0343333764649649 	-2.83863447388058e-20
6 	0.703414288229901 	1.38777878078145e-17 	0.289015183930454 	-0.0350116952096371 	-6.55539715005257e-21
6 	0.737004672868607 	2.08166817117217e-17 	0.315362152542002 	-0.0355259521532337 	3.49173633770939e-21
6 	0.771825571663977 	2.08166817117217e-17 	0.343830965619836 	-0.035873518571087 	-3.47724624342274e-21
6 	0.807922061953054 	2.25514051876985e-17 	0.374156298596654 	-0.0360537928227782 	-1.23071833522453e-20
6 	0.845340872387743 	2.77555756156289e-17 	0.40610164079488 	-0.0360614060415052 	6.48861391874566e-17
6 	0.884130443427309 	2.94902990916057e-17 	0.439467001074738 	-0.0358867019222993 	5.56660889185898e-17
6 	0.924340990046898 	3.12250225675825e-17 	0.474047308307446 	-0.0355197280300595 	-5.83715166052291e-17
6 	0.966024566743242 	3.46944695195361e-17 	0.509583857468757 	-0.0349551166099799 	-4.8363114056806e-17
6 	1.00923513492173 	3.20923843055709e-17 	0.545736897219059 	-0.0341959748615521 	6.5660723772373e-20
6 	1.05402863275205 	3.03576608295941e-17 	0.582089588378939 	-0.0332557971974645 	-7.63371720737651e-20
6 	1.10046304758287 	2.90566182226115e-17 	0.61817999049207 	-0.0321582216898242 	-4.14673363823748e-21
6 	1.14859849100923 	2.47198095326695e-17 	0.653549579647526 	-0.0309349555616167 	-2.85642790418659e-21
6 	1.19849727668994 	1.94072188874905e-17 	0.687792564969026 	-0.0296222865752639 	1.66110090653976e-19
6 	1.25022400101563 	1.85398571495021e-17 	0.720579625692105 	-0.0282564484066788 	-1.68766329874207e-19
6 	1.30384562673186 	2.08166817117217e-17 	0.75165465439492 	-0.0268683064044234 	1.4813255812402e-19
6 	1.35943156962566 	2.08166817117217e-17 	0.780994331476286 	-0.0254861109515154 	-1.34206217255261e-19
6 	1.41705378838763 	2.42861286636753e-17 	0.808638553911693 	-0.0241243019911506 	1.30119582522864e-19
6 	1.47678687776592 	2.42861286636753e-17 	0.834680760937798 	-0.0227899575265829 	1.68825590847459e-20
6 	1.53870816513278 	2.08166817117217e-17 	0.859227829535369 	-0.0214854790970431 	9.96659330084725e-20
6 	1.60289781058851 	2.08166817117217e-17 	0.882372739596393 	-0.0202112618374905 	-7.02885447057721e-20
6 	1.66943891073267 	2.42861286636753e-17 	0.90417243032093 	-0.0189675155173829 	-2.91228166981766e-22
6 	1.73841760623657 	3.12250225675825e-17 	0.924648958129614 	-0.0177550223512146 	-5.61999212560475e-20
6 	1.8099231933566 	2.77555756156289e-17 	0.943833289519974 	-0.0165680152440483 	-3.73893118079276e-20
6 	1.88404823953249 	1.73472347597681e-17 	0.961836407098465 	-0.0153756408759243 	2.2252223874777e-20
6 	1.96088870322038 	1.38777878078145e-17 	0.977884511316184 	-0.014223645748264 	6.14214820213539e-20
6 	2.02024009608346 	1.38777878078145e-17 	0.989904077027157 	-0.0132943933394146 	2.63181660001229e-20
6 	2.06000503604194 	1.04083408558608e-17 	0.998312869915723 	-0.0126113507440198 	0
6 	2.09836474743797 	6.93889390390723e-18 	1.00521673348268 	-0.0120209764186522 	0
6 	2.13536888877258 	6.93889390390723e-18 	1.01151691913848 	-0.0114589898744534 	0
6 	2.17106536369585 	3.46944695195361e-18 	1.01726035354015 	-0.0109236000409059 	0
6 	2.20550038302045 	3.46944695195361e-18 	1.0224888636306 	-0.0104136434513475 	0
6 	2.23871852454379 	6.93889390390723e-18 	1.02723955162388 	-0.00992761639890641 	0
6 	2.27076279075614 	6.93889390390723e-18 	1.03154518735244 	-0.00946409160237561 	0
6 	2.30167466450941 	6.93889390390723e-18 	1.03543458520629 	-0.00902173177180533 	0
6 	2.33149416271873 	6.93889390390723e-18 	1.03893294483786 	-0.00859929041849532 	0
6 	2.36025988816627 	0 	1.04206214759958 	-0.00819561095966956 	0
6 	2.38800907947441 	-6.93889390390723e-18 	1.04484100826735 	-0.0078096213940804 	0
6 	2.41477765931296 	-6.93889390390723e-18 	1.04728548494153 	-0.0074403265904782 	0
6 	2.44060028090272 	-6.93889390390723e-18 	1.04940885095367 	-0.00708680002674438 	0
6 	2.46551037287586 	-6.93889390390723e-18 	1.05122183261821 	-0.00674817575034157 	0
6 	2.48954018255081 	-6.93889390390723e-18 	1.05273271636405 	-0.0064236408874442 	1.10807113991809e-15
6 	2.512720817678 	-6.93889390390723e-18 	1.05394742843984 	-0.00611242882225239 	1.07576477839228e-15
6 	2.53508228671037 	-6.93889390390723e-18 	1.0548695901478 	-0.00581381305740766 	-1.17180669097634e-15
6 	2.55665353765073 	-6.93889390390723e-18 	1.05550055149175 	-0.00552710171480694 	-1.13950032945046e-15
6 	2.57746249552637 	-1.04083408558608e-17 	1.05583940626493 	-0.00525163262082221 	0
6 	2.59753609853934 	-1.38777878078145e-17 	1.05588299197501 	-0.00498676892637435 	0
6 	2.6169003329393 	-1.38777878078145e-17 	1.05562587862377 	-0.00473189523251836 	0
6 	2.6355802666639 	-1.38777878078145e-17 	1.05506035122935 	-0.00448641422192247 	0
6 	2.6536000817905 	-1.38777878078145e-17 	1.05417639208198 	-0.00424974383335286 	0
6 	2.67098310584103 	-1.38777878078145e-17 	1.05296167000553 	-0.00402131505796695 	0
6 	2.68775184198057 	-1.73472347597681e-17 	1.05140154524919 	-0.00380057048032738 	0
6 	2.7039279981488 	-1.73472347597681e-17 	1.04947909987807 	-0.00358696372971 	0
6 	2.71953251516198 	-1.38777878078145e-17 	1.04717520440549 	-0.00337996004265508 	0
6 	2.73458559382185 	-1.38777878078145e-17 	1.04446863156683 	-0.00317903815764888 	0
6 	2.74910672106653 	-1.38777878078145e-17 	1.04133622717457 	-0.00298369375711825 	0
6 	2.76311469519732 	-1.38777878078145e-17 	1.0377531455159 	-0.00279344462947626 	0
6 	2.776627650214 	-1.38777878078145e-17 	1.03369315246015 	-0.00260783763504532 	0
6 	2.78966307929018 	-2.08166817117217e-17 	1.02912899325353 	-0.00242645741930651 	0
6 	2.80223785741905 	-2.42861286636753e-17 	1.02403281414571 	-0.00224893662902586 	0
6 	2.81436826325886 	-2.08166817117217e-17 	1.01837661816032 	-0.00207496716844515 	0
6 	2.82607000020648 	-1.73472347597681e-17 	1.01213272647741 	-0.00190431181045375 	0
6 	2.83735821672614 	-1.38777878078145e-17 	1.00527420920293 	-0.00173681526740479 	0
6 	2.8482475259599 	-1.73472347597681e-17 	0.997775243825996 	-0.00157241370270315 	0
6 	2.85875202464506 	-1.73472347597681e-17 	0.989611357078184 	-0.00141114211985945 	0
6 	2.86888531136304 	-1.73472347597681e-17 	0.980759506265473 	-0.00125313963677232 	0
6 	2.87866050414343 	-2.08166817117217e-17 	0.971197958733433 	-0.00109864568998899 	0
6 	2.88809025744591 	-2.08166817117217e-17 	0.960905931410143 	-0.000947959497194249 	0
6 	2.89718677854204 	-2.08166817117217e-17 	0.949862934537855 	-0.000801552892610259 	0
6 	2.90596184331819 	-2.42861286636753e-17 	0.938024391862179 	-0.000660025160709261 	0
6 	2.91442681151997 	-3.12250225675825e-17 	0.92528692942877 	-0.000523754306272346 	0
6 	2.92259264145801 	-3.46944695195361e-17 	0.911531000544677 	-0.000393182152661039 	0
6 	2.93046990419395 	-2.77555756156289e-17 	0.89670291265226 	-0.000269306847393479 	0
6 	2.93806879722526 	-2.42861286636753e-17 	0.880817679376811 	-0.000153514369105405 	0
6 	2.94539915768639 	-2.77555756156289e-17 	0.86391070322279 	-4.7283159710677e-05 	0
6 	2.95247047508335 	-2.77555756156289e-17 	0.846002279393679 	4.7957739460343e-05 	0
6 	2.9592919035784 	-2.77555756156289e-17 	0.827077228107685 	0.000130942041869751 	0
6 	2.96587227384056 	-2.77555756156289e-17 	0.807071703516762 	0.000200629237425781 	0
6 	2.97222010447726 	-2.42861286636753e-17 	0.785859884153591 	0.00025621326967441 	0
6 	2.97834361306218 	-1.73472347597681e-17 	0.763234525315615 	0.000297106631000364 	0
6 	2.98425072677325 	-1.73472347597681e-17 	0.73887537868895 	0.000323026316474196 	0
6 	2.98994909265478 	-2.08166817117217e-17 	0.712297417581123 	0.000334101996192826 	0
6 	2.99544608751689 	-2.08166817117217e-17 	0.682767170736074 	0.000330795201969044 	0
6 	3.00074882748522 	-2.08166817117217e-17 	0.649165564830005 	0.000313832080349307 	0
6 	3.00586417721304 	-2.08166817117217e-17 	0.609756784769537 	0.000284250359287875 	0
6 	3.01079875876789 	-2.08166817117217e-17 	0.561795749019741 	0.000243717343488319 	-1.46741563240569e-14
6 	3.01555896020418 	-2.08166817117217e-17 	0.500786077423891 	0.000194834906306119 	-1.00019335576653e-14
6 	3.02015094383282 	-2.08166817117217e-17 	0.420099414182963 	0.000140634413847288 	2.40180385666224e-14
6 	3.02458065419862 	-2.08166817117217e-17 	0.315431835077854 	8.57713524900368e-05 	1.93458158002331e-14
6 	3.02885382577582 	-2.08166817117217e-17 	0.192666463708557 	3.87976575294668e-05 	0
6 	3.03297599039165 	-2.08166817117217e-17 	0.0641757225165911 	9.31551771556486e-06 	0
