5 	0.00391112967796265 	-1.73472347597681e-18 	-0.0265962962708883 	-9.2243688814945e-05 	1.81463908486093e-15
5 	0.0118766651674913 	-9.54097911787244e-18 	-0.0683167249855904 	-0.000197008406961736 	-2.57541770511273e-15
5 	0.020134001548576 	-9.54097911787244e-18 	-0.0954352665498425 	-0.000554128155120281 	-9.5397246482754e-17
5 	0.028693828342395 	-6.07153216591882e-18 	-0.106209616342903 	-0.00109043395844401 	-1.19436568017471e-22
5 	0.0375672266585908 	-8.67361737988404e-18 	-0.107531199559765 	-0.00167921135183078 	-1.01707990178618e-20
5 	0.0467656835403031 	-1.86482773667507e-17 	-0.105558042769684 	-0.00230212266655559 	-6.54988534245226e-21
5 	0.0563011068347006 	-2.47198095326695e-17 	-0.102491830654082 	-0.00296620985318748 	9.09704259416455e-21
5 	0.0661858406082649 	-2.21177243187043e-17 	-0.0989806361005469 	-0.00366793329748516 	7.52347525853981e-23
5 	0.0764326811267816 	-1.90819582357449e-17 	-0.0952287460526286 	-0.00440276143385227 	-2.80806613927466e-21
5 	0.0870548934207257 	-1.77809156287623e-17 	-0.0913048238447203 	-0.0051685736895431 	-2.36725878537782e-21
5 	0.098066228457484 	-8.02309607639273e-18 	-0.0872293707054234 	-0.00596468200016746 	-9.16314702059142e-25
5 	0.109480940942647 	2.38524477946811e-18 	-0.0830032051491981 	-0.00679094733456767 	0
5 	0.121313807773416 	2.81892564846231e-18 	-0.0786179940304506 	-0.00764746614827462 	1.04062120775e-23
5 	0.13358014716801 	-9.75781955236954e-19 	-0.0740605277478839 	-0.00853446918661101 	1.52776736907221e-23
5 	0.146295838495838 	-2.38524477946811e-18 	-0.0693145530293829 	-0.00945226700322199 	1.42157400155203e-21
5 	0.159477342834115 	-8.32802793740428e-18 	-0.0643615597455563 	-0.0104012105148283 	1.33895832315717e-21
5 	0.173141724277517 	-2.10131933554847e-17 	-0.0591804131014129 	-0.011381690599618 	-2.5701131940833e-21
5 	0.18730667202848 	-2.77555756156289e-17 	-0.0537482027916646 	-0.0123940495166334 	1.48204574116899e-23
5 	0.201990523296728 	-2.42861286636753e-17 	-0.0480413313391056 	-0.0134385509723079 	2.44686752957066e-23
5 	0.217212287037675 	-2.42861286636753e-17 	-0.0420332972204183 	-0.0145154503732496 	1.7511542342268e-23
5 	0.232991668560441 	-2.77555756156289e-17 	-0.035695296434827 	-0.0156249266860368 	2.00863107870572e-21
5 	0.249349095037321 	-2.77555756156289e-17 	-0.0289959985402881 	-0.0167670596180062 	-3.889821453218e-21
5 	0.266305741947753 	-3.46944695195361e-17 	-0.0219012973258487 	-0.0179418043016471 	-1.18638255890395e-24
5 	0.283883560490998 	-4.85722573273506e-17 	-0.0143740408519857 	-0.0191489626109008 	1.82138034942592e-21
5 	0.30210530600303 	-5.55111512312578e-17 	-0.00637374448570806 	-0.0203881502424788 	-4.15935038532867e-23
5 	0.320994567414413 	-5.55111512312578e-17 	0.00214370854815177 	-0.0216587596922115 	-3.81474507211263e-18
5 	0.340575797787321 	-5.89805981832114e-17 	0.0112263628375022 	-0.0229599142125668 	-1.37903013752202e-16
5 	0.360874345971201 	-6.59194920871187e-17 	0.0209264927677805 	-0.0242904152753278 	1.37384924377562e-16
5 	0.38191648941809 	-6.93889390390723e-17 	0.0313009122851226 	-0.0256486809797948 	5.46510836682649e-18
5 	0.403729468200046 	-6.24500451351651e-17 	0.0424112637217749 	-0.0270326792627632 	3.04803630607325e-24
5 	0.426341520272733 	-4.85722573273506e-17 	0.0543242695555435 	-0.0284398477606221 	-6.04345083909197e-21
5 	0.449781918030828 	-4.85722573273506e-17 	0.0671119302572553 	-0.0298670023777019 	-6.87569647010453e-22
5 	0.474081006202548 	-5.55111512312578e-17 	0.0808516407899557 	-0.0313102174589032 	-3.26945488161088e-22
5 	0.499270241132363 	-4.85722573273506e-17 	0.0956261886650878 	-0.0327646445619352 	3.33100747220414e-21
5 	0.525382231502763 	-4.5102810375397e-17 	0.111523587681469 	-0.0342244238692245 	3.9653070806719e-21
5 	0.552450780547767 	-4.5102810375397e-17 	0.128636710188774 	-0.0356833917374668 	4.78116935287513e-21
5 	0.580510929812849 	-3.81639164714898e-17 	0.147063056618501 	-0.037135381935738 	-5.66393389969055e-22
5 	0.60959900451791 	-2.77555756156289e-17 	0.166941288153148 	-0.0385652996381643 	4.74408657235841e-21
5 	0.639752660582032 	-2.08166817117217e-17 	0.188661689754671 	-0.0399474191278361 	-6.58884864856388e-23
5 	0.671010933370886 	-1.38777878078145e-17 	0.212796302411871 	-0.0412579260485703 	-8.50419181800266e-21
5 	0.7034142882299 	-3.46944695195361e-18 	0.239682512707435 	-0.0424563148764106 	8.09948600399458e-22
5 	0.737004672868606 	-6.93889390390723e-18 	0.269297765542654 	-0.04351691947814 	-2.46073491584813e-21
5 	0.771825571663976 	-1.73472347597681e-17 	0.301412541014787 	-0.0444278027575672 	-1.07395965046669e-21
5 	0.807922061953053 	-2.08166817117217e-17 	0.33575175796744 	-0.0451778455930034 	-1.18691871239925e-21
5 	0.845340872387742 	-1.73472347597681e-17 	0.372071240358635 	-0.0457512505731129 	-2.60139840405067e-21
5 	0.884130443427309 	-1.73472347597681e-17 	0.41015288601095 	-0.0461284149264356 	3.91659787553365e-21
5 	0.924340990046898 	-2.42861286636753e-17 	0.449757395976528 	-0.0462894916173327 	-6.53677301347158e-21
5 	0.966024566743242 	-1.73472347597681e-17 	0.490575621640387 	-0.0462185566639507 	-2.34670459210129e-21
5 	0.98803860501359 	-9.97465998686664e-18 	0.511999921030912 	-0.0461153002072874 	-2.11717519791439e-23
5 	1.01003250347456 	-1.69135538907739e-17 	0.532960086862084 	-0.0459025040451999 	2.79436797860869e-21
5 	1.05402863275205 	-1.38777878078145e-17 	0.574162696867288 	-0.0453658702427434 	5.2032543702821e-21
5 	1.10046304758287 	-1.04083408558608e-17 	0.61593425080505 	-0.0445929747671605 	4.66248320567635e-23
5 	1.14859849100923 	-2.08166817117217e-17 	0.656967416532551 	-0.0436124144975367 	-1.33645995019779e-20
5 	1.19849727668994 	-2.42861286636753e-17 	0.696764643180114 	-0.0424533373508047 	-1.14467146952026e-20
5 	1.25022400101563 	-1.38777878078145e-17 	0.734929562082223 	-0.0411502601134376 	-3.7229805834614e-20
5 	1.30384562673185 	-5.20417042793042e-18 	0.771199421570661 	-0.0397391919450162 	6.91015065815663e-21
5 	1.35943156962565 	-1.73472347597681e-18 	0.805448525894013 	-0.0382531087875061 	-2.5244128542464e-21
5 	1.41705378838762 	6.93889390390723e-18 	0.837665709929285 	-0.0367181216651811 	-1.88305062239528e-21
5 	1.47678687776592 	1.56125112837913e-17 	0.867919851591108 	-0.0351516828679388 	-4.89117653215248e-21
5 	1.53870816513278 	1.04083408558608e-17 	0.89632335036516 	-0.0335628496756006 	-2.63449467883907e-20
5 	1.60289781058851 	5.20417042793042e-18 	0.922985894452566 	-0.0319547832343606 	-4.94087937594592e-22
5 	1.66943891073267 	1.0842021724855e-17 	0.947974612027152 	-0.0303315787933201 	-2.55904802377821e-20
5 	1.73841760623657 	1.0842021724855e-17 	0.971333950298283 	-0.0286801720354157 	-2.65752593152813e-20
5 	1.8099231933566 	6.93889390390723e-18 	0.993135286162718 	-0.0269664112258001 	2.6168559831324e-22
5 	1.88404823953249 	6.93889390390723e-18 	1.0135421518258 	-0.0251869074626676 	4.15740488906243e-20
5 	1.96088870322038 	6.93889390390723e-18 	1.03229172140689 	-0.0234106745268297 	3.38016604429303e-20
5 	2.02025965173185 	6.93889390390723e-18 	1.0455283401445 	-0.0220202314439379 	1.72003958760872e-23
5 	2.06006301192217 	6.93889390390723e-18 	1.0542173495855 	-0.0210745726248816 	0
5 	2.09845978584128 	6.93889390390723e-18 	1.06183771703438 	-0.0202000720756798 	0
5 	2.13549967996946 	6.93889390390723e-18 	1.06877377875226 	-0.019362897880806 	0
5 	2.17123064424048 	6.93889390390723e-18 	1.0750823379907 	-0.0185618808453831 	0
5 	2.20569893411516 	6.93889390390723e-18 	1.08081265869613 	-0.0177950149013381 	0
5 	2.23894917046123 	6.93889390390723e-18 	1.08600759838362 	-0.0170603962702401 	0
5 	2.27102439731726 	6.93889390390723e-18 	1.09070447562517 	-0.0163563186897815 	0
5 	2.30196613761522 	6.93889390390723e-18 	1.09493574473696 	-0.0156812116897611 	0
5 	2.33181444693392 	1.04083408558608e-17 	1.09872952509241 	-0.0150336157094704 	0
5 	2.3606079653529 	1.04083408558608e-17 	1.10211001832746 	-0.0144121686465048 	0
5 	2.38838396747391 	6.93889390390723e-18 	1.10509783796967 	-0.0138155931939237 	0
5 	2.41517841067461 	1.04083408558608e-17 	1.10771026939968 	-0.0132426855349867 	0
5 	2.44102598165722 	1.38777878078145e-17 	1.10996147318429 	-0.0126923057622731 	0
5 	2.46596014135208 	1.38777878078145e-17 	1.11186264141877 	-0.0121633697410562 	0
5 	2.49001316823444 	1.73472347597681e-17 	1.11342211441623 	-0.0116548421169442 	0
5 	2.51321620011054 	2.42861286636753e-17 	1.11464546359679 	-0.0111657302343188 	0
5 	2.535599274427 	2.77555756156289e-17 	1.11553554556327 	-0.0106950787744274 	0
5 	2.55719136715571 	2.77555756156289e-17 	1.11609253196992 	-0.0102419649566826 	0
5 	2.57802043030466 	2.42861286636753e-17 	1.11631391980728 	-0.00980549418059041 	0
5 	2.59811342810315 	2.08166817117217e-17 	1.11619452707384 	-0.00938479601943716 	0
5 	2.61749637190832 	2.08166817117217e-17 	1.11572647942174 	-0.0089790205119224 	0
5 	2.63619435387806 	2.42861286636753e-17 	1.11489919417709 	-0.00858733473646993 	0
5 	2.65423157945406 	2.42861286636753e-17 	1.11369936904201 	-0.00820891969694089 	0
5 	2.67163139869691 	2.08166817117217e-17 	1.11211098363829 	-0.00784296759918911 	0
5 	2.68841633651388 	2.08166817117217e-17 	1.11011532265302 	-0.00748867965541011 	1.0979715655999e-16
5 	2.70460812181851 	1.73472347597681e-17 	1.10769102944519 	-0.00714526461571574 	1.83011557205491e-15
5 	2.72022771565972 	1.04083408558608e-17 	1.10481419829646 	-0.00681193828930893 	-1.92600420691186e-15
5 	2.73529533835695 	1.04083408558608e-17 	1.10145851178356 	-0.00648792437321384 	-1.14897085632081e-16
5 	2.74983049567626 	1.73472347597681e-17 	1.09759542685449 	-0.00617245694336201 	0
5 	2.76385200408157 	2.08166817117217e-17 	1.09319440911732 	-0.0058647849666044 	0
5 	2.77737801509344 	2.08166817117217e-17 	1.08822320985653 	-0.00556417914758574 	0
5 	2.79042603878708 	2.08166817117217e-17 	1.0826481748854 	-0.00526994131875637 	0
5 	2.80301296646003 	2.42861286636753e-17 	1.07643456920969 	-0.00498141640684772 	0
5 	2.81515509249873 	2.77555756156289e-17 	1.06954689728727 	-0.00469800675134611 	0
5 	2.82686813547238 	2.77555756156289e-17 	1.0619491958296 	-0.00441918820771914 	0
5 	2.83816725848143 	2.42861286636753e-17 	1.0536052745277 	-0.00414452727085935 	0
5 	2.84906708878692 	2.42861286636753e-17 	1.04447887917336 	-0.00387369900275876 	0
5 	2.85958173674617 	2.42861286636753e-17 	1.03453375039003 	-0.00360650487567459 	0
5 	2.86972481407933 	1.73472347597681e-17 	1.0237335486704 	-0.00334287704808778 	0
5 	2.87950945149043 	2.08166817117217e-17 	1.01204161232473 	-0.00308284305650794 	0
5 	2.88894831566567 	2.42861286636753e-17 	0.999420486580141 	-0.00282659433136957 	0
5 	2.89805362567107 	2.08166817117217e-17 	0.985822744114812 	-0.00257511933115374 	0
5 	2.90683716877067 	2.08166817117217e-17 	0.971114008472431 	-0.0023276936800467 	0
5 	2.9153103156857 	2.08166817117217e-17 	0.955097372207876 	-0.00208363154689105 	0
5 	2.92348403531449 	2.08166817117217e-17 	0.937657624277062 	-0.00184324375817265 	0
5 	2.9313689089323 	1.73472347597681e-17 	0.918767411811776 	-0.00160849142255986 	0
5 	2.93897514388925 	1.04083408558608e-17 	0.898429544206044 	-0.00138179503009439 	0
5 	2.94631258682425 	6.93889390390723e-18 	0.876638469236538 	-0.00116565162616612 	0
5 	2.95339073641193 	3.46944695195361e-18 	0.853358331462912 	-0.000962447964285031 	0
5 	2.96021875565916 	0 	0.828508645514182 	-0.000774357862042784 	0
5 	2.96680548376697 	0 	0.801950731286429 	-0.000603283964641286 	0
5 	2.97315944757337 	0 	0.773470390869269 	-0.000450813788272422 	0
5 	2.97928887259171 	3.46944695195361e-18 	0.742753698605248 	-0.000318178291498654 	0
5 	2.98520169365903 	6.93889390390723e-18 	0.709352967390326 	-0.000206208056333585 	0
5 	2.99090556520807 	1.38777878078145e-17 	0.672639969228571 	-0.000115285673431059 	-1.14754289752823e-15
5 	2.99640787117633 	2.08166817117217e-17 	0.631743597876013 	-4.530037114467e-05 	-9.97400119575216e-15
5 	3.00171573456492 	2.08166817117217e-17 	0.585475894649295 	4.39204853587829e-06 	1.17444228277558e-14
5 	3.00683602665963 	2.08166817117217e-17 	0.532207150681852 	3.51479305327873e-05 	1.31101412942526e-15
5 	3.01177537592613 	2.08166817117217e-17 	0.469551968882777 	4.97065672007852e-05 	0
5 	3.01654017659085 	2.08166817117217e-17 	0.395142598442441 	5.08656886221154e-05 	0
5 	3.02113659691864 	2.08166817117217e-17 	0.309677702712555 	4.20331255685695e-05 	0
5 	3.02557058719784 	2.77555756156289e-17 	0.218742535183276 	2.73889266437032e-05 	0
5 	3.02984788744324 	3.46944695195361e-17 	0.128678902684692 	1.25252639617668e-05 	0
