6 	0.00391112967796265 	0 	-0.0149906041664648 	-5.00599739845903e-05 	-2.20864693746084e-17
6 	0.0118766651674913 	-3.46944695195361e-18 	-0.0368596410408894 	-0.000187891279442956 	-9.92426475505279e-17
6 	0.020134001548576 	-6.93889390390723e-18 	-0.0483549881014902 	-0.00051662403399001 	-7.7913327709915e-17
6 	0.0286938283423949 	-6.93889390390723e-18 	-0.0500423529227139 	-0.0010115979635118 	1.02280676678099e-21
6 	0.0375672266585909 	-1.04083408558608e-17 	-0.0468117905637495 	-0.00157231632828441 	4.42510119804833e-21
6 	0.0467656835403032 	-1.73472347597681e-17 	-0.0423608516268952 	-0.00216912037825655 	-3.13632221795638e-21
6 	0.0563011068347005 	-1.73472347597681e-17 	-0.0377962381341585 	-0.00280660904982978 	-5.28873642732465e-22
6 	0.0661858406082647 	-1.38777878078145e-17 	-0.033299142055702 	-0.00348272754315083 	-1.2556580492977e-21
6 	0.0764326811267816 	-2.08166817117217e-17 	-0.0288571017294488 	-0.00419304139515447 	-9.21570386477217e-22
6 	0.0870548934207257 	-2.42861286636753e-17 	-0.0244284040038336 	-0.00493505079219302 	2.63797264783879e-24
6 	0.0980662284574838 	-2.08166817117217e-17 	-0.019972070982552 	-0.00570781390494108 	0
6 	0.109480940942647 	-2.08166817117217e-17 	-0.0154519336511079 	-0.00651106131899601 	0
6 	0.121313807773416 	-2.08166817117217e-17 	-0.0108359304967244 	-0.00734480444568171 	-5.29254838747672e-25
6 	0.13358014716801 	-1.73472347597681e-17 	-0.00609478440264932 	-0.00820920155934677 	1.08072223485697e-21
6 	0.146295838495838 	-1.04083408558608e-17 	-0.00120084349599906 	-0.00910449265595491 	1.14906506682469e-21
6 	0.159477342834115 	-1.04083408558608e-17 	0.00387282721418607 	-0.0100309538399493 	9.19457718853965e-22
6 	0.173141724277517 	-1.38777878078145e-17 	0.00915314286612963 	-0.0109888599712726 	-1.76949406100745e-21
6 	0.18730667202848 	-1.38777878078145e-17 	0.0146675741102011 	-0.0119784563250032 	-1.50698149131864e-22
6 	0.201990523296728 	-1.38777878078145e-17 	0.02044463180476 	-0.0129999353273841 	5.22251734994614e-23
6 	0.217212287037676 	-1.38777878078145e-17 	0.0265142745536676 	-0.0140534110227912 	7.77803680815621e-22
6 	0.232991668560441 	-1.04083408558608e-17 	0.0329082713766222 	-0.0151388924735915 	7.47322895890907e-22
6 	0.249349095037321 	0 	0.0396605364305397 	-0.0162562548215056 	1.52294008355929e-21
6 	0.266305741947753 	3.46944695195361e-18 	0.0468074444245517 	-0.0174052072345537 	5.28862402068686e-22
6 	0.283883560490999 	-3.46944695195361e-18 	0.0543881310673055 	-0.0185852568815714 	-9.35463059960651e-23
6 	0.30210530600303 	-6.93889390390723e-18 	0.0624447794022597 	-0.0197956680570186 	1.42665725053952e-21
6 	0.320994567414414 	-1.04083408558608e-17 	0.071022889689685 	-0.0210354155464287 	-1.4284233071557e-17
6 	0.340575797787321 	-1.04083408558608e-17 	0.0801715272817578 	-0.0223031312360527 	-1.47435971080277e-17
6 	0.360874345971201 	-3.46944695195361e-18 	0.089943539455625 	-0.0235970428608397 	1.45724101639664e-17
6 	0.38191648941809 	-6.93889390390723e-18 	0.100395728196026 	-0.0249149039948591 	1.50543530841804e-17
6 	0.403729468200046 	-1.04083408558608e-17 	0.111588961247583 	-0.0262539151716143 	1.54877361297303e-17
6 	0.426341520272733 	-1.04083408558608e-17 	0.123588198003661 	-0.0276106334645376 	1.10408271718197e-16
6 	0.449781918030829 	-2.08166817117217e-17 	0.136462398825825 	-0.0289808510881723 	-1.11287663572492e-16
6 	0.474081006202548 	-2.08166817117217e-17 	0.150284275385147 	-0.0303594235757114 	-1.70678603792173e-17
6 	0.499270241132364 	-1.38777878078145e-17 	0.165129834671756 	-0.0317402459366795 	7.13911568721996e-22
6 	0.525382231502763 	-1.38777878078145e-17 	0.181077695387942 	-0.0331169878774115 	2.47577559567871e-21
6 	0.552450780547767 	-1.04083408558608e-17 	0.198208612742401 	-0.0344826771460968 	2.03850633288766e-21
6 	0.58051092981285 	-3.46944695195361e-18 	0.216648565117042 	-0.0358212173758942 	-1.09366851365376e-23
6 	0.609599004517911 	3.46944695195361e-18 	0.236741001128752 	-0.0371076551086355 	-2.12154311529739e-21
6 	0.639752660582033 	6.93889390390723e-18 	0.25894206220416 	-0.0383185030886266 	-9.38233989820003e-22
6 	0.671010933370887 	1.04083408558608e-17 	0.283468737806071 	-0.0394176818525453 	-4.37872492395138e-22
6 	0.703414288229901 	1.04083408558608e-17 	0.31024561345161 	-0.0403860957126141 	-4.54748237777595e-22
6 	0.737004672868606 	3.46944695195361e-18 	0.33904714033022 	-0.0412179915482922 	2.3250258368969e-21
6 	0.771825571663976 	0 	0.369627748057939 	-0.0419074946477902 	1.19205855623662e-21
6 	0.807922061953054 	-3.46944695195361e-18 	0.401773108255694 	-0.0424437971539685 	-3.94669033742443e-21
6 	0.845340872387742 	-1.04083408558608e-17 	0.435286414048367 	-0.0428125101664198 	-5.01529605011363e-21
6 	0.884130443427309 	-1.38777878078145e-17 	0.469946122802291 	-0.0429991417337393 	-1.3203744715188e-21
6 	0.924340990046898 	-1.38777878078145e-17 	0.505468358424152 	-0.0429927013644982 	-3.59486974752493e-21
6 	0.966024566743242 	-6.93889390390723e-18 	0.541491907264393 	-0.0427884132909486 	-2.51681363815013e-23
6 	1.00923513492173 	-6.93889390390723e-18 	0.577588939862138 	-0.0423891272750701 	1.03736790415588e-21
6 	1.05402863275205 	-3.46944695195361e-18 	0.613295260200307 	-0.04180548917412 	6.89768828862892e-22
6 	1.10046304758287 	6.93889390390723e-18 	0.648149878870561 	-0.041055258162682 	-3.07110595302094e-21
6 	1.14068170193516 	1.21430643318376e-17 	0.676427114188784 	-0.040316802576826 	-3.20778792650327e-21
6 	1.16518232990006 	1.56125112837913e-17 	0.692857800359555 	-0.0398379203096298 	1.19971942872766e-21
6 	1.19849727668994 	2.08166817117217e-17 	0.713739980913955 	-0.039153588057322 	3.50500102828141e-21
6 	1.25022400101563 	2.77555756156289e-17 	0.743938735650375 	-0.0380552798358371 	-2.56461939982459e-21
6 	1.30384562673185 	3.12250225675825e-17 	0.772252618553939 	-0.0368897255532253 	-2.67110437746677e-21
6 	1.35943156962565 	4.5102810375397e-17 	0.798729225933698 	-0.0356739533014123 	0
6 	1.41705378838763 	5.20417042793042e-17 	0.823486701085317 	-0.0344189856719791 	0
6 	1.47678687776592 	5.20417042793042e-17 	0.846665037869314 	-0.0331312273267478 	1.91766134291448e-21
6 	1.53870816513278 	5.55111512312578e-17 	0.868400023332407 	-0.0318105483342994 	8.00324485750299e-21
6 	1.60289781058851 	5.55111512312578e-17 	0.888816260023134 	-0.0304455415797155 	1.74138019812261e-21
6 	1.66943891073267 	5.55111512312578e-17 	0.908020176394824 	-0.0290197857466417 	1.03067963936429e-21
6 	1.73841760623657 	4.85722573273506e-17 	0.926055699210239 	-0.0275303089598604 	-1.09701741010601e-20
6 	1.8099231933566 	4.5102810375397e-17 	0.942924205563215 	-0.0259856688366219 	-2.17787258569984e-20
6 	1.88404823953249 	4.68375338513738e-17 	0.958649969267352 	-0.0243954280861088 	-6.42465196197133e-21
6 	1.96088870322038 	5.20417042793042e-17 	0.972845221348083 	-0.0228153184304125 	-2.2120567042976e-20
6 	2.02025965173185 	5.89805981832114e-17 	0.983015373163383 	-0.0215524547641393 	-3.52732300891982e-21
6 	2.06006301192217 	5.89805981832114e-17 	0.989683447568443 	-0.0206694220701435 	0
6 	2.09845978584128 	5.89805981832114e-17 	0.995393565414118 	-0.019860617164456 	0
6 	2.13549967996946 	5.89805981832114e-17 	1.00054206681911 	-0.0190812542112142 	0
6 	2.17123064424048 	5.89805981832114e-17 	1.00517000232505 	-0.0183307750262384 	0
6 	2.20569893411516 	5.89805981832114e-17 	1.00931287562101 	-0.0176080408432253 	0
6 	2.23894917046123 	6.24500451351651e-17 	1.01300135928953 	-0.0169118986978554 	0
6 	2.27102439731726 	6.41847686111419e-17 	1.01626181494207 	-0.0162412795102057 	0
6 	2.30196613761522 	6.41847686111419e-17 	1.01911668526719 	-0.0155951601118891 	0
6 	2.33181444693392 	6.24500451351651e-17 	1.02158479685156 	-0.0149725478113724 	0
6 	2.3606079653529 	5.89805981832114e-17 	1.02368159807056 	-0.0143724757814894 	0
6 	2.38838396747391 	5.89805981832114e-17 	1.02541934828283 	-0.0137939993934982 	0
6 	2.41517841067461 	5.89805981832114e-17 	1.02680726964405 	-0.0132361928939318 	0
6 	2.44102598165722 	6.07153216591882e-17 	1.02785166993488 	-0.0126981466121177 	0
6 	2.46596014135208 	6.24500451351651e-17 	1.02855604320672 	-0.0121789645324812 	0
6 	2.49001316823444 	6.24500451351651e-17 	1.02892115431359 	-0.0116777620747371 	0
6 	2.51321620011054 	6.24500451351651e-17 	1.02894511320416 	-0.0111936640138816 	0
6 	2.535599274427 	6.24500451351651e-17 	1.02862344497304 	-0.0107258025377228 	0
6 	2.55719136715571 	6.24500451351651e-17 	1.02794916194149 	-0.010273315495475 	0
6 	2.57802043030466 	6.24500451351651e-17 	1.02691284429504 	-0.00983534494712198 	0
6 	2.59811342810315 	6.41847686111419e-17 	1.0255027358932 	-0.00941103618071809 	0
6 	2.61749637190832 	6.41847686111419e-17 	1.0237048616321 	-0.00899953742117421 	0
6 	2.63619435387806 	6.41847686111419e-17 	1.0215031720488 	-0.00860000050445266 	0
6 	2.65423157945406 	6.07153216591882e-17 	1.01887971961283 	-0.00821158282773323 	0
6 	2.67163139869691 	5.3776427755281e-17 	1.01581486933812 	-0.00783345089877225 	0
6 	2.68841633651388 	5.20417042793042e-17 	1.01228754404878 	-0.00746478578483323 	0
6 	2.70460812181851 	5.20417042793042e-17 	1.00827550203492 	-0.00710479069249812 	0
6 	2.72022771565972 	5.03069808033274e-17 	1.00375564221148 	-0.00675270078769118 	0
6 	2.73529533835695 	4.85722573273506e-17 	0.998704329527195 	-0.00640779519221899 	5.48884069893759e-16
6 	2.74983049567626 	4.85722573273506e-17 	0.993097731465227 	-0.0060694108802744 	2.85250760732952e-15
6 	2.76385200408157 	5.03069808033274e-17 	0.98691215507343 	-0.00573695795267245 	-3.01243465580501e-15
6 	2.77737801509344 	4.85722573273506e-17 	0.980124372933741 	-0.00540993551391742 	-5.70908488696016e-16
6 	2.79042603878708 	4.5102810375397e-17 	0.972711925687119 	-0.00508794742784647 	0
6 	2.80301296646003 	4.5102810375397e-17 	0.964653388400885 	-0.00477071822775745 	0
6 	2.81515509249873 	4.68375338513738e-17 	0.955928589327081 	-0.00445810881054032 	0
6 	2.82686813547238 	5.03069808033274e-17 	0.946518774421336 	-0.00415011866873212 	0
6 	2.83816725848143 	5.20417042793042e-17 	0.936406718800019 	-0.00384685729093467 	0
6 	2.84906708878692 	5.20417042793042e-17 	0.925576291996103 	-0.00354867771325965 	0
6 	2.85958173674617 	5.20417042793042e-17 	0.91399313363646 	-0.00325617485933032 	0
6 	2.86972481407933 	5.03069808033274e-17 	0.901525461874867 	-0.00296849624887931 	0
6 	2.87950945149043 	4.33680868994202e-17 	0.888017066442635 	-0.00268429646474535 	0
6 	2.88894831566567 	3.81639164714898e-17 	0.873428086994511 	-0.00240479383003586 	0
6 	2.89805362567107 	3.81639164714898e-17 	0.857791495393172 	-0.00213174463283997 	0
6 	2.90683716877067 	3.81639164714898e-17 	0.841164885163627 	-0.00186729380888768 	0
6 	2.9153103156857 	3.81639164714898e-17 	0.823604934743302 	-0.00161375838899741 	0
6 	2.92348403531449 	3.64291929955129e-17 	0.805155108390306 	-0.00137333794668113 	0
6 	2.9313689089323 	3.81639164714898e-17 	0.785839628059873 	-0.00114797023160261 	0
6 	2.93897514388925 	4.16333634234434e-17 	0.765659466526205 	-0.000939293156409677 	0
6 	2.94631258682425 	4.16333634234434e-17 	0.744587979368492 	-0.0007486413684188 	0
6 	2.95339073641193 	4.16333634234434e-17 	0.722564839202394 	-0.000577047855569284 	0
6 	2.96021875565916 	4.16333634234434e-17 	0.69948741994058 	-0.000425245698365635 	0
6 	2.96680548376697 	4.16333634234434e-17 	0.675199016125028 	-0.000293669870848103 	0
6 	2.97315944757337 	4.16333634234434e-17 	0.649473093398697 	-0.000182456523241703 	0
6 	2.97928887259171 	3.81639164714898e-17 	0.621992072502344 	-9.14388526544184e-05 	0
6 	2.98520169365903 	3.64291929955129e-17 	0.592319012551334 	-2.01485022607869e-05 	0
6 	2.99090556520807 	4.16333634234434e-17 	0.559860428696435 	3.21785441448254e-05 	0
6 	2.99640787117633 	4.5102810375397e-17 	0.523814957271215 	6.67155187209191e-05 	0
6 	3.00171573456492 	4.33680868994202e-17 	0.48307191700396 	8.550589522192e-05 	0
6 	3.00683602665963 	4.16333634234434e-17 	0.436017976968366 	9.08828690164728e-05 	0
6 	3.01177537592613 	4.16333634234434e-17 	0.380804523297979 	8.5626802180507e-05 	0
6 	3.01654017659085 	4.16333634234434e-17 	0.316641093405275 	7.19890378506002e-05 	0
6 	3.02113659691864 	3.81639164714898e-17 	0.245594248089372 	5.26590451834153e-05 	0
6 	3.02557058719784 	3.46944695195361e-17 	0.172420951432317 	3.16526906638504e-05 	0
6 	3.02984788744324 	3.46944695195361e-17 	0.101125980764001 	1.36894645868116e-05 	0
