6 	0.00391112967796265 	0 	0.232160419193413 	1.70966990711305e-05 	869.672123548572 	3.90273434848117e-07 	2.00369819072279e-38
6 	0.0118766651674913 	-3.46944695195361e-18 	0.232157188576945 	0.000227977272048532 	213.58304646395 	4.71491535814857e-06 	0
6 	0.020134001548576 	-6.93889390390723e-18 	0.232149528575221 	0.00121645892576936 	57.524547880256 	1.20019024710056e-05 	0
6 	0.0286938283423949 	-6.93889390390723e-18 	0.232131419047402 	0.00330822342985974 	24.4272415412491 	1.32508280990467e-05 	0
6 	0.0375672266585909 	-1.04083408558608e-17 	0.232093350968234 	0.00572967467408012 	13.5100196538619 	9.90228157755244e-05 	0
6 	0.0467656835403032 	-1.73472347597681e-17 	0.232031640262892 	0.007887265544013 	8.97607113113659 	0.000227775879413206 	0
6 	0.0563011068347005 	-1.73472347597681e-17 	0.231950644926945 	0.00972755002268329 	6.69815033432184 	0.000348920576355503 	0
6 	0.0661858406082647 	-1.38777878078145e-17 	0.231856098312728 	0.0113320466555378 	5.37104666072831 	0.00046148724382869 	0
6 	0.0764326811267816 	-2.08166817117217e-17 	0.231751616580077 	0.0127719018449056 	4.51363043896318 	0.000571730742985676 	0
6 	0.0870548934207257 	-2.42861286636753e-17 	0.231639339206125 	0.0140952785339676 	3.91869051830612 	0.000683584038551355 	0
6 	0.0980662284574838 	-2.08166817117217e-17 	0.231520878262042 	0.0153344230654221 	3.48454302394475 	0.000799330655033681 	0
6 	0.109480940942647 	-2.08166817117217e-17 	0.231397622083646 	0.0165116367729071 	3.15597212330478 	0.000920469639200567 	0
6 	0.121313807773416 	-2.08166817117217e-17 	0.231270795430046 	0.0176429473900082 	2.90056112235401 	0.00104815026537577 	0
6 	0.13358014716801 	-1.73472347597681e-17 	0.231141500166742 	0.0187402971851989 	2.69808118178742 	0.00118337704239748 	0
6 	0.146295838495838 	-1.04083408558608e-17 	0.231010752078589 	0.0198128783525199 	2.5352812963446 	0.00132710938278046 	0
6 	0.159477342834115 	-1.04083408558608e-17 	0.230879503011002 	0.0208679725954482 	2.4031343316994 	0.00148031225023573 	0
6 	0.173141724277517 	-1.38777878078145e-17 	0.230748652394911 	0.0219115551344108 	2.29529047458655 	0.00164399494993954 	0
6 	0.18730667202848 	-1.38777878078145e-17 	0.230619052948878 	0.0229484498183925 	2.20716326041673 	0.0018192260994595 	0
6 	0.201990523296728 	-1.38777878078145e-17 	0.230491511203846 	0.0239826476402618 	2.13536602245588 	0.00200715217678914 	0
6 	0.217212287037676 	-1.38777878078145e-17 	0.230366785500105 	0.0250174847367417 	2.07735174012548 	0.00220900353742355 	0
6 	0.232991668560441 	-1.04083408558608e-17 	0.230245582849958 	0.0260557421892238 	2.03117519756712 	0.0024260976660544 	0
6 	0.249349095037321 	0 	0.23012855445258 	0.0270997042128972 	1.9953312948808 	0.00265983864401512 	0
6 	0.266305741947753 	3.46944695195361e-18 	0.230016290307702 	0.0281511848389921 	1.96864216574115 	0.00291171143983971 	0
6 	0.283883560490999 	-3.46944695195361e-18 	0.22990931330326 	0.0292115284173419 	1.95017632213455 	0.00318326981057441 	0
6 	0.30210530600303 	-6.93889390390723e-18 	0.229808073023124 	0.0302815870310007 	1.93918921078432 	0.00347611621222433 	0
6 	0.320994567414414 	-1.04083408558608e-17 	0.229712939457174 	0.0313616764390864 	1.93507827112886 	0.0037918716710584 	0
6 	0.340575797787321 	-1.04083408558608e-17 	0.22962419677517 	0.032451511207395 	1.93734787110773 	0.00413213309120973 	0
6 	0.360874345971201 	-3.46944695195361e-18 	0.229542037167157 	0.033550119118512 	1.94558094087809 	0.00449841500699008 	0
6 	0.38191648941809 	-6.93889390390723e-18 	0.229466553997335 	0.0346557347174967 	1.95941505574248 	0.0048920723767646 	0
6 	0.403729468200046 	-1.04083408558608e-17 	0.229397733301581 	0.0357656719394638 	1.97852133259039 	0.00531420014539383 	0
6 	0.426341520272733 	-1.04083408558608e-17 	0.229335450805968 	0.0368761762320311 	2.00258491859673 	0.00576550234192548 	0
6 	0.449781918030829 	-2.08166817117217e-17 	0.229279498285313 	0.0379822575965133 	2.03128614731717 	0.00624612170598246 	0
6 	0.474081006202548 	-2.08166817117217e-17 	0.229229589499529 	0.0390775077400551 	2.06428167218165 	0.00675544638912798 	0
6 	0.499270241132364 	-1.38777878078145e-17 	0.229184952858834 	0.0401539063699271 	2.1011850585378 	0.00729197183739659 	0
6 	0.525382231502763 	-1.38777878078145e-17 	0.229143439833591 	0.0412016212937188 	2.14154634150864 	0.00785327521671013 	0
6 	0.552450780547767 	-1.04083408558608e-17 	0.229105082984123 	0.0422088045694687 	2.18482998593579 	0.00845442584757698 	0
6 	0.58051092981285 	-3.46944695195361e-18 	0.229088145823523 	0.0431623415505404 	2.23044567208136 	0.00916217699036647 	0
6 	0.609599004517911 	3.46944695195361e-18 	0.229125131176077 	0.0440505585815621 	2.27781166531616 	0.00993876170258033 	0
6 	0.639752660582033 	6.93889390390723e-18 	0.229204106873664 	0.0448544768174515 	2.3254791290936 	0.0107711152784732 	0
6 	0.671010933370887 	1.04083408558608e-17 	0.229272441984225 	0.0455325578449228 	2.37017782794593 	0.0115620381440171 	0
6 	0.703414288229901 	1.04083408558608e-17 	0.229300464105074 	0.0460300129617292 	2.40751308560965 	0.0122049387336283 	0
6 	0.737004672868606 	3.46944695195361e-18 	0.229287015037588 	0.0462956897907125 	2.43327748150115 	0.0126490070672812 	0
6 	0.771825571663976 	0 	0.229239858037258 	0.0462910270299146 	2.44426298867484 	0.012889601694652 	0
6 	0.807922061953054 	-3.46944695195361e-18 	0.22916420023158 	0.0459909272912178 	2.43843979777073 	0.0129365790678503 	0
6 	0.845340872387742 	-1.04083408558608e-17 	0.229059963431343 	0.0453819930544122 	2.41482344743373 	0.0127949635293477 	0
6 	0.884130443427309 	-1.38777878078145e-17 	0.228922780966686 	0.0444620320002848 	2.373280283054 	0.0124623722916515 	0
6 	0.924340990046898 	-1.38777878078145e-17 	0.228745976528713 	0.0432416569037777 	2.31436743283081 	0.0119372524350523 	0
6 	0.966024566743242 	-6.93889390390723e-18 	0.22852229982283 	0.0417466642345428 	2.23923893753788 	0.0112291584493307 	0
6 	1.00923513492173 	-6.93889390390723e-18 	0.228244998518603 	0.0400192280897934 	2.14962044434691 	0.0103647365677458 	0
6 	1.05402863275205 	-3.46944695195361e-18 	0.227908301013883 	0.0381164305263499 	2.04782202386356 	0.00938706926650724 	0
6 	1.10046304758287 	6.93889390390723e-18 	0.22750751829742 	0.0361071004394911 	1.93702696035448 	0.0083498512490013 	0
6 	1.14068170193516 	1.21430643318376e-17 	0.227120388152931 	0.0343972997841046 	1.84069074491173 	0.00747604095801425 	0
6 	1.16518232990006 	1.56125112837913e-17 	0.226869033901266 	0.0333811515363102 	1.78283543032531 	0.00696264429422936 	0
6 	1.19849727668994 	2.08166817117217e-17 	0.226502049366347 	0.0320758320786579 	1.70785609656007 	0.00631951408695047 	0
6 	1.25022400101563 	2.77555756156289e-17 	0.225895745976268 	0.0301808357060873 	1.59752808092505 	0.00541751604015237 	0
6 	1.30384562673185 	3.12250225675825e-17 	0.225221736030378 	0.0284110768466774 	1.4917371608465 	0.00462638990161426 	0
6 	1.35943156962565 	4.5102810375397e-17 	0.224482901238256 	0.0267755917676135 	1.39092350141722 	0.00395042227517352 	0
6 	1.41705378838763 	5.20417042793042e-17 	0.223683145487804 	0.0252712441538997 	1.29569128429133 	0.00338067465969543 	0
6 	1.47678687776592 	5.20417042793042e-17 	0.222827112244429 	0.0238855600893955 	1.20647534581498 	0.00290174529236707 	0
6 	1.53870816513278 	5.55111512312578e-17 	0.221922904701965 	0.0225967667003551 	1.12268805036218 	0.0024968145875427 	0
6 	1.60289781058851 	5.55111512312578e-17 	0.220985335134821 	0.0213742446112551 	1.04234398795705 	0.00214740730270495 	0
6 	1.66943891073267 	5.55111512312578e-17 	0.220025647525842 	0.0201904934230661 	0.964689257191148 	0.00183199310025353 	0
6 	1.73841760623657 	4.85722573273506e-17 	0.219036943052544 	0.0190327194445024 	0.892141448968314 	0.00154702781058579 	0
6 	1.8099231933566 	4.5102810375397e-17 	0.218011386904935 	0.0178967549369648 	0.828332383119672 	0.00129016038761176 	0
6 	1.88404823953249 	4.68375338513738e-17 	0.216952188732693 	0.0167752449511624 	0.774593306603578 	0.00105917062601655 	0
6 	1.96088870322038 	5.20417042793042e-17 	0.215897093553319 	0.0156869122822507 	0.731079664618737 	0.000857290718252932 	0
6 	2.02025965173185 	5.89805981832114e-17 	0.215077198075963 	0.01482879382218 	0.703287056834227 	0.000713913204453813 	0
6 	2.06006301192217 	5.89805981832114e-17 	0.214501831632336 	0.0142294741868774 	0.686702185152064 	0.000619698760040343 	0
6 	2.09845978584128 	5.89805981832114e-17 	0.21398226709956 	0.0136868421135342 	0.673887934633569 	0.000539509936307324 	0
6 	2.13549967996946 	5.89805981832114e-17 	0.213487061117608 	0.0131700331720573 	0.663732104972153 	0.00046678315077918 	0
6 	2.17123064424048 	5.89805981832114e-17 	0.213015984532779 	0.0126780685007095 	0.656112464292138 	0.000400733048825369 	0
6 	2.20569893411516 	5.89805981832114e-17 	0.212568340376496 	0.0122101158846051 	0.650953122769163 	0.000340873020096625 	0
6 	2.23894917046123 	6.24500451351651e-17 	0.212143216718202 	0.0117654380084081 	0.64821541823454 	0.000286793441013089 	0
6 	2.27102439731726 	6.41847686111419e-17 	0.211739722172284 	0.0113433645321299 	0.647892558365222 	0.000238156397262367 	0
6 	2.30196613761522 	6.41847686111419e-17 	0.211356995355187 	0.0109432792527148 	0.650006784376346 	0.000194688841490426 	0
6 	2.33181444693392 	6.24500451351651e-17 	0.210994198720868 	0.0105646166568323 	0.654608273573846 	0.000156177370744194 	0
6 	2.3606079653529 	5.89805981832114e-17 	0.210650521430026 	0.0102068640926952 	0.66177529130749 	0.00012246655169013 	0
6 	2.38838396747391 	5.89805981832114e-17 	0.210325181914051 	0.00986956697017676 	0.671615287927303 	9.34595362291627e-05 	0
6 	2.41517841067461 	5.89805981832114e-17 	0.210017428469918 	0.00955233523580412 	0.684266757192467 	6.91201158708433e-05 	0
6 	2.44102598165722 	6.07153216591882e-17 	0.209726538645892 	0.00925484994514924 	0.69990174970566 	4.94758254787295e-05 	0
6 	2.46596014135208 	6.24500451351651e-17 	0.209451817870268 	0.00897686912666743 	0.718728981348737 	3.46218700210342e-05 	0
6 	2.49001316823444 	6.24500451351651e-17 	0.209192597560546 	0.00871823235420056 	0.740997501083717 	2.47257126169386e-05 	0
6 	2.51321620011054 	6.24500451351651e-17 	0.208948232907017 	0.00847886356526965 	0.76700089015577 	2.00321902027764e-05 	0
6 	2.535599274427 	6.24500451351651e-17 	0.208718100496707 	0.00825877171387457 	0.797081958623749 	2.08690245128502e-05 	0
6 	2.55719136715571 	6.24500451351651e-17 	0.20850159591281 	0.00805804885806131 	0.831637886744514 	2.76525796112177e-05 	0
6 	2.57802043030466 	6.24500451351651e-17 	0.208298131418721 	0.00787686527817683 	0.871125728873044 	4.08936917494833e-05 	0
6 	2.59811342810315 	6.41847686111419e-17 	0.208107133815733 	0.00771546122313121 	0.916068157046412 	6.12033697287249e-05 	0
6 	2.61749637190832 	6.41847686111419e-17 	0.207928042548371 	0.00757413490873578 	0.967059271819664 	8.92981387158626e-05 	0
6 	2.63619435387806 	6.41847686111419e-17 	0.207760308119596 	0.00745322646127476 	1.02477025211621 	0.000126004778805254 	0
6 	2.65423157945406 	6.07153216591882e-17 	0.207603390868078 	0.00735309762363619 	1.08995455881438 	0.000172264188018909 	0
6 	2.67163139869691 	5.3776427755281e-17 	0.207456760149241 	0.00727410722677146 	1.16345235622678 	0.000229134068839614 	0
6 	2.68841633651388 	5.20417042793042e-17 	0.207319893949023 	0.00721658267348426 	1.24619378262355 	0.000297790084241847 	0
6 	2.70460812181851 	5.20417042793042e-17 	0.207192278942895 	0.00718078797246008 	1.33920070053151 	0.000379525039920955 	0
6 	2.72022771565972 	5.03069808033274e-17 	0.207073410992068 	0.0071668891775554 	1.44358660914294 	0.000475745518479566 	0
6 	2.73529533835695 	4.85722573273506e-17 	0.206962796044583 	0.00717491840557815 	1.56055452865926 	0.000587965231694245 	0
6 	2.74983049567626 	4.85722573273506e-17 	0.206859951385843 	0.00720473790077217 	1.69139289680705 	0.000717794208269317 	0
6 	2.76385200408157 	5.03069808033274e-17 	0.206764407174128 	0.00725600586720489 	1.83746987688582 	0.000866922859591496 	0
6 	2.77737801509344 	4.85722573273506e-17 	0.206675708182106 	0.00732814598986945 	2.00022697908045 	0.00103710001918786 	0
6 	2.79042603878708 	4.5102810375397e-17 	0.206593415489068 	0.00742032270596427 	2.18117352917965 	0.00123010419896806 	0
6 	2.80301296646003 	4.5102810375397e-17 	0.206517107628327 	0.00753142436957082 	2.38188422345683 	0.00144770733721478 	0
6 	2.81515509249873 	4.68375338513738e-17 	0.206446382510965 	0.00766005649380437 	2.60400268789692 	0.00169162990672046 	0
6 	2.82686813547238 	5.03069808033274e-17 	0.206380866466674 	0.00780454732884879 	2.84925454805838 	0.00196348534398648 	0
6 	2.83816725848143 	5.20417042793042e-17 	0.206320219291982 	0.00796296835058957 	3.11947416765373 	0.00226482718704077 	0
6 	2.84906708878692 	5.20417042793042e-17 	0.206264035159341 	0.00813317401649069 	3.4166599707322 	0.00260165916530679 	0
6 	2.85958173674617 	5.20417042793042e-17 	0.206211693439133 	0.00831289799448233 	3.74346450677443 	0.00299461608582774 	0
6 	2.86972481407933 	5.03069808033274e-17 	0.20616265989241 	0.00849994130377817 	4.10486292840177 	0.00343516890227921 	0
6 	2.87950945149043 	4.33680868994202e-17 	0.206117153002631 	0.00869150817113059 	4.50554750959628 	0.00393967685049881 	0
6 	2.88894831566567 	3.81639164714898e-17 	0.206075533577956 	0.00888141339662136 	4.94612132927208 	0.0044897012081075 	0
6 	2.89805362567107 	3.81639164714898e-17 	0.206037581848386 	0.00906183666946489 	5.42506889680479 	0.00506890938041976 	0
6 	2.90683716877067 	3.81639164714898e-17 	0.20600287899685 	0.00922491450545228 	5.94090299094083 	0.00566798740936518 	0
6 	2.9153103156857 	3.81639164714898e-17 	0.205971073503546 	0.00936346347244145 	6.49355143909684 	0.00628185562602307 	0
6 	2.92348403531449 	3.64291929955129e-17 	0.205941909839604 	0.00947115532334926 	7.08524067121528 	0.00690796282143814 	0
6 	2.9313689089323 	3.81639164714898e-17 	0.205915198542389 	0.00954240735815066 	7.72114334865118 	0.00754550349105071 	0
6 	2.93897514388925 	4.16333634234434e-17 	0.205890795421977 	0.0095721452616425 	8.41002267270584 	0.00819525707648886 	0
6 	2.94631258682425 	4.16333634234434e-17 	0.205868591992475 	0.00955550263539896 	9.16507469116187 	0.00885976754462858 	0
6 	2.95339073641193 	4.16333634234434e-17 	0.205848510412525 	0.00948745242027662 	10.0053498771294 	0.0095435845301975 	0
6 	2.96021875565916 	4.16333634234434e-17 	0.205830499938465 	0.00936231977758554 	10.9583385841994 	0.0102532027519353 	0
6 	2.96680548376697 	4.16333634234434e-17 	0.205814533898825 	0.00917324701469336 	12.060845055968 	0.0109963641094998 	0
6 	2.97315944757337 	4.16333634234434e-17 	0.205800605061678 	0.00891145365669186 	13.3638925634298 	0.011780029085875 	0
6 	2.97928887259171 	3.81639164714898e-17 	0.205788715079836 	0.00856506628072237 	14.9416379066421 	0.0126055506935409 	0
6 	2.98520169365903 	3.64291929955129e-17 	0.205778855831235 	0.00811782321322357 	16.9031654266858 	0.0134589657923059 	0
6 	2.99090556520807 	4.16333634234434e-17 	0.205770991944262 	0.00754781334000417 	19.4138446211096 	0.0142928803569348 	0
6 	2.99640787117633 	4.5102810375397e-17 	0.205765066961625 	0.00682649241406363 	22.7364690278951 	0.0149993708972229 	0
6 	3.00171573456492 	4.33680868994202e-17 	0.205761006497587 	0.00591841261295912 	27.3180216973301 	0.0153219047918219 	0
6 	3.00683602665963 	4.16333634234434e-17 	0.205758535808312 	0.0047864872645477 	33.9898854475649 	0.014523262934203 	0
6 	3.01177537592613 	4.16333634234434e-17 	0.20575720189267 	0.00344419781886943 	44.5040270679349 	0.0117673521424887 	0
6 	3.01654017659085 	4.16333634234434e-17 	0.205756570500138 	0.00204925989035959 	63.4293734716555 	0.0070341488376299 	0
6 	3.02113659691864 	3.81639164714898e-17 	0.205756310870553 	0.000923530800842595 	105.716235061623 	0.00261239600798369 	0
6 	3.02557058719784 	3.46944695195361e-17 	0.205756283917428 	0.000288138245078629 	234.009011351563 	0.000529907295616997 	0
6 	3.02984788744324 	3.46944695195361e-17 	0.205756467784598 	5.37484351321458e-05 	893.914408146351 	5.19455305632959e-05 	0
