6 	0.00391112967796265 	0 	-0.0149905879553535 	-5.00599599906948e-05 	-2.20864773204941e-17
6 	0.0118766651674913 	-3.46944695195361e-18 	-0.0368595936699192 	-0.000187891262518371 	-9.92426768556824e-17
6 	0.020134001548576 	-6.93889390390723e-18 	-0.0483549119587815 	-0.000516624048664939 	-7.79133492540068e-17
6 	0.0286938283423949 	-6.93889390390723e-18 	-0.0500422562402965 	-0.00101159800600078 	1.0228067954215e-21
6 	0.0375672266585909 	-1.04083408558608e-17 	-0.0468116839719153 	-0.00157231636861241 	4.4251000518821e-21
6 	0.0467656835403032 	-1.73472347597681e-17 	-0.0423607409027908 	-0.00216912042270512 	-3.13632128644345e-21
6 	0.0563011068347005 	-1.73472347597681e-17 	-0.0377961256777722 	-0.00280660910683342 	-5.28873483868461e-22
6 	0.0661858406082647 	-1.38777878078145e-17 	-0.0332990289638466 	-0.00348272761294741 	-1.25565766678786e-21
6 	0.0764326811267816 	-2.08166817117217e-17 	-0.0288569886142976 	-0.00419304147548754 	-9.21570105078071e-22
6 	0.0870548934207257 	-2.42861286636753e-17 	-0.0244282912712736 	-0.00493505088097478 	2.63797098403412e-24
6 	0.0980662284574838 	-2.08166817117217e-17 	-0.0199719589390394 	-0.00570781400047187 	0
6 	0.109480940942647 	-2.08166817117217e-17 	-0.0154518225513028 	-0.00651106141986604 	0
6 	0.121313807773416 	-2.08166817117217e-17 	-0.0108358205671453 	-0.00734480455079346 	-5.29253760862831e-25
6 	0.13358014716801 	-1.73472347597681e-17 	-0.00609467585419027 	-0.00820920166798099 	1.08072182313616e-21
6 	0.146295838495838 	-1.04083408558608e-17 	-0.00120073653080293 	-0.0091044927678328 	1.14906459907019e-21
6 	0.159477342834115 	-1.04083408558608e-17 	0.00387293239857817 	-0.0100309539552555 	9.19457342849987e-22
6 	0.173141724277517 	-1.38777878078145e-17 	0.00915324607444147 	-0.0109888600906632 	-1.76949328440971e-21
6 	0.18730667202848 	-1.38777878078145e-17 	0.0146676751483134 	-0.0119784564497503 	-1.50698082111811e-22
6 	0.201990523296728 	-1.38777878078145e-17 	0.0204447304786788 	-0.0129999354594412 	5.22251548060621e-23
6 	0.217212287037676 	-1.38777878078145e-17 	0.0265143706682263 	-0.0140534111648467 	7.77803329160251e-22
6 	0.232991668560441 	-1.04083408558608e-17 	0.0329083647340788 	-0.0151388926291257 	7.47322555152619e-22
6 	0.249349095037321 	0 	0.0396606268290258 	-0.0162562549948525 	1.52293938278035e-21
6 	0.266305741947753 	3.46944695195361e-18 	0.0468075316563579 	-0.0174052074309654 	5.28862163281041e-22
6 	0.283883560490999 	-3.46944695195361e-18 	0.054388214917011 	-0.0185852571072858 	-9.35462571197858e-23
6 	0.30210530600303 	-6.93889390390723e-18 	0.062444859644734 	-0.0197956683193266 	1.42665659315481e-21
6 	0.320994567414414 	-1.04083408558608e-17 	0.0710229660879977 	-0.0210354158537352 	-1.42842266189222e-17
6 	0.340575797787321 	-1.04083408558608e-17 	0.0801715995850402 	-0.0223031315979217 	-1.4743590403528e-17
6 	0.360874345971201 	-3.46944695195361e-18 	0.0899436073969321 	-0.02359704328801 	1.45724036717263e-17
6 	0.38191648941809 	-6.93889390390723e-18 	0.100395791490259 	-0.0249149044992096 	1.50543463299137e-17
6 	0.403729468200046 	-1.04083408558608e-17 	0.111589019589542 	-0.0262539157660515 	1.54877293251355e-17
6 	0.426341520272733 	-1.04083408558608e-17 	0.123588251066344 	-0.0276106341627276 	1.10408223150885e-16
6 	0.449781918030829 	-2.08166817117217e-17 	0.136462446259092 	-0.0289808519038867 	-1.11287615141276e-16
6 	0.474081006202548 	-2.08166817117217e-17 	0.150284316814879 	-0.0303594245215611 	-1.70678529424041e-17
6 	0.499270241132364 	-1.38777878078145e-17 	0.165129869699646 	-0.0317402470234433 	7.13911260309161e-22
6 	0.525382231502763 	-1.38777878078145e-17 	0.181077723592374 	-0.0331169891165552 	2.4757745376452e-21
6 	0.552450780547767 	-1.04083408558608e-17 	0.198208633681205 	-0.0344826785369941 	2.03850548146408e-21
6 	0.58051092981285 	-3.46944695195361e-18 	0.216648578616219 	-0.0358212188489364 	-1.09366838991814e-23
6 	0.609599004517911 	3.46944695195361e-18 	0.236741008315296 	-0.037107656578408 	-2.12154263205502e-21
6 	0.639752660582033 	6.93889390390723e-18 	0.258942064644933 	-0.0383185044645326 	-9.38233829775354e-22
6 	0.671010933370887 	1.04083408558608e-17 	0.283468735658533 	-0.0394176829816319 	-4.37872435447548e-22
6 	0.703414288229901 	1.04083408558608e-17 	0.310245605935602 	-0.0403860964998665 	-4.54748192518207e-22
6 	0.737004672868606 	3.46944695195361e-18 	0.339047126559504 	-0.0412179919510293 	2.32502548355036e-21
6 	0.771825571663976 	0 	0.369627727454125 	-0.0419074946349913 	1.19205837106763e-21
6 	0.807922061953054 	-3.46944695195361e-18 	0.401773080640246 	-0.0424437966901111 	-3.94668998965071e-21
6 	0.845340872387742 	-1.04083408558608e-17 	0.435286379585962 	-0.042812509209197 	-5.01529571911802e-21
6 	0.884130443427309 	-1.38777878078145e-17 	0.469946081914111 	-0.0429991402361579 	-1.32037440700712e-21
6 	0.924340990046898 	-1.38777878078145e-17 	0.505468311710619 	-0.0429926992788064 	-3.59486979784854e-21
6 	0.966024566743242 	-6.93889390390723e-18 	0.541491855431265 	-0.0427884105740795 	-2.51681470480889e-23
6 	1.00923513492173 	-6.93889390390723e-18 	0.577588883639188 	-0.0423891238954859 	1.03736803751465e-21
6 	1.05402863275205 	-3.46944695195361e-18 	0.613295200260572 	-0.041805485119541 	6.89768961656776e-22
6 	1.10046304758287 	6.93889390390723e-18 	0.648149815776367 	-0.0410552534479459 	-3.0711063955168e-21
6 	1.14068170193516 	1.21430643318376e-17 	0.676427048804131 	-0.040316797343658 	-3.2077883185693e-21
6 	1.16518232990006 	1.56125112837913e-17 	0.692857733736974 	-0.0398379147868236 	1.19971984089203e-21
6 	1.19849727668994 	2.08166817117217e-17 	0.713739912911628 	-0.0391535821989807 	3.50500167630865e-21
6 	1.25022400101563 	2.77555756156289e-17 	0.74393866607818 	-0.0380552735512914 	-2.56462005572777e-21
6 	1.30384562673185 	3.12250225675825e-17 	0.772252548332311 	-0.0368897189579061 	-2.67110493662611e-21
6 	1.35943156962565 	4.5102810375397e-17 	0.798729156218915 	-0.0356739465057426 	0
6 	1.41705378838763 	5.20417042793042e-17 	0.823486633133697 	-0.0344189787719111 	0
6 	1.47678687776592 	5.20417042793042e-17 	0.846664972854578 	-0.0331312203898822 	1.91766210347283e-21
6 	1.53870816513278 	5.55111512312578e-17 	0.868399962066913 	-0.0318105414460527 	8.00324803164775e-21
6 	1.60289781058851 	5.55111512312578e-17 	0.888816202810303 	-0.0304455349391512 	1.74138090570085e-21
6 	1.66943891073267 	5.55111512312578e-17 	0.908020123572459 	-0.0290197793920026 	1.03067987435029e-21
6 	1.73841760623657 	4.85722573273506e-17 	0.926055652071605 	-0.0275303029236572 	-1.09701791167594e-20
6 	1.8099231933566 	4.5102810375397e-17 	0.942924166007683 	-0.0259856629561322 	-2.17787368099157e-20
6 	1.88404823953249 	4.68375338513738e-17 	0.958649938702179 	-0.0243954222830099 	-6.42465570519254e-21
6 	1.96088870322038 	5.20417042793042e-17 	0.972845199982674 	-0.0228153127196075 	-2.21205807139667e-20
6 	2.02025965173185 	5.89805981832114e-17 	0.983015358773545 	-0.0215524491618164 	-3.52732519619501e-21
6 	2.06006301192217 	5.89805981832114e-17 	0.989683437856994 	-0.0206694165725788 	0
6 	2.09845978584128 	5.89805981832114e-17 	0.995393559760726 	-0.0198606117810277 	0
6 	2.13549967996946 	5.89805981832114e-17 	1.00054206486127 	-0.0190812489491821 	0
6 	2.17123064424048 	5.89805981832114e-17 	1.00517000372554 	-0.0183307698884887 	0
6 	2.20569893411516 	5.89805981832114e-17 	1.00931288006711 	-0.0176080358291214 	0
6 	2.23894917046123 	6.24500451351651e-17 	1.01300136648977 	-0.0169118938040844 	0
6 	2.27102439731726 	6.41847686111419e-17 	1.01626182462272 	-0.0162412747316991 	0
6 	2.30196613761522 	6.41847686111419e-17 	1.0191166971695 	-0.0155951554427161 	0
6 	2.33181444693392 	6.24500451351651e-17 	1.02158481073034 	-0.0149725432454986 	0
6 	2.3606079653529 	5.89805981832114e-17 	1.02368161369427 	-0.0143724713133264 	0
6 	2.38838396747391 	5.89805981832114e-17 	1.02541936543512 	-0.0137939950181983 	0
6 	2.41517841067461 	5.89805981832114e-17 	1.02680728812674 	-0.0132361886074106 	0
6 	2.44102598165722 	6.07153216591882e-17 	1.0278516895722 	-0.0126981424108188 	0
6 	2.46596014135208 	6.24500451351651e-17 	1.02855606385053 	-0.0121789604129421 	0
6 	2.49001316823444 	6.24500451351651e-17 	1.02892117584955 	-0.0116777580330597 	0
6 	2.51321620011054 	6.24500451351651e-17 	1.02894513555832 	-0.0111936600452442 	0
6 	2.535599274427 	6.24500451351651e-17 	1.02862346811871 	-0.0107257986360764 	0
6 	2.55719136715571 	6.24500451351651e-17 	1.02794918590585 	-0.0102733116535428 	0
6 	2.57802043030466 	6.24500451351651e-17 	1.02691286916491 	-0.00983534115675407 	0
6 	2.59811342810315 	6.41847686111419e-17 	1.02550276181928 	-0.00941103243357279 	0
6 	2.61749637190832 	6.41847686111419e-17 	1.02370488883081 	-0.00899953370960815 	0
6 	2.63619435387806 	6.41847686111419e-17 	1.02150320080069 	-0.00859999682243885 	0
6 	2.65423157945406 	6.07153216591882e-17 	1.01887975025674 	-0.00821157917160401 	0
6 	2.67163139869691 	5.3776427755281e-17 	1.01581490226041 	-0.00783344726761417 	0
6 	2.68841633651388 	5.20417042793042e-17 	1.01228757966738 	-0.00746478218043291 	0
6 	2.70460812181851 	5.20417042793042e-17 	1.00827554077868 	-0.00710478711882993 	0
6 	2.72022771565972 	5.03069808033274e-17 	1.00375568449602 	-0.0067526972500161 	0
6 	2.73529533835695 	4.85722573273506e-17 	0.998704375728985 	-0.0064077916959126 	5.48883898801063e-16
6 	2.74983049567626 	4.85722573273506e-17 	0.993097781896371 	-0.0060694074295259 	2.85250669186055e-15
6 	2.76385200408157 	5.03069808033274e-17 	0.986912209959664 	-0.0057369545492449 	-3.01243373554144e-15
6 	2.77737801509344 	4.85722573273506e-17 	0.980124432398652 	-0.00540993215629434 	-5.70908317140892e-16
6 	2.79042603878708 	4.5102810375397e-17 	0.972711989746045 	-0.00508794411132391 	0
6 	2.80301296646003 	4.5102810375397e-17 	0.964653456969208 	-0.00477071494621244 	0
6 	2.81515509249873 	4.68375338513738e-17 	0.955928662249731 	-0.004458105560674 	0
6 	2.82686813547238 	5.03069808033274e-17 	0.946518851532836 	-0.00415011545896823 	0
6 	2.83816725848143 	5.20417042793042e-17 	0.936406800025468 	-0.00384685416123563 	0
6 	2.84906708878692 	5.20417042793042e-17 	0.925576377353916 	-0.00354867475065626 	0
6 	2.85958173674617 	5.20417042793042e-17 	0.913993221693517 	-0.00325617203991916 	0
6 	2.86972481407933 	5.03069808033274e-17 	0.901525549228322 	-0.00296849359657331 	0
6 	2.87950945149043 	4.33680868994202e-17 	0.888017149807283 	-0.00268429397628669 	0
6 	2.88894831566567 	3.81639164714898e-17 	0.873428164509866 	-0.00240479161802095 	0
6 	2.89805362567107 	3.81639164714898e-17 	0.85779156656486 	-0.00213174280757012 	0
6 	2.90683716877067 	3.81639164714898e-17 	0.841164950053728 	-0.0018672924154834 	0
6 	2.9153103156857 	3.81639164714898e-17 	0.823604993402834 	-0.00161375740035146 	0
6 	2.92348403531449 	3.64291929955129e-17 	0.805155160650806 	-0.00137333726155444 	0
6 	2.9313689089323 	3.81639164714898e-17 	0.785839673540811 	-0.00114796967814961 	0
6 	2.93897514388925 	4.16333634234434e-17 	0.765659504707308 	-0.000939292510167748 	0
6 	2.94631258682425 	4.16333634234434e-17 	0.744588009665441 	-0.000748640385936486 	0
6 	2.95339073641193 	4.16333634234434e-17 	0.722564861043947 	-0.000577046317069438 	0
6 	2.96021875565916 	4.16333634234434e-17 	0.699487432855744 	-0.000425243448973211 	0
6 	2.96680548376697 	4.16333634234434e-17 	0.675199019835382 	-0.000293666850199326 	0
6 	2.97315944757337 	4.16333634234434e-17 	0.649473087881544 	-0.000182452777035663 	0
6 	2.97928887259171 	3.81639164714898e-17 	0.621992057953435 	-9.14345257402258e-05 	0
6 	2.98520169365903 	3.64291929955129e-17 	0.592318989216267 	-2.01438194374914e-05 	0
6 	2.99090556520807 	4.16333634234434e-17 	0.559860396781024 	3.21832966883583e-05 	0
6 	2.99640787117633 	4.5102810375397e-17 	0.523814917281315 	6.67199993862351e-05 	0
6 	3.00171573456492 	4.33680868994202e-17 	0.483071870166089 	8.55097006592417e-05 	0
6 	3.00683602665963 	4.16333634234434e-17 	0.436017925383159 	9.08855022105366e-05 	0
6 	3.01177537592613 	4.16333634234434e-17 	0.380804469964044 	8.56278164583818e-05 	0
6 	3.01654017659085 	4.16333634234434e-17 	0.316641042238831 	7.19883277327498e-05 	0
6 	3.02113659691864 	3.81639164714898e-17 	0.245594203421934 	5.26571467220581e-05 	0
6 	3.02557058719784 	3.46944695195361e-17 	0.172420916480683 	3.16505936943699e-05 	0
6 	3.02984788744324 	3.46944695195361e-17 	0.101125957941336 	1.3688008441941e-05 	0
