/*--------------------------------*- C++ -*----------------------------------*\
| =========                 |                                                 |
| \\      /  F ield         | OpenFOAM: The Open Source CFD Toolbox           |
|  \\    /   O peration     | Version:  2.4.0                                 |
|   \\  /    A nd           | Web:      www.OpenFOAM.org                      |
|    \\/     M anipulation  |                                                 |
\*---------------------------------------------------------------------------*/
FoamFile
{
    version     2.0;
    format      ascii;
    class       volSymmTensorField;
    location    "0";
    object      tauij_LES;
}
// * * * * * * * * * * * * * * * * * * * * * * * * * * * * * * * * * * * * * //

dimensions      [0 2 -2 0 0 0 0];

internalField   nonuniform List<symmTensor> 
15600
(
(0.0044490643759523205 -4.5660155554708715e-05 0.0 1.300793465349086e-05 0.0 0.002845651413521849) 
(0.004556212653393906 -0.00019323119008169098 0.0 1.923384664855621e-05 0.0 0.002992200853010623) 
(0.0013402576236823456 -0.0001910320657422279 0.0 2.896146069508349e-05 0.0 0.0010577471878301763) 
(0.00042962305614665933 -0.00013696641674463764 0.0 4.488426001069165e-05 0.0 0.00039577520628840336) 
(0.0005990407241070262 -0.0003107434732480642 0.0 0.00016314956707515492 0.0 0.0005439948973397378) 
(0.0008831808597242357 -0.0005789570211142838 0.0 0.0003822695027119486 0.0 0.0008459728969777567) 
(0.0007617652816042827 -0.0005607617154885385 0.0 0.00041472457201468003 0.0 0.0007882371014150813) 
(0.0004402516248927388 -0.0003590017492078484 0.0 0.0002936474390189 0.0 0.0004830711964110569) 
(0.0004094863968727691 -0.00034605984975234836 0.0 0.00029330073518646214 0.0 0.0004897871738074233) 
(0.00039002698485716 -0.00033009694131904153 0.0 0.00028012199157068253 0.0 0.00047550436938647287) 
(0.00025129028287268864 -0.00021116380791519064 0.0 0.00017786240861135348 0.0 0.00031001187849487126) 
(0.0002186158442431912 -0.0001777725523825036 0.0 0.00014487403974477463 0.0 0.0002655359355699525) 
(0.0003007878897958226 -0.0002392067078929571 0.0 0.00019194678983858816 0.0 0.00036130787892699624) 
(0.00031119936233257205 -0.00024304440263879734 0.0 0.00019173172024271153 0.0 0.00035909257164318904) 
(0.00027972972928339294 -0.00021582403507620533 0.0 0.00016746918087265128 0.0 0.00031539817356061005) 
(0.00023077188097743624 -0.00017852379424933797 0.0 0.00013841234060366366 0.0 0.000256117934989738) 
(0.00026011995280380727 -0.0001988591763684889 0.0 0.0001523642966873979 0.0 0.00029146360838197034) 
(0.0005137640794582526 -0.000379098589602909 0.0 0.0002819203946558112 0.0 0.000572034293161417) 
(0.0005866900109965443 -0.0004140940459308781 0.0 0.0002947862021465121 0.0 0.0006562616116566224) 
(0.0009558916152559185 -0.0006248316201501056 0.0 0.00041630217710123056 0.0 0.0010944057570581771) 
(0.001125170506494241 -0.0006677695449287031 0.0 0.000406084680030661 0.0 0.0013122424287912964) 
(0.0015006498760435447 -0.0007828810033610075 0.0 0.0004222011814039503 0.0 0.0016929514934939638) 
(0.0017828905569311458 -0.0007911374185991516 0.0 0.00036769563541316525 0.0 0.0019876618427236044) 
(0.002154560601457261 -0.000783846312923458 0.0 0.0003056460141111658 0.0 0.0023095121657215) 
(0.0023307772000391207 -0.0006575783847655315 0.0 0.0002062944771505344 0.0 0.00243077064760953) 
(0.002703632762564946 -0.0005274006726869538 0.0 0.00012778690303916047 0.0 0.0027354030624471845) 
(0.002722870951773387 -0.00031486170586566566 0.0 5.2956137837428495e-05 0.0 0.0027548260318127093) 
(0.0029085219799804794 -6.991108136130124e-05 0.0 1.8917904403932186e-05 0.0 0.002897087581639252) 
(0.003139707171357745 9.817633721799252e-06 0.0 1.6547453139015906e-05 0.0 0.002865758667128241) 
(0.003621907183819784 1.7081118079035798e-05 0.0 1.930768380401505e-05 0.0 0.003366981077176534) 
(0.0037979968867819123 1.5810945426033877e-05 0.0 1.630440446187275e-05 0.0 0.0036024081234844515) 
(0.004037182799240702 1.7475060880887847e-05 0.0 1.8360585841665957e-05 0.0 0.003967945535199933) 
(0.004245498375514201 1.9999480963344624e-05 0.0 1.8419330207551604e-05 0.0 0.004390031581906697) 
(0.004555357587493251 2.0870953847178026e-05 0.0 2.172313672684648e-05 0.0 0.005026761718629636) 
(0.004756922883649538 2.091113937107738e-05 0.0 2.3733824450479926e-05 0.0 0.0054416832467418415) 
(0.004787926536500947 1.746276014700328e-05 0.0 2.304747303818758e-05 0.0 0.005691725734597546) 
(0.004821968239214663 1.4633654115207615e-05 0.0 1.9464187245663587e-05 0.0 0.005701849244074641) 
(0.004930953544728251 1.3610654778965892e-05 0.0 2.744304217201076e-05 0.0 0.005873814912273721) 
(0.005047796548478305 1.2445848815956049e-05 0.0 2.0157735039678968e-05 0.0 0.006085184614685849) 
(0.005297940879483647 1.1333118447467591e-05 0.0 2.1426015142432512e-05 0.0 0.00626440011077876) 
(0.005165620174443415 1.0417418838210654e-05 0.0 2.5538621257333645e-05 0.0 0.006230205459435554) 
(0.005395026435335371 8.512874517626073e-06 0.0 2.386367379503001e-05 0.0 0.0066597186811561656) 
(0.005147032212903385 5.216328668058495e-06 0.0 2.45919725019667e-05 0.0 0.006400193745801001) 
(0.005276683614982555 3.9400710247781324e-06 0.0 2.0332084841508826e-05 0.0 0.006535779876126913) 
(0.005247779831819163 2.6365591279472848e-06 0.0 1.874235717151842e-05 0.0 0.00643306685130053) 
(0.005255801966633175 -1.2974933578501329e-06 0.0 2.432994431429303e-05 0.0 0.006479068344329751) 
(0.005505323592226361 -1.9026853801174772e-06 0.0 1.97722199744057e-05 0.0 0.006732219590043106) 
(0.005878068878646574 -1.898421216932399e-06 0.0 2.3785230229252878e-05 0.0 0.007124732630653035) 
(0.005273390582958672 -4.621249822167108e-06 0.0 2.59998855324681e-05 0.0 0.006420486948342835) 
(0.005173261433934916 -5.529660855294809e-06 0.0 1.643873403123615e-05 0.0 0.006350137089783563) 
(0.005346487132685125 -6.35611821360804e-06 0.0 1.9056181789232778e-05 0.0 0.006541468653044556) 
(0.0055295425343119715 -9.387038897562016e-06 0.0 2.1762876809779217e-05 0.0 0.006776017494014986) 
(0.004888146493810485 -9.441593829213043e-06 0.0 1.528832988973818e-05 0.0 0.006037579610395392) 
(0.004897186905203725 -1.0881955470795974e-05 0.0 1.4683967802910711e-05 0.0 0.0058604248973990756) 
(0.00495506789241387 -1.1907916391530086e-05 0.0 1.5228202492765159e-05 0.0 0.005800622600340927) 
(0.005068590065050427 -1.4053606693035852e-05 0.0 1.703213422418706e-05 0.0 0.005960835762488153) 
(0.005320641003525066 -1.9855412913700226e-05 0.0 1.9617622712466754e-05 0.0 0.006188627986477022) 
(0.004902161289623034 -1.5484375785616067e-05 0.0 1.612853651421692e-05 0.0 0.005732309097186776) 
(0.00511458227319469 -1.9636280374235323e-05 0.0 1.8826650150821227e-05 0.0 0.0059802997518148835) 
(0.005033413789212993 -2.2668101382623278e-05 0.0 1.84543194594148e-05 0.0 0.005895090883044523) 
(0.004986781877966679 -2.343732482064047e-05 0.0 1.779658501511213e-05 0.0 0.005772507632312516) 
(0.005310919473011277 -3.221167195484872e-05 0.0 2.8442048563879433e-05 0.0 0.006074042583743725) 
(0.0049147334825965444 -2.9020495856944413e-05 0.0 2.0798224235616572e-05 0.0 0.00565447344119467) 
(0.004298362078504901 -2.169149311980455e-05 0.0 1.3330948301349978e-05 0.0 0.005003946495275274) 
(0.004805383936060166 -3.130999681611551e-05 0.0 1.9492881470105473e-05 0.0 0.005340223493365602) 
(0.005402015611814901 -4.4916306439596674e-05 0.0 3.596481054007709e-05 0.0 0.005847826772719874) 
(0.005385393125866339 -4.895046867009328e-05 0.0 3.7027179142198623e-05 0.0 0.005789842299933595) 
(0.005451508563766172 -5.869208264814267e-05 0.0 4.7875261499078384e-05 0.0 0.0058139694025167235) 
(0.003809162544321834 -2.3964759278713514e-05 0.0 1.0913785390777384e-05 0.0 0.00435147717534067) 
(0.004291968350097332 -3.413517289735477e-05 0.0 1.759508307225989e-05 0.0 0.004793881413296734) 
(0.005034554138673965 -6.049170360310834e-05 0.0 4.238019561590883e-05 0.0 0.005377797660785402) 
(0.005017313214402272 -6.555235906765896e-05 0.0 4.407963386574391e-05 0.0 0.0052184105816421855) 
(0.003494610586171549 -2.5764805116428763e-05 0.0 9.787278578907585e-06 0.0 0.0038755037497770236) 
(0.00432753255772315 -4.434650509472915e-05 0.0 2.2289410568164572e-05 0.0 0.0045046804331163506) 
(0.004929454395100202 -6.868321484598698e-05 0.0 4.589578241675013e-05 0.0 0.0049268514703456265) 
(0.003310725560245304 -2.530449329579211e-05 0.0 9.262422256780489e-06 0.0 0.003612911065388539) 
(0.004335654690019522 -5.220872933140345e-05 0.0 2.6883658227297327e-05 0.0 0.004462581672090817) 
(0.004440873433724303 -6.184930292450232e-05 0.0 3.478166065202373e-05 0.0 0.0044805339413668925) 
(0.003808066105507599 -4.391732400049827e-05 0.0 1.9313665593866036e-05 0.0 0.0040183452678668324) 
(0.004407977109100243 -7.164412576419353e-05 0.0 4.658749116283961e-05 0.0 0.004378057813702366) 
(0.003958579545821786 -5.246047584976046e-05 0.0 2.4066222219878884e-05 0.0 0.00406782589629799) 
(0.002924719870371542 -2.516371039426886e-05 0.0 8.30663954613636e-06 0.0 0.0031638335914947052) 
(0.004170165171446094 -6.46350593750266e-05 0.0 3.724081770651654e-05 0.0 0.00413471156406427) 
(0.0039369606371936665 -5.9358532333949406e-05 0.0 3.268960634382904e-05 0.0 0.003987640603697447) 
(0.003303313972135251 -4.1870107656662845e-05 0.0 1.871291799860082e-05 0.0 0.0035502861979961834) 
(0.003057981126830746 -3.662317035757931e-05 0.0 1.5753713235429633e-05 0.0 0.0033656941608079718) 
(0.0031072094516232354 -4.1096609636324144e-05 0.0 1.9341560716455322e-05 0.0 0.0034669200802947883) 
(0.003527812629697398 -6.506772756850835e-05 0.0 4.0393186503004397e-05 0.0 0.003863506672764608) 
(0.002599581271352498 -3.1884109292450586e-05 0.0 1.5219779039032282e-05 0.0 0.0031617766900958835) 
(0.0029622490253443214 -4.6898038950145684e-05 0.0 2.9653743291429378e-05 0.0 0.003686536587199887) 
(0.002286303287988927 -2.7570096210554015e-05 0.0 1.3847242972690133e-05 0.0 0.0031959117259994234) 
(0.0022012893834010526 -2.469068757871284e-05 0.0 1.5446151160974987e-05 0.0 0.0033336220585012287) 
(0.002554516277015038 2.206857846338778e-05 0.0 2.6168677993879562e-05 0.0 0.00451855940737221) 
(0.0027386875693109604 0.0002702383342382635 0.0 5.664426838566938e-05 0.0 0.005399848237889882) 
(0.0029651004365247517 0.0005471234917965698 0.0 0.0001354079492678694 0.0 0.006013506787300815) 
(0.002987853549146933 0.000816877015445953 0.0 0.0002593885170815225 0.0 0.00633324699940378) 
(0.0028935056638065945 0.0010321696547528657 0.0 0.00040476505184759156 0.0 0.006453164920154595) 
(0.0027103506600202627 0.0011875729407710405 0.0 0.0005562243828209376 0.0 0.0063967448926047525) 
(0.0024462717884744132 0.0012608212893946962 0.0 0.0006830817196888986 0.0 0.006158571127327883) 
(0.0020050069516468825 0.0011794656011914683 0.0 0.0007184979915502984 0.0 0.0053816701384240195) 
(0.001890609406636404 0.0012213938823331081 0.0 0.0008123925696630224 0.0 0.005135063709220574) 
(0.0016737165874206004 0.0011577091390481127 0.0 0.0008196833035752376 0.0 0.004544326985766802) 
(0.0011622067396949286 0.0008474364997622064 0.0 0.0006257323438535909 0.0 0.0032431235789314923) 
(0.0007264663451750454 0.0005481089531632676 0.0 0.00041649980819574196 0.0 0.0020835493025502996) 
(0.0005836207109485561 0.00044743539474273507 0.0 0.00034428371858680006 0.0 0.0016965431099678406) 
(0.0006957428180575943 0.0005283185545951621 0.0 0.00040480386398843626 0.0 0.0020897012287256584) 
(0.0007505066512845978 0.0005717730382197803 0.0 0.00044254861075494707 0.0 0.002369023308215062) 
(0.000685413630609145 0.0005322069494703576 0.0 0.00041875382723913885 0.0 0.0022797731345287845) 
(0.00046638885417753543 0.0003751462617286645 0.0 0.0003026079159891325 0.0 0.0015691965785311435) 
(0.0005015325287173209 0.00041600472889822274 0.0 0.00034605398528720857 0.0 0.0017475686263853547) 
(0.0007342153525137472 0.0006106001793525286 0.0 0.0005094162657488715 0.0 0.0025946046424248736) 
(0.0007864847564727913 0.0006546842237219339 0.0 0.0005465399517106932 0.0 0.002501046641672505) 
(0.0008335963566911527 0.0006683087206500299 0.0 0.0005371893159607335 0.0 0.002247396274570818) 
(0.0013416871546316135 0.0009668980746073149 0.0 0.0006989308909759799 0.0 0.003123757224515194) 
(0.0017278903026190374 0.0011029239415466638 0.0 0.0007060998351369002 0.0 0.0029557615651074217) 
(0.0012905529530591858 0.000649524452336441 0.0 0.00032791933349203106 0.0 0.0014312110965919427) 
(0.0009698701285871416 0.0003008132548372842 0.0 9.379995116307529e-05 0.0 0.0006162608099574406) 
(0.0014067360529429547 0.00019104346681300812 0.0 2.635444325661729e-05 0.0 0.0006839088287823435) 
(0.0019826480398393302 5.868668322536071e-05 0.0 4.056989292352184e-06 0.0 0.001244736511633617) 
(0.00284191425852191 -3.0184695687690995e-05 0.0 7.502636030646656e-06 0.0 0.001772438920264654) 
(0.02197142426508512 -0.0005354759623014785 0.0 0.0002339291129534629 0.0 0.012213903030697124) 
(0.024451797642269776 -0.001236306841419311 0.0 0.0002787462544651711 0.0 0.013932787738727002) 
(0.014816135671621341 -0.0020397481447150955 0.0 0.00039329412671584114 0.0 0.009565372266052552) 
(0.00722301609140341 -0.0020644311261627185 0.0 0.0006977944559979313 0.0 0.006701499953792351) 
(0.005470732271878682 -0.0027022046329319488 0.0 0.0015295997580472786 0.0 0.006381316261435732) 
(0.004692853058952868 -0.0030011366964135346 0.0 0.002209441768507266 0.0 0.0065143065930693585) 
(0.004526470123529283 -0.003264859207021127 0.0 0.002582832234426813 0.0 0.006456046355384146) 
(0.003858805445618587 -0.0030899506844229278 0.0 0.002608076621232204 0.0 0.005431662360753482) 
(0.003394679337188479 -0.00282313859964416 0.0 0.0024449542375148525 0.0 0.004877172621014136) 
(0.0031499625685868196 -0.002633514766597296 0.0 0.0022724374178617335 0.0 0.004397981280045737) 
(0.002806889639056116 -0.002327014352639146 0.0 0.0019825889964974323 0.0 0.0037855439675125047) 
(0.0026802659843016214 -0.002158997275915961 0.0 0.0017818399731760123 0.0 0.0034662838544966116) 
(0.0026510027332877287 -0.0021035504647458087 0.0 0.001706289650662985 0.0 0.0032746427056419775) 
(0.0026767362888889647 -0.002083396352710115 0.0 0.0016557935676980245 0.0 0.003111725892676791) 
(0.0027850246810633725 -0.0021260079243703048 0.0 0.0016599348302200835 0.0 0.0030884073253585054) 
(0.0029241860401129117 -0.002224235406364879 0.0 0.0017279991383010898 0.0 0.003092463326079596) 
(0.003081108030949252 -0.0023214875841372166 0.0 0.0017869138666417519 0.0 0.003203464870448475) 
(0.0035021910249133552 -0.0025638144159894696 0.0 0.0019271238956359506 0.0 0.0036283197081778853) 
(0.003909254149690478 -0.002719537565621896 0.0 0.0019644541195450596 0.0 0.004065767463811483) 
(0.004388997795872771 -0.0028534562679661374 0.0 0.0019423968706117813 0.0 0.0046508151921051885) 
(0.00496252677050022 -0.0029731129153161492 0.0 0.001889511959450549 0.0 0.005332939240029055) 
(0.005761636116236583 -0.0029900155065404515 0.0 0.0016921511487223784 0.0 0.006166066390689463) 
(0.006564140868857411 -0.002884972964469876 0.0 0.0014400281063882301 0.0 0.006918088575628929) 
(0.007484352793576034 -0.00269050018259335 0.0 0.0011737016505024324 0.0 0.007657417033919608) 
(0.008404370843085828 -0.00231787373270805 0.0 0.000883620118088698 0.0 0.008387245117127774) 
(0.00932083054376658 -0.0017901814523119343 0.0 0.0006078610849609806 0.0 0.009092456936522362) 
(0.009996531544203536 -0.0010701673165703046 0.0 0.0004042266290030449 0.0 0.009565657724084646) 
(0.010768930594773164 -0.00026634939011382127 0.0 0.0003097309836604764 0.0 0.009972776235326941) 
(0.012062553192089289 1.4147645168906382e-05 0.0 0.00032504621297810683 0.0 0.010814824507051601) 
(0.0133515800316782 4.3497656650374484e-05 0.0 0.0003663945909939771 0.0 0.012472982049024969) 
(0.014274233800595736 4.098018430691311e-05 0.0 0.00039891518869531893 0.0 0.01396650596245513) 
(0.015193945473668986 5.220423256348949e-05 0.0 0.00040909872714084476 0.0 0.015547945904951265) 
(0.015607003656299703 5.532808868758451e-05 0.0 0.0004403728475535821 0.0 0.016884119106959725) 
(0.0159288395595674 3.149543020603741e-05 0.0 0.0004650929178168042 0.0 0.0183573584493022) 
(0.016408606254951892 2.2783068829454525e-05 0.0 0.0004740243693355167 0.0 0.01950248229066624) 
(0.016694508418541164 -2.0831086118077823e-06 0.0 0.0004871376778618621 0.0 0.02058304861735314) 
(0.01734145668873511 -2.451909389591536e-05 0.0 0.0004938328260853447 0.0 0.021381277087485523) 
(0.01801879385275016 -2.1395145815377575e-05 0.0 0.0004856505808563181 0.0 0.02218144176847913) 
(0.018402637082863868 -3.742762420580699e-05 0.0 0.0004920147987565845 0.0 0.022931578756835224) 
(0.01878985706673554 -4.597706991666906e-05 0.0 0.0005050238080972413 0.0 0.02295343264670096) 
(0.01915573332451804 -3.685466608666699e-05 0.0 0.00048527014823129453 0.0 0.02358589999375628) 
(0.018940693543638545 -6.478923622435344e-05 0.0 0.0005073732714267102 0.0 0.02380501915031976) 
(0.0193138380819986 -7.903539149630993e-05 0.0 0.0004849089363716317 0.0 0.02411781078373138) 
(0.019391150176510424 -9.52524434055692e-05 0.0 0.0004971646250765947 0.0 0.024051094371999385) 
(0.01993339652485188 -0.00010088197361453807 0.0 0.0004708182155949245 0.0 0.024289147626220843) 
(0.020131214500138495 -0.00011416736055331021 0.0 0.00047340189753949214 0.0 0.024500194025410697) 
(0.020439428310184103 -0.0001449281399326496 0.0 0.00047869928244278657 0.0 0.024573348443599076) 
(0.02083075421108473 -0.00011583074589379511 0.0 0.0004581906605729072 0.0 0.024768755841708182) 
(0.020734258501828383 -0.00012009224145059781 0.0 0.0004483657105848833 0.0 0.024518075783231175) 
(0.02045254725577495 -0.0001443890586592401 0.0 0.0004551631951532142 0.0 0.024305299010799204) 
(0.020209997764334506 -0.00014915432277142322 0.0 0.0004409259209640751 0.0 0.02386011461922307) 
(0.02024815466705645 -0.0001520386005917003 0.0 0.0004248775672511903 0.0 0.023803121036901787) 
(0.020144087400158644 -0.0001767085891776484 0.0 0.0004160469014394475 0.0 0.023503830581622333) 
(0.0202346264682616 -0.00019118787357899684 0.0 0.00040407234122923357 0.0 0.02288516381985519) 
(0.0203122755647419 -0.00018569726175014735 0.0 0.0003947902624203719 0.0 0.02243280091406303) 
(0.02005555851832862 -0.00018675122926978212 0.0 0.00038972642407744765 0.0 0.02221381782788582) 
(0.020038106658783236 -0.00021159115446927725 0.0 0.00038221665426564806 0.0 0.021924556569686213) 
(0.01974792640632796 -0.00019530883562250917 0.0 0.00037656594897303295 0.0 0.02155335954606286) 
(0.019388816908771134 -0.00020383318627500928 0.0 0.00036943271998593155 0.0 0.021247397578863854) 
(0.01928676951381659 -0.00022310007583552064 0.0 0.00036394039437531587 0.0 0.02095565820227746) 
(0.019180810201946927 -0.00022643819794416413 0.0 0.0003558780772898658 0.0 0.020667749001455512) 
(0.018808977838812226 -0.0002281040433157783 0.0 0.0003511873496834346 0.0 0.020397847697326867) 
(0.01854620943477009 -0.0002375335172829739 0.0 0.0003371785765881654 0.0 0.01989814347997245) 
(0.018260803226639293 -0.0002447240149958482 0.0 0.0003303618932614376 0.0 0.019331729592123655) 
(0.018275455177681338 -0.0002539737631934366 0.0 0.0003251389717513003 0.0 0.01888434362198621) 
(0.01802154758920443 -0.00025343899248894875 0.0 0.00032645173842676836 0.0 0.018584407223468387) 
(0.017867177212202878 -0.0002627235573571213 0.0 0.0003226313471757365 0.0 0.018305265898568228) 
(0.017527367833958266 -0.00026599758410557795 0.0 0.0003144803631477194 0.0 0.01808512213969644) 
(0.017160869211890438 -0.0002694085214423109 0.0 0.00029854382139670853 0.0 0.017563811050388033) 
(0.01663822937960427 -0.0002688997276522118 0.0 0.00029763227708397673 0.0 0.017046341298174852) 
(0.016292030592849345 -0.0002771785219981312 0.0 0.00029309571303997087 0.0 0.016600728263410545) 
(0.016259980679830068 -0.0002814825284665946 0.0 0.00027314949661688426 0.0 0.016194359956778755) 
(0.016117950480090782 -0.00028605152247649447 0.0 0.00026820916648066437 0.0 0.01580924154643996) 
(0.01583968395347955 -0.0002788741440860371 0.0 0.00027433349597920793 0.0 0.015345174170992869) 
(0.015697370435536397 -0.0002796923935906262 0.0 0.0002623115233152929 0.0 0.015181341290406275) 
(0.015488746806868686 -0.0002810254917846748 0.0 0.0002565072903675612 0.0 0.014878843523400711) 
(0.01500343841356059 -0.00028394937499859395 0.0 0.0002630942853749529 0.0 0.014490834203639003) 
(0.014917991723035436 -0.0002876301535889208 0.0 0.0002497479472168289 0.0 0.014300053424613823) 
(0.014526220397002437 -0.00028995976913227106 0.0 0.0002506381761606638 0.0 0.014008522603335086) 
(0.014397547857185887 -0.00028804194395450945 0.0 0.0002384831165637328 0.0 0.013780290683300268) 
(0.014167063928212218 -0.00029476227543175906 0.0 0.0002466025239595861 0.0 0.013477789600779598) 
(0.014144818454877903 -0.0002892057131388168 0.0 0.00023064094979700672 0.0 0.013339549233455799) 
(0.01373146179684297 -0.0002743518386724578 0.0 0.00022684812526401464 0.0 0.013092963481601567) 
(0.013180852442454653 -0.00026971170360485505 0.0 0.00022896201157714848 0.0 0.012761282121095171) 
(0.012689388843059703 -0.0002703038465575347 0.0 0.00022542323710431113 0.0 0.01251253812369656) 
(0.012278652156606965 -0.0002657230249105393 0.0 0.000220955407826992 0.0 0.012324956192501183) 
(0.011770683509111087 -0.000257384176226564 0.0 0.00021871099371445154 0.0 0.01214962612692758) 
(0.011339341766358861 -0.0002562802752342082 0.0 0.00021201159126796342 0.0 0.01203457686731831) 
(0.010882164363119642 -0.00023981345855752628 0.0 0.00020852127070029 0.0 0.012098834131957335) 
(0.010166496616482383 -0.00022791947971103406 0.0 0.00021529125232566074 0.0 0.012116598421787417) 
(0.009465119292134373 -0.00022150163566673798 0.0 0.0002110148149410025 0.0 0.012270460301951367) 
(0.008776038169480855 -0.00020111689442015132 0.0 0.0002139209129485666 0.0 0.012676694788509732) 
(0.008412238331261535 4.49895437925045e-06 0.0 0.00024053786500846807 0.0 0.014580264506662098) 
(0.008702448814148587 0.0007225250283070406 0.0 0.0003333627512916489 0.0 0.01724012327306709) 
(0.009347570226851551 0.0015963635175172868 0.0 0.0005657300411012451 0.0 0.019546833186296967) 
(0.009410198321534939 0.0024209894004733495 0.0 0.000948409085197422 0.0 0.02075493784727825) 
(0.009356577922523009 0.003206573965329695 0.0 0.001426596371596589 0.0 0.021709256530950224) 
(0.009008626005153633 0.0038410995952409197 0.0 0.001960365813887625 0.0 0.022275628072048827) 
(0.008569702696343485 0.004322837289160541 0.0 0.0024890348665501756 0.0 0.022546244329309666) 
(0.008182862535571848 0.004789051597723731 0.0 0.0030750931078350613 0.0 0.022335565210030196) 
(0.007954995438766418 0.00504708747273832 0.0 0.0034553829288102226 0.0 0.022164925858869203) 
(0.007553328652815809 0.005120167985949745 0.0 0.0037055949313060214 0.0 0.021525696059541452) 
(0.007384737689001953 0.0052493361927685375 0.0 0.003916649706561742 0.0 0.021275571768822867) 
(0.0069666443903761924 0.005083443857720117 0.0 0.003861762979530328 0.0 0.020254273516091655) 
(0.006826356862456804 0.005017711196449353 0.0 0.0038271016859513785 0.0 0.02018674981997702) 
(0.006575486847791783 0.004832998473577141 0.0 0.0036865375087546818 0.0 0.02012321864061979) 
(0.006382321351811758 0.004773418102049724 0.0 0.003687744781515589 0.0 0.02029103519668546) 
(0.006128506700573778 0.004659797866202009 0.0 0.0036526720455750204 0.0 0.0203778202525396) 
(0.006153792040507606 0.004747401031346609 0.0 0.003773058688183931 0.0 0.02050026179310218) 
(0.006072684634464087 0.00479079800982209 0.0 0.0039006844538648747 0.0 0.02129808046367632) 
(0.006651660043761553 0.005237038018369628 0.0 0.004268501866809877 0.0 0.02350873222940208) 
(0.007056101010021503 0.005541124688559572 0.0 0.004523969296134264 0.0 0.024307784336655057) 
(0.00784647204713817 0.005888534034213705 0.0 0.004617638219267833 0.0 0.024960010974714633) 
(0.008920006452988242 0.005992654754552631 0.0 0.004283022823863663 0.0 0.026102851776226215) 
(0.010041142461670182 0.005931352766783189 0.0 0.003750155800983054 0.0 0.02463090422192121) 
(0.01341584817936555 0.006203718435324112 0.0 0.0029973864914495723 0.0 0.01984572446016794) 
(0.017849714566469915 0.005000817246744219 0.0 0.0014616532823824066 0.0 0.01306398113959084) 
(0.020891777645137874 0.002753846347694961 0.0 0.0003888872497995781 0.0 0.008654769671044983) 
(0.016243129695297034 0.0004871777162377848 0.0 5.967713020907676e-05 0.0 0.006480442317205178) 
(0.016582635958472647 -0.000268048227210553 0.0 0.00012763779199199027 0.0 0.007913450744180841) 
(0.04500659889765005 -0.0017400197822687578 0.0 0.000817213936026842 0.0 0.020036652710607575) 
(0.04882466639760184 -0.0030036750718296034 0.0 0.0009742094098283839 0.0 0.023279011207906153) 
(0.03590499001865945 -0.004787423743392697 0.0 0.0011906587409826845 0.0 0.017840971942639387) 
(0.017279533102965407 -0.00454696950904899 0.0 0.0017021947804727274 0.0 0.013570072891383149) 
(0.010397929516483936 -0.004879705478383529 0.0 0.0029105544772145553 0.0 0.013014512880948056) 
(0.008672746383172307 -0.005350944488735394 0.0 0.00398525403890125 0.0 0.012078111542639117) 
(0.007199403768877224 -0.005072834960222176 0.0 0.004179038579697238 0.0 0.010723294903239568) 
(0.006349256742311507 -0.004966436321441859 0.0 0.004304839401319961 0.0 0.009548786719030937) 
(0.005679318327120505 -0.0046169087895871555 0.0 0.004112025696969014 0.0 0.008789781999332632) 
(0.005374509113922773 -0.0044154037915692945 0.0 0.00393709102260866 0.0 0.008136432255200382) 
(0.005233348136788895 -0.004247998609674219 0.0 0.0037095260955963567 0.0 0.007471797391319705) 
(0.0053045630826186775 -0.0042090933003013494 0.0 0.0035603716126929967 0.0 0.00713700050818751) 
(0.005471992564054564 -0.00427499794915417 0.0 0.00354551430864422 0.0 0.006857699312708516) 
(0.005725395101717492 -0.004388850059105167 0.0 0.003560394251557907 0.0 0.0066093922219536295) 
(0.006053343389435313 -0.004553188571762876 0.0 0.0036247522098678073 0.0 0.006516000567782022) 
(0.006458311761337876 -0.004833124106844108 0.0 0.003824867470160884 0.0 0.006546237894882949) 
(0.006719016297234038 -0.004962312775914215 0.0 0.0038790527622979925 0.0 0.0066108904919429615) 
(0.00729959108703159 -0.005239353735143316 0.0 0.0040173931704299524 0.0 0.0071742674014935795) 
(0.007672874895492947 -0.005222111378581641 0.0 0.0038699607348760797 0.0 0.007681507492035808) 
(0.0082752830458706 -0.005242462156633597 0.0 0.003693582758405583 0.0 0.00838598765215655) 
(0.00885687715577694 -0.005152733200071833 0.0 0.003441226917906855 0.0 0.009229482193350336) 
(0.009736121960203558 -0.0048902051826918815 0.0 0.0029801459955179684 0.0 0.010148850941107113) 
(0.01068337192895491 -0.004528740976748843 0.0 0.0025230284678701576 0.0 0.010986487166703935) 
(0.01172641420630276 -0.0040491977506099935 0.0 0.002089735361529237 0.0 0.011785329655760422) 
(0.012794166314876145 -0.003358761140340549 0.0 0.0016636258484664388 0.0 0.012589374611440442) 
(0.01374037045022268 -0.0024781109535104823 0.0 0.0013091063216478561 0.0 0.013215200698195049) 
(0.014641003475768535 -0.001465630608046812 0.0 0.0010625647293407464 0.0 0.013763346215823346) 
(0.015901136587752298 -0.00044696286617052676 0.0 0.000983806986494557 0.0 0.014513764042033146) 
(0.017610607769384425 -0.00012458713004031305 0.0 0.001077033870305077 0.0 0.01619760092060777) 
(0.018893945435110818 -0.00010359974799282772 0.0 0.001205053995320298 0.0 0.018460282032327035) 
(0.019855449125387524 -0.00012332431204749013 0.0 0.0012838513497865748 0.0 0.02059750934139848) 
(0.02056126728931075 -0.00014359253207409426 0.0 0.0013652467188438899 0.0 0.02255690201119414) 
(0.021128961173816175 -0.0001515506468777436 0.0 0.0014382281963427012 0.0 0.024408684568578604) 
(0.021582243356090693 -0.00021186167136044232 0.0 0.0015026977834292658 0.0 0.02640963421234948) 
(0.02207998248065585 -0.00024730471194835666 0.0 0.0015439115386755686 0.0 0.027925149777726237) 
(0.02246686347387918 -0.0002997817578045101 0.0 0.0015799612018258205 0.0 0.029442176947181417) 
(0.023234795234168146 -0.00035550618119578224 0.0 0.001612784266037428 0.0 0.030496446960918976) 
(0.02393702432190872 -0.00035921824862591094 0.0 0.0016324417540766294 0.0 0.03136409208582394) 
(0.024527440360104204 -0.0003991389245660165 0.0 0.001659551395161473 0.0 0.03238815250416432) 
(0.02529558708872409 -0.00038134953816352455 0.0 0.0016480310029944854 0.0 0.03281508077579395) 
(0.025486667325666363 -0.0003726486603274238 0.0 0.0016537455688320013 0.0 0.03329853549304589) 
(0.025610685254049616 -0.00040610870902079544 0.0 0.001669521206841544 0.0 0.033895602493194905) 
(0.02594709790891566 -0.00044768765036994664 0.0 0.0016566928044863777 0.0 0.0340661260244519) 
(0.026425183652313243 -0.0004542152334970968 0.0 0.0016406013417267578 0.0 0.034397731891838514) 
(0.026983804838260725 -0.0004754180685338585 0.0 0.0016165228233643483 0.0 0.03446812334557157) 
(0.027492459939951096 -0.0004869716888725713 0.0 0.0016104444969084804 0.0 0.03491899237745815) 
(0.028145957589763234 -0.0005293060178325698 0.0 0.001598123104413306 0.0 0.03525879725150114) 
(0.028563182545904876 -0.0004597579982279458 0.0 0.0015822649556759443 0.0 0.0353593377901497) 
(0.02851204088942599 -0.00044962309600016145 0.0 0.0015565910900645153 0.0 0.03512777418620142) 
(0.028464217511492265 -0.00047829482915059897 0.0 0.0015407871400262526 0.0 0.035130505689710434) 
(0.028189188323338596 -0.00048129035938156584 0.0 0.0015062386203311224 0.0 0.034444471456738686) 
(0.028205199486503477 -0.0004966990210206172 0.0 0.0014925105136115418 0.0 0.03405962577552224) 
(0.028192551895535208 -0.0005291414996351206 0.0 0.0014691004445015676 0.0 0.03374818499753597) 
(0.028320037100462964 -0.0005456665670448997 0.0 0.0014309329733029443 0.0 0.03292030476043803) 
(0.028491405962679822 -0.0005282338324300971 0.0 0.0013978703308563348 0.0 0.032419751067059376) 
(0.02836891690542956 -0.0005142039562265509 0.0 0.0013837455855136838 0.0 0.032154208469467586) 
(0.02843849730574799 -0.0005449585377990227 0.0 0.0013550337327060554 0.0 0.03181105167497682) 