/*--------------------------------*- C++ -*----------------------------------*\
| =========                 |                                                 |
| \\      /  F ield         | OpenFOAM: The Open Source CFD Toolbox           |
|  \\    /   O peration     | Version:  2.4.0                                 |
|   \\  /    A nd           | Web:      www.OpenFOAM.org                      |
|    \\/     M anipulation  |                                                 |
\*---------------------------------------------------------------------------*/
FoamFile
{
    version     2.0;
    format      ascii;
    class       volVectorField;
    location    "0";
    object      U_LES;
}
// * * * * * * * * * * * * * * * * * * * * * * * * * * * * * * * * * * * * * //

dimensions      [0 1 -1 0 0 0 0];

internalField   nonuniform List<vector> 
15600
(
(0.004179124320744374 -2.5265188842701984e-05 0.0) 
(0.010811644318105119 -0.00039834431271895324 0.0) 
(-0.001549624994098468 0.00026048452326011407 0.0) 
(-0.003221069441625257 0.0010151412926550029 0.0) 
(-0.005024836791106069 0.0025691797842675185 0.0) 
(-0.005810992433684186 0.0037604545693969435 0.0) 
(-0.004597045183473678 0.0033642946306492575 0.0) 
(-0.003223916002328398 0.0026208496673169176 0.0) 
(-0.0028465944619350137 0.002404217413389856 0.0) 
(-0.0027115480855206234 0.002293815848052742 0.0) 
(-0.0022524516555176904 0.0018968930511336106 0.0) 
(-0.002230538281713907 0.0018208755717473506 0.0) 
(-0.0029210034630508617 0.0023538373335725313 0.0) 
(-0.0037046583889767393 0.002937660381429204 0.0) 
(-0.004718282620471152 0.0036788496927824647 0.0) 
(-0.0058989292710952025 0.0045968420080672425 0.0) 
(-0.008084799954692978 0.006232828305477963 0.0) 
(-0.010901521757709627 0.008194505429997528 0.0) 
(-0.014199293733475707 0.01022937378528188 0.0) 
(-0.017331009120252247 0.011694543817014298 0.0) 
(-0.020125566971164775 0.012337778698097586 0.0) 
(-0.024706345411469034 0.013396376415881442 0.0) 
(-0.02778326030696469 0.012871850504883266 0.0) 
(-0.03012824320813721 0.011472626047430235 0.0) 
(-0.031909464694511815 0.009493663300782709 0.0) 
(-0.032319602497298226 0.0067424666828619344 0.0) 
(-0.03281441830685708 0.00413155466882029 0.0) 
(-0.034733014904857966 0.0013035946776653639 0.0) 
(-0.04009693739550751 0.00031187507005110357 0.0) 
(-0.047976413898092145 0.00020097713077012682 0.0) 
(-0.05399186453741138 0.00014206813757938093 0.0) 
(-0.05827845595990299 0.00011049899053049405 0.0) 
(-0.061646650668370204 8.032142155258348e-05 0.0) 
(-0.06348935557000718 4.7391941975977486e-05 0.0) 
(-0.06405823054045219 2.4380899776776636e-05 0.0) 
(-0.06454830230402199 -2.5316818279471244e-06 0.0) 
(-0.06426442938469515 -1.619593398878168e-05 0.0) 
(-0.0626452775684341 -3.523180615485096e-05 0.0) 
(-0.06182325242775587 -6.229079261934536e-05 0.0) 
(-0.0588933355307739 -4.093171595229924e-05 0.0) 
(-0.05716933144311198 -5.432138618316919e-05 0.0) 
(-0.05457377719863209 -6.944938794457373e-05 0.0) 
(-0.05204245441973615 -8.089571025584386e-05 0.0) 
(-0.04924199173360152 -8.041968862739346e-05 0.0) 
(-0.04660455519959668 -7.123947768454027e-05 0.0) 
(-0.043007451892430895 -9.674675958824563e-05 0.0) 
(-0.039845622934532185 -8.784991564626243e-05 0.0) 
(-0.03615189134534393 -8.124709089470342e-05 0.0) 
(-0.0336628180174024 -8.820025806260879e-05 0.0) 
(-0.03147005316526176 -8.966541026919881e-05 0.0) 
(-0.027537612685958904 -8.426177957087633e-05 0.0) 
(-0.024624691152067574 -7.918861910273215e-05 0.0) 
(-0.022264156526541005 -9.060127824175659e-05 0.0) 
(-0.01868714814628524 -7.860138399591691e-05 0.0) 
(-0.015920892086087778 -6.862640043980782e-05 0.0) 
(-0.013068477971391823 -7.242748622641176e-05 0.0) 
(-0.010389733925797713 -6.36567336335978e-05 0.0) 
(-0.008826700604138517 -6.820788370503918e-05 0.0) 
(-0.005850415770627661 -8.464015428756793e-05 0.0) 
(-0.003032382436370626 -6.740353293778568e-05 0.0) 
(-0.0009033280084314968 -6.15870358457156e-05 0.0) 
(0.0018300280728968808 -8.594522469397692e-05 0.0) 
(0.004193277229071484 -7.114411553275344e-05 0.0) 
(0.005714860262670679 -4.7896862894465005e-05 0.0) 
(0.007536163414500616 -5.5079304942976834e-05 0.0) 
(0.009866760409392498 -8.436301161359703e-05 0.0) 
(0.011918873217575125 -8.252413477139767e-05 0.0) 
(0.014087148551832778 -9.79126364604948e-05 0.0) 
(0.015315791701419942 -4.132979167564372e-05 0.0) 
(0.016794346413670995 -4.597351093348889e-05 0.0) 
(0.01845301126855072 -7.631152935717845e-05 0.0) 
(0.01988013939716557 -5.6442517325513346e-05 0.0) 
(0.020527151611627534 -2.058054353792425e-05 0.0) 
(0.02138216887212662 -2.955963129079534e-05 0.0) 
(0.022297342403679497 -4.607140233811033e-05 0.0) 
(0.02288118924184855 -2.1018561934889646e-05 0.0) 
(0.023929384538353565 -2.7038975309663507e-05 0.0) 
(0.02437576758477098 -2.0267699206396464e-05 0.0) 
(0.02476638095771126 -7.617354378468815e-06 0.0) 
(0.024630305442403667 3.299447031612579e-06 0.0) 
(0.02475877208995672 2.39968390779195e-06 0.0) 
(0.024197357326786184 2.7335684335975493e-06 0.0) 
(0.024701908440260552 5.343142262555979e-06 0.0) 
(0.02458587486166041 1.3928490698373054e-05 0.0) 
(0.023953076013960434 3.385717738018338e-05 0.0) 
(0.022763720952842972 4.416327087185933e-05 0.0) 
(0.02179103584069808 5.232448726658395e-05 0.0) 
(0.021027300679215304 0.00010547163102386773 0.0) 
(0.01755521595006495 8.834379420248435e-05 0.0) 
(0.016530830394706746 0.00012546159342726503 0.0) 
(0.012157954495390772 0.00012576889684546912 0.0) 
(0.008259702049411104 0.00018721132178210436 0.0) 
(0.004568624740623895 0.00029329496485010735 0.0) 
(0.0040928520916232464 0.0004047806626317705 0.0) 
(0.0068177942754814435 0.0012515931939018285 0.0) 
(0.010322627838056209 0.0028394327192774954 0.0) 
(0.01376451454525177 0.005018833390153085 0.0) 
(0.01677254065610937 0.007507617642613038 0.0) 
(0.019634419117866918 0.01035547262175832 0.0) 
(0.02068459106275626 0.012416831206670767 0.0) 
(0.022842409926137036 0.015091996523598411 0.0) 
(0.02446577275674411 0.01729232395687857 0.0) 
(0.025730165360430636 0.019103827536489926 0.0) 
(0.026730615690132464 0.020459194320824485 0.0) 
(0.027956735103025418 0.021625664531652274 0.0) 
(0.030742837298545482 0.023765510451261754 0.0) 
(0.033319037151037366 0.026143156611028937 0.0) 
(0.03760501659085573 0.030053195643459606 0.0) 
(0.03844350771813798 0.031275976396042564 0.0) 
(0.0427300313749249 0.03589088878954945 0.0) 
(0.0576044530426479 0.04860970054557212 0.0) 
(0.06279585216603784 0.05299678565143262 0.0) 
(0.06723266090009608 0.05466547680849391 0.0) 
(0.0904275167782282 0.06623945552232988 0.0) 
(0.10034686297398777 0.0651963370576244 0.0) 
(0.07331200556405135 0.03757607795177596 0.0) 
(0.04714103854800918 0.014995334469242935 0.0) 
(0.052564168862069174 0.0073548322165532115 0.0) 
(0.022846653629971216 0.0008745109603258017 0.0) 
(0.00852025151407166 0.0001315555323475249 0.0) 
(0.05477697517644249 -0.000575928874041854 0.0) 
(0.07256675184621472 -0.0028224005772268827 0.0) 
(0.03147363729060252 -0.0018254376150358413 0.0) 
(-0.020333633490624625 0.006639545068067597 0.0) 
(-0.030403956596787986 0.014707481346325522 0.0) 
(-0.024056516189744092 0.014956116460309688 0.0) 
(-0.017417593510130315 0.012395899010207934 0.0) 
(-0.013812649549745116 0.01098858606183468 0.0) 
(-0.011596010856574489 0.00967444946929829 0.0) 
(-0.010745923001877898 0.009024814239008135 0.0) 
(-0.010610198582533988 0.008910543611696927 0.0) 
(-0.01122653882978715 0.009234040166570345 0.0) 
(-0.013358534160258343 0.010876614578910822 0.0) 
(-0.01684805905477919 0.013529169076550976 0.0) 
(-0.022058190284577513 0.01742379922176156 0.0) 
(-0.02799691953558001 0.022061740781575214 0.0) 
(-0.03556269170206682 0.027815947525812547 0.0) 
(-0.04424578161572068 0.03368845780486804 0.0) 
(-0.05183554146168842 0.037842748963165126 0.0) 
(-0.06011497348961281 0.041246068863859495 0.0) 
(-0.06780941771358293 0.04304928631188794 0.0) 
(-0.07428968838227798 0.041233404345152436 0.0) 
(-0.07971592795364049 0.03785757950858454 0.0) 
(-0.08380424346068782 0.0327406719443343 0.0) 
(-0.08605779764819689 0.026102861024921507 0.0) 
(-0.08659706966042509 0.01858325392233611 0.0) 
(-0.0864183943648004 0.010972914907977416 0.0) 
(-0.09237053525002563 0.00442770867718361 0.0) 
(-0.10871483427523056 0.0018717616583585773 0.0) 
(-0.12485841231480513 0.0012767860237057123 0.0) 
(-0.1359041706957403 0.0009290750563311782 0.0) 
(-0.14480155205559658 0.0006792310618126805 0.0) 
(-0.1493743637243628 0.0004695174053857944 0.0) 
(-0.15229056241005784 0.00022442487665293268 0.0) 
(-0.15309422917300847 4.8550121373717176e-05 0.0) 
(-0.15216399404060765 -0.0001161125805231416 0.0) 
(-0.14905387557144906 -0.00023173969181751098 0.0) 
(-0.1465743860979765 -0.00028049285741453073 0.0) 
(-0.14201876554801038 -0.0004998783238919175 0.0) 
(-0.13462506247571684 -0.0004153331400799588 0.0) 
(-0.13110264183105896 -0.00040656142848913626 0.0) 
(-0.12420097814380185 -0.0005669119588406445 0.0) 
(-0.11803474613943601 -0.000582047752675827 0.0) 
(-0.10971499859686273 -0.0006445701486761495 0.0) 
(-0.1034433767463838 -0.0005795580826375529 0.0) 
(-0.09580484512639778 -0.0006726210052590559 0.0) 
(-0.0868723013608801 -0.0006700704450825419 0.0) 
(-0.08029154249814435 -0.0005806362521064924 0.0) 
(-0.07355343521840477 -0.0005697128465926522 0.0) 
(-0.06541807942716184 -0.0006903130256991574 0.0) 
(-0.05720073506397479 -0.0006291963096081111 0.0) 
(-0.051384375599945006 -0.0005682722572307492 0.0) 
(-0.043595307337404916 -0.0006848638145832324 0.0) 
(-0.03551156106713612 -0.0006217725841551841 0.0) 
(-0.028976987228199785 -0.0005303802608177699 0.0) 
(-0.022613299248306518 -0.0005287484299580634 0.0) 
(-0.01672571689053576 -0.000476350763783565 0.0) 
(-0.010714392425514726 -0.0005192683214757113 0.0) 
(-0.004161317333730974 -0.0005595282181843027 0.0) 
(0.0021113520697918055 -0.00047988161334367065 0.0) 
(0.00743051750623906 -0.0004681516075804986 0.0) 
(0.013376244048248715 -0.0005048524783277043 0.0) 
(0.01931876905707037 -0.0004613441244505937 0.0) 
(0.02437461129970075 -0.0003785741901342641 0.0) 
(0.02888912054452645 -0.00039330130316978743 0.0) 
(0.03386441311362347 -0.000405824187846893 0.0) 
(0.038562971037791105 -0.0004129978010722147 0.0) 
(0.04395581851322823 -0.00042197450328977057 0.0) 
(0.04850267180467035 -0.0003259229687667912 0.0) 
(0.052060286852028355 -0.00032766021150094026 0.0) 
(0.05597701307559879 -0.00030911641324451306 0.0) 
(0.05940686121076637 -0.00022123824653211228 0.0) 
(0.0618955306413174 -0.00016665326763187183 0.0) 
(0.06354842089645452 -0.0001883391263749438 0.0) 
(0.06638696648482198 -0.00017893268431143567 0.0) 
(0.0685155842722363 -0.00016553206696160328 0.0) 
(0.07012852284475965 -0.00013279187459419283 0.0) 
(0.07179270764031762 -0.00010268779201396102 0.0) 
(0.07274220376022471 -5.49658929284337e-05 0.0) 
(0.07325794833861266 1.2633119116134524e-05 0.0) 
(0.07290015062192765 4.829195205323751e-07 0.0) 
(0.07340230513516176 2.196119454948199e-05 0.0) 
(0.07339738912171828 1.9091860621437333e-05 0.0) 
(0.0727497228174695 6.486313145418676e-05 0.0) 
(0.07160502171456917 0.00016952665820529442 0.0) 
(0.06935870006682388 0.00022709183210643547 0.0) 
(0.06649737041132844 0.0002746077753788765 0.0) 
(0.06262642049780184 0.00041174375013700254 0.0) 
(0.05753249694698421 0.0004826952210636474 0.0) 
(0.05164153049521633 0.0005718510527580806 0.0) 
(0.04393656564678236 0.0007505557315531263 0.0) 
(0.033780305243408346 0.0010568121501762834 0.0) 
(0.023685836815830322 0.0014693036863761854 0.0) 
(0.02257476564691688 0.0024990067021668705 0.0) 
(0.027902157162578843 0.005294239986986078 0.0) 
(0.035571053649478206 0.009880148583622897 0.0) 
(0.04357513884162997 0.016008696894265696 0.0) 
(0.052268068328943346 0.02359613347185948 0.0) 
(0.06161559967869491 0.03282926786793221 0.0) 
(0.07089262230829915 0.043578731572114074 0.0) 
(0.08018723805494966 0.05324663044873278 0.0) 
(0.08920810296255877 0.06315278026348113 0.0) 
(0.10060503619882981 0.07449206152125508 0.0) 
(0.10902011316182808 0.08276352468352577 0.0) 
(0.11918327759258741 0.09116345882841698 0.0) 
(0.12852276205967006 0.09861432920644866 0.0) 
(0.1396390012023148 0.10899419431093078 0.0) 
(0.14995314837305473 0.11927062178897568 0.0) 
(0.15953369145869428 0.1289447107673371 0.0) 
(0.16887124371886802 0.1400752610613939 0.0) 
(0.19050623407976053 0.1586092475866571 0.0) 
(0.20823134713823974 0.17312325614615795 0.0) 
(0.23390185375310035 0.1864442599668099 0.0) 
(0.264642483124953 0.19012931089656063 0.0) 
(0.3331515466974593 0.2096571992630308 0.0) 
(0.4257179963516024 0.20561989663204838 0.0) 
(0.4177054556984581 0.12561038610291858 0.0) 
(0.28298911536889126 0.04344435798473084 0.0) 
(0.1286982377549693 0.007475232159987383 0.0) 
(0.06626798379235707 0.0012574586941797579 0.0) 
(0.14684240135461027 -0.0014575550630630733 0.0) 
(0.16781175903181422 -0.006221205803138671 0.0) 
(0.10462753025494138 -0.006561848857957405 0.0) 
(-0.006648617843936877 0.006105067437659239 0.0) 
(-0.04770027719885998 0.022845298268922263 0.0) 
(-0.04348109440671476 0.026463821097193894 0.0) 
(-0.032116857259112154 0.022569075271758 0.0) 
(-0.025167070106665135 0.019764745692979205 0.0) 
(-0.021058996083678415 0.017394904128447148 0.0) 
(-0.01940593352280266 0.016295260738589088 0.0) 
(-0.01940758502276167 0.016286138759254408 0.0) 
(-0.02086001092128085 0.017252454480081062 0.0) 
(-0.024665247468900812 0.020280688684061438 0.0) 
(-0.030792478183118813 0.025071147253711012 0.0) 
(-0.039512232430488306 0.03163672755255898 0.0) 
(-0.049210335977402236 0.03926956308219621 0.0) 
(-0.06023781284943372 0.04769483074702484 0.0) 
(-0.07299974935387435 0.05618404093042 0.0) 
(-0.08291825764210359 0.06112999783225163 0.0) 
(-0.09365877322523794 0.06480023083081429 0.0) 
(-0.10277298623416542 0.0657069300429463 0.0) 
(-0.11051135279286611 0.06174959937131054 0.0) 
(-0.1170340878322276 0.05596519361004885 0.0) 
(-0.12190620820088488 0.04788447793740645 0.0) 
(-0.12491927079697654 0.0380349411234656 0.0) 
(-0.1257710296871523 0.026969874880307824 0.0) 
(-0.1274742329277322 0.01638639056226765 0.0) 
(-0.13747896483615574 0.007723461907076812 0.0) 
(-0.15770356979019867 0.004016044886855293 0.0) 
(-0.1750671700559367 0.0027574951555653132 0.0) 
(-0.18714933148013876 0.0019523179073790676 0.0) 
(-0.19464092650540038 0.0013457111249689947 0.0) 
(-0.19874512717737772 0.0008592216389946753 0.0) 
(-0.20097473480374517 0.0003519901459668177 0.0) 
(-0.2002131256128695 -4.2121149370789e-05 0.0) 
(-0.19767755602683112 -0.00040526098462179274 0.0) 
(-0.19230147047716656 -0.000698743443698256 0.0) 
(-0.18629010367840804 -0.0008329809394680213 0.0) 
(-0.17966154130091141 -0.001240359899090225 0.0) 
(-0.17133218710638737 -0.0010841230872331799 0.0) 
(-0.16403228075846676 -0.001077631823790221 0.0) 
(-0.15625105222956953 -0.0013652581998035889 0.0) 
(-0.1466974077426184 -0.0014535427559232352 0.0) 
(-0.13694415176972627 -0.00155683864311404 0.0) 
(-0.12724815698344324 -0.001448668631816196 0.0) 
(-0.11742200541013523 -0.0016345433682114889 0.0) 
(-0.1065808626722693 -0.001622559896825372 0.0) 
(-0.09664407290606108 -0.001440958662301966 0.0) 
(-0.08743844566984295 -0.0014360279784498438 0.0) 
(-0.07729353761789527 -0.0016466291801384386 0.0) 
(-0.0666289668807741 -0.001534110530501042 0.0) 
(-0.05784705445754276 -0.0014010168597345387 0.0) 
(-0.04798295922471667 -0.0016364206583946227 0.0) 
(-0.03770763151080936 -0.0015129075525346937 0.0) 
(-0.02907435911613811 -0.001303739452347363 0.0) 
(-0.020559487361608616 -0.0012870598198779066 0.0) 
(-0.012893446004150953 -0.001204440269009588 0.0) 
(-0.004366830157137064 -0.0012812832119032552 0.0) 
(0.0036739893769815977 -0.0013285150370938956 0.0) 
(0.01176162818434597 -0.0011936513031899623 0.0) 
(0.01921293945279494 -0.0011738325263657265 0.0) 
(0.027079574791911063 -0.0012240599974214083 0.0) 
(0.03469324237166305 -0.0011240739113940084 0.0) 
(0.04142411542688083 -0.0009647268579626278 0.0) 
(0.047703286086997865 -0.0009835674524469283 0.0) 
(0.05428413405651636 -0.0010004583681475661 0.0) 
(0.06066461801890576 -0.0010277958991197589 0.0) 
(0.06773001538517495 -0.0010328062235049522 0.0) 
(0.07367153053133613 -0.0008303327537452878 0.0) 
(0.0791624853444529 -0.0008228204443551436 0.0) 
(0.08455509753464124 -0.0007438189799316762 0.0) 
(0.088859623898186 -0.0005596880579137352 0.0) 
(0.09238377364069676 -0.0004470216989315875 0.0) 
(0.0954832760481557 -0.0004902732062138418 0.0) 
(0.09910086597673265 -0.00046786850121863916 0.0) 
(0.10202072727352304 -0.00043453980222424196 0.0) 
(0.10480072063578093 -0.0003473227602911735 0.0) 
(0.10691488489964077 -0.0002837594258634086 0.0) 
(0.10886813518495601 -0.00016005333929404897 0.0) 
(0.1095937214348867 -1.4681393785955266e-05 0.0) 
(0.11006811297248006 -3.156286921688069e-05 0.0) 
(0.11062044771154185 1.2133748948001899e-05 0.0) 
(0.11065074961862827 1.599659356339219e-05 0.0) 
(0.11050905091830193 0.0001290750570160348 0.0) 
(0.1095887275577489 0.0003654806746015761 0.0) 
(0.10714374127918068 0.0005073623089498422 0.0) 
(0.1038167430036706 0.0006478453788604374 0.0) 
(0.0988816069120507 0.0009499689529453422 0.0) 
(0.09287480736805398 0.001123158585116944 0.0) 
(0.08568454153484063 0.0013598879802277607 0.0) 
(0.07599745903215777 0.0017992866221120253 0.0) 
(0.06327218015143621 0.0024570507546002765 0.0) 
(0.05036630495434871 0.0033458715118481423 0.0) 
(0.04704131965965648 0.0053203182037306895 0.0) 
(0.05171249890887742 0.009626498012029456 0.0) 
(0.05988946026078085 0.016322918812398696 0.0) 
(0.06924625925749449 0.02493427236872031 0.0) 
(0.08012094266966617 0.03547012963716873 0.0) 
(0.09200984006642045 0.04817730532154296 0.0) 
(0.10409722754195222 0.06292323912208325 0.0) 
(0.1179259189114284 0.07710010097433082 0.0) 
(0.1318579617316561 0.09208280465413073 0.0) 
(0.14919279545224928 0.10917298123028278 0.0) 
(0.16301644083349429 0.12229594938952311 0.0) 
(0.18009766474701067 0.1363636534236552 0.0) 
(0.19551300015836298 0.14878063404386643 0.0) 
(0.21088087864583344 0.16326954316896322 0.0) 
(0.2264737435546842 0.17866572514991186 0.0) 
(0.24423309978226798 0.19601923307422564 0.0) 
(0.2575647703651732 0.21140203184480627 0.0) 
(0.28587219523083873 0.2368082113990641 0.0) 
(0.32494778846582667 0.26658625901354344 0.0) 
(0.3832371876981023 0.3012848284334961 0.0) 
(0.4502285437986564 0.3200429779811331 0.0) 
(0.5667868816491717 0.34822298171306165 0.0) 
(0.6917480574473355 0.3237915872320347 0.0) 
(0.6992516314503823 0.2090974721564971 0.0) 
(0.5375671600101055 0.08822231981917487 0.0) 
(0.2943618815577653 0.0209813624439924 0.0) 
(0.17162117180836456 0.003940575747844905 0.0) 
(0.2589994497637735 -0.002054205945873766 0.0) 
(0.2733373546682594 -0.00943225149407999 0.0) 
(0.19587970283091047 -0.011823039362892526 0.0) 
(0.035615046940716204 0.001207624319993559 0.0) 
(-0.05204528117541256 0.026078068538833137 0.0) 
(-0.058760186919938825 0.03524135147393219 0.0) 
(-0.04524050873360907 0.031258201464865604 0.0) 
(-0.03595679255506304 0.027845745889601675 0.0) 
(-0.03076882588344716 0.025168273991949805 0.0) 
(-0.028509979742305024 0.023908863881667495 0.0) 
(-0.028737752362230175 0.024111829650213346 0.0) 
(-0.03113837806743562 0.025870286925748907 0.0) 
(-0.03640064998852708 0.030191153796088263 0.0) 
(-0.044624054991503834 0.03678515972836749 0.0) 
(-0.05578326289020697 0.04528259629629264 0.0) 
(-0.06787974895258245 0.05486024434305262 0.0) 
(-0.0804774952987315 0.0644160248943676 0.0) 
(-0.09526310825183183 0.0741253101925504 0.0) 
(-0.10622521317620386 0.07905305035201918 0.0) 
(-0.11775881139901036 0.08211061279756382 0.0) 
(-0.12658485785947107 0.08144078185287892 0.0) 
(-0.1342996726226653 0.07544668794301768 0.0) 
(-0.14157662392211984 0.06809133961040101 0.0) 
(-0.1469830175098325 0.05798925597241712 0.0) 
(-0.15069887650007663 0.04600949617953288 0.0) 
(-0.1532653835445869 0.033004014990960326 0.0) 
(-0.1575108104436536 0.02072627901599084 0.0) 
(-0.1698494818701896 0.010828401017058082 0.0) 
(-0.19016452688561786 0.006211981817716458 0.0) 
(-0.2063953208475314 0.0042506103299278855 0.0) 
(-0.2169245591959965 0.002910661323460105 0.0) 
(-0.22310715253152644 0.0019010378949855012 0.0) 
(-0.22580264018081544 0.001114843270883231 0.0) 
(-0.2260710545399762 0.0003262526727381636 0.0) 
(-0.22378871660397562 -0.0003036943301573292 0.0) 
(-0.2197864197912798 -0.0008969290924048497 0.0) 
(-0.21314957230487513 -0.0013847219305657666 0.0) 
(-0.20557858366353474 -0.0015986330214043994 0.0) 
(-0.19684713956527067 -0.002186340332827227 0.0) 
(-0.18740186603615905 -0.00197182238534089 0.0) 
(-0.17872150849598167 -0.001955634537196255 0.0) 
(-0.169382257203106 -0.0023718841628722833 0.0) 
(-0.15872982778922015 -0.002550735821396749 0.0) 
(-0.14752937909844688 -0.0027071996790767197 0.0) 
(-0.13628115968011095 -0.002549261110255903 0.0) 
(-0.1249401378739458 -0.0028407635181232605 0.0) 
(-0.1127778072105308 -0.00281287200071089 0.0) 
(-0.10134559632657832 -0.0025414267380200065 0.0) 
(-0.09058926335141954 -0.0025530609161640173 0.0) 
(-0.07908003459047422 -0.0028389452395490332 0.0) 
(-0.06729727720151048 -0.002659931784702061 0.0) 
(-0.057011900107488904 -0.002450617247176734 0.0) 
(-0.04602080207290069 -0.0027835530623751127 0.0) 
(-0.034770194221003255 -0.002592078592462283 0.0) 
(-0.025071294998921186 -0.002271130400470823 0.0) 
(-0.015356496437400072 -0.00223825181952956 0.0) 
(-0.006486522528279148 -0.0021403552879842203 0.0) 
(0.003478296294607562 -0.0022324738248167427 0.0) 
(0.012310411830466106 -0.002247447330119856 0.0) 
(0.02130187091419748 -0.0020834796410677684 0.0) 
(0.029955158574263965 -0.00206481976886368 0.0) 
(0.03881911455128277 -0.00211072169735764 0.0) 
(0.04732583945337483 -0.0019454713678437453 0.0) 
(0.054993447445840664 -0.0017137824707039555 0.0) 
(0.06233119060204589 -0.001732631652588011 0.0) 
(0.06981704804354973 -0.001746655668188144 0.0) 
(0.07712361696999548 -0.0017938597354069876 0.0) 
(0.08498097319113934 -0.0017886060587082597 0.0) 
(0.09182803004961392 -0.0014823551385995063 0.0) 
(0.09829974927339713 -0.001460169305445125 0.0) 
(0.10441897378708923 -0.001311922063893892 0.0) 
(0.10949642723999362 -0.001015827931300672 0.0) 
(0.11378933245482706 -0.0008311558392491281 0.0) 
(0.11762439873357361 -0.0008921991862656832 0.0) 
(0.12182697731509408 -0.0008577358048480775 0.0) 
(0.12536206162044564 -0.0007881332225092494 0.0) 
(0.12888067233217185 -0.0006412655995762814 0.0) 
(0.13152011911796058 -0.000532381960929229 0.0) 
(0.13391546604195115 -0.00033301378043860605 0.0) 
(0.13532972878603888 -0.00010304293668292702 0.0) 
(0.1363038328000606 -0.00010804649687903107 0.0) 
(0.13701571605731494 -3.020034227488855e-05 0.0) 
(0.13759603127285505 -5.137546505020576e-06 0.0) 
(0.13761850456737484 0.0001786155956874513 0.0) 
(0.13674847158725817 0.0005576137349051815 0.0) 
(0.13445214415432788 0.0008040404816380044 0.0) 
(0.13123001172345145 0.0010726637566563473 0.0) 
(0.12640133946894683 0.0015513699472733354 0.0) 
(0.1201410537782098 0.0018559465418653838 0.0) 
(0.11244138538288136 0.002274078404201827 0.0) 
(0.10224494804954032 0.0030404599388361704 0.0) 
(0.08884288139924278 0.00406606457551615 0.0) 
(0.07486185725482444 0.005389217693884139 0.0) 
(0.06944763878896398 0.008075232786476396 0.0) 
(0.07236246553676139 0.013364800532358721 0.0) 
(0.0794877593350059 0.021244056716626093 0.0) 
(0.08874942464357707 0.03125766561906569 0.0) 
(0.10011259644822086 0.04335037959908111 0.0) 
(0.11246457755832039 0.05769781522963938 0.0) 
(0.12605344785449593 0.07477634309137199 0.0) 
(0.1425630427726891 0.0916272260004558 0.0) 
(0.1588156038282933 0.1091680647905099 0.0) 
(0.17872522650891934 0.1290384677902471 0.0) 
(0.1956622296834683 0.14480373497411772 0.0) 
(0.216648839035552 0.16220380126965978 0.0) 
(0.23568163463056657 0.1777770698651307 0.0) 
(0.25437892545299245 0.19517081664464997 0.0) 
(0.2743276149939058 0.21442760220590212 0.0) 
(0.2973169507328864 0.23656206622499298 0.0) 
(0.3195125795303563 0.2596135222670922 0.0) 
(0.35007871316668066 0.2876761024904458 0.0) 
(0.3993067694137493 0.3231927263949368 0.0) 
(0.4672950877471352 0.361700468174852 0.0) 
(0.561910231444746 0.3938326958689126 0.0) 
(0.6951189018086271 0.41892696690638037 0.0) 
(0.8320693024728799 0.38178829832445277 0.0) 
(0.8681621589521114 0.25873456637172276 0.0) 
(0.7433105590111824 0.12798492153592625 0.0) 
(0.48142500356592244 0.03938090679428449 0.0) 
(0.30731376567742685 0.008667712331307547 0.0) 
(0.3760599777314522 -0.0017271766142414446 0.0) 
(0.3764980597009675 -0.011802951516703087 0.0) 
(0.28986065405016487 -0.016390610883443252 0.0) 
(0.09961955299777006 -0.005823638932987861 0.0) 
(-0.043121579436685105 0.025179024374171743 0.0) 
(-0.06879425616832126 0.041077142553671925 0.0) 
(-0.057977541993397524 0.039407443984247274 0.0) 
(-0.04696348364145149 0.03591973211089896 0.0) 
(-0.04081125163261656 0.03309096917866253 0.0) 
(-0.037999154284904454 0.031794643505363665 0.0) 
(-0.03844793491459133 0.032260739785452575 0.0) 
(-0.04172729842341481 0.03480279285914221 0.0) 
(-0.048077538316547125 0.040178190874816784 0.0) 
(-0.057642547318143576 0.04804272594395995 0.0) 
(-0.07020006727190133 0.057709898964138674 0.0) 
(-0.08347534396952935 0.06828329653730453 0.0) 
(-0.09684787596033576 0.07826474119645495 0.0) 
(-0.11136332793894624 0.08747894186466179 0.0) 
(-0.12251877564642993 0.09197005072508203 0.0) 
(-0.1340132845164601 0.09412897891167865 0.0) 
(-0.14250810835166333 0.09223302290032155 0.0) 
(-0.15073718490651697 0.08519078169163785 0.0) 
(-0.15772131896980227 0.07625319307274413 0.0) 
(-0.16361937663483667 0.06481684247101148 0.0) 
(-0.16841227862639752 0.05162682384705691 0.0) 
(-0.172861172231867 0.03753316967379531 0.0) 
(-0.17925396124102494 0.024268458753090562 0.0) 
(-0.1928546535414459 0.013679555074589464 0.0) 
(-0.21157781721277694 0.008242330293773801 0.0) 
(-0.22580188095440937 0.005589446711079194 0.0) 
(-0.23453065300957826 0.003703112762153928 0.0) 
(-0.23903717273898065 0.0022797022862568635 0.0) 
(-0.24016296854916908 0.0011803506923143319 0.0) 
(-0.23903987242610406 0.0001359175611908815 0.0) 
(-0.23559344250213227 -0.0007295913313032424 0.0) 
(-0.23037925375381546 -0.0015744382243866677 0.0) 
(-0.22267105084877448 -0.002257190621090631 0.0) 
(-0.2138626194929899 -0.0025659634695321875 0.0) 
(-0.20422256856980342 -0.00328747322563 0.0) 
(-0.19381772783333853 -0.0030159383392217715 0.0) 
(-0.18421799520629062 -0.00300054988857804 0.0) 
(-0.17395384819810988 -0.0035389814064489458 0.0) 
(-0.1625474162572194 -0.003807359748182577 0.0) 
(-0.15054318433551533 -0.004020295265626443 0.0) 
(-0.1385522502298018 -0.003815333258308196 0.0) 
(-0.12633355731805343 -0.004212723922288112 0.0) 
(-0.11339047439454886 -0.004165795107676337 0.0) 
(-0.10107967392133047 -0.0038147646099529527 0.0) 
(-0.0893922333881791 -0.0038356797828770993 0.0) 
(-0.0771102893438445 -0.004183680113522789 0.0) 
(-0.06467662200068384 -0.00393137155778234 0.0) 
(-0.05343518998591604 -0.003658408236595724 0.0) 
(-0.04179762094127604 -0.004057607407247399 0.0) 
(-0.03007065829171896 -0.0037911435914336528 0.0) 
(-0.019686368247073836 -0.0033750431707111556 0.0) 
(-0.009265887290182996 -0.003329698087462598 0.0) 
(0.0003942702577387887 -0.0032266098692346704 0.0) 
(0.011172202754918911 -0.0033143691395736913 0.0) 
(0.020502047152801205 -0.0032742799549127996 0.0) 
(0.030076328992679577 -0.003093726785562562 0.0) 
(0.03937139582669047 -0.0030809377472041824 0.0) 
(0.048866980145428535 -0.003107566438301102 0.0) 
(0.05783340126908817 -0.0028715008835529976 0.0) 
(0.06609341469322437 -0.0025757408221030193 0.0) 
(0.07401459434801334 -0.0025939879443861945 0.0) 
(0.08209951632939046 -0.0026030913602750785 0.0) 
(0.08997367696155364 -0.0026621236434633383 0.0) 
(0.09829251600345783 -0.002642633868607572 0.0) 
(0.10573598572640794 -0.00224639820535966 0.0) 
(0.11282474718886028 -0.002195004431049239 0.0) 
(0.11929933847019078 -0.0019680236052007764 0.0) 
(0.12489602938246691 -0.0015627831222210856 0.0) 
(0.12980708819697265 -0.0013031563989963962 0.0) 
(0.13414343592460237 -0.0013673773981619757 0.0) 
(0.13873045685081625 -0.0013160009940550298 0.0) 
(0.14265604206003107 -0.0012016688643529895 0.0) 
(0.1464850395425884 -0.001006686141181289 0.0) 
(0.14957179578033258 -0.0008419683610253852 0.0) 
(0.15236609363868236 -0.0005725898817015075 0.0) 
(0.1542622297977618 -0.0002589625260174495 0.0) 
(0.15569292641947313 -0.0002312598005414252 0.0) 
(0.15668147330304444 -0.0001081678192366245 0.0) 
(0.15746928622788814 -5.5883909832349394e-05 0.0) 
(0.1577319399998095 0.00019892700653775935 0.0) 
(0.1570521655847923 0.0007185363431452226 0.0) 
(0.1551213320308466 0.0010850121965690004 0.0) 
(0.1521061666582145 0.0014994924568513851 0.0) 
(0.1474304564601252 0.002154960708267571 0.0) 
(0.14132977587821197 0.0026204582867828245 0.0) 
(0.13369878264030685 0.003229203252243913 0.0) 
(0.12360225401932905 0.004345665634401171 0.0) 
(0.11034573618720281 0.005730707373617094 0.0) 
(0.09628487828759201 0.007479228405544371 0.0) 
(0.08923189997661007 0.010688196143055904 0.0) 
(0.09025778134524307 0.01663676457472293 0.0) 
(0.09600682341934463 0.025206325176618638 0.0) 
(0.1045988917674836 0.03605540003176502 0.0) 
(0.11575664106082639 0.04903739340599465 0.0) 
(0.1283781804678346 0.06461238936436864 0.0) 
(0.14205256971492547 0.08264033382091505 0.0) 
(0.15949007218603692 0.10064080747623307 0.0) 
(0.17664870682054012 0.11934302736342961 0.0) 
(0.19756583462998117 0.14040413939293447 0.0) 
(0.21737524909155798 0.158460654666619 0.0) 
(0.2398022006126787 0.17731839279513228 0.0) 
(0.261189971729316 0.19505753819353688 0.0) 
(0.2821970630749087 0.21439027897256152 0.0) 
(0.3050898138098136 0.2361276613792691 0.0) 
(0.33108934146338986 0.26094322791162045 0.0) 
(0.3598874942583592 0.28932634813471264 0.0) 
(0.401113880863798 0.32648772513522006 0.0) 
(0.4553671020704543 0.3638883697958396 0.0) 