8 	0.445235312119664 	-2.08166817117217e-17 	0.286707710097141 	0.0306545991789215 	1.71770021929898 	0.00455214967985104 	0
8 	0.455704834779478 	-2.77555756156289e-17 	0.286555223335066 	0.0311266363161093 	1.71617166923608 	0.00467882072269625 	0
8 	0.469710606414533 	-2.42861286636753e-17 	0.286352596326254 	0.0317405499690087 	1.71636071128341 	0.00484684200925818 	0
8 	0.491846043955708 	-2.08166817117217e-17 	0.28603016147541 	0.032686342738726 	1.71976005971351 	0.00511067868016256 	0
8 	0.514778287483577 	-2.77555756156289e-17 	0.285686209523975 	0.0336311014792871 	1.72725998650932 	0.00538522734885213 	0
8 	0.538535484544895 	-3.12250225675825e-17 	0.285310191442654 	0.0345730103120886 	1.73871189555848 	0.00567906513199134 	0
8 	0.563146737069756 	-3.12250225675825e-17 	0.284891803695201 	0.0355115667181184 	1.75403419499131 	0.00599643567020635 	0
8 	0.588642130718527 	-2.42861286636753e-17 	0.284416608331404 	0.036447564891584 	1.77320414659125 	0.00635492324632364 	0
8 	0.615052764897376 	-1.04083408558608e-17 	0.283878300767635 	0.0373804772050662 	1.79618191970788 	0.00676209441738428 	0
8 	0.642410783437945 	-1.04083408558608e-17 	0.283285161003711 	0.0383064677321252 	1.82279934477861 	0.00722183634908696 	0
8 	0.670749405934574 	-1.04083408558608e-17 	0.28264622715868 	0.0392161980283132 	1.85262657803808 	0.00772956730793149 	0
8 	0.700102959730073 	-8.67361737988404e-18 	0.281965658858386 	0.0400940364678043 	1.88486314472485 	0.00826940443668212 	0
8 	0.730506912538453 	1.73472347597681e-18 	0.281239298031339 	0.0409178047569472 	1.91824511006177 	0.00881696576317057 	0
8 	0.761997905690176 	1.21430643318376e-17 	0.280456140882797 	0.0416591241512803 	1.95101307005239 	0.00934096775697736 	0
8 	0.794613787982349 	1.21430643318376e-17 	0.279601941921454 	0.0422852849518312 	1.98100146427596 	0.00980924647588192 	0
8 	0.828393650112923 	1.38777878078145e-17 	0.278661905099324 	0.0427622097071002 	2.0058396574114 	0.0101945275850094 	0
8 	0.863377859674246 	1.47451495458029e-17 	0.277622503276618 	0.0430575218009671 	2.0231976362617 	0.0104774723378327 	0
7.99999999999999 	0.899608096677278 	1.47451495458029e-17 	0.276472381512229 	0.0431428629555958 	2.03099525551018 	0.0106463624126131 	0
7.99999999999999 	0.937127389573462 	1.69135538907739e-17 	0.275202345818656 	0.0429952049844934 	2.02753133342787 	0.0106945016714707 	0
7.99999999999999 	0.975980151736475 	1.90819582357449e-17 	0.273804773460768 	0.0425975385239161 	2.01154499737296 	0.0106173394562164 	0
7.99999999999999 	1.01621221836095 	1.25767452008319e-17 	0.272272922884228 	0.0419396124019024 	1.98225727160403 	0.0104111080708749 	0
7.99999999999999 	1.05787088372979 	6.93889390390723e-18 	0.270584388973944 	0.0410126814423077 	1.93910376805521 	0.0100706456199377 	0
7.99999999999999 	1.1010049387955 	6.93889390390723e-18 	0.268740078672398 	0.0398279434390502 	1.88261277928723 	0.00959983054287644 	0
7.99999999999999 	1.14566470901487 	1.04083408558608e-17 	0.266744606846222 	0.0384095577714568 	1.8139908733705 	0.00901083477664971 	0
7.99999999999999 	1.1919020923689 	1.38777878078145e-17 	0.264596516562258 	0.0367909116519694 	1.73491177711452 	0.0083231980424179 	0
7.99999999999999 	1.23977059749267 	1.38777878078145e-17 	0.262297508412228 	0.0350175408199896 	1.64776853584027 	0.00756460638841313 	0
7.99999999999999 	1.28932538183168 	1.38777878078145e-17 	0.259852407373091 	0.0331451708677364 	1.55577934254996 	0.0067685481985339 	0
7.99999999999999 	1.34062328973247 	6.93889390390723e-18 	0.257268661942908 	0.0312402270452346 	1.46372325134103 	0.00597225557257637 	0
7.99999999999999 	1.39372289036593 	3.46944695195361e-18 	0.25455814000496 	0.0293630587301596 	1.37485076902196 	0.00521058380876572 	0
7.99999999999999 	1.44868451537184 	1.38777878078145e-17 	0.251739067781044 	0.0275524495146342 	1.28973526093804 	0.00450863446497293 	0
7.99999999999999 	1.50557029610222 	1.73472347597681e-17 	0.248833710447427 	0.0258298593960311 	1.20836330343344 	0.00387926501749115 	0
7.99999999999999 	1.56444420032979 	1.04083408558608e-17 	0.245865222039896 	0.0242036197241853 	1.13067717503148 	0.00332442099236752 	0
7.99999999999999 	1.60125821015668 	1.73472347597681e-18 	0.244032718455821 	0.0232498733003835 	1.0846874891469 	0.00301501977411727 	0
7.99999999999999 	1.63225974854651 	-5.20417042793042e-18 	0.242522068442983 	0.0225038256843444 	1.04816815144355 	0.00278733469720325 	0
7.99999999999999 	1.68846715954752 	-1.38777878078145e-17 	0.23983121549471 	0.0212105575512291 	0.983984456847808 	0.00240988543787615 	0
7.99999999999999 	1.75372829627876 	-1.73472347597681e-17 	0.23680947606187 	0.0198101597595087 	0.913332594146334 	0.00203359760163672 	0
7.99999999999999 	1.82123614698517 	-1.21430643318376e-17 	0.23381116339108 	0.018456275824663 	0.846196087503921 	0.00170142365175974 	0
7.99999999999999 	1.89106286097981 	-1.56125112837913e-17 	0.230852025164405 	0.0171619349066761 	0.787039406776667 	0.0014107726558355 	0
7.99999999999999 	1.96328253671743 	-2.60208521396521e-17 	0.228006662852787 	0.0159738852822475 	0.739638279413682 	0.00116593970086668 	0
7.99999999999999 	2.02025965173184 	-2.77555756156289e-17 	0.225946799998013 	0.0150895571910087 	0.709963323510887 	0.000978540794094305 	0
7.99999999999999 	2.06006301192217 	-2.77555756156289e-17 	0.224534159121728 	0.0144589580240709 	0.691990019656108 	0.000858623770344542 	0
7.99999999999999 	2.09845978584128 	-3.12250225675825e-17 	0.22328353234395 	0.0138748512803645 	0.677658146303556 	0.00075628500063984 	0
7.99999999999999 	2.13549967996945 	-3.12250225675825e-17 	0.222133432605448 	0.0133194529465757 	0.666130954699179 	0.000660341773498615 	0
7.99999999999999 	2.17123064424048 	-3.12250225675825e-17 	0.221071457765971 	0.0127921003205727 	0.657241019530154 	0.000571455622166742 	0
7.99999999999999 	2.20569893411515 	-3.12250225675825e-17 	0.220091463243494 	0.0122920040401265 	0.650869842322789 	0.000489948127254961 	0
7.99999999999999 	2.23894917046122 	-3.12250225675825e-17 	0.219187609967838 	0.0118183012903912 	0.646940206276155 	0.000415798732979217 	0
7.99999999999999 	2.27102439731725 	-3.12250225675825e-17 	0.218354156957157 	0.0113701086588189 	0.645411923127794 	0.000348831447429947 	0
7.99999999999999 	2.30196613761521 	-3.12250225675825e-17 	0.217585764250933 	0.0109465637950399 	0.646279325188435 	0.000288782858329507 	0
7.99999999999999 	2.33181444693391 	-3.46944695195361e-17 	0.21687749613703 	0.0105468571926409 	0.649570023421586 	0.00023535747826572 	0
7.99999999999999 	2.3606079653529 	-3.81639164714898e-17 	0.216224775987632 	0.0101702560585116 	0.655344714967512 	0.000188269882524989 	0
7.99999999999999 	2.3883839674739 	-4.16333634234434e-17 	0.21562335814807 	0.00981612205193685 	0.66369791592208 	0.000147273518983257 	0
7.99999999999999 	2.41517841067461 	-4.85722573273506e-17 	0.215069306146171 	0.00948392439672186 	0.674759538114612 	0.000112180680201652 	0
7.99999999999999 	2.44102598165722 	-5.20417042793042e-17 	0.214558972178923 	0.00917324946064653 	0.68869724460613 	8.28771670396159e-05 	0
7.99999999999999 	2.46596014135207 	-5.55111512312578e-17 	0.214088977929063 	0.00888380747191992 	0.705719517935561 	5.9333825605872e-05 	0
7.99999999999999 	2.49001316823443 	-5.3776427755281e-17 	0.213656196846889 	0.00861543665472038 	0.726079359733475 	4.16163402112081e-05 	0
7.99999999999999 	2.51321620011054 	-4.85722573273506e-17 	0.213257737747683 	0.00836810471450008 	0.750078507864155 	2.98941015045466e-05 	0
7.99999999999999 	2.535599274427 	-4.68375338513738e-17 	0.212890929567438 	0.00814190727772306 	0.778072004334841 	2.44484950041746e-05 	0
7.99999999999999 	2.55719136715571 	-4.85722573273506e-17 	0.212553307154401 	0.00793706258641309 	0.810472870991203 	2.56805304401087e-05 	0
7.99999999999999 	2.57802043030465 	-5.20417042793042e-17 	0.212242597989816 	0.00775390147505002 	0.847756549799082 	3.41173326921308e-05 	0
7.99999999999999 	2.59811342810315 	-4.85722573273506e-17 	0.211956709736926 	0.0075928514433807 	0.890464643899643 	5.04166317523308e-05 	0
7.99999999999999 	2.61749637190832 	-4.5102810375397e-17 	0.211693718517803 	0.00745441353115543 	0.939207365350558 	7.53680377115309e-05 	0
7.99999999999999 	2.63619435387806 	-4.5102810375397e-17 	0.211451857814156 	0.00733913076596149 	0.994663976403678 	0.000109889611098804 	0
7.99999999999999 	2.65423157945406 	-4.85722573273506e-17 	0.211229507882986 	0.00724754726996453 	1.05758043645838 	0.000155018108918339 	0
7.99999999999999 	2.67163139869691 	-5.55111512312578e-17 	0.21102518557508 	0.00718015774469472 	1.12876348131038 	0.000211891387866307 	0
7.99999999999999 	2.68841633651388 	-5.89805981832114e-17 	0.210837534448741 	0.00713734803824847 	1.20907051606782 	0.000281721857654636 	0
7.99999999999999 	2.7046081218185 	-5.89805981832114e-17 	0.210665315088148 	0.00711932879909594 	1.29939504342543 	0.000365760640496813 	0
7.99999999999999 	2.72022771565972 	-5.89805981832114e-17 	0.210507395569173 	0.00712606569783592 	1.40064789630181 	0.000465253178526837 	0
7.99999999999999 	2.73529533835694 	-6.24500451351651e-17 	0.210362742063933 	0.00715721110842161 	1.51373527584467 	0.000581388320386423 	0
7.99999999999999 	2.74983049567625 	-6.24500451351651e-17 	0.21023040962584 	0.00721204316365374 	1.63953543309944 	0.000715244212091408 	0
7.99999999999999 	2.76385200408156 	-6.24500451351651e-17 	0.210109533237778 	0.00728941841497087 	1.77887664173439 	0.000867735377123515 	0
7.99999999999999 	2.77737801509343 	-6.59194920871187e-17 	0.209999319325075 	0.00738774371229868 	1.9325197279515 	0.00103956598121178 	0
7.99999999999999 	2.79042603878708 	-6.59194920871187e-17 	0.209899038280774 	0.00750497134454793 	2.10114870585641 	0.00123119433101293 	0
7.99999999999999 	2.80301296646003 	-6.24500451351651e-17 	0.209808018028406 	0.00763861914060709 	2.28537293136446 	0.00144281327667227 	0
7.99999999999999 	2.81515509249872 	-5.89805981832114e-17 	0.209725633538095 	0.00778581450119404 	2.48574365357247 	0.00167435058029738 	0
7.99999999999999 	2.82686813547237 	-6.24500451351651e-17 	0.209651286274127 	0.00794335866308516 	2.7027870307734 	0.0019254912391207 	0
7.99999999999999 	2.83816725848142 	-6.59194920871187e-17 	0.209584432870935 	0.00810780535270611 	2.93705480867237 	0.00219622955373418 	0
7.99999999999999 	2.84906708878691 	-6.59194920871187e-17 	0.209524830056569 	0.00827555446743698 	3.18923589401394 	0.00249188624863814 	0
7.99999999999999 	2.85958173674616 	-6.59194920871187e-17 	0.209472499203156 	0.00844301144907569 	3.46071489630388 	0.00282227702880469 	0
7.99999999999999 	2.86972481407933 	-7.28583859910259e-17 	0.209427026136492 	0.00860659534573664 	3.75415628941067 	0.0031783789919554 	0
7.99999999999999 	2.87950945149043 	-8.32667268468867e-17 	0.209387086316797 	0.00876182729593219 	4.0713357230643 	0.00356460962756912 	0
7.99999999999999 	2.88894831566566 	-8.50014503228635e-17 	0.209351452638822 	0.00890226174725906 	4.41162895671622 	0.00396061168796518 	0
7.99999999999999 	2.89805362567106 	-8.32667268468867e-17 	0.209319733521968 	0.00902143247559612 	4.77409024449802 	0.00435307351853131 	0
7.99999999999999 	2.90683716877067 	-8.32667268468867e-17 	0.209291871492296 	0.00911402691311932 	5.15909196109366 	0.00473654322432312 	0
7.99999999999999 	2.91531031568569 	-8.32667268468867e-17 	0.20926779626293 	0.00917621288967709 	5.56924221993061 	0.00511061354187261 	0
7.99999999999999 	2.92348403531448 	-8.32667268468867e-17 	0.209247364956205 	0.00920551164178629 	6.0098758288668 	0.00547808851839147 	0
7.99999999999999 	2.93136890893229 	-8.32667268468867e-17 	0.209230506180461 	0.00920051784484472 	6.48950734329607 	0.00584555218513218 	0
7.99999999999999 	2.93897514388925 	-7.97972798949331e-17 	0.209217578378012 	0.00916052802151322 	7.02064475410642 	0.00622750390388293 	0
7.99999999999999 	2.94631258682425 	-7.63278329429795e-17 	0.209209465315341 	0.00908481930475749 	7.62133757847399 	0.00664362892733213 	0
7.99999999999999 	2.95339073641193 	-7.97972798949331e-17 	0.209206136192896 	0.00897164170480858 	8.31702206944541 	0.00710382557226344 	0
7.99999999999999 	2.96021875565915 	-8.32667268468867e-17 	0.209206410122518 	0.00881821092387719 	9.14075904329989 	0.00764126025783351 	0
7.99999999999999 	2.96680548376697 	-8.67361737988404e-17 	0.209209452890928 	0.0086199102749702 	10.135592147807 	0.00826277421029576 	0
7.99999999999999 	2.97315944757337 	-8.67361737988404e-17 	0.209214904696245 	0.0083699205600155 	11.3616376802932 	0.00899039598145886 	0
7.99999999999999 	2.97928887259171 	-7.97972798949331e-17 	0.209222419985073 	0.00805816229813901 	12.9050902541721 	0.00984915186274481 	0
7.99999999999999 	2.98520169365902 	-7.63278329429795e-17 	0.209231568955317 	0.00766967076656904 	14.8925893845547 	0.0108593469202803 	0
7.99999999999999 	2.99090556520806 	-7.63278329429795e-17 	0.209241868813073 	0.00718226258145738 	17.5152602227354 	0.0120189870637637 	0
7.99999999999999 	2.99640787117633 	-7.63278329429795e-17 	0.209252793216662 	0.00656351928382733 	21.0708668326597 	0.0132453100419263 	0
7.99999999999999 	3.00171573456492 	-7.28583859910259e-17 	0.209263635906714 	0.00576983118166397 	26.0420140993943 	0.0142924554828813 	0
7.99999999999999 	3.00683602665962 	-7.28583859910259e-17 	0.209273630919197 	0.00475282379655834 	33.2686750185421 	0.0144865587662277 	0
7.99999999999999 	3.01177537592612 	-7.63278329429795e-17 	0.209282048063684 	0.00349892192662878 	44.4246941690718 	0.012678299079955 	0
7.99999999999999 	3.01654017659085 	-7.63278329429795e-17 	0.209288308439768 	0.00212925589954159 	63.6967008183671 	0.00823364953728454 	0
7.99999999999999 	3.02113659691864 	-7.97972798949331e-17 	0.209292514213494 	0.000968093374204872 	104.622967729514 	0.00325965948981022 	0
7.99999999999999 	3.02557058719784 	-7.97972798949331e-17 	0.209295540521783 	0.000295643285653508 	223.087152748188 	0.000666449347916675 	0
7.99999999999999 	3.02984788744324 	-7.63278329429795e-17 	0.209298361238111 	5.10013954031532e-05 	787.744838255348 	6.13237658432473e-05 	0
