8 	0.445235312119664 	-2.08166817117217e-17 	0.193975015997691 	0.0199073328139938 	1.83302965766614e-17
8 	0.455704834779478 	-2.77555756156289e-17 	0.198461337834917 	0.0199203734209037 	5.10996650090359e-17
8 	0.469710606414533 	-2.42861286636753e-17 	0.204511171721803 	0.0199471194721437 	2.88518593515141e-17
8 	0.491846043955708 	-2.08166817117217e-17 	0.214175063096911 	0.0200058600519722 	3.67393887724234e-20
8 	0.514778287483577 	-2.77555756156289e-17 	0.224342317491561 	0.0200953826870856 	-3.66758169156248e-20
8 	0.538535484544895 	-3.12250225675825e-17 	0.235058239838046 	0.0202231641120565 	5.31691709325357e-17
8 	0.563146737069756 	-3.12250225675825e-17 	0.246403607085292 	0.0203922496932889 	9.58261717237471e-17
8 	0.588642130718527 	-2.42861286636753e-17 	0.25850757351143 	0.0206010409121704 	-1.11140631588404e-16
8 	0.615052764897376 	-1.04083408558608e-17 	0.271530994986659 	0.0208477214385397 	-4.62732035384241e-17
8 	0.642410783437945 	-1.04083408558608e-17 	0.285647438260521 	0.0211285428869916 	-6.74997062055249e-20
8 	0.670749405934574 	-1.04083408558608e-17 	0.301020485062022 	0.021447693012691 	6.0457702900413e-21
8 	0.700102959730073 	-8.67361737988404e-18 	0.317795821769882 	0.0218174922176448 	1.88270453062444e-19
8 	0.730506912538453 	1.73472347597681e-18 	0.336088357285472 	0.0222562356063349 	-2.18266879182404e-19
8 	0.761997905690176 	1.21430643318376e-17 	0.35596383962896 	0.0227834645214503 	4.64053064373543e-21
8 	0.794613787982349 	1.21430643318376e-17 	0.377430849391856 	0.0234149275419277 	3.02453419607934e-20
8 	0.828393650112923 	1.38777878078145e-17 	0.400446400305976 	0.0241595957591341 	2.82803158665771e-19
8 	0.863377859674246 	1.47451495458029e-17 	0.424930800237039 	0.0250187686261065 	-6.8322069688498e-19
7.99999999999999 	0.899608096677278 	1.47451495458029e-17 	0.450783807120036 	0.0259869317874841 	3.04528614997872e-19
7.99999999999999 	0.937127389573462 	1.69135538907739e-17 	0.477894777863143 	0.027053453740542 	3.79527107893412e-20
7.99999999999999 	0.975980151736475 	1.90819582357449e-17 	0.506143246265615 	0.0282039872197185 	-4.23049641836604e-17
7.99999999999999 	1.01621221836095 	1.25767452008319e-17 	0.535390904576787 	0.0294208279271381 	-3.52880292008011e-15
7.99999999999999 	1.05787088372979 	6.93889390390723e-18 	0.565519974629743 	0.0306916636070611 	3.26350415633819e-15
7.99999999999999 	1.1010049387955 	6.93889390390723e-18 	0.596280625117909 	0.031981292285372 	1.05830421602141e-16
7.99999999999999 	1.14566470901487 	1.04083408558608e-17 	0.627381737589382 	0.0332494099122594 	3.87683263645771e-19
7.99999999999999 	1.1919020923689 	1.38777878078145e-17 	0.658522614390807 	0.0344554567418923 	-3.72776189272518e-19
7.99999999999999 	1.23977059749267 	1.38777878078145e-17 	0.689375972970402 	0.0355547580075208 	-2.67034158183127e-20
7.99999999999999 	1.28932538183168 	1.38777878078145e-17 	0.71960678047215 	0.036501163640139 	-9.92685580143861e-20
7.99999999999999 	1.34062328973247 	6.93889390390723e-18 	0.748896590031606 	0.0372497182967239 	7.37957579511633e-21
7.99999999999999 	1.39372289036593 	3.46944695195361e-18 	0.776978590391709 	0.0377620183461245 	1.39525539002553e-19
7.99999999999999 	1.44868451537184 	1.38777878078145e-17 	0.803671616154034 	0.0380119016311411 	5.51386884351925e-21
7.99999999999999 	1.50557029610222 	1.73472347597681e-17 	0.828883880624547 	0.0379877434786471 	4.74043921954405e-20
7.99999999999999 	1.56444420032979 	1.04083408558608e-17 	0.852587715030395 	0.0376904703537892 	4.71488259542269e-20
7.99999999999999 	1.60125821015668 	1.73472347597681e-18 	0.866440840033911 	0.0373967280971777 	3.72905304291481e-20
7.99999999999999 	1.63225974854651 	-5.20417042793042e-18 	0.877198492553618 	0.0370597277592516 	2.33360780624803e-20
7.99999999999999 	1.68846715954752 	-1.38777878078145e-17 	0.895602959003161 	0.0363390010459259 	7.91607341619844e-21
7.99999999999999 	1.75372829627876 	-1.73472347597681e-17 	0.914910519316446 	0.0353116900072351 	1.04544571076183e-22
7.99999999999999 	1.82123614698517 	-1.21430643318376e-17 	0.932722125115473 	0.0340695513566674 	-3.6919681727557e-21
7.99999999999999 	1.89106286097981 	-1.56125112837913e-17 	0.949003094609558 	0.0326270826474762 	-2.81546691626782e-20
7.99999999999999 	1.96328253671743 	-2.60208521396521e-17 	0.963459998116687 	0.031028652366802 	4.30176057356395e-20
7.99999999999999 	2.02025965173184 	-2.77555756156289e-17 	0.973738282385101 	0.0296878511293091 	2.49914238744685e-21
7.99999999999999 	2.06006301192217 	-2.77555756156289e-17 	0.980578676725187 	0.0287451932894158 	0
7.99999999999999 	2.09845978584128 	-3.12250225675825e-17 	0.986625384649932 	0.0278537083638113 	0
7.99999999999999 	2.13549967996945 	-3.12250225675825e-17 	0.992118694290139 	0.0269972919646538 	0
7.99999999999999 	2.17123064424048 	-3.12250225675825e-17 	0.997087529614131 	0.0261746429331514 	0
7.99999999999999 	2.20569893411515 	-3.12250225675825e-17 	1.00156029762892 	0.0253823228357925 	0
7.99999999999999 	2.23894917046122 	-3.12250225675825e-17 	1.00556398936231 	0.0246181795386758 	0
7.99999999999999 	2.27102439731725 	-3.12250225675825e-17 	1.00912348947209 	0.0238806205816711 	0
7.99999999999999 	2.30196613761521 	-3.12250225675825e-17 	1.01226112756857 	0.0231682733419104 	0
7.99999999999999 	2.33181444693391 	-3.46944695195361e-17 	1.01499641758069 	0.0224799219693491 	0
7.99999999999999 	2.3606079653529 	-3.81639164714898e-17 	1.0173459193806 	0.0218144649017391 	0
7.99999999999999 	2.3883839674739 	-4.16333634234434e-17 	1.01932317558031 	0.021170875542202 	0
7.99999999999999 	2.41517841067461 	-4.85722573273506e-17 	1.02093869277678 	0.020548175492301 	0
7.99999999999999 	2.44102598165722 	-5.20417042793042e-17 	1.02219994741647 	0.0199454182471006 	0
7.99999999999999 	2.46596014135207 	-5.55111512312578e-17 	1.02311140440147 	0.0193616796515519 	0
7.99999999999999 	2.49001316823443 	-5.3776427755281e-17 	1.02367454279102 	0.0187960527766614 	0
7.99999999999999 	2.51321620011054 	-4.85722573273506e-17 	1.02388788805536 	0.0182476457067884 	0
7.99999999999999 	2.535599274427 	-4.68375338513738e-17 	1.02374705472727 	0.0177155811780634 	0
7.99999999999999 	2.55719136715571 	-4.85722573273506e-17 	1.02324480721863 	0.0171989973255136 	0
7.99999999999999 	2.57802043030465 	-5.20417042793042e-17 	1.02237115007825 	0.0166970490221099 	0
7.99999999999999 	2.59811342810315 	-4.85722573273506e-17 	1.02111346190138 	0.016208909437847 	0
7.99999999999999 	2.61749637190832 	-4.5102810375397e-17 	1.01945668907162 	0.0157337715311697 	0
7.99999999999999 	2.63619435387806 	-4.5102810375397e-17 	1.01738361592258 	0.0152708492292598 	0
7.99999999999999 	2.65423157945406 	-4.85722573273506e-17 	1.01487522601 	0.0148193780771198 	0
7.99999999999999 	2.67163139869691 	-5.55111512312578e-17 	1.0119111642708 	0.0143786151567377 	0
7.99999999999999 	2.68841633651388 	-5.89805981832114e-17 	1.00847030147783 	0.013947838114902 	0
7.99999999999999 	2.7046081218185 	-5.89805981832114e-17 	1.00453139074052 	0.0135263432067261 	0
7.99999999999999 	2.72022771565972 	-5.89805981832114e-17 	1.00007379187679 	0.0131134423709601 	0
7.99999999999999 	2.73529533835694 	-6.24500451351651e-17 	0.995078225258635 	0.0127084595012177 	1.78167776151812e-16
7.99999999999999 	2.74983049567625 	-6.24500451351651e-17 	0.989527504858053 	0.012310726238824 	1.71666980205005e-16
7.99999999999999 	2.76385200408156 	-6.24500451351651e-17 	0.983407193390452 	0.0119195777273263 	-1.91114848359265e-16
7.99999999999999 	2.77737801509343 	-6.59194920871187e-17 	0.976706122584784 	0.0115343488713842 	-1.84614052412479e-16
7.99999999999999 	2.79042603878708 	-6.59194920871187e-17 	0.969416729108327 	0.0111543722323473 	0
7.99999999999999 	2.80301296646003 	-6.24500451351651e-17 	0.961535170185953 	0.0107789795137614 	0
7.99999999999999 	2.81515509249872 	-5.89805981832114e-17 	0.953061199777465 	0.0104075018953489 	0
7.99999999999999 	2.82686813547237 	-6.24500451351651e-17 	0.943997803052664 	0.0100392416913161 	0
7.99999999999999 	2.83816725848142 	-6.59194920871187e-17 	0.934350600132799 	0.00967344559512306 	0
7.99999999999999 	2.84906708878691 	-6.59194920871187e-17 	0.924124912596847 	0.00930968017641434 	0
7.99999999999999 	2.85958173674616 	-6.59194920871187e-17 	0.913300213933553 	0.00894737606492938 	0
7.99999999999999 	2.86972481407933 	-7.28583859910259e-17 	0.901791522050708 	0.00858453609012561 	0
7.99999999999999 	2.87950945149043 	-8.32667268468867e-17 	0.889529226011196 	0.00821904099378459 	0
7.99999999999999 	2.88894831566566 	-8.50014503228635e-17 	0.876540490625647 	0.00785063323969933 	0
7.99999999999999 	2.89805362567106 	-8.32667268468867e-17 	0.862899210135733 	0.00747887967687044 	0
7.99999999999999 	2.90683716877067 	-8.32667268468867e-17 	0.848685477529851 	0.00710343944518386 	0
7.99999999999999 	2.91531031568569 	-8.32667268468867e-17 	0.833964639557425 	0.00672405514931345 	0
7.99999999999999 	2.92348403531448 	-8.32667268468867e-17 	0.818779250993803 	0.00634033192736905 	0
7.99999999999999 	2.93136890893229 	-8.32667268468867e-17 	0.803145537650351 	0.00595167294567738 	0
7.99999999999999 	2.93897514388925 	-7.97972798949331e-17 	0.787044354074679 	0.00555785832688726 	0
7.99999999999999 	2.94631258682425 	-7.63278329429795e-17 	0.77039528965932 	0.00516021636048997 	0
7.99999999999999 	2.95339073641193 	-7.97972798949331e-17 	0.753031995813066 	0.00475979620443655 	0
7.99999999999999 	2.96021875565915 	-8.32667268468867e-17 	0.734749818452378 	0.00435869550430974 	0
7.99999999999999 	2.96680548376697 	-8.67361737988404e-17 	0.715327496932811 	0.00395873174881568 	0
7.99999999999999 	2.97315944757337 	-8.67361737988404e-17 	0.694471869920831 	0.00356084770096688 	0
7.99999999999999 	2.97928887259171 	-7.97972798949331e-17 	0.671785081708315 	0.00316622840465267 	0
7.99999999999999 	2.98520169365902 	-7.63278329429795e-17 	0.646721927083648 	0.00277639522623287 	0
7.99999999999999 	2.99090556520806 	-7.63278329429795e-17 	0.61852722411283 	0.00239325606976056 	0
7.99999999999999 	2.99640787117633 	-7.63278329429795e-17 	0.586142026131564 	0.00201937820701399 	0
7.99999999999999 	3.00171573456492 	-7.28583859910259e-17 	0.548099943347804 	0.00165768567749224 	0
7.99999999999999 	3.00683602665962 	-7.28583859910259e-17 	0.502429738598139 	0.0013122614414103 	0
7.99999999999999 	3.01177537592612 	-7.63278329429795e-17 	0.44677955802908 	0.000987344502185664 	0
7.99999999999999 	3.01654017659085 	-7.63278329429795e-17 	0.379411714876625 	0.000689489040325522 	0
7.99999999999999 	3.02113659691864 	-7.97972798949331e-17 	0.301322537738222 	0.000430231568027941 	0
7.99999999999999 	3.02557058719784 	-7.97972798949331e-17 	0.216888482370897 	0.000224538155458961 	0
7.99999999999999 	3.02984788744324 	-7.63278329429795e-17 	0.130459871971518 	8.40062167413768e-05 	0
