/*--------------------------------*- C++ -*----------------------------------*\
  =========                 |
  \\      /  F ield         | OpenFOAM: The Open Source CFD Toolbox
   \\    /   O peration     | Website:  https://openfoam.org
    \\  /    A nd           | Version:  7
     \\/     M anipulation  |
\*---------------------------------------------------------------------------*/
FoamFile
{
    version     2.0;
    format      ascii;
    class       volScalarField;
    location    "3636";
    object      k;
}
// * * * * * * * * * * * * * * * * * * * * * * * * * * * * * * * * * * * * * //

dimensions      [0 2 -2 0 0 0 0];

internalField   nonuniform List<scalar> 
15463
(
6.6469
6.98677
7.56857
8.3098
9.14366
10.0186
10.8964
11.7503
12.5622
13.3213
14.0209
14.654
15.2117
15.6887
16.083
16.3939
16.6206
16.7612
16.8122
16.7683
16.6225
16.3654
15.9864
15.4734
14.8139
13.997
13.0159
11.8715
10.5761
9.15628
7.6439
6.10962
4.64949
3.36019
2.30831
1.5122
0.947737
0.568696
0.325751
0.176733
0.0895559
0.0414162
0.0168167
0.00559556
0.00133081
0.000165817
4.97351e-06
6.64682
6.98669
7.56849
8.30971
9.14357
10.0185
10.8963
11.7502
12.5621
13.3212
14.0207
14.6539
15.2116
15.6886
16.0829
16.3938
16.6205
16.7611
16.8121
16.7683
16.6224
16.3654
15.9864
15.4733
14.8138
13.997
13.0159
11.8714
10.576
9.15625
7.64387
6.1096
4.64947
3.36018
2.3083
1.5122
0.947734
0.568694
0.325749
0.176732
0.0895555
0.041416
0.0168166
0.00559553
0.0013308
0.000165817
4.97349e-06
6.64667
6.98654
7.56834
8.30955
9.1434
10.0183
10.8961
11.75
12.5619
13.321
14.0205
14.6537
15.2114
15.6884
16.0827
16.3936
16.6203
16.7609
16.8119
16.7681
16.6222
16.3652
15.9862
15.4731
14.8137
13.9968
13.0157
11.8713
10.5759
9.15612
7.64375
6.10949
4.64939
3.36011
2.30825
1.51216
0.947713
0.568682
0.325742
0.176728
0.0895536
0.0414151
0.0168163
0.00559541
0.00133077
0.000165813
4.97338e-06
6.64646
6.98632
7.56811
8.30931
9.14314
10.018
10.8958
11.7497
12.5616
13.3207
14.0202
14.6534
15.2111
15.6881
16.0824
16.3932
16.6199
16.7606
16.8116
16.7678
16.6219
16.3649
15.9859
15.4728
14.8134
13.9965
13.0154
11.871
10.5756
9.15587
7.64353
6.1093
4.64923
3.35999
2.30816
1.51211
0.947675
0.568659
0.325729
0.176721
0.0895499
0.0414134
0.0168156
0.00559518
0.00133072
0.000165806
4.97318e-06
6.64617
6.98602
7.5678
8.30899
9.1428
10.0177
10.8954
11.7493
12.5612
13.3202
14.0198
14.6529
15.2106
15.6876
16.0819
16.3928
16.6195
16.7601
16.8111
16.7673
16.6214
16.3644
15.9854
15.4724
14.8129
13.9961
13.015
11.8706
10.5752
9.15551
7.6432
6.10902
4.649
3.35981
2.30804
1.51202
0.947619
0.568625
0.325709
0.17671
0.0895445
0.0414109
0.0168145
0.00559484
0.00133064
0.000165796
4.97288e-06
6.64582
6.98566
7.56742
8.30858
9.14237
10.0172
10.895
11.7488
12.5607
13.3197
14.0192
14.6524
15.2101
15.687
16.0813
16.3922
16.6189
16.7595
16.8105
16.7667
16.6208
16.3638
15.9848
15.4718
14.8123
13.9955
13.0144
11.87
10.5747
9.15502
7.64276
6.10864
4.64869
3.35957
2.30786
1.5119
0.947545
0.56858
0.325684
0.176696
0.0895373
0.0414076
0.0168132
0.0055944
0.00133053
0.000165783
4.97248e-06
6.64539
6.98522
7.56696
8.30809
9.14185
10.0166
10.8944
11.7482
12.56
13.319
14.0185
14.6516
15.2093
15.6863
16.0806
16.3914
16.6181
16.7587
16.8097
16.7659
16.62
16.363
15.984
15.471
14.8116
13.9947
13.0137
11.8693
10.5741
9.15442
7.64222
6.10817
4.64831
3.35928
2.30765
1.51176
0.947453
0.568524
0.325651
0.176678
0.0895284
0.0414035
0.0168115
0.00559384
0.0013304
0.000165766
4.97198e-06
6.64489
6.9847
7.56641
8.30751
9.14123
10.016
10.8937
11.7474
12.5593
13.3182
14.0177
14.6508
15.2085
15.6854
16.0797
16.3905
16.6172
16.7578
16.8088
16.765
16.6191
16.3621
15.9831
15.4701
14.8107
13.9939
13.0129
11.8685
10.5733
9.1537
7.64157
6.10761
4.64784
3.35892
2.3074
1.51158
0.947342
0.568457
0.325612
0.176657
0.0895177
0.0413985
0.0168095
0.00559317
0.00133024
0.000165747
4.97139e-06
6.64432
6.98411
7.56579
8.30684
9.14052
10.0152
10.8929
11.7466
12.5584
13.3173
14.0168
14.6498
15.2075
15.6844
16.0786
16.3895
16.6161
16.7567
16.8077
16.7639
16.618
16.361
15.9821
15.469
14.8096
13.9928
13.0119
11.8676
10.5724
9.15286
7.64082
6.10696
4.64731
3.35851
2.3071
1.51138
0.947213
0.568378
0.325567
0.176633
0.0895052
0.0413928
0.0168072
0.00559239
0.00133005
0.000165723
4.97069e-06
6.64366
6.98343
7.56507
8.30608
9.1397
10.0144
10.892
11.7456
12.5574
13.3162
14.0157
14.6487
15.2063
15.6832
16.0774
16.3883
16.6149
16.7555
16.8065
16.7627
16.6168
16.3598
15.9808
15.4678
14.8084
13.9917
13.0107
11.8665
10.5713
9.1519
7.63995
6.1062
4.64669
3.35803
2.30675
1.51115
0.947065
0.568288
0.325515
0.176605
0.0894909
0.0413861
0.0168045
0.00559149
0.00132984
0.000165697
4.9699e-06
6.64293
6.98267
7.56427
8.30523
9.13879
10.0134
10.8909
11.7445
12.5562
13.315
14.0144
14.6474
15.205
15.6819
16.0761
16.3869
16.6135
16.7541
16.8051
16.7613
16.6154
16.3584
15.9795
15.4665
14.8071
13.9903
13.0094
11.8652
10.5702
9.15081
7.63896
6.10535
4.64599
3.3575
2.30637
1.51089
0.946897
0.568186
0.325457
0.176573
0.0894747
0.0413786
0.0168014
0.00559048
0.0013296
0.000165667
4.969e-06
6.64211
6.98183
7.56338
8.30428
9.13777
10.0123
10.8898
11.7433
12.5549
13.3137
14.0131
14.646
15.2036
15.6804
16.0746
16.3854
16.612
16.7526
16.8036
16.7597
16.6139
16.3569
15.9779
15.4649
14.8056
13.9888
13.008
11.8638
10.5688
9.14959
7.63787
6.1044
4.64521
3.3569
2.30593
1.5106
0.94671
0.568072
0.325391
0.176537
0.0894566
0.0413703
0.016798
0.00558935
0.00132933
0.000165633
4.96799e-06
6.64121
6.9809
7.56239
8.30322
9.13664
10.0111
10.8885
11.7419
12.5535
13.3122
14.0115
14.6444
15.2019
15.6788
16.0729
16.3837
16.6103
16.7508
16.8018
16.758
16.6121
16.3552
15.9762
15.4632
14.8039
13.9872
13.0064
11.8623
10.5674
9.14824
7.63665
6.10335
4.64435
3.35623
2.30545
1.51027
0.946502
0.567946
0.325318
0.176497
0.0894365
0.0413609
0.0167943
0.00558809
0.00132903
0.000165596
4.96687e-06
6.64022
6.97987
7.5613
8.30206
9.13539
10.0098
10.8871
11.7404
12.552
13.3106
14.0098
14.6427
15.2002
15.677
16.0711
16.3818
16.6084
16.749
16.7999
16.7561
16.6102
16.3533
15.9743
15.4614
14.802
13.9854
13.0046
11.8606
10.5658
9.14675
7.6353
6.10218
4.64339
3.35549
2.30492
1.50991
0.946272
0.567807
0.325238
0.176454
0.0894143
0.0413507
0.0167901
0.00558671
0.0013287
0.000165555
4.96564e-06
6.63913
6.97875
7.56012
8.30079
9.13403
10.0083
10.8855
11.7388
12.5502
13.3088
14.008
14.6408
15.1982
15.675
16.069
16.3798
16.6064
16.7469
16.7979
16.754
16.6082
16.3512
15.9722
15.4593
14.8
13.9834
13.0027
11.8587
10.564
9.14511
7.63383
6.10091
4.64235
3.35469
2.30434
1.50952
0.946021
0.567654
0.32515
0.176406
0.08939
0.0413395
0.0167855
0.00558519
0.00132834
0.00016551
4.96429e-06
6.63795
6.97752
7.55882
8.2994
9.13254
10.0067
10.8838
11.737
12.5484
13.3069
14.006
14.6387
15.1961
15.6728
16.0668
16.3775
16.6041
16.7446
16.7956
16.7517
16.6059
16.3489
15.97
15.4571
14.7978
13.9812
13.0006
11.8567
10.5621
9.14333
7.63222
6.09952
4.64121
3.35381
2.30371
1.50909
0.945747
0.567488
0.325054
0.176354
0.0893635
0.0413272
0.0167805
0.00558353
0.00132795
0.000165461
4.96282e-06
6.63668
6.9762
7.55742
8.2979
9.13093
10.005
10.882
11.7351
12.5463
13.3047
14.0038
14.6364
15.1938
15.6704
16.0644
16.3751
16.6017
16.7422
16.7931
16.7493
16.6034
16.3464
15.9675
15.4546
14.7954
13.9789
12.9983
11.8545
10.56
9.14139
7.63047
6.098
4.63997
3.35286
2.30302
1.50862
0.945449
0.567307
0.32495
0.176297
0.0893348
0.0413139
0.0167751
0.00558173
0.00132752
0.000165408
4.96122e-06
6.6353
6.97477
7.5559
8.29628
9.12919
10.0031
10.88
11.733
12.5441
13.3024
14.0014
14.634
15.1912
15.6679
16.0618
16.3725
16.599
16.7395
16.7904
16.7466
16.6007
16.3438
15.9649
15.452
14.7928
13.9763
12.9958
11.8521
10.5577
9.13929
7.62858
6.09637
4.63862
3.35182
2.30228
1.50812
0.945126
0.567111
0.324837
0.176235
0.0893036
0.0412994
0.0167693
0.00557978
0.00132705
0.00016535
4.95949e-06
6.63381
6.97323
7.55427
8.29452
9.1273
10.0011
10.8779
11.7307
12.5417
13.3
13.9988
14.6313
15.1885
15.6651
16.059
16.3697
16.5962
16.7366
16.7876
16.7437
16.5978
16.3409
15.962
15.4491
14.79
13.9735
12.9931
11.8495
10.5553
9.13703
7.62653
6.0946
4.63717
3.3507
2.30147
1.50757
0.944777
0.566899
0.324715
0.176169
0.0892699
0.0412839
0.0167629
0.00557767
0.00132655
0.000165287
4.95761e-06
6.63221
6.97157
7.55251
8.29264
9.12528
9.99893
10.8755
11.7283
12.5392
13.2973
13.996
14.6285
15.1856
15.6621
16.056
16.3666
16.5931
16.7335
16.7844
16.7406
16.5947
16.3378
15.9589
15.4461
14.7869
13.9706
12.9902
11.8467
10.5526
9.13458
7.62433
6.09269
4.63561
3.3495
2.30061
1.50699
0.944402
0.566671
0.324584
0.176097
0.0892336
0.0412671
0.0167561
0.0055754
0.00132601
0.00016522
4.9556e-06
6.6305
6.96979
7.55062
8.29061
9.1231
9.9966
10.8731
11.7256
12.5364
13.2944
13.9931
14.6254
15.1825
15.6589
16.0528
16.3633
16.5898
16.7302
16.7811
16.7372
16.5914
16.3344
15.9556
15.4428
14.7837
13.9674
12.9871
11.8437
10.5498
9.13196
7.62196
6.09064
4.63393
3.34821
2.29967
1.50636
0.943998
0.566426
0.324443
0.176021
0.0891946
0.041249
0.0167488
0.00557297
0.00132543
0.000165148
4.95343e-06
6.62866
6.96789
7.5486
8.28844
9.12077
9.9941
10.8704
11.7228
12.5335
13.2913
13.9899
14.6221
15.1791
15.6555
16.0493
16.3598
16.5862
16.7266
16.7775
16.7336
16.5878
16.3308
15.952
15.4392
14.7802
13.9639
12.9837
11.8405
10.5468
9.12914
7.61942
6.08844
4.63213
3.34682
2.29867
1.50568
0.943565
0.566164
0.324291
0.175938
0.0891528
0.0412297
0.0167409
0.00557035
0.00132481
0.00016507
4.95111e-06
6.62671
6.96586
7.54644
8.28613
9.11828
9.99143
10.8675
11.7198
12.5303
13.288
13.9865
14.6186
15.1755
15.6518
16.0455
16.356
16.5824
16.7228
16.7737
16.7298
16.5839
16.327
15.9482
15.4354
14.7764
13.9603
12.9801
11.837
10.5435
9.12612
7.6167
6.08609
4.6302
3.34534
2.2976
1.50495
0.943102
0.565882
0.324129
0.17585
0.089108
0.041209
0.0167325
0.00556755
0.00132415
0.000164987
4.94862e-06
6.62462
6.96369
7.54414
8.28365
9.11561
9.98857
10.8645
11.7166
12.5269
13.2845
13.9828
14.6149
15.1716
15.6479
16.0416
16.352
16.5783
16.7187
16.7696
16.7257
16.5798
16.3229
15.9441
15.4314
14.7724
13.9563
12.9763
11.8334
10.54
9.1229
7.6138
6.08358
4.62814
3.34375
2.29646
1.50418
0.942607
0.565582
0.323956
0.175756
0.0890602
0.0411868
0.0167235
0.00556456
0.00132343
0.000164899
4.94596e-06
6.62241
6.96139
7.54169
8.28102
9.11278
9.98553
10.8613
11.7132
12.5233
13.2808
13.9789
14.6108
15.1675
15.6437
16.0373
16.3477
16.574
16.7143
16.7652
16.7213
16.5754
16.3185
15.9397
15.4271
14.7681
13.9521
12.9722
11.8294
10.5363
9.11946
7.61069
6.08089
4.62594
3.34205
2.29524
1.50335
0.942078
0.565261
0.323771
0.175655
0.0890091
0.0411632
0.0167139
0.00556137
0.00132268
0.000164804
4.94312e-06
6.62006
6.95895
7.53909
8.27822
9.10976
9.98228
10.8578
11.7095
12.5195
13.2767
13.9748
14.6066
15.1631
15.6392
16.0328
16.3431
16.5693
16.7097
16.7605
16.7166
16.5707
16.3138
15.9351
15.4224
14.7636
13.9477
12.9679
11.8252
10.5323
9.11579
7.60739
6.07803
4.62359
3.34025
2.29394
1.50247
0.941515
0.564919
0.323574
0.175548
0.0889547
0.041138
0.0167037
0.00555796
0.00132187
0.000164703
4.9401e-06
6.61756
6.95635
7.53632
8.27524
9.10655
9.97884
10.8541
11.7056
12.5154
13.2725
13.9703
14.602
15.1585
15.6345
16.0279
16.3382
16.5644
16.7047
16.7555
16.7116
16.5657
16.3089
15.9301
15.4175
14.7587
13.9429
12.9633
11.8208
10.5281
9.11188
7.60387
6.07498
4.62109
3.33833
2.29255
1.50154
0.940916
0.564555
0.323364
0.175434
0.0888968
0.0411112
0.0166928
0.00555435
0.00132101
0.000164596
4.93688e-06
6.61493
6.95361
7.5334
8.27209
9.10314
9.97518
10.8502
11.7015
12.511
13.2679
13.9656
14.5971
15.1535
15.6294
16.0228
16.333
16.5592
16.6994
16.7502
16.7063
16.5604
16.3036
15.9249
15.4123
14.7536
13.9378
12.9583
11.8161
10.5236
9.10773
7.60013
6.07175
4.61844
3.33629
2.29108
1.50054
0.940279
0.564169
0.323141
0.175313
0.0888353
0.0410828
0.0166813
0.0055505
0.00132009
0.000164482
4.93346e-06
6.61214
6.9507
7.5303
8.26875
9.09954
9.9713
10.8461
11.6971
12.5064
13.2631
13.9606
14.592
15.1482
15.624
16.0173
16.3275
16.5536
16.6938
16.7446
16.7007
16.5548
16.298
15.9193
15.4068
14.7481
13.9325
12.9531
11.811
10.5189
9.10333
7.59616
6.06831
4.61563
3.33412
2.28952
1.49948
0.939604
0.563759
0.322905
0.175184
0.0887701
0.0410526
0.016669
0.00554642
0.00131912
0.000164361
4.92984e-06
6.6092
6.94764
7.52703
8.26521
9.09572
9.96719
10.8417
11.6924
12.5015
13.258
13.9553
14.5866
15.1427
15.6183
16.0116
16.3216
16.5477
16.6879
16.7387
16.6947
16.5489
16.292
15.9134
15.4009
14.7423
13.9268
12.9476
11.8057
10.5138
9.09866
7.59195
6.06467
4.61264
3.33182
2.28787
1.49836
0.938887
0.563324
0.322655
0.175048
0.0887009
0.0410206
0.016656
0.00554209
0.00131809
0.000164233
4.92599e-06
6.6061
6.94441
7.52357
8.26148
9.09168
9.96284
10.837
11.6875
12.4964
13.2526
13.9497
14.5808
15.1367
15.6123
16.0054
16.3154
16.5415
16.6816
16.7323
16.6884
16.5425
16.2857
15.9071
15.3947
14.7362
13.9207
12.9417
11.8
10.5085
9.09371
7.58749
6.06082
4.60948
3.32939
2.28611
1.49718
0.938129
0.562864
0.322389
0.174903
0.0886277
0.0409867
0.0166423
0.00553751
0.001317
0.000164097
4.92192e-06
6.60284
6.94101
7.51994
8.25755
9.08742
9.95825
10.8321
11.6823
12.4909
13.2469
13.9438
14.5747
15.1305
15.6059
15.9989
16.3089
16.5349
16.675
16.7257
16.6817
16.5358
16.279
15.9005
15.3881
14.7297
13.9144
12.9355
11.7941
10.5028
9.08848
7.58277
6.05674
4.60614
3.32682
2.28426
1.49592
0.937327
0.562377
0.322109
0.174751
0.0885502
0.0409508
0.0166277
0.00553267
0.00131585
0.000163954
4.91762e-06
6.59942
6.93744
7.51611
8.2534
9.08293
9.95341
10.827
11.6768
12.4851
13.2409
13.9375
14.5682
15.1238
15.5992
15.9921
16.3019
16.5279
16.6679
16.7186
16.6746
16.5288
16.272
15.8934
15.3811
14.7228
13.9076
12.9289
11.7878
10.4969
9.08295
7.57779
6.05243
4.60261
3.3241
2.2823
1.4946
0.93648
0.561863
0.321813
0.17459
0.0884684
0.040913
0.0166123
0.00552755
0.00131463
0.000163802
4.91307e-06
6.59584
6.93369
7.51209
8.24904
9.0782
9.9483
10.8215
11.671
12.479
13.2345
13.9309
14.5614
15.1169
15.592
15.9849
16.2946
16.5205
16.6605
16.7112
16.6672
16.5213
16.2645
15.886
15.3738
14.7155
13.9005
12.922
11.7811
10.4906
9.07711
7.57253
6.04788
4.59888
3.32123
2.28024
1.4932
0.935587
0.561321
0.3215
0.174419
0.0883821
0.040873
0.0165961
0.00552216
0.00131335
0.000163642
4.90827e-06
6.59208
6.92976
7.50787
8.24446
9.07322
9.94293
10.8157
11.6649
12.4725
13.2277
13.9239
14.5542
15.1095
15.5845
15.9772
16.2869
16.5127
16.6527
16.7033
16.6593
16.5135
16.2567
15.8782
15.366
14.7079
13.893
12.9147
11.7741
10.4839
9.07096
7.56698
6.04308
4.59495
3.31821
2.27806
1.49173
0.934645
0.560749
0.321171
0.17424
0.0882911
0.0408309
0.016579
0.00551647
0.001312
0.000163474
4.90321e-06
6.58816
6.92565
7.50344
8.23965
9.06799
9.93727
10.8097
11.6584
12.4658
13.2207
13.9166
14.5466
15.1017
15.5766
15.9692
16.2788
16.5045
16.6444
16.695
16.651
16.5052
16.2484
15.87
15.3579
14.6998
13.8851
12.907
11.7667
10.4769
9.06447
7.56113
6.03802
4.59081
3.31503
2.27577
1.49018
0.933652
0.560147
0.320824
0.174051
0.0881953
0.0407866
0.016561
0.00551047
0.00131057
0.000163296
4.89789e-06
6.58406
6.92135
7.49881
8.2346
9.0625
9.93133
10.8033
11.6517
12.4586
13.2132
13.9088
14.5386
15.0935
15.5683
15.9607
16.2702
16.4959
16.6357
16.6863
16.6423
16.4964
16.2397
15.8613
15.3493
14.6914
13.8767
12.8989
11.7589
10.4695
9.05764
7.55498
6.03271
4.58645
3.31168
2.27335
1.48854
0.932609
0.559513
0.320459
0.173853
0.0880945
0.04074
0.0165421
0.00550417
0.00130907
0.000163109
4.89229e-06
6.57978
6.91687
7.49397
8.22932
9.05674
9.9251
10.7966
11.6446
12.4511
13.2054
13.9007
14.5302
15.0849
15.5595
15.9518
16.2612
16.4868
16.6266
16.6771
16.6331
16.4873
16.2306
15.8522
15.3403
14.6824
13.868
12.8903
11.7507
10.4618
9.05047
7.54851
6.02712
4.58187
3.30815
2.27082
1.48683
0.931512
0.558848
0.320075
0.173644
0.0879886
0.040691
0.0165222
0.00549755
0.0013075
0.000162913
4.8864e-06
6.57534
6.9122
7.48892
8.2238
9.05071
9.91856
10.7896
11.6371
12.4432
13.1971
13.8921
14.5214
15.0759
15.5503
15.9425
16.2518
16.4773
16.617
16.6675
16.6234
16.4776
16.2209
15.8427
15.3308
14.673
13.8588
12.8814
11.742
10.4536
9.04293
7.54172
6.02124
4.57706
3.30445
2.26815
1.48503
0.93036
0.558149
0.319672
0.173425
0.0878774
0.0406395
0.0165013
0.0054906
0.00130584
0.000162707
4.88022e-06
6.57072
6.90733
7.48365
8.21804
9.04441
9.91172
10.7822
11.6292
12.435
13.1885
13.8831
14.5121
15.0664
15.5406
15.9326
16.2418
16.4672
16.6069
16.6574
16.6133
16.4675
16.2108
15.8326
15.3208
14.6632
13.8491
12.872
11.733
10.4451
9.03501
7.53459
6.01508
4.57202
3.30057
2.26536
1.48314
0.929152
0.557416
0.31925
0.173195
0.0877608
0.0405855
0.0164793
0.0054833
0.00130411
0.000162491
4.87374e-06
6.56592
6.90228
7.47817
8.21202
9.03782
9.90456
10.7745
11.621
12.4263
13.1794
13.8737
14.5024
15.0564
15.5304
15.9223
16.2314
16.4567
16.5964
16.6468
16.6027
16.4569
16.2002
15.8221
15.3103
14.6529
13.839
12.8621
11.7235
10.4361
9.02671
7.52712
6.00862
4.56673
3.29651
2.26243
1.48116
0.927886
0.556648
0.318807
0.172954
0.0876385
0.040529
0.0164564
0.00547566
0.00130229
0.000162264
4.86694e-06
6.56096
6.89704
7.47247
8.20576
9.03095
9.89707
10.7664
11.6124
12.4172
13.1699
13.8638
14.4922
15.046
15.5198
15.9115
16.2205
16.4457
16.5853
16.6357
16.5916
16.4457
16.1891
15.811
15.2994
14.6421
13.8284
12.8518
11.7136
10.4267
9.01802
7.51929
6.00185
4.56119
3.29225
2.25936
1.47908
0.926561
0.555843
0.318344
0.172702
0.0875106
0.0404698
0.0164323
0.00546766
0.00130039
0.000162027
4.85983e-06
6.55583
6.89162
7.46655
8.19924
9.02378
9.88926
10.758
11.6034
12.4077
13.1599
13.8535
14.4815
15.035
15.5086
15.9002
16.209
16.4342
16.5737
16.624
16.5799
16.4341
16.1775
15.7994
15.2879
14.6307
13.8172
12.841
11.7032
10.4169
9.00892
7.51109
5.99477
4.55538
3.28779
2.25616
1.47691
0.925174
0.555002
0.317859
0.172438
0.0873767
0.0404078
0.0164072
0.00545928
0.0012984
0.000161779
4.85239e-06
6.55053
6.88601
7.46042
8.19247
9.01632
9.88111
10.7492
11.594
12.3978
13.1495
13.8427
14.4703
15.0236
15.4969
15.8883
16.197
16.4221
16.5615
16.6118
16.5677
16.4219
16.1653
15.7873
15.2759
14.6189
13.8056
12.8296
11.6923
10.4066
8.99939
7.5025
5.98735
4.54932
3.28312
2.2528
1.47464
0.923723
0.554121
0.317351
0.172162
0.0872366
0.040343
0.0163808
0.00545052
0.00129631
0.00016152
4.8446e-06
6.54508
6.88022
7.45407
8.18544
9.00856
9.87263
10.74
11.5842
12.3874
13.1386
13.8313
14.4587
15.0116
15.4847
15.8759
16.1845
16.4094
16.5488
16.5991
16.5549
16.4091
16.1526
15.7747
15.2633
14.6065
13.7934
12.8178
11.6809
10.3958
8.98938
7.49349
5.97956
4.54294
3.27822
2.24927
1.47226
0.9222
0.553197
0.316819
0.171872
0.0870895
0.0402749
0.0163532
0.00544133
0.00129413
0.000161247
4.83643e-06
6.53947
6.87425
7.44751
8.17815
9.0005
9.86379
10.7305
11.574
12.3766
13.1273
13.8195
14.4464
14.9991
15.472
15.863
16.1714
16.3962
16.5355
16.5857
16.5415
16.3957
16.1393
15.7614
15.2502
14.5935
13.7806
12.8053
11.6689
10.3845
8.97887
7.48402
5.97139
4.53625
3.27309
2.24558
1.46976
0.920604
0.552229
0.316261
0.171569
0.0869355
0.0402037
0.0163242
0.0054317
0.00129184
0.000160962
4.82787e-06
6.53371
6.86811
7.44074
8.17061
8.99213
9.85461
10.7205
11.5633
12.3653
13.1154
13.8072
14.4337
14.986
15.4586
15.8495
16.1577
16.3824
16.5217
16.5718
16.5276
16.3818
16.1254
15.7475
15.2364
14.5799
13.7673
12.7924
11.6565
10.3727
8.96791
7.47415
5.96286
4.52928
3.26773
2.24172
1.46716
0.918939
0.551219
0.315679
0.171252
0.0867749
0.0401293
0.0162941
0.00542165
0.00128945
0.000160664
4.81894e-06
6.52781
6.86181
7.43377
8.16282
8.98347
9.84508
10.7102
11.5523
12.3535
13.1031
13.7943
14.4204
14.9724
15.4447
15.8354
16.1435
16.3681
16.5072
16.5573
16.5131
16.3673
16.1109
15.7331
15.2221
14.5657
13.7534
12.7789
11.6435
10.3604
8.95649
7.46386
5.95397
4.52201
3.26215
2.23771
1.46444
0.917206
0.550167
0.315073
0.170922
0.0866076
0.0400519
0.0162626
0.00541119
0.00128696
0.000160354
4.80965e-06
6.52178
6.85535
7.4266
8.15478
8.9745
9.8352
10.6994
11.5407
12.3413
13.0902
13.7809
14.4066
14.9582
15.4303
15.8207
16.1286
16.3531
16.4921
16.5422
16.4979
16.3521
16.0957
15.7181
15.2072
14.551
13.739
12.7648
11.6299
10.3475
8.94459
7.45314
5.94472
4.51445
3.25634
2.23353
1.46162
0.915402
0.549073
0.314443
0.170579
0.0864336
0.0399714
0.0162299
0.00540031
0.00128437
0.000160032
4.79998e-06
6.51563
6.84875
7.41923
8.14649
8.96523
9.82496
10.6883
11.5287
12.3286
13.0769
13.767
14.3922
14.9434
15.4152
15.8054
16.1131
16.3375
16.4764
16.5264
16.4821
16.3364
16.08
15.7024
15.1917
14.5357
13.7239
12.7501
11.6158
10.3342
8.93221
7.442
5.9351
4.50658
3.2503
2.22919
1.45869
0.913528
0.547936
0.313788
0.170223
0.0862528
0.0398878
0.0161959
0.005389
0.00128168
0.000159696
4.78993e-06
6.50938
6.842
7.41168
8.13796
8.95566
9.81436
10.6767
11.5163
12.3154
13.063
13.7525
14.3772
14.928
15.3995
15.7895
16.097
16.3213
16.4601
16.5101
16.4657
16.32
16.0637
15.6862
15.1755
14.5197
13.7083
12.7349
11.6012
10.3203
8.91935
7.43042
5.92511
4.49841
3.24403
2.22468
1.45564
0.911582
0.546755
0.313108
0.169853
0.086065
0.0398009
0.0161607
0.00537726
0.00127889
0.000159349
4.77949e-06
6.50303
6.83513
7.40395
8.12919
8.94579
9.80341
10.6648
11.5034
12.3017
13.0485
13.7374
14.3616
14.912
15.3832
15.7729
16.0803
16.3044
16.4432
16.4931
16.4487
16.3029
16.0467
15.6693
15.1588
14.5032
13.692
12.7191
11.586
10.306
8.90599
7.41839
5.91473
4.48992
3.23752
2.22
1.45248
0.909562
0.545531
0.312402
0.169469
0.0858702
0.0397107
0.0161241
0.00536508
0.00127599
0.000158988
4.76866e-06
6.4966
6.82815
7.39606
8.12019
8.93563
9.79211
10.6524
11.4901
12.2875
13.0336
13.7218
14.3455
14.8954
15.3663
15.7558
16.063
16.2869
16.4256
16.4754
16.431
16.2853
16.0291
15.6517
15.1414
14.486
13.6752
12.7027
11.5702
10.291
8.89213
7.40591
5.90396
4.48112
3.23077
2.21515
1.4492
0.907468
0.544261
0.311671
0.169071
0.0856682
0.0396173
0.0160861
0.00535245
0.00127299
0.000158613
4.75744e-06
6.49011
6.82108
7.38802
8.11098
8.92518
9.78045
10.6396
11.4763
12.2727
13.0181
13.7056
14.3287
14.8782
15.3488
15.738
16.045
16.2688
16.4074
16.4571
16.4127
16.2669
16.0108
15.6335
15.1233
14.4682
13.6577
12.6857
11.5538
10.2755
8.87776
7.39297
5.8928
4.47201
3.22377
2.21012
1.4458
0.9053
0.542945
0.310913
0.168659
0.0854591
0.0395205
0.0160468
0.00533937
0.00126988
0.000158226
4.74581e-06
6.48357
6.81391
7.37983
8.10155
8.91445
9.76844
10.6264
11.462
12.2575
13.002
13.6888
14.3113
14.8604
15.3306
15.7195
16.0263
16.25
16.3884
16.4381
16.3937
16.2479
15.9918
15.6147
15.1046
14.4497
13.6395
12.668
11.5369
10.2595
8.86287
7.37957
5.88124
4.46256
3.21653
2.20492
1.44229
0.903056
0.541585
0.310129
0.168232
0.0852427
0.0394204
0.0160061
0.00532584
0.00126666
0.000157825
4.73379e-06
6.477
6.80669
7.37152
8.09193
8.90344
9.75609
10.6128
11.4473
12.2418
12.9854
13.6714
14.2933
14.8419
15.3117
15.7004
16.007
16.2305
16.3689
16.4185
16.374
16.2283
15.9722
15.5951
15.0853
14.4306
13.6208
12.6497
11.5193
10.2429
8.84745
7.3657
5.86928
4.45279
3.20904
2.19953
1.43866
0.900736
0.540177
0.309318
0.167791
0.0850189
0.0393168
0.0159641
0.00531185
0.00126333
0.00015741
4.72135e-06
6.47043
6.79942
7.36309
8.08212
8.89217
9.74339
10.5988
11.4321
12.2255
12.9682
13.6535
14.2747
14.8228
15.2922
15.6806
15.987
16.2103
16.3486
16.3981
16.3536
16.2079
15.9519
15.5749
15.0652
14.4108
13.6013
12.6308
11.5011
10.2257
8.83151
7.35136
5.85691
4.44269
3.20129
2.19397
1.4349
0.898338
0.538724
0.308481
0.167336
0.0847878
0.0392099
0.0159207
0.0052974
0.00125989
0.000156982
4.70851e-06
6.46388
6.79212
7.35458
8.07213
8.88064
9.73037
10.5844
11.4164
12.2087
12.9505
13.6349
14.2555
14.8031
15.2721
15.6602
15.9663
16.1895
16.3276
16.3771
16.3326
16.1869
15.9309
15.554
15.0445
14.3903
13.5813
12.6113
11.4823
10.2079
8.81503
7.33653
5.84413
4.43226
3.19329
2.18823
1.43103
0.895864
0.537223
0.307617
0.166865
0.0845492
0.0390995
0.0158758
0.00528248
0.00125635
0.00015654
4.69525e-06
6.45737
6.78483
7.34598
8.06198
8.86887
9.71701
10.5695
11.4002
12.1915
12.9322
13.6157
14.2356
14.7826
15.2513
15.639
15.9449
16.168
16.306
16.3554
16.3108
16.1651
15.9092
15.5325
15.0231
14.3692
13.5605
12.5911
11.4629
10.1896
8.79802
7.32123
5.83094
4.42149
3.18504
2.18231
1.42703
0.893311
0.535675
0.306725
0.16638
0.0843031
0.0389856
0.0158296
0.00526709
0.00125269
0.000156084
4.68157e-06
6.45092
6.77755
7.33734
8.0517
8.85686
9.70334
10.5543
11.3836
12.1736
12.9133
13.5959
14.2151
14.7616
15.2297
15.6172
15.9229
16.1457
16.2836
16.333
16.2884
16.1427
15.8868
15.5102
15.001
14.3474
13.5391
12.5703
11.4429
10.1706
8.78046
7.30544
5.81733
4.41039
3.17654
2.1762
1.42291
0.890681
0.53408
0.305807
0.165881
0.0840496
0.0388683
0.0157819
0.00525124
0.00124892
0.000155614
4.66748e-06
6.44457
6.77032
7.32866
8.04128
8.84464
9.68936
10.5387
11.3666
12.1553
12.8939
13.5755
14.1939
14.7398
15.2076
15.5947
15.9001
16.1228
16.2606
16.3098
16.2652
16.1195
15.8637
15.4872
14.9782
14.3249
13.517
12.5488
11.4223
10.1511
8.76236
7.28916
5.80331
4.39895
3.16777
2.16991
1.41866
0.887972
0.532438
0.304861
0.165366
0.0837885
0.0387475
0.0157329
0.00523491
0.00124503
0.00015513
4.65297e-06
6.43835
6.76316
7.31997
8.03076
8.83221
9.67508
10.5227
11.3491
12.1365
12.8739
13.5545
14.1721
14.7174
15.1847
15.5715
15.8767
16.0992
16.2368
16.286
16.2413
16.0956
15.8399
15.4635
14.9547
14.3017
13.4943
12.5267
11.401
10.131
8.74371
7.27239
5.78886
4.38717
3.15875
2.16344
1.41429
0.885185
0.530749
0.303888
0.164837
0.08352
0.0386233
0.0156824
0.00521812
0.00124104
0.000154633
4.63805e-06
6.43228
6.7561
7.3113
8.02016
8.81959
9.66052
10.5064
11.3311
12.1171
12.8533
13.5329
14.1496
14.6943
15.1611
15.5476
15.8525
16.0748
16.2123
16.2614
16.2167
16.0711
15.8154
15.4391
14.9305
14.2778
13.4708
12.5039
11.3791
10.1103
8.72451
7.25514
5.774
4.37505
3.14947
2.15678
1.4098
0.88232
0.529012
0.302888
0.164293
0.0832439
0.0384955
0.0156305
0.00520086
0.00123694
0.000154121
4.6227e-06
6.42639
6.74918
7.30267
8.00949
8.8068
9.64568
10.4897
11.3127
12.0973
12.8321
13.5107
14.1265
14.6705
15.1369
15.523
15.8276
16.0497
16.1871
16.2361
16.1914
16.0458
15.7902
15.414
14.9056
14.2532
13.4467
12.4804
11.3566
10.089
8.70475
7.23738
5.75872
4.36259
3.13993
2.14994
1.40519
0.879377
0.527228
0.30186
0.163734
0.0829603
0.0383643
0.0155773
0.00518313
0.00123272
0.000153596
4.60694e-06
6.42073
6.74242
7.29412
7.99879
8.79387
9.6306
10.4726
11.2939
12.0769
12.8105
13.4878
14.1028
14.6461
15.1119
15.4976
15.802
16.024
16.1612
16.2101
16.1654
16.0197
15.7642
15.3882
14.88
14.228
13.4219
12.4563
11.3334
10.0671
8.68445
7.21914
5.74301
4.34979
3.13014
2.14292
1.40046
0.876356
0.525397
0.300806
0.16316
0.0826693
0.0382297
0.0155226
0.00516493
0.00122839
0.000153057
4.59077e-06
6.41532
6.73586
7.28566
7.98807
8.7808
9.61527
10.4552
11.2747
12.0561
12.7882
13.4644
14.0784
14.621
15.0863
15.4716
15.7758
15.9975
16.1346
16.1834
16.1386
15.993
15.7376
15.3617
14.8537
14.202
13.3964
12.4315
11.3096
10.0446
8.6636
7.2004
5.72689
4.33665
3.12009
2.13571
1.3956
0.873257
0.523519
0.299724
0.162572
0.0823709
0.0380916
0.0154665
0.00514627
0.00122395
0.000152504
4.57419e-06
6.41021
6.72952
7.27733
7.97737
8.76763
9.59972
10.4375
11.255
12.0347
12.7654
13.4403
14.0533
14.5952
15.06
15.4449
15.7487
15.9702
16.1072
16.156
16.1111
15.9655
15.7102
15.3344
14.8267
14.1753
13.3703
12.4061
11.2851
10.0215
8.64219
7.18118
5.71034
4.32318
3.10978
2.12833
1.39062
0.870082
0.521594
0.298616
0.161969
0.0820651
0.0379501
0.015409
0.00512715
0.00121941
0.000151937
4.55719e-06
6.40542
6.72346
7.26917
7.9667
8.75437
9.58398
10.4195
11.235
12.0129
12.7421
13.4156
14.0276
14.5688
15.033
15.4175
15.721
15.9423
16.0791
16.1278
16.0829
15.9374
15.6821
15.3065
14.799
14.1479
13.3434
12.3799
11.26
9.99777
8.62023
7.16146
5.69338
4.30937
3.09922
2.12076
1.38552
0.86683
0.519624
0.297482
0.161352
0.081752
0.0378052
0.0153502
0.00510757
0.00121475
0.000151357
4.53979e-06
6.40101
6.71769
7.2612
7.95611
8.74105
9.56805
10.4011
11.2146
11.9907
12.7182
13.3904
14.0013
14.5416
15.0053
15.3894
15.6926
15.9137
16.0503
16.0989
16.054
15.9084
15.6532
15.2778
14.7706
14.1199
13.3159
12.3532
11.2343
9.97347
8.59773
7.14125
5.67601
4.29522
3.08841
2.11302
1.3803
0.863503
0.517607
0.296321
0.160721
0.0814316
0.037657
0.01529
0.00508754
0.00120998
0.000150763
4.52199e-06
6.397
6.71227
7.25346
7.94561
8.7277
9.55196
10.3826
11.1938
11.9679
12.6938
13.3646
13.9744
14.5139
14.9769
15.3606
15.6635
15.8843
16.0208
16.0693
16.0244
15.8788
15.6237
15.2484
14.7414
14.0911
13.2877
12.3257
11.208
9.94858
8.57468
7.12056
5.65822
4.28075
3.07735
2.10509
1.37496
0.8601
0.515546
0.295134
0.160075
0.0811041
0.0375054
0.0152285
0.00506706
0.00120511
0.000150156
4.50379e-06
6.39345
6.70723
7.24599
7.93525
8.71435
9.53574
10.3637
11.1726
11.9448
12.6689
13.3382
13.9468
14.4854
14.9479
15.3311
15.6337
15.8543
15.9906
16.039
15.994
15.8485
15.5934
15.2183
14.7116
14.0617
13.2588
12.2977
11.181
9.9231
8.55109
7.09939
5.64002
4.26594
3.06604
2.097
1.36951
0.856624
0.51344
0.293921
0.159415
0.0807695
0.0373506
0.0151656
0.00504614
0.00120014
0.000149536
4.48519e-06
6.39039
6.70262
7.23883
7.92506
8.70102
9.51941
10.3447
11.1511
11.9212
12.6435
13.3112
13.9186
14.4564
14.9181
15.3009
15.6031
15.8235
15.9597
16.008
15.963
15.8175
15.5625
15.1875
14.681
14.0315
13.2292
12.2689
11.1534
9.89704
8.52696
7.07774
5.62142
4.25081
3.05448
2.08873
1.36394
0.853074
0.511289
0.292683
0.158742
0.0804279
0.0371926
0.0151014
0.00502478
0.00119506
0.000148904
4.46621e-06
6.38786
6.69846
7.23201
7.91506
8.68774
9.503
10.3254
11.1293
11.8972
12.6177
13.2837
13.8898
14.4266
14.8877
15.27
15.5719
15.792
15.9281
15.9762
15.9312
15.7857
15.5308
15.156
14.6498
14.0007
13.199
12.2395
11.1252
9.87039
8.50229
7.05561
5.60241
4.23536
3.04269
2.08029
1.35826
0.849453
0.509096
0.29142
0.158055
0.0800794
0.0370313
0.0150359
0.005003
0.00118988
0.000148258
4.44684e-06
6.38592
6.69481
7.22556
7.9053
8.67455
9.48652
10.3059
11.1072
11.8728
12.5913
13.2556
13.8604
14.3963
14.8567
15.2385
15.54
15.7599
15.8957
15.9438
15.8987
15.7532
15.4985
15.1238
14.6179
13.9692
13.1681
12.2095
11.0963
9.84317
8.4771
7.03302
5.58301
4.21959
3.03065
2.07168
1.35247
0.84576
0.506859
0.290133
0.157355
0.0797242
0.036867
0.0149692
0.00498079
0.00118459
0.0001476
4.4271e-06
6.38459
6.6917
7.21954
7.89581
8.66147
9.47002
10.2863
11.0849
11.8481
12.5645
13.227
13.8305
14.3653
14.825
15.2062
15.5074