/*--------------------------------*- C++ -*----------------------------------*\
  =========                 |
  \\      /  F ield         | OpenFOAM: The Open Source CFD Toolbox
   \\    /   O peration     | Website:  https://openfoam.org
    \\  /    A nd           | Version:  7
     \\/     M anipulation  |
\*---------------------------------------------------------------------------*/
FoamFile
{
    version     2.0;
    format      ascii;
    class       surfaceScalarField;
    location    "3636";
    object      phi;
}
// * * * * * * * * * * * * * * * * * * * * * * * * * * * * * * * * * * * * * //

dimensions      [0 3 -1 0 0 0 0];

internalField   nonuniform List<scalar> 
30550
(
-2.19827e-22
-1.84107e-22
-1.18761e-22
-2.71295e-23
-1.06771e-22
-3.29963e-23
-9.15525e-23
-2.84746e-23
-5.37674e-23
-1.54111e-23
-3.27143e-23
-1.09661e-23
-2.08305e-23
-9.17554e-24
-1.24129e-23
-8.57678e-24
-3.65366e-24
-8.37e-24
3.23693e-25
-8.15766e-24
1.29937e-24
-8.05458e-24
-2.44978e-23
-6.94109e-24
-1.40261e-23
-3.58054e-24
-1.51018e-23
-1.66651e-24
-1.15529e-23
-7.60833e-25
-7.9477e-24
-1.66574e-25
-4.21134e-24
-2.08765e-25
-1.2789e-24
-2.63417e-25
5.81369e-25
-2.74963e-25
2.36082e-24
-4.21756e-25
-1.45459e-24
-5.78667e-25
7.71025e-25
-6.5981e-25
3.32817e-24
-6.49926e-25
3.67624e-24
-7.42293e-25
3.92689e-24
-7.90638e-25
4.45746e-24
-7.93688e-25
1.48155e-24
-7.63918e-25
1.7021e-24
-7.04963e-25
2.22903e-24
-6.3647e-25
2.75769e-24
-5.63506e-25
3.48612e-24
-4.88714e-25
3.61798e-24
-4.17742e-25
3.37065e-24
-3.51497e-25
4.15344e-24
-2.90989e-25
4.0257e-24
-2.38091e-25
3.73983e-24
-1.92393e-25
3.1617e-24
-1.53364e-25
3.19975e-24
-1.20127e-25
2.72693e-24
-9.28979e-26
2.5498e-24
-7.04017e-26
2.24855e-24
-5.24623e-26
1.89744e-24
-3.81127e-26
1.7415e-24
-2.66464e-26
1.03881e-24
-1.76026e-26
4.46388e-25
-1.01171e-26
1.11934e-27
-3.82277e-27
8.4206e-29
-4.24323e-23
-1.29928e-22
-5.67152e-23
-3.92133e-23
-5.10243e-23
-1.52841e-23
-4.08932e-23
-1.61661e-23
-2.65496e-23
-1.4312e-23
-1.75453e-23
-1.34127e-23
-1.52196e-23
-1.29997e-23
-1.4856e-23
-1.279e-23
-1.22261e-23
-1.2791e-23
-6.3745e-24
-1.2994e-23
-3.18883e-24
-1.05525e-23
-3.77896e-24
-8.52714e-24
-3.12204e-24
-7.3688e-24
-1.40776e-23
-6.6429e-24
-1.22579e-23
-5.90087e-24
-1.99182e-23
-5.84978e-24
-1.40557e-23
-5.21877e-24
-7.18151e-24
-4.6595e-24
-5.52322e-24
-4.1437e-24
-4.19938e-24
-3.62173e-24
-4.88138e-24
-3.17101e-24
7.28382e-25
-2.87103e-24
-6.81667e-24
-2.70164e-24
-5.9208e-24
-2.47159e-24
-5.65677e-24
-2.18621e-24
-4.92205e-24
-1.93452e-24
-4.51836e-24
-1.70755e-24
-4.55026e-24
-1.50557e-24
-3.47237e-24
-1.3049e-24
-2.82668e-24
-1.12706e-24
-2.4787e-24
-9.66877e-25
-2.54698e-24
-8.21924e-25
-2.1612e-24
-6.90158e-25
-1.51773e-24
-5.73234e-25
-1.25385e-24
-4.71338e-25
-1.02917e-24
-3.84037e-25
-5.43863e-25
-3.1022e-25
-3.2896e-25
-2.48326e-25
1.1511e-25
-1.96741e-25
-1.48873e-26
-1.54122e-25
9.37566e-26
-1.18743e-25
2.08797e-25
-8.94617e-26
-8.2188e-26
-6.53486e-26
1.58705e-25
-4.53171e-26
7.31377e-26
-2.89613e-26
-2.59624e-27
-1.53488e-26
-4.40754e-27
-1.51934e-23
-8.95673e-23
-3.16045e-23
-4.80039e-23
-4.90201e-23
-3.08282e-23
-3.54917e-23
-1.56862e-23
-2.50492e-23
-1.23668e-23
-1.79011e-23
-1.08317e-23
-1.70301e-23
-1.02694e-23
-1.63714e-23
-8.59186e-24
-1.61127e-23
-6.26765e-24
7.74909e-24
-3.89895e-24
1.09861e-23
-3.86955e-24
1.2925e-23
-3.57988e-24
9.03962e-24
-3.25525e-24
1.99056e-24
-2.83559e-24
-7.6644e-24
-2.51549e-24
-6.64372e-24
-1.98491e-24
-5.85875e-24
-2.05331e-24
-2.36552e-24
-2.30415e-24
-1.27236e-24
-2.7381e-24
-1.32733e-24
-3.08916e-24
-4.66518e-24
-3.2508e-24
-5.59543e-24
-3.20367e-24
-7.13575e-24
-2.98905e-24
-4.2442e-25
-2.64418e-24
-1.43853e-25
-2.40423e-24
3.49601e-25
-2.17682e-24
-9.79322e-25
-1.95538e-24
7.82695e-25
-1.75792e-24
9.5955e-25
-1.57741e-24
9.19622e-25
-1.398e-24
6.50107e-25
-1.22326e-24
4.49857e-25
-1.05547e-24
6.4925e-25
-8.98703e-25
6.51649e-25
-7.54632e-25
6.68284e-25
-6.25569e-25
6.2856e-25
-5.11418e-25
7.81213e-25
-4.12007e-25
6.95123e-25
-3.27466e-25
4.06706e-25
-2.56267e-25
8.94899e-26
-1.96911e-25
5.74234e-27
-1.48044e-25
-1.01846e-25
-1.08278e-25
2.14354e-25
-7.6164e-26
-7.79981e-26
-5.05866e-26
-1.64122e-26
-2.99472e-26
4.91703e-27
-1.33047e-26
-2.06285e-27
-2.62384e-23
-7.76882e-23
-2.15162e-23
-2.69855e-23
-2.67051e-23
-1.06283e-23
-2.67543e-23
-5.66335e-24
-2.07342e-23
-5.79811e-24
-1.06751e-23
-1.00954e-23
-7.42514e-24
-3.26428e-24
-5.40976e-24
1.01475e-24
2.28081e-24
-1.59749e-24
1.08208e-23
-1.65886e-25
1.50406e-23
1.00309e-25
1.50568e-23
-7.75324e-25
1.11957e-23
-1.6247e-24
5.61494e-24
-2.46108e-24
-2.53997e-25
-3.04283e-24
-4.28865e-24
-3.41086e-24
-6.97033e-24
-3.59615e-24
-8.02461e-24
-3.6158e-24
-8.68755e-24
-3.36224e-24
-8.10447e-24
-3.06753e-24
-6.19288e-24
-2.9506e-24
-3.55035e-24
-2.83879e-24
4.73569e-24
-2.71836e-24
1.18182e-24
-2.5911e-24
7.73686e-26
-2.41287e-24
-1.0071e-24
-2.21161e-24
-5.22447e-24
-1.99187e-24
-6.21603e-24
-1.72551e-24
-6.19091e-24
-1.4698e-24
-5.65975e-24
-1.24287e-24
-5.39997e-24
-1.04226e-24
-4.91941e-24
-8.73851e-25
-4.14898e-24
-7.25434e-25
-3.96509e-24
-5.98326e-25
-3.4237e-24
-4.87905e-25
-2.89552e-24
-3.95612e-25
-2.70949e-24
-3.19077e-25
-2.3733e-24
-2.55392e-25
-2.03852e-24
-2.02169e-25
-1.76455e-24
-1.57947e-25
-1.48102e-24
-1.21111e-25
-1.22273e-24
-9.05782e-26
-1.29858e-24
-6.546e-26
-7.63259e-25
-4.47741e-26
-3.35583e-25
-2.80452e-26
-2.57424e-27
-1.4434e-26
-3.93639e-27
-1.02471e-23
-4.422e-23
-1.23661e-23
-8.98785e-24
-1.90136e-23
4.02022e-24
-2.71702e-23
1.11397e-23
-2.72452e-23
1.87273e-24
7.32915e-24
1.01932e-23
7.55072e-24
7.5283e-24
-1.14906e-23
6.87164e-24
9.15695e-24
1.24052e-23
1.17982e-23
6.71281e-24
1.29771e-23
3.00985e-24
9.43294e-24
-2.78702e-25
4.77703e-24
-2.51904e-24
6.64001e-25
-3.24949e-24
-2.82238e-24
-2.8264e-24
-3.58387e-24
-2.49819e-24
-3.90308e-24
-2.0808e-24
1.12701e-24
-1.79193e-24
-1.35289e-25
-1.68579e-24
-6.84067e-24
-1.69387e-24
-8.14912e-24
-1.4651e-24
-8.84016e-24
-1.1819e-24
-2.65855e-24
-1.0097e-24
-4.93246e-24
-9.68199e-25
-4.58332e-24
-8.59668e-25
-4.21184e-24
-7.6248e-25
-1.03149e-24
-6.8387e-25
-8.41543e-26
-6.37733e-25
-1.13861e-24
-5.84849e-25
-1.89458e-24
-5.24777e-25
-5.81184e-24
-4.6181e-25
-5.56284e-24
-3.92357e-25
-5.76112e-24
-3.28392e-25
-4.1776e-24
-2.70049e-25
-3.56161e-24
-2.21288e-25
-3.11284e-24
-1.78628e-25
-2.91533e-24
-1.41497e-25
-2.49503e-24
-1.09773e-25
-2.41751e-24
-8.31775e-26
-2.2073e-24
-6.13249e-26
-1.99368e-24
-4.38007e-26
-1.92154e-24
-2.9928e-26
-1.5756e-24
-1.91619e-26
-1.28128e-24
-1.11095e-26
-5.61074e-25
-5.36477e-27
3.52785e-27
-1.52736e-27
2.77849e-28
-4.07552e-24
-3.40339e-23
-8.13062e-24
-6.80274e-24
-6.2602e-24
6.05104e-25
-4.19676e-23
-8.7071e-25
1.00339e-25
1.15297e-23
7.69302e-24
7.40403e-24
1.26655e-23
4.34827e-24
2.03681e-23
-4.10411e-25
-9.9096e-24
-5.67203e-24
-6.43907e-24
-3.30754e-24
-1.19207e-23
-2.67349e-24
-1.69886e-23
-3.03123e-24
-1.21882e-23
-3.11062e-24
-5.37127e-24
-4.1244e-24
-8.21077e-24
-4.75e-24
-9.28428e-24
-4.37696e-24
-1.00787e-23
-4.31928e-24
-9.24029e-24
-3.77808e-24
-1.35314e-23
-3.42526e-24
-1.08382e-23
-3.06528e-24
-7.76289e-24
-2.76124e-24
-9.162e-24
-2.48966e-24
-1.1364e-23
-2.14058e-24
-7.57722e-24
-1.83589e-24
-7.45836e-24
-1.64666e-24
-6.83321e-24
-1.472e-24
-7.44896e-24
-1.28911e-24
-5.04411e-24
-1.1027e-24
-4.41627e-24
-9.24072e-25
-3.63637e-24
-7.57939e-25
-3.74523e-24
-6.15999e-25
-2.96986e-24
-4.96571e-25
-2.64955e-24
-3.98575e-25
-2.92958e-24
-3.19472e-25
-2.87671e-24
-2.56439e-25
-2.57653e-24
-2.07004e-25
-2.39956e-24
-1.67846e-25
-1.92005e-24
-1.35612e-25
-1.81449e-24
-1.08728e-25
-1.88005e-24
-8.56499e-26
-1.7078e-24
-6.56935e-26
-1.5266e-24
-4.87456e-26
-1.19949e-24
-3.45217e-26
-9.46625e-25
-2.29956e-26
-4.20449e-25
-1.39014e-26
-3.88394e-27
-7.19144e-27
-2.24212e-27
-3.62919e-24
-3.39034e-23
-7.61198e-24
-1.02497e-23
-1.28092e-23
-3.29264e-24
-1.65368e-23
2.54981e-26
-2.60304e-24
2.17582e-24
4.2165e-24
3.49853e-24
3.9115e-24
1.23614e-24
1.59635e-24
-2.63614e-24
5.69861e-25
-6.4057e-24
-9.82152e-25
-5.74736e-24
-6.31589e-24
-5.41287e-24
-9.5566e-24
-5.01244e-24
-1.26384e-23
-5.02792e-24
-7.93196e-24
-3.91607e-24
-4.56873e-24
-3.99866e-24
-1.2444e-23
-4.53479e-24
-8.5291e-24
-3.61799e-24
-1.38242e-23
-3.72053e-24
-1.58508e-23
-3.66386e-24
-1.47163e-23
-3.32294e-24
-1.1635e-23
-3.13882e-24
-7.63056e-24
-2.91477e-24
-1.04232e-23
-2.70635e-24
-1.29553e-23
-2.39926e-24
-1.40195e-23
-2.04291e-24
-1.20275e-23
-1.71149e-24
-1.06644e-23
-1.43443e-24
-6.15944e-24
-1.19986e-24
-3.33747e-24
-1.01448e-24
-2.88666e-24
-8.62746e-25
-2.75973e-24
-7.3252e-25
-2.24742e-24
-6.18761e-25
-1.64603e-24
-5.17772e-25
-1.38124e-24
-4.29876e-25
-1.2716e-24
-3.52707e-25
-1.06788e-24
-2.85909e-25
-6.97929e-25
-2.28594e-25
-4.36324e-25
-1.80266e-25
-1.68238e-25
-1.39543e-25
1.17716e-25
-1.05675e-25
1.7928e-25
-7.75773e-26
3.34246e-25
-5.45909e-26
2.09778e-25
-3.61633e-26
2.95223e-25
-2.15294e-26
1.23137e-25
-1.045e-26
3.85072e-27
-2.40831e-27
1.2255e-27
-4.40037e-24
-3.46216e-23
-6.80724e-24
-1.25406e-23
-9.86378e-24
-7.62283e-24
-7.75954e-24
-8.43177e-24
4.41757e-24
-1.13655e-23
1.90258e-24
-1.80609e-24
-6.06654e-24
-4.97644e-26
-1.11483e-23
-2.02805e-24
8.37618e-24
-1.40721e-24
3.61593e-24
-3.80428e-24
-2.70955e-24
-5.4937e-24
-8.62621e-24
-5.99411e-24
-3.02042e-24
-5.63823e-24
-6.07802e-24
-5.25102e-24
-1.06784e-23
-4.94015e-24
8.65852e-24
-4.52734e-24
-5.26843e-24
-5.25729e-24
-6.9962e-24
-4.97391e-24
-4.07199e-24
-4.58552e-24
-1.10056e-23
-4.41338e-24
-1.16356e-23
-4.02119e-24
-1.14723e-23
-3.6793e-24
-1.08239e-23
-3.32523e-24
-9.82479e-24
-2.99731e-24
-9.50595e-24
-2.71815e-24
-8.94637e-24
-2.42872e-24
-8.651e-24
-2.122e-24
-7.60355e-24
-1.83546e-24
-6.63258e-24
-1.57629e-24
-6.69653e-24
-1.35087e-24
-7.09019e-24
-1.14094e-24
-6.19659e-24
-9.52248e-25
-5.73639e-24
-7.87611e-25
-4.85427e-24
-6.46362e-25
-4.36434e-24
-5.27469e-25
-3.82768e-24
-4.27571e-25
-3.60551e-24
-3.44226e-25
-3.26691e-24
-2.73983e-25
-3.23776e-24
-2.15199e-25
-2.84201e-24
-1.65708e-25
-2.74277e-24
-1.24805e-25
-2.64837e-24
-9.10646e-26
-2.08886e-24
-6.34614e-26
-1.73753e-24
-4.1676e-26
-7.6035e-25
-2.47451e-26
-5.10266e-27
-1.25432e-26
-3.78811e-27
-4.8324e-24
-3.70211e-23
-7.13574e-24
-1.37358e-23
-8.09932e-24
-1.07196e-23
-1.3299e-23
-1.18574e-23
2.69696e-23
-1.45245e-23
8.3558e-24
-1.83942e-23
-9.39453e-24
-1.75706e-23
-9.09259e-24
-1.23519e-23
-6.36758e-24
-9.29815e-24
-7.81818e-24
-7.57945e-24
-1.518e-23
-5.83839e-24
-1.02049e-23
-6.79471e-24
-2.93512e-24
-7.32904e-24
-6.58105e-24
-7.32992e-24
-7.71651e-24
-7.16526e-24
-7.33208e-24
-6.99859e-24
-6.18753e-24
-6.51799e-24
-3.10931e-24
-6.07704e-24
-5.06235e-24
-5.61387e-24
1.6467e-25
-5.04254e-24
-1.13291e-25
-4.54278e-24
3.93921e-24
-4.05514e-24
3.92775e-24
-3.69801e-24
2.52223e-24
-3.33733e-24
1.73953e-24
-2.95504e-24
2.8325e-24
-2.60812e-24
1.17606e-24
-2.32176e-24
-5.82374e-25
-2.0368e-24
-3.66946e-24
-1.77505e-24
-3.30489e-24
-1.5348e-24
-3.3196e-24
-1.32293e-24
-2.77702e-24
-1.12396e-24
-2.48282e-24
-9.47029e-25
-2.38663e-24
-7.90519e-25
-2.02089e-24
-6.56382e-25
-1.99835e-24
-5.40088e-25
-1.65564e-24
-4.3917e-25
-1.59479e-24
-3.5246e-25
-1.22909e-24
-2.78205e-25
-1.36427e-24
-2.1535e-25
-1.31658e-24
-1.62609e-25
-9.34684e-25
-1.1885e-25
-1.0439e-24
-8.35161e-26
-3.12706e-25
-5.51576e-26
-1.47588e-25
-3.35592e-26
-2.53709e-27
-1.75418e-26
-5.49864e-27
-5.40987e-24
-4.41302e-23
-9.27281e-24
-2.21526e-23
-1.2508e-23
-1.80618e-23
-1.82296e-23
-1.4068e-23
2.02628e-23
-8.06216e-24
1.33076e-23
-1.17638e-23
4.93639e-24
-8.58915e-24
4.02773e-24
-1.34746e-23
5.56552e-24
-1.52905e-23
5.44932e-24
-1.36798e-23
-1.9432e-23
-1.29147e-23
-1.27977e-23
-9.4782e-24
-6.04542e-24
-8.06287e-24
-8.04148e-24
-7.86801e-24
-7.0973e-24
-7.36817e-24
-4.39969e-24
-6.75035e-24
-1.2115e-24
-6.09653e-24
1.6773e-24
-5.45857e-24
-1.27229e-24
-4.85578e-24
1.54323e-24
-4.29443e-24
-1.24931e-24
-3.7934e-24
-3.64889e-24
-3.3591e-24
-3.32124e-24
-2.96184e-24
-2.90061e-25
-2.62041e-24
4.92285e-25
-2.32841e-24
1.1107e-24
-2.06188e-24
3.87542e-24
-1.8283e-24
3.72235e-24
-1.61982e-24
1.68626e-24
-1.40372e-24
5.67932e-25
-1.19636e-24
2.5747e-24
-1.00791e-24
2.49716e-24
-8.48996e-25
2.98247e-24
-7.08887e-25
1.38785e-24
-5.86351e-25
1.03735e-24
-4.79312e-25
7.29626e-25
-3.88379e-25
6.12223e-25
-3.11994e-25
5.36794e-25
-2.48353e-25
5.84594e-25
-1.95499e-25
2.07586e-25
-1.51448e-25
2.44922e-25
-1.15046e-25
-2.4665e-25
-8.51434e-26
4.14728e-26
-6.05318e-26
-4.85122e-25
-4.11287e-26
-2.14886e-25
-2.58737e-26
3.70429e-29
-1.48166e-26
-5.5824e-27
-2.04584e-24
-5.0947e-23
-6.96443e-24
-3.72049e-23
-8.80202e-24
-3.11478e-23
-3.21959e-24
-2.67293e-23
1.07019e-23
-2.41344e-23
2.378e-23
-2.35599e-23
-6.08467e-24
-2.50332e-23
-7.67075e-24
-1.55467e-23
6.57654e-24
-1.25137e-23
1.15182e-24
-1.38562e-23
-3.08827e-24
-1.33934e-23
-4.64626e-24
-1.31181e-23
-4.84538e-24
-1.09691e-23
-4.70328e-24
-9.38677e-24
-3.22438e-24
-7.92236e-24
-4.21617e-26
-6.72887e-24
3.89129e-24
-5.75866e-24
7.74345e-24
-5.13792e-24
5.69037e-24
-4.60066e-24
8.88126e-24
-4.06177e-24
5.54984e-24
-3.4434e-24
2.42217e-24
-2.94391e-24
1.83792e-24
-2.42115e-24
3.69039e-24
-1.93368e-24
2.55884e-24
-1.53651e-24
1.12841e-24
-1.22457e-24
2.0023e-24
-9.48222e-25
4.94005e-24
-7.31798e-25
4.75569e-24
-5.77578e-25
4.25809e-24
-4.54375e-25
3.53561e-24
-3.53417e-25
2.77671e-24
-2.70269e-25
2.44351e-24
-2.07028e-25
1.53763e-24
-1.61172e-25
1.09891e-24
-1.25995e-25
9.05611e-25
-9.91697e-26
7.24376e-25
-7.90214e-26
5.67532e-25
-6.23728e-26
8.44218e-25
-4.8294e-26
5.17505e-25
-3.63037e-26
5.61056e-25
-2.57216e-26
8.23039e-25
-1.68104e-26
4.8641e-25
-9.96606e-27
8.18339e-25
-4.71642e-27
3.62444e-25
-1.59497e-27
5.96886e-27
-1.39578e-28
1.27292e-28
-4.97599e-25
-5.37064e-23
-1.36444e-25
-4.64218e-23
3.99145e-25
-4.16367e-23
4.79027e-24
-3.76712e-23
1.32443e-23
-3.37601e-23
1.66663e-23
-3.15361e-23
1.49997e-23
-2.86793e-23
-2.71059e-24
-2.87348e-23
2.09249e-24
-2.53544e-23
-1.09533e-24
-2.00181e-23
-6.91771e-24
-1.72254e-23
-2.49975e-25
-1.55633e-23
-2.38586e-24
-1.53395e-23
-3.68316e-24
-1.18315e-23
-3.64723e-24
-9.57942e-24
-3.03393e-24
-8.35748e-24
-2.46806e-24
-6.69564e-24
-1.3897e-24
-4.96171e-24
1.18759e-25
-4.0406e-24
7.85583e-24
-3.20367e-24
4.14067e-24
-2.76473e-24
6.42513e-24
-2.30265e-24
6.81391e-24
-1.83678e-24
6.44814e-24
-1.4987e-24
2.74668e-24
-1.22417e-24
1.27761e-24
-9.65333e-25
-3.52539e-26
-7.75209e-25
-9.55609e-25
-6.16733e-25
-1.12704e-24
-4.81997e-25
-1.10479e-24
-3.74083e-25
-4.8794e-25
-2.93879e-25
-5.37748e-25
-2.29744e-25
-9.87266e-25
-1.79136e-25
-6.757e-25
-1.37184e-25
-6.06913e-25
-1.05161e-25
-8.88142e-25
-8.0345e-26
-6.15745e-25
-6.05711e-26
-5.53718e-25
-4.55199e-26
-4.34102e-25
-3.36553e-26
-2.8593e-25
-2.43647e-26
-1.45774e-25
-1.71009e-26
-4.52296e-25
-1.13738e-26
-1.16435e-25
-6.7782e-27
-4.01562e-25
-3.80415e-27
-1.73999e-25
-2.04679e-27
-2.16887e-27
-1.91406e-27
-1.55729e-27
1.32954e-24
-5.59177e-23
4.15655e-24
-5.04895e-23
6.33464e-24
-4.79295e-23
9.89568e-24
-4.46204e-23
1.43714e-23
-3.96509e-23
1.57145e-23
-3.68628e-23
1.3587e-23
-3.32385e-23
-2.37212e-24
-2.24756e-23
9.60071e-24
-2.33979e-23
1.23966e-24
-2.11791e-23
-9.6552e-24
-1.41805e-23
-1.01403e-23
-1.05674e-23
1.26782e-23
-6.24187e-24
3.99701e-24
-7.82464e-24
-2.61118e-24
-8.06741e-24
5.60732e-25
-6.02453e-24
4.13314e-24
-4.86915e-24
-8.47103e-24
-4.59978e-24
-6.01272e-24
-3.73861e-24
-6.64714e-24
-3.20841e-24
-4.83518e-24
-2.5733e-24
4.21371e-24
-1.9653e-24
4.84368e-24
-1.62238e-24
7.56157e-24
-1.36396e-24
9.05399e-24
-1.10682e-24
7.07018e-24
-8.95057e-25
7.87239e-24
-6.87269e-25
7.64123e-24
-5.18275e-25
7.54987e-24
-3.81181e-25
5.84571e-24
-2.70769e-25
5.95227e-24
-1.77802e-25
5.17954e-24
-1.12476e-25
4.9955e-24
-6.72342e-26
4.76767e-24
-3.9378e-26
4.39835e-24
-2.10445e-26
3.84916e-24
-9.65125e-27
3.43904e-24
-3.34921e-27
3.06564e-24
7.02639e-28
2.59076e-24
3.07615e-27
2.26789e-24
4.69585e-27
2.11142e-24
5.8764e-27
2.11165e-24
6.61939e-27
1.60001e-24
6.66846e-27
1.4669e-24
6.33683e-27
6.28408e-25
5.1466e-27
1.37512e-27
3.27449e-27
1.0661e-27
3.5459e-24
-5.89605e-23
7.64836e-24
-5.37592e-23
1.01836e-23
-5.0627e-23
1.29894e-23
-4.73682e-23
1.95188e-23
-4.51318e-23
1.61845e-23
-3.84369e-23
3.14528e-23
-3.45047e-23
-1.37677e-23
-3.99882e-23
4.97597e-24
-2.99585e-23
2.07771e-23
-2.39146e-23
-4.83608e-24
-2.49775e-23
7.53965e-24
-2.07e-23
-1.19326e-23
-1.84423e-23
-1.22126e-23
-1.37934e-23
6.88929e-24
-9.59283e-24
6.22722e-24
-8.20767e-24
-8.81527e-25
-7.01344e-24
1.1849e-24
-5.54039e-24
-2.55957e-24
-4.56619e-24
-4.89734e-25
-3.70856e-24
1.79889e-24
-3.09889e-24
1.99128e-25
-2.68552e-24
-3.26466e-24
-2.27359e-24
-5.50154e-25
-1.85785e-24
-1.10089e-25
-1.56831e-24
7.52861e-25
-1.34785e-24
1.47389e-24
-1.15258e-24
1.92487e-24
-9.77962e-25
2.674e-24
-8.24933e-25
3.25306e-24
-6.9616e-25
2.54738e-24
-5.91603e-25
2.00587e-24
-4.97752e-25
1.33147e-24
-4.12212e-25
1.96433e-24
-3.35079e-25
2.43099e-24
-2.70564e-25
2.11423e-24
-2.1713e-25
2.32292e-24
-1.72621e-25
1.87154e-24
-1.36473e-25
1.55439e-24
-1.06674e-25
1.33395e-24
-8.21799e-26
1.32291e-24
-6.2424e-26
1.02121e-24
-4.6394e-26
1.05008e-24
-3.32998e-26
5.91034e-25
-2.29142e-26
2.64907e-25
-1.47108e-26
-1.2615e-27
-8.69652e-27
-3.4338e-27
6.63812e-24
-6.2986e-23
1.11708e-23
-5.61493e-23
1.47527e-23
-5.08881e-23
1.24679e-23
-4.42274e-23
2.33163e-23
-3.77559e-23
1.65835e-23
-3.55742e-23
7.11354e-24
-3.33546e-23
4.07837e-24
-2.47849e-23
1.16285e-23
-2.50279e-23
2.68221e-24
-2.67236e-23
2.37831e-24
-2.23833e-23
2.27218e-24
-1.79446e-23
2.40799e-24
-1.46715e-23
7.75375e-24
-1.27626e-23
5.61114e-24
-1.18881e-23
4.25796e-24
-9.6976e-24
2.56648e-24
-8.15409e-24
1.35213e-24
-7.22095e-24
7.42798e-25
-6.21273e-24
1.22371e-24
-5.2016e-24
3.16091e-24
-4.40569e-24
5.47274e-24
-3.77196e-24
7.66407e-24
-3.11597e-24
6.69833e-24
-2.6012e-24
5.45333e-24
-2.12934e-24
6.4331e-24
-1.71175e-24
7.22646e-24
-1.36992e-24
7.60043e-24
-1.09358e-24
6.61906e-24
-8.62893e-25
5.46854e-24
-6.89096e-25
4.63776e-24
-5.45358e-25
4.36471e-24
-4.27623e-25
4.32096e-24
-3.3228e-25
4.0399e-24
-2.57687e-25
3.59076e-24
-1.95647e-25
2.98365e-24
-1.47449e-25
2.56892e-24
-1.10289e-25
2.17683e-24
-8.16132e-26
2.03904e-24
-5.9724e-26
1.4966e-24
-4.318e-26
1.3892e-24
-3.04731e-26
1.25544e-24
-2.1001e-26
9.92928e-25
-1.39692e-26
8.3277e-25
-8.77634e-27
3.54936e-25
-5.1376e-27
2.81791e-27
-2.6979e-27
-9.23728e-28
1.19157e-23
-6.92878e-23
1.45952e-23
-5.48409e-23
1.81332e-23
-5.69044e-23
1.90552e-23
-4.989e-23
1.76319e-23
-4.21606e-23
1.34235e-23
-4.17837e-23
1.41798e-23
-4.49002e-23
-3.15383e-24
-4.30253e-23
-7.4396e-24
-3.27024e-23
4.09466e-24
-2.49652e-23
9.34496e-24
-2.16038e-23
5.47092e-24
-1.96105e-23
2.95514e-24
-1.69851e-23
9.73164e-25
-1.41783e-23
9.7525e-24
-1.16758e-23
7.60831e-24
-1.01217e-23
-1.41625e-24
-8.79114e-24
-9.06957e-25
-7.51207e-24
2.49462e-27
-6.32516e-24
-2.02256e-24
-5.45339e-24
-2.78049e-24
-4.44914e-24
3.2051e-24
-3.41483e-24
4.05487e-24
-2.8204e-24
5.1733e-24
-2.29671e-24
5.21432e-24
-1.84412e-24
5.34035e-24
-1.53175e-24
5.16183e-24
-1.28265e-24
5.70052e-24
-1.04478e-24
1.88507e-24
-8.44901e-25
1.3748e-24
-6.72668e-25
6.97086e-25
-5.33852e-25
5.70106e-25
-4.179e-25
1.47653e-25
-3.22083e-25
1.23785e-24
-2.42154e-25
8.99777e-25
-1.8095e-25
6.44343e-25
-1.33487e-25
5.24795e-25
-9.76069e-26
4.07604e-25
-7.07029e-26
2.93203e-25
-5.06177e-26
1.5375e-25
-3.58998e-26
1.18707e-25
-2.52448e-26
1.15189e-25
-1.7456e-26
1.57518e-25
-1.18337e-26
6.6955e-26
-7.78766e-27
2.03239e-26
-4.88538e-27
-1.68449e-27
-2.92608e-27
-1.22007e-27
1.84708e-23
-8.38436e-23
1.11029e-23
-8.75893e-23
2.14647e-23
-7.43826e-23
2.5308e-23
-6.48037e-23
9.42701e-24
-5.67179e-23
-3.7497e-25
-4.39185e-23
4.96538e-24
-3.75212e-23
9.83495e-24
-3.515e-23
2.58047e-24
-3.41744e-23
3.0487e-24
-3.0828e-23
3.74118e-24
-2.68476e-23
3.38105e-24
-2.36533e-23
1.58315e-24
-2.07933e-23
5.04645e-25
-1.8249e-23
-1.14445e-25
-1.60997e-23
-2.64397e-24
-1.43138e-23
-1.18654e-23
-1.26924e-23
-8.41527e-24
-1.0683e-23
-1.11127e-23
-9.13452e-24
-7.62633e-24
-7.81833e-24
-2.78148e-24
-6.84119e-24
-8.01088e-24
-6.11537e-24
-6.91486e-24
-5.24284e-24
-4.85268e-24
-4.55013e-24
-7.60532e-24
-4.01112e-24
-6.73457e-24
-3.45716e-24
-1.6752e-24
-2.96377e-24
4.62978e-25
-2.56232e-24
-1.10847e-24
-2.20396e-24
-1.93801e-24
-1.87129e-24
-1.50831e-24
-1.56747e-24
-8.44545e-25
-1.2931e-24
3.12036e-25
-1.05577e-24
1.02126e-24
-8.54646e-25
9.52236e-25
-6.85303e-25
6.81538e-25
-5.43259e-25
6.48986e-25
-4.25664e-25
8.40935e-25
-3.30112e-25
7.68747e-25
-2.53671e-25
6.87277e-25
-1.92635e-25
7.1324e-25
-1.43906e-25
6.12066e-25
-1.05255e-25
5.39491e-25
-7.46757e-26
3.83612e-25
-5.05845e-26
1.63233e-25
-3.17119e-26
-6.11722e-27
-1.71366e-26
-5.49922e-27
6.54827e-24
-8.24437e-23
1.99914e-23
-8.70608e-23
2.87656e-23
-7.91176e-23
2.91093e-23
-7.19355e-23
2.35768e-23
-6.37523e-23
-7.65161e-25
-5.66911e-23
-3.15845e-25
-4.93951e-23
-5.94243e-25
-4.38929e-23
-1.25378e-24
-3.84842e-23
-1.68451e-24
-3.37978e-23
-2.44329e-24
-2.95088e-23
-3.9358e-24
-2.59298e-23
-5.94951e-24
-2.29482e-23
-8.2372e-24
-2.03423e-23
-1.0735e-23
-1.80982e-23
-1.33725e-23
-1.60144e-23
-9.56015e-24
-1.37253e-23
-1.10886e-23
-1.19459e-23
-1.11309e-23
-1.04199e-23
-8.82287e-24
-9.04029e-24
-5.81384e-24
-7.79515e-24
1.12543e-26
-6.67922e-24
-1.25353e-25
-5.80451e-24
-8.37167e-25
-4.98211e-24
1.73295e-25
-4.20728e-24
7.15353e-25
-3.54076e-24
1.1466e-24
-2.96906e-24
1.56743e-24
-2.47905e-24
2.03765e-24
-2.08003e-24
2.31548e-24
-1.74697e-24
3.91779e-24
-1.46216e-24
3.2365e-24
-1.2162e-24
2.64985e-24
-1.00258e-24
2.03376e-24
-8.17133e-25
1.87214e-24
-6.58674e-25
1.8034e-24
-5.26111e-25
1.70365e-24
-4.15968e-25
1.4464e-24
-3.25443e-25
1.14085e-24
-2.51617e-25
1.15648e-24
-1.91736e-25
1.0304e-24
-1.43788e-25
8.67372e-25
-1.05367e-25
6.78499e-25
-7.47691e-26
4.90897e-25
-5.04456e-26
2.16532e-25
-3.13125e-26
2.28014e-27
-1.63737e-26
-4.84861e-27
-8.04292e-24
-6.39467e-23
2.57213e-23
-5.86055e-23
3.07174e-23
-6.83549e-23
3.26791e-23
-6.96321e-23
2.95102e-23
-6.77747e-23
4.5743e-24
-6.4262e-23
1.90551e-24
-5.48315e-23
-9.63773e-25
-4.69105e-23
-2.70851e-24
-4.11624e-23
-3.97924e-24
-3.64496e-23
-4.99817e-24
-3.32203e-23
-7.8585e-24
-2.86893e-23
-1.11604e-23
-2.51953e-23
-1.20296e-23
-2.38808e-23
-1.13866e-23
-2.15434e-23
-9.80476e-24
-1.94999e-23
-7.63821e-24
-1.69145e-23
-1.1201e-23
-1.45222e-23
-9.62837e-24
-1.22707e-23
-8.28398e-24
-1.03726e-23
-6.5385e-24
-8.80401e-24
-4.92678e-24
-7.67832e-24
-4.21545e-24
-6.69364e-24
-3.69186e-24
-5.79288e-24
-2.85821e-24
-5.05697e-24
-2.56803e-24
-4.39543e-24
-1.79218e-24
-3.79987e-24
-3.14216e-24
-3.27357e-24
-2.86552e-24
-2.79521e-24
-2.56062e-24
-2.36553e-24
-3.82907e-25
-1.98248e-24
-1.20658e-25
-1.64637e-24
5.37426e-25
-1.3515e-24
7.73311e-25
-1.09776e-24
8.13071e-25
-8.81978e-25
1.04355e-24
-7.01104e-25
1.18865e-24
-5.52246e-25
1.0843e-24
-4.30545e-25
1.13782e-24
-3.32018e-25
1.00757e-24
-2.53144e-25
1.02776e-24
-1.89998e-25
8.93726e-25
-1.39856e-25
8.49437e-25
-9.98447e-26
5.30858e-25
-6.81374e-26
2.33153e-25
-4.28281e-26
-4.68778e-28
-2.27671e-26
-6.87576e-27
-1.14299e-23
-4.85244e-23
1.37321e-23
-2.45935e-23
2.57627e-23
-6.19959e-23
3.0101e-23
-6.32428e-23
2.52892e-23
-6.28199e-23
1.40246e-23
-5.86691e-23
8.01656e-24
-5.37352e-23
3.68825e-24
-4.75687e-23
-3.01538e-24
-4.0431e-23
-9.91232e-24
-3.82399e-23
-6.58607e-24
-3.53437e-23
-1.32256e-23
-3.21164e-23
-3.06355e-23
-2.91143e-23
-2.41413e-23
-2.48343e-23
-2.63868e-23
-2.20813e-23
-1.16606e-23
-1.90983e-23
-9.36632e-24
-1.64308e-23
-7.79533e-24
-1.45951e-23
-7.86589e-24
-1.28555e-23
-7.52758e-24
-1.12186e-23
-1.23857e-23
-9.80196e-24
-1.13361e-23
-8.36875e-24
-6.40067e-24
-7.20443e-24
-6.50442e-24
-6.28179e-24
-4.03121e-24
-5.36427e-24
-2.64964e-24
-4.61195e-24
-2.02789e-24
-3.9546e-24
-3.27761e-24
-3.37233e-24
-2.95823e-24
-2.87536e-24
-2.61e-24
-2.43392e-24
-1.81908e-24
-2.04462e-24
-1.53266e-24
-1.71083e-24
-1.34455e-24
-1.41658e-24
-1.34966e-24
-1.15845e-24
-1.2936e-24
-9.37703e-25
-1.17928e-24
-7.51341e-25
-6.92494e-25
-5.95482e-25
-5.40914e-25
-4.67189e-25
-5.13388e-25
-3.62344e-25
-4.13798e-25
-2.77233e-25
-5.05837e-25
-2.08486e-25
-3.01999e-25
-1.53057e-25
-4.09721e-25
-1.08839e-25
-1.77074e-25
-7.35189e-26
-7.87285e-26
-4.56686e-26
2.37678e-28
-2.37397e-26
-6.82939e-27
1.00981e-24
-6.0232e-23
-1.88419e-23
-4.77452e-23
2.4745e-23
-4.35343e-23
2.5324e-23
-5.93674e-23
2.37891e-23
-6.61011e-23
1.33915e-23
-6.12323e-23
6.54443e-24
-5.85046e-23
7.92308e-24
-5.80564e-23
-1.24597e-23
-5.23883e-23
-1.5466e-23
-4.40253e-23
-9.32842e-24
-3.7301e-23
-1.44531e-23
-3.33707e-23
-1.78103e-23
-2.93084e-23
-1.57613e-23
-2.58408e-23
-1.28143e-23
-2.25395e-23
4.18812e-24
-1.99701e-23
-2.43653e-24
-1.77259e-23
3.4972e-25
-1.52747e-23
-5.16876e-26
-1.34273e-23
-6.5481e-25
-1.17535e-23
-1.26975e-24
-1.00625e-23
-3.86372e-24
-8.78579e-24
-3.55586e-24
-7.66895e-24
-1.79246e-26
-6.56588e-24
-1.74683e-24
-5.73706e-24
-9.33363e-25
-4.9793e-24
-6.34113e-25
-4.32155e-24
-3.0935e-24
-3.73773e-24
-2.56237e-24
-3.1985e-24
-2.03247e-24
-2.71127e-24
-3.675e-24
-2.28349e-24
-3.11545e-24
-1.89982e-24
-2.59623e-24
-1.56618e-24
-2.53889e-24
-1.27999e-24
-2.34545e-24
-1.03532e-24
-1.83233e-24
-8.28632e-25
-1.40224e-24
-6.56589e-25
-1.24721e-24
-5.15119e-25
-1.18886e-24
-3.99789e-25
-1.07445e-24
-3.06065e-25
-8.51542e-25
-2.30274e-25
-7.98708e-25
-1.6933e-25
-5.17943e-25
-1.20551e-25
-4.3155e-25
-8.18298e-26
-1.99133e-25
-5.11858e-26
-1.00756e-27
-2.72259e-26
-8.33744e-27
6.00217e-24
-7.84799e-23
-1.44251e-23
-7.74034e-23
9.79041e-24
-6.65499e-23
1.17948e-23
-6.76844e-23
2.26567e-23
-6.73219e-23
3.65656e-24
-6.00772e-23
-5.22525e-24
-6.5132e-23
5.12008e-24
-5.62308e-23
-4.9799e-24
-5.23252e-23
-9.14446e-24
-4.66322e-23
-1.10973e-23
-4.03552e-23
-1.37861e-23
-3.45347e-23
-1.61942e-23
-2.90385e-23
-1.56244e-23
-2.40536e-23
-1.18382e-23
-2.07921e-23
3.76888e-24
-1.80255e-23
6.48841e-24
-1.63468e-23
4.3039e-24
-1.44633e-23
5.56636e-24
-1.2649e-23
1.07312e-23
-1.10763e-23
4.67732e-24
-9.87187e-24
6.09786e-25
-8.59362e-24
4.93726e-24
-7.39805e-24
1.29642e-24
-6.53084e-24
1.17023e-24
-5.69433e-24
4.91994e-25
-4.96069e-24
-4.48276e-26
-4.30078e-24
-7.47037e-25
-3.70568e-24
4.83577e-26
-3.17703e-24
-5.25286e-25
-2.71233e-24
-1.52522e-24
-2.29533e-24
-1.53827e-24
-1.92265e-24
-2.04887e-24
-1.59377e-24
-2.28369e-24
-1.30581e-24
-2.059e-24
-1.05636e-24
-1.75425e-24
-8.45243e-25
-1.53324e-24
-6.69951e-25
-1.6639e-24
-5.25726e-25
-1.61751e-24
-4.07496e-25
-1.4912e-24
-3.11209e-25
-1.23523e-24
-2.33285e-25
-1.13927e-24
-1.70655e-25
-9.48202e-25
-1.20546e-25
-6.34525e-25
-8.08607e-26
-2.71433e-25
-4.98465e-26
-2.69544e-27
-2.60296e-26
-7.79355e-27
1.83055e-24
-8.15937e-23
-2.44077e-24
-7.59006e-23
7.13122e-24
-7.59258e-23
8.91206e-24
-7.66546e-23
2.89049e-23
-7.5575e-23
-1.30821e-23
-8.40895e-23
4.83214e-24
-7.28194e-23
1.40231e-24
-6.43948e-23
-1.29299e-25
-5.65846e-23
-7.72197e-25
-4.93568e-23
-9.1883e-25
-4.29205e-23
-2.60366e-24
-3.74262e-23
-3.78997e-24
-3.28382e-23
-1.49386e-23
-2.88927e-23
-1.32897e-23
-2.44656e-23
-1.02816e-23
-2.09446e-23
-1.52797e-25
-1.76692e-23
-2.28823e-24
-1.53254e-23
1.2978e-24
-1.33803e-23
3.02453e-24
-1.17512e-23
3.17039e-24
-1.031e-23
3.02204e-24
-9.10196e-24
-3.0541e-25
-8.03456e-24
-1.00607e-24
-7.00103e-24
-1.85591e-24
-6.10192e-24
-2.222e-24
-5.30009e-24
-2.4708e-24
-4.58033e-24
-2.56699e-24
-3.95564e-24
-2.66779e-24
-3.37718e-24
-2.67922e-24
-2.8576e-24
-2.65427e-24
-2.40497e-24
-2.47092e-24
-2.01261e-24
-2.09918e-24
-1.66646e-24
-1.7347e-24
-1.36404e-24
-1.06003e-24
-1.1048e-24
-1.09314e-24
-8.87212e-25
-9.9281e-25
-7.05737e-25
-9.17715e-25
-5.55125e-25
-7.92709e-25
-4.30919e-25
-6.80501e-25
-3.29358e-25
-5.93611e-25
-2.47111e-25
-4.65625e-25
-1.80766e-25
-3.90091e-25
-1.27727e-25
-2.81087e-25
-8.56495e-26
-1.11905e-25
-5.27689e-26
8.17609e-28
-2.7646e-26
-8.40182e-27
2.96991e-24
-7.55562e-23
-1.00793e-24
-7.59253e-23
4.5254e-24
-7.77458e-23
9.65067e-24
-8.12555e-23
1.12477e-23
-8.16733e-23
-3.11855e-24
-7.79635e-23
1.0466e-23
-6.81693e-23
7.77011e-24
-6.25527e-23
7.62358e-24
-5.53276e-23
6.13557e-24
-4.83409e-23
4.05621e-24
-4.21672e-23
1.57537e-24
-3.68528e-23
-1.06372e-24
-3.22494e-23
-2.68018e-24
-2.79321e-23
-2.66491e-24
-2.41787e-23
3.31686e-24
-2.07104e-23
5.72362e-24
-1.86452e-23
2.72889e-24
-1.673e-23
2.57649e-24
-1.44559e-23
9.98065e-25
-1.24843e-23
1.72175e-25
-1.08063e-23
-3.21992e-25
-9.3937e-24
-7.38796e-25
-8.16452e-24
-7.57989e-25
-7.11928e-24
-4.47717e-25
-6.20311e-24
5.78123e-25
-5.39733e-24
-5.84567e-27
-4.68362e-24
2.4077e-24
-4.02315e-24
3.1297e-24
-3.45072e-24
2.07535e-24
-2.94469e-24
4.77353e-25
-2.48557e-24
2.2214e-25
-2.06975e-24
7.49477e-25
-1.7058e-24
7.78053e-25
-1.39309e-24
6.38555e-25
-1.12667e-24
1.08756e-25
-9.0225e-25
7.3988e-26
-7.15582e-25
2.96186e-25
-5.62058e-25
4.1085e-25
-4.36707e-25
2.90935e-25
-3.3487e-25
2.69567e-25
-2.5206e-25
2.04507e-25
-1.85159e-25
1.5612e-25
-1.31361e-25
8.8554e-26
-8.85031e-26
3.6527e-26
-5.47152e-26
1.10016e-27
-2.86559e-26
-8.63178e-27
3.21636e-24
-7.68709e-23
-2.89407e-24
-7.0498e-23
9.05644e-25
-8.10906e-23
5.54782e-24
-8.37136e-23
7.2822e-24
-8.15277e-23
6.49101e-24
-7.59925e-23
1.08928e-23
-6.89545e-23
1.25804e-23
-6.03717e-23
1.24559e-23
-5.24466e-23
1.10089e-23
-4.54217e-23
8.96505e-24
-3.94817e-23
6.90832e-24
-3.4409e-23
5.27835e-24
-3.00184e-23
4.59095e-24
-2.62056e-23
5.25063e-24
-2.294e-23
1.572e-24
-2.02881e-23
3.62122e-24
-1.75086e-23
9.92572e-24
-1.44866e-23
1.02731e-23
-1.2677e-23
1.02188e-23
-1.11035e-23
8.92501e-24
-9.72382e-24
7.69046e-24
-8.4872e-24
6.48844e-24
-7.40935e-24
5.46429e-24
-6.40044e-24
4.71405e-24
-5.46083e-24
3.97019e-24
-4.64973e-24
4.51841e-24
-3.94909e-24
4.13643e-24
-3.35574e-24
3.85437e-24
-2.83764e-24
3.29051e-24
-2.38822e-24
2.6696e-24
-1.99523e-24
2.18192e-24
-1.65467e-24
1.78113e-24
-1.35831e-24
1.54943e-24
-1.10285e-24
1.06582e-24
-8.87397e-25
6.87378e-25
-7.07797e-25
3.84503e-25
-5.58013e-25
2.61547e-25
-4.34546e-25
-5.26872e-26
-3.3421e-25
-7.36205e-26
-2.53127e-25
-1.27078e-25
-1.88325e-25
-9.03852e-26
-1.36629e-25
-1.43029e-25
-9.57999e-26
-4.64208e-26
-6.36712e-26
-1.00973e-26