/*--------------------------------*- C++ -*----------------------------------*\
  =========                 |
  \\      /  F ield         | OpenFOAM: The Open Source CFD Toolbox
   \\    /   O peration     | Website:  https://openfoam.org
    \\  /    A nd           | Version:  7
     \\/     M anipulation  |
\*---------------------------------------------------------------------------*/
FoamFile
{
    version     2.0;
    format      ascii;
    class       volVectorField;
    location    "3636";
    object      wallShearStress;
}
// * * * * * * * * * * * * * * * * * * * * * * * * * * * * * * * * * * * * * //

dimensions      [0 2 -2 0 0 0 0];

internalField   uniform (0 0 0);

boundaryField
{
    inflow
    {
        type            cyclic;
    }
    outflow
    {
        type            cyclic;
    }
    wallTop
    {
        type            calculated;
        value           nonuniform List<vector> 
329
(
(-7.31923 -1.52761e-16 2.49767e-17)
(-7.31923 5.08402e-18 1.04431e-16)
(-7.31917 -7.9648e-17 1.17815e-16)
(-7.31907 1.59242e-16 1.68695e-16)
(-7.31894 5.67869e-17 4.28579e-17)
(-7.31873 2.22154e-16 -2.56301e-18)
(-7.31847 -1.24846e-17 5.88348e-17)
(-7.31818 3.34273e-16 2.17723e-17)
(-7.31781 2.82992e-16 8.49758e-17)
(-7.31742 2.18183e-16 1.02649e-16)
(-7.31698 9.24768e-18 1.73333e-17)
(-7.31645 7.01027e-17 -3.12546e-17)
(-7.31588 -3.08798e-17 -2.76004e-17)
(-7.31528 4.10398e-17 -3.89606e-17)
(-7.31457 -6.39962e-17 9.37159e-17)
(-7.31384 3.98854e-18 -7.38262e-17)
(-7.31303 -2.6297e-17 8.9841e-17)
(-7.31214 -1.947e-18 1.10543e-16)
(-7.31119 -3.8786e-17 1.07313e-16)
(-7.31017 1.5584e-17 1.92278e-16)
(-7.30908 6.12993e-17 1.42081e-16)
(-7.3079 1.12309e-16 2.05056e-16)
(-7.30662 9.73382e-17 1.23549e-16)
(-7.30528 4.35287e-17 2.06679e-16)
(-7.30384 3.46036e-17 1.43831e-16)
(-7.3023 6.70667e-17 1.03386e-16)
(-7.30065 -4.92032e-17 1.47883e-16)
(-7.29893 -5.37964e-17 1.64771e-16)
(-7.29707 -2.00313e-16 9.49241e-17)
(-7.29511 -1.01799e-16 1.95175e-16)
(-7.29304 -1.39463e-16 5.65857e-17)
(-7.29084 -1.1022e-16 3.36387e-17)
(-7.28854 -6.31112e-17 1.2922e-16)
(-7.28608 -4.29666e-17 1.89544e-16)
(-7.28349 8.20183e-17 2.36642e-16)
(-7.28077 1.67204e-17 1.7699e-16)
(-7.27792 -8.34158e-17 1.59455e-16)
(-7.27491 -4.38257e-17 9.89288e-17)
(-7.27175 -3.43309e-17 1.22847e-16)
(-7.26842 2.4872e-17 7.33645e-17)
(-7.26492 -5.77444e-17 3.44584e-17)
(-7.26128 -2.26871e-17 8.87064e-18)
(-7.25746 -8.22934e-17 6.07036e-17)
(-7.25346 1.47992e-17 7.16543e-17)
(-7.24925 -5.59436e-17 8.85087e-17)
(-7.24488 -5.28936e-17 9.92938e-17)
(-7.2403 8.33017e-17 2.96059e-17)
(-7.23554 2.17769e-17 2.05373e-18)
(-7.23057 -2.48288e-18 -6.27627e-18)
(-7.22539 -1.29332e-16 -1.73323e-17)
(-7.22003 -1.60124e-16 -1.61765e-18)
(-7.21443 -1.00928e-16 2.51861e-17)
(-7.20865 -3.14517e-16 -2.03378e-17)
(-7.20263 -1.62189e-16 3.54378e-17)
(-7.19641 -5.90318e-16 -1.65079e-17)
(-7.18995 -3.76302e-16 -1.03339e-17)
(-7.18328 -4.97825e-16 -5.35567e-17)
(-7.17637 -2.99893e-16 -2.73094e-17)
(-7.16925 -5.11165e-16 1.09392e-16)
(-7.16188 -3.04319e-16 1.19187e-16)
(-7.15429 -4.13386e-16 1.47109e-16)
(-7.14647 -2.04295e-16 1.02639e-16)
(-7.13841 -3.16765e-16 1.07118e-16)
(-7.13012 -7.98763e-17 1.00235e-16)
(-7.12159 -2.29185e-16 1.33833e-16)
(-7.11283 -1.43498e-16 1.41624e-16)
(-7.10383 -4.99113e-17 1.66645e-16)
(-7.09457 6.40288e-18 2.18417e-16)
(-7.0851 5.50723e-17 1.3171e-16)
(-7.0754 6.6557e-20 7.33254e-17)
(-7.06546 -5.33343e-17 1.17033e-16)
(-7.05528 -9.90521e-17 6.00704e-17)
(-7.04484 -9.92615e-17 1.05595e-16)
(-7.03422 5.63299e-17 1.28337e-16)
(-7.02334 -1.97117e-17 3.31936e-17)
(-7.01225 5.78253e-17 3.66024e-17)
(-7.00092 -3.15978e-17 1.26781e-17)
(-6.98938 -1.63067e-18 2.22692e-17)
(-6.97761 -1.0872e-16 -7.87078e-18)
(-6.96563 -1.00755e-16 3.36017e-17)
(-6.95344 -4.27303e-17 6.03507e-17)
(-6.94104 -3.32589e-17 2.6883e-17)
(-6.92843 -2.37687e-17 2.05649e-17)
(-6.91564 -4.60994e-17 1.22377e-17)
(-6.90264 -8.90585e-18 5.01477e-17)
(-6.88946 -4.62392e-17 3.34656e-17)
(-6.87606 -1.87664e-17 7.55985e-17)
(-6.86251 -2.63022e-18 6.35768e-17)
(-6.84878 -3.39947e-17 7.85622e-17)
(-6.83486 -1.99887e-19 7.72782e-17)
(-6.82079 -3.36164e-17 6.02722e-17)
(-6.80656 -9.34621e-19 5.08043e-17)
(-6.79217 -2.97698e-17 5.38756e-19)
(-6.7776 -2.16855e-17 2.96627e-17)
(-6.7629 -5.33232e-17 6.49251e-17)
(-6.74806 5.86541e-17 9.84252e-17)
(-6.73308 9.02762e-17 8.18911e-17)
(-6.71796 1.07665e-16 3.24704e-17)
(-6.7027 1.96404e-16 -5.78855e-17)
(-6.68732 -6.65033e-18 -9.2925e-17)
(-6.67184 9.06869e-17 -8.82638e-17)
(-6.65622 4.47207e-17 -1.08567e-16)
(-6.64047 3.01227e-17 -1.19769e-16)
(-6.62465 -9.57115e-18 -8.71458e-17)
(-6.60869 -4.14994e-18 -7.31861e-17)
(-6.59265 -2.87652e-17 -1.08911e-16)
(-6.57651 -2.86256e-17 -8.62869e-17)
(-6.56027 -4.51192e-17 -7.66678e-17)
(-6.54394 -2.74351e-17 -7.16209e-17)
(-6.52754 4.25798e-18 -8.76055e-17)
(-6.51104 -2.6118e-17 -9.49753e-17)
(-6.49448 -3.0253e-17 -7.57425e-17)
(-6.47781 -2.80901e-17 -9.69419e-17)
(-6.4611 -5.2832e-17 -8.19343e-17)
(-6.4443 -5.74295e-17 -6.60781e-17)
(-6.42743 -4.09524e-17 -7.8965e-17)
(-6.41051 -9.12505e-17 -7.42414e-17)
(-6.39353 -4.6886e-17 -5.91288e-17)
(-6.37647 -8.37336e-17 -5.61128e-17)
(-6.35936 -6.11226e-17 -7.97253e-17)
(-6.3422 -8.82556e-17 -4.84541e-17)
(-6.32497 -2.16701e-17 -1.77609e-17)
(-6.3077 -2.54013e-17 -4.6101e-17)
(-6.29036 -4.68732e-17 -5.15025e-17)
(-6.27299 -7.91531e-17 -5.28465e-17)
(-6.25556 -1.10993e-16 -4.10642e-17)
(-6.23809 -1.07313e-16 -2.18579e-17)
(-6.22056 -8.97517e-17 -2.65713e-17)
(-6.20298 -2.8323e-17 -2.00603e-17)
(-6.18535 -7.83827e-18 -4.8255e-17)
(-6.1677 -7.35938e-17 -5.38314e-17)
(-6.14996 -5.61849e-17 -3.40253e-17)
(-6.13222 -1.00105e-16 -1.88294e-17)
(-6.11441 -5.78742e-17 -9.63278e-18)
(-6.09654 -7.10788e-17 6.38681e-18)
(-6.07865 -1.07424e-17 1.48531e-18)
(-6.0607 -1.62003e-17 -1.3839e-17)
(-6.04271 5.74239e-19 -1.46377e-17)
(-6.02466 -8.55224e-18 -3.27349e-17)
(-6.00655 4.38447e-18 -3.66939e-17)
(-5.98843 1.06937e-18 -1.8071e-17)
(-5.97022 4.04102e-17 1.91094e-17)
(-5.95199 4.76096e-17 2.01658e-17)
(-5.93368 7.30721e-17 -1.82005e-17)
(-5.91531 4.22647e-17 -3.97181e-17)
(-5.8969 3.99528e-17 -3.43382e-17)
(-5.87843 8.65463e-18 -2.4819e-17)
(-5.85991 1.60925e-17 -1.46141e-17)
(-5.84131 -1.31788e-17 -7.3765e-18)
(-5.82266 -1.04426e-17 -6.31379e-18)
(-5.80393 -3.91406e-17 -4.26939e-18)
(-5.78512 -9.3489e-18 1.79224e-17)
(-5.76626 -4.31657e-17 4.33868e-17)
(-5.74732 -3.24378e-18 4.59722e-17)
(-5.7283 -1.98015e-17 3.63136e-17)
(-5.70918 8.15598e-18 1.32355e-17)
(-5.68998 -1.64681e-17 5.7175e-18)
(-5.6707 7.32301e-18 2.47301e-17)
(-5.65129 -7.61317e-18 4.48214e-17)
(-5.6318 1.53129e-17 3.95605e-17)
(-5.61218 4.42397e-18 1.84146e-17)
(-5.59248 9.26692e-18 -1.93e-18)
(-5.57265 -1.46109e-17 -8.63292e-18)
(-5.55272 -1.65484e-17 -4.46092e-18)
(-5.53268 -4.0902e-17 5.29437e-18)
(-5.51254 -3.5188e-17 1.94451e-17)
(-5.49229 -4.9227e-17 1.1993e-17)
(-5.47191 -4.15347e-17 -6.41697e-18)
(-5.45143 -6.17865e-17 -1.60056e-17)
(-5.43084 -6.20959e-17 -2.33525e-18)
(-5.41012 -8.27248e-17 1.17699e-17)
(-5.38928 -7.82092e-17 3.00007e-17)
(-5.36832 -8.46966e-17 5.18705e-17)
(-5.34724 -4.64345e-17 3.88758e-17)
(-5.326 -5.23887e-17 2.28273e-17)
(-5.30465 -3.38478e-17 1.40197e-17)
(-5.28317 -4.87127e-17 7.93868e-18)
(-5.26154 -3.72845e-17 7.07144e-18)
(-5.23978 -5.56466e-17 1.07441e-17)
(-5.21785 -4.55288e-17 1.69546e-17)
(-5.1958 -2.61948e-17 3.38531e-18)
(-5.17359 -3.46063e-17 -1.0454e-17)
(-5.15125 -4.2602e-17 -1.52476e-17)
(-5.12876 -5.35443e-17 -9.68247e-18)
(-5.10608 -5.29545e-17 -1.90174e-18)
(-5.08326 -6.09325e-17 -5.48138e-19)
(-5.0603 -4.56492e-17 6.12099e-18)
(-5.03715 -2.27668e-17 -1.83344e-18)
(-5.01384 -2.88847e-17 -1.40984e-17)
(-4.99035 -2.83436e-17 -2.25721e-17)
(-4.96667 -4.05476e-17 -2.76942e-17)
(-4.94284 -4.21947e-17 -2.88626e-17)
(-4.9188 -5.14399e-17 -3.03053e-17)
(-4.89458 -4.31341e-17 -2.47126e-17)
(-4.87017 -3.70653e-17 -3.63416e-17)
(-4.84556 -3.56042e-17 -4.79854e-17)
(-4.82073 -3.63058e-17 -5.55013e-17)
(-4.79572 -3.54542e-17 -5.2393e-17)
(-4.77048 -3.43735e-17 -4.57484e-17)
(-4.74505 -2.72906e-17 -5.20829e-17)
(-4.71939 -2.68026e-17 -5.29013e-17)
(-4.69352 -2.66074e-17 -5.23068e-17)
(-4.66744 -2.47047e-17 -6.04339e-17)
(-4.64115 -2.3461e-17 -6.47352e-17)
(-4.61462 -2.26397e-17 -6.6291e-17)
(-4.58789 -1.86867e-17 -5.88067e-17)
(-4.56092 -1.68007e-17 -5.38597e-17)
(-4.53371 -1.28223e-17 -6.05079e-17)
(-4.5063 -1.4218e-17 -6.22967e-17)
(-4.47862 -1.56122e-17 -6.102e-17)
(-4.45068 -1.58125e-17 -5.85724e-17)
(-4.42253 -1.51732e-17 -5.45565e-17)
(-4.39413 -1.3482e-17 -4.81326e-17)
(-4.36545 -9.21233e-18 -4.26126e-17)
(-4.33652 -8.50018e-18 -4.35674e-17)
(-4.30736 -7.42445e-18 -4.41398e-17)
(-4.2779 -8.43275e-18 -4.23204e-17)
(-4.24821 -1.37993e-17 -3.82655e-17)
(-4.21823 -1.49027e-17 -3.84729e-17)
(-4.18802 -1.36312e-17 -3.54603e-17)
(-4.15751 -1.03821e-17 -3.26514e-17)
(-4.12675 -7.89087e-18 -3.29307e-17)
(-4.09573 -5.44218e-18 -3.11737e-17)
(-4.06444 -9.55943e-18 -3.10631e-17)
(-4.03287 -1.22927e-17 -2.76588e-17)
(-4.00106 -1.79965e-17 -2.39126e-17)
(-3.96896 -1.88409e-17 -2.08494e-17)
(-3.93663 -1.9826e-17 -2.06883e-17)
(-3.90401 -1.23789e-17 -1.99213e-17)
(-3.87112 -1.17599e-17 -2.03263e-17)
(-3.83798 -1.08479e-17 -2.36607e-17)
(-3.8046 -1.06693e-17 -2.36822e-17)
(-3.77093 -1.06447e-17 -2.02734e-17)
(-3.73703 -1.16105e-17 -1.7323e-17)
(-3.70284 -9.17645e-18 -1.70853e-17)
(-3.66842 -7.37214e-18 -1.53765e-17)
(-3.63373 -5.77435e-18 -1.30721e-17)
(-3.59881 -8.20939e-18 -1.08986e-17)
(-3.5636 -8.94084e-18 -7.80689e-18)
(-3.52815 -1.07341e-17 -5.34451e-18)
(-3.49247 -1.1317e-17 -2.89013e-18)
(-3.45653 -1.08559e-17 -6.37131e-19)
(-3.42032 -8.93778e-18 9.77951e-19)
(-3.38388 -9.68435e-18 1.52504e-18)
(-3.34721 -8.63261e-18 2.42597e-18)
(-3.3103 -9.37858e-18 4.32057e-18)
(-3.27315 -9.4902e-18 5.46904e-18)
(-3.23574 -9.28925e-18 6.10927e-18)
(-3.19812 -8.63312e-18 5.43634e-18)
(-3.16027 -7.13181e-18 5.03962e-18)
(-3.12218 -6.30845e-18 5.6443e-18)
(-3.08389 -6.16834e-18 5.05521e-18)
(-3.04538 -5.76716e-18 4.2865e-18)
(-3.00664 -5.48131e-18 4.47124e-18)
(-2.96771 -4.94475e-18 2.4427e-18)
(-2.92855 -3.37663e-18 7.66992e-19)
(-2.88924 -2.88203e-18 1.33978e-19)
(-2.84971 -2.41386e-18 -2.07222e-18)
(-2.81 -2.07718e-18 -4.08804e-18)
(-2.77013 -8.59721e-19 -5.42005e-18)
(-2.73008 -1.46333e-18 -7.32146e-18)
(-2.68988 -3.80628e-19 -9.50795e-18)
(-2.64954 -3.31032e-19 -1.14263e-17)
(-2.60904 7.06223e-19 -1.27479e-17)
(-2.56841 5.26883e-19 -1.41667e-17)
(-2.52766 1.35529e-18 -1.68595e-17)
(-2.48681 1.57786e-18 -1.92569e-17)
(-2.44584 1.97595e-18 -2.12305e-17)
(-2.4048 1.47019e-18 -2.32521e-17)
(-2.36367 1.68284e-18 -2.49554e-17)
(-2.32247 5.18714e-19 -2.67182e-17)
(-2.28122 6.83328e-19 -2.88758e-17)
(-2.23992 -5.62027e-19 -3.09085e-17)
(-2.1986 -6.18157e-19 -3.17053e-17)
(-2.15725 -1.57877e-18 -3.1627e-17)
(-2.1159 -1.36583e-18 -3.12348e-17)
(-2.07455 -2.08724e-18 -3.04858e-17)
(-2.03321 -1.95544e-18 -2.95989e-17)
(-1.9919 -2.70796e-18 -2.81446e-17)
(-1.95064 -2.46733e-18 -2.65839e-17)
(-1.90942 -4.07877e-18 -2.5772e-17)
(-1.86827 -4.44331e-18 -2.5903e-17)
(-1.82718 -6.34092e-18 -2.61131e-17)
(-1.78618 -6.84499e-18 -2.58769e-17)
(-1.74527 -9.00334e-18 -2.50653e-17)
(-1.70446 -1.01516e-17 -2.43276e-17)
(-1.66376 -1.16053e-17 -2.31882e-17)
(-1.62318 -1.22019e-17 -2.15863e-17)
(-1.58271 -1.31779e-17 -1.98414e-17)
(-1.54238 -1.28928e-17 -1.78819e-17)
(-1.50218 -1.31773e-17 -1.53427e-17)
(-1.46213 -1.2795e-17 -1.26292e-17)
(-1.42222 -1.32303e-17 -1.05398e-17)
(-1.38245 -1.28452e-17 -8.98601e-18)
(-1.34284 -1.32476e-17 -7.3822e-18)
(-1.30338 -1.29436e-17 -5.82455e-18)
(-1.26407 -1.3684e-17 -4.75762e-18)
(-1.22492 -1.31099e-17 -3.44654e-18)
(-1.18592 -1.37048e-17 -2.01222e-18)
(-1.14708 -1.38113e-17 -1.34616e-18)
(-1.10838 -1.43977e-17 -9.34479e-19)
(-1.06984 -1.42737e-17 -7.42786e-19)
(-1.03143 -1.44603e-17 -9.25727e-19)
(-0.99317 -1.4145e-17 -1.56025e-18)
(-0.95504 -1.37063e-17 -2.16029e-18)
(-0.917038 -1.27829e-17 -2.45294e-18)
(-0.879155 -1.23873e-17 -3.08536e-18)
(-0.841386 -1.17162e-17 -4.28428e-18)
(-0.803722 -1.11545e-17 -5.69047e-18)
(-0.766147 -1.04481e-17 -7.3032e-18)
(-0.728655 -9.49428e-18 -8.94626e-18)
(-0.691229 -8.41407e-18 -1.04557e-17)
(-0.653853 -7.07499e-18 -1.18024e-17)
(-0.616516 -5.32706e-18 -1.30492e-17)
(-0.579192 -3.63773e-18 -1.45545e-17)
(-0.54186 -1.94965e-18 -1.6435e-17)
(-0.504497 -3.03596e-19 -1.84643e-17)
(-0.467068 1.22435e-18 -2.05159e-17)
(-0.429545 2.50124e-18 -2.25623e-17)
(-0.391881 3.53279e-18 -2.44369e-17)
(-0.354026 4.64081e-18 -2.58021e-17)
(-0.315915 6.07029e-18 -2.64077e-17)
(-0.277471 7.80624e-18 -2.6376e-17)
(-0.238584 9.76634e-18 -2.57641e-17)
(-0.199108 1.19819e-17 -2.4336e-17)
(-0.158826 1.41129e-17 -2.17236e-17)
(-0.117386 1.5929e-17 -1.72407e-17)
(-0.0741241 1.52351e-17 -9.73654e-18)
(-0.0274902 8.05592e-18 -1.71078e-18)
)
;
    }
    wallSide
    {
        type            calculated;
        value           nonuniform List<vector> 
47
(
(-5.58154 1.30175e-17 -6.86569e-18)
(-5.55235 -1.38992e-17 -1.48331e-17)
(-5.50033 -9.25872e-17 -6.07608e-18)
(-5.42955 -1.22961e-16 -1.72068e-17)
(-5.3428 -1.47441e-16 3.27398e-17)
(-5.24219 -1.14812e-17 -5.68989e-17)
(-5.12933 5.17396e-18 6.54547e-17)
(-5.00546 -8.77763e-17 -2.47285e-17)
(-4.87165 1.89197e-16 -2.70869e-17)
(-4.72873 4.45608e-16 7.25284e-17)
(-4.57726 2.73534e-16 5.66589e-17)
(-4.41778 -9.53443e-17 -3.60134e-17)
(-4.25076 1.9153e-16 -2.98899e-17)
(-4.07692 1.02284e-16 -3.45611e-17)
(-3.8973 -2.60379e-17 -1.24452e-16)
(-3.71303 -2.2442e-16 -1.49297e-16)
(-3.52525 -1.14724e-15 -1.90774e-16)
(-3.33505 -4.22141e-16 7.3125e-17)
(-3.14354 1.28014e-15 5.0368e-16)
(-2.95204 8.59249e-17 2.36829e-16)
(-2.76183 4.1917e-16 -2.10737e-16)
(-2.57434 1.48977e-15 -3.87342e-16)
(-2.39099 4.01622e-17 -3.16739e-16)
(-2.21311 -7.08018e-16 1.233e-16)
(-2.04187 -6.38645e-16 2.11243e-16)
(-1.87818 -6.19963e-16 1.7857e-16)
(-1.72269 -4.69399e-16 9.02788e-17)
(-1.57575 -1.70093e-16 1.05413e-16)
(-1.43745 -2.86904e-16 1.80028e-16)
(-1.30769 -2.96771e-16 1.7408e-16)
(-1.1862 -9.98461e-17 1.06838e-16)
(-1.07263 -1.31992e-17 4.00587e-17)
(-0.966579 4.12194e-17 -1.14313e-17)
(-0.867593 6.88772e-17 -4.31108e-17)
(-0.775221 6.9696e-17 -5.17875e-17)
(-0.689018 5.5142e-17 -5.07545e-17)
(-0.608546 3.94057e-17 -4.6219e-17)
(-0.533382 3.24423e-17 -4.11383e-17)
(-0.463114 3.15096e-17 -3.68635e-17)
(-0.397352 3.07908e-17 -3.29294e-17)
(-0.335706 2.81816e-17 -2.89481e-17)
(-0.277791 2.43777e-17 -2.54814e-17)
(-0.223209 2.02832e-17 -2.31902e-17)
(-0.171529 1.63117e-17 -2.21291e-17)
(-0.12222 1.20057e-17 -2.14434e-17)
(-0.0745013 5.73969e-18 -1.83481e-17)
(-0.026862 -5.07398e-19 -8.70015e-18)
)
;
    }
    symmetryBottom
    {
        type            symmetry;
    }
    symmetrySide
    {
        type            symmetry;
    }
}


// ************************************************************************* //
