7 	0.175477169696616 	1.04083408558608e-17 	-0.00704680835959261 	-0.00530147897888656 	-8.86526327719984e-19
7 	0.183479805616048 	1.38777878078145e-17 	-0.0159398386436479 	-0.0132896722931608 	-1.86862917704485e-18
7 	0.191768329657843 	1.21430643318376e-17 	-0.0188507614616723 	-0.0165560558072389 	-1.58690406278791e-17
7 	0.200352690849211 	8.67361737988404e-18 	-0.0161574662992364 	-0.0155373371398601 	2.50400667638133e-20
7 	0.209243165650844 	1.04083408558608e-17 	-0.010593021694371 	-0.0124700907284596 	2.66923790581799e-19
7 	0.218450367413594 	1.30104260698261e-17 	-0.00459071321986783 	-0.00920822026262148 	4.92522845319222e-18
7 	0.227985256016299 	9.54097911787244e-18 	0.00119231274055543 	-0.00626057329903885 	-3.34810321966229e-18
7 	0.237859147681583 	1.25767452008319e-17 	0.00676265857251222 	-0.00362213251876455 	2.43015300411664e-18
7 	0.248083724965845 	1.77809156287623e-17 	0.0122141176461487 	-0.00121343722437859 	-2.81430211613654e-20
7 	0.258671046919076 	1.66967134562768e-17 	0.0176244003401948 	0.00102887932179453 	-1.74803028079732e-18
7 	0.269633559409454 	1.7130394325271e-17 	0.0230505825551189 	0.00314727545686503 	1.53260174258189e-18
7 	0.280984105606939 	1.60461921527855e-17 	0.0285350434616152 	0.00516992191637409 	5.49912792238615e-21
7 	0.292735936619475 	1.73472347597681e-17 	0.0341541817572381 	0.00717712657522505 	1.16656009666915e-18
7 	0.304902722274549 	1.38777878078145e-17 	0.0398937725202939 	0.00912135024910047 	-9.99150160446295e-19
7 	0.31749856203814 	1.04083408558608e-17 	0.0457747676782744 	0.0110103603547492 	5.7536689045576e-21
7 	0.330537996062243 	1.04083408558608e-17 	0.0518163563926044 	0.0128505975155199 	-5.11057079063215e-18
7 	0.344036016351372 	0 	0.05803584816484 	0.014646638708968 	-1.71233727793549e-16
7 	0.358008078037565 	-1.04083408558608e-17 	0.0644492211759269 	0.0164017539990753 	1.5973470144077e-16
7 	0.372470110752509 	-1.04083408558608e-17 	0.071071473736374 	0.0181183220128211 	9.16333769485786e-18
7 	0.387438530084601 	-1.04083408558608e-17 	0.0779168334421541 	0.0197981629313306 	-4.19936124570566e-20
7 	0.402930249107806 	-1.04083408558608e-17 	0.0849988521638702 	0.0214428281895293 	-4.39835946981027e-19
7 	0.418962689968293 	-6.93889390390723e-18 	0.0923303956940029 	0.0230538772237723 	3.20230519912431e-19
7 	0.435553795513961 	-3.46944695195361e-18 	0.0999235203699672 	0.0246331676046823 	3.54149994162364e-19
7 	0.452722040951046 	6.93889390390723e-18 	0.107789200375344 	0.0261831828336588 	-2.19216856349842e-19
7 	0.470486445511199 	1.04083408558608e-17 	0.115936937966469 	0.027707383404967 	-1.73616342195194e-19
7 	0.488866584111516 	1.38777878078145e-17 	0.124375068034106 	0.0292101358204653 	4.91890976104932e-19
7 	0.507882598989293 	2.42861286636753e-17 	0.13311340353013 	0.0306966837178662 	1.24341773065944e-19
7 	0.527555211292512 	3.46944695195361e-17 	0.142172359120353 	0.0321749392672578 	-3.08781374237872e-19
7 	0.54244403095239 	4.16333634234434e-17 	0.149060353377782 	0.0332638679237491 	-3.03039772448404e-19
7 	0.552823946998482 	4.5102810375397e-17 	0.153880348865359 	0.0340107004048247 	-2.89268851221615e-21
7 	0.569082665743196 	4.5102810375397e-17 	0.161508162901746 	0.0351695176550248 	3.56432201327594e-17
7 	0.590977979586464 	4.16333634234434e-17 	0.172023711525387 	0.0367167771728818 	5.60537128086386e-17
7 	0.61361731762149 	3.81639164714898e-17 	0.18332572790481 	0.0383115423223191 	-7.31094778277466e-17
7 	0.637024103108103 	3.98986399474666e-17 	0.195590571756404 	0.0399547254668099 	-2.69845175565839e-17
7 	0.661222382337652 	4.85722573273506e-17 	0.208973203088487 	0.0416419591611111 	2.50238144371425e-19
7 	0.686236834884958 	5.3776427755281e-17 	0.223611514062065 	0.0433655556469824 	6.60457722166811e-21
7 	0.712092783750835 	5.72458747072346e-17 	0.239631247225182 	0.0451192310779083 	-4.61900559193409e-19
7 	0.738816205392112 	6.07153216591882e-17 	0.257144368745319 	0.0468990200562907 	5.61925870022096e-19
7 	0.766433739638512 	5.68121938382404e-17 	0.276241093071311 	0.0486998959124983 	3.65501843681576e-20
7 	0.794972699498517 	5.56195714485064e-17 	0.296979609680285 	0.0505136012680581 	-1.96027533173226e-20
7 	0.82446108085951 	6.1257422745431e-17 	0.319464874565102 	0.0523517891187508 	2.45092046965061e-18
7 	0.854927572091144 	6.24500451351651e-17 	0.343704263375266 	0.0541951568158673 	2.02780287722937e-16
7 	0.886401563564908 	6.24500451351651e-17 	0.369530646527895 	0.0559815784744508 	-1.6829908643152e-16
7 	0.918913157107335 	5.20417042793042e-17 	0.396874337213389 	0.0576827856551834 	-2.16175641337342e-17
7 	0.952493175409364 	4.5102810375397e-17 	0.42565164971035 	0.0592699055710042 	2.45405049483497e-19
7 	0.987173171419818 	4.5102810375397e-17 	0.455766411142193 	0.0607152125835729 	-3.99060743259404e-19
7 	1.02298543775705 	4.5102810375397e-17 	0.48710690878593 	0.0619932624796103 	5.6183920102901e-20
7 	1.05996301617935 	4.5102810375397e-17 	0.519539366129769 	0.0630813049830482 	-1.09533915093722e-20
7 	1.08337286333309 	3.46944695195361e-17 	0.540040009309442 	0.0636638420734844 	-1.38793328510549e-20
7 	1.10279491468902 	2.77555756156289e-17 	0.556918139520992 	0.0640612950527911 	1.62079549121935e-20
7 	1.13764544566304 	2.42861286636753e-17 	0.586971308173001 	0.0646403552628907 	8.61857436365375e-21
7 	1.17839328092009 	1.90819582357449e-17 	0.621570170644366 	0.0650694369176144 	-5.65874994414086e-20
7 	1.2204386814122 	2.42861286636753e-17 	0.65642483475094 	0.0652376948751905 	4.36883902343128e-19
7 	1.26381809942668 	3.38271077815477e-17 	0.691243156425044 	0.0651315370259825 	-3.64210375101547e-20
7 	1.30856880549572 	4.0766001685455e-17 	0.725717196329489 	0.0647398449275819 	-6.13765662436852e-19
7 	1.35472890449142 	4.33680868994202e-17 	0.759538121127922 	0.0640551206285315 	3.40346403852836e-19
7 	1.40233735289359 	3.81639164714898e-17 	0.792393138101212 	0.0630476695342488 	-3.39645673416257e-19
7 	1.45143397738117 	3.81639164714898e-17 	0.823992259835012 	0.0617340322081552 	2.6413345366192e-19
7 	1.50205949490893 	3.46944695195361e-17 	0.854137327896467 	0.0601393598558946 	1.25319893816657e-20
7 	1.55425553444232 	3.12250225675825e-17 	0.882692787367659 	0.0582831383642955 	-6.34008204082963e-20
7 	1.60806466053431 	3.81639164714898e-17 	0.909585760844732 	0.0561911583846595 	-1.38289680724781e-21
7 	1.6509492227427 	4.20670442924376e-17 	0.929348930762135 	0.0544288074107986 	5.6857468000123e-20
7 	1.67910579322798 	4.20670442924376e-17 	0.941563126289783 	0.0532359548755698 	9.04090696653604e-20
7 	1.72071188620233 	4.16333634234434e-17 	0.958459468068802 	0.0514368832859597 	6.64643852751398e-20
7 	1.77963482025102 	4.16333634234434e-17 	0.980466404226071 	0.0488339729206775 	-1.25522472117453e-16
7 	1.84034366966232 	4.33680868994202e-17 	1.00080033682124 	0.0461143323889081 	-1.01692620645324e-15
7 	1.90288607063176 	4.5102810375397e-17 	1.01940462431421 	0.0433189240016487 	1.0081276803093e-15
7 	1.96731084301856 	3.98986399474666e-17 	1.03613736441004 	0.0404858333266832 	4.31828310485259e-18
7 	2.02025965173185 	3.46944695195361e-17 	1.04792650580889 	0.038197565130289 	2.23463372414594e-22
7 	2.06006301192217 	3.46944695195361e-17 	1.05620320643721 	0.0365720309723735 	0
7 	2.09845978584128 	4.16333634234434e-17 	1.06373416675699 	0.034990289476716 	0
7 	2.13549967996945 	4.85722573273506e-17 	1.07062222788326 	0.0335022996697076 	0
7 	2.17123064424048 	4.85722573273506e-17 	1.07691594344305 	0.0321039550788587 	0
7 	2.20569893411515 	4.85722573273506e-17 	1.08265660509035 	0.030787260820195 	0
7 	2.23894917046122 	4.85722573273506e-17 	1.08788029349207 	0.029546125438579 	0
7 	2.27102439731726 	4.85722573273506e-17 	1.09261904285121 	0.0283748229141259 	0
7 	2.30196613761521 	4.85722573273506e-17 	1.09690145850114 	0.0272678189535655 	0
7 	2.33181444693391 	5.55111512312578e-17 	1.10075303459308 	0.0262199698343674 	0
7 	2.3606079653529 	6.24500451351651e-17 	1.10419631931451 	0.025226580234524 	0
7 	2.3883839674739 	6.24500451351651e-17 	1.10725100496776 	0.024283390054172 	0
7 	2.41517841067461 	6.24500451351651e-17 	1.10993398158919 	0.0233865431084645 	0
7 	2.44102598165722 	6.93889390390723e-17 	1.11225937187701 	0.0225325492822593 	0
7 	2.46596014135207 	7.63278329429795e-17 	1.11423855419557 	0.0217182448438063 	0
7 	2.49001316823443 	7.63278329429795e-17 	1.1158801751245 	0.0209407542644598 	0
7 	2.51321620011054 	6.93889390390723e-17 	1.11719015094055 	0.020197455272042 	0
7 	2.535599274427 	6.24500451351651e-17 	1.11817165713672 	0.0194859477362335 	0
7 	2.55719136715571 	6.24500451351651e-17 	1.11882510583471 	0.0188040264074197 	0
7 	2.57802043030465 	6.24500451351651e-17 	1.11914811236918 	0.0181496572591323 	0
7 	2.59811342810315 	6.24500451351651e-17 	1.1191354542663 	0.0175209570693118 	0
7 	2.61749637190832 	5.55111512312578e-17 	1.11877902826258 	0.0169161758441376 	0
7 	2.63619435387806 	5.55111512312578e-17 	1.11806781389265 	0.0163336816984581 	0
7 	2.65423157945406 	6.24500451351651e-17 	1.11698785544761 	0.0157719478340118 	0
7 	2.67163139869691 	6.24500451351651e-17 	1.11552227758176 	0.0152295412865993 	0
7 	2.68841633651388 	5.55111512312578e-17 	1.11365135314364 	0.0147051131391175 	0
7 	2.7046081218185 	4.85722573273506e-17 	1.11135264429244 	0.0141973899165951 	0
7 	2.72022771565972 	4.85722573273506e-17 	1.10860123871493 	0.0137051658935896 	0
7 	2.73529533835694 	4.16333634234434e-17 	1.10537010064191 	0.0132272960585723 	0
7 	2.74983049567626 	3.81639164714898e-17 	1.10163055020096 	0.0127626895026422 	0
7 	2.76385200408157 	3.81639164714898e-17 	1.09735287357399 	0.0123103030418256 	0
7 	2.77737801509344 	3.46944695195361e-17 	1.09250705038606 	0.0118691349543874 	0
7 	2.79042603878708 	3.12250225675825e-17 	1.08706356492075 	0.0114382188252673 	0
7 	2.80301296646003 	2.42861286636753e-17 	1.08099424679131 	0.0110166176389603 	0
7 	2.81515509249873 	2.08166817117217e-17 	1.07427306841841 	0.010603418424667 	0
7 	2.82686813547238 	2.08166817117217e-17 	1.06687681514528 	0.0101977278734996 	0
7 	2.83816725848143 	2.08166817117217e-17 	1.05878554203461 	0.00979866950284923 	0
7 	2.84906708878692 	2.08166817117217e-17 	1.0499827399639 	0.00940538374595565 	0
7 	2.85958173674617 	2.42861286636753e-17 	1.04045515030352 	0.00901703294654467 	0
7 	2.86972481407933 	3.46944695195361e-17 	1.0301921876538 	0.00863280282968563 	0
7 	2.87950945149043 	4.5102810375397e-17 	1.01918494849395 	0.0082518706464241 	0
7 	2.88894831566567 	4.85722573273506e-17 	1.0074247946549 	0.00787338914069887 	0
7 	2.89805362567107 	4.85722573273506e-17 	0.994900743587738 	0.00749735195863347 	0
7 	2.90683716877067 	4.85722573273506e-17 	0.981553059920154 	0.00712224826763839 	0
7 	2.9153103156857 	4.85722573273506e-17 	0.967276030984954 	0.00674588856679143 	0
7 	2.92348403531449 	4.5102810375397e-17 	0.952018569087986 	0.0063664572076716 	0
7 	2.9313689089323 	4.16333634234434e-17 	0.935799334822742 	0.00598353787245471 	0
7 	2.93897514388925 	3.46944695195361e-17 	0.918646050352102 	0.00559686995537559 	0
7 	2.94631258682425 	2.42861286636753e-17 	0.900556776605856 	0.00520646579429251 	0
7 	2.95339073641193 	2.08166817117217e-17 	0.881477487087195 	0.0048125882681294 	0
7 	2.96021875565916 	2.42861286636753e-17 	0.861287023585491 	0.00441572961385083 	0
7 	2.96680548376697 	2.42861286636753e-17 	0.839781970334179 	0.00401665059872476 	0
7 	2.97315944757337 	2.08166817117217e-17 	0.816656095519795 	0.00361645268215619 	0
7 	2.97928887259171 	2.08166817117217e-17 	0.791470394633918 	0.00321666044019986 	0
7 	2.98520169365903 	2.08166817117217e-17 	0.763610200000626 	0.00281931355453158 	0
7 	2.99090556520807 	1.73472347597681e-17 	0.73222582183974 	0.00242706749124569 	-2.23828790812019e-16
7 	2.99640787117633 	1.73472347597681e-17 	0.696153799510706 	0.00204328786224087 	-1.17612364075285e-14
7 	3.00171573456492 	2.08166817117217e-17 	0.653820688898401 	0.00167229006971899 	1.36835674941145e-14
7 	3.00683602665963 	2.77555756156289e-17 	0.603124930330785 	0.0013201872998355 	2.58989400044572e-16
7 	3.01177537592613 	3.12250225675825e-17 	0.541144357517008 	0.000991795160522723 	0
7 	3.01654017659085 	3.46944695195361e-17 	0.464496953635843 	0.000692022978718287 	0
7 	3.02113659691864 	4.5102810375397e-17 	0.372258869082867 	0.000429497133999625 	0
7 	3.02557058719784 	4.16333634234434e-17 	0.26922282657488 	0.000220631107725028 	0
7 	3.02984788744324 	3.46944695195361e-17 	0.162254792198778 	7.92170681182278e-05 	0
