7 	0.175477169696616 	1.04083408558608e-17 	0.288587293638431 	1.68750455191915e-05 	1426.94485971325 	1.30402441412915e-07 	2.46324090095435e-38
7 	0.183479805616048 	1.38777878078145e-17 	0.288756020705584 	0.00020621174115221 	364.364563255261 	9.5460295135972e-07 	0
7 	0.191768329657843 	1.21430643318376e-17 	0.288933073612868 	0.00111186705347156 	96.6429653811032 	3.21821133484457e-06 	0
7 	0.200352690849211 	8.67361737988404e-18 	0.289092512448173 	0.00326367671136497 	40.6199801819461 	4.51895881976746e-05 	0
7 	0.209243165650844 	1.04083408558608e-17 	0.289221993940864 	0.00611907734997325 	21.7709257468202 	0.000219301639871663 	0
7 	0.218450367413594 	1.30104260698261e-17 	0.289308571723429 	0.00882606648109951 	13.9156254634915 	0.000435112875879589 	0
7 	0.227985256016299 	9.54097911787244e-18 	0.289351289379988 	0.0111652872597921 	10.0379117302011 	0.000628383734328096 	0
7 	0.237859147681583 	1.25767452008319e-17 	0.289357358951956 	0.0131980827192645 	7.8260810413873 	0.000813285513162207 	0
7 	0.248083724965845 	1.77809156287623e-17 	0.289332639714846 	0.0150106500343131 	6.4207747898254 	0.00100391855009625 	0
7 	0.258671046919076 	1.66967134562768e-17 	0.289279844534374 	0.016667167118617 	5.45655763614671 	0.00120634016743367 	0
7 	0.269633559409454 	1.7130394325271e-17 	0.289200211207208 	0.0182111010867735 	4.7573212955196 	0.00142313995794222 	0
7 	0.280984105606939 	1.60461921527855e-17 	0.289094481078107 	0.0196722743602851 	4.22908670826572 	0.00165553555906403 	0
7 	0.292735936619475 	1.73472347597681e-17 	0.288959959787049 	0.0210717966180005 	3.81950899963728 	0.00190612464775773 	0
7 	0.304902722274549 	1.38777878078145e-17 	0.288798603383247 	0.022425424982027 	3.49220456661222 	0.00217386156698073 	0
7 	0.31749856203814 	1.04083408558608e-17 	0.288610653511324 	0.0237443800941177 	3.22587143399555 	0.0024588371813911 	0
7 	0.330537996062243 	1.04083408558608e-17 	0.288396316529954 	0.0250372571009621 	3.00607257542702 	0.00276098839478608 	0
7 	0.344036016351372 	0 	0.288155892897356 	0.0263107366882637 	2.82267699773503 	0.00308002696115434 	0
7 	0.358008078037565 	-1.04083408558608e-17 	0.287889824708873 	0.0275700658324461 	2.66837787840693 	0.00341539599400398 	0
7 	0.372470110752509 	-1.04083408558608e-17 	0.287598736156814 	0.0288193851841863 	2.53778231375804 	0.00376620740119486 	0
7 	0.387438530084601 	-1.04083408558608e-17 	0.287283468480516 	0.0300619576897525 	2.42683206851067 	0.00413115770590574 	0
7 	0.402930249107806 	-1.04083408558608e-17 	0.286945110472204 	0.0313003332194767 	2.3324236472739 	0.00450841643694002 	0
7 	0.418962689968293 	-6.93889390390723e-18 	0.286585031105929 	0.0325364728116571 	2.25215267499631 	0.00489547600396176 	0
7 	0.435553795513961 	-3.46944695195361e-18 	0.286204929323516 	0.0337718503183687 	2.18413837224485 	0.00528892700204048 	0
7 	0.452722040951046 	6.93889390390723e-18 	0.285806902909539 	0.0350075475395937 	2.12690132576557 	0.00568418312456529 	0
7 	0.470486445511199 	1.04083408558608e-17 	0.285393215560708 	0.0362443619904703 	2.07927770727554 	0.00607586879757377 	0
7 	0.488866584111516 	1.38777878078145e-17 	0.284964300008805 	0.0374829616997541 	2.04035753943435 	0.00646019461372757 	0
7 	0.507882598989293 	2.42861286636753e-17 	0.28451611807818 	0.038724094392532 	2.00944080693292 	0.00684041521275287 	0
7 	0.527555211292512 	3.46944695195361e-17 	0.284043270028901 	0.0399692250658906 	1.98599512074969 	0.00722952570435575 	0
7 	0.54244403095239 	4.16333634234434e-17 	0.283677356067285 	0.0408900383061892 	1.97301929644395 	0.00752964573170823 	0
7 	0.552823946998482 	4.5102810375397e-17 	0.283418728823334 	0.0415195978311983 	1.96649612141869 	0.007743900185742 	0
7 	0.569082665743196 	4.5102810375397e-17 	0.283001214828713 	0.0424910147172332 	1.95976669754906 	0.0081007249151327 	0
7 	0.590977979586464 	4.16333634234434e-17 	0.28240501188619 	0.043782514189371 	1.95650622491842 	0.00862757345769445 	0
7 	0.61361731762149 	3.81639164714898e-17 	0.281727896509584 	0.0451038059269565 	1.95980456077413 	0.00923403603636826 	0
7 	0.637024103108103 	3.98986399474666e-17 	0.280953886446396 	0.0464575475098705 	1.96971559121901 	0.00992835646425378 	0
7 	0.661222382337652 	4.85722573273506e-17 	0.280078235144268 	0.0478397174009845 	1.98623674889607 	0.0107063881611204 	0
7 	0.686236834884958 	5.3776427755281e-17 	0.279106958491941 	0.049240308942936 	2.00918964498556 	0.0115565659317359 	0
7 	0.712092783750835 	5.72458747072346e-17 	0.278040414306588 	0.0506440698103614 	2.03813182154726 	0.0124654766029264 	0
7 	0.738816205392112 	6.07153216591882e-17 	0.276870551657466 	0.0520304893708786 	2.07228738651302 	0.0134143641090614 	0
7 	0.766433739638512 	5.68121938382404e-17 	0.275584558098731 	0.0533738585063273 	2.11048777439398 	0.0143761697143136 	0
7 	0.794972699498517 	5.56195714485064e-17 	0.274166581495285 	0.0546437376892641 	2.15115098559335 	0.0153163094884022 	0
7 	0.82446108085951 	6.1257422745431e-17 	0.272574596165635 	0.0558026688243717 	2.19234215068789 	0.0161963349817331 	0
7 	0.854927572091144 	6.24500451351651e-17 	0.270778049536208 	0.0568102484733865 	2.23161111581089 	0.0169770442417722 	0
7 	0.886401563564908 	6.24500451351651e-17 	0.268794565190139 	0.0576357400231158 	2.26655564452841 	0.0176297596026046 	0
7 	0.918913157107335 	5.20417042793042e-17 	0.266614479477581 	0.0582476208243908 	2.29497023721762 	0.018132663104187 	0
7 	0.952493175409364 	4.5102810375397e-17 	0.264233018614085 	0.0586180057562381 	2.31483812441284 	0.0184693651392319 	0
7 	0.987173171419818 	4.5102810375397e-17 	0.26165045207331 	0.0587232966367495 	2.32439614706713 	0.0186271687652147 	0
7 	1.02298543775705 	4.5102810375397e-17 	0.258871900360395 	0.0585447197130085 	2.32217351005521 	0.018595757406416 	0
7 	1.05996301617935 	4.5102810375397e-17 	0.25590699332215 	0.0580690538334975 	2.30702958162224 	0.0183671055609729 	0
7 	1.08337286333309 	3.46944695195361e-17 	0.253993525487615 	0.0576434796838451 	2.29178642195048 	0.0181382064080381 	0
7 	1.10279491468902 	2.77555756156289e-17 	0.25238685366727 	0.057186465281496 	2.27430655134225 	0.0178787955274897 	0
7 	1.13764544566304 	2.42861286636753e-17 	0.249478151009761 	0.0562328920060307 	2.23658893193313 	0.0173228562920482 	0
7 	1.17839328092009 	1.90819582357449e-17 	0.246050443567605 	0.0548779775331902 	2.18097711113371 	0.0165142559585262 	0
7 	1.2204386814122 	2.42861286636753e-17 	0.24251141354717 	0.053249777253713 	2.11240123636874 	0.0155337686820043 	0
7 	1.26381809942668 	3.38271077815477e-17 	0.238888364172405 	0.051378780273341 	2.0322989551346 	0.0144113442845279 	0
7 	1.30856880549572 	4.0766001685455e-17 	0.23521058449078 	0.0493058309078203 	1.94272926390379 	0.0131860303642987 	0
7 	1.35472890449142 	4.33680868994202e-17 	0.23150818059073 	0.0470802552602871 	1.84626349809249 	0.0119026574357371 	0
7 	1.40233735289359 	3.81639164714898e-17 	0.227773206011304 	0.0447533983287902 	1.74570043208688 	0.0106077658655313 	0
7 	1.45143397738117 	3.81639164714898e-17 	0.224063618032218 	0.0423897193676407 	1.64438440521296 	0.00935048532501832 	0
7 	1.50205949490893 	3.46944695195361e-17 	0.220422805994612 	0.0400419232403534 	1.54488898479979 	0.00816697620637857 	0
7 	1.55425553444232 	3.12250225675825e-17 	0.216872974927399 	0.0377493984981059 	1.44888184522154 	0.00708131470079487 	0
7 	1.60806466053431 	3.81639164714898e-17 	0.213433276201766 	0.0355379297418422 	1.35715058637791 	0.00610529855996946 	0
7 	1.6509492227427 	4.20670442924376e-17 	0.210844563576679 	0.0338820946277785 	1.28887790003541 	0.00542099707146061 	0
7 	1.67910579322798 	4.20670442924376e-17 	0.209217847164161 	0.0328445337563402 	1.24626347360562 	0.00501303679681863 	0
7 	1.72071188620233 	4.16333634234434e-17 	0.20692685173501 	0.0313857352072119 	1.18668302900446 	0.00446883740092198 	0
7 	1.77963482025102 	4.16333634234434e-17 	0.203874042894698 	0.0294373630463504 	1.10797718431574 	0.00379041092672489 	0
7 	1.84034366966232 	4.33680868994202e-17 	0.200964355084165 	0.0275596774364809 	1.03405182414873 	0.00318905362403389 	0
7 	1.90288607063176 	4.5102810375397e-17 	0.198212138144825 	0.0257349180996674 	0.965761159488495 	0.00264902687736932 	0
7 	1.96731084301856 	3.98986399474666e-17 	0.195610896643847 	0.0239959163046525 	0.906003356885543 	0.00217847219263395 	0
7 	2.02025965173185 	3.46944695195361e-17 	0.193708371238091 	0.0227499941922585 	0.867452601644082 	0.00181676476040134 	0
7 	2.06006301192217 	3.46944695195361e-17 	0.192285337043804 	0.0218204200987479 	0.841994199130989 	0.00160081907747171 	0
7 	2.09845978584128 	4.16333634234434e-17 	0.191068334769137 	0.0209427000214798 	0.820519072603068 	0.00142683149480006 	0
7 	2.13549967996945 	4.85722573273506e-17 	0.189975875910968 	0.0201080318821238 	0.802445411352141 	0.00126446215108081 	0
7 	2.17123064424048 	4.85722573273506e-17 	0.188983823497449 	0.0193135361419208 	0.787470257979993 	0.00111552283352346 	0
7 	2.20569893411515 	4.85722573273506e-17 	0.188084637496004 	0.0185570484407626 	0.775376743938751 	0.000979124858799148 	0
7 	2.23894917046122 	4.85722573273506e-17 	0.187269999916578 	0.0178367949205055 	0.766010004491802 	0.000854411413591487 	0
7 	2.27102439731726 	4.85722573273506e-17 	0.186531638760022 	0.0171512211166382 	0.759262609682056 	0.000740737504511025 	0
7 	2.30196613761521 	4.85722573273506e-17 	0.185862211154336 	0.0164989008326756 	0.755065716528049 	0.000637501421622921 	0
7 	2.33181444693391 	5.55111512312578e-17 	0.185255187246125 	0.0158784950812905 	0.75338404320957 	0.000544108835197477 	0
7 	2.3606079653529 	6.24500451351651e-17 	0.184704701673354 	0.0152887394458217 	0.754213335982536 	0.000459985536334763 	0
7 	2.3883839674739 	6.24500451351651e-17 	0.184205472126098 	0.014728445969217 	0.757579488093681 	0.000384593590214809 	0
7 	2.41517841067461 	6.24500451351651e-17 	0.183752734358192 	0.014196511739555 	0.763538835347968 	0.000317446979772987 	0
7 	2.44102598165722 	6.93889390390723e-17 	0.183342183635503 	0.0136919299538487 	0.772179377852687 	0.000258126160001689 	0
7 	2.46596014135207 	7.63278329429795e-17 	0.182969923646948 	0.0132138012911642 	0.783622810194362 	0.000206290928376639 	0
7 	2.49001316823443 	7.63278329429795e-17 	0.182632422405501 	0.0127613445690465 	0.798027319643678 	0.000161691783488745 	0
7 	2.51321620011054 	6.93889390390723e-17 	0.182326474070943 	0.0123339062540374 	0.815591154776746 	0.000124180373419471 	0
7 	2.535599274427 	6.24500451351651e-17 	0.182049165805143 	0.0119309686607884 	0.836556986571859 	9.37197045695834e-05 	0
7 	2.55719136715571 	6.24500451351651e-17 	0.181797848935664 	0.0115521567327053 	0.861217085841316 	7.03946930503865e-05 	0
7 	2.57802043030465 	6.24500451351651e-17 	0.181570113808183 	0.0111972432233797 	0.889919325660294 	5.4423477140132e-05 	0
7 	2.59811342810315 	6.24500451351651e-17 	0.18136376779742 	0.01086615193265 	0.923073983029209 	4.6169689733843e-05 	0
7 	2.61749637190832 	5.55111512312578e-17 	0.18117681602636 	0.0105589584169636 	0.961161256035613 	4.61556118820859e-05 	0
7 	2.63619435387806 	5.55111512312578e-17 	0.181007444412084 	0.0102758873076274 	1.00473932594315 	5.50757818768881e-05 	0
7 	2.65423157945406 	6.24500451351651e-17 	0.180854004712298 	0.0100173050526386 	1.05445267315497 	7.38102095185758e-05 	0
7 	2.67163139869691 	6.24500451351651e-17 	0.180715001289532 	0.00978370658024884 	1.11104020012338 	0.000103435845129259 	0
7 	2.68841633651388 	5.55111512312578e-17 	0.180589079339863 	0.00957569411778228 	1.1753425279958 	0.000145234405949204 	0
7 	2.7046081218185 	4.85722573273506e-17 	0.180475014350899 	0.00939394626655698 	1.24830763385208 	0.000200694136341082 	0
7 	2.72022771565972 	4.85722573273506e-17 	0.180371702561655 	0.00923917553927156 	1.33099381598336 	0.000271502689886169 	0
7 	2.73529533835694 	4.16333634234434e-17 	0.180278152198964 	0.00911207303318145 	1.42456887189782 	0.000359528236953236 	0
7 	2.74983049567626 	3.81639164714898e-17 	0.180193475267294 	0.00901323985469633 	1.53030442571725 	0.000466786314110592 	0
7 	2.76385200408157 	3.81639164714898e-17 	0.180116879679095 	0.00894310638813373 	1.64956463976439 	0.000595391013512424 	0
7 	2.77737801509344 	3.46944695195361e-17 	0.180047661539499 	0.00890184246020298 	1.78378917313117 	0.000747490937609632 	0
7 	2.79042603878708 	3.12250225675825e-17 	0.179985197448908 	0.0088892636743665 	1.93447125084429 	0.000925192821932251 	0
7 	2.80301296646003 	2.42861286636753e-17 	0.17992893675922 	0.0089047412762088 	2.10313304619339 	0.00113047854837943 	0
7 	2.81515509249873 	2.08166817117217e-17 	0.179878393797501 	0.00894712433257697 	2.29130211912457 	0.00136512394783307 	0
7 	2.82686813547238 	2.08166817117217e-17 	0.179833140146299 	0.00901468323245768 	2.50049416497577 	0.00163062978219333 	0
7 	2.83816725848143 	2.08166817117217e-17 	0.179792797263763 	0.00910508219192987 	2.73220853910739 	0.00192817618211084 	0
7 	2.84906708878692 	2.08166817117217e-17 	0.179757030139762 	0.00921538554796583 	2.98794371054631 	0.00225861151283246 	0
7 	2.85958173674617 	2.42861286636753e-17 	0.179725541591967 	0.0093420985202604 	3.26923987722022 	0.00262248558931238 	0
7 	2.86972481407933 	3.46944695195361e-17 	0.179698060159914 	0.00948123845388202 	3.57775555644286 	0.00302013558689723 	0
7 	2.87950945149043 	4.5102810375397e-17 	0.179674320000099 	0.00962842805979917 	3.91538435725041 	0.00345182901469692 	0
7 	2.88894831566567 	4.85722573273506e-17 	0.179654121810917 	0.00977899852320865 	4.28441785985126 	0.00391821403856936 	0
7 	2.89805362567107 	4.85722573273506e-17 	0.179637670184406 	0.00992808552446184 	4.68778043858321 	0.00443544094422469 	0
7 	2.90683716877067 	4.85722573273506e-17 	0.179624786437568 	0.0100705338689511 	5.13040667018978 	0.00500172243627992 	0
7 	2.9153103156857 	4.85722573273506e-17 	0.179614698068802 	0.0102008065263487 	5.61885593915942 	0.00561618897718476 	0
7 	2.92348403531449 	4.5102810375397e-17 	0.179606745131659 	0.0103120430330147 	6.15844273216188 	0.00627279254583047 	0
7 	2.9313689089323 	4.16333634234434e-17 	0.179600622797183 	0.0103966567408785 	6.7540295158206 	0.00695106267597788 	0
7 	2.93897514388925 	3.46944695195361e-17 	0.179596479999456 	0.0104479635999041 	7.413480642427 	0.00764735282275637 	0
7 	2.94631258682425 	2.42861286636753e-17 	0.179594575785119 	0.0104606030278074 	8.1502577835197 	0.00837129904390986 	0
7 	2.95339073641193 	2.08166817117217e-17 	0.179595122077873 	0.0104301524310638 	8.98558615800587 	0.00914243207470072 	0
7 	2.96021875565916 	2.42861286636753e-17 	0.179598249653056 	0.0103523188093164 	9.95093986241467 	0.00998838304223672 	0
7 	2.96680548376697 	2.42861286636753e-17 	0.179603994679142 	0.0102218934629762 	11.0916330554157 	0.0109443958735192 	0
7 	2.97315944757337 	2.08166817117217e-17 	0.179612274574105 	0.0100314629515741 	12.4724969211458 	0.0120530134675286 	0
7 	2.97928887259171 	2.08166817117217e-17 	0.179622854850182 	0.00976973484302548 	14.1869731386362 	0.0133618664952675 	0
7 	2.98520169365903 	2.08166817117217e-17 	0.1796353198414 	0.00941927368494887 	16.3716246805259 	0.0149156884808311 	0
7 	2.99090556520807 	1.73472347597681e-17 	0.179649062437488 	0.00895348062117449 	19.2296972759221 	0.0167348870360104 	0
7 	2.99640787117633 	1.73472347597681e-17 	0.179663314551507 	0.00833298516060041 	23.0710909202015 	0.0187645442103909 	0
7 	3.00171573456492 	2.08166817117217e-17 	0.179677261669653 	0.00750290161919443 	28.3867009713767 	0.020775419403235 	0
7 	3.00683602665963 	2.77555756156289e-17 	0.17969019908948 	0.00639495181941922 	36.0113053203475 	0.0222104047009656 	0
7 	3.01177537592613 	3.12250225675825e-17 	0.179701242960619 	0.00493893726303438 	47.5558754524523 	0.0212639850551006 	0
7 	3.01654017659085 	3.46944695195361e-17 	0.179709557050589 	0.0031765689548454 	66.7582588972372 	0.0155755858585021 	0
7 	3.02113659691864 	4.5102810375397e-17 	0.179715057463212 	0.00149068123471652 	105.098056361722 	0.00674661165673573 	0
7 	3.02557058719784 	4.16333634234434e-17 	0.17971865076429 	0.000440289081643188 	208.689338579168 	0.00130416619161534 	0
7 	3.02984788744324 	3.46944695195361e-17 	0.179721667462586 	6.50844287020028e-05 	636.80028856146 	8.55726095759445e-05 	0
