# Residuals            
# Time                 	Ux                     	Uy                     	p                      	k                      	omega                  
1                      	9.999999999604049e-01	1.000000000000000e+00	1.000000000000000e+00	9.999999999995494e-01	4.586953493088085e-02
2                      	8.153865867456884e-01	8.931319299296789e-01	9.759448632932962e-01	4.368268896136532e-01	2.419439145599076e-02
3                      	1.830618849467336e-01	1.070270361005095e-01	8.823726552284404e-01	2.045233616808011e-01	9.286423461850254e-04
4                      	1.294895928030816e-01	3.666851690223604e-01	4.985186256953755e-01	9.555776678152109e-02	7.058323976131847e-04
5                      	2.594027914499928e-01	6.216377925491477e-01	8.939836715730316e-01	4.361344359939974e-02	4.576789187707219e-04
6                      	4.376425579752771e-01	2.906854829531187e-01	7.958091015084199e-01	2.750156223348740e-02	3.920238715977533e-04
7                      	4.571735449453966e-01	7.379652960570546e-01	6.769968159448957e-01	1.861590600981150e-02	2.446816891704548e-04
8                      	2.753495184918989e-01	5.131284418257883e-01	9.004630969432522e-01	1.353736027583037e-02	1.637752666941106e-04
9                      	2.928443136054809e-01	1.787622614193626e-01	7.703562796482559e-01	1.191933967138284e-02	1.650354505871731e-04
10                     	2.284783685740734e-01	3.194582017800954e-01	6.721267178803479e-01	1.153488769417778e-02	1.926677715677981e-04
11                     	9.939417972399836e-02	2.805499604745275e-01	8.128135704040319e-01	1.044217773099529e-02	1.814928541658204e-04
12                     	1.037832682070232e-01	1.870305100962665e-01	7.246395579737110e-01	9.508516685072984e-03	9.745474340377085e-05
13                     	2.178676422162111e-01	3.095571272144235e-01	7.738903859708084e-01	9.070314874870720e-03	7.046429004438454e-05
14                     	1.891246477036122e-01	2.416939864203469e-01	8.389406675894916e-01	1.009259365340220e-02	5.052644151422425e-05
15                     	7.605810599054744e-02	1.752922086684629e-01	7.779911129759441e-01	9.460203075035466e-03	4.882505649325239e-05
16                     	1.452965673343031e-01	2.481556680763786e-01	7.500909535303516e-01	9.991622437272522e-03	4.622336551733041e-05
17                     	1.184995084543062e-01	1.751786433722116e-01	7.407423006375645e-01	1.166444652865548e-02	5.333133320928098e-05
18                     	5.068513425232214e-02	1.307256569578907e-01	6.577110535438717e-01	1.114573383612715e-02	4.696222390439393e-05
19                     	5.509325441549758e-02	1.264177187439420e-01	7.359069489808677e-01	1.227876410056259e-02	3.666072109933970e-05
20                     	8.197728003155376e-02	1.091614662610629e-01	7.599378148687899e-01	1.372526101083811e-02	3.032330678880051e-05
21                     	6.532427906560377e-02	1.438353011424196e-01	7.420557709972783e-01	1.492982772821660e-02	4.746995526019328e-05
22                     	3.259906587753626e-02	1.357973282647052e-01	8.045478805957451e-01	1.931628699301787e-02	4.644153602332332e-05
23                     	5.078754778446220e-02	9.763480637832109e-02	7.714242675705434e-01	2.254223757437224e-02	3.021734293029255e-05
24                     	5.279677046165123e-02	1.009644337555715e-01	6.868158452835267e-01	2.525276410684259e-02	2.793546273278955e-05
25                     	3.225741298878628e-02	7.790996797563687e-02	6.979535952304567e-01	2.590930128860531e-02	3.917491062028994e-05
26                     	2.300152904647970e-02	6.112521096046458e-02	6.786554370395649e-01	3.133787782095479e-02	3.786378192279016e-05
27                     	3.186558226328137e-02	7.824264970776106e-02	6.839691641873421e-01	3.558364658507025e-02	2.503625999891671e-05
28                     	2.919987223981894e-02	7.921037331556238e-02	7.369586262621354e-01	4.398912275701465e-02	4.770072945669118e-05
29                     	1.879087712925582e-02	5.966600071770846e-02	7.426952069750576e-01	5.019447758445515e-02	5.023590814135904e-05
30                     	2.357455829419598e-02	5.479861437616515e-02	6.891526957458783e-01	5.676105344833390e-02	2.695371925641110e-05
31                     	2.668059358421508e-02	5.101724074469426e-02	6.422566271544012e-01	6.171807936885509e-02	2.241606806033787e-05
32                     	1.982916352093207e-02	4.476088078535315e-02	6.038714227860463e-01	6.829830077220604e-02	2.104586389543178e-05
33                     	1.404173868990598e-02	4.443320906736879e-02	5.907574109568090e-01	7.635966090569352e-02	2.065111302523877e-05
34                     	1.706983648232569e-02	4.684904752581936e-02	6.176418859495925e-01	7.741192558245726e-02	1.983456437702945e-05
35                     	1.746440111086939e-02	4.330540907466819e-02	6.441226141732118e-01	8.227627543256336e-02	2.396583655676915e-05
36                     	1.389995333453037e-02	3.557408468676676e-02	6.279068519183488e-01	8.206509592827323e-02	2.435812428449047e-05
37                     	1.404685359129762e-02	3.370806068055875e-02	5.867065572490771e-01	7.852767358927386e-02	2.025062394687954e-05
38                     	1.535279593412244e-02	3.502185561023099e-02	5.453788814592316e-01	8.137146680227716e-02	1.983428097554179e-05
39                     	1.334778809810055e-02	3.294428354759488e-02	5.458394291872123e-01	7.894160866441760e-02	1.951174601854165e-05
40                     	1.086436091011816e-02	3.052402686683338e-02	5.366050179203953e-01	7.811689200348124e-02	1.900447863897730e-05
41                     	1.182651672869540e-02	3.059386586061751e-02	5.166926353251282e-01	7.835867253725828e-02	1.872158029315794e-05
42                     	1.189574642584213e-02	2.912304383712349e-02	5.173146710922205e-01	7.705576421127636e-02	2.209606875729089e-05
43                     	1.021772378583276e-02	2.744787511852694e-02	5.220500606655628e-01	7.866495140534076e-02	2.261697247075270e-05
44                     	9.888765875886371e-03	2.706045119046642e-02	5.080832044021388e-01	7.911532024404361e-02	1.929576924238555e-05
45                     	1.044471503023997e-02	2.662868875704911e-02	4.747338620939237e-01	7.461727132647503e-02	1.891022187106385e-05
46                     	9.873431591906611e-03	2.511473798429159e-02	4.475949518203817e-01	7.305294966820919e-02	2.327646774051891e-05
47                     	8.931112162556718e-03	2.352782347446300e-02	4.364117804396684e-01	7.234059287558744e-02	2.385475519536721e-05
48                     	9.076464884885293e-03	2.362040378237047e-02	4.301944143633765e-01	7.061652279003035e-02	2.002820509238751e-05
49                     	9.014116605242956e-03	2.361679663985310e-02	4.276582597422496e-01	6.863378884750428e-02	2.504856076138001e-05
50                     	8.484488792335968e-03	2.265846539313503e-02	4.198000809204451e-01	6.743746208953469e-02	2.738743490141668e-05
51                     	8.586029536165043e-03	2.136015062512790e-02	4.060870351870590e-01	6.752055307157820e-02	2.309596383418561e-05
52                     	8.819699908110058e-03	2.023389852445807e-02	3.911682304140652e-01	6.535107099132045e-02	2.188421882441468e-05
53                     	8.624405487343416e-03	1.930207680136769e-02	3.817747450476748e-01	6.108240088687245e-02	2.268460245234049e-05
54                     	8.261278230504971e-03	1.890292425961790e-02	3.777028308558472e-01	5.909646857948909e-02	2.323391621292034e-05
55                     	8.225180374987049e-03	1.899859225280088e-02	3.737561637231983e-01	5.751162825869075e-02	2.329655819991674e-05
56                     	8.266247185781140e-03	1.874124707254871e-02	3.640523526370757e-01	5.542292023541167e-02	2.909336969404450e-05
57                     	8.203862642607029e-03	1.809960682384438e-02	3.511535956248774e-01	5.320430948662679e-02	2.742564929826337e-05
58                     	8.254390066619693e-03	1.781352606315246e-02	3.411227232741603e-01	5.099584240221545e-02	2.659719605658082e-05
59                     	8.306956080777058e-03	1.798828572318749e-02	3.315608231078676e-01	4.879429178791960e-02	2.756282190768860e-05
60                     	8.284304737805630e-03	1.845148380520542e-02	3.254870903623178e-01	4.679776486503560e-02	2.679012994639971e-05
61                     	8.257824119544165e-03	1.874402005236875e-02	3.278103648078913e-01	4.482964309092766e-02	2.940642770290438e-05
62                     	8.274618736012162e-03	1.893191228089275e-02	3.272025447765755e-01	4.355710820787651e-02	3.215138775209819e-05
63                     	8.332747605545920e-03	1.918051769093421e-02	3.219006357115252e-01	4.201001330804931e-02	3.583400645495537e-05
64                     	8.404159114695980e-03	1.940438464350652e-02	3.154896758952628e-01	4.057841834298202e-02	3.431360501170555e-05
65                     	8.361796675026293e-03	1.953013733092868e-02	3.185815719775787e-01	3.984052606915933e-02	3.402918832892038e-05
66                     	8.398857776144653e-03	1.937008113891894e-02	3.087486073436456e-01	3.998609309038007e-02	3.216538733189636e-05
67                     	8.438411588976168e-03	1.914618337964117e-02	2.992968451627878e-01	3.992250242049981e-02	3.166496003048125e-05
68                     	8.458081553355716e-03	1.904597271053778e-02	2.942168915808882e-01	4.012127067658858e-02	3.170864709558003e-05
69                     	8.474714064430615e-03	1.900947693758990e-02	2.966282381325979e-01	4.012115881624990e-02	3.321498911215848e-05
70                     	8.525742037472904e-03	1.902154565011727e-02	2.922700462189066e-01	3.991856626678652e-02	3.339022753118513e-05
71                     	8.568947563577043e-03	1.914113518148976e-02	2.887917543528067e-01	3.980387064069126e-02	3.409970908018744e-05
72                     	8.609049091550308e-03	1.941922570970041e-02	2.925571683375666e-01	3.970221990723476e-02	3.413178093503239e-05
73                     	8.676983019331435e-03	1.973363034589436e-02	2.948580144510741e-01	4.004924143891796e-02	3.487667817505348e-05
74                     	8.891055439018759e-03	2.013477875922040e-02	3.025919628652010e-01	3.995010088450287e-02	3.585764495174916e-05
75                     	9.089939518903479e-03	2.064717978533977e-02	3.018876960608152e-01	4.094332807617913e-02	3.714402138074166e-05
76                     	9.190136612795436e-03	2.129409916499755e-02	3.018946142050428e-01	4.137909947821555e-02	3.819731509514898e-05
77                     	9.263122293835078e-03	2.183256895808887e-02	3.137736152976393e-01	4.212265320964783e-02	4.004983322185582e-05
78                     	9.352948971076341e-03	2.230577453250033e-02	3.005841998780740e-01	4.396218552994739e-02	4.137662020765066e-05
79                     	9.513252898723214e-03	2.258988761013093e-02	3.052499662935167e-01	4.279839173834754e-02	4.237901938650885e-05
80                     	9.489348010729412e-03	2.290460295657817e-02	3.078252520531396e-01	4.352049636058804e-02	4.372246291030986e-05
81                     	9.369200857222553e-03	2.330525014926648e-02	2.915308134740965e-01	4.159720778513427e-02	4.368853003123277e-05
82                     	9.273108066541233e-03	2.341060512680800e-02	2.854927425351435e-01	3.995830873234647e-02	4.401599395871562e-05
83                     	9.324633604424884e-03	2.309155787087414e-02	3.028544541915882e-01	3.866915247121190e-02	4.502519537869935e-05
84                     	9.357067641996572e-03	2.257756872329505e-02	3.047667327132659e-01	3.715861534648010e-02	4.517958888068891e-05
85                     	9.268390964751537e-03	2.216178027746539e-02	3.008114677531717e-01	3.625036236634462e-02	4.610982300340560e-05
86                     	9.103319492113630e-03	2.184526045924327e-02	2.794808412523401e-01	3.564900572863212e-02	4.619339369283434e-05
87                     	9.016495594559335e-03	2.130781273117718e-02	2.685871220167389e-01	3.599346683323448e-02	4.701440118760633e-05
88                     	8.953051137119148e-03	2.066421803718547e-02	2.785110897937741e-01	3.614868993412298e-02	4.749004654527461e-05
89                     	8.933035636839885e-03	2.008954527131982e-02	2.786642891351606e-01	3.624592482000592e-02	4.723656004503138e-05
90                     	8.930485501711952e-03	1.944260463234539e-02	2.663722668945093e-01	3.655469774266238e-02	4.799284477020316e-05
91                     	8.952044869284682e-03	1.881200413884403e-02	2.509016301037661e-01	3.716506163954560e-02	5.380353724053807e-05
92                     	9.018536382059721e-03	1.842494759284489e-02	2.401030577814121e-01	3.763944025827652e-02	5.088470885076008e-05
93                     	9.021459280317945e-03	1.809800729793569e-02	2.396318280437296e-01	3.804085795534042e-02	4.853931005010773e-05
94                     	9.030773713066887e-03	1.784025185721144e-02	2.343265242655664e-01	3.823327217788975e-02	4.592333161462757e-05
95                     	9.078188628264821e-03	1.765215663231673e-02	2.273597738718578e-01	3.817764417376444e-02	4.620078987939639e-05
96                     	9.131490944089478e-03	1.767720120003276e-02	2.214434652467930e-01	3.770997458245797e-02	4.695882254461564e-05
97                     	9.115099589288670e-03	1.777430721680992e-02	2.337137707393388e-01	3.702372800934156e-02	4.753622137182892e-05
98                     	9.113826244142304e-03	1.786768604470543e-02	2.323397006398591e-01	3.614234242838736e-02	5.062630462634489e-05
99                     	9.135258219239698e-03	1.816791109933955e-02	2.328420098857249e-01	3.509312455719258e-02	4.897089574273399e-05
100                    	9.121696583547275e-03	1.824587703589539e-02	2.420768602784945e-01	3.378874310012260e-02	4.669181324681419e-05
101                    	9.068837663400445e-03	1.807699533943456e-02	2.414188212486482e-01	3.231112202073084e-02	4.508784924700969e-05
102                    	8.960442371782970e-03	1.785462501789752e-02	2.337647584939263e-01	3.103069489341320e-02	4.465214228849310e-05
103                    	8.798313795014842e-03	1.756130421958551e-02	2.242341060095155e-01	2.976990981173276e-02	4.410515805525985e-05
104                    	8.645706278183360e-03	1.709716873254981e-02	2.262691477787215e-01	2.839800820970340e-02	4.396640513683110e-05
105                    	8.507248761409753e-03	1.669672803721698e-02	2.258907229066691e-01	2.739292139180298e-02	4.383486917002821e-05
106                    	8.332212181126751e-03	1.669163373572281e-02	2.147385042034154e-01	2.650779754598221e-02	4.326712888360011e-05
107                    	8.120232934183945e-03	1.695059698836297e-02	2.056311257850968e-01	2.568591635565555e-02	4.261058159119831e-05
108                    	7.893701310193279e-03	1.714546695118452e-02	1.974970263331218e-01	2.501965090148619e-02	4.229879916244892e-05
109                    	7.787147987758195e-03	1.717497045873118e-02	2.020134035950303e-01	2.444334807211704e-02	4.233658790760890e-05
110                    	7.760809325053693e-03	1.715571502498668e-02	2.070128985957451e-01	2.382645351770971e-02	4.224167261866948e-05
111                    	7.707979245549031e-03	1.729551955600708e-02	1.994976369638391e-01	2.316283616027848e-02	4.246519476874555e-05
112                    	7.592642777763086e-03	1.741657753549019e-02	1.884495508886075e-01	2.252922242309196e-02	4.296038319284245e-05
113                    	7.456695178482712e-03	1.742224708604997e-02	1.755127878314648e-01	2.188937621464583e-02	4.240890143002111e-05
114                    	7.373032647166464e-03	1.731835603123529e-02	1.741506854194076e-01	2.121566223557832e-02	4.325172494317995e-05
115                    	7.345821259202278e-03	1.718419478942885e-02	1.759570666154686e-01	2.060108218592655e-02	4.344779953739408e-05
116                    	7.343688684809308e-03	1.700386567393625e-02	1.746225658494669e-01	2.008715747675388e-02	4.352119326950746e-05
117                    	7.321590707128300e-03	1.680325520452858e-02	1.681596465797743e-01	1.965612244304266e-02	4.575147898392708e-05
118                    	7.278949718495113e-03	1.672284216642748e-02	1.619569445347291e-01	1.926889225725233e-02	4.457970265765629e-05
119                    	7.205570978734665e-03	1.668153629132093e-02	1.594337526127610e-01	1.892607166595056e-02	4.386729935017582e-05
120                    	7.123269358677697e-03	1.658345220927506e-02	1.573789055005285e-01	1.853652249604561e-02	4.247761109577571e-05
121                    	7.043634105031086e-03	1.642012994726262e-02	1.583817253891331e-01	1.815582342866878e-02	4.250812552883694e-05
122                    	6.990562606806602e-03	1.625228203703570e-02	1.610977356534512e-01	1.777475688855540e-02	4.260152165003748e-05
123                    	6.944561077444360e-03	1.610750665536102e-02	1.638695045757746e-01	1.733434177866900e-02	4.243248197371725e-05
124                    	6.895761769056753e-03	1.595965659571528e-02	1.645609213501686e-01	1.681023717862730e-02	4.232403104801772e-05
125                    	6.825525073993710e-03	1.596917737105683e-02	1.673423409701496e-01	1.626470062306638e-02	4.184249143647125e-05
126                    	6.754822162325928e-03	1.588822692636655e-02	1.683174471615197e-01	1.576912203846155e-02	4.166192330407567e-05
127                    	6.718471425061731e-03	1.579161310553368e-02	1.667677336950622e-01	1.526125214613929e-02	4.234624199857045e-05
128                    	6.714885465862920e-03	1.563966662716164e-02	1.687202622800645e-01	1.489655438275223e-02	4.275279982765795e-05
129                    	6.700406870098134e-03	1.546399106388680e-02	1.730046166642708e-01	1.463246746880668e-02	4.320143802703226e-05
130                    	6.689925404302043e-03	1.530040275864322e-02	1.744989269135942e-01	1.436178518390093e-02	4.359670274196330e-05
131                    	6.711601701582400e-03	1.514652985456384e-02	1.737944990064097e-01	1.424336214360669e-02	4.401493666967598e-05
132                    	6.762431728485957e-03	1.505405585525503e-02	1.690619822222099e-01	1.418648393140489e-02	4.729882032056540e-05
133                    	6.823232748623767e-03	1.497830725036446e-02	1.610702132226081e-01	1.413724685399482e-02	4.502035712277426e-05
134                    	6.882158517305755e-03	1.500811700815382e-02	1.568995575528671e-01	1.421083066802794e-02	4.410577248256462e-05
135                    	6.925240860610765e-03	1.521774200310818e-02	1.562249419745714e-01	1.437173774215611e-02	4.388060729966068e-05
136                    	6.965376375314715e-03	1.557445820885323e-02	1.537401879148397e-01	1.455850604104566e-02	4.350796979237083e-05
137                    	7.027022773037259e-03	1.600166762057642e-02	1.530460595785627e-01	1.482353986597959e-02	4.399952516957908e-05
138                    	7.088715601016399e-03	1.653105048709319e-02	1.539418015860099e-01	1.508962119254183e-02	4.451821092995284e-05
139                    	7.166624338883416e-03	1.715234432149955e-02	1.569430918328943e-01	1.537476165263218e-02	4.496608338050209e-05
140                    	7.259976052303805e-03	1.770388926762780e-02	1.623780363902639e-01	1.563957495006597e-02	4.559655168914732e-05
141                    	7.364558496410285e-03	1.822343286842180e-02	1.674338127638219e-01	1.586102683116043e-02	4.615680258473900e-05
142                    	7.476012993226714e-03	1.876946851146693e-02	1.698726299427977e-01	1.605444500578351e-02	4.664330035794086e-05
143                    	7.584966459481507e-03	1.921866385365226e-02	1.722312723132829e-01	1.617861564884597e-02	4.732774930672728e-05
144                    	7.685682740580949e-03	1.966346797871866e-02	1.795801266664064e-01	1.624674709318265e-02	4.788577008719429e-05
145                    	7.759790237116211e-03	2.002244066048157e-02	1.853631314650958e-01	1.619822485851711e-02	4.863179101157346e-05
146                    	7.814208126544198e-03	2.034482716486213e-02	1.865800814028956e-01	1.598341975303042e-02	5.115654918466206e-05
147                    	7.841048205229151e-03	2.057297364146949e-02	1.905570083394656e-01	1.571510760116291e-02	5.106279609993984e-05
148                    	7.849392361575639e-03	2.072729760882058e-02	1.973203304702446e-01	1.538373695465089e-02	5.073427234817629e-05
149                    	7.863307834294835e-03	2.086521514081423e-02	2.003440139893984e-01	1.498596190808237e-02	5.075123344144865e-05
150                    	7.861281531382380e-03	2.085814239157577e-02	2.070838840908825e-01	1.454364829138323e-02	5.079565448803237e-05
151                    	7.803479180895242e-03	2.090234521377430e-02	2.090864024315686e-01	1.407577903206112e-02	5.073226246245802e-05
152                    	7.709147821073496e-03	2.088440653301039e-02	2.043263731840843e-01	1.362386226370967e-02	5.065153298583391e-05
153                    	7.622131543391023e-03	2.079591222440742e-02	2.015040036262928e-01	1.320038643948734e-02	5.009365047095991e-05
154                    	7.575762521091723e-03	2.058326817809560e-02	2.121421429752441e-01	1.278212465754783e-02	5.078516516138442e-05
155                    	7.548967105634817e-03	2.030782689940621e-02	2.222425112359813e-01	1.242085834177370e-02	5.008165131082011e-05
156                    	7.498072502160140e-03	2.002630848251616e-02	2.160026001107254e-01	1.213396329619937e-02	4.973746683235811e-05
157                    	7.409168726828754e-03	1.981522047799174e-02	2.059043213587737e-01	1.186605287659193e-02	5.152513925937608e-05
158                    	7.291351102039605e-03	1.962865824486103e-02	1.912148501520291e-01	1.166711287103093e-02	4.919611672683169e-05
159                    	7.215532799643709e-03	1.939226216953886e-02	1.968777997266861e-01	1.151577402899279e-02	4.892579712700160e-05
160                    	7.203152345065173e-03	1.923796473589469e-02	2.069233884840527e-01	1.143308490732292e-02	4.655221365745196e-05
161                    	7.184903674024209e-03	1.920120167705165e-02	1.984079407221923e-01	1.143639407530126e-02	4.670599662976005e-05
162                    	7.127313807532181e-03	1.925490917055305e-02	1.840523406146303e-01	1.146189064236199e-02	4.600546826678566e-05
163                    	7.039342669748102e-03	1.934791720839665e-02	1.677974713587849e-01	1.149359896555208e-02	4.533823257351253e-05
164                    	6.981914302308879e-03	1.945298792828073e-02	1.731497253080397e-01	1.158226619743784e-02	4.543141492673235e-05
165                    	6.995629330224707e-03	1.954744079744858e-02	1.884393865415962e-01	1.166665431845944e-02	4.514164179163955e-05
166                    	7.012998222365642e-03	1.959881969549381e-02	1.839146312108511e-01	1.174677281433668e-02	4.476064240064837e-05
167                    	7.005079416452226e-03	1.967709919698747e-02	1.725179758227091e-01	1.181110942687575e-02	4.396323104701622e-05
168                    	6.944172497318720e-03	1.977095185540879e-02	1.611613193086116e-01	1.187654164089243e-02	4.382279997328995e-05
169                    	6.894363450390074e-03	1.983248983572742e-02	1.631001815291788e-01	1.191983161600490e-02	4.336260065890242e-05
170                    	6.899458939288545e-03	1.985026008291868e-02	1.776410160811968e-01	1.193749616967797e-02	4.328039561968844e-05
171                    	6.926889133469200e-03	1.990346230160958e-02	1.790705457160235e-01	1.189608092444766e-02	4.352015522080024e-05
172                    	6.909332389086299e-03	1.995897625677331e-02	1.718686592794179e-01	1.183962702349000e-02	4.294235450848200e-05
173                    	6.847986927729332e-03	1.996088401031906e-02	1.661092169444543e-01	1.175034858319106e-02	4.278146789563663e-05
174                    	6.786223075489488e-03	1.996344623953825e-02	1.655090254178262e-01	1.163249057657179e-02	4.260223620728149e-05
175                    	6.762206248140567e-03	1.993440019472540e-02	1.772974171836952e-01	1.144784658816786e-02	4.223075047808940e-05
176                    	6.775590726134075e-03	1.985326871957991e-02	1.805862685589606e-01	1.126365492378609e-02	4.207221236159635e-05
177                    	6.744582870381887e-03	1.979238019005737e-02	1.743086499119259e-01	1.105063281256327e-02	4.166707469844667e-05
178                    	6.662128882664335e-03	1.971921124970110e-02	1.685352964027837e-01	1.084778158323162e-02	4.168137862030223e-05
179                    	6.565587529817171e-03	1.958138255314771e-02	1.667378097220552e-01	1.064593164143822e-02	4.139704082530168e-05
180                    	6.508081317349704e-03	1.941694465447134e-02	1.786728263097875e-01	1.045767116453799e-02	4.135583042160788e-05
181                    	6.494888612631245e-03	1.921776271095126e-02	1.805286065470283e-01	1.028021899082141e-02	4.123590608777067e-05
182                    	6.459391766667203e-03	1.899938532728064e-02	1.734774252361386e-01	1.011701324022586e-02	4.113097993788029e-05
183                    	6.378135513285556e-03	1.878005973246843e-02	1.677405744953419e-01	9.964188585215214e-03	4.178690248551535e-05
184                    	6.300463250983769e-03	1.854494646794937e-02	1.657630632000846e-01	9.811514954579575e-03	4.301246957592462e-05
185                    	6.259836497915294e-03	1.830906824668737e-02	1.754315088428641e-01	9.647101495224773e-03	4.105263672113741e-05
186                    	6.265834619164828e-03	1.802722852782235e-02	1.763745952995449e-01	9.509319177838250e-03	4.150031902527690e-05
187                    	6.259424511723305e-03	1.770830427839839e-02	1.669607111102823e-01	9.362853714170982e-03	3.973674785849352e-05
188                    	6.218356382253336e-03	1.748248974184241e-02	1.607630882231848e-01	9.242690671997403e-03	3.911997140443137e-05
189                    	6.177146235127767e-03	1.726877887913545e-02	1.577134933414430e-01	9.110066250220844e-03	3.896257061263688e-05
190                    	6.175041551775105e-03	1.710398712917725e-02	1.648972003678359e-01	8.982156019467107e-03	3.904372220385331e-05
191                    	6.219821507696652e-03	1.696849898606002e-02	1.679640711906015e-01	8.878262451579440e-03	3.885164601009184e-05
192                    	6.260291953993895e-03	1.688493711961098e-02	1.564709515504424e-01	8.797674318293217e-03	3.869276638269177e-05
193                    	6.259574361082425e-03	1.687727908230569e-02	1.482696649439061e-01	8.747686276195593e-03	3.877637930770396e-05
194                    	6.243508738195820e-03	1.693607065684248e-02	1.436434715142904e-01	8.715671683047601e-03	3.825326842445434e-05
195                    	6.254233632152792e-03	1.704373298445908e-02	1.492734636715717e-01	8.714512414060812e-03	3.843625232221718e-05
196                    	6.311137737044120e-03	1.718750871075465e-02	1.537422532015055e-01	8.709657076182068e-03	3.793587973352250e-05
197                    	6.366494798056301e-03	1.733215056679372e-02	1.486723361705700e-01	8.753266040152349e-03	3.787269958024080e-05
198                    	6.384808667080234e-03	1.749792780787738e-02	1.427326826019691e-01	8.777580570563137e-03	3.790840360634795e-05
199                    	6.371560823483365e-03	1.770637677465483e-02	1.386449693811187e-01	8.819821433605593e-03	3.793052028053910e-05
200                    	6.369907754329667e-03	1.795704363464262e-02	1.455870249930286e-01	8.852267925182834e-03	3.809779674799324e-05
201                    	6.410847570842997e-03	1.819159793439788e-02	1.538094598160631e-01	8.885588829256615e-03	3.793708909276104e-05
202                    	6.466989004588366e-03	1.838525502860454e-02	1.541620824002644e-01	8.910440840827340e-03	3.783196065940722e-05
203                    	6.487770676989649e-03	1.861514602793569e-02	1.482009710046616e-01	8.916115721599600e-03	3.780590358105340e-05
204                    	6.462128158715986e-03	1.884286526560136e-02	1.466709717081993e-01	8.910060719914979e-03	3.771314233561069e-05
205                    	6.426141414336508e-03	1.904229450225139e-02	1.494356454351426e-01	8.916648566077441e-03	3.764361319076705e-05
206                    	6.436297024880766e-03	1.924673736687503e-02	1.577612176413430e-01	8.930717243436840e-03	3.760694353999485e-05
207                    	6.479157759677708e-03	1.939092250271576e-02	1.632632150771091e-01	8.932143193350263e-03	3.743059389734280e-05
208                    	6.513048120281214e-03	1.949995322864789e-02	1.587155270131150e-01	8.926390691005407e-03	3.733258422881812e-05
209                    	6.500192898115427e-03	1.962936457942714e-02	1.551987134811327e-01	8.918702948441496e-03	3.736251193836517e-05
210                    	6.453790347094778e-03	1.973409380605452e-02	1.557540432926751e-01	8.925486233677397e-03	3.737445388450467e-05
211                    	6.425833620155198e-03	1.984326010305292e-02	1.630507332498023e-01	8.929190779044990e-03	3.754797409610012e-05
212                    	6.436299361235232e-03	1.992284587573050e-02	1.678184269672989e-01	8.925589820605677e-03	3.756191465164251e-05
213                    	6.459653790182412e-03	1.992801795175853e-02	1.673758894591519e-01	8.907547048220383e-03	3.755575738097166e-05
214                    	6.442481505550737e-03	1.993105572448058e-02	1.633582430536346e-01	8.881167595785968e-03	3.733524299388126e-05
215                    	6.382861665043088e-03	1.991488914642171e-02	1.605338987269712e-01	8.866520372069716e-03	3.727150765559634e-05
216                    	6.323846442875256e-03	1.986812039981372e-02	1.657589344558357e-01	8.838034459892547e-03	3.733702348440854e-05
217                    	6.300923272212397e-03	1.978220984737741e-02	1.690954591418168e-01	8.803707043604154e-03	3.720184874591568e-05
218                    	6.307806452661400e-03	1.963334521696188e-02	1.706393569205922e-01	8.759931947894855e-03	3.703522300872513e-05
219                    	6.305976197732216e-03	1.946757511751241e-02	1.658887578507813e-01	8.709823545286047e-03	3.680957013813530e-05
220                    	6.265312835507448e-03	1.930734519855794e-02	1.613183058714184e-01	8.673232036933300e-03	3.666658158519992e-05
221                    	6.211748226816779e-03	1.911255772886838e-02	1.613491945978641e-01	8.615367513073201e-03	3.650360605134577e-05
222                    	6.172203503099084e-03	1.894763066508124e-02	1.636184362502566e-01	8.543352592301805e-03	3.636370606579005e-05