5 	0.451278172511378 	6.93889390390723e-18 	0.126172508538901 	8.50313808958225e-06 	2250.33118265763 	1.37595544176248e-07 	8.38171162630039e-39
5 	0.457678879734935 	1.04083408558608e-17 	0.126378743040669 	0.000162440685522144 	455.315474777893 	4.02723600513751e-06 	0
5 	0.464311922901196 	2.42861286636753e-17 	0.126582046659333 	0.00101682350031891 	134.850871073532 	2.20631971193751e-05 	0
5 	0.47118565769565 	3.46944695195361e-17 	0.126756121925852 	0.00318767276581411 	57.9440247434011 	2.76648681337067e-05 	0
5 	0.478308734771284 	3.81639164714898e-17 	0.126879759468059 	0.00623874430223425 	30.5906951884983 	9.23395546119227e-05 	0
5 	0.485690109776152 	3.46944695195361e-17 	0.126930039469214 	0.009187512711488 	18.9652155451415 	0.000298251620016011 	0
5 	0.493339053695877 	2.77555756156289e-17 	0.126904844253208 	0.011696904459976 	13.2762566704467 	0.000569396359926459 	0
5 	0.501265163519363 	2.77555756156289e-17 	0.126818521851117 	0.013814121346171 	10.1017453610584 	0.000866789453026126 	0
5 	0.509478373236078 	3.12250225675825e-17 	0.126685139565149 	0.0156411807195514 	8.13261578666733 	0.00118388652603688 	0
5 	0.517988965173339 	3.12250225675825e-17 	0.126513600193921 	0.0172572788494213 	6.81115018107252 	0.00151958503025485 	0
5 	0.526807581682222 	2.77555756156289e-17 	0.126309730589156 	0.0187166430154834 	5.8715248644619 	0.00187305726615586 	0
5 	0.535945237180767 	2.08166817117217e-17 	0.126078071586785 	0.0200561808233456 	5.17401987216137 	0.00224300068236653 	0
5 	0.54541333056328 	1.04083408558608e-17 	0.125822478088665 	0.0213011208241074 	4.63908842693527 	0.00262768228959563 	0
5 	0.555223657984643 	1.04083408558608e-17 	0.125546314525029 	0.0224693053357447 	4.21843436776331 	0.00302514942286794 	0
5 	0.565388426028621 	1.38777878078145e-17 	0.125252547620813 	0.0235737748490043 	3.88117375871171 	0.00343329195427948 	0
5 	0.57592026526929 	1.04083408558608e-17 	0.124943832977197 	0.0246247271758847 	3.60670602371744 	0.00384988955560353 	0
5 	0.586832244234754 	3.46944695195361e-18 	0.124622610987716 	0.0256298427123215 	3.38080258080413 	0.00427253297339954 	0
5 	0.598137883782479 	3.46944695195361e-18 	0.124291151498186 	0.0265949213478358 	3.19334576376139 	0.00469860940752983 	0
5 	0.609851171895618 	3.46944695195361e-18 	0.123951560259917 	0.0275243154913834 	3.03696537784145 	0.00512527292671385 	0
5 	0.621986578909806 	-3.46944695195361e-18 	0.123605806972593 	0.0284212431516363 	2.9061850189837 	0.00554942279087938 	0
5 	0.634559073180018 	-1.04083408558608e-17 	0.123255662918766 	0.0292880245716849 	2.79687026304587 	0.00596775903074487 	0
5 	0.647584137197174 	-1.73472347597681e-17 	0.122902122082494 	0.0301262633021865 	2.70586210164863 	0.00637704625951886 	0
5 	0.661077784164252 	-2.08166817117217e-17 	0.122544926361891 	0.0309369985725587 	2.63072638911225 	0.0067752356998397 	0
5 	0.675056575041836 	-2.42861286636753e-17 	0.122187596081476 	0.031720952604006 	2.56956586208724 	0.00717118890248476 	0
5 	0.689537636073089 	-2.42861286636753e-17 	0.121851134118215 	0.0324796668462474 	2.52079884378688 	0.00758424501512909 	0
5 	0.704538676798298 	-1.73472347597681e-17 	0.121579619340899 	0.0332175806978707 	2.48291541349251 	0.0080698940337086 	0
5 	0.720078008569271 	-1.73472347597681e-17 	0.121386657392916 	0.0339437874471968 	2.45427760347955 	0.00857902013686206 	0
5 	0.736174563574012 	-1.73472347597681e-17 	0.121217247312213 	0.0346624755864796 	2.43364870375979 	0.00918420275730626 	0
5 	0.752847914382304 	-1.38777878078145e-17 	0.121014000243875 	0.0353646573280386 	2.42018789896493 	0.00983425941477595 	0
5 	0.770118294023005 	-1.38777878078145e-17 	0.120756627676455 	0.0360340122481932 	2.41289796478208 	0.0104788363597334 	0
5 	0.788006616604099 	-1.38777878078145e-17 	0.120439203995425 	0.036651325664321 	2.41046148232692 	0.0110793240865754 	0
5 	0.806534498486793 	-1.04083408558608e-17 	0.120056932702758 	0.0371976032019111 	2.41130691298374 	0.0116089489141312 	0
5 	0.825724280025286 	-1.04083408558608e-17 	0.119604909489355 	0.0376563234413345 	2.41375843396417 	0.0120528474975722 	0
5 	0.845599047884131 	-1.73472347597681e-17 	0.119078465838098 	0.0380146573477662 	2.41618589470193 	0.0124054039105811 	0
5 	0.866182657945529 	-1.73472347597681e-17 	0.118473070537905 	0.0382637444988215 	2.41710686988141 	0.012666630360668 	0
5 	0.8809913147193 	-1.38777878078145e-17 	0.118003723445117 	0.0383753602334055 	2.4162980166187 	0.0128003189354852 	0
5 	0.891837376479152 	-1.38777878078145e-17 	0.117638635449872 	0.0384143942351979 	2.41454138087002 	0.0128652203223131 	0
5 	0.909579492238144 	-1.38777878078145e-17 	0.117010038682538 	0.0384189161419394 	2.40955814911662 	0.0129269013311579 	0
5 	0.932444095076708 	-1.38777878078145e-17 	0.116144512253787 	0.0383225209642202 	2.39906250240692 	0.0129299895227023 	0
5 	0.956121046287054 	-2.08166817117217e-17 	0.115184902292218 	0.0381111194828705 	2.3829262971957 	0.012848947736047 	0
5 	0.980638399237015 	-2.08166817117217e-17 	0.114129122529642 	0.0377877696758808 	2.36043446694737 	0.0126835917411121 	0
5 	1.00602512630618 	-1.38777878078145e-17 	0.112976208619981 	0.0373566055714397 	2.33097903266208 	0.0124337618947675 	0
5 	1.03231114630967 	-1.73472347597681e-17 	0.111726525834299 	0.0368227240825972 	2.29407856607071 	0.0121002207955826 	0
5 	1.05952735263868 	-1.38777878078145e-17 	0.110381969720592 	0.0361922043743547 	2.24941598596316 	0.0116854824320686 	0
5 	1.08770564213827 	-8.67361737988404e-18 	0.108946137387145 	0.0354722319017952 	2.1968870632162 	0.011194435550971 	0
5 	1.11687894474419 	-1.21430643318376e-17 	0.107424436830127 	0.0346712889647788 	2.1366488318724 	0.0106346905765121 	0
5 	1.14708125390257 	-1.56125112837913e-17 	0.105824104670899 	0.0337993583565028 	2.06915589365645 	0.0100166365340482 	0
5 	1.17834765779779 	-1.21430643318376e-17 	0.104154117022619 	0.0328680689322045 	1.99517360088209 	0.00935322169482336 	0
5 	1.21071437141629 	-8.67361737988404e-18 	0.102424996283935 	0.0318906989174544 	1.91576020302678 	0.00865946908563456 	0
5 	1.24421876947604 	-1.64798730217797e-17 	0.100648531387788 	0.0308819550173167 	1.83221488775599 	0.0079517301844287 	0
5 	1.27889942025434 	-1.64798730217797e-17 	0.0988374376867071 	0.0298574723878381 	1.74599461354245 	0.0072466970414875 	0
5 	1.31479612034915 	-7.80625564189563e-18 	0.0970049853824144 	0.0288330348651198 	1.65860877700372 	0.00656024589335414 	0
5 	1.35194993041236 	-6.50521303491303e-18 	0.0951646222449469 	0.0278235874981751 	1.57150602526332 	0.00590625672645347 	0
5 	1.3904032118968 	-7.04731412115578e-18 	0.0933296071466641 	0.0268421837125919 	1.48597087341786 	0.00529560651464165 	0
5 	1.43019966486263 	3.25260651745651e-19 	0.091510100316504 	0.0258994947613936 	1.40308407783945 	0.00473597837100648 	0
5 	1.47138436689259 	-3.46944695195361e-18 	0.0897154694284129 	0.0250031234794967 	1.32368990614657 	0.0042315979949301 	0
5 	1.51400381317015 	-1.73472347597681e-17 	0.0879635667492412 	0.0241547698591891 	1.24817020405722 	0.00378117273519731 	0
5 	1.55810595777939 	-1.73472347597681e-17 	0.0862633018863176 	0.0233535682392515 	1.17674828433644 	0.00338185985735693 	0
5 	1.60374025629048 	-1.04083408558608e-17 	0.0846219191111424 	0.0225956578880863 	1.10947118297549 	0.00302917587493007 	0
5 	1.65095770970041 	-6.93889390390723e-18 	0.0830449831725421 	0.0218748768904563 	1.04626966700375 	0.00271785234712996 	0
5 	1.69981090980421 	-6.93889390390723e-18 	0.0815365143092614 	0.0211834778049646 	0.98700810203328 	0.00244248423041593 	0
5 	1.75035408607878 	-6.93889390390723e-18 	0.08009922696792 	0.0205127425119443 	0.931519715973572 	0.00219795681075185 	0
5 	1.80264315416783 	-6.93889390390723e-18 	0.0787346666980125 	0.0198533823694017 	0.879625216482956 	0.00197974331392029 	0
5 	1.85673576606396 	-6.93889390390723e-18 	0.0774438931888213 	0.019195564915238 	0.831135725557554 	0.00178415858653974 	0
5 	1.91269136209142 	-3.46944695195361e-18 	0.076225178860329 	0.0185283000123795 	0.785832435900757 	0.00160841892582077 	0
5 	1.97057122480134 	3.46944695195361e-18 	0.0750348097684655 	0.0178218476725658 	0.742098780380867 	0.00144455752635665 	0
5 	2 	6.93889390390723e-18 	0.0744345860346155 	0.0174509747881071 	0.720107718011158 	0.00136330325872257 	0
5 	2.04004996790234 	6.93889390390723e-18 	0.073802992600913 	0.0170233922043586 	0.696733315286589 	0.00127815751613124 	0
5 	2.11873460271874 	1.04083408558608e-17 	0.0725845337243522 	0.0161620097144857 	0.651575296140891 	0.00111357133302916 	0
5 	2.19463865000284 	1.38777878078145e-17 	0.0714989899142632 	0.0153188390297723 	0.610729332012324 	0.000963926156452458 	0
5 	2.26786037121375 	1.04083408558608e-17 	0.0705642150753722 	0.0145266591424319 	0.57492714637167 	0.000832614195318958 	0
5 	2.33849455540975 	1.04083408558608e-17 	0.0697353598700929 	0.0137863566798181 	0.543439379283016 	0.000717317485922788 	0
5 	2.40663264195736 	1.04083408558608e-17 	0.0689895937652926 	0.0130922400295421 	0.515594367308972 	0.000616014894498587 	0
5 	2.47236283890404 	3.46944695195361e-18 	0.0683267242848154 	0.0124374575048963 	0.490878227495824 	0.000529346031414271 	0
5 	2.5357702371677 	3.46944695195361e-18 	0.0677445577775093 	0.0118194733386021 	0.469103046719212 	0.000454810620320719 	0
5 	2.59693692069107 	6.93889390390723e-18 	0.0672315159089419 	0.0112381511145704 	0.450224321054066 	0.00038867068965127 	0
5 	2.65594207270333 	6.93889390390723e-18 	0.06677752259561 	0.0106931328960018 	0.434131977816494 	0.000329900489478133 	0
5 	2.71286207822658 	1.04083408558608e-17 	0.0663747604782333 	0.0101834233983312 	0.420646152946827 	0.000277943560917241 	0
5 	2.76777062295999 	1.38777878078145e-17 	0.0660163585897315 	0.00970756032129489 	0.409572690578484 	0.000232210489609134 	0
5 	2.82073878866949 	1.38777878078145e-17 	0.0656965182042597 	0.00926382862502532 	0.400736292582317 	0.000192098910033024 	0
5 	2.87183514520654 	1.04083408558608e-17 	0.0654103257870703 	0.0088504272748421 	0.393994782868527 	0.000157027898002404 	0
5 	2.92112583927514 	6.93889390390723e-18 	0.0651536125488091 	0.00846558625441311 	0.389243636348281 	0.000126467297747545 	0
5 	2.9686746800619 	1.04083408558608e-17 	0.0649228293211807 	0.008107640283972 	0.386415878192323 	9.99536630775776e-05 	0
