5 	0.00391112967796265 	-1.73472347597681e-18 	0.210813732733576 	1.67538092723535e-05 	897.172015398095 	1.52632625184218e-06 	1.14975076840824e-38
5 	0.0118766651674913 	-9.54097911787244e-18 	0.210809381263851 	0.000274034972843942 	187.767033456248 	3.08505206564472e-05 	0
5 	0.020134001548576 	-9.54097911787244e-18 	0.210799930825661 	0.00158201107532922 	54.3321830538137 	0.000143571006639889 	0
5 	0.028693828342395 	-6.07153216591882e-18 	0.210777885481536 	0.00424906673067503 	23.7510079516063 	8.48989651397389e-05 	0
5 	0.0375672266585908 	-8.67361737988404e-18 	0.210731489777042 	0.00712048134980271 	13.4670675725197 	1.75542404717514e-05 	0
5 	0.0467656835403031 	-1.86482773667507e-17 	0.210657991559652 	0.00959792161775826 	9.12296587902433 	0.000101561175755503 	0
5 	0.0563011068347006 	-2.47198095326695e-17 	0.210563775795218 	0.0117026501524049 	6.89136587121417 	0.000231702835360649 	0
5 	0.0661858406082649 	-2.21177243187043e-17 	0.21045531118326 	0.0135439924609058 	5.56668904572393 	0.000368694886961112 	0
5 	0.0764326811267816 	-1.90819582357449e-17 	0.210336230688292 	0.0152030488231551 	4.69876648192617 	0.000506937257816344 	0
5 	0.0870548934207257 	-1.77809156287623e-17 	0.210208689836279 	0.0167330346355908 	4.09007531379392 	0.000647221229655047 	0
5 	0.098066228457484 	-8.02309607639273e-18 	0.210074389968489 	0.0181694362149043 	3.64207001745239 	0.000791102848923833 	0
5 	0.109480940942647 	2.38524477946811e-18 	0.209934815060378 	0.0195368808053771 	3.30052284186442 	0.000940035803862884 	0
5 	0.121313807773416 	2.81892564846231e-18 	0.209791278685439 	0.0208531739918565 	3.0332585715565 	0.00109532178247634 	0
5 	0.13358014716801 	-9.75781955236954e-19 	0.209644973659493 	0.022131676431024 	2.82002701029484 	0.00125817017108828 	0
5 	0.146295838495838 	-2.38524477946811e-18 	0.209497013864757 	0.0233827460153444 	2.64746984587484 	0.00142975492682279 	0
5 	0.159477342834115 	-8.32802793740428e-18 	0.209348458531822 	0.0246146435909993 	2.50643332599514 	0.00161125864140226 	0
5 	0.173141724277517 	-2.10131933554847e-17 	0.209200149393337 	0.02583404749164 	2.39051544728909 	0.0018039413341698 	0
5 	0.18730667202848 	-2.77555756156289e-17 	0.209053010503673 	0.0270466095959178 	2.29501020934174 	0.00200912485029352 	0
5 	0.201990523296728 	-2.42861286636753e-17 	0.208908228328578 	0.0282572098454333 	2.21634694341435 	0.00222815312197133 	0
5 	0.217212287037675 	-2.42861286636753e-17 	0.208766716753559 	0.029469935660424 	2.15191621998614 	0.00246251830796835 	0
5 	0.232991668560441 	-2.77555756156289e-17 	0.208629353552285 	0.0306883205120082 	2.09972070675937 	0.00271383215634534 	0
5 	0.249349095037321 	-2.77555756156289e-17 	0.208496976739988 	0.03191542097475 	2.05821400640691 	0.0029838359857199 	0
5 	0.266305741947753 	-3.46944695195361e-17 	0.208370380070158 	0.0331538611370287 	2.02618797100787 	0.00327440701641534 	0
5 	0.283883560490998 	-4.85722573273506e-17 	0.208250308107554 	0.0344058503266787 	2.00269208534613 	0.00358756025189725 	0
5 	0.30210530600303 	-5.55111512312578e-17 	0.208137450800828 	0.0356731776018658 	1.98697448575753 	0.00392544449199671 	0
5 	0.320994567414413 	-5.55111512312578e-17 	0.20803243611205 	0.0369571911423682 	1.97843779750035 	0.00429032557969843 	0
5 	0.340575797787321 	-5.89805981832114e-17 	0.207935827131174 	0.0382588373739929 	1.97660522327088 	0.00468457040462809 	0
5 	0.360874345971201 	-6.59194920871187e-17 	0.207848122955487 	0.0395784950071509 	1.98109370171504 	0.0051106117187612 	0
5 	0.38191648941809 	-6.93889390390723e-17 	0.207769744157916 	0.0409158560830933 	1.99159191952194 	0.0055708998498737 	0
5 	0.403729468200046 	-6.24500451351651e-17 	0.207701029911833 	0.0422698578243727 	2.00784156427473 	0.00606783482487595 	0
5 	0.426341520272733 	-4.85722573273506e-17 	0.20764222977715 	0.0436385491174934 	2.02962055648337 	0.00660366905768364 	0
5 	0.449781918030828 	-4.85722573273506e-17 	0.207593497585482 	0.04501893117421 	2.05672727184753 	0.00718037810877712 	0
5 	0.474081006202548 	-5.55111512312578e-17 	0.207554918181344 	0.0464067731071392 	2.08896494045877 	0.00779948598893546 	0
5 	0.499270241132363 	-4.85722573273506e-17 	0.20752654411603 	0.0477964034071938 	2.12612553036205 	0.00846185499316615 	0
5 	0.525382231502763 	-4.5102810375397e-17 	0.207508006392319 	0.0491804797476649 	2.1679724846788 	0.00916751848349828 	0
5 	0.552450780547767 	-4.5102810375397e-17 	0.207497274605344 	0.0505497386451556 	2.21422159468927 	0.00991563844413957 	0
5 	0.580510929812849 	-3.81639164714898e-17 	0.207493709905837 	0.0518927216591051 	2.26451900619071 	0.0107220904531074 	0
5 	0.60959900451791 	-2.77555756156289e-17 	0.207518072538374 	0.0531966504222889 	2.31847245915738 	0.0116914936905299 	0
5 	0.639752660582032 	-2.08166817117217e-17 	0.207613552521613 	0.0544531906157162 	2.3758617905209 	0.0127943860244202 	0
5 	0.671010933370886 	-1.38777878078145e-17 	0.207770047559511 	0.0556479163529862 	2.43574415244007 	0.0140190489417325 	0
5 	0.7034142882299 	-3.46944695195361e-18 	0.207923700638345 	0.0567351003713127 	2.4950132407221 	0.015248059338772 	0
5 	0.737004672868606 	-6.93889390390723e-18 	0.208036737049322 	0.0576442076485225 	2.54879607602397 	0.0163181990652488 	0
5 	0.771825571663976 	-1.73472347597681e-17 	0.208105985062098 	0.0583036302374704 	2.59197832438085 	0.0171392814461253 	0
5 	0.807922061953053 	-2.08166817117217e-17 	0.208140192706143 	0.0586557264933593 	2.62034563713447 	0.0176913858700566 	0
5 	0.845340872387742 	-1.73472347597681e-17 	0.208145655862333 	0.0586600128285708 	2.63099332850585 	0.0179818209298914 	0
5 	0.884130443427309 	-1.73472347597681e-17 	0.208122176593709 	0.0582910269898594 	2.62229592270967 	0.0180138386811339 	0
5 	0.924340990046898 	-2.42861286636753e-17 	0.208063848101396 	0.0575368474286568 	2.59372131671701 	0.0177783173294846 	0
5 	0.966024566743242 	-1.73472347597681e-17 	0.207961341352744 	0.0564004765270519 	2.5456269498297 	0.01726325223191 	0
5 	0.98803860501359 	-9.97465998686664e-18 	0.207894143510133 	0.0557081417551164 	2.51544177735451 	0.016918008315999 	0
5 	1.01003250347456 	-1.69135538907739e-17 	0.207801573780496 	0.0548771101394381 	2.47797295864128 	0.0164560079137564 	0
5 	1.05402863275205 	-1.38777878078145e-17 	0.207584772450278 	0.0530971562384543 	2.39656375563568 	0.0154305180784164 	0
5 	1.10046304758287 	-1.04083408558608e-17 	0.207290553819895 	0.0510251594027748 	2.29945131771745 	0.0141827262557408 	0
5 	1.14859849100923 	-2.08166817117217e-17 	0.206914039075981 	0.048767392457387 	2.19099922933649 	0.0128019786879949 	0
5 	1.19849727668994 	-2.42861286636753e-17 	0.206448538969845 	0.0464075682482415 	2.07465069203398 	0.0113712763870206 	0
5 	1.25022400101563 	-1.38777878078145e-17 	0.20588925545618 	0.0440261023484264 	1.95395195353687 	0.00996944489084929 	0
5 	1.30384562673185 	-5.20417042793042e-18 	0.205233957431431 	0.041690719698148 	1.83231568679255 	0.00865853221311628 	0
5 	1.35943156962565 	-1.73472347597681e-18 	0.204483987386752 	0.039453280302333 	1.71338241296376 	0.00747755034548854 	0
5 	1.41705378838762 	6.93889390390723e-18 	0.203644207237026 	0.0373427453721256 	1.59989868693438 	0.00644175321524743 	0
5 	1.47678687776592 	1.56125112837913e-17 	0.202721167729645 	0.0353628687437708 	1.49282939161871 	0.00554728184477292 	0
5 	1.53870816513278 	1.04083408558608e-17 	0.201722370380892 	0.0334978934298728 	1.39157531363724 	0.00477617935447968 	0
5 	1.60289781058851 	5.20417042793042e-18 	0.200656782788978 	0.0317125672354933 	1.29304338206614 	0.00410641815111692 	0
5 	1.66943891073267 	1.0842021724855e-17 	0.199531990283351 	0.029976987188321 	1.19607873657509 	0.00352096805304184 	0
5 	1.73841760623657 	1.0842021724855e-17 	0.198372671011028 	0.0282779041221132 	1.10369581390528 	0.00300968244470254 	0
5 	1.8099231933566 	6.93889390390723e-18 	0.197215578852298 	0.0266017656466202 	1.02046155431432 	0.00253531819896537 	0
5 	1.88404823953249 	6.93889390390723e-18 	0.196038099016967 	0.0249351967362712 	0.948466841679991 	0.00210618700001802 	0
5 	1.96088870322038 	6.93889390390723e-18 	0.194819531676942 	0.0232913706772189 	0.888069832956343 	0.001724320705615 	0
5 	2.02025965173185 	6.93889390390723e-18 	0.193906113138264 	0.0220190169544749 	0.849395167287119 	0.00145959559884494 	0
5 	2.06006301192217 	6.93889390390723e-18 	0.193262492021214 	0.0211402127378314 	0.825696713030049 	0.00128529900896411 	0
5 	2.09845978584128 	6.93889390390723e-18 	0.192672835110489 	0.0203311925493762 	0.806400480293905 	0.00113619844332002 	0
5 	2.13549967996946 	6.93889390390723e-18 	0.192109503210493 	0.0195592996093475 	0.790289083848679 	0.00100119664051951 	0
5 	2.17123064424048 	6.93889390390723e-18 	0.191573022479099 	0.0188226884227439 	0.777132866751827 	0.000878460951196017 	0
5 	2.20569893411516 	6.93889390390723e-18 	0.191062799036832 	0.0181197719328161 	0.766763191142574 	0.000766804459188457 	0
5 	2.23894917046123 	6.93889390390723e-18 	0.190577863049907 	0.0174491424457971 	0.75906031377929 	0.000665221869726633 	0
5 	2.27102439731726 	6.93889390390723e-18 	0.190117255502878 	0.0168095199696644 	0.753945028258177 	0.000572871368912742 	0
5 	2.30196613761522 	6.93889390390723e-18 	0.189680027609296 	0.0161997202105344 	0.751373106524298 	0.000489046898780357 	0
5 	2.33181444693392 	1.04083408558608e-17 	0.189265235593593 	0.0156186366713661 	0.751331832624013 	0.000413155309262282 	0
5 	2.3606079653529 	1.04083408558608e-17 	0.188871951254879 	0.015065232595833 	0.753838120283019 	0.000344701559775169 	0
5 	2.38838396747391 	6.93889390390723e-18 	0.188499270510687 	0.0145385394670089 	0.758937857908987 	0.000283279461985774 	0
5 	2.41517841067461 	1.04083408558608e-17 	0.188146318424965 	0.014037659645218 	0.766706243472005 	0.000228566325841105 	0
5 	2.44102598165722 	1.38777878078145e-17 	0.187812252115042 	0.0135617714398624 	0.777248961148587 	0.000180320609460898 	0
5 	2.46596014135208 	1.38777878078145e-17 	0.187496262148574 	0.0131101354416862 	0.790704117153233 	0.000138381978446379 	0
5 	2.49001316823444 	1.73472347597681e-17 	0.187197572755551 	0.012682101318192 	0.80724489954895 	0.000102673378413618 	0
5 	2.51321620011054 	2.42861286636753e-17 	0.1869154411415 	0.0122771145245824 	0.827082960492007 	7.32048691702151e-05 	0
5 	2.535599274427 	2.77555756156289e-17 	0.186649156148178 	0.0118947225316665 	0.850472542349712 	5.00790604179129e-05 	0
5 	2.55719136715571 	2.77555756156289e-17 	0.186398036461679 	0.0115345802423873 	0.877715383160981 	3.34980355034743e-05 	0
5 	2.57802043030466 	2.42861286636753e-17 	0.18616142852742 	0.0111964542775391 	0.909166442607703 	2.37716597711431e-05 	0
5 	2.59811342810315 	2.08166817117217e-17 	0.185938704297875 	0.0108802257731333 	0.945240486741662 	2.1327148802683e-05 	0
5 	2.61749637190832 	2.08166817117217e-17 	0.185729258911433 	0.0105858912593864 	0.98641955719911 	2.671972331224e-05 	0
5 	2.63619435387806 	2.42861286636753e-17 	0.185532508378959 	0.0103135610972517 	1.0332613271871 	4.06441063504381e-05 	0
5 	2.65423157945406 	2.42861286636753e-17 	0.185347887338703 	0.0100634548476502 	1.08640831084675 	6.39465317031232e-05 	0
5 	2.67163139869691 	2.08166817117217e-17 	0.185174846929684 	0.00983589285957825 	1.14659784405901 	9.7636840469487e-05 	0
5 	2.68841633651388 	2.08166817117217e-17 	0.185012852828326 	0.00963128330911285 	1.21467269422567 	0.000142900160348777 	0
5 	2.70460812181851 	1.73472347597681e-17 	0.184861383491833 	0.00945010392916427 	1.29159208742203 	0.00020110760663815 	0
5 	2.72022771565972 	1.04083408558608e-17 	0.184719928653322 	0.00929287776852942 	1.37844287060288 	0.000273825432199393 	0
5 	2.73529533835695 	1.04083408558608e-17 	0.184587988115865 	0.00916014253410114 	1.47645046589724 	0.000362822095813543 	0
5 	2.74983049567626 	1.73472347597681e-17 	0.184465070893029 	0.00905241341731374 	1.58698924032253 	0.000470072810192473 	0
5 	2.76385200408157 	2.08166817117217e-17 	0.184350694739459 	0.00897013978169952 	1.71159192959411 	0.000597761247809999 	0
5 	2.77737801509344 	2.08166817117217e-17 	0.184244386104207 	0.00891365666406888 	1.8519578459275 	0.000748278180027285 	0
5 	2.79042603878708 	2.08166817117217e-17 	0.184145680520539 	0.00888313266181518 	2.00995979777029 	0.000924216850441471 	0
5 	2.80301296646003 	2.42861286636753e-17 	0.184054123422364 	0.00887851636802807 	2.18764998940159 	0.00112836480363083 	0
5 	2.81515509249873 	2.77555756156289e-17 	0.183969271361103 	0.00889948399579753 	2.38726569095914 	0.00136369172579195 	0
5 	2.82686813547238 	2.77555756156289e-17 	0.183890693569843 	0.00894539114237882 	2.61123622286189 	0.00163333270319383 	0
5 	2.83816725848143 	2.42861286636753e-17 	0.18381797363885 	0.00901523175786228 	2.8621938389133 	0.00194056634577851 	0
5 	2.84906708878692 	2.42861286636753e-17 	0.183750710810138 	0.00910760731928601 	3.1429924799158 	0.0022887877122804 	0
5 	2.85958173674617 	2.42861286636753e-17 	0.183688522142184 	0.00922070901970199 	3.4567401605886 	0.00268147719603017 	0
5 	2.86972481407933 	1.73472347597681e-17 	0.183631052440235 	0.00935231552371141 	3.80685299280016 	0.00312216812924817 	0
5 	2.87950945149043 	2.08166817117217e-17 	0.183577984087578 	0.00949980859898075 	4.19714159537244 	0.00361442250512151 	0
5 	2.88894831566567 	2.42861286636753e-17 	0.183528943001228 	0.00966020861957425 	4.63194394827737 	0.00416472524682838 	0
5 	2.89805362567107 	2.08166817117217e-17 	0.18348326136296 	0.00983020052120989 	5.116543894337 	0.00480239166738023 	0
5 	2.90683716877067 	2.08166817117217e-17 	0.183440782645453 	0.0100059401778567 	5.65938794958375 	0.00552366214927664 	0
5 	2.9153103156857 	2.08166817117217e-17 	0.183401718174603 	0.0101828973267386 	6.27056982300599 	0.00634819554510113 	0
5 	2.92348403531449 	2.08166817117217e-17 	0.183365926119573 	0.0103534639623683 	6.95670406188837 	0.00726638365127486 	0
5 	2.9313689089323 	1.73472347597681e-17 	0.183333194009295 	0.0105075616060437 	7.72160518449158 	0.00825478993830523 	0
5 	2.93897514388925 	1.04083408558608e-17 	0.183303251718831 	0.0106344924998993 	8.56989558395417 	0.00930111357947273 	0
5 	2.94631258682425 	6.93889390390723e-18 	0.183275859573966 	0.0107238193477079 	9.50998375345181 	0.0104019905525024 	0
5 	2.95339073641193 	3.46944695195361e-18 	0.183250843239488 	0.0107654219454013 	10.5565351105984 	0.0115596540561056 	0
5 	2.96021875565916 	0 	0.183228091565844 	0.0107490573397142 	11.7335928241333 	0.0127799678545722 	0
5 	2.96680548376697 	0 	0.18320754711923 	0.0106636102712137 	13.0778290270171 	0.0140711987256118 	0
5 	2.97315944757337 	0 	0.183189196756867 	0.0104961669842922 	14.6406949819313 	0.0154423907178649 	0
5 	2.97928887259171 	3.46944695195361e-18 	0.183173061379473 	0.0102307228334746 	16.4967952730399 	0.0168993037293293 	0
5 	2.98520169365903 	6.93889390390723e-18 	0.183159182364972 	0.00984628253943691 	18.7579304618296 	0.0184343425425401 	0
5 	2.99090556520807 	1.38777878078145e-17 	0.18314760079834 	0.00931457786221353 	21.593736704077 	0.0200043486422772 	0
5 	2.99640787117633 	2.08166817117217e-17 	0.183138325800539 	0.00859772470032865 	25.27080956501 	0.0214814814083068 	0
5 	3.00171573456492 	2.08166817117217e-17 	0.183131299531241 	0.00764767341043002 	30.233107520835 	0.0225857471131518 	0
5 	3.00683602665963 	2.08166817117217e-17 	0.183126386012123 	0.00640994389626566 	37.2909249450542 	0.0227185835037124 	0
5 	3.01177537592613 	2.08166817117217e-17 	0.183123377797249 	0.00484009686171421 	48.1286164621662 	0.0200770010024347 	0
5 	3.01654017659085 	2.08166817117217e-17 	0.183121806555908 	0.00304111335397709 	66.9412330167527 	0.013500942070731 	0
5 	3.02113659691864 	2.08166817117217e-17 	0.183121070168527 	0.00142079797106828 	107.264270223338 	0.00551961380584657 	0
5 	3.02557058719784 	2.77555756156289e-17 	0.183120805388569 	0.000440367645676061 	225.851510479115 	0.00113333935968375 	0
5 	3.02984788744324 	3.46944695195361e-17 	0.183120863950845 	7.6998821334015e-05 	801.47104511862 	0.000103580883412213 	0
