/*--------------------------------*- C++ -*----------------------------------*\
  =========                 |
  \\      /  F ield         | OpenFOAM: The Open Source CFD Toolbox
   \\    /   O peration     | Website:  https://openfoam.org
    \\  /    A nd           | Version:  7
     \\/     M anipulation  |
\*---------------------------------------------------------------------------*/
FoamFile
{
    version     2.0;
    format      ascii;
    class       volScalarField;
    location    "0";
    object      k_LES;
}
// * * * * * * * * * * * * * * * * * * * * * * * * * * * * * * * * * * * * * //

dimensions      [0 2 -2 0 0 0 0];

internalField   nonuniform List<scalar>
15600
(
0.00199956
-0.00015277
0.00045095
0.00035459
0.00043584
0.00025928
0.00020829
0.00020506
0.00046690
0.00052224
0.00062461
0.00046503
0.00132948
0.00111149
0.00182216
0.00149562
0.00039484
0.00041004
0.00042071
0.00046597
0.00051905
0.00061931
0.00069827
0.00073851
0.00085065
0.00097652
0.00107298
0.00120334
0.00132447
0.00149536
0.00167514
0.00191474
0.00202848
0.00216196
0.00226158
0.00237818
0.00244109
0.00251106
0.00254924
0.00263601
0.00276470
0.00289489
0.00305530
0.00303723
0.00303844
0.00311089
0.00306899
0.00323216
0.00319679
0.00322382
0.00325363
0.00337645
0.00335899
0.00335025
0.00339302
0.00341370
0.00345659
0.00342765
0.00347342
0.00336705
0.00333460
0.00326518
0.00324141
0.00325737
0.00311699
0.00299855
0.00288895
0.00298018
0.00280842
0.00271049
0.00269761
0.00276813
0.00274098
0.00267231
0.00248989
0.00244406
0.00233142
0.00228363
0.00220038
0.00217194
0.00206033
0.00196530
0.00194264
0.00190590
0.00186403
0.00184049
0.00178938
0.00188627
0.00172936
0.00169486
0.00168468
0.00166774
0.00165637
0.00163234
0.00160532
0.00159625
0.00155965
0.00158281
0.00167757
0.00168819
0.00181517
0.00195379
0.00223796
0.00255058
0.00620788
0.00137830
0.00000416
0.00023314
-0.00002121
-0.00076584
-0.00032797
-0.00094231
0.00006766
-0.00015303
-0.00131662
-0.00060794
-0.00004370
0.00020711
0.00030835
0.00104115
0.00525538
0.00025585
0.00120527
0.00099879
0.00107218
0.00095098
0.00075321
0.00107203
0.00134033
0.00158420
0.00236740
0.00231051
0.00311670
0.00393504
0.00424357
0.00331420
0.00196593
0.00199667
0.00216969
0.00242407
0.00274805
0.00311090
0.00350335
0.00390122
0.00438736
0.00490470
0.00536066
0.00586803
0.00645296
0.00710921
0.00773023
0.00837949
0.00895007
0.00947748
0.00992499
0.01030711
0.01070807
0.01088427
0.01110323
0.01130354
0.01169003
0.01196936
0.01229933
0.01248535
0.01258550
0.01274057
0.01284733
0.01312039
0.01314663
0.01335532
0.01348332
0.01364386
0.01381383
0.01399413
0.01400615
0.01423320
0.01420120
0.01422181
0.01431227
0.01417080
0.01413192
0.01387757
0.01373446
0.01371133
0.01337831
0.01302623
0.01276810
0.01261651
0.01244252
0.01214784
0.01196371
0.01192273
0.01172317
0.01156683
0.01129394
0.01107757
0.01068746
0.01043726
0.01024031
0.01005689
0.00977288
0.00948087
0.00922516
0.00904830
0.00894224
0.00885980
0.00872227
0.00872711
0.00845434
0.00835005
0.00829007
0.00823132
0.00809884
0.00794594
0.00788591
0.00776743
0.00768661
0.00761905
0.00770350
0.00795125
0.00842123
0.00893996
0.00976132
0.01138487
0.01642758
0.01281755
0.00452534
0.00118483
0.00046298
0.00027416
-0.00066677
0.00006173
-0.00045595
-0.00115384
-0.00158237
0.00110671
-0.00148508
-0.00010482
-0.00138406
0.00327543
0.01022099
0.00205029
0.00268655
0.00200706
0.00185428
0.00168235
0.00192114
0.00243704
0.00332533
0.00366080
0.00443936
0.00504693
0.00591338
0.00637057
0.00619777
0.00499734
0.00386146
0.00397408
0.00437674
0.00494569
0.00562507
0.00633878
0.00707025
0.00780526
0.00863124
0.00948412
0.01020215
0.01100355
0.01189638
0.01284610
0.01372319
0.01457444
0.01549397
0.01628855
0.01696950
0.01758202
0.01812781
0.01855209
0.01873426
0.01898764
0.01952952
0.01985297
0.02023958
0.02054303
0.02077412
0.02101952
0.02136038
0.02164811
0.02179559
0.02202622
0.02230509
0.02258421
0.02287521
0.02315768
0.02324500
0.02365328
0.02375005
0.02366934
0.02377806
0.02382211
0.02378351
0.02350220
0.02326596
0.02312245
0.02275578
0.02227192
0.02197665
0.02175789
0.02148170
0.02116614
0.02084197
0.02060977
0.02039088
0.02015470
0.01990998
0.01957114
0.01904035
0.01864766
0.01834474
0.01808733
0.01770373
0.01730365
0.01694623
0.01665691
0.01650404
0.01636728
0.01618794
0.01614384
0.01582419
0.01572606
0.01564620
0.01549171
0.01529143
0.01511192
0.01498953
0.01476894
0.01461268
0.01449359
0.01454410
0.01493436
0.01553089
0.01626393
0.01758422
0.02011426
0.02461575
0.02342262
0.01589499
0.00810949
0.00566116
0.00374090
0.00155585
0.00305854
0.00196533
0.00153969
0.00017820
0.00228639
-0.00042948
-0.00103393
-0.00274623
0.00810234
0.01613570
0.00676449
0.00493825
0.00342582
0.00272975
0.00315469
0.00366056
0.00430075
0.00540094
0.00628312
0.00701400
0.00768294
0.00816845
0.00801883
0.00762910
0.00644553
0.00557138
0.00583337
0.00648946
0.00737177
0.00835370
0.00933875
0.01030941
0.01126309
0.01226802
0.01324753
0.01409475
0.01494449
0.01593317
0.01696180
0.01792306
0.01892167
0.01995757
0.02088578
0.02170218
0.02242687
0.02301667
0.02349005
0.02372065
0.02396081
0.02455183
0.02489661
0.02531474
0.02569057
0.02601750
0.02638953
0.02679593
0.02719570
0.02736448
0.02764505
0.02807664
0.02840919
0.02880099
0.02919719
0.02939323
0.02983903
0.03002459
0.03002259
0.03017813
0.03028366
0.03028518
0.02997610
0.02972485
0.02949919
0.02915154
0.02867943
0.02832765
0.02817132
0.02787265
0.02751543
0.02713299
0.02682750
0.02651725
0.02626021
0.02606074
0.02562887
0.02500676
0.02463457
0.02424277
0.02394022
0.02356545
0.02312367
0.02276413
0.02244439
0.02229554
0.02211844
0.02191189
0.02186185
0.02154515
0.02148170
0.02142126
0.02124014
0.02102103
0.02086608
0.02075003
0.02050620
0.02031557
0.02023530
0.02026239
0.02071663
0.02134493
0.02215283
0.02374185
0.02660455
0.03064660
0.03146658
0.02855576
0.02145392
0.01614238
0.01289092
0.01135825
0.01134185
0.00941678
0.00773553
0.00464736
0.00402653
0.00342883
0.00137987
0.00798320
0.01632000
0.02191790
0.01244153
0.00790804
0.00510070
0.00391152
0.00465134
0.00532647
0.00622489
0.00745881
0.00852509
0.00922718
0.00964006
0.00973276
0.00945801
0.00882879
0.00767348
0.00706016
0.00751588
0.00840703
0.00954523
0.01074982
0.01188930
0.01299265
0.01404334
0.01509714
0.01607042
0.01693482
0.01776594
0.01877981
0.01983800
0.02082124
0.02191950
0.02300691
0.02399055
0.02485636
0.02560582
0.02618161
0.02668328
0.02697608
0.02724215
0.02783237
0.02818000
0.02867792
0.02906981
0.02950605
0.02999620
0.03044660
0.03092629
0.03112877
0.03143130
0.03190166
0.03229631
0.03279156
0.03329499
0.03355960
0.03403639
0.03430821
0.03436280
0.03458234
0.03475347
0.03477278
0.03443078
0.03418350
0.03391970
0.03364734
0.03317149
0.03277827
0.03262703
0.03232253
0.03199123
0.03159076
0.03125206
0.03088599
0.03059994
0.03038601
0.02990622
0.02924760
0.02890244
0.02849146
0.02816838
0.02779421
0.02735477
0.02700987
0.02668130
0.02656373
0.02635684
0.02615138
0.02608419
0.02581305
0.02576582
0.02573279
0.02554981
0.02535300
0.02526279
0.02519727
0.02498369
0.02477939
0.02477022
0.02483447
0.02531653
0.02599472
0.02686187
0.02860576
0.03151770
0.03521093
0.03675591
0.03629810
0.03418847
0.02857913
0.02728048
0.02524892
0.02511215
0.01897073
0.01900966
0.01474655
0.00925344
0.01271742
0.01124127
0.02600466
0.02847796
0.02832401
0.01718507
0.01055601
0.00692355
0.00562256
0.00619447
0.00687314
0.00808588
0.00909527
0.01010826
0.01073725
0.01100632
0.01095392
0.01048486
0.00977249
0.00874388
0.00836839
0.00903167
0.01010937
0.01143482
0.01277123
0.01397005
0.01511996
0.01618151
0.01721772
0.01812780
0.01897981
0.01979971
0.02085181
0.02188975
0.02290801
0.02404500
0.02518639
0.02619317
0.02707840
0.02780970
0.02834829
0.02889998
0.02924468
0.02955661
0.03011439
0.03049769
0.03108818
0.03149183
0.03202051
0.03256986
0.03303922
0.03360039
0.03384553
0.03417415
0.03463922
0.03507580
0.03565364
0.03625866
0.03658093
0.03706581
0.03742147
0.03751467
0.03779787
0.03801393
0.03806444
0.03764662
0.03741094
0.03713287
0.03696080
0.03647254
0.03599651
0.03583202
0.03555185
0.03527118
0.03488581
0.03455139
0.03415702
0.03381204
0.03355210
0.03303652
0.03238750
0.03202766
0.03160852
0.03129638
0.03095508
0.03050996
0.03016975
0.02988998
0.02975580
0.02952206
0.02935373
0.02927717
0.02903810
0.02901875
0.02895650
0.02881525
0.02863943
0.02862929
0.02863126
0.02846716
0.02826190
0.02831118
0.02846700
0.02900628
0.02976481
0.03070256
0.03252353
0.03540094
0.03877320
0.04088219
0.04156262
0.04117774
0.04072938
0.03929088
0.03961556
0.03766619
0.03107880
0.03239293
0.02674183
0.01790306
0.02669294
0.03159657
0.04649923
0.04362883
0.03711767
0.02063785
0.01221093
0.00837757
0.00730407
0.00759080
0.00830294
0.00943894
0.01042400
0.01125676
0.01195651
0.01208959
0.01181103
0.01124804
0.01058143
0.00968678
0.00953272
0.01038604
0.01160565
0.01305537
0.01444712
0.01563282
0.01676517
0.01780049
0.01877752
0.01962868
0.02047345
0.02132651
0.02241535
0.02344843
0.02450236
0.02564721
0.02682811
0.02785766
0.02874809
0.02945925
0.02998467
0.03054342
0.03093296
0.03131583
0.03185256
0.03226910
0.03293545
0.03337694
0.03398883
0.03455777
0.03503630
0.03565926
0.03594388
0.03629830
0.03672120
0.03722403
0.03786724
0.03855576
0.03890522
0.03937655
0.03978238
0.03994220
0.04028216
0.04051470
0.04056593
0.04007645
0.03984414
0.03957574
0.03949415
0.03899619
0.03844835
0.03823626
0.03797968
0.03775550
0.03738340
0.03708563
0.03669414
0.03627806
0.03595685
0.03542073
0.03479564
0.03441236
0.03401579
0.03370994
0.03337255
0.03294351
0.03260779
0.03237029
0.03219692
0.03197456
0.03182366
0.03176437
0.03156336
0.03152509
0.03145942
0.03134416
0.03118365
0.03123376
0.03129405
0.03119561
0.03102203
0.03110513
0.03136957
0.03196873
0.03281710
0.03386387
0.03570798
0.03852800
0.04163106
0.04394638
0.04546488
0.04633432
0.04695057
0.04760090
0.04979712
0.04980856
0.04644879
0.04646571
0.04111740
0.03388765
0.04170914
0.05950691
0.06709003
0.05974370
0.04833622
0.02486030
0.01381727
0.00954026
0.00857751
0.00883454
0.00946292
0.01058937
0.01158033
0.01237201
0.01294044
0.01285716
0.01248420
0.01185884
0.01126429
0.01052686
0.01057588
0.01157936
0.01290283
0.01442549
0.01580607
0.01693515
0.01802756
0.01901464
0.01993343
0.02074949
0.02161422
0.02253238
0.02364415
0.02468693
0.02577282
0.02692855
0.02814709
0.02919139
0.03010049
0.03080273
0.03133878
0.03185127
0.03228735
0.03274935
0.03328953
0.03373712
0.03445523
0.03494823
0.03563311
0.03617181
0.03665101
0.03733269
0.03766125
0.03804156
0.03841950
0.03898443
0.03965180
0.04041334
0.04078803
0.04122968
0.04165683
0.04188972
0.04224143
0.04250076
0.04250703
0.04197830
0.04171365
0.04150085
0.04146907
0.04097138
0.04035961
0.04009614
0.03988151
0.03969233
0.03933260
0.03908769
0.03870595
0.03822061
0.03785728
0.03732193
0.03670556
0.03630912
0.03592331
0.03560392
0.03528514
0.03487891
0.03455753
0.03433865
0.03410579
0.03391827
0.03377308
0.03373618
0.03358231
0.03350899
0.03343009
0.03336251
0.03321020
0.03329197
0.03338689
0.03334809
0.03321817
0.03334429
0.03369775
0.03437810
0.03529387
0.03645323
0.03828903
0.04103743
0.04392527
0.04638254
0.04826519
0.04975132
0.05145408
0.05232020
0.05563070
0.05608706
0.05672551
0.05781924
0.05377182
0.04866797
0.05891689
0.07679707
0.07787087
0.07379197
0.06102137
0.03006476
0.01525573
0.01058989
0.00975228
0.00991386
0.01054778
0.01152185
0.01247187
0.01315208
0.01359148
0.01343455
0.01300465
0.01236695
0.01184671
0.01127410
0.01150148
0.01263096
0.01403009
0.01557249
0.01688591
0.01795322
0.01899097
0.01993893
0.02081559
0.02162404
0.02253931
0.02352566
0.02465295
0.02571704
0.02683663
0.02802331
0.02927669
0.03032635
0.03126620
0.03199045
0.03253719
0.03298804
0.03344929
0.03400176
0.03457103
0.03502600
0.03577869
0.03633164
0.03707088
0.03756640
0.03802618
0.03874978
0.03914020
0.03952951
0.03989372
0.04048883
0.04114850
0.04198251
0.04236878
0.04277890
0.04321217
0.04354592
0.04385664
0.04411853
0.04403653
0.04352719
0.04321336
0.04307728
0.04304613
0.04254221
0.04188968
0.04157067
0.04142015
0.04124944
0.04089704
0.04070755
0.04031338
0.03981142
0.03940187
0.03888108
0.03827779
0.03786242
0.03748184
0.03715314
0.03683307
0.03647362
0.03615931
0.03594338
0.03565836
0.03550002
0.03535872
0.03535205
0.03523653
0.03512147
0.03505145
0.03501937
0.03487254
0.03494543
0.03505671
0.03506863
0.03498964
0.03515100
0.03556984
0.03632386
0.03730682
0.03856882
0.04039139
0.04304470
0.04579132
0.04829759
0.05029808
0.05212296
0.05461831
0.05677386
0.05890838
0.06075675
0.06253227
0.06498806
0.06534397
0.06339303
0.07374917
0.08129909
0.08159885
0.08117606
0.07410959
0.03696902
0.01679437
0.01165705
0.01068364
0.01091014
0.01154344
0.01234990
0.01319147
0.01376110
0.01405820
0.01386932
0.01337039
0.01277612
0.01234632
0.01193922
0.01232305
0.01355484
0.01500311
0.01651395
0.01773125
0.01875266
0.01973751
0.02064417
0.02151020
0.02233792
0.02333964
0.02438425
0.02550846
0.02661364
0.02776976
0.02900595
0.03028829
0.03133913
0.03232614
0.03309695
0.03364007
0.03405611
0.03452466
0.03514234
0.03574985
0.03621649
0.03700065
0.03761473
0.03835317
0.03882550
0.03925902
0.03999065
0.04044278
0.04085697
0.04122302
0.04180894
0.04245683
0.04334198
0.04372271
0.04413343
0.04453747
0.04500704
0.04524360
0.04546638
0.04529591
0.04482714
0.04447750
0.04441433
0.04432826
0.04381958
0.04314857
0.04277338
0.04271461
0.04252930
0.04219189
0.04203950
0.04162274
0.04115549
0.04069216
0.04018460
0.03960578
0.03915862
0.03879499
0.03846076
0.03812513
0.03782478
0.03749748
0.03728469
0.03697122
0.03681562
0.03667791
0.03671995
0.03662562
0.03647315
0.03640813
0.03638850
0.03625763
0.03630254
0.03641759
0.03646746
0.03643605
0.03662837
0.03708869
0.03788503
0.03894504
0.04026674
0.04209210
0.04463166
0.04728521
0.04976826
0.05193340
0.05414967
0.05682564
0.05990791
0.06237805
0.06448527
0.06640013
0.06810563
0.07093821
0.07342657
0.08146757
0.08604800
0.08289879
0.08285052
0.08655122
0.04539044
0.01850269
0.01281557
0.01161206
0.01180690
0.01234109
0.01305404
0.01371290
0.01420090
0.01440868
0.01417010
0.01366877
0.01311438
0.01277138
0.01253177
0.01305435
0.01436384
0.01583163
0.01727643
0.01839979
0.01938805
0.02031713
0.02118832
0.02207192
0.02294993
0.02406060
0.02515232
0.02626509
0.02742972
0.02863556
0.02991493
0.03122982
0.03229578
0.03332966
0.03417265
0.03469778
0.03511129
0.03558830
0.03622902
0.03685886
0.03736999
0.03817096
0.03884429
0.03955648
0.03999705
0.04042590
0.04110602
0.04160553
0.04208030
0.04247249
0.04301272
0.04365108
0.04453867
0.04491670
0.04534575
0.04571975
0.04632259
0.04645959
0.04662765
0.04637807
0.04595978
0.04560813
0.04559304
0.04540097
0.04490645
0.04423311
0.04379348
0.04382317
0.04359342
0.04328810
0.04316005
0.04272509
0.04230379
0.04179496
0.04129588
0.04075547
0.04026423
0.03994052
0.03959824
0.03923344
0.03898223
0.03864149
0.03843342
0.03812016
0.03793581
0.03781005
0.03788297
0.03780919
0.03763748
0.03756799
0.03753583
0.03741813
0.03745370
0.03755422
0.03762737
0.03762418
0.03784106
0.03832820
0.03913717
0.04026120
0.04161711
0.04344270
0.04585281
0.04844331
0.05092093
0.05319933
0.05560111
0.05865667
0.06189468
0.06477104
0.06797232
0.06960059
0.07148025
0.07488951
0.07909746
0.08566857
0.08740241
0.08450897
0.08240678
0.09656010
0.05507884
0.02048666
0.01400138
0.01246480
0.01254991
0.01298486
0.01358582
0.01414594
0.01452459
0.01466215
0.01440966
0.01391112
0.01338933
0.01313462
0.01305371
0.01370805
0.01505730
0.01652084
0.01788045
0.01893292
0.01989707
0.02077847
0.02163345
0.02254285
0.02350629
0.02472953
0.02586589
0.02697402
0.02821259
0.02947391
0.03078030
0.03214086
0.03325317
0.03431347
0.03523346
0.03574556
0.03616723
0.03665666
0.03731486
0.03794377
0.03851712
0.03932409
0.04001709
0.04072881
0.04112578
0.04155659
0.04214494
0.04268056
0.04321788
0.04367580
0.04415414
0.04476517
0.04563370
0.04602451
0.04647094
0.04681556
0.04750880
0.04754784
0.04766360
0.04734100
0.04699392
0.04665613
0.04665747
0.04632949
0.04586225
0.04518154
0.04471881
0.04478873
0.04450308
0.04425256
0.04411844
0.04369475
0.04329851
0.04276922
0.04228391
0.04177417
0.04123511
0.04094916
0.04060586
0.04020361
0.03996225
0.03964337
0.03943905
0.03914327
0.03891572
0.03880252
0.03887316
0.03883252
0.03864963
0.03858505
0.03853216
0.03841573
0.03845165
0.03852844
0.03860308
0.03862781
0.03887328
0.03935740
0.04015300
0.04132178
0.04268536
0.04448586
0.04675777
0.04930528
0.05180097
0.05412022
0.05663393
0.05997617
0.06331342
0.06640151
0.06973171
0.07260867
0.07471593
0.07720242
0.08297201
0.08428848
0.08595650
0.08600650
0.08186574
0.10291543
0.06591102
0.02302564
0.01500309
0.01322360
0.01319216
0.01351185
0.01401838
0.01447900
0.01478932
0.01483603
0.01457451
0.01411024
0.01362070
0.01344193
0.01351389
0.01428378
0.01563269
0.01708129
0.01835813
0.01936254
0.02030877
0.02116820
0.02202221
0.02296039
0.02403428
0.02535638
0.02655182
0.02768392
0.02899475
0.03028985
0.03163526
0.03304332
0.03423675
0.03530735
0.03627816
0.03680480
0.03721138
0.03774402
0.03841841
0.03903145
0.03966265
0.04047617
0.04114749
0.04187546
0.04225398
0.04267256
0.04316070
0.04371832
0.04430242
0.04484491
0.04529132
0.04585210
0.04667307
0.04708283
0.04754796
0.04787115
0.04860416
0.04856165
0.04862339
0.04823277
0.04796178
0.04764218
0.04763940
0.04717631
0.04674474
0.04604587
0.04560313
0.04566503
0.04534250
0.04514317
0.04498145
0.04459068
0.04420159
0.04367666
0.04319931
0.04268933
0.04210722
0.04183966
0.04149383
0.04107618
0.04080325
0.04054601
0.04033414
0.04007293
0.03979174
0.03969019
0.03972643
0.03971434
0.03952931
0.03949032
0.03942014
0.03930059
0.03933322
0.03939249
0.03943835
0.03950748
0.03977138
0.04021089
0.04098887
0.04217435
0.04353100
0.04529252
0.04742567
0.04995987
0.05246688
0.05477785
0.05734495
0.06085643
0.06437641
0.06761283
0.07114160
0.07442280
0.07773450
0.07962837
0.08332997
0.08303127
0.08689128
0.08667379
0.08201818
0.10501066
0.07741788
0.02622641
0.01598665
0.01392716
0.01377557
0.01398467
0.01435165
0.01474806
0.01498644
0.01492927
0.01469724
0.01425628
0.01382047
0.01371209
0.01392335
0.01478171
0.01610323
0.01752689
0.01874997
0.01971916
0.02065323
0.02151301
0.02237823
0.02335385
0.02454920
0.02595225
0.02723682
0.02842833
0.02979807
0.03110052
0.03248858
0.03394580
0.03523092
0.03633150
0.03732005
0.03788270
0.03826318
0.03886775
0.03954430
0.04013660
0.04081802
0.04161305
0.04226705
0.04299662
0.04337793
0.04378920
0.04418559
0.04473930
0.04534709
0.04596964
0.04644363
0.04693530
0.04767993
0.04810471
0.04860655
0.04893581
0.04965098
0.04954428
0.04953140
0.04910234
0.04890864
0.04859414
0.04854823
0.04799605
0.04759099
0.04688386
0.04649137
0.04650578
0.04615679
0.04598029
0.04580051
0.04542318
0.04504186
0.04455286
0.04406426
0.04352581
0.04292237
0.04266490
0.04231637
0.04188527
0.04157252
0.04136649
0.04114343
0.04092333
0.04059857
0.04049886
0.04049645
0.04047968
0.04031960
0.04030747
0.04024037
0.04012395
0.04011985
0.04016614
0.04018150
0.04029292
0.04055003
0.04092005
0.04168506
0.04287648
0.04419497
0.04592208
0.04789302
0.05044112
0.05293284
0.05528422
0.05793460
0.06142165
0.06519494
0.06846457
0.07210668
0.07578468
0.07949315
0.08203313
0.08486673
0.08803168
0.08967482
0.08664974
0.08280007
0.10350386
0.08892461
0.03035503
0.01709939
0.01455824
0.01427461
0.01437660
0.01465705
0.01495949
0.01510911
0.01500422
0.01476949
0.01437984
0.01399684
0.01395987
0.01429390
0.01520535
0.01649375
0.01788231
0.01907810
0.02002413
0.02095218
0.02182215
0.02272089
0.02375015
0.02506499
0.02652673
0.02793073
0.02922122
0.03061845
0.03194165
0.03334232
0.03486527
0.03622284
0.03737499
0.03836163
0.03898879
0.03935397
0.04000891
0.04069977
0.04126400
0.04200994
0.04275844
0.04340966
0.04410822
0.04450839
0.04491397
0.04525941
0.04578517
0.04637265
0.04704605
0.04760038
0.04804071
0.04868555
0.04911371
0.04967367
0.05003559
0.05067219
0.05052411
0.05042070
0.05001971
0.04982625
0.04952421
0.04941377
0.04883102
0.04842879
0.04773260
0.04741056
0.04733693
0.04697636
0.04679513
0.04659882
0.04621611
0.04583954
0.04540856
0.04486464
0.04430676
0.04371498
0.04347807
0.04312395
0.04266626
0.04232622
0.04212635
0.04190255
0.04170745
0.04137583
0.04125295
0.04122841
0.04117209
0.04105213
0.04104799
0.04100207
0.04090279
0.04083186
0.04086955
0.04086784
0.04099194
0.04121822
0.04152666
0.04228275
0.04346521
0.04473789
0.04640605
0.04820974
0.05075632
0.05325003
0.05562864
0.05828405
0.06185388
0.06562519
0.06911975
0.07293662
0.07636912
0.08030162
0.08388252
0.08738539
0.09181986
0.09112213
0.08671284
0.08375092
0.09975737
0.09955131
0.03585689
0.01831249
0.01518240
0.01471819
0.01471504
0.01490544
0.01510126
0.01519830
0.01506238
0.01479738
0.01446832
0.01414484
0.01418725
0.01462007
0.01556383
0.01682767
0.01817992
0.01935518
0.02029744
0.02121738
0.02211041
0.02306783
0.02417516
0.02558338
0.02709265
0.02862387
0.03004503
0.03146528
0.03281966
0.03421580
0.03580288
0.03722376
0.03844346
0.03941511
0.04012731
0.04050060
0.04116335
0.04189489
0.04240669
0.04323268
0.04395492
0.04460395
0.04521429
0.04565498
0.04606304
0.04639820
0.04689152
0.04744453
0.04811325
0.04876520
0.04920345
0.04971938
0.05011881
0.05075698
0.05115324
0.05165842
0.05149615
0.05136023
0.05100090
0.05071837
0.05048643
0.05029155
0.04970685
0.04927067
0.04859412
0.04835699
0.04816681
0.04782936
0.04760655
0.04739088
0.04700961
0.04662455
0.04624091
0.04561793
0.04506637
0.04449742
0.04429561
0.04393704
0.04343684
0.04309327
0.04286948
0.04263339
0.04244155
0.04214171
0.04198633
0.04191659
0.04183057
0.04175227
0.04172377
0.04169470
0.04162503
0.04148585
0.04152521
0.04152637
0.04161372
0.04179652
0.04208188
0.04280816
0.04396382
0.04519903
0.04678922
0.04844834
0.05092451
0.05343810
0.05585190
0.05854388
0.06220680
0.06583789
0.06953616
0.07359103
0.07697218
0.08074710
0.08464931
0.08862248
0.09197954
0.08859864
0.08629701
0.08444935
0.09552075
0.10858096
0.04279901
0.01970687
0.01582822
0.01511888
0.01501581
0.01508971
0.01522112
0.01526218
0.01508484
0.01481932
0.01452479
0.01426887
0.01438632
0.01489794
0.01586541
0.01711581
0.01844938
0.01959042
0.02053639
0.02145757
0.02240036
0.02343460
0.02463885
0.02611388
0.02768399
0.02932902
0.03088012
0.03233050
0.03371316
0.03513558
0.03677633
0.03826415
0.03954201
0.04053191
0.04131395
0.04170225
0.04237455
0.04314820
0.04362046
0.04449200
0.04520909
0.04583749
0.04632259
0.04685424
0.04726782
0.04761363
0.04807693
0.04858170
0.04923029
0.04996676
0.05041693
0.05077597
0.05115644
0.05184914
0.05227070
0.05261185
0.05246427
0.05236452
0.05201185
0.05164232
0.05150014
0.05119801
0.05061684
0.05014737
0.04947974
0.04930207
0.04901246
0.04871454
0.04843761
0.04820830
0.04783291
0.04741817
0.04705480
0.04637320
0.04583476
0.04528680
0.04509821
0.04474286
0.04422903
0.04388200
0.04360945
0.04334554
0.04315686
0.04288456
0.04271380
0.04255155
0.04247652
0.04242832
0.04235457
0.04232923
0.04228091
0.04209916
0.04213701
0.04217086
0.04217597
0.04233142
0.04261283
0.04326988
0.04440681
0.04559812
0.04710865
0.04864170
0.05097915
0.05350953
0.05595377
0.05871407
0.06230405
0.06606841
0.06977959
0.07373894
0.07760251
0.08142133
0.08490037
0.08837220
0.09049245
0.08575265
0.08593660
0.08489055
0.09172486
0.11514803
0.05134664
0.02141721
0.01649700
0.01549766
0.01526785
0.01524256
0.01531109
0.01528551
0.01510226
0.01482886
0.01456279
0.01437265
0.01455285
0.01513306
0.01612132
0.01737271
0.01870025
0.01979801
0.02073769
0.02169168
0.02271447
0.02384221
0.02514428
0.02666501
0.02831489
0.03006939
0.03171243
0.03319805
0.03461986
0.03611217
0.03779159
0.03934803
0.04068276
0.04174527
0.04257389
0.04295734
0.04364595
0.04444735
0.04493907
0.04581493
0.04651479
0.04708487
0.04747685
0.04813228
0.04854283
0.04891867
0.04933595
0.04977692
0.05045511
0.05119344
0.05167340
0.05190220
0.05225306
0.05298918
0.05340149
0.05359882
0.05348939
0.05342570
0.05304832
0.05265255
0.05255559
0.05215603
0.05156038
0.05108223
0.05043171
0.05024918
0.04991786
0.04963286
0.04933610
0.04907001
0.04869856
0.04822713
0.04786330
0.04714981
0.04662283
0.04610553
0.04588545
0.04552321
0.04505529
0.04468241
0.04435417
0.04407176
0.04386462
0.04359029
0.04341210
0.04316912
0.04311174
0.04307411
0.04297025
0.04291376
0.04286904
0.04267550
0.04270183
0.04277872
0.04271559
0.04285999
0.04312790
0.04368579
0.04479829
0.04595990
0.04736986
0.04880135
0.05096235
0.05348219
0.05595651
0.05877415
0.06240060
0.06605867
0.06994526
0.07382083
0.07801789
0.08203710
0.08526871
0.08771685
0.08830625
0.08539861
0.08532912
0.08497508
0.08890283
0.11846028
0.06121583
0.02352400
0.01720692
0.01585850
0.01548771
0.01538691
0.01536576
0.01529729
0.01510205
0.01483544
0.01459027
0.01446227
0.01468907
0.01533062
0.01634792
0.01760662
0.01893376
0.01998704
0.02091668
0.02194219
0.02306102
0.02429641
0.02568215
0.02724948
0.02899304
0.03085726
0.03255925
0.03406475
0.03555620
0.03714054
0.03884938
0.04045503
0.04185069
0.04300196
0.04389291
0.04427715
0.04496193
0.04578808
0.04631961
0.04716878
0.04786719
0.04835190
0.04870894
0.04947992
0.04990907
0.05030564
0.05066329
0.05104598
0.05175705
0.05244390
0.05293236
0.05312178
0.05342380
0.05418843
0.05455867
0.05462551
0.05455610
0.05454250
0.05411484
0.05375957
0.05362911
0.05318698
0.05254710
0.05206390
0.05142761
0.05123071
0.05090310
0.05053902
0.05029661
0.05000697
0.04959072
0.04907210
0.04866825
0.04797098
0.04745888
0.04694550
0.04666167
0.04629277
0.04591112
0.04547882
0.04509897
0.04481525
0.04456280
0.04426799
0.04407075
0.04381967
0.04374990
0.04371935
0.04359960
0.04347466
0.04342163
0.04323578
0.04323109
0.04335342
0.04327031
0.04338370
0.04363151
0.04407320
0.04514566
0.04629640
0.04758642
0.04892799
0.05090533
0.05337411
0.05587143
0.05873751
0.06237873
0.06605104
0.06987874
0.07399510
0.07801846
0.08224141
0.08586200
0.08780837
0.08917273
0.08589420
0.08448387
0.08478375
0.08697564
0.11851047
0.07220617
0.02628322
0.01800253
0.01620700
0.01570229
0.01550453
0.01541286
0.01529042
0.01508370
0.01484373
0.01461715
0.01453871
0.01480821
0.01550385
0.01656510
0.01782462
0.01915233
0.02015973
0.02110638
0.02221443
0.02344609
0.02479612
0.02624683
0.02788297
0.02973993
0.03169124
0.03345524
0.03496261
0.03655049
0.03820431
0.03995153
0.04158912
0.04304764
0.04425475
0.04525536
0.04564239
0.04633176
0.04716717
0.04773161
0.04857959
0.04930330
0.04969823
0.05003483
0.05090383
0.05136975
0.05178102
0.05205926
0.05244190
0.05310985
0.05373284
0.05422494
0.05442216
0.05470203
0.05544431
0.05575823
0.05569643
0.05564626
0.05570058
0.05524673
0.05494877
0.05472705
0.05430172
0.05361022
0.05306488
0.05245878
0.05226452
0.05192328
0.05147814
0.05130219
0.05101803
0.05050540
0.04994130
0.04946022
0.04883600
0.04835849
0.04784357
0.04746178
0.04707790
0.04673531
0.04626809
0.04584217
0.04554593
0.04526205
0.04495704
0.04473459
0.04451958
0.04441281
0.04437174
0.04423320
0.04404824
0.04398548
0.04381279
0.04375049
0.04390328
0.04383162
0.04388766
0.04411077
0.04446364
0.04545812
0.04661927
0.04777705
0.04902142
0.05083347
0.05320100
0.05572554
0.05862951
0.06230788
0.06592874
0.06986904
0.07390560
0.07807182
0.08178913
0.08593227
0.08847017
0.08889141
0.08514672
0.08370663
0.08439055
0.08568301
0.11578308
0.08373963
0.02988035
0.01895607
0.01658332
0.01589625
0.01561257
0.01545377
0.01528173
0.01505634
0.01485263
0.01464230
0.01460267
0.01491330
0.01566449
0.01677208
0.01804637
0.01936182
0.02032965
0.02133578
0.02253206
0.02387703
0.02533133
0.02686224
0.02858220
0.03053596
0.03254744
0.03437691
0.03590652
0.03758888
0.03930163
0.04112261
0.04277561
0.04428065
0.04552160
0.04659776
0.04706565
0.04772609
0.04857877
0.04918306
0.05011680
0.05084857
0.05116509
0.05149229
0.05236878
0.05286262
0.05329624
0.05353986
0.05392436
0.05449151
0.05505886
0.05555992
0.05575817
0.05606167
0.05670100
0.05699799
0.05686774
0.05676522
0.05690237
0.05646281
0.05621995
0.05591523
0.05546596
0.05475425
0.05412713
0.05357806
0.05335628
0.05299218
0.05248296
0.05235716
0.05208984
0.05149902
0.05085611
0.05030272
0.04974474
0.04929122
0.04876409
0.04831747
0.04789498
0.04752524
0.04705957
0.04660088
0.04629136
0.04599620
0.04567628
0.04542616
0.04526029
0.04511421
0.04502614
0.04488463
0.04468076
0.04459549
0.04441503
0.04430243
0.04445145
0.04440570
0.04437189
0.04455261
0.04488795
0.04575325
0.04696007
0.04796115
0.04908268
0.05071564
0.05298051
0.05552786
0.05853239
0.06216117
0.06576716
0.06976596
0.07372152
0.07787823
0.08168665
0.08525967
0.08676978
0.08683397
0.08380456
0.08276334
0.08377412
0.08479076
0.11107577
0.09512437
0.03464138
0.02011318
0.01700042
0.01608461
0.01571270
0.01548714
0.01528033
0.01503061
0.01485595
0.01467146
0.01466323
0.01500286
0.01582024
0.01696171
0.01826729
0.01955676
0.02051306
0.02159313
0.02288998
0.02433979
0.02590503
0.02755911
0.02934137
0.03137157
0.03342982
0.03531857
0.03690196
0.03867410
0.04048308
0.04239222
0.04405037
0.04554303
0.04680261
0.04791667
0.04854978
0.04914324
0.05006436
0.05071575
0.05170760
0.05244073
0.05273954
0.05305617
0.05382987
0.05438315
0.05480003
0.05509699
0.05543149
0.05594237
0.05645316
0.05692013
0.05716514
0.05745234
0.05799262
0.05829082
0.05814221
0.05799640
0.05819573
0.05773914
0.05752982
0.05716698
0.05664486
0.05597621
0.05529651
0.05478091
0.05451038
0.05409606
0.05354497
0.05347474
0.05318901
0.05255492
0.05180658
0.05122153
0.05072853
0.05024739
0.04969419
0.04920354
0.04873963
0.04835738
0.04786172
0.04741127
0.04710365
0.04678028
0.04641306
0.04616829
0.04604582
0.04584514
0.04571299
0.04556687
0.04538154
0.04526343
0.04501859
0.04488380
0.04503052
0.04499516
0.04487243
0.04500028
0.04535787
0.04610515
0.04731951
0.04817323
0.04912221
0.05057179
0.05275982
0.05531437
0.05842527
0.06199546
0.06556307
0.06952952
0.07354908
0.07755937
0.08171324
0.08429371
0.08538933
0.08508197
0.08278705
0.08178405
0.08306203
0.08404246
0.10558188
0.10556965
0.04089870
0.02158959
0.01749577
0.01629212
0.01580952
0.01552091
0.01528265
0.01501867
0.01485140
0.01470523
0.01473524
0.01508947
0.01598329
0.01713899
0.01847635
0.01973310
0.02072401
0.02188223
0.02328278
0.02484963