/*--------------------------------*- C++ -*----------------------------------*\
  =========                 |
  \\      /  F ield         | OpenFOAM: The Open Source CFD Toolbox
   \\    /   O peration     | Website:  https://openfoam.org
    \\  /    A nd           | Version:  7
     \\/     M anipulation  |
\*---------------------------------------------------------------------------*/
FoamFile
{
    version     2.0;
    format      ascii;
    class       volSymmTensorField;
    location    "0";
    object      tauij_LES;
}
// * * * * * * * * * * * * * * * * * * * * * * * * * * * * * * * * * * * * * //

dimensions      [0 2 -2 0 0 0 0];

internalField   nonuniform List<symmTensor>
15600
(
(0.00207697 -0.00001968 0.00000000 -0.00001639 0.00000000 0.00193855)
(-0.00011302 0.00008888 0.00000000 -0.00006388 0.00000000 -0.00012864)
(0.00015123 -0.00008675 0.00000000 0.00000382 0.00000000 0.00074685)
(0.00004677 -0.00003801 0.00000000 0.00002569 0.00000000 0.00063671)
(0.00006959 -0.00008221 0.00000000 0.00009937 0.00000000 0.00070272)
(-0.00004080 0.00000416 0.00000000 0.00013063 0.00000000 0.00042874)
(-0.00002563 0.00003891 0.00000000 -0.00006369 0.00000000 0.00050590)
(0.00002852 -0.00001051 0.00000000 -0.00001612 0.00000000 0.00039771)
(0.00003527 -0.00008605 0.00000000 0.00019194 0.00000000 0.00070659)
(-0.00003283 0.00002039 0.00000000 0.00001533 0.00000000 0.00106198)
(0.00006165 -0.00009590 0.00000000 0.00017087 0.00000000 0.00101670)
(0.00007585 -0.00006822 0.00000000 0.00006632 0.00000000 0.00078788)
(0.00011642 -0.00014536 0.00000000 0.00020340 0.00000000 0.00233914)
(0.00032416 -0.00022503 0.00000000 0.00016196 0.00000000 0.00173686)
(0.00093142 -0.00049525 0.00000000 0.00028422 0.00000000 0.00242868)
(0.00088895 -0.00008847 0.00000000 0.00002231 0.00000000 0.00207999)
(0.00035177 -0.00000048 0.00000000 -0.00000070 0.00000000 0.00043860)
(0.00039629 -0.00000034 0.00000000 -0.00000026 0.00000000 0.00042404)
(0.00042742 -0.00000059 0.00000000 -0.00000088 0.00000000 0.00041488)
(0.00049206 -0.00000049 0.00000000 -0.00000096 0.00000000 0.00044083)
(0.00057153 -0.00000045 0.00000000 -0.00000108 0.00000000 0.00046765)
(0.00070147 -0.00000002 0.00000000 -0.00000015 0.00000000 0.00053730)
(0.00081346 0.00000021 0.00000000 -0.00000031 0.00000000 0.00058338)
(0.00086485 -0.00000003 0.00000000 -0.00000156 0.00000000 0.00061372)
(0.00099707 0.00000059 0.00000000 -0.00000163 0.00000000 0.00070586)
(0.00113484 0.00000144 0.00000000 -0.00000159 0.00000000 0.00081979)
(0.00121199 0.00000154 0.00000000 -0.00000216 0.00000000 0.00093613)
(0.00133732 0.00000236 0.00000000 -0.00000215 0.00000000 0.00107151)
(0.00146381 0.00000249 0.00000000 -0.00000274 0.00000000 0.00118788)
(0.00165207 0.00000358 0.00000000 -0.00000315 0.00000000 0.00134179)
(0.00182532 0.00000465 0.00000000 -0.00000337 0.00000000 0.00152832)
(0.00203917 0.00000770 0.00000000 -0.00000056 0.00000000 0.00179087)
(0.00212513 0.00000610 0.00000000 -0.00000421 0.00000000 0.00193604)
(0.00225490 0.00000717 0.00000000 -0.00000480 0.00000000 0.00207383)
(0.00232964 0.00000697 0.00000000 -0.00000490 0.00000000 0.00219842)
(0.00241502 0.00000793 0.00000000 -0.00000367 0.00000000 0.00234499)
(0.00251093 0.00000732 0.00000000 -0.00000543 0.00000000 0.00237667)
(0.00254425 0.00000796 0.00000000 -0.00000522 0.00000000 0.00248308)
(0.00256557 0.00000820 0.00000000 -0.00000618 0.00000000 0.00253908)
(0.00264460 0.00000902 0.00000000 -0.00000560 0.00000000 0.00263303)
(0.00273331 0.00000941 0.00000000 -0.00000485 0.00000000 0.00280094)
(0.00283542 0.00001087 0.00000000 -0.00000294 0.00000000 0.00295730)
(0.00293933 0.00001049 0.00000000 0.00000049 0.00000000 0.00317077)
(0.00291633 0.00001102 0.00000000 -0.00000466 0.00000000 0.00316279)
(0.00292326 0.00000965 0.00000000 -0.00000745 0.00000000 0.00316106)
(0.00293755 0.00001014 0.00000000 -0.00000562 0.00000000 0.00328985)
(0.00287385 0.00000718 0.00000000 -0.00001001 0.00000000 0.00327415)
(0.00300553 0.00000852 0.00000000 -0.00000218 0.00000000 0.00346096)
(0.00296057 0.00000925 0.00000000 -0.00000784 0.00000000 0.00344085)
(0.00301770 0.00000736 0.00000000 -0.00000992 0.00000000 0.00343985)
(0.00305574 0.00000652 0.00000000 -0.00000776 0.00000000 0.00345928)
(0.00315586 0.00000757 0.00000000 -0.00000178 0.00000000 0.00359881)
(0.00311097 0.00000663 0.00000000 -0.00000562 0.00000000 0.00361264)
(0.00314228 0.00000677 0.00000000 -0.00000850 0.00000000 0.00356673)
(0.00313413 0.00000597 0.00000000 -0.00000710 0.00000000 0.00365901)
(0.00317813 0.00000487 0.00000000 -0.00000881 0.00000000 0.00365809)
(0.00324047 0.00000508 0.00000000 -0.00000375 0.00000000 0.00367647)
(0.00319951 0.00000638 0.00000000 -0.00000696 0.00000000 0.00366274)
(0.00323795 0.00000224 0.00000000 -0.00000400 0.00000000 0.00371289)
(0.00314217 0.00000301 0.00000000 -0.00000836 0.00000000 0.00360029)
(0.00310123 0.00000308 0.00000000 -0.00000822 0.00000000 0.00357619)
(0.00305658 0.00000177 0.00000000 -0.00000787 0.00000000 0.00348166)
(0.00301121 0.00000080 0.00000000 -0.00000593 0.00000000 0.00347755)
(0.00303861 0.00000104 0.00000000 -0.00000367 0.00000000 0.00347980)
(0.00289203 0.00000144 0.00000000 -0.00000735 0.00000000 0.00334930)
(0.00275820 -0.00000048 0.00000000 -0.00000642 0.00000000 0.00324532)
(0.00267640 0.00000086 0.00000000 -0.00000787 0.00000000 0.00310937)
(0.00274808 -0.00000282 0.00000000 -0.00000003 0.00000000 0.00321231)
(0.00261521 0.00000050 0.00000000 -0.00000690 0.00000000 0.00300853)
(0.00253586 0.00000060 0.00000000 -0.00000818 0.00000000 0.00289329)
(0.00250852 -0.00000140 0.00000000 -0.00000643 0.00000000 0.00289312)
(0.00258679 -0.00000247 0.00000000 -0.00000221 0.00000000 0.00295167)
(0.00257281 -0.00000443 0.00000000 -0.00000046 0.00000000 0.00290961)
(0.00252382 -0.00000363 0.00000000 -0.00000119 0.00000000 0.00282199)
(0.00233101 -0.00000049 0.00000000 -0.00000595 0.00000000 0.00265471)
(0.00233117 -0.00000246 0.00000000 -0.00000449 0.00000000 0.00256144)
(0.00218604 -0.00000075 0.00000000 -0.00000552 0.00000000 0.00248233)
(0.00212950 -0.00000201 0.00000000 -0.00000416 0.00000000 0.00244192)
(0.00207959 -0.00000197 0.00000000 -0.00000523 0.00000000 0.00232641)
(0.00204716 -0.00000284 0.00000000 -0.00000364 0.00000000 0.00230036)
(0.00192796 -0.00000180 0.00000000 -0.00000442 0.00000000 0.00219712)
(0.00185682 -0.00000165 0.00000000 -0.00000461 0.00000000 0.00207839)
(0.00183080 -0.00000228 0.00000000 -0.00000318 0.00000000 0.00205766)
(0.00179938 -0.00000180 0.00000000 -0.00000346 0.00000000 0.00201589)
(0.00174742 -0.00000275 0.00000000 -0.00000288 0.00000000 0.00198352)
(0.00174354 -0.00000076 0.00000000 -0.00000382 0.00000000 0.00194126)
(0.00166621 -0.00000055 0.00000000 -0.00000410 0.00000000 0.00191665)
(0.00176328 -0.00000377 0.00000000 -0.00000065 0.00000000 0.00200991)
(0.00157343 -0.00000086 0.00000000 -0.00000356 0.00000000 0.00188885)
(0.00156405 -0.00000088 0.00000000 -0.00000396 0.00000000 0.00182963)
(0.00154087 -0.00000075 0.00000000 -0.00000330 0.00000000 0.00183180)
(0.00151675 0.00000010 0.00000000 -0.00000413 0.00000000 0.00182287)
(0.00149219 -0.00000059 0.00000000 -0.00000343 0.00000000 0.00182399)
(0.00145714 -0.00000112 0.00000000 -0.00000277 0.00000000 0.00181030)
(0.00143435 -0.00000038 0.00000000 -0.00000327 0.00000000 0.00177957)
(0.00139684 -0.00000024 0.00000000 -0.00000294 0.00000000 0.00179860)
(0.00134960 0.00000097 0.00000000 -0.00000378 0.00000000 0.00177348)
(0.00133991 0.00000057 0.00000000 -0.00000281 0.00000000 0.00182851)
(0.00141144 -0.00000167 0.00000000 -0.00000069 0.00000000 0.00194438)
(0.00140615 0.00000027 0.00000000 -0.00000271 0.00000000 0.00197295)
(0.00151112 0.00000132 0.00000000 -0.00000388 0.00000000 0.00212310)
(0.00160262 0.00000131 0.00000000 -0.00000395 0.00000000 0.00230891)
(0.00180633 0.00000057 0.00000000 -0.00000044 0.00000000 0.00267004)
(0.00219777 0.00000236 0.00000000 -0.00000557 0.00000000 0.00290897)
(0.00324707 0.00084274 0.00000000 0.00028428 0.00000000 0.00888441)
(0.00065824 0.00037747 0.00000000 0.00020988 0.00000000 0.00188849)
(-0.00001922 -0.00002693 0.00000000 -0.00004012 0.00000000 0.00006766)
(-0.00001109 -0.00001707 0.00000000 -0.00002360 0.00000000 0.00050097)
(0.00000126 -0.00000605 0.00000000 -0.00001668 0.00000000 -0.00002702)
(-0.00007680 -0.00020211 0.00000000 -0.00041763 0.00000000 -0.00103725)
(0.00005547 0.00003549 0.00000000 -0.00001753 0.00000000 -0.00069389)
(-0.00008809 -0.00020337 0.00000000 -0.00041691 0.00000000 -0.00137963)
(0.00002100 0.00004674 0.00000000 0.00009031 0.00000000 0.00002401)
(0.00000945 0.00004872 0.00000000 0.00013074 0.00000000 -0.00044625)
(-0.00003089 -0.00013805 0.00000000 -0.00041588 0.00000000 -0.00218646)
(-0.00004159 -0.00006966 0.00000000 -0.00011215 0.00000000 -0.00106214)
(0.00003844 0.00005905 0.00000000 0.00009302 0.00000000 -0.00021885)
(0.00003856 0.00002912 0.00000000 0.00001406 0.00000000 0.00036161)
(0.00005914 -0.00000998 0.00000000 -0.00002360 0.00000000 0.00058115)
(0.00042986 -0.00000272 0.00000000 0.00000287 0.00000000 0.00164958)
(0.00515383 -0.00014062 0.00000000 0.00010486 0.00000000 0.00525207)
(0.00007649 -0.00025334 0.00000000 0.00022267 0.00000000 0.00021254)
(0.00028872 -0.00033034 0.00000000 0.00040862 0.00000000 0.00171320)
(0.00011086 -0.00019006 0.00000000 0.00033848 0.00000000 0.00154823)
(0.00017219 -0.00024321 0.00000000 0.00036535 0.00000000 0.00160682)
(0.00015759 -0.00028035 0.00000000 0.00052354 0.00000000 0.00122084)
(0.00008651 -0.00012388 0.00000000 0.00018020 0.00000000 0.00123971)
(0.00015269 -0.00020710 0.00000000 0.00029014 0.00000000 0.00170124)
(0.00026433 -0.00036834 0.00000000 0.00054176 0.00000000 0.00187458)
(0.00014132 -0.00029047 0.00000000 0.00061079 0.00000000 0.00241629)
(0.00039020 -0.00051797 0.00000000 0.00075322 0.00000000 0.00359137)
(0.00037334 -0.00043978 0.00000000 0.00055743 0.00000000 0.00369026)
(0.00042807 -0.00054356 0.00000000 0.00083095 0.00000000 0.00497439)
(0.00104653 -0.00084098 0.00000000 0.00078710 0.00000000 0.00603645)
(0.00190349 -0.00091647 0.00000000 0.00060014 0.00000000 0.00598350)
(0.00203277 -0.00020390 0.00000000 0.00011726 0.00000000 0.00447836)
(0.00168882 0.00001082 0.00000000 0.00003240 0.00000000 0.00221065)
(0.00191178 0.00000994 0.00000000 0.00003145 0.00000000 0.00205010)
(0.00222744 0.00000694 0.00000000 0.00003386 0.00000000 0.00207808)
(0.00263205 0.00000775 0.00000000 0.00003772 0.00000000 0.00217838)
(0.00314284 0.00000972 0.00000000 0.00003990 0.00000000 0.00231336)
(0.00366924 0.00001226 0.00000000 0.00004394 0.00000000 0.00250861)
(0.00423693 0.00001849 0.00000000 0.00004624 0.00000000 0.00272353)
(0.00475055 0.00002593 0.00000000 0.00005405 0.00000000 0.00299785)
(0.00531537 0.00003433 0.00000000 0.00006322 0.00000000 0.00339612)
(0.00584977 0.00004951 0.00000000 0.00007416 0.00000000 0.00388549)
(0.00620685 0.00005774 0.00000000 0.00008698 0.00000000 0.00442750)
(0.00666117 0.00006016 0.00000000 0.00010254 0.00000000 0.00497235)
(0.00722535 0.00006306 0.00000000 0.00011252 0.00000000 0.00556805)
(0.00787782 0.00007691 0.00000000 0.00012849 0.00000000 0.00621210)
(0.00841079 0.00008739 0.00000000 0.00014684 0.00000000 0.00690283)
(0.00886216 0.00009764 0.00000000 0.00016474 0.00000000 0.00773208)
(0.00925998 0.00008415 0.00000000 0.00019333 0.00000000 0.00844683)
(0.00966764 0.00009603 0.00000000 0.00020200 0.00000000 0.00908534)
(0.00999598 0.00009825 0.00000000 0.00020754 0.00000000 0.00964646)
(0.01026638 0.00009108 0.00000000 0.00021672 0.00000000 0.01013112)
(0.01076195 0.00009442 0.00000000 0.00021958 0.00000000 0.01043461)
(0.01079411 0.00009692 0.00000000 0.00023855 0.00000000 0.01073588)
(0.01091257 0.00010129 0.00000000 0.00024140 0.00000000 0.01105249)
(0.01098195 0.00010584 0.00000000 0.00024987 0.00000000 0.01137525)
(0.01117269 0.00008485 0.00000000 0.00026230 0.00000000 0.01194507)
(0.01129981 0.00009783 0.00000000 0.00026639 0.00000000 0.01237252)
(0.01138030 0.00006958 0.00000000 0.00028710 0.00000000 0.01293125)
(0.01147056 0.00008248 0.00000000 0.00029371 0.00000000 0.01320642)
(0.01156533 0.00006739 0.00000000 0.00030465 0.00000000 0.01330102)
(0.01151349 0.00006839 0.00000000 0.00030994 0.00000000 0.01365770)
(0.01153628 0.00003796 0.00000000 0.00031946 0.00000000 0.01383891)
(0.01168164 0.00003631 0.00000000 0.00031785 0.00000000 0.01424129)
(0.01167464 0.00003966 0.00000000 0.00032792 0.00000000 0.01429070)
(0.01193481 0.00001135 0.00000000 0.00032959 0.00000000 0.01444625)
(0.01218491 0.00000071 0.00000000 0.00032570 0.00000000 0.01445603)
(0.01232273 0.00000507 0.00000000 0.00032823 0.00000000 0.01463677)
(0.01239381 -0.00001503 0.00000000 0.00032807 0.00000000 0.01490579)
(0.01266785 -0.00002058 0.00000000 0.00032728 0.00000000 0.01499313)
(0.01259850 -0.00002968 0.00000000 0.00034340 0.00000000 0.01507040)
(0.01286909 -0.00004668 0.00000000 0.00033905 0.00000000 0.01525827)
(0.01296451 -0.00003696 0.00000000 0.00034215 0.00000000 0.01509574)
(0.01288273 -0.00003537 0.00000000 0.00033141 0.00000000 0.01522949)
(0.01297303 -0.00008186 0.00000000 0.00032733 0.00000000 0.01532417)
(0.01288648 -0.00008193 0.00000000 0.00033175 0.00000000 0.01512337)
(0.01285466 -0.00008161 0.00000000 0.00032025 0.00000000 0.01508892)
(0.01279523 -0.00009092 0.00000000 0.00031693 0.00000000 0.01464297)
(0.01262380 -0.00010456 0.00000000 0.00030462 0.00000000 0.01454050)
(0.01256319 -0.00009239 0.00000000 0.00029977 0.00000000 0.01455969)
(0.01218003 -0.00009522 0.00000000 0.00029350 0.00000000 0.01428310)
(0.01188014 -0.00010745 0.00000000 0.00027917 0.00000000 0.01389316)
(0.01171353 -0.00011006 0.00000000 0.00026774 0.00000000 0.01355493)
(0.01154292 -0.00011824 0.00000000 0.00026537 0.00000000 0.01342472)
(0.01149918 -0.00011951 0.00000000 0.00026171 0.00000000 0.01312414)
(0.01133486 -0.00012695 0.00000000 0.00026010 0.00000000 0.01270071)
(0.01113973 -0.00014003 0.00000000 0.00025614 0.00000000 0.01253156)
(0.01110505 -0.00013335 0.00000000 0.00024963 0.00000000 0.01249078)
(0.01100248 -0.00014338 0.00000000 0.00024305 0.00000000 0.01220082)
(0.01091860 -0.00014252 0.00000000 0.00023330 0.00000000 0.01198176)
(0.01067690 -0.00014497 0.00000000 0.00022733 0.00000000 0.01168364)
(0.01064422 -0.00015070 0.00000000 0.00021445 0.00000000 0.01129647)
(0.01021190 -0.00014257 0.00000000 0.00021289 0.00000000 0.01095013)
(0.00999335 -0.00015342 0.00000000 0.00020401 0.00000000 0.01067717)
(0.00990549 -0.00015734 0.00000000 0.00019200 0.00000000 0.01038313)
(0.00972294 -0.00015326 0.00000000 0.00018656 0.00000000 0.01020428)
(0.00946243 -0.00014875 0.00000000 0.00017424 0.00000000 0.00990909)
(0.00926370 -0.00015314 0.00000000 0.00016481 0.00000000 0.00953324)
(0.00900742 -0.00014579 0.00000000 0.00016218 0.00000000 0.00928072)
(0.00886930 -0.00014545 0.00000000 0.00015882 0.00000000 0.00906849)
(0.00875249 -0.00015313 0.00000000 0.00015268 0.00000000 0.00897932)
(0.00868969 -0.00013966 0.00000000 0.00015030 0.00000000 0.00887961)
(0.00847955 -0.00014505 0.00000000 0.00014730 0.00000000 0.00881768)
(0.00842643 -0.00014119 0.00000000 0.00014620 0.00000000 0.00888158)
(0.00803418 -0.00013700 0.00000000 0.00014145 0.00000000 0.00873305)
(0.00799062 -0.00014609 0.00000000 0.00013943 0.00000000 0.00857005)
(0.00788878 -0.00013864 0.00000000 0.00013511 0.00000000 0.00855625)
(0.00777732 -0.00013261 0.00000000 0.00013510 0.00000000 0.00855022)
(0.00755889 -0.00012984 0.00000000 0.00013397 0.00000000 0.00850483)
(0.00733353 -0.00012800 0.00000000 0.00013220 0.00000000 0.00842615)
(0.00722449 -0.00012438 0.00000000 0.00013062 0.00000000 0.00841671)
(0.00695036 -0.00011168 0.00000000 0.00012473 0.00000000 0.00845977)
(0.00672623 -0.00010823 0.00000000 0.00012380 0.00000000 0.00852320)
(0.00646634 -0.00010167 0.00000000 0.00012733 0.00000000 0.00864444)
(0.00640870 -0.00010241 0.00000000 0.00012749 0.00000000 0.00887082)
(0.00640810 -0.00009735 0.00000000 0.00013497 0.00000000 0.00935943)
(0.00657528 -0.00008311 0.00000000 0.00014943 0.00000000 0.01011775)
(0.00674637 -0.00008879 0.00000000 0.00016046 0.00000000 0.01097310)
(0.00713802 -0.00009871 0.00000000 0.00018075 0.00000000 0.01220387)
(0.00848609 -0.00016448 0.00000000 0.00021816 0.00000000 0.01406548)
(0.00943930 0.00171779 0.00000000 0.00071827 0.00000000 0.02269759)
(0.00577345 0.00327393 0.00000000 0.00203897 0.00000000 0.01782267)
(0.00070475 0.00071868 0.00000000 0.00080800 0.00000000 0.00753792)
(0.00003678 0.00014563 0.00000000 0.00033146 0.00000000 0.00200143)
(0.00000386 0.00001440 0.00000000 0.00002665 0.00000000 0.00089545)
(-0.00000358 -0.00012875 0.00000000 -0.00032950 0.00000000 0.00088140)
(-0.00003457 -0.00007754 0.00000000 -0.00018656 0.00000000 -0.00111242)
(-0.00006729 -0.00023874 0.00000000 -0.00050765 0.00000000 0.00069840)
(-0.00004973 -0.00005313 0.00000000 -0.00005105 0.00000000 -0.00081113)
(-0.00010986 -0.00019890 0.00000000 -0.00032831 0.00000000 -0.00186950)
(-0.00024518 -0.00054388 0.00000000 -0.00112301 0.00000000 -0.00179655)
(-0.00013920 -0.00017757 0.00000000 -0.00025703 0.00000000 0.00260965)
(-0.00011916 -0.00014791 0.00000000 -0.00017606 0.00000000 -0.00267494)
(-0.00004894 -0.00004138 0.00000000 -0.00003004 0.00000000 -0.00013065)
(-0.00152792 -0.00059265 0.00000000 -0.00028061 0.00000000 -0.00095958)
(0.00203762 0.00000673 0.00000000 0.00003619 0.00000000 0.00447704)
(0.00955026 -0.00043277 0.00000000 0.00049963 0.00000000 0.01039210)
(0.00142301 -0.00129915 0.00000000 0.00103532 0.00000000 0.00164224)
(0.00060083 -0.00095496 0.00000000 0.00151825 0.00000000 0.00325402)
(0.00033204 -0.00054567 0.00000000 0.00092653 0.00000000 0.00275554)
(0.00023252 -0.00040057 0.00000000 0.00074835 0.00000000 0.00272770)
(0.00033699 -0.00051915 0.00000000 0.00084214 0.00000000 0.00218556)
(0.00042365 -0.00057614 0.00000000 0.00080907 0.00000000 0.00260956)
(0.00051210 -0.00068544 0.00000000 0.00096366 0.00000000 0.00339832)
(0.00074751 -0.00101322 0.00000000 0.00144475 0.00000000 0.00445841)
(0.00077331 -0.00109721 0.00000000 0.00166029 0.00000000 0.00488801)
(0.00076118 -0.00107421 0.00000000 0.00171837 0.00000000 0.00639917)
(0.00108422 -0.00123211 0.00000000 0.00158713 0.00000000 0.00742252)
(0.00134114 -0.00139611 0.00000000 0.00179374 0.00000000 0.00869188)
(0.00189313 -0.00136079 0.00000000 0.00136333 0.00000000 0.00948467)
(0.00266098 -0.00106849 0.00000000 0.00086216 0.00000000 0.00887239)
(0.00309686 -0.00023527 0.00000000 0.00030115 0.00000000 0.00659666)
(0.00328825 0.00004814 0.00000000 0.00015988 0.00000000 0.00427480)
(0.00386446 0.00004251 0.00000000 0.00015482 0.00000000 0.00392888)
(0.00462272 0.00002707 0.00000000 0.00016238 0.00000000 0.00396837)
(0.00556737 0.00002713 0.00000000 0.00017972 0.00000000 0.00414428)
(0.00667140 0.00003116 0.00000000 0.00019114 0.00000000 0.00438760)
(0.00774574 0.00003682 0.00000000 0.00020625 0.00000000 0.00472557)
(0.00880856 0.00005841 0.00000000 0.00022454 0.00000000 0.00510739)
(0.00974494 0.00007880 0.00000000 0.00025356 0.00000000 0.00561204)
(0.01064479 0.00009638 0.00000000 0.00029349 0.00000000 0.00632420)
(0.01144942 0.00012956 0.00000000 0.00034044 0.00000000 0.00717837)
(0.01193030 0.00014977 0.00000000 0.00040069 0.00000000 0.00807331)
(0.01252362 0.00013820 0.00000000 0.00045859 0.00000000 0.00902490)
(0.01324862 0.00013147 0.00000000 0.00050616 0.00000000 0.01003798)
(0.01406442 0.00015229 0.00000000 0.00056743 0.00000000 0.01106036)
(0.01468130 0.00017017 0.00000000 0.00063759 0.00000000 0.01212749)
(0.01509837 0.00016495 0.00000000 0.00071802 0.00000000 0.01333249)
(0.01566778 0.00011804 0.00000000 0.00080322 0.00000000 0.01451693)
(0.01617308 0.00013185 0.00000000 0.00084110 0.00000000 0.01556291)
(0.01665714 0.00012721 0.00000000 0.00087356 0.00000000 0.01640831)
(0.01711597 0.00009260 0.00000000 0.00091070 0.00000000 0.01713736)
(0.01771903 0.00009779 0.00000000 0.00093484 0.00000000 0.01760175)
(0.01791184 0.00011466 0.00000000 0.00097346 0.00000000 0.01821887)
(0.01783078 0.00011250 0.00000000 0.00101569 0.00000000 0.01862205)
(0.01777177 0.00011346 0.00000000 0.00103751 0.00000000 0.01916599)
(0.01797695 0.00004452 0.00000000 0.00108293 0.00000000 0.01999916)
(0.01801412 0.00008350 0.00000000 0.00111037 0.00000000 0.02058145)
(0.01798265 0.00000575 0.00000000 0.00117585 0.00000000 0.02132066)
(0.01809856 0.00001438 0.00000000 0.00119746 0.00000000 0.02179005)
(0.01831183 -0.00001911 0.00000000 0.00123329 0.00000000 0.02200313)
(0.01828353 -0.00001446 0.00000000 0.00124996 0.00000000 0.02250556)
(0.01848124 -0.00006721 0.00000000 0.00126231 0.00000000 0.02297720)
(0.01851179 -0.00007903 0.00000000 0.00128666 0.00000000 0.02349778)
(0.01867727 -0.00007703 0.00000000 0.00129850 0.00000000 0.02361542)
(0.01898670 -0.00014853 0.00000000 0.00131444 0.00000000 0.02375131)
(0.01947436 -0.00017410 0.00000000 0.00131515 0.00000000 0.02382066)
(0.01974075 -0.00015341 0.00000000 0.00131352 0.00000000 0.02411416)
(0.01995032 -0.00021135 0.00000000 0.00132839 0.00000000 0.02447172)
(0.02036320 -0.00022518 0.00000000 0.00133311 0.00000000 0.02461904)
(0.02044521 -0.00023830 0.00000000 0.00136896 0.00000000 0.02467583)
(0.02085325 -0.00027313 0.00000000 0.00136081 0.00000000 0.02509250)
(0.02114165 -0.00024479 0.00000000 0.00135160 0.00000000 0.02500686)
(0.02093459 -0.00024857 0.00000000 0.00134515 0.00000000 0.02505894)
(0.02102632 -0.00035129 0.00000000 0.00133784 0.00000000 0.02519195)
(0.02122222 -0.00033595 0.00000000 0.00132680 0.00000000 0.02509520)
(0.02124135 -0.00033342 0.00000000 0.00129744 0.00000000 0.02502822)
(0.02131703 -0.00033757 0.00000000 0.00127002 0.00000000 0.02441735)
(0.02109436 -0.00037024 0.00000000 0.00124517 0.00000000 0.02419238)
(0.02082054 -0.00033780 0.00000000 0.00123822 0.00000000 0.02418615)
(0.02040830 -0.00034291 0.00000000 0.00119764 0.00000000 0.02390560)
(0.02008846 -0.00034741 0.00000000 0.00116048 0.00000000 0.02329490)
(0.01995142 -0.00036962 0.00000000 0.00111139 0.00000000 0.02289050)
(0.01973043 -0.00038387 0.00000000 0.00110302 0.00000000 0.02268232)
(0.01968611 -0.00039312 0.00000000 0.00109817 0.00000000 0.02217912)
(0.01961519 -0.00039481 0.00000000 0.00106945 0.00000000 0.02164764)
(0.01933871 -0.00041468 0.00000000 0.00105586 0.00000000 0.02128936)
(0.01909746 -0.00042021 0.00000000 0.00105067 0.00000000 0.02107141)
(0.01903649 -0.00043968 0.00000000 0.00101324 0.00000000 0.02073204)
(0.01895533 -0.00044402 0.00000000 0.00098784 0.00000000 0.02036624)
(0.01883373 -0.00044649 0.00000000 0.00095428 0.00000000 0.02003195)
(0.01876655 -0.00044157 0.00000000 0.00091351 0.00000000 0.01946223)
(0.01827702 -0.00042137 0.00000000 0.00088682 0.00000000 0.01891685)
(0.01802136 -0.00046307 0.00000000 0.00086639 0.00000000 0.01840758)
(0.01789803 -0.00045735 0.00000000 0.00081934 0.00000000 0.01797210)
(0.01768379 -0.00044745 0.00000000 0.00079355 0.00000000 0.01769732)
(0.01738999 -0.00043560 0.00000000 0.00075324 0.00000000 0.01726423)
(0.01713680 -0.00044232 0.00000000 0.00071792 0.00000000 0.01675257)
(0.01681118 -0.00043363 0.00000000 0.00070987 0.00000000 0.01637141)
(0.01664167 -0.00043805 0.00000000 0.00069420 0.00000000 0.01597795)
(0.01653342 -0.00045315 0.00000000 0.00067570 0.00000000 0.01579895)
(0.01639100 -0.00042563 0.00000000 0.00065615 0.00000000 0.01568741)
(0.01614111 -0.00044390 0.00000000 0.00064276 0.00000000 0.01559201)
(0.01599189 -0.00043938 0.00000000 0.00064928 0.00000000 0.01564651)
(0.01546131 -0.00042432 0.00000000 0.00061634 0.00000000 0.01557073)
(0.01541033 -0.00044475 0.00000000 0.00060097 0.00000000 0.01544082)
(0.01528267 -0.00043641 0.00000000 0.00058951 0.00000000 0.01542021)
(0.01503868 -0.00041455 0.00000000 0.00059064 0.00000000 0.01535410)
(0.01466877 -0.00040913 0.00000000 0.00058183 0.00000000 0.01533226)
(0.01434989 -0.00040409 0.00000000 0.00057345 0.00000000 0.01530049)
(0.01407368 -0.00039304 0.00000000 0.00056161 0.00000000 0.01534378)
(0.01358017 -0.00036897 0.00000000 0.00055096 0.00000000 0.01540675)
(0.01312532 -0.00036337 0.00000000 0.00054810 0.00000000 0.01555195)
(0.01260757 -0.00034835 0.00000000 0.00055269 0.00000000 0.01582693)
(0.01229464 -0.00035232 0.00000000 0.00055957 0.00000000 0.01623399)
(0.01209266 -0.00033685 0.00000000 0.00058031 0.00000000 0.01719575)
(0.01196144 -0.00030530 0.00000000 0.00063981 0.00000000 0.01846052)
(0.01187675 -0.00032768 0.00000000 0.00068534 0.00000000 0.01996577)
(0.01220723 -0.00039864 0.00000000 0.00077596 0.00000000 0.02218526)
(0.01360023 -0.00055164 0.00000000 0.00092210 0.00000000 0.02570619)
(0.01321793 0.00178841 0.00000000 0.00147157 0.00000000 0.03454201)
(0.00959086 0.00512746 0.00000000 0.00368144 0.00000000 0.03357294)
(0.00430010 0.00412510 0.00000000 0.00442305 0.00000000 0.02306683)
(0.00185018 0.00214389 0.00000000 0.00267907 0.00000000 0.01168974)
(0.00082478 0.00099133 0.00000000 0.00128098 0.00000000 0.00921655)
(0.00002958 0.00038115 0.00000000 0.00122018 0.00000000 0.00623205)
(0.00026944 0.00010051 0.00000000 -0.00011514 0.00000000 0.00295740)
(0.00008483 0.00011594 0.00000000 0.00014607 0.00000000 0.00588620)
(0.00022737 0.00021308 0.00000000 0.00018380 0.00000000 0.00351950)
(0.00000135 -0.00009628 0.00000000 -0.00022974 0.00000000 0.00330776)
(-0.00011150 -0.00038846 0.00000000 -0.00093724 0.00000000 0.00140513)
(-0.00014439 -0.00012832 0.00000000 -0.00006797 0.00000000 0.00478515)
(-0.00001069 -0.00003382 0.00000000 -0.00006706 0.00000000 -0.00078121)
(-0.00036071 -0.00030277 0.00000000 -0.00021920 0.00000000 -0.00148795)
(-0.00258195 -0.00144613 0.00000000 -0.00089118 0.00000000 -0.00201933)
(0.00684693 0.00021032 0.00000000 0.00017206 0.00000000 0.00918569)
(0.01520425 -0.00078941 0.00000000 0.00117750 0.00000000 0.01588965)
(0.00535830 -0.00362651 0.00000000 0.00277795 0.00000000 0.00539271)
(0.00162759 -0.00210301 0.00000000 0.00303309 0.00000000 0.00521581)
(0.00080940 -0.00118019 0.00000000 0.00181679 0.00000000 0.00422545)
(0.00034056 -0.00067077 0.00000000 0.00144428 0.00000000 0.00367467)
(0.00066648 -0.00101949 0.00000000 0.00162736 0.00000000 0.00401555)
(0.00089547 -0.00121077 0.00000000 0.00171727 0.00000000 0.00470838)
(0.00099141 -0.00135188 0.00000000 0.00197123 0.00000000 0.00563885)
(0.00133261 -0.00178255 0.00000000 0.00258356 0.00000000 0.00688571)
(0.00158300 -0.00203476 0.00000000 0.00287877 0.00000000 0.00810446)
(0.00153831 -0.00199698 0.00000000 0.00303930 0.00000000 0.00945038)
(0.00181442 -0.00194899 0.00000000 0.00261568 0.00000000 0.01093579)
(0.00215875 -0.00191099 0.00000000 0.00238877 0.00000000 0.01178939)
(0.00261635 -0.00156744 0.00000000 0.00171653 0.00000000 0.01170477)
(0.00336142 -0.00106467 0.00000000 0.00111301 0.00000000 0.01078377)
(0.00406211 -0.00021566 0.00000000 0.00056020 0.00000000 0.00826874)
(0.00480276 0.00010190 0.00000000 0.00039046 0.00000000 0.00594955)
(0.00584960 0.00008838 0.00000000 0.00037674 0.00000000 0.00544039)
(0.00710214 0.00004799 0.00000000 0.00039342 0.00000000 0.00548335)
(0.00859793 0.00004155 0.00000000 0.00043495 0.00000000 0.00571067)
(0.01020430 0.00004374 0.00000000 0.00046088 0.00000000 0.00604223)
(0.01169851 0.00005154 0.00000000 0.00049497 0.00000000 0.00648402)
(0.01306644 0.00009065 0.00000000 0.00053845 0.00000000 0.00701392)
(0.01421909 0.00012060 0.00000000 0.00060629 0.00000000 0.00770081)
(0.01519370 0.00014050 0.00000000 0.00069722 0.00000000 0.00864512)
(0.01597347 0.00017543 0.00000000 0.00080606 0.00000000 0.00971553)
(0.01639538 0.00019922 0.00000000 0.00093988 0.00000000 0.01085424)
(0.01678963 0.00015111 0.00000000 0.00107049 0.00000000 0.01202886)
(0.01741378 0.00010713 0.00000000 0.00118325 0.00000000 0.01326931)
(0.01813682 0.00011690 0.00000000 0.00131313 0.00000000 0.01447366)
(0.01865330 0.00013507 0.00000000 0.00145840 0.00000000 0.01573441)
(0.01904927 0.00008731 0.00000000 0.00161836 0.00000000 0.01717570)
(0.01956268 -0.00000201 0.00000000 0.00179679 0.00000000 0.01855567)
(0.02007979 -0.00001650 0.00000000 0.00188427 0.00000000 0.01980751)
(0.02065565 -0.00003050 0.00000000 0.00195028 0.00000000 0.02079843)
(0.02120812 -0.00009992 0.00000000 0.00202307 0.00000000 0.02162256)
(0.02176605 -0.00009201 0.00000000 0.00207054 0.00000000 0.02219676)
(0.02190288 -0.00006041 0.00000000 0.00216428 0.00000000 0.02291293)
(0.02172379 -0.00006922 0.00000000 0.00225007 0.00000000 0.02346743)
(0.02152416 -0.00008771 0.00000000 0.00229587 0.00000000 0.02410159)
(0.02171276 -0.00020872 0.00000000 0.00238945 0.00000000 0.02500146)
(0.02168875 -0.00012846 0.00000000 0.00244519 0.00000000 0.02565928)
(0.02160686 -0.00024906 0.00000000 0.00256346 0.00000000 0.02645915)
(0.02171531 -0.00026761 0.00000000 0.00261286 0.00000000 0.02705296)
(0.02198616 -0.00032427 0.00000000 0.00268333 0.00000000 0.02736552)
(0.02211005 -0.00031257 0.00000000 0.00271127 0.00000000 0.02795774)
(0.02229706 -0.00036994 0.00000000 0.00274593 0.00000000 0.02854886)
(0.02238767 -0.00038754 0.00000000 0.00278226 0.00000000 0.02922147)
(0.02262727 -0.00039655 0.00000000 0.00282243 0.00000000 0.02927926)
(0.02305021 -0.00049940 0.00000000 0.00283365 0.00000000 0.02940624)
(0.02370321 -0.00053511 0.00000000 0.00283859 0.00000000 0.02961147)
(0.02403349 -0.00048921 0.00000000 0.00284466 0.00000000 0.02994022)
(0.02440067 -0.00058263 0.00000000 0.00287650 0.00000000 0.03032481)
(0.02495852 -0.00059727 0.00000000 0.00288150 0.00000000 0.03055436)
(0.02523974 -0.00060120 0.00000000 0.00293954 0.00000000 0.03060717)
(0.02560284 -0.00065264 0.00000000 0.00293918 0.00000000 0.03113605)
(0.02597768 -0.00061132 0.00000000 0.00292618 0.00000000 0.03114533)
(0.02590988 -0.00059963 0.00000000 0.00289367 0.00000000 0.03124163)
(0.02604669 -0.00074574 0.00000000 0.00287946 0.00000000 0.03143012)
(0.02636805 -0.00071156 0.00000000 0.00287834 0.00000000 0.03132093)
(0.02648568 -0.00069847 0.00000000 0.00282095 0.00000000 0.03126372)
(0.02661187 -0.00068178 0.00000000 0.00275493 0.00000000 0.03058539)
(0.02642398 -0.00072338 0.00000000 0.00271696 0.00000000 0.03030876)
(0.02601888 -0.00066527 0.00000000 0.00270299 0.00000000 0.03027651)