/*--------------------------------*- C++ -*----------------------------------*\
  =========                 |
  \\      /  F ield         | OpenFOAM: The Open Source CFD Toolbox
   \\    /   O peration     | Website:  https://openfoam.org
    \\  /    A nd           | Version:  7
     \\/     M anipulation  |
\*---------------------------------------------------------------------------*/
FoamFile
{
    version     2.0;
    format      ascii;
    class       volVectorField;
    location    "0";
    object      U_LES;
}
// * * * * * * * * * * * * * * * * * * * * * * * * * * * * * * * * * * * * * //

dimensions      [0 1 -1 0 0 0 0];

internalField   nonuniform List<vector>
15600
(
(-0.01009003 -0.00028228 0.00000000)
(0.00157285 -0.00124126 0.00000000)
(-0.00377783 0.00311415 0.00000000)
(-0.00325068 0.00403692 0.00000000)
(-0.00416888 0.00537231 0.00000000)
(-0.00179287 0.00602472 0.00000000)
(-0.00318986 0.00438593 0.00000000)
(-0.00345181 0.00350151 0.00000000)
(-0.00306067 0.00606090 0.00000000)
(-0.00254817 0.00557149 0.00000000)
(-0.00316488 0.00441491 0.00000000)
(-0.00116732 0.00147795 0.00000000)
(0.00037433 -0.00083973 0.00000000)
(0.00698803 -0.00478812 0.00000000)
(0.01723525 -0.00949865 0.00000000)
(0.01831635 -0.00194320 0.00000000)
(0.00776457 0.00004884 0.00000000)
(0.00515532 0.00004238 0.00000000)
(0.00303323 0.00003118 0.00000000)
(0.00076334 0.00003514 0.00000000)
(-0.00174353 0.00004284 0.00000000)
(-0.00472647 0.00005393 0.00000000)
(-0.00793447 0.00006775 0.00000000)
(-0.01182076 0.00006401 0.00000000)
(-0.01611890 0.00007093 0.00000000)
(-0.02048413 0.00007355 0.00000000)
(-0.02495526 0.00007557 0.00000000)
(-0.02954687 0.00007682 0.00000000)
(-0.03382612 0.00006409 0.00000000)
(-0.03777113 0.00005919 0.00000000)
(-0.04116315 0.00005368 0.00000000)
(-0.04402142 0.00005104 0.00000000)
(-0.04668487 0.00003941 0.00000000)
(-0.04882796 0.00002872 0.00000000)
(-0.05013325 0.00002351 0.00000000)
(-0.05124320 0.00001575 0.00000000)
(-0.05214632 0.00001594 0.00000000)
(-0.05283513 0.00000217 0.00000000)
(-0.05336033 0.00000972 0.00000000)
(-0.05400463 0.00000782 0.00000000)
(-0.05389762 -0.00000710 0.00000000)
(-0.05342338 -0.00000304 0.00000000)
(-0.05232690 -0.00002649 0.00000000)
(-0.05115839 -0.00002400 0.00000000)
(-0.05014717 -0.00001114 0.00000000)
(-0.04882909 -0.00002947 0.00000000)
(-0.04742803 -0.00002212 0.00000000)
(-0.04578612 -0.00002979 0.00000000)
(-0.04399969 -0.00003936 0.00000000)
(-0.04221523 -0.00003306 0.00000000)
(-0.04006417 -0.00002928 0.00000000)
(-0.03804755 -0.00004337 0.00000000)
(-0.03592787 -0.00004149 0.00000000)
(-0.03416125 -0.00001949 0.00000000)
(-0.03192852 -0.00004139 0.00000000)
(-0.02970903 -0.00003832 0.00000000)
(-0.02756908 -0.00002279 0.00000000)
(-0.02639414 -0.00002979 0.00000000)
(-0.02419003 -0.00003024 0.00000000)
(-0.02229097 -0.00003906 0.00000000)
(-0.01941471 -0.00004636 0.00000000)
(-0.01696244 -0.00002403 0.00000000)
(-0.01539000 -0.00003093 0.00000000)
(-0.01369842 -0.00004064 0.00000000)
(-0.01099956 -0.00003242 0.00000000)
(-0.00895594 -0.00003765 0.00000000)
(-0.00735158 -0.00001051 0.00000000)
(-0.00585817 -0.00003851 0.00000000)
(-0.00435606 -0.00002674 0.00000000)
(-0.00317424 -0.00001436 0.00000000)
(-0.00225464 -0.00002107 0.00000000)
(-0.00075392 -0.00002327 0.00000000)
(0.00095475 -0.00003448 0.00000000)
(0.00245574 -0.00003144 0.00000000)
(0.00403597 -0.00003055 0.00000000)
(0.00538738 -0.00001046 0.00000000)
(0.00676591 -0.00002615 0.00000000)
(0.00817809 -0.00001670 0.00000000)
(0.00906969 -0.00001645 0.00000000)
(0.01020681 -0.00002300 0.00000000)
(0.01110606 -0.00001010 0.00000000)
(0.01144661 -0.00000504 0.00000000)
(0.01195986 -0.00000544 0.00000000)
(0.01212284 0.00000123 0.00000000)
(0.01223392 0.00000231 0.00000000)
(0.01212068 -0.00000022 0.00000000)
(0.01216611 0.00000497 0.00000000)
(0.01215568 -0.00000142 0.00000000)
(0.01248473 -0.00000859 0.00000000)
(0.01214759 0.00000840 0.00000000)
(0.01174904 0.00000607 0.00000000)
(0.01120038 0.00000406 0.00000000)
(0.01062081 0.00001045 0.00000000)
(0.00999393 0.00001139 0.00000000)
(0.00882287 0.00002408 0.00000000)
(0.00758664 0.00002490 0.00000000)
(0.00603226 0.00002875 0.00000000)
(0.00452644 0.00003363 0.00000000)
(0.00231639 0.00004084 0.00000000)
(-0.00024424 0.00004275 0.00000000)
(-0.00325896 0.00004079 0.00000000)
(-0.00668813 0.00006055 0.00000000)
(-0.01082193 0.00009534 0.00000000)
(-0.01789650 0.00012803 0.00000000)
(-0.02648423 -0.00742183 0.00000000)
(-0.01017815 -0.00568868 0.00000000)
(-0.00049023 -0.00034771 0.00000000)
(-0.00007364 -0.00007157 0.00000000)
(0.00001938 -0.00000826 0.00000000)
(0.00036952 -0.00081023 0.00000000)
(-0.00055951 -0.00148357 0.00000000)
(-0.00129516 -0.00359772 0.00000000)
(-0.00030234 0.00014449 0.00000000)
(-0.00178518 -0.00105585 0.00000000)
(-0.00402524 -0.01031915 0.00000000)
(-0.00176349 -0.00386346 0.00000000)
(-0.00184694 -0.00090268 0.00000000)
(0.00522355 0.00435818 0.00000000)
(0.00084791 -0.00024801 0.00000000)
(-0.01062180 -0.00115605 0.00000000)
(-0.02081766 -0.00032217 0.00000000)
(-0.00332277 0.00338146 0.00000000)
(-0.00743599 0.00821773 0.00000000)
(-0.00589295 0.00930955 0.00000000)
(-0.00722277 0.01093142 0.00000000)
(-0.00630656 0.01175391 0.00000000)
(-0.00666680 0.01017771 0.00000000)
(-0.00865428 0.01230171 0.00000000)
(-0.00947297 0.01364459 0.00000000)
(-0.00743042 0.01496053 0.00000000)
(-0.00871879 0.01227034 0.00000000)
(-0.00526272 0.00611561 0.00000000)
(-0.00079162 -0.00041363 0.00000000)
(0.00911943 -0.00965549 0.00000000)
(0.02370342 -0.01365826 0.00000000)
(0.02660994 -0.00323302 0.00000000)
(0.01813989 0.00050245 0.00000000)
(0.01104045 0.00045549 0.00000000)
(0.00438920 0.00039916 0.00000000)
(-0.00231966 0.00043137 0.00000000)
(-0.00974159 0.00051363 0.00000000)
(-0.01819277 0.00053512 0.00000000)
(-0.02755152 0.00065520 0.00000000)
(-0.03883704 0.00074354 0.00000000)
(-0.05082479 0.00078512 0.00000000)
(-0.06271120 0.00077370 0.00000000)
(-0.07485058 0.00081622 0.00000000)
(-0.08692494 0.00080017 0.00000000)
(-0.09803629 0.00068870 0.00000000)
(-0.10775068 0.00061272 0.00000000)
(-0.11595310 0.00054374 0.00000000)
(-0.12327588 0.00044120 0.00000000)
(-0.12867563 0.00038189 0.00000000)
(-0.13329648 0.00026938 0.00000000)
(-0.13633769 0.00021922 0.00000000)
(-0.13889853 0.00013097 0.00000000)
(-0.14056243 0.00012496 0.00000000)
(-0.14125974 0.00002993 0.00000000)
(-0.14246523 0.00009239 0.00000000)
(-0.14329851 0.00004772 0.00000000)
(-0.14244409 -0.00009547 0.00000000)
(-0.14097173 -0.00006808 0.00000000)
(-0.13805584 -0.00025843 0.00000000)
(-0.13354296 -0.00026002 0.00000000)
(-0.13007072 -0.00016313 0.00000000)
(-0.12648090 -0.00030719 0.00000000)
(-0.12177852 -0.00026058 0.00000000)
(-0.11843007 -0.00030791 0.00000000)
(-0.11237835 -0.00039073 0.00000000)
(-0.10743814 -0.00037679 0.00000000)
(-0.10203442 -0.00031576 0.00000000)
(-0.09688152 -0.00040874 0.00000000)
(-0.09064683 -0.00041450 0.00000000)
(-0.08531971 -0.00027916 0.00000000)
(-0.07946471 -0.00040102 0.00000000)
(-0.07364996 -0.00041205 0.00000000)
(-0.06822731 -0.00024714 0.00000000)
(-0.06429030 -0.00031673 0.00000000)
(-0.05889352 -0.00032628 0.00000000)
(-0.05300016 -0.00043183 0.00000000)
(-0.04571769 -0.00048364 0.00000000)
(-0.03939546 -0.00028680 0.00000000)
(-0.03498737 -0.00031116 0.00000000)
(-0.03022741 -0.00041171 0.00000000)
(-0.02316942 -0.00035020 0.00000000)
(-0.01804726 -0.00039258 0.00000000)
(-0.01358037 -0.00015850 0.00000000)
(-0.01000900 -0.00033024 0.00000000)
(-0.00546483 -0.00028774 0.00000000)
(-0.00189484 -0.00017382 0.00000000)
(0.00071884 -0.00020882 0.00000000)
(0.00439667 -0.00023113 0.00000000)
(0.00872055 -0.00031121 0.00000000)
(0.01291503 -0.00029403 0.00000000)
(0.01736012 -0.00032291 0.00000000)
(0.02105605 -0.00016008 0.00000000)
(0.02488062 -0.00028950 0.00000000)
(0.02852524 -0.00017855 0.00000000)
(0.03113360 -0.00018114 0.00000000)
(0.03416424 -0.00021853 0.00000000)
(0.03660533 -0.00010260 0.00000000)
(0.03775754 -0.00005553 0.00000000)
(0.03914266 -0.00006418 0.00000000)
(0.03974684 -0.00000260 0.00000000)
(0.04009250 -0.00000965 0.00000000)
(0.04021435 -0.00003047 0.00000000)
(0.04046036 0.00002207 0.00000000)
(0.04058309 -0.00003481 0.00000000)
(0.04148053 -0.00004994 0.00000000)
(0.04074680 0.00009929 0.00000000)
(0.03975616 0.00008867 0.00000000)
(0.03853744 0.00007865 0.00000000)
(0.03697953 0.00012828 0.00000000)
(0.03522594 0.00012229 0.00000000)
(0.03236709 0.00022226 0.00000000)
(0.02902189 0.00022695 0.00000000)
(0.02498360 0.00028244 0.00000000)
(0.02062482 0.00033378 0.00000000)
(0.01430105 0.00041894 0.00000000)
(0.00735372 0.00051001 0.00000000)
(-0.00086360 0.00052402 0.00000000)
(-0.01028500 0.00069220 0.00000000)
(-0.02253604 0.00089639 0.00000000)
(-0.04013635 0.00141771 0.00000000)
(-0.04941918 -0.01027351 0.00000000)
(-0.03317085 -0.02002808 0.00000000)
(-0.00720577 -0.00826481 0.00000000)
(-0.00032124 -0.00046865 0.00000000)
(0.00022725 0.00001429 0.00000000)
(0.00221214 0.00113321 0.00000000)
(-0.00134734 -0.00244038 0.00000000)
(0.00326899 0.00080072 0.00000000)
(-0.00217620 -0.00215582 0.00000000)
(-0.00235961 -0.00552311 0.00000000)
(0.00213719 -0.00792726 0.00000000)
(0.00450476 0.00813978 0.00000000)
(-0.01199482 -0.01401985 0.00000000)
(-0.00240840 -0.00205005 0.00000000)
(-0.02620156 -0.01372772 0.00000000)
(-0.01722645 -0.00134018 0.00000000)
(-0.02912937 0.00051301 0.00000000)
(-0.01592752 0.01337499 0.00000000)
(-0.01244278 0.01734873 0.00000000)
(-0.01016318 0.01652382 0.00000000)
(-0.00926986 0.01811845 0.00000000)
(-0.01146648 0.01850282 0.00000000)
(-0.01372870 0.02078065 0.00000000)
(-0.01630291 0.02364492 0.00000000)
(-0.01833889 0.02743382 0.00000000)
(-0.01726386 0.02731985 0.00000000)
(-0.01396694 0.02266703 0.00000000)
(-0.01157559 0.01347952 0.00000000)
(-0.00330166 0.00212735 0.00000000)
(0.00786032 -0.01063777 0.00000000)
(0.02333374 -0.01468726 0.00000000)
(0.02906368 -0.00305911 0.00000000)
(0.02132481 0.00134858 0.00000000)
(0.01058394 0.00126646 0.00000000)
(-0.00002162 0.00114708 0.00000000)
(-0.01081682 0.00124558 0.00000000)
(-0.02269653 0.00146135 0.00000000)
(-0.03609115 0.00154692 0.00000000)
(-0.05107123 0.00186729 0.00000000)
(-0.06821781 0.00206669 0.00000000)
(-0.08593231 0.00213723 0.00000000)
(-0.10318944 0.00207688 0.00000000)
(-0.12040295 0.00217246 0.00000000)
(-0.13734651 0.00207858 0.00000000)
(-0.15224397 0.00177151 0.00000000)
(-0.16479649 0.00152775 0.00000000)
(-0.17521434 0.00133599 0.00000000)
(-0.18375175 0.00106873 0.00000000)
(-0.19068434 0.00089982 0.00000000)
(-0.19582288 0.00062025 0.00000000)
(-0.19890239 0.00050240 0.00000000)
(-0.20139554 0.00027754 0.00000000)
(-0.20247118 0.00023386 0.00000000)
(-0.20340691 0.00005810 0.00000000)
(-0.20357101 0.00016524 0.00000000)
(-0.20356893 0.00001415 0.00000000)
(-0.20128767 -0.00033057 0.00000000)
(-0.19789183 -0.00030107 0.00000000)
(-0.19302459 -0.00073764 0.00000000)
(-0.18651018 -0.00071121 0.00000000)
(-0.18139997 -0.00051359 0.00000000)
(-0.17562022 -0.00081561 0.00000000)
(-0.16931137 -0.00070508 0.00000000)
(-0.16308066 -0.00088950 0.00000000)
(-0.15516739 -0.00098708 0.00000000)
(-0.14764986 -0.00101467 0.00000000)
(-0.13952869 -0.00087575 0.00000000)
(-0.13185660 -0.00110076 0.00000000)
(-0.12286456 -0.00109297 0.00000000)
(-0.11474937 -0.00086021 0.00000000)
(-0.10663207 -0.00099255 0.00000000)
(-0.09872088 -0.00106721 0.00000000)
(-0.09117832 -0.00070342 0.00000000)
(-0.08443146 -0.00086156 0.00000000)
(-0.07665919 -0.00094577 0.00000000)
(-0.06850539 -0.00115108 0.00000000)
(-0.05844764 -0.00125292 0.00000000)
(-0.04974743 -0.00081247 0.00000000)
(-0.04290452 -0.00082426 0.00000000)
(-0.03549090 -0.00110879 0.00000000)
(-0.02616558 -0.00091893 0.00000000)
(-0.01903972 -0.00100613 0.00000000)
(-0.01268622 -0.00048894 0.00000000)
(-0.00717037 -0.00084843 0.00000000)
(-0.00072364 -0.00077484 0.00000000)
(0.00465345 -0.00051389 0.00000000)
(0.00896787 -0.00054940 0.00000000)
(0.01418517 -0.00064404 0.00000000)
(0.02011569 -0.00082391 0.00000000)
(0.02610556 -0.00077690 0.00000000)
(0.03237477 -0.00081716 0.00000000)
(0.03790528 -0.00051239 0.00000000)
(0.04359597 -0.00076154 0.00000000)
(0.04868919 -0.00047614 0.00000000)
(0.05271278 -0.00050025 0.00000000)
(0.05709677 -0.00057014 0.00000000)
(0.06061777 -0.00029406 0.00000000)
(0.06270579 -0.00019628 0.00000000)
(0.06493801 -0.00019492 0.00000000)
(0.06609326 -0.00003602 0.00000000)
(0.06678392 -0.00006226 0.00000000)
(0.06757295 -0.00009881 0.00000000)
(0.06820240 0.00002826 0.00000000)
(0.06880437 -0.00012549 0.00000000)
(0.07001089 -0.00009485 0.00000000)
(0.06931058 0.00021403 0.00000000)
(0.06810171 0.00021212 0.00000000)
(0.06659008 0.00019898 0.00000000)
(0.06464847 0.00031948 0.00000000)
(0.06230271 0.00032397 0.00000000)
(0.05855020 0.00056698 0.00000000)
(0.05394253 0.00061940 0.00000000)
(0.04830343 0.00075569 0.00000000)
(0.04190623 0.00091099 0.00000000)
(0.03286102 0.00115551 0.00000000)
(0.02234587 0.00137798 0.00000000)
(0.01045313 0.00145211 0.00000000)
(-0.00348198 0.00187787 0.00000000)
(-0.02208673 0.00247830 0.00000000)
(-0.04625528 0.00342633 0.00000000)
(-0.05635627 -0.01079968 0.00000000)
(-0.04138489 -0.02679908 0.00000000)
(-0.01749105 -0.01966493 0.00000000)
(-0.00490491 -0.00437485 0.00000000)
(0.00408725 0.00281157 0.00000000)
(0.00348694 0.00934678 0.00000000)
(0.00668023 0.00464996 0.00000000)
(0.00885692 0.01061765 0.00000000)
(0.01094482 0.00971467 0.00000000)
(0.00999496 0.00861448 0.00000000)
(0.01037324 0.00214553 0.00000000)
(0.00673919 0.01696382 0.00000000)
(-0.00112833 -0.00366622 0.00000000)
(-0.02308989 -0.01993282 0.00000000)
(-0.05056250 -0.03411665 0.00000000)
(-0.00615456 0.00403510 0.00000000)
(-0.03229951 0.00161520 0.00000000)
(-0.03228833 0.02382006 0.00000000)
(-0.02015091 0.02762883 0.00000000)
(-0.01665726 0.02519936 0.00000000)
(-0.01275192 0.02756227 0.00000000)
(-0.01823786 0.03042680 0.00000000)
(-0.02159452 0.03324857 0.00000000)
(-0.02421188 0.03688061 0.00000000)
(-0.02698784 0.04056464 0.00000000)
(-0.02690980 0.03999901 0.00000000)
(-0.02213171 0.03390242 0.00000000)
(-0.01756756 0.02072465 0.00000000)
(-0.00820480 0.00578102 0.00000000)
(0.00397773 -0.00946603 0.00000000)
(0.01907092 -0.01411047 0.00000000)
(0.02665687 -0.00208371 0.00000000)
(0.01905705 0.00249805 0.00000000)
(0.00550949 0.00244648 0.00000000)
(-0.00838453 0.00227721 0.00000000)
(-0.02268844 0.00247350 0.00000000)
(-0.03833446 0.00285362 0.00000000)
(-0.05592227 0.00306343 0.00000000)
(-0.07538378 0.00360378 0.00000000)
(-0.09669919 0.00390739 0.00000000)
(-0.11811017 0.00396397 0.00000000)
(-0.13870670 0.00381757 0.00000000)
(-0.15904173 0.00393161 0.00000000)
(-0.17810712 0.00367921 0.00000000)
(-0.19449834 0.00309842 0.00000000)
(-0.20784554 0.00262825 0.00000000)
(-0.21896492 0.00226237 0.00000000)
(-0.22776896 0.00178589 0.00000000)
(-0.23454183 0.00144825 0.00000000)
(-0.23916277 0.00096264 0.00000000)
(-0.24181387 0.00076367 0.00000000)
(-0.24354430 0.00038700 0.00000000)
(-0.24390492 0.00028596 0.00000000)
(-0.24384869 0.00005268 0.00000000)
(-0.24328013 0.00015900 0.00000000)
(-0.24190825 -0.00015184 0.00000000)
(-0.23815515 -0.00071371 0.00000000)
(-0.23338940 -0.00071023 0.00000000)
(-0.22690991 -0.00140655 0.00000000)
(-0.21922536 -0.00132466 0.00000000)
(-0.21246006 -0.00106672 0.00000000)
(-0.20513130 -0.00150477 0.00000000)
(-0.19728455 -0.00133732 0.00000000)
(-0.18950433 -0.00168482 0.00000000)
(-0.18017858 -0.00176724 0.00000000)
(-0.17095350 -0.00186690 0.00000000)
(-0.16127683 -0.00165491 0.00000000)
(-0.15158882 -0.00201967 0.00000000)
(-0.14094982 -0.00199283 0.00000000)
(-0.13092707 -0.00169514 0.00000000)
(-0.12128529 -0.00175814 0.00000000)
(-0.11212588 -0.00191338 0.00000000)
(-0.10312725 -0.00136289 0.00000000)
(-0.09474954 -0.00160688 0.00000000)
(-0.08529331 -0.00179062 0.00000000)
(-0.07530233 -0.00209938 0.00000000)
(-0.06373316 -0.00224496 0.00000000)
(-0.05362101 -0.00156768 0.00000000)
(-0.04504700 -0.00151974 0.00000000)
(-0.03571264 -0.00203124 0.00000000)
(-0.02514232 -0.00166696 0.00000000)
(-0.01673125 -0.00178647 0.00000000)
(-0.00916304 -0.00099498 0.00000000)
(-0.00224403 -0.00152787 0.00000000)
(0.00545643 -0.00141275 0.00000000)
(0.01222821 -0.00103123 0.00000000)
(0.01800710 -0.00101948 0.00000000)
(0.02415750 -0.00119784 0.00000000)
(0.03096174 -0.00148732 0.00000000)
(0.03805657 -0.00140256 0.00000000)
(0.04542598 -0.00145346 0.00000000)
(0.05229748 -0.00105001 0.00000000)
(0.05917741 -0.00139006 0.00000000)
(0.06529446 -0.00089156 0.00000000)
(0.07034493 -0.00093395 0.00000000)
(0.07556030 -0.00102616 0.00000000)
(0.07985023 -0.00056799 0.00000000)
(0.08282574 -0.00043320 0.00000000)
(0.08580122 -0.00040548 0.00000000)
(0.08754222 -0.00011054 0.00000000)
(0.08872825 -0.00017200 0.00000000)
(0.09014934 -0.00022315 0.00000000)
(0.09123692 -0.00000867 0.00000000)
(0.09235304 -0.00026888 0.00000000)
(0.09379076 -0.00013628 0.00000000)
(0.09329839 0.00032041 0.00000000)
(0.09215089 0.00035493 0.00000000)
(0.09062231 0.00033828 0.00000000)
(0.08875112 0.00054636 0.00000000)
(0.08609140 0.00058468 0.00000000)
(0.08208168 0.00099450 0.00000000)
(0.07687548 0.00112474 0.00000000)
(0.07046984 0.00136024 0.00000000)
(0.06282952 0.00166836 0.00000000)
(0.05222377 0.00215898 0.00000000)
(0.03956082 0.00254301 0.00000000)
(0.02536202 0.00275393 0.00000000)
(0.00829243 0.00352442 0.00000000)
(-0.01482941 0.00468119 0.00000000)
(-0.04299260 0.00583877 0.00000000)
(-0.05561540 -0.00991317 0.00000000)
(-0.04345492 -0.02997812 0.00000000)
(-0.02234691 -0.02586728 0.00000000)
(-0.00400573 -0.00686781 0.00000000)
(0.00790007 0.00944876 0.00000000)
(0.01305826 0.02262375 0.00000000)
(0.02159382 0.02647923 0.00000000)
(0.02925018 0.03568940 0.00000000)
(0.02812932 0.03811002 0.00000000)
(0.02737724 0.03713459 0.00000000)
(0.02297984 0.02962130 0.00000000)
(0.00599379 0.03153441 0.00000000)
(0.04180200 0.03406254 0.00000000)
(0.02464297 0.02348244 0.00000000)
(0.14847859 0.05476492 0.00000000)
(0.03098869 0.01457871 0.00000000)
(-0.02698602 0.00211658 0.00000000)
(-0.04926930 0.03308871 0.00000000)
(-0.03110529 0.03718608 0.00000000)
(-0.02344155 0.03444137 0.00000000)
(-0.01836386 0.03787430 0.00000000)
(-0.02452471 0.04147820 0.00000000)
(-0.02897077 0.04552546 0.00000000)
(-0.03084261 0.05005966 0.00000000)
(-0.03467238 0.05262412 0.00000000)
(-0.03444329 0.05094864 0.00000000)
(-0.02987102 0.04264793 0.00000000)
(-0.02295360 0.02695696 0.00000000)
(-0.01315634 0.00931543 0.00000000)
(-0.00077997 -0.00717445 0.00000000)
(0.01322811 -0.01254261 0.00000000)
(0.02074646 -0.00070594 0.00000000)
(0.01297282 0.00385631 0.00000000)
(-0.00269146 0.00392113 0.00000000)
(-0.01915107 0.00374945 0.00000000)
(-0.03626859 0.00406414 0.00000000)
(-0.05503806 0.00463453 0.00000000)
(-0.07602275 0.00501756 0.00000000)
(-0.09877995 0.00575973 0.00000000)
(-0.12272457 0.00611747 0.00000000)
(-0.14622690 0.00611002 0.00000000)
(-0.16861752 0.00584885 0.00000000)
(-0.19031828 0.00592521 0.00000000)
(-0.21005364 0.00540918 0.00000000)
(-0.22640416 0.00451586 0.00000000)
(-0.23980896 0.00379073 0.00000000)
(-0.25066004 0.00322439 0.00000000)
(-0.25916782 0.00250941 0.00000000)
(-0.26518715 0.00195073 0.00000000)
(-0.26892596 0.00123894 0.00000000)
(-0.27076769 0.00094094 0.00000000)
(-0.27154216 0.00042471 0.00000000)
(-0.27118888 0.00025797 0.00000000)
(-0.27018366 -0.00001227 0.00000000)
(-0.26881864 0.00004724 0.00000000)
(-0.26629111 -0.00046497 0.00000000)
(-0.26132721 -0.00122075 0.00000000)
(-0.25543130 -0.00126744 0.00000000)
(-0.24786362 -0.00220248 0.00000000)
(-0.23930170 -0.00206913 0.00000000)
(-0.23129995 -0.00179856 0.00000000)
(-0.22284830 -0.00232788 0.00000000)
(-0.21406497 -0.00211694 0.00000000)
(-0.20497619 -0.00260800 0.00000000)
(-0.19485873 -0.00270047 0.00000000)
(-0.18424415 -0.00287391 0.00000000)
(-0.17346408 -0.00260473 0.00000000)
(-0.16240202 -0.00310114 0.00000000)
(-0.15071788 -0.00306015 0.00000000)
(-0.13935403 -0.00271284 0.00000000)
(-0.12867344 -0.00266959 0.00000000)
(-0.11883726 -0.00287973 0.00000000)
(-0.10887782 -0.00218859 0.00000000)
(-0.09928575 -0.00251499 0.00000000)
(-0.08856645 -0.00280736 0.00000000)
(-0.07734748 -0.00320507 0.00000000)
(-0.06490560 -0.00338653 0.00000000)
(-0.05395638 -0.00249814 0.00000000)
(-0.04410549 -0.00237602 0.00000000)
(-0.03343495 -0.00310598 0.00000000)
(-0.02223617 -0.00255564 0.00000000)
(-0.01293933 -0.00266940 0.00000000)
(-0.00455030 -0.00164664 0.00000000)
(0.00341664 -0.00233464 0.00000000)
(0.01200717 -0.00215852 0.00000000)
(0.01981475 -0.00170598 0.00000000)
(0.02675482 -0.00160631 0.00000000)
(0.03348803 -0.00184837 0.00000000)
(0.04082139 -0.00224253 0.00000000)
(0.04858603 -0.00211612 0.00000000)
(0.05657629 -0.00218675 0.00000000)
(0.06443205 -0.00173237 0.00000000)
(0.07202161 -0.00211184 0.00000000)
(0.07884854 -0.00141461 0.00000000)
(0.08471883 -0.00145137 0.00000000)
(0.09043240 -0.00154593 0.00000000)
(0.09514529 -0.00091423 0.00000000)
(0.09890951 -0.00076124 0.00000000)
(0.10250677 -0.00069691 0.00000000)
(0.10474873 -0.00023709 0.00000000)
(0.10647375 -0.00033488 0.00000000)
(0.10844671 -0.00040669 0.00000000)
(0.11001326 -0.00009490 0.00000000)
(0.11148870 -0.00044747 0.00000000)
(0.11314831 -0.00018841 0.00000000)
(0.11292077 0.00039915 0.00000000)
(0.11198714 0.00049606 0.00000000)
(0.11049938 0.00046537 0.00000000)
(0.10895792 0.00077343 0.00000000)
(0.10622708 0.00087765 0.00000000)
(0.10221053 0.00145415 0.00000000)
(0.09687835 0.00170182 0.00000000)
(0.09015340 0.00204059 0.00000000)
(0.08174127 0.00254243 0.00000000)
(0.07044624 0.00333525 0.00000000)
(0.05655203 0.00389629 0.00000000)
(0.04106134 0.00432947 0.00000000)
(0.02196126 0.00553225 0.00000000)
(-0.00407011 0.00735714 0.00000000)
(-0.03464145 0.00856040 0.00000000)
(-0.05024038 -0.00825482 0.00000000)
(-0.04041053 -0.03052156 0.00000000)
(-0.02079081 -0.02664913 0.00000000)
(-0.00098672 -0.00536964 0.00000000)
(0.01317422 0.01859331 0.00000000)
(0.02999865 0.04077162 0.00000000)
(0.04208004 0.05443007 0.00000000)
(0.05004271 0.06987928 0.00000000)
(0.04111717 0.07860069 0.00000000)
(0.06095559 0.08419848 0.00000000)
(0.05881258 0.08418476 0.00000000)
(0.03651466 0.08022227 0.00000000)
(0.09331856 0.11698235 0.00000000)
(0.19635094 0.16721760 0.00000000)
(0.43673434 0.18819027 0.00000000)
(0.10026724 0.02914515 0.00000000)
(-0.00912605 0.00346155 0.00000000)
(-0.06082551 0.03801793 0.00000000)
(-0.04231270 0.04567272 0.00000000)
(-0.03001681 0.04393630 0.00000000)
(-0.02703817 0.04882386 0.00000000)
(-0.03104476 0.05233088 0.00000000)
(-0.03533703 0.05628938 0.00000000)
(-0.03784811 0.06257641 0.00000000)
(-0.04051991 0.06225151 0.00000000)
(-0.04027173 0.05852043 0.00000000)
(-0.03528434 0.04839356 0.00000000)
(-0.02798697 0.03196848 0.00000000)
(-0.01854474 0.01313796 0.00000000)
(-0.00652624 -0.00418669 0.00000000)
(0.00604413 -0.01031208 0.00000000)
(0.01281353 0.00088315 0.00000000)
(0.00445835 0.00540339 0.00000000)
(-0.01272366 0.00563644 0.00000000)
(-0.03115838 0.00553290 0.00000000)
(-0.05054439 0.00598303 0.00000000)
(-0.07184394 0.00677954 0.00000000)
(-0.09541853 0.00735068 0.00000000)
(-0.12035456 0.00823117 0.00000000)
(-0.14571187 0.00858224 0.00000000)
(-0.17022565 0.00846587 0.00000000)
(-0.19336279 0.00807371 0.00000000)
(-0.21532260 0.00802697 0.00000000)
(-0.23468704 0.00716243 0.00000000)
(-0.25037321 0.00594157 0.00000000)
(-0.26305329 0.00495563 0.00000000)
(-0.27332618 0.00417602 0.00000000)
(-0.28115689 0.00319241 0.00000000)
(-0.28645019 0.00238419 0.00000000)
(-0.28922986 0.00144214 0.00000000)
(-0.29031709 0.00101555 0.00000000)
(-0.29014954 0.00038553 0.00000000)
(-0.28899506 0.00014358 0.00000000)
(-0.28739970 -0.00014670 0.00000000)
(-0.28519432 -0.00017670 0.00000000)
(-0.28162221 -0.00091087 0.00000000)
(-0.27571314 -0.00183586 0.00000000)
(-0.26904835 -0.00194242 0.00000000)
(-0.26073300 -0.00308810 0.00000000)
(-0.25151687 -0.00293549 0.00000000)
(-0.24246702 -0.00268097 0.00000000)
(-0.23312616 -0.00324410 0.00000000)
(-0.22367314 -0.00302217 0.00000000)
(-0.21370029 -0.00362263 0.00000000)
(-0.20307721 -0.00377420 0.00000000)
(-0.19146005 -0.00400297 0.00000000)
(-0.18000748 -0.00370318 0.00000000)
(-0.16782302 -0.00431826 0.00000000)
(-0.15535175 -0.00426730 0.00000000)
(-0.14311205 -0.00387214 0.00000000)
(-0.13180653 -0.00371826 0.00000000)
(-0.12143733 -0.00393657 0.00000000)
(-0.11086754 -0.00316224 0.00000000)
(-0.10030893 -0.00357632 0.00000000)
(-0.08865631 -0.00396397 0.00000000)
(-0.07660108 -0.00443810 0.00000000)
(-0.06368328 -0.00463927 0.00000000)
(-0.05219905 -0.00357113 0.00000000)
(-0.04139821 -0.00338226 0.00000000)
(-0.02982860 -0.00428659 0.00000000)
(-0.01839124 -0.00358690 0.00000000)
(-0.00846451 -0.00362582 0.00000000)
(0.00054129 -0.00244308 0.00000000)
(0.00929410 -0.00324143 0.00000000)
(0.01851323 -0.00300261 0.00000000)
(0.02712492 -0.00250891 0.00000000)
(0.03498151 -0.00230417 0.00000000)
(0.04217158 -0.00256897 0.00000000)
(0.04982198 -0.00305680 0.00000000)
(0.05796098 -0.00289403 0.00000000)
(0.06629871 -0.00300097 0.00000000)
(0.07486409 -0.00253941 0.00000000)
(0.08288955 -0.00288618 0.00000000)
(0.09017254 -0.00204687 0.00000000)
(0.09659418 -0.00203713 0.00000000)
(0.10266097 -0.00211172 0.00000000)
(0.10771013 -0.00132988 0.00000000)
(0.11204179 -0.00117080 0.00000000)
(0.11613481 -0.00106870 0.00000000)
(0.11894945 -0.00042136 0.00000000)
(0.12110714 -0.00054150 0.00000000)
(0.12351480 -0.00064126 0.00000000)
(0.12556728 -0.00023167 0.00000000)
(0.12731697 -0.00064504 0.00000000)
(0.12904432 -0.00026707 0.00000000)
(0.12924557 0.00044836 0.00000000)
(0.12842106 0.00062152 0.00000000)
(0.12715876 0.00057660 0.00000000)
(0.12594849 0.00098054 0.00000000)
(0.12329939 0.00118881 0.00000000)
(0.11944516 0.00192554 0.00000000)
(0.11418438 0.00231892 0.00000000)
(0.10738552 0.00277421 0.00000000)
(0.09852278 0.00350967 0.00000000)
(0.08706994 0.00462495 0.00000000)
(0.07262669 0.00539635 0.00000000)
(0.05634888 0.00608454 0.00000000)
(0.03609257 0.00778691 0.00000000)
(0.00838935 0.01037510 0.00000000)
(-0.02360604 0.01152309 0.00000000)
(-0.04156711 -0.00568080 0.00000000)
(-0.03488914 -0.02937873 0.00000000)
(-0.01539832 -0.02513970 0.00000000)
(0.00491259 -0.00326548 0.00000000)
(0.02395549 0.02679596 0.00000000)
(0.04212563 0.05541368 0.00000000)
(0.05984405 0.07825086 0.00000000)
(0.06748071 0.10451862 0.00000000)
(0.06823087 0.12727354 0.00000000)
(0.09357011 0.13363185 0.00000000)
(0.09710967 0.14347643 0.00000000)
(0.09663774 0.14152766 0.00000000)
(0.14879908 0.23416667 0.00000000)
(0.39747521 0.32778169 0.00000000)
(0.63001390 0.31602285 0.00000000)
(0.20053964 0.05154216 0.00000000)
(0.02206012 0.00766791 0.00000000)
(-0.06454503 0.03761545 0.00000000)
(-0.05140225 0.05233699 0.00000000)
(-0.03637781 0.05315607 0.00000000)
(-0.03408379 0.05861159 0.00000000)
(-0.03663858 0.06214259 0.00000000)
(-0.04097694 0.06602171 0.00000000)
(-0.04349068 0.07126396 0.00000000)
(-0.04522440 0.07000987 0.00000000)
(-0.04452485 0.06433399 0.00000000)
(-0.03987674 0.05350852 0.00000000)
(-0.03295897 0.03653190 0.00000000)
(-0.02392236 0.01691096 0.00000000)
(-0.01268388 -0.00096901 0.00000000)
(-0.00166191 -0.00764162 0.00000000)
(0.00370983 0.00266961 0.00000000)
(-0.00543884 0.00713275 0.00000000)
(-0.02370204 0.00755747 0.00000000)
(-0.04367557 0.00759024 0.00000000)
(-0.06487710 0.00819452 0.00000000)
(-0.08813653 0.00924086 0.00000000)
(-0.11350662 0.00998820 0.00000000)
(-0.13970825 0.01093002 0.00000000)
(-0.16567700 0.01120900 0.00000000)
(-0.19034715 0.01095004 0.00000000)
(-0.21360993 0.01041762 0.00000000)
(-0.23510301 0.01015660 0.00000000)
(-0.25352967 0.00887954 0.00000000)
(-0.26823313 0.00733307 0.00000000)
(-0.27999375 0.00608509 0.00000000)
(-0.28946019 0.00508822 0.00000000)
(-0.29649931 0.00381042 0.00000000)
(-0.30094593 0.00273853 0.00000000)
(-0.30287070 0.00157872 0.00000000)
(-0.30332373 0.00098978 0.00000000)
(-0.30236587 0.00026589 0.00000000)
(-0.30053327 -0.00004245 0.00000000)
(-0.29836375 -0.00035538 0.00000000)
(-0.29540558 -0.00051021 0.00000000)
(-0.29099305 -0.00145794 0.00000000)
(-0.28445833 -0.00254625 0.00000000)
(-0.27708464 -0.00272582 0.00000000)
(-0.26821213 -0.00404007 0.00000000)
(-0.25855751 -0.00391820 0.00000000)
(-0.24870009 -0.00368605 0.00000000)
(-0.23879557 -0.00423327 0.00000000)
(-0.22887123 -0.00405125 0.00000000)
(-0.21819662 -0.00471759 0.00000000)
(-0.20710720 -0.00496464 0.00000000)
(-0.19484960 -0.00522849 0.00000000)
(-0.18287465 -0.00494910 0.00000000)
(-0.16983097 -0.00565335 0.00000000)
(-0.15681031 -0.00558502 0.00000000)
(-0.14401994 -0.00513893 0.00000000)
(-0.13226252 -0.00488465 0.00000000)
(-0.12142180 -0.00507001 0.00000000)
(-0.11040905 -0.00426529 0.00000000)
(-0.09908353 -0.00477297 0.00000000)
(-0.08681687 -0.00522776 0.00000000)
(-0.07415725 -0.00577649 0.00000000)
(-0.06100127 -0.00596661 0.00000000)
(-0.04915413 -0.00475613 0.00000000)
(-0.03767073 -0.00451937 0.00000000)
(-0.02552762 -0.00553935 0.00000000)
(-0.01407148 -0.00474201 0.00000000)
(-0.00369824 -0.00463370 0.00000000)
(0.00581758 -0.00337390 0.00000000)
(0.01519304 -0.00422145 0.00000000)
(0.02477493 -0.00394811 0.00000000)
(0.03405104 -0.00340969 0.00000000)
(0.04260130 -0.00311052 0.00000000)
(0.05028132 -0.00335307 0.00000000)
(0.05809321 -0.00390059 0.00000000)
(0.06636596 -0.00372538 0.00000000)
(0.07491547 -0.00389450 0.00000000)
(0.08398502 -0.00345792 0.00000000)
(0.09231573 -0.00369463 0.00000000)
(0.09989868 -0.00278384 0.00000000)
(0.10672536 -0.00267966 0.00000000)
(0.11304224 -0.00272044 0.00000000)
(0.11826905 -0.00180978 0.00000000)
(0.12308245 -0.00164730 0.00000000)
(0.12755655 -0.00150145 0.00000000)
(0.13084421 -0.00067377 0.00000000)
(0.13346313 -0.00079766 0.00000000)
(0.13628841 -0.00091102 0.00000000)
(0.13871517 -0.00042606 0.00000000)
(0.14068522 -0.00085553 0.00000000)
(0.14244558 -0.00038908 0.00000000)
(0.14299523 0.00046509 0.00000000)
(0.14245235 0.00072620 0.00000000)