/*--------------------------------*- C++ -*----------------------------------*\
  =========                 |
  \\      /  F ield         | OpenFOAM: The Open Source CFD Toolbox
   \\    /   O peration     | Website:  https://openfoam.org
    \\  /    A nd           | Version:  7
     \\/     M anipulation  |
\*---------------------------------------------------------------------------*/
FoamFile
{
    version     2.0;
    format      ascii;
    class       volScalarField;
    location    "20000";
    object      Cx;
}
// * * * * * * * * * * * * * * * * * * * * * * * * * * * * * * * * * * * * * //

dimensions      [0 1 0 0 0 0 0];

internalField   nonuniform List<scalar> 
15600
(
0.027533067843108
0.0825992000907869
0.137645601849956
0.192516142051959
0.246808160427377
0.299831945679533
0.350819668114647
0.399463645406047
0.446019640159904
0.490904886580662
0.53453306029957
0.57726843038006
0.619422469534553
0.661284243396026
0.703134022885246
0.745201693216725
0.78757495969276
0.830234260204188
0.873145949378267
0.916273343499207
0.95957951158629
1.00302785393535
1.04657988139514
1.09020731774352
1.13394465144645
1.17789373672706
1.22217898601974
1.26692585627433
1.31226649882517
1.3583370593554
1.40527665659201
1.45321841408165
1.50222724408961
1.55229864982975
1.6033982029246
1.65546812746215
1.70842164274756
1.76213691248049
1.81646406085863
1.87122403919671
1.92621456423587
1.981276489805
2.03634262549122
2.09140876117743
2.14647489686365
2.20154103254987
2.25660716823608
2.3116733039223
2.36673943960851
2.42180557529473
2.47687171098095
2.53193784666716
2.58700398235338
2.64207011803959
2.69713625372581
2.75220238941202
2.80726852509824
2.86233466078446
2.91740079647067
2.97246693215689
3.0275330678431
3.08259920352932
3.13766533921553
3.19273147490175
3.24779761058797
3.30286374627418
3.3579298819604
3.41299601764662
3.46806215333283
3.52312828901905
3.57819442470526
3.63326056039148
3.68832669607769
3.74339283176391
3.79845896745013
3.85352510313635
3.90859123882257
3.96365737450878
4.018723510195
4.07378543576413
4.12877596080329
4.18353593914137
4.23786308751951
4.29157835725244
4.34453187253786
4.3966017970754
4.44770135017025
4.49777275591038
4.54678158591834
4.59472334340798
4.6416629406446
4.68773350117483
4.73307414372566
4.77782101398025
4.82210626327293
4.86605534855354
4.90979268225647
4.95342011860486
4.99697214606464
5.04042048841371
5.08372665650079
5.12685405062174
5.16976573979581
5.21242504030724
5.25479830678327
5.29686597711475
5.33871575660397
5.38057753046544
5.42273156961994
5.46546693970042
5.50909511341933
5.5539803598401
5.60053635459395
5.64918033188534
5.70016805432046
5.75319183957262
5.80748385794804
5.86235439815004
5.91740079990921
5.97246693215689
0.0275229594781567
0.0825688750284302
0.137595177466416
0.192446345415329
0.246721320702454
0.299733135917371
0.35071700558216
0.399366452286793
0.445936223934297
0.490841897870075
0.534495504839655
0.577259863838288
0.619445206462237
0.661339445921486
0.703221735258087
0.745321043860355
0.787724730015936
0.830413310002163
0.873353272637858
0.916508080537584
0.959840950070341
1.00331542752695
1.04689317728286
1.09054603563281
1.13430835193931
1.17828157350634
1.22258961633184
1.26735743652449
1.31271665801709
1.3588028828262
1.40575467428477
1.45370462456524
1.50271738800231
1.55278848599449
1.60388362744902
1.65594526695576
1.70888697009039
1.76258738679106
1.81689723947579
1.87163819414281
1.92660877803977
1.9816504993082
2.03669641826451
2.09174233722083
2.14678825617714
2.20183417513345
2.25688009408977
2.31192601304608
2.36697193200239
2.4220178509587
2.47706376991502
2.53210968887133
2.58715560782764
2.64220152678396
2.69724744574027
2.75229336469658
2.8073392836529
2.86238520260921
2.91743112156553
2.97247704052184
3.02752295947815
3.08256887843446
3.13761479739078
3.19266071634709
3.24770663530341
3.30275255425972
3.35779847321603
3.41284439217235
3.46789031112866
3.52293623008498
3.57798214904129
3.6330280679976
3.68807398695391
3.74311990591022
3.79816582486654
3.85321174382286
3.90825766277917
3.96330358173549
4.0183495006918
4.07339122196023
4.12836180585719
4.1831027605242
4.23741261320894
4.29111302990961
4.34405473304423
4.39611637255098
4.4472115140055
4.49728261199768
4.54629537543475
4.59424532571522
4.64119711717379
4.6872833419829
4.73264256347551
4.77741038366816
4.82171842649365
4.86569164806069
4.90945396436719
4.95310682271714
4.99668457247305
5.04015904992966
5.08349191946241
5.12664672736214
5.16958668999784
5.21227526998406
5.25467895613964
5.29677826474192
5.33866055407851
5.38055479353776
5.42274013616171
5.46550449516034
5.50915810212992
5.5540637760657
5.6006335477132
5.64928299441783
5.70026686408263
5.75327867929754
5.80755365458467
5.86240482253358
5.91743112497157
5.97247704052184
0.0275124808150585
0.0825374390728239
0.137542905894284
0.192373991928804
0.246631299789027
0.299630706466665
0.350610582219559
0.399265698696623
0.445849751926136
0.490776601697583
0.534456573612935
0.577250983478949
0.61946877631038
0.661396670678045
0.703312660794359
0.74544476667188
0.787879986871002
0.830598918926921
0.873568190765787
0.916751416693015
0.960111965825189
1.00361353579637
1.04721795013287
1.09089716176815
1.1346853758652
1.178683617902
1.22301528925379
1.26780482684073
1.31318330787349
1.35928577078588
1.40625020317092
1.45420864636133
1.50322548731334
1.55329626627677
1.60438683447311
1.6564398854385
1.70936934370431
1.76305436325985
1.81734628665809
1.87206752076175
1.92701743301596
1.98203820984283
2.03706317147295
2.09208813310307
2.14711309473318
2.2021380563633
2.25716301799342
2.31218797962354
2.36721294125365
2.42223790288377
2.47726286451388
2.532287826144
2.58731278777412
2.64233774940424
2.69736271103435
2.75238767266447
2.80741263429459
2.8624375959247
2.91746255755482
2.97248751918494
3.02751248081505
3.08253744244517
3.13756240407528
3.1925873657054
3.24761232733552
3.30263728896564
3.35766225059575
3.41268721222587
3.46771217385599
3.52273713548611
3.57776209711623
3.63278705874634
3.68781202037646
3.74283698200658
3.79786194363669
3.85288690526681
3.90791186689693
3.96293682852705
4.01796179015717
4.07298256698403
4.12793247923825
4.1826537133419
4.23694563674014
4.29063065629568
4.3435601145615
4.39561316552688
4.44670373372323
4.49677451268666
4.54579135363866
4.59374979682907
4.64071422921412
4.68681669212651
4.73219517315927
4.77698471074621
4.821316382098
4.86531462413479
4.90910283823184
4.95278204986713
4.99638646420363
5.0398880341748
5.08324858330698
5.12643180923421
5.16940108107308
5.21212001312899
5.25455523332812
5.29668733920564
5.33860332932195
5.38053122368962
5.42274901652105
5.46554342638707
5.50922339830242
5.55415024807386
5.60073430130337
5.64938941778044
5.70036929353333
5.75336870021097
5.80762600807119
5.86245709410571
5.91746256092718
5.97248751918494
0.0275016182887733
0.0825048515289057
0.137488719465902
0.192298987927904
0.246537981151219
0.299524524727804
0.350500260256555
0.399161254204897
0.445760112193019
0.490708913534019
0.534416216221017
0.577241777805983
0.619493209591314
0.661455991746014
0.703406917201826
0.745573021816925
0.788040931246152
0.830791327259091
0.873790981985066
0.917003666977213
0.960392909695296
1.00392256466079
1.04755462038114
1.09126115070126
1.1350762113019
1.17910039038204
1.22345655584185
1.26826860639337
1.31366705249679
1.35978634835746
1.40676388473717
1.45473113195037
1.50375219978087
1.55382264802097
1.60490847542027
1.6569526232148
1.70986938804173
1.7635384464066
1.81781178371479
1.87251257483363
1.92744105818432
1.98244012331538
2.03744335989293
2.09244659647048
2.14744983304802
2.20245306962557
2.25745630620312
2.31245954278066
2.36746277935821
2.42246601593576
2.4774692525133
2.53247248909085
2.58747572566839
2.64247896224594
2.69748219882349
2.75248543540103
2.80748867197858
2.86249190855613
2.91749514513367
2.97249838171122
3.02750161828877
3.08250485486631
3.13750809144386
3.19251132802141
3.24751456459896
3.3025178011765
3.35752103775405
3.41252427433159
3.46752751090914
3.52253074748669
3.57753398406424
3.63253722064178
3.68754045721933
3.74254369379688
3.79754693037442
3.85255016695197
3.90755340352952
3.96255664010707
4.01755987668461
4.07255894181568
4.12748742516637
4.1821882162852
4.23646155359339
4.29013061195827
4.3430473767852
4.39509152457973
4.44617735197903
4.49624780021913
4.54526886804963
4.59323611526283
4.64021365164254
4.68633294750321
4.73173139360663
4.77654344415815
4.82089960961796
4.8649237886981
4.90873884929874
4.95244537961886
4.9960774353392
5.0396070903047
5.08299633302279
5.12620901801493
5.16920867274091
5.21195906875385
5.25442697818307
5.29659308279818
5.33854400825398
5.38050679040868
5.42275822219401
5.46558378377898
5.50929108646598
5.55423988780697
5.6008387457951
5.64949973974344
5.70047547527219
5.75346201884878
5.8077010120721
5.8625112805341
5.91749514847109
5.97249838171123
0.0274903578373389
0.0824710702108083
0.137432548034872
0.192221236316943
0.246441243984128
0.299414453243676
0.350385896875927
0.399052983602894
0.445667188691753
0.490638745753674
0.534374380419267
0.577232234902195
0.619518537935126
0.661517485919499
0.703504626500227
0.745705975328474
0.788207771492396
0.830990784081528
0.874021934710884
0.917265157941748
0.960684145377656
1.00424291417479
1.04790362386547
1.09163847363546
1.13548136420697
1.17953243048087
1.22391398733917
1.26874937556954
1.31416851811955
1.36030526356408
1.40729638396979
1.45527275771504
1.50429820725864
1.55436831265185
1.60544922557726
1.65748414404521
1.71038775043036
1.76404026289617
1.81829433325002
1.8729739324982
1.92788020194406
1.98285676001846
2.03783747569313
2.09281819136781
2.14779890704249
2.20277962271717
2.25776033839185
2.31274105406652
2.3677217697412
2.42270248541588
2.47768320109055
2.53266391676523
2.58764463243991
2.64262534811459
2.69760606378926
2.75258677946394
2.80756749513863
2.8625482108133
2.91752892648798
2.97250964216266
3.02749035783734
3.08247107351201
3.13745178918669
3.19243250486137
3.24741322053604
3.30239393621072
3.3573746518854
3.41235536756008
3.46733608323476
3.52231679890944
3.57729751458411
3.63227823025879
3.68725894593347
3.74223966160815
3.79722037728282
3.8522010929575
3.90718180863218
3.96216252430686
4.01714323998154
4.07211979805594
4.1270260675018
4.18170566674998
4.23595973710383
4.28961224956964
4.34251585595479
4.39455077442274
4.44563168734815
4.49570179274136
4.54472724228496
4.59270361603021
4.63969473643591
4.68583148188045
4.73125062443045
4.77608601266082
4.82046756951913
4.86451863579303
4.90836152636453
4.95209637613452
4.99575708582521
5.03931585462234
5.08273484205825
5.12597806528912
5.16900921591847
5.2117922285076
5.25429402467153
5.29649537349977
5.3384825140805
5.38048146206487
5.4227677650978
5.46562561958073
5.50936125424632
5.55433281130825
5.6009470163971
5.64961410312407
5.70058554675632
5.75355875601587
5.80777876368306
5.86256745196513
5.91752892978919
5.97250964216266
0.0274786848836676
0.0824360513873218
0.137374318885076
0.192140636443395
0.246340963057425
0.299300349521745
0.350267344028632
0.398940746728795
0.44557086112813
0.490566007520839
0.534331012049179
0.577222342413827
0.619544794130607
0.661581232805788
0.703605915179271
0.745843799321808
0.788380723593288
0.831197547601772
0.87426134792398
0.917536228100806
0.96098604989263
1.00457499904816
1.04826541238983
1.0920296190358
1.1359013590728
1.17998029749769
1.22438817591534
1.2692477567504
1.31468835391517
1.36084318816798
1.40784839021546
1.4558342248159
1.50486421657863
1.55493396655667
1.60600978496847
1.65803513600555
1.71092510191125
1.76456046234976
1.81879455994281
1.87345219100067
1.92833543278366
1.98328865930429
2.03824602907163
2.09320339883897
2.1481607686063
2.20311813837364
2.25807550814097
2.31303287790831
2.36799024767564
2.42294761744298
2.47790498721031
2.53286235697765
2.58781972674498
2.64277709651232
2.69773446627965
2.75269183604699
2.80764920581432
2.86260657558166
2.91756394534899
2.97252131511633
3.02747868488367
3.082436054651
3.13739342441833
3.19235079418567
3.247308163953
3.30226553372034
3.35722290348767
3.41218027325501
3.46713764302235
3.52209501278968
3.57705238255701
3.63200975232435
3.68696712209169
3.74192449185902
3.79688186162636
3.85183923139369
3.90679660116103
3.96175397092837
4.0167113406957
4.07166456721634
4.12654780899932
4.18120544005719
4.23543953765023
4.28907489808875
4.34196486399444
4.39399021503153
4.44506603344333
4.49513578342136
4.54416577518409
4.59215160978454
4.63915681183202
4.68531164608483
4.73075224324959
4.77561182408466
4.8200197025023
4.8640986409272
4.9079703809642
4.95173458761017
4.99542500095184
5.03901395010737
5.08246377189919
5.12573865207602
5.16880245239823
5.21161927640671
5.25415620067819
5.29639408482072
5.33841876719421
5.38045520586939
5.42277765758617
5.46566898795082
5.50943399247916
5.55442913887187
5.6010592532712
5.64973265597136
5.70069965047825
5.75365903694257
5.8078593635566
5.86262568111492
5.91756394861268
5.97252131511633
0.0274665843166761
0.0823997497252639
0.137313956636655
0.192057083967558
0.246237008553315
0.299182065849528
0.350144448242156
0.398824398286224
0.445471004801206
0.490490604672226
0.534286054968256
0.577212087534567
0.619572012167705
0.661647314928433
0.70371091436236
0.745986672217323
0.788560011444529
0.831411885486305
0.874509531557697
0.917817228369405
0.961299014072015
1.00491924918284
1.04864045430915
1.09243509326127
1.13633673960559
1.18044457122065
1.22487973543293
1.26976439511688
1.31522723283823
1.36140081854004
1.40842061807371
1.4564162600991
1.50545096046612
1.55552034199959
1.60659087926208
1.65860631237774
1.71148213810743
1.76509971818588
1.81931311135581
1.87394796946485
1.92880734001677
1.98373638028298
2.03866954891633
2.09360271754968
2.14853588618304
2.20346905481639
2.25840222344974
2.31333539208309
2.36826856071644
2.42320172934979
2.47813489798315
2.5330680666165
2.58800123524985
2.6429344038832
2.69786757251656
2.75280074114991
2.80773390978326
2.86266707841661
2.91760024704997
2.97253341568332
3.02746658431667
3.08239975295002
3.13733292158338
3.19226609021673
3.24719925885008
3.30213242748343
3.35706559611679
3.41199876475014
3.46693193338349
3.52186510201684
3.5767982706502
3.63173143928355
3.6866646079169
3.74159777655025
3.79653094518361
3.85146411381696
3.90639728245031
3.96133045108367
4.01626361971702
4.07119265998323
4.12605203053515
4.18068688864419
4.23490028181412
4.28851786189257
4.34139368762225
4.39340912073792
4.4444796580004
4.49454903953387
4.54358373990089
4.59157938192629
4.63859918145996
4.68477276716176
4.73023560488312
4.77512026456706
4.81955542877935
4.86366326039441
4.90756490673872
4.95135954569085
4.99508075081716
5.03870098592799
5.08218277163059
5.1254904684423
5.16858811451369
5.21143998855547
5.25401332778267
5.29628908563764
5.33835268507156
5.3804279878323
5.42278791246543
5.46571394503174
5.50950939532777
5.5545289951988
5.60117560171377
5.64985555175785
5.70081793415047
5.75376299144668
5.80794291603244
5.86268604336334
5.91760025027474
5.97253341568332
0.0274540404717243
0.082362118230743
0.1372513831484
0.1919704707275
0.246129245898376
0.299059449103468
0.350017050421827
0.39870378765616
0.445367490441859
0.490412439595062
0.534239450977333
0.577201456988973
0.619600227281506
0.661715817834073
0.703819759976345
0.7461347789715
0.788745867143819
0.831634075207074
0.874766806899206
0.918108522517688
0.961623443065011
1.00527611022943
1.04902923513569
1.09285542122046
1.13678806942921
1.18092585267729
1.22538930224229
1.27029995948487
1.31578585249575
1.36197887656135
1.40901380832197
1.45701961703725
1.50605919848817
1.55612819806968
1.60719326070947
1.65919841257307
1.7120595801244
1.76565872849207
1.81985065877348
1.8744619096946
1.92929653454509
1.9842005025462
2.03910858348964
2.09401666443309
2.14892474537654
2.20383282631999
2.25874090726344
2.31364898820689
2.36855706915034
2.42346515009379
2.47837323103723
2.53328131198068
2.58818939292413
2.64309747386758
2.69800555481103
2.75291363575448
2.80782171669793
2.86272979764138
2.91763787858483
2.97254595952828
3.02745404047172
3.08236212141517
3.13727020235862
3.19217828330207
3.24708636424552
3.30199444518896
3.35690252613242
3.41181060707586
3.46671868801931
3.52162676896276
3.57653484990621
3.63144293084966
3.6863510117931
3.74125909273655
3.79616717368
3.85107525462345
3.9059833355669
3.96089141651035
4.0157994974538
4.07070346545491
4.12553809030539
4.18014934122652
4.23434127150792
4.28794041987559
4.34080158742692
4.39280673929053
4.44387180193032
4.49394080151182
4.54298038296275
4.59098619167803
4.63802112343865
4.68421414750424
4.72970004051513
4.77461069775771
4.8190741473227
4.86321193057077
4.90714457877954
4.95097076486431
4.99472388977057
5.03837655693499
5.08189147748231
5.12523319310079
5.16836592479292
5.21125413285618
5.2538652210285
5.29618024002365
5.33828418216592
5.38039977271848
5.42279854301103
5.46576054902267
5.50958756040493
5.55463250955814
5.60129621234384
5.64998294957817
5.70094055089653
5.75387075410162
5.8080295292725
5.8627486168516
5.91763788176926
5.97254595952828
0.027441037110337
0.0823231081883783
0.137186517416572
0.191880684599047
0.24601753558944
0.298932340550633
0.349884985644868
0.39857875870195
0.44526018404545
0.490331411100725
0.534191139745243
0.577190437015279
0.619629475997881
0.661786830203169
0.703932592927496
0.746288311316351
0.788938531291316
0.831864404400691
0.875033507005439
0.918410487641842
0.961959756862717
1.00564604416412
1.04943225816757
1.09329114705098
1.13725593281487
1.18142476491276
1.2259175360052
1.27085514317107
1.31636493605022
1.3625781105577
1.40962872887454
1.45764507670486
1.50668971803695
1.55675832166352
1.60781770911901
1.65981220308942
1.71265817548362
1.7662382169286
1.82040789807116
1.87499467700468
1.92980364964914
1.98468162691753
2.0395637011382
2.09444577535888
2.14932784957955
2.20420992380023
2.2590919980209
2.31397407224157
2.36885614646225
2.42373822068292
2.4786202949036
2.53350236912427
2.58838444334494
2.64326651756562
2.69814859178629
2.75303066600696
2.80791274022764
2.86279481444831
2.91767688866899
2.97255896288966
3.02744103711033
3.08232311133101
3.13720518555168
3.19208725977236
3.24696933399303
3.3018514082137
3.35673348243438
3.41161555665505
3.46649763087572
3.5213797050964
3.57626177931707
3.63114385353775
3.68602592775842
3.74090800197909
3.79579007619977
3.85067215042045
3.90555422464112
3.96043629886179
4.01531837308247
4.07019635035085
4.12500532299531
4.17959210192884
4.2337617830714
4.28734182451637
4.34018779691058
4.39218229088099
4.44324167833648
4.49331028196305
4.54235492329514
4.59037127112547
4.6374218894423
4.68363506394978
4.72914485682892
4.77408246399479
4.81857523508724
4.86274406718512
4.90670885294902
4.95056774183243
4.99435395583587
5.03804024313728
5.08158951235816
5.12496649299456
5.16813559559931
5.21106146870869
5.25371168868364
5.2960674070725
5.33821316979682
5.38037052400211
5.42280956298472
5.46580886025475
5.50966858889928
5.55473981595455
5.60142124129805
5.65011501435513
5.70106765944936
5.75398246441056
5.80811931540095
5.86281348258343
5.91767689181162
5.97255896288967
0.0274275573991834
0.0822826690982753
0.13711927547008
0.191787609350626
0.245901733012948
0.298800575643272
0.349748082946872
0.398449149567178
0.445148946698344
0.490247414293747
0.534141058730709
0.577179013347587
0.619659796180737
0.661860443964816
0.704049559283907
0.746447468007619
0.789138253301114
0.832103171240804
0.875309977134256
0.918723514652287
0.962308390841827
1.00602952988676
1.04985004514031
1.09374283482391
1.13774093543747
1.18194195379625
1.226465120549
1.27143066489059
1.31696523315579
1.3631992962683
1.41026617577674
1.45829344878948
1.50734333534906
1.55741152850389
1.60846503286554
1.66044847850352
1.71327869909019
1.76683893366521
1.82098555061579
1.87554696108196
1.93032934180812
1.98518037623021
2.04003549102858
2.09489060582695
2.14974572062531
2.20460083542368
2.25945595022205
2.31431106502041
2.36916617981878
2.42402129461714
2.47887640941551
2.53373152421388
2.58858663901225
2.64344175381061
2.69829686860898
2.75315198340735
2.80800709820571
2.86286221300408
2.91771732780245
2.97257244260081
3.02742755739918
3.08228267219754
3.13713778699591
3.19199290179428
3.24684801659264
3.30170313139101
3.35655824618938
3.41141336098775
3.46626847578611
3.52112359058448
3.57597870538285
3.63083382018121
3.68568893497958
3.74054404977795
3.79539916457631
3.85025427937468
3.90510939417305
3.95996450897142
4.01481962376978
4.06967065819187
4.12445303891803
4.17901444938421
4.23316106633479
4.28672130090981
4.33955152149648
4.39153496713445
4.4425884714961
4.49265666465094
4.54170655121052
4.58973382422326
4.6368007037317
4.68303476684421
4.72856933510941
4.773534879451
4.81805804620374
4.86225906456252
4.90625716517608
4.95014995485968
4.99397047011324
5.03769160915817
5.08127648534771
5.12469002286574
5.1678968287592
5.21086174669888
5.25355253199238
5.29595044071609
5.33813955603517
5.38034020381927
5.42282098665241
5.46585894126929
5.50975258570625
5.55485105330166
5.60155085043282
5.65025191705312
5.70119942435672
5.75409826698705
5.80821239064937
5.86288072452992
5.91771733090172
5.97257244260082
0.0274135838882863
0.082240748610508
0.137049570261755
0.191691124492838
0.245781688257774
0.29866398380577
0.349606165100536
0.39831479246614
0.44503363439807
0.490160340436032
0.534089143101373
0.577167171197399
0.619691227081054
0.661936754415754
0.704170810464589
0.746612455082091
0.789345291724123
0.832350684824095
0.875596575191404
0.919048008779723
0.962669796328278
1.0064270638408
1.05028313690227
1.09421106927412
1.13824370515971
1.18247808885726
1.22703276475173
1.27202726968725
1.3175875209288
1.36384323785007
1.41092697423539
1.45896557263987
1.50802089656212
1.55808866419577
1.60913606993688
1.6611080624995
1.71392195423594
1.76746165635228
1.8215843641998
1.87611947687823
1.93087429154965
1.9856973961334
2.04052456390998
2.09535173168655
2.15017889946312
2.20500606723969
2.25983323501627
2.31466040279284
2.36948757056941
2.42431473834598
2.47914190612256
2.53396907389913
2.5887962416757
2.64362340945227
2.69845057722885
2.75327774500542
2.80810491278199
2.86293208055856
2.91775924833514
2.97258641611171
3.02741358388828
3.08224075166485
3.13706791944143
3.191895087218
3.24672225499457
3.30154942277115
3.35637659054772
3.41120375832429
3.46603092610086
3.52085809387744
3.57568526165401
3.63051242943058
3.68533959720715
3.74016676498373
3.7949939327603
3.84982110053687
3.90464826831345
3.95947543609002
4.0143026038666
4.06912570845034
4.12388052312176
4.1784156358002
4.23253834364772
4.28607804576406
4.3388919375005
4.39086393006311
4.44191133580423
4.49197910343788
4.54103442736012
4.58907302576461
4.63615676214993
4.6824124790712
4.72797273031275
4.77296723524826
4.81752191114273
4.86175629484028
4.90578893072587
4.94971686309773
4.9935729361592
5.03733020367172
5.08095199122027
5.12440342480859
5.1676493151759
5.21065470827587
5.25338754491791
5.2958291895354
5.33806324558425
5.38030877291894
5.4228328288026
5.46591085689862
5.50983965956396
5.55496636560193
5.60168520753386
5.65039383489946
5.70133601619423
5.75421831174222
5.80830887550716
5.86295042973825
5.91775925138949
5.97258641611171
0.0273990984884335
0.0821972924575309
0.136977311555685
0.191591105122397
0.245657245921176
0.298522388213875
0.349459048386158
0.398175513466617
0.444914097866922
0.490070076806077
0.534035325649885
0.577154895234467
0.619723809387694
0.662015860343722
0.704296503435497
0.746783486124314
0.789559914582788
0.832607265570437
0.875893672193846
0.919384390099744
0.963044441181503
1.00683916065603
1.05073209411479
1.09469645655713
1.13876489284491
1.18303386415223
1.2276212034599
1.27264572989821
1.31823260495375
1.36451076891867
1.41161197968711
1.45966231835261
1.50872327881021
1.55879060532094
1.60983168901856
1.6617918089352
1.71458877363934
1.76810719112743
1.82220511400908
1.87671296553572
1.93143920433074
1.98623335592796
2.04103155290482
2.09582974988169
2.15062794685856
2.20542614383542
2.26022434081229
2.31502253778916
2.36982073476603
2.4246189317429
2.47941712871976
2.53421532569663
2.5890135226735
2.64381171965036
2.69860991662723
2.75340811360409
2.80820631058096
2.86300450755783
2.9178027045347
2.97260090151157
3.02739909848843
3.0821972954653
3.13699549244216
3.19179368941903
3.2465918863959
3.30139008337276
3.35618828034963
3.4109864773265
3.46578467430336
3.52058287128023
3.5753810682571
3.63017926523397
3.68497746221083
3.7397756591877
3.79457385616457
3.84937205314143
3.9041702501183
3.95896844709517
4.01376664407204
4.06856079566925
4.12328703446427
4.17779488599092
4.23189280887256
4.28541122636066
4.3382081910648
4.39016831098144
4.44120939467906
4.49127672118978
4.54033768164738
4.58838802031288
4.63548923108133
4.68176739504625
4.72735427010179
4.77237879654009
4.81696613584777
4.86123510715508
4.90530354344287
4.94926790588521
4.99316083934397
5.03695555881849
5.08061560990025
5.12410632780615
5.16739273442956
5.21044008541721
5.25321651387568
5.2957034965645
5.33798413965627
5.3802761906123
5.42284510476553
5.46596467435011
5.50992992319392
5.55508590213307
5.60182448653338
5.65054095161384
5.70147761178613
5.75434275407883
5.8084088948776
5.86302268844431
5.91780270754247
5.97260090151156
0.0273840824477607
0.082152244383788
0.136902405810394
0.191487421760548
0.245528244907569
0.298375605565755
0.349306542353843
0.398031132264745
0.444790182358684
0.489976506553048
0.533979536706883
0.577142169566953
0.619757585280069
0.662097864155356
0.704426800912731
0.746960782543106
0.789782399718053
0.832873245637691
0.876201652750082
0.919733094076648
0.963432810400125
1.00726635381474
1.05119749797804
1.09519962503387
1.13930517319959
1.18360999916313
1.22823119843979
1.27328684615375
1.31890132032619
1.36520275362762
1.41232207890573
1.46038458789841
1.50945139135931
1.55951826057281
1.61055279061836
1.66250060294748
1.71528002052344
1.76877637365911
1.82284860362646
1.87732819534649
1.93202481145101
1.98678894943285
2.04155711432837
2.09632527922389
2.15109344411941
2.20586160901493
2.26062977391046
2.31539793880598
2.3701661037015
2.42493426859702
2.47970243349255
2.53447059838807
2.58923876328359
2.64400692817911
2.69877509307463
2.75354325797015
2.80831142286567
2.86307958776119
2.91784775265672
2.97261591755224
3.02738408244776
3.08215224734328
3.1369204122388
3.19168857713432
3.24645674202984
3.30122490692536
3.35599307182089
3.4107612367164
3.46552940161192
3.52029756650744
3.57506573140297
3.62983389629849
3.68460206119401
3.73937022608953
3.79413839098505
3.84890655588058
3.9036747207761
3.95844288567163
4.01321105056715
4.06797518854899
4.1226718046535
4.17715139637354
4.23122362634089
4.28471997947656
4.33749939705251
4.38944720938164
4.44048173942718
4.49054860864068
4.53961541210158
4.58767792109427
4.63479724637238
4.6810986796738
4.72671315384624
4.77176880156021
4.81639000083687
4.86069482680041
4.90480037496613
4.94880250202195
4.99273364618525
5.03656718959987
5.08026690592335
5.12379834724991
5.16712675436231
5.21021760028195
5.25303921745689
5.29557319908726
5.33790213584465
5.38024241471993
5.42285783043304
5.46602046329311
5.51002349344695
5.55520981764132
5.60196886773525
5.65069345764616
5.70162439443424
5.75447175509242
5.80851257823945
5.86309759418961
5.91784775561621
5.97261591755224
0.0273685163274779
0.0821055460729942
0.136824756057744
0.191379940185417
0.245394518220045
0.298223445844726
0.349148449576957
0.39788146195155
0.44466172745832
0.489879508545518
0.533921704050815
0.577128977720855
0.61979259848275
0.66218287200875
0.704561871573178
0.747144573858175
0.790013035149051
0.833148969351721
0.876520915558043
0.920094572127182
0.963835406749816
1.00770919634242
1.05167995098344
1.09572122608416
1.13986524564693
1.18420723972884
1.22886353936357
1.27395144841378
1.31959453273385
1.36592008778704
1.41305819115023
1.46113331628982
1.51020617678437
1.56027257193271
1.61130030823209
1.66323536209805
1.7159965897333
1.76947007022834
1.82351566607196
1.87796596274698
1.93263187099933
1.98736489588331
2.04210192853827
2.09683896119322
2.15157599384818
2.20631302650314
2.26105005915809
2.31578709181305
2.370524124468
2.42526115712296
2.47999818977792
2.53473522243287
2.58947225508783
2.64420928774278
2.69894632039774
2.7536833530527
2.80842038570765
2.86315741836261
2.91789445101756
2.97263148367252
3.02736851632748
3.08210554898243
3.13684258163739
3.19157961429234
3.2463166469473
3.30105367960225
3.35579071225721
3.41052774491216
3.46526477756712
3.52000181022207
3.57473884287703
3.62947587553199
3.68421290818694
3.7389499408419
3.79368697349686
3.84842400615181
3.90316103880677
3.95789807146173
4.01263510411669
4.06736812900066
4.12203403725301
4.17648433392804
4.23052992977166
4.2840034102667
4.33676463790195
4.38869969176791
4.43972742806728
4.48979382321563
4.53886668371018
4.58694180884977
4.63407991221295
4.68040546726614
4.72604855158622
4.77113646063643
4.81579276027116
4.86013475435306
4.90427877391583
4.94832004901655
4.99229080365758
5.03616459325018
5.07990542787281
5.12347908444195
5.16685103064828
5.20998696485095
5.25285542614182
5.29543812842682
5.33781712799125
5.38020740151725
5.42287102227914
5.46607829594919
5.51012049145448
5.55533827254168
5.60211853804845
5.65085155042304
5.70177655415528
5.75460548177996
5.80862005981458
5.86317524394225
5.917894453927
5.97263148367252
0.0273523799767061
0.0820571370725669
0.136744261777446
0.191268521258218
0.245255892744169
0.298065712073242
0.34898456539655
0.397726308771027
0.4445285668743
0.48977895721465
0.533861752814433
0.577115302618675
0.619828894322072
0.662270993950897
0.704701890272874
0.747335097997253
0.790252119445963
0.833434793652133
0.876851873921237
0.920469292204936
0.964252751414168
1.00816826152363
1.05218007769357
1.09626193494999
1.14044583523223
1.18482635901071
1.22951904483163
1.27464039704222
1.32031313957729
1.36666370002333
1.41382126935483
1.46190947279161
1.51098861218951
1.56105451588932
1.61207520955195