/*--------------------------------*- C++ -*----------------------------------*\
  =========                 |
  \\      /  F ield         | OpenFOAM: The Open Source CFD Toolbox
   \\    /   O peration     | Website:  https://openfoam.org
    \\  /    A nd           | Version:  7
     \\/     M anipulation  |
\*---------------------------------------------------------------------------*/
FoamFile
{
    version     2.0;
    format      ascii;
    class       volScalarField;
    location    "20000";
    object      Dk;
}
// * * * * * * * * * * * * * * * * * * * * * * * * * * * * * * * * * * * * * //

dimensions      [0 2 -3 0 0 0 0];

internalField   nonuniform List<scalar> 
15600
(
0.0007359353070125
0.000770545190405696
0.000631385576202484
0.000438145644442655
0.000251017757601503
0.00012134987445115
4.98187833141599e-05
2.69470934655551e-05
2.2149174428653e-05
1.70522515466743e-05
1.12447666515254e-05
7.164311642165e-06
4.78080859931289e-06
3.33323620518292e-06
2.43084402362252e-06
1.89999719534e-06
1.62759818260189e-06
1.51089622713377e-06
1.50576190184795e-06
1.58238232503661e-06
1.73577635623364e-06
1.96883165720468e-06
2.28642392524156e-06
2.68708828308618e-06
3.1560829668564e-06
3.69080833534945e-06
4.28389403381567e-06
4.91718164509995e-06
5.56374992984144e-06
6.19031079125471e-06
6.76547177722158e-06
7.28201204219077e-06
7.76267705040748e-06
8.18338112653397e-06
8.52137670593011e-06
8.75456441265033e-06
8.8992786372751e-06
9.04529963789186e-06
9.37694269756913e-06
1.01220594721019e-05
1.18589781168208e-05
1.53489092690632e-05
1.93385871345279e-05
2.3587328940088e-05
2.80164239716774e-05
3.2564546980215e-05
3.71609463168182e-05
4.17629658727031e-05
4.63304313716606e-05
5.08366742861994e-05
5.52581045114918e-05
5.95771045028051e-05
6.37782989261913e-05
6.78493929235298e-05
7.17801665401595e-05
7.5563021598399e-05
7.91931463338367e-05
8.26692618855097e-05
8.59943786713143e-05
8.91767875381723e-05
9.22310824278361e-05
9.5179214344741e-05
9.80514774638369e-05
0.000100887418480485
0.000103736672220771
0.000106659785000016
0.000109729158344568
0.000113030242957126
0.000116663146820563
0.000120744788091257
0.000125411723004638
0.000130823780061018
0.000137167919651341
0.000144661749681122
0.000153563429702198
0.000164193122010714
0.000176987072934373
0.000193158687571153
0.000213237007181065
0.000225310269611379
0.000193989694220456
0.000178221596882845
0.000175783336309534
0.000180784796679901
0.000191290090401633
0.000206425127578419
0.000225826849757626
0.000249393689563742
0.000277103598880784
0.000310032661001508
0.000351535476600012
0.000401663119354175
0.000459300616190241
0.000523397446330441
0.00059295364223712
0.000666426260782928
0.000741844185928142
0.000813316410062719
0.000876179875248049
0.00093151135051563
0.000982012870082541
0.00103110297987485
0.00108210716415182
0.00114420619052158
0.00122381753961401
0.00134841706183095
0.00152080817261467
0.00173672107683879
0.0020054887498997
0.00234131305159739
0.00275669458584833
0.00324341066391761
0.00368101947556064
0.00376973842931924
0.00295235917798865
0.00220006955027603
0.00159105129628927
0.0011500297901119
0.000857509656116002
0.000766518769741554
0.00402444145154505
0.00418691128841751
0.00346129993020829
0.00241456171510416
0.00139039680354696
0.000676798157606081
0.000280404286052846
0.000149953251295254
0.000122055672227314
9.45987424858123e-05
6.2913570061053e-05
4.01953258014395e-05
2.67885619384088e-05
1.86436909001399e-05
1.35590547818827e-05
1.05486075190245e-05
8.98659971226393e-06
8.30168176163088e-06
8.24016832126647e-06
8.63160082395568e-06
9.44369395052231e-06
1.06902330270475e-05
1.23984822472253e-05
1.45649946688329e-05
1.71115988712034e-05
2.00225705733812e-05
2.32604317179496e-05
2.67300812792504e-05
3.0287430187955e-05
3.37517143172048e-05
3.69468692032255e-05
3.98205441774324e-05
4.24860184646428e-05
4.48154311881847e-05
4.66960838638732e-05
4.80078934615444e-05
4.88412893927853e-05
4.96977485653002e-05
5.15841978622633e-05
5.57689472549995e-05
6.54466285269751e-05
8.45009962739962e-05
0.000106372851754162
0.000129688375443935
0.000153982230955787
0.000178913564171482
0.000204099618745831
0.000229307575096602
0.000254319893846448
0.00027899154903802
0.000303194460895191
0.000326832758398436
0.000349822802863529
0.00037209772810097
0.000393602081193372
0.000414294846821996
0.000434150402502313
0.000453162626122988
0.000471349047997602
0.00048875627019983
0.000505465543469748
0.000521598501181352
0.000537322514597459
0.000552855621743856
0.000568471042359628
0.000584501612954374
0.000601344850362603
0.000619469320710926
0.000639423145846151
0.000661845277357327
0.000687480036452972
0.000717194924180819
0.000751998238746449
0.000793053482736197
0.000841713577686634
0.000899592711099466
0.00096885223663744
0.00105578602993309
0.0011541036879444
0.00119751460072618
0.00104651449470289
0.000971006746584585
0.000962688839494094
0.000993330283452699
0.00105329376214466
0.00113812768170552
0.00124599222042008
0.00137639603183038
0.00152985886111798
0.00171311585038777
0.00194233076014024
0.00221680950442727
0.00253042713271083
0.00287752531163755
0.0032525525706594
0.00364705688784683
0.00404931436536864
0.00442867571378157
0.00476361832006656
0.00506091820931573
0.00533505948924505
0.00560372684538919
0.00588571922315597
0.00622984629139427
0.006673557548631
0.00735906448486652
0.00829625070100482
0.00946305440070397
0.0109076014339066
0.0126984451687286
0.014888002012662
0.0174056325927986
0.0196215849955213
0.0200674075510053
0.0160441381576476
0.0120587325562208
0.00876614473998181
0.00634418929729997
0.00472806095774014
0.00420263757351549
0.00982753684941637
0.0100281683437902
0.00849140717841693
0.00603202568804494
0.00350229366367677
0.0017042122264062
0.000703569850782879
0.000368664147506153
0.000295943994346629
0.000230891835490872
0.000154977922703847
9.93870193140058e-05
6.62044877941189e-05
4.60174359034411e-05
3.33977159764604e-05
2.58795205230051e-05
2.19348743208309e-05
2.01714804499747e-05
1.99446445305001e-05
2.08266908701095e-05
2.27298984769599e-05
2.56824972740714e-05
2.97506921028441e-05
3.493549917032e-05
4.10558901749499e-05
4.80675839936299e-05
5.58820395419416e-05
6.42751851223704e-05
7.29025640514071e-05
8.13299157640421e-05
8.91301227220369e-05
9.61590538661831e-05
0.000102668870133504
0.000108269862656674
0.000112786471624948
0.000116021705074296
0.000118271799380205
0.000120854430963386
0.000125876878297677
0.000137009395408532
0.000162205909792006
0.000208843735229851
0.000262289641388284
0.000319151995518204
0.000378174617544261
0.000438513041632015
0.000499268064647401
0.000559892345616901
0.000619884109738977
0.000678911716444249
0.000736684613542941
0.000792988171441627
0.000847637006880187
0.000900485957611397
0.00095141755668521
0.00100034934309389
0.00104723603379108
0.00109207908579814
0.0011349361526225
0.00117593341172713
0.00121527808931509
0.00125327121753181
0.0012903193579413
0.00132694513285782
0.00136379646941041
0.00140165517044085
0.00144144616522474
0.001484248491466
0.00153130910780829
0.0015840596267764
0.00164413454161546
0.0017133858174681
0.00179387891918425
0.00188784790504393
0.00199759889190537
0.00212530631892866
0.00227273719530355
0.00244211437773058
0.00258388538303412
0.00259160619453143
0.00235644559872831
0.00224886368297567
0.00226115465017408
0.00235177448830662
0.00250414841457003
0.0027105836013821
0.00296811343335818
0.00327686024683202
0.00364115672380312
0.00407749221542907
0.00461139145297812
0.00523885418458266
0.0059471104080426
0.00672416356986735
0.00755759954610533
0.00842883567134002
0.00930977547326832
0.0101412281542133
0.0108913237409014
0.0115761749904512
0.0122254263400341
0.0128735213101971
0.0135633302782655
0.0143973046543552
0.0154637485630072
0.0170485648346402
0.0191644096306167
0.0217617909772939
0.0249208663234883
0.0287419249598225
0.0332589951032193
0.0382229889561971
0.0424216064360245
0.0434812217501946
0.0370837358676301
0.0289512594770373
0.0216722272060144
0.0159176099737256
0.0118884445751528
0.0103757294083395
0.0172706519690838
0.0169964702864312
0.0148413654479724
0.0110520502291126
0.00663936117813049
0.00323098285341199
0.0013087008110645
0.00065625121248293
0.000513760410642059
0.000402960906554912
0.000273113936090414
0.000175915036082039
0.000117164492333979
8.13518025531457e-05
5.89453451661997e-05
4.55249312111737e-05
3.84075751598018e-05
3.51764911666908e-05
3.46549042502537e-05
3.60848563256452e-05
3.92996667787566e-05
4.43385702711197e-05
5.13118423600582e-05
6.02260783989222e-05
7.07795090871929e-05
8.28782916466129e-05
9.6358293697797e-05
0.000110827059853629
0.00012568583465357
0.000140194193675908
0.000153648467827123
0.000165820274786974
0.000177086185217553
0.000186869100665115
0.000194614329155592
0.000200588954546889
0.000205614823853393
0.000211749893819043
0.000222786441109133
0.000246289778275057
0.000295514145378102
0.000377075903415321
0.000468907476134605
0.000565063773684589
0.000663123563567107
0.000761748868410954
0.000859614690540975
0.000955979311317279
0.00105020199211473
0.00114190137721839
0.00123076208905151
0.00131657765722479
0.00139918364350837
0.00147847108499921
0.00155436936833666
0.00162685568809702
0.00169595809329149
0.00176176798641664
0.00182445244104757
0.00188426988821515
0.00194158572775102
0.0019968876967612
0.00205079922551043
0.0021040902007906
0.00215768448796594
0.00221266425821667
0.00227027184504852
0.00233190862079491
0.00239912943874867
0.00247362784295783
0.00255720191527037
0.00265167935945168
0.00275875801633048
0.00287968953383931
0.00301468998799368
0.00316186017965083
0.00331589912864257
0.00344926055487507
0.00351139250040128
0.00346161374233832
0.00334189483163325
0.00330998434821807
0.0033948359918569
0.00356926343428508
0.00382061515122224
0.00414365691704523
0.00453783017896256
0.00500698382060316
0.00556166118188592
0.00622121502177518
0.00699978316509661
0.00789123281741673
0.00888173740404572
0.00995709151975008
0.0111013503962231
0.0122909967019371
0.0134891277109897
0.0146395460071836
0.0157313824126872
0.0167855046948464
0.0178353225707848
0.0189173742296618
0.0200901010262156
0.0214746909605238
0.0231958200591458
0.0255733256765537
0.0286005362268858
0.0321913756798219
0.0363744963846031
0.0411519862726395
0.0463836283124236
0.0515608126235489
0.0554246396094753
0.0561530155111839
0.0513749279217098
0.0434645256990357
0.0351600562406578
0.0275190467736313
0.0214293164540616
0.0185337001502685
0.0240706377015243
0.0227917167359725
0.0204439595410949
0.0165031864156705
0.0108849592604698
0.00550210900768804
0.00220545574676493
0.00101572908604146
0.000761645658878245
0.000598480976868257
0.000409880417415047
0.000265389186201719
0.000176808757471196
0.000122668022335912
8.8785447089639e-05
6.84006271750213e-05
5.74791676833962e-05
5.24649480036553e-05
5.15183257980714e-05
5.3519142111388e-05
5.81962922330573e-05
6.55880269689905e-05
7.58351315069977e-05
8.89260426136772e-05
0.000104415740359696
0.000122116063133732
0.000141729879643012
0.000162636360025233
0.000183935503772064
0.000204583892472502
0.000223684791688827
0.000241022124591567
0.000257071371424361
0.000271264235975532
0.000283219649524299
0.000293389001370499
0.000303418956835738
0.000316535373176954
0.000338923213823273
0.000381712678008741
0.000459618725024382
0.000570969800055186
0.000691838987156039
0.000813475878403738
0.000933117836572194
0.0010497340997934
0.00116248089784721
0.00127101481692828
0.00137515742779471
0.00147486840650619
0.00157017425898093
0.00166113419798056
0.00174783365446273
0.00183037179355395
0.00190886922087635
0.00198347023906256
0.00205435466656787
0.00212174801378645
0.00218593547686061
0.00224727537284627
0.0023062129519014
0.00236329230623662
0.00241916556383559
0.00247459781343185
0.00253046653085761
0.00258775415617695
0.00264753290043315
0.00271093853093641
0.00277912783194353
0.00285320905032961
0.0029341271480107
0.00302247139836808
0.00311815137402881
0.00321987145596448
0.00332430360708625
0.00342480829070173
0.00350987060238746
0.00355309623964479
0.00354244079302519
0.00351130272436271
0.00355247977976644
0.00361207678801383
0.00376470160182899
0.0039915643757165
0.00429010594247817
0.00465930585259036
0.0051024149808075
0.00562661214678806
0.00624419504021098
0.00696672825512588
0.00778992723110347
0.00871023214772198
0.00971763678140549
0.0108002416190748
0.0119435685673565
0.0131268991822216
0.0143190634036207
0.0154920670728025
0.0166650797365689
0.0178582181148909
0.0191006862737705
0.0204223522547532
0.021880126151346
0.0235733897495299
0.0256210197094319
0.0282398683013132
0.0313776728651308
0.0349179853391854
0.0387966422066591
0.0428872186684116
0.0469268517913765
0.0503649394301788
0.0524618090266068
0.0522321984059607
0.0499873770987726
0.0458075710810667
0.0406969834007677
0.0349191897386906
0.0295341021873226
0.0260145666224499
0.0273753689108965
0.0252647249875492
0.0230178354802377
0.0201648949058643
0.015360856893267
0.00866845791887031
0.00358791294050271
0.00148793006874958
0.00103404380911563
0.000806977960305586
0.00055893769199567
0.000364328120032939
0.000243014364587611
0.000168584024237591
0.000122000711200223
9.38644125893906e-05
7.86391526849491e-05
7.15997957673071e-05
7.0105028982054e-05
7.26972479469728e-05
7.8960099529973e-05
8.88981017963472e-05
0.000102631641896266
0.000120059053906209
0.000140534551974908
0.000163676850781529
0.000188939444850479
0.000215383279919051
0.000241788351238043
0.000266915687603615
0.00028990463738162
0.000310743911147858
0.000330055838561512
0.000347687712191101
0.000363844850476601
0.000379681811975114
0.000397640196900205
0.000422028583864167
0.000460267374907137
0.000523670854421848
0.000621013445393696
0.000738067170834331
0.000862018380083999
0.000980957734052126
0.00109473662223864
0.00120291615216898
0.00130601617953865
0.00140403705583584
0.00149742891773967
0.00158633697154109
0.00167106629067675
0.00175178704823206
0.00182871764129808
0.00190202983656202
0.00197191648427419
0.00203856949639615
0.00210220782440148
0.00216307908022283
0.00222147508927051
0.00227773970979626
0.0023322790664946
0.00238556770356212
0.00243815192422925
0.00249064748164826
0.00254373028526901
0.0025981174967667
0.00265453725439457
0.00271368246659154
0.00277614242121385
0.00284230123392713
0.00291218767440113
0.0029852535200803
0.00306005407497689
0.00313382725275665
0.003202015304987
0.00325799609335751
0.0032902809371562
0.00329082485855254
0.00326954659547853
0.00327919118247762
0.00339082563961983
0.00349147550859103
0.00367018481141864
0.00390666428326207
0.00420507501217949
0.00456576270078726
0.00499355861135186
0.00549580018465512
0.00608222895194363
0.00675652309297315
0.00750679912660552
0.00833240578766654
0.00922622492835931
0.0101789238048724
0.011178680053558
0.0122092614452947
0.0132485837691558
0.0142882146096346
0.0153569244153622
0.0164716464227757
0.0176566298256411
0.01893443077639
0.0203551585981856
0.0219924581314447
0.023939543434234
0.0263080815246143
0.0290217737000105
0.0319671328747213
0.0350448797860176
0.0380974864939892
0.040884800078136
0.0429686750548095
0.0440301650696186
0.0434124629830757
0.0423817645913979
0.0406394510007849
0.0386015016560478
0.0355604297338404
0.0325739600392721
0.0294566629769304
0.0274701481307382
0.0250960532744352
0.0230142689734733
0.0211394871309382
0.0186264791641243
0.0123453080204127
0.00564533713222252
0.00217629862273855
0.00133728626258236
0.00101572780066087
0.000711177510906495
0.000467614153258482
0.000312757793132734
0.000217237606491079
0.000157430492446245
0.000121159445395936
0.000101325593306232
9.20949190843583e-05
8.99615709993982e-05
9.31472376650696e-05
0.000101042715931395
0.000113545355082757
0.000130643708794841
0.000152008942175878
0.00017668836652052
0.000203957705175438
0.000232889373616471
0.000262199146639028
0.000290485422261721
0.000316633574346541
0.000340208261002808
0.000361648794350295
0.000381854439457934
0.000401472800637224
0.000421502308434153
0.000443781839869283
0.000471215300451948
0.000508212290012397
0.000561330078774559
0.00063799513612784
0.000737404450920559
0.000838349979429767
0.000948953444415714
0.00105128332298106
0.00114975026058489
0.00124260709885637
0.00133159579886186
0.00141623575713386
0.00149729276605363
0.00157471740898102
0.00164887134964012
0.00171984205038531
0.00178784180455709
0.00185300298655579
0.00191550152323524
0.00197550401692006
0.00203320723193626
0.0020888291030881
0.00214262374564902
0.00219488313855496
0.00224594338904666
0.0022961855017326
0.0023460335641884
0.00239594660746524
0.00244640306181538
0.00249787437093451
0.00255078641566153
0.00260546449562652
0.00266205745185525
0.00272043378242355
0.00278004268632532
0.00283973395045639
0.00289754175492849
0.00295047993571472
0.00299445737763479
0.00302446482915078
0.00303390517458408
0.00302518408040829
0.00301597505051836
0.00305377744265773
0.00318237887588585
0.0032964757584105
0.00347800214750528
0.00370655057688569
0.00398879965303196
0.00432513048571305
0.00472036823396779
0.00518057228449776
0.00571229519755932
0.00631484433525432
0.00697594431814207
0.00769626443897217
0.00847021598435781
0.00929025320257963
0.0101467466736118
0.01102705577833
0.0119160478670353
0.0128139563133119
0.0137476456239572
0.0147307230744446
0.0157823587414308
0.0169183238084967
0.018183198437358
0.0196307777140803
0.021330778274224
0.0233354191494515
0.0255698312521702
0.0279400696707984
0.0303509097557351
0.0326600361339868
0.0346783014814071
0.0360661424598636
0.0366936330854175
0.0360250130365868
0.0353996123720748
0.0345562310586535
0.0340446552085869
0.03263407301877
0.0316519092499381
0.0292749282197278
0.0259915914019834
0.0237542552254175
0.0218803152699066
0.0203902005274164
0.0199638780014697
0.0157667251347908
0.00831995557103711
0.00326635543592087
0.00169480100608207
0.00121409533800038
0.000854699780909226
0.000567708323694631
0.000381399128679975
0.000265755324474772
0.000193285874507725
0.000149121613453724
0.000124681171959047
0.000113206052830787
0.000110361827310751
0.000114067084559109
0.000123451748654994
0.000138182362816033
0.000157948626835083
0.000182028395216303
0.000209073607649572
0.000237937346524514
0.000267348909961776
0.000295913580858874
0.000322462868691755
0.000346471494573956
0.000368227840768213
0.000388658914005071
0.00040891060694451
0.000430331014476439
0.000454383961531392
0.000483137652767279
0.000519345102427602
0.00056661548053251
0.000629284228654943
0.000709759532476386
0.000800320589819344
0.000881612450966177
0.000978534866392993
0.00106562299929972
0.00115181299455737
0.00123286141496911
0.00131153282038896
0.00138661964655496
0.00145907221221551
0.00152860764131314
0.00159559002025121
0.00166001958615242
0.00172208351950231
0.00178187354118834
0.00183954133220089
0.00189522611642197
0.0019490986681878
0.00200134555513625
0.00205218236765016
0.00210185111028155
0.00215062315357659
0.00219879620898557
0.00224668892809553
0.00229462910834133
0.00234293492042271
0.00239188514892357
0.00244167837259305
0.00249237777686787
0.00254384009875961
0.00259562615780165
0.00264689410951864
0.00269628309547396
0.00274181246318307
0.00278086893145891
0.00281043875967416
0.00282697454060903
0.00282891582217997
0.00282283348893068
0.00282747243530685
0.00288036193376698
0.00300720337332582
0.00312475719168274
0.00330072598845884
0.00351724839692721
0.00378108180608278
0.00409246722642725
0.00445562463878234
0.00487517650787371
0.00535518945669644
0.00589303820950525
0.00647819388571412
0.00711155551302311
0.00778844651279932
0.0085025584414772
0.00924591561901856
0.0100085265981222
0.0107799949228671
0.0115639960140057
0.0123829956839734
0.0132481402096019
0.0141736354341075
0.0151719953772663
0.0162823714482142
0.0175451453392073
0.0190125584477429
0.020706613221312
0.0225617497462156
0.0245030478824057
0.0264482407761995
0.0282763462477472
0.0298370403545581
0.03085733466156
0.031278084319527
0.030643667758911
0.0301388000795543
0.0295589606140518
0.0296311359035651
0.0289385725652748
0.0290970652097317
0.0274091024409924
0.0240185432364893
0.0220758460884513
0.0204276778514616
0.0190945308239997
0.0195925473357994
0.018278660090767
0.0113428953673641
0.00486688726267286
0.00217263275147682
0.00140694841368202
0.000980275449152717
0.000656567117926679
0.000443273877383286
0.000310354744255768
0.00022708395076178
0.000176069390266617
0.000147440887305032
0.000133815666908415
0.000130191357601469
0.000134206641542747
0.000144653844040962
0.000160828321937011
0.000181971280369263
0.000206890188948586
0.000233909422511212
0.000261607156856739
0.000288678818711307
0.000314045552551437
0.000337161170330255
0.000358249192186024
0.000378173919503919
0.000398069931561167
0.000419126039947666
0.000442994478615026
0.0004711836808509
0.000505600595447702
0.00054846674807923
0.000602235186392232
0.000668922460693843
0.00074718666801184
0.000826804168647096
0.000894533759238553
0.000981784212036734
0.00105841410848178
0.0011364859912995
0.00120972212981655
0.00128161300367857
0.00135043648191157
0.00141724325656348
0.00148161270353052
0.00154389700281509
0.00160404941391672
0.00166223582352624
0.0017185245217444
0.00177304846011967
0.00182592740036843
0.00187731049837787
0.00192735802010696
0.00197625204141481
0.00202419134189222
0.00207139171988427
0.00211808056966235
0.00216448924441851
0.00221083935079597
0.0022573231457198
0.00230407329422809
0.00235112378014063
0.0023983594860551
0.00244545598512106
0.00249181078049926
0.0025364731345843
0.00257808886234515
0.00261489377155901
0.0026448285407684
0.00266586913287068
0.00267602661279394
0.00267685364687614
0.00267637049515815
0.00269177173538149
0.0027516174550428
0.00287128379963947
0.00298852429002337
0.00315648905529756
0.00336101063805012
0.00360785671718039
0.0038972010649843
0.00423250834234602
0.00461718368990493
0.00505358366431774
0.00553841706391762
0.00606312483163366
0.00662835694355725
0.00723007798249631
0.00786288157734774
0.00852004896971038
0.00919355816125465
0.00987620831334862
0.0105728796551475
0.0113018994660208
0.0120726963850272
0.0128946809674218
0.0137808271630684
0.0147643365148902
0.0158767936496793
0.0171578726057334
0.018613974876457
0.0201892256777344
0.0218232730427554
0.0234459149903887
0.0249539256973552
0.0262226397247113
0.0270242292487156
0.0273210154647556
0.0267285753448207
0.0262507322124948
0.0257313683220699
0.0259728049140035
0.0255609905369539
0.0262309687323195
0.0250867338484725
0.0220245872239927
0.0204176737297556
0.0189559581011183
0.0178561160858409
0.0181934985419343
0.0195767738573491
0.014306269533484
0.00698676824436511
0.00287764991766425
0.00162696926114448
0.00109050675267615
0.000730695488721424
0.000494331210413985
0.000347625026391963
0.000256243202826134
0.000200092120066637
0.000168109633902774
0.000152585833578914
0.000148124380458799
0.000152115572674926
0.00016297225726857
0.000179537549200378
0.000200575102319971
0.000224525526386987
0.000249627268406596
0.000274479770784551
0.000298079136972204
0.000319895801578844
0.00034001379769398
0.000359158034415831
0.000378403563269798
0.000398832548963903
0.000421546631750654
0.000448203317552283
0.000480138551611016
0.000518926416655774
0.00056615251122014
0.000623171589864116
0.000690227110845233
0.000763979814554178
0.00083468681060966
0.000895146358584048
0.000975674514126188
0.0010456677905782
0.00111833592877475
0.00118646499653814
0.00125382971179763
0.00131849944874241
0.0013815267121584
0.00144244755987555
0.00150158668599678
0.00155888183719834
0.00161447929999197
0.0016684356149219
0.0017208684477863
0.00177188326849017
0.00182161071207223
0.00187018855988944
0.001917769575262
0.00196451509245095
0.00201059323669555
0.00205617209281395
0.00210141084212613
0.00214644531663936
0.0021913693295846
0.00223620569782821
0.00228087121318356
0.00232513329506627
0.00236856276092813
0.00241048645231842
0.00244995053408888
0.00248571546447722
0.00251631743161259
0.00254026620841208
0.0025562149698284
0.00256378644031047
0.00256599028255415
0.00257107085584321
0.00259391562882667
0.00265615712626626
0.00276764771078019
0.00288291748289087
0.00304256457265331
0.00323612867703132
0.00346807882373505
0.00373857952321259
0.00405036513849086
0.00440589188591228
0.00480639198127105
0.00524851008098219
0.00572536784850094
0.00623721757390163
0.00678051548051458
0.00735054074027387
0.00794154955965632
0.00854701044244838
0.00916189833952686
0.00979132285458544
0.0104502481728833
0.0111465404844624
0.0118861900311912
0.0126838656954168
0.0135671316804901
0.0145616234070124
0.0156978558256507
0.0169739545979999
0.018342316258816
0.0197531337855193
0.0211456033902686
0.0224298554353119
0.0234979027639756
0.0241534997440817
0.0243607223345351
0.023800520948396
0.023317577700115
0.0227972373479128
0.0230440034509073
0.0227382823482224
0.023564995191016
0.0228183872091777
0.0201802646016222
0.0188927200725339
0.0175685842375622
0.0168118410308035
0.0164741689010565
0.0196749830597163
0.0168059328096551
0.00946657240355538
0.00393200736090981
0.00192379400104248
0.00120355859683847
0.000795385642058738
0.000535469833100122
0.00037671349444
0.000279399927884381
0.000219856540230153
0.00018553308446501
0.000168461266582251
0.000163140513564434
0.000166748459583692
0.000177345979969457
0.000193351638260299
0.000213161443720903
0.000235065354111295
0.00025746157199415
0.000279183669115141
0.000299646011478497
0.000318804539971326
0.000337140946627371
0.000355572663714025
0.000375145351934375
0.000396800924373902
0.000421525041381814
0.000450833605176539
0.00048582165666724
0.000527690698496356
0.000577436259435669
0.000635543962490622
0.000701133189293486
0.000770197803143591
0.000834753911342475
0.000891910696909185
0.000967445419229806
0.00103333069657678
0.00110222929989447
0.00116698759838043
0.0012312488288741
0.00129312247160624
0.00135357747969859
0.00141217026092757
0.00146918472414376
0.00152456099448537
0.00157842582580903
0.00163082987607296
0.00168187714853689
0.00173166145442837
0.00178029680593373
0.00182790108603841
0.0018746010479702
0.00192052529715582
0.00196580085551356
0.00201054558949286
0.00205485887898285
0.00209880710137785
0.0021424072556363
0.00218560012573029
0.00222822059631789
0.00226996204980077
0.00231034213637003
0.00234867485702191
0.00238406151833642
0.00241542357360922
0.00244160821048762
0.00246160161757134
0.00247463383914427
0.00248152680952354
0.00248591596681563
0.00249565311972669
0.00252331633465053
0.00258547157685529
0.0026891685825838
0.00280163994693439
0.00295340567626652
0.00313719748617363
0.00335623979816065
0.00361070040726632
0.00390267092641517
0.00423388933763385
0.00460486514514292
0.0050124425203885
0.00545106255090414
0.00592057637171786
0.00641782819645701
0.00693863319586352
0.00747801780216522
0.00803059540974967
0.00859283635993589
0.00916965196341345
0.00977336140169615
0.0104100441043508
0.0110844290780871
0.0118122199221717
0.0126163086401959
0.013518075830911
0.0145412101514328
0.0156794132016995
0.0168917999420952
0.018136110287124
0.0193584439150338
0.0204786949027936
0.0213997884987274
0.0219480263670787
0.0220822182983761
0.0215425240064896
0.021043449428663
0.0205076810359517
0.0206979622925591
0.020433082700652
0.021241799191696
0.0207711622342708
0.0185327467800361
0.0175210126088623
0.0163072508734569
0.0159063749519039
0.0149196170315305
0.0187965660314116
0.0185119457293778
0.0120707658243183
0.0053846750402569
0.00236606840886062
0.00134831246474737
0.000863328428808321
0.000573041850672733
0.0004004762228823
0.000297495250612819
0.000235443090277737
0.000199532416925333
0.000181205282288692
0.000175022011684902
0.00017795618744567
0.0001877960551747
0.000202643788539751
0.000220693897214261
0.000240274579772667
0.000260061078439842
0.000279174914635541
0.000297387895546074
0.000314966060730412
0.000332568739228003
0.000351123083581706
0.000371562262750925
0.000394694024631846
0.000421392227997025
0.000452972187824946
0.00049028395161151
0.000534177593594612
0.000585164137480078
0.00064311790284918
0.000706569052775077
0.000771632100544577
0.000832305486736767
0.000888234293545188
0.00095990161245975
0.00102329359090858
0.00108948259252844
0.00115202402288955
0.0012141453815144
0.00127415166193977
0.00133287412350387
0.0013899236782758
0.00144553621019933
0.0014996622492895
0.00155240920806765
0.00160382419095342
0.00165399844962526
0.00170301539759016
0.00175097376445277
0.00179797345305976
0.00184411797507176
0.00188950720418464
0.00193423263894798
0.00197836952856087
0.00202196767987034
0.00206503707957572
0.002107535011441
0.00214934155229554
0.00219023593375701
0.0022298683607814
0.00226773775391615
0.00230318034887359
0.0023353819369025
0.00236343761357482
0.00238648703449596
0.00240381519382842
0.00241533236268277
0.0024224873235417
0.00242914003196816
0.00244248186160904
0.00247305315596914
0.00253379932717955
0.00263044850901176
0.0027396889622153
0.00288424407400311
0.0030593643021892
0.00326722778608698
0.00350799049992803
0.00378320414799768
0.00409406826844881
0.00444063557909798
0.00482004599003362
0.0052277447749623
0.00566323254860826
0.00612366024264896
0.00660527007809131
0.00710370567971821
0.00761446912285554
0.00813506493207974
0.00867003047878565
0.00922959428255346
0.00981768613037861
0.0104401020251276
0.0111121146605156
0.0118530480209003
0.0126810824324842
0.0136147122850492
0.0146453343875922
0.015737443921973
0.0168541521628651
0.0179464481249777
0.018941261379437
0.0197486667937839
0.0202112760906866
0.0202813365516846
0.0197520394596014
0.0192339841522588
0.0186844191804169
0.0187977205095457
0.0185495144845189
0.019265000992218
0.0189776259925876
0.017082373886043
0.016292542508442
0.015187590916381
0.0150587537153947
0.013735750938143
0.0172675778859909
0.0193031233300723
0.0144924368520648
0.0072227362280225
0.00303193291530183
0.00155706320227716
0.00095023667295201
0.000616053401722062
0.000424262667535161
0.000313484299139422
0.000248403705568167
0.000211015513154188
0.00019147454550225
0.000184372789625064
0.00018641774049678
0.000195201594031276
0.000208632946369878