/*--------------------------------*- C++ -*----------------------------------*\
  =========                 |
  \\      /  F ield         | OpenFOAM: The Open Source CFD Toolbox
   \\    /   O peration     | Website:  https://openfoam.org
    \\  /    A nd           | Version:  7
     \\/     M anipulation  |
\*---------------------------------------------------------------------------*/
FoamFile
{
    version     2.0;
    format      ascii;
    class       volTensorField;
    location    "20000";
    object      gradU;
}
// * * * * * * * * * * * * * * * * * * * * * * * * * * * * * * * * * * * * * //

dimensions      [0 0 -1 0 0 0 0];

internalField   nonuniform List<tensor> 
15600
(
(0.0369734374605551 -0.000324728696837105 1.11333761580905e-22 15.140603666366 -0.0155606221792669 -6.03542658707356e-22 0 0 0)
(0.0325651688644174 -0.0116663036618594 -9.63414744658327e-20 16.4021313438174 -0.0669886580137324 8.22307657654883e-22 0 0 0)
(0.601793522612627 -0.0462271559615923 -4.36119784398802e-19 16.4135667656248 -0.588921166934377 -1.40968732620784e-18 1.01147812112234e-17 -3.62854809135858e-19 -8.68625636832517e-37)
(1.12268671292707 -0.13062506555626 3.37478622553582e-19 11.9625477029196 -1.12872542690615 2.10896382720653e-18 1.48200605330173e-17 -1.39790772954985e-18 2.61723341038547e-36)
(0.788757709725994 -0.137634520153466 3.80708860379444e-19 4.90544506810618 -0.817081525420957 2.15568777898392e-20 -1.80171917663556e-22 4.11727919898388e-23 2.38841077574585e-41)
(-0.562245167817644 0.222704812368746 -3.59390314540724e-18 -1.22152747928492 0.502330650843874 -4.95952148064079e-17 -2.14631256114083e-21 8.09404778707126e-22 2.14299033941171e-37)
(-1.84064465586315 0.877529937733352 -2.88062907579162e-17 -3.82954318913449 1.78698941738281 -7.64503244092063e-17 2.08533119350046e-17 -9.72804577201645e-18 4.17019774461041e-34)
(-2.20944042053976 1.27892947321933 -3.79491225074962e-17 -3.80587551912443 2.16958772936436 -4.18161497818618e-17 2.17266215396662e-17 -1.23828882913667e-17 2.36639800404784e-34)
(-2.13237616182583 1.41682023472351 -7.72708710334096e-18 -3.19332344992536 2.1015044062239 -1.33246712100683e-19 0 0 0)
(-1.97139057566692 1.43822953488506 -2.01436400549981e-16 -2.6786166235116 1.94224711109738 -2.71245025003313e-16 1.64444654728694e-17 -1.19228881441162e-17 1.66465992929592e-33)
(-1.74209673351008 1.3566099223755 -2.52262391291978e-19 -2.217229676259 1.71922251640117 -3.40795967882376e-19 1.3946545006981e-17 -1.08135988479083e-17 2.14396175733922e-36)
(-1.52482029922207 1.23974608087817 1.26654716891884e-16 -1.85764425474021 1.5061265760442 1.39775812062637e-16 -1.18838294072376e-17 9.63493937229087e-18 8.9390094509864e-34)
(-1.31639406261375 1.09725671999279 9.32463124593086e-17 -1.5641908494132 1.30170596717068 9.57644295912301e-17 0 0 0)
(-1.12526018330753 0.94606033363188 -6.21804269288091e-17 -1.32551057409534 1.11382570415132 -4.63623258412197e-17 8.59558066963958e-18 -7.22286210677543e-18 3.01724908797189e-34)
(-0.957156533716624 0.800216399388059 -8.30657238993345e-17 -1.13456472467827 0.948922071320471 -9.87777149412226e-17 -7.33458711372816e-18 6.13441432802523e-18 -6.38388967392506e-34)
(-0.827962123949793 0.682141046594148 8.32134105561949e-17 -0.997270214195524 0.822369962861656 1.00656944116931e-16 6.40065469055762e-18 -5.27801565613815e-18 -6.45772311562569e-34)
(-0.736107156808244 0.597899424070298 -2.20470960728797e-16 -0.900728729531187 0.732258094800269 -2.53088105910918e-16 0 0 0)
(-0.67126431713858 0.53871653692257 1.25088968599543e-17 -0.832812147588816 0.668878305731217 -4.73289447155703e-19 -2.57339574831568e-21 2.0515281758974e-21 -6.24356039528587e-40)
(-0.631648688233238 0.502052806337978 -1.08880409909496e-16 -0.792620024255954 0.63041827992756 -1.55124805468088e-16 2.78708316580936e-23 -3.728480257334e-23 6.51837547558038e-37)
(-0.61465342114355 0.484838662271211 -3.92862734598826e-17 -0.778307776829611 0.614289357735259 -5.06506002466449e-17 -4.95535096387819e-23 2.65994521187176e-23 7.88720554723185e-39)
(-0.618161772641407 0.484796740395728 -2.85376575485051e-17 -0.788153466538149 0.618446114332517 1.39110196752698e-18 -1.23772481493951e-22 8.59557849721682e-23 -1.27541749002445e-36)
(-0.640254085707479 0.499885129082105 5.38918421161976e-17 -0.820420294503529 0.640889709899474 4.99536090076144e-17 -5.1094612456125e-18 3.99129388138831e-18 3.15848252796531e-34)
(-0.677247950793959 0.526813797169641 9.81634034208039e-17 -0.871080818665714 0.677977374472862 1.07348058523128e-16 5.41750237533783e-18 -4.21644369422057e-18 -6.71989538101674e-34)
(-0.720415941730614 0.557807636189356 -3.11650644572435e-17 -0.930105662683734 0.720823929058124 1.31384174455621e-18 0 0 0)
(-0.760460371657972 0.582547316307559 1.42373856389435e-16 -0.99122652121048 0.760564273849972 2.10940557945678e-16 -6.13399122208447e-18 4.70626818845033e-18 1.29836639076666e-33)
(-0.794080968894929 0.596904390617933 -1.87202036024864e-16 -1.05333294617645 0.793780859460987 -2.72098846044928e-16 -6.66030603114442e-21 4.9117190624067e-21 -1.30996407876465e-36)
(-0.816741075210739 0.597171135711205 -1.1918709933784e-16 -1.11217820392308 0.816054169647921 -1.6221675725435e-16 6.47114462039781e-21 -4.77221981076702e-21 1.27275938396418e-36)
(-0.824191880863777 0.580488263143062 -6.28074561449476e-17 -1.16331877368034 0.823205859444709 -1.14663336403319e-16 0 0 0)
(-0.81280031071134 0.545330846662549 9.5290388024792e-17 -1.20238849952159 0.811712679553138 1.14980535487695e-16 7.1778960479618e-21 -4.67450333370002e-21 -1.32984323177634e-36)
(-0.780237627539591 0.492147689674257 -1.74096001457077e-17 -1.22556611752984 0.779318574964483 6.32652944794902e-19 -1.40515238515035e-20 8.86289209326015e-21 1.28754622668211e-36)
(-0.72726379788921 0.42453368111822 3.13977829109451e-19 -1.23183287422294 0.726773048055321 4.72322680728799e-19 1.37852489187063e-20 -8.09623731743105e-21 -2.68150047381232e-39)
(-0.660761727664609 0.350801685027556 -7.77419891806827e-17 -1.2282721458698 0.661138050973738 -1.81356521696178e-16 -6.68830089690243e-21 3.77282814931517e-21 2.51612372676576e-39)
(-0.587586902948982 0.279311911405774 -2.61503316499233e-17 -1.21681033698297 0.588570773429274 -5.55877723602399e-17 6.65562048844861e-18 -3.2176319890948e-18 3.03882609594611e-34)
(-0.508160537381789 0.21241536537368 6.18876605945885e-17 -1.19240454520795 0.509775179748476 1.89383857377194e-16 0 0 0)
(-0.425724321933883 0.152792894110624 -1.95002487947798e-17 -1.15647743560638 0.427863075832494 1.98058971247184e-18 0 0 0)
(-0.344121687700287 0.102578782380034 2.79123960997636e-17 -1.11343998609726 0.346667987672648 5.84108476035392e-17 -2.87123565243824e-18 8.9324451378396e-19 1.52238305147784e-34)
(-0.267621214909827 0.0630437101177354 7.21295038700083e-17 -1.07231696429314 0.270342999395613 1.66587760518014e-16 0 0 0)
(-0.199514282145932 0.034082741717584 1.99536559169982e-15 -1.04967946417273 0.202359205852359 -4.01697456989702e-17 0 0 0)
(-0.137791527171115 0.0138722717079044 1.21894625687824e-15 -1.06114996354203 0.141146976601676 -6.45102121182933e-15 5.26175967798118e-16 -6.99224924991149e-17 3.26570114914254e-30)
(-0.0870125377746447 0.00206370679119124 -2.35099657071271e-15 -1.12185547563681 0.0865556756476227 -5.58431935161364e-15 5.61357638516664e-16 -4.32374628786843e-17 2.73262421344599e-30)
(-0.0456516418407525 -0.00150808381659193 -2.02814331764965e-15 -1.45384688916236 0.052335810987703 1.03067613070211e-16 -1.1195125757349e-19 4.01828080505727e-21 7.52286332354212e-39)
(-0.0371142381813495 -0.000452207243826032 3.08287435784986e-19 -1.97715838555569 0.0393930730744311 3.62719646539571e-19 0 0 0)
(-0.0337231622833939 4.67246828569473e-05 -3.80237530316156e-20 -2.42542632527335 0.0377382690201098 1.64059277612917e-21 0 0 0)
(-0.0319084952757328 9.48709789708173e-06 3.79006110118385e-20 -2.85632571561623 0.0352057292239098 -2.74059489548395e-19 -1.44955263010696e-20 5.63520426202363e-23 -8.3340170019432e-42)
(-0.0292000882387083 2.30572128463761e-06 3.80237530316176e-20 -3.2448730936351 0.0326580044238903 2.70093743178997e-19 1.44955263010698e-20 -5.63520426202369e-23 8.33401700194329e-42)
(-0.0266268100171534 -1.67239592453519e-05 -2.26546469375684e-15 -3.59880563657666 0.0298209284508316 8.04975654684772e-17 0 0 0)
(-0.02401760127238 -2.47765295098541e-05 -2.30320067055931e-15 -3.91564532443565 0.0271018186305921 5.37615636611535e-15 -2.23604407142838e-15 1.54980050721575e-17 3.1238499202925e-30)
(-0.0216097708254994 -3.28434195212775e-05 2.26544611386228e-15 -4.19949879017255 0.0245008762318171 4.76885089899428e-15 -2.40956274982712e-15 1.40390524659276e-17 2.68959499748973e-30)
(-0.0193812627791537 -3.76355013993735e-05 2.3032006705595e-15 -4.45266800534103 0.02210739903352 -7.00086579879033e-17 1.06808788958984e-20 -2.57383177697237e-23 7.79374601877646e-35)
(-0.0173671727822943 -4.17855081518555e-05 -3.93827270107145e-20 -4.67850028377736 0.0199106835569536 -1.82356685942109e-19 0 0 0)
(-0.0155473226343938 -4.49032824663588e-05 2.00315540116161e-20 -4.87973512334337 0.0179114710510355 3.80851135327059e-20 -1.24505174757881e-20 2.15313023051077e-23 -1.03061467595282e-42)
(-0.0139110407805998 -4.76283314843461e-05 -2.34349420360214e-15 -5.0590373726813 0.0160895684724807 4.79136021886429e-17 1.24505174754466e-20 -2.15313023038545e-23 1.03061467865291e-42)
(-0.0124384680560565 -4.99309298411528e-05 -2.39501209724345e-15 -5.21870731421712 0.0144288360839073 4.82892764373178e-15 -2.87006957658064e-15 7.94046557330848e-18 2.68576496813484e-30)
(-0.0111140414651455 -5.19483775893375e-05 2.34351426561245e-15 -5.36082402969545 0.0129116787058493 4.56114569248075e-15 -2.95599865775306e-15 7.11549811613528e-18 2.49216982522977e-30)
(-0.00992322198701125 -5.36629631817392e-05 2.39499206568947e-15 -5.48723062612599 0.0115243526677386 -3.64713821824645e-17 0 0 0)
(-0.0088551947480246 -5.50776272594005e-05 -5.56446874308577e-21 -5.59960346146716 0.0102559132449397 5.64911728599082e-23 0 0 0)
(-0.00790214404123157 -5.61568462527006e-05 5.56019248188472e-21 -5.69948749398529 0.00909915730321938 -3.99234927956581e-20 -3.65527325399945e-21 2.72303360335578e-24 -3.6176150119274e-44)
(-0.00705964193144199 -5.68657071813046e-05 5.56446874308564e-21 -5.78834518892532 0.00805026551060431 9.12019162399258e-20 3.6552732539998e-21 -2.72303360335605e-24 3.61761501192775e-44)
(-0.00632630371869362 -5.71622615513782e-05 -5.56019248188555e-21 -5.86759525659216 0.00710875912297246 -5.12463086961745e-20 0 0 0)
(-0.00570360711049493 -5.7009466415417e-05 0 -5.93865011863312 0.00627715346231006 0 0 0 0)
(-0.00519548888311625 -5.6379655915586e-05 5.3951694853167e-35 -6.00294678014182 0.00556058092184577 -2.71794451803101e-20 0 0 0)
(-0.00480790560159977 -5.52614350901455e-05 -5.47091661041722e-35 -6.06197187310631 0.00496625556095909 2.7130398039756e-20 0 0 0)
(-0.0045483337022499 -5.36626497471529e-05 0 -6.11727936934252 0.00450291559056937 0 0 0 0)
(-0.00442522629208 -5.16159443338621e-05 0 -6.1705009532931 0.00418020433825163 0 0 0 0)
(-0.00444737193801669 -4.91836023432407e-05 0 -6.2233476659255 0.00400791749016803 0 0 0 0)
(-0.00462314771521136 -4.6461889322729e-05 0 -6.27760138636405 0.00399515219877314 2.3926555640673e-19 0 0 0)
(-0.00495956539084994 -4.35878065323094e-05 -4.74001882169277e-34 -6.33509398592978 0.00414921397883608 -2.38789684121104e-19 0 0 0)
(-0.00546082576714727 -4.07557675466819e-05 2.83701777832772e-20 -6.39766955693438 0.00447408866697752 5.76035086624526e-22 0 0 0)
(-0.00612614736690867 -3.82361029960384e-05 -5.72922805870489e-20 -6.46712100644565 0.00496807724746296 -5.08846997071011e-20 1.67760841306608e-20 9.62049609081415e-24 9.78696374026014e-40)
(-0.00694709411760622 -3.63542591311227e-05 5.48520991835088e-22 -6.54509047390975 0.00562038497618039 9.91813332355825e-20 -3.37872513003721e-20 -2.04711856372515e-23 -1.93883132084775e-39)
(-0.00790103710855383 -3.56454515732095e-05 5.7292280587051e-20 -6.6329187147655 0.00640575222643614 -4.79935988948788e-20 1.70111671697138e-20 1.08506895464388e-23 9.60134946821877e-40)
(-0.0089354169794328 -3.72497409580768e-05 3.50137611373366e-15 -6.73136565069938 0.00727128783433574 1.06105618210752e-16 0 0 0)
(-0.00996754859997632 -4.15772817407584e-05 7.11634507598725e-15 -6.84013016051472 0.00811723148188982 -5.29972476542329e-15 3.77611245068345e-15 -4.46414221463894e-18 2.85968558238833e-30)
(-0.0108664717587686 -4.90170861116063e-05 1.14004276783167e-16 -6.95739313097918 0.00878853862666436 -1.1647140448332e-14 7.66291142199424e-15 -9.68261808499436e-18 1.284793252931e-29)
(-0.0111722675676576 -7.41237311884906e-05 -7.11627942369518e-15 -7.07839267018936 0.00896258166914684 -6.43718699928636e-15 3.88705593250024e-15 -4.94805004739294e-18 3.62082563552329e-30)
(-0.0102399442657313 -0.000119882130271856 -3.61554213475913e-15 -7.19054445459241 0.00789713723595905 -1.36612905331997e-16 3.80209378450135e-20 4.58959873109107e-23 4.54615754129617e-39)
(-0.0086657640905525 -9.52613576855714e-05 7.05493746826608e-20 -7.27539495021748 0.00490379146704068 -9.48764633645609e-19 -7.66283580734971e-20 -9.82390815963244e-23 -4.31766797894522e-39)
(-0.00162010374920803 -0.000236390142451852 6.38354853332195e-20 -7.31249273590892 -0.0012859804729768 9.78751444992919e-19 7.73244859883087e-20 1.20684622491247e-22 -4.77724300410886e-39)
(0.0288539118690603 -0.00335803766792362 4.16599734869204e-15 -7.16482593475318 -0.0252496007962486 2.0102237590896e-16 -3.8717065759835e-20 -6.8341528205848e-23 4.54875344175805e-39)
(0.123392016007004 -0.0129143498501053 4.25970467306679e-15 -6.55589154119072 -0.135622211057097 -5.86685764422946e-15 3.62544291152906e-15 7.48170470322788e-17 3.12119701296949e-30)
(0.43759656930337 0.00589389826142388 -3.66695742889789e-15 -5.81907008600911 -0.427197911048617 -8.07929828256744e-15 3.19079282881508e-15 2.33973405151669e-16 4.57026285196704e-30)
(0.734914195030375 0.0714331978419228 -4.20129007801638e-15 -5.47496066564288 -0.723208300298821 -2.93431316757427e-16 0 0 0)
(1.02497838593432 0.172161948765385 2.39916600997803e-17 -5.26377589290119 -1.00967851674947 -1.76708399757213e-16 -2.70630201960344e-20 -5.80651538149062e-21 -1.33504048697873e-36)
(1.3102148669656 0.305685007291688 9.87801247742406e-18 -5.14318565496322 -1.29244984704423 4.12305035726634e-17 -1.30058685850367e-17 -3.26524068823489e-18 1.03086474888392e-34)
(1.59197779156115 0.470594877884605 4.83973031079651e-17 -5.06912989309135 -1.57135584530572 -2.20940480242623e-16 1.30211432732884e-17 4.03330391767126e-18 5.65305883061222e-34)
(1.86962013918353 0.664893058772157 -9.68549844063348e-18 -5.02176087538977 -1.84584808253179 8.36106473756347e-17 2.76185937931793e-20 9.11347392097975e-21 1.42269681763744e-36)
(2.1406595788598 0.885494203729261 3.51807395923349e-17 -4.98558068245156 -2.11307558705782 -8.39430025023873e-17 2.6678651409567e-17 1.12997399168429e-17 4.49384033672877e-34)
(2.40131928943628 1.12816878253388 1.3286259390689e-16 -4.9500080406306 -2.36945221109636 -2.73469651337166e-16 2.85863172206e-20 1.25382497323835e-20 2.48666552668268e-38)
(2.64942562621629 1.38855068872275 -6.69846446906851e-17 -4.91322958041433 -2.61296092829413 2.77620593319843e-16 -2.88612301018082e-20 -1.55566272369985e-20 5.81078039338976e-36)
(2.88793026037109 1.66178695538817 1.0101618048656e-17 -4.88945862371199 -2.84494323165218 -9.22253931347332e-17 2.79519103674344e-17 1.6255909986743e-17 5.08109935924549e-34)
(3.10233011356965 1.92483567836627 -4.0727525401456e-17 -4.87971514520664 -3.05242047569445 -3.40528213901773e-18 2.62162710822645e-22 -9.53819678688461e-22 -3.04796672373464e-36)
(3.27278166078641 2.15505063829454 -4.13654152158319e-17 -4.85394431386681 -3.21550899104279 -2.05742972894633e-18 3.1349461432651e-20 1.94098069189049e-20 -5.97233968646153e-39)
(3.3853091735555 2.33547216845624 -1.09440945676413e-16 -4.79234703694835 -3.32094120242413 9.64557501738181e-17 -2.88636066102281e-17 -1.999768710639e-17 5.9496500216164e-34)
(3.42864073963413 2.45164102802111 -2.69578735591074e-16 -4.68081823156408 -3.35801129508866 4.93434786654649e-16 -2.85246047651466e-17 -2.04605053823753e-17 2.97382329330107e-33)
(3.3933143487525 2.49190076648101 1.21458054725946e-16 -4.50759035382746 -3.31801984375373 -1.05499697679493e-16 2.77216901101262e-17 2.04035970681342e-17 6.62686342802887e-34)
(3.27223191554941 2.44783370529557 -1.55565178795445e-20 -4.26268020521096 -3.19403242660931 -1.13648004773881e-19 0 0 0)
(3.0571662015527 2.31306470951516 1.73039554735495e-14 -3.93247374399499 -2.97897694464693 1.19726017582398e-15 0 0 0)
(2.74588934254467 2.091092553217 5.41456881805883e-14 -3.5026854406934 -2.67091800009338 -4.77786330627597e-14 8.79144572372713e-15 6.70157227290873e-15 1.17071161075581e-28)
(2.35592379897549 1.80799164347145 2.45408650683477e-14 -2.97348500181315 -2.28619927868761 -5.66567874852738e-14 7.41101446786008e-15 5.69956976189143e-15 1.4360615907557e-28)
(1.90134097579682 1.47511513722765 -1.76168765675372e-14 -2.36385239771987 -1.83880677299778 -9.84578335385883e-16 -1.47922638814379e-17 -1.15046730372069e-17 -3.96290155200713e-34)
(1.38815115096266 1.09376228798681 4.5620123276879e-17 -1.68635525664731 -1.33396563422752 2.53414024725656e-18 0 0 0)
(0.813382403076086 0.658357725973829 2.29249579901272e-16 -0.943133246541283 -0.769275379874857 -3.41692788319103e-16 2.74925355875149e-21 1.81036399228768e-21 4.08656697748548e-36)
(0.172890660761329 0.16083800781386 -3.87206626014885e-17 -0.135105662316896 -0.139777363742812 1.61388355166695e-16 -8.71438885078978e-19 -8.96483127471925e-19 9.98445721099509e-34)
(-0.557086838782594 -0.42141957313302 -2.4143786618655e-16 0.759733784739215 0.57611565709132 3.4776116616304e-16 -4.94571282008834e-23 -1.789075512573e-22 1.01480674341981e-38)
(-1.39879681910782 -1.11377222056869 -4.3934144205744e-17 1.76095722877841 1.40208336395681 -1.08974248613683e-18 0 0 0)
(-2.42484303566739 -1.97732972861506 8.06127402366289e-20 2.95086339009734 2.40464287918722 -8.29748199050261e-20 2.93248195485933e-21 2.39852471620047e-21 -3.01310522017811e-42)
(-3.71785043939809 -3.05916044193954 3.75041848243999e-16 4.46045984927463 3.66434917110087 -4.82161932189425e-16 -3.03892013285591e-21 -2.48558223423536e-21 3.12246972256364e-42)
(-5.30344653395153 -4.33165652340535 -1.16289823741161e-16 6.39094975191484 5.20634417510642 1.38765155232099e-16 4.13008047877255e-17 3.36453764461398e-17 8.94887333741187e-34)
(-7.19190777364677 -5.73373596916927 4.1042333300002e-16 8.86331011341357 7.03992290826734 -4.50237677125915e-16 -5.67008070405018e-17 -4.50352245902904e-17 2.87940536451359e-33)
(-9.39067384898039 -7.17379938218838 -3.59762205488598e-16 12.0668451033793 9.17100784100277 4.19568799663449e-16 0 0 0)
(-11.8323596443953 -8.47361508227608 4.87500508419182e-16 16.2234964157723 11.5355727887634 -6.55916078070518e-16 0 0 0)
(-14.3408744811047 -9.34063147546403 -1.87236104428588e-16 21.6469038918457 13.9568248172995 3.17812915594806e-16 0 0 0)
(-16.2800044401833 -9.2426704209351 -1.81909220379098e-17 28.3224487627608 15.8347906865004 4.04594410878965e-19 2.50601073331092e-20 1.20269363207811e-20 -2.90462843771961e-37)
(-16.6623601139243 -7.71024651052568 -2.88728899791643e-17 35.8321288789423 16.1898455359912 6.06365695793828e-17 1.95120281165669e-16 8.81369829702907e-17 3.30679296047144e-34)
(-13.6136797202108 -4.6491783856983 1.58769056054626e-17 40.5447775281694 13.298252056541 3.94520002774738e-19 1.05348249370669e-16 3.45446167004647e-17 1.8154280556421e-36)
(-8.49731610864504 -1.95975180475156 -2.26173543788277e-18 39.0731544437201 8.33602379342727 5.16606768010759e-18 2.71438043323075e-20 7.0755828089303e-21 -2.30026102573272e-38)
(-4.03329251146966 -0.585583690656267 2.70162950077752e-18 32.8242034543944 3.98212976416133 -1.59871383307808e-17 8.85629465219463e-21 7.41534090576625e-22 -1.38307514366531e-38)
(-1.37691578192811 -0.123800190458301 1.43176372037471e-18 25.4593579340802 1.35512749836555 -7.30220614918953e-18 -2.54611461092195e-21 -5.62445000956693e-22 9.48158316208972e-39)
(-0.193662284330208 -0.0202616013258366 5.09299267880256e-19 18.3237895548535 0.220811673826771 -1.63639856903819e-20 1.54552533746729e-21 -1.07880841130591e-22 4.30548771587223e-39)
(-0.0437741691590448 -0.00124931560653073 -3.86275790441795e-23 15.2910755258135 0.0124979244906457 -1.59568645202034e-21 -2.32392600753168e-21 -2.79886464147595e-24 3.07538484065262e-43)
(0.0420403711832156 -0.00540596318045284 1.30279033871964e-22 16.5787268539145 -0.00947625975907422 -2.05955346656704e-23 7.01607129170787e-21 -2.04762483169458e-23 3.53385095740811e-43)
(0.0598814754581309 -0.0294169918425463 -1.74357732686176e-21 16.9727918337801 -0.0934093956428688 9.20915698439347e-22 -1.68723295728163e-20 6.78540483053323e-23 -1.15765647465343e-42)
(0.481323394760609 -0.0746452780804738 6.75086253940266e-19 16.7602186261205 -0.463023432608245 3.10429830696465e-18 1.03291888034452e-17 -2.84859854871564e-19 1.90773258163959e-36)
(0.960925085515003 -0.121634961880643 6.09796228969011e-19 13.8286917823617 -0.955234195691179 5.42993645458532e-18 -1.43051036349769e-17 1.34923845445801e-18 -2.52172715152474e-36)
(0.955828403395932 -0.108049264092063 -4.41503575019237e-18 7.98011475109708 -0.92480143031388 -1.1431096138127e-19 0 0 0)
(0.00247004998772097 0.162772493461458 1.13860261794194e-17 1.56604740904854 0.039332245647814 9.28530140066471e-17 1.04973473238672e-18 1.34864599214386e-18 1.17446784707048e-34)
(-1.24858606310431 0.715003590413198 -8.56637399491892e-17 -2.26804539651284 1.2970111154286 -1.68016729813009e-16 -5.2551983393344e-17 2.58146060659505e-17 -1.7190851075698e-33)
(-1.76904400291735 1.08272909995157 -3.13287539868978e-17 -3.06448870428148 1.80639449971062 -8.90822734467069e-17 -2.09602342506884e-17 1.19464314500028e-17 -2.2839064589558e-34)
(-1.79550666228973 1.22376881269249 -1.58500182475508e-17 -2.75932798236036 1.827795941271 -2.10941330026979e-19 7.09854000570453e-21 -4.38863500452472e-21 1.76676030323303e-37)
(-1.69937845427452 1.25892821279835 9.24220744964775e-17 -2.3716204203664 1.72423549064061 1.24428940667897e-16 -4.6261233731483e-17 3.35679707703096e-17 -2.44625756999257e-33)
(-1.53367518086571 1.20472742540963 -6.38432957241151e-17 -2.00430255408236 1.55464801833326 -1.35838688445243e-16 1.25955201356648e-17 -9.76913107752118e-18 8.55451165534071e-34)
(-1.36372099777618 1.11373469466199 4.05266763240945e-18 -1.70368380251995 1.38041559550643 4.91555038810675e-18 1.1454046878508e-17 -9.2865171805994e-18 -8.61633362001078e-34)
(-1.19302200973908 0.994666864244551 -2.30135010853407e-16 -1.45277812147746 1.20646913946207 -2.32573184721399e-16 0 0 0)
(-1.03296982249716 0.865092089887043 -8.47348089197626e-17 -1.24596731172008 1.04310499766502 -9.88868633057783e-17 -8.28954387158486e-18 6.96569284490792e-18 -2.91077325599621e-34)
(-0.891477727717329 0.740077647620872 2.20956651728616e-16 -1.07975260192325 0.898700050415948 2.40422618353731e-16 -6.97147125397323e-18 5.80228846447095e-18 1.55507231685975e-33)
(-0.781481415079096 0.638957309854888 -3.46518417014912e-16 -0.958373494056299 0.7866398364313 -3.92496780347766e-16 6.14506059332596e-18 -5.04358728561446e-18 2.52024846156575e-33)
(-0.703315804635152 0.567292680168582 7.61855725294422e-17 -0.87298267772794 0.7067342301465 9.3306521437082e-17 -1.10921957614029e-17 8.99821138273654e-18 -9.62446664036172e-34)
(-0.649605925232038 0.518354365358654 -1.67684063195684e-18 -0.814205195635791 0.65170263947528 2.4051219312984e-19 0 0 0)
(-0.618624077228305 0.490051609617586 2.1738432773696e-16 -0.780388946115557 0.619705271290486 3.02983684604706e-16 -9.71849981435458e-18 7.72319645514944e-18 9.64707499002908e-34)
(-0.608076784865916 0.479536664978583 5.66949292444571e-17 -0.769982748539651 0.608352909014306 4.62717581231235e-17 -9.54554567642094e-18 7.5376470154445e-18 -1.42471980566484e-35)
(-0.615843740021808 0.484595328865521 -7.66985656245176e-17 -0.78118639936426 0.615575962049853 -1.57344070192972e-16 6.8993072533902e-21 -5.43161989389487e-21 9.17539363887766e-37)
(-0.639655275157036 0.50285578461644 -3.56643820161019e-17 -0.811973408405241 0.639066493130603 -4.71886319528577e-17 4.92909531205251e-18 -3.85040021548539e-18 -3.03940296916232e-34)
(-0.675267443347875 0.530287054291751 -2.21819865375555e-16 -0.858256910968846 0.674825608537982 -2.59141260031015e-16 5.35405728636293e-18 -4.20942086331448e-18 1.61676101720303e-33)
(-0.715348526117466 0.559568303958572 4.81667904073124e-17 -0.912031991865716 0.715076868593673 -2.92414609305147e-18 -1.57714468833684e-20 1.22673126860444e-20 5.41166422666289e-41)
(-0.752035532647486 0.581648030364315 -5.39923878323063e-17 -0.968101103348617 0.752154618901841 -3.86309741732867e-17 1.78216222166906e-17 -1.3730741449053e-17 -2.25719502206749e-33)
(-0.781967662339239 0.592625100425508 1.19443410541199e-16 -1.02498685344202 0.7825087563009 2.63060569286346e-16 -1.25520015384024e-17 9.51912554869288e-18 -1.73271371312048e-35)
(-0.801292118073087 0.589202629693771 1.34397749279548e-16 -1.07953121822822 0.802260679207385 1.51359642833182e-16 -1.31167695819094e-17 9.6833614574542e-18 -2.34658246018055e-35)
(-0.806595020844329 0.569099482237601 1.01476771736828e-16 -1.12844671558261 0.807894860298778 1.07760904775143e-16 0 0 0)
(-0.795172232712791 0.531445576935635 -1.84091728664556e-16 -1.16878118792128 0.796644314262347 -2.74944862948483e-16 0 0 0)
(-0.765732805151074 0.47745228816255 2.82875865075198e-19 -1.19842239803671 0.767099350157966 4.46498074207103e-19 0 0 0)
(-0.719821921778177 0.411416224132897 -2.83121730476343e-17 -1.21768476385749 0.720578545819422 1.37397453437759e-18 0 0 0)
(-0.661958790099989 0.340495569566266 1.53512804377177e-16 -1.23108800555473 0.662332469643115 3.43119476715854e-16 -1.35279647258107e-17 7.27213765168608e-18 9.32181143106745e-34)
(-0.597128393158128 0.27148785378839 -7.37629817789577e-18 -1.23996109765936 0.596897188151958 -1.33614887815589e-16 -6.40189781372262e-18 3.09445797261604e-18 -2.89373381703828e-34)
(-0.526082294823299 0.20668138068067 -4.57911816259679e-17 -1.24160117051072 0.525353252195896 -1.7585592198575e-16 1.28110661901136e-17 -5.44087472746886e-18 -4.03139552766028e-35)
(-0.451497294392428 0.148711084710311 9.8812898880224e-19 -1.23713923018753 0.450319500533802 -7.30468115402617e-19 3.47161718052e-20 -1.17497959131429e-20 -3.94936131779665e-36)
(-0.376562073332151 0.0996308570414884 2.91778512993025e-17 -1.23053369563109 0.375082391123217 4.41182667612704e-17 8.71354274885965e-18 -2.68650919911499e-18 -4.11883882542695e-34)
(-0.305092437896644 0.0606705806606499 -9.26664656786992e-17 -1.22993951921499 0.303361218719393 -2.52532791017477e-16 5.7174183480486e-18 -1.42068157796309e-18 2.39052296561085e-34)
(-0.239496072691548 0.0313967878049181 -3.03799792265444e-15 -1.24929887337677 0.237976002375373 3.70028388678414e-18 0 0 0)
(-0.179247497761247 0.0107783403674521 -4.81053578317981e-15 -1.30673929065822 0.179106974330662 -1.42053273080437e-14 -5.16106710779173e-16 6.83447993925456e-17 -3.20580723784678e-30)
(-0.140225399828666 -0.000157465110137761 1.98702808069344e-15 -1.44785038564008 0.134674356529972 -1.49166043712827e-14 -5.31841400978751e-16 4.07253718698837e-17 -2.57026242478886e-30)
(-0.107477304556684 -0.00370092561674782 2.9285519306205e-15 -1.77495036180809 0.110138894800053 -1.46825085840324e-16 6.41486026724719e-20 -2.0033069002945e-21 -1.91200487768941e-34)
(-0.102008024472152 -0.00163082081087002 -3.33822000208326e-19 -2.21024820665753 0.0981539067688581 3.72962777142559e-19 2.49055783525358e-20 -7.82463411273831e-22 -2.53616890084668e-38)
(-0.0921857915855785 -0.000651263568939122 -5.46458331258973e-20 -2.59003673457655 0.0907607016251002 3.37354286101803e-19 0 0 0)
(-0.0854344632401298 -0.000745373877735212 -1.19942292877202e-33 -2.93703280614433 0.0829564507983045 -6.51475300721411e-20 0 0 0)
(-0.077104565550486 -0.0007818477322083 1.44607408522799e-34 -3.24239188062333 0.0749131017363099 -5.86117408533869e-19 0 0 0)
(-0.0694012704290532 -0.000786899294346506 3.11688493362314e-15 -3.51252949470503 0.0670150648871828 -1.10431555697359e-16 0 0 0)
(-0.0619710142956504 -0.000744293256759363 3.08998993688947e-15 -3.74937405742971 0.059665777744459 1.63195655702466e-14 2.17963051024734e-15 -1.50959599873861e-17 -3.04853039659368e-30)
(-0.0552601455070184 -0.000688770960325476 -3.11688493362356e-15 -3.95735380662196 0.0529736855403645 1.6778978288959e-14 2.30344368705497e-15 -1.34077456997164e-17 -2.56161166488384e-30)
(-0.0491804083396137 -0.000625270944719051 -3.09001648006647e-15 -4.1397273553743 0.0469860749468843 9.39770356907912e-17 0 0 0)
(-0.0437587364679639 -0.000563892599348382 2.63874590978329e-20 -4.2998035651663 0.0416619664008711 -7.12927564417304e-21 -3.32238201692198e-20 1.55598741575489e-22 -5.08313160681092e-42)
(-0.038917100997874 -0.00050640275646353 5.36356128284587e-20 -4.44030201428843 0.0369460324393203 1.43836376603942e-19 3.32238201695528e-20 -1.55598741576715e-22 5.08313160420583e-42)
(-0.0346030629997869 -0.000454582253484485 3.12349778515251e-15 -4.56363989957415 0.0327703851977063 -6.35521058554977e-17 3.56237557303695e-20 -1.24229087677899e-22 -1.0196279973325e-34)
(-0.0307524814615929 -0.000408083466004782 3.15032182446002e-15 -4.67186912585165 0.0290733019499021 1.69070554022059e-14 2.78432673909414e-15 -7.70088738936094e-18 -2.60846474559786e-30)
(-0.0273154055143617 -0.000366417146465545 -3.12352417261166e-15 -4.76678614655019 0.0258000970657891 1.73809595862908e-14 2.8378861890762e-15 -6.82823291596717e-18 -2.38822275973864e-30)
(-0.0242486892433703 -0.000328638704139566 -3.15034891689572e-15 -4.84996556774025 0.0229065002371825 4.797409603271e-17 0 0 0)
(-0.0215204524563962 -0.000293798531249281 0 -4.92282116207508 0.0203581888908012 0 0 0 0)
(-0.0191078837189035 -0.000260902263012748 7.4379220529447e-21 -4.98664535812172 0.0181306483178273 3.84156893336422e-20 0 0 0)