/*--------------------------------*- C++ -*----------------------------------*\
  =========                 |
  \\      /  F ield         | OpenFOAM: The Open Source CFD Toolbox
   \\    /   O peration     | Website:  https://openfoam.org
    \\  /    A nd           | Version:  7
     \\/     M anipulation  |
\*---------------------------------------------------------------------------*/
FoamFile
{
    version     2.0;
    format      ascii;
    class       volScalarField;
    location    "20000";
    object      k_conv;
}
// * * * * * * * * * * * * * * * * * * * * * * * * * * * * * * * * * * * * * //

dimensions      [0 2 -3 0 0 0 0];

internalField   nonuniform List<scalar> 
15600
(
-9.23541023259156e-07
-4.12887274876835e-06
-2.44979494396936e-07
-2.81969340205181e-07
-1.44185500448646e-07
2.77750647057763e-08
1.14484824177016e-08
-3.36106700099223e-08
-3.18869768104883e-08
-2.25631601458993e-08
-1.24007884622041e-08
-6.62077088110242e-09
-3.8265089785151e-09
-2.39604632414437e-09
-1.41485298896903e-09
-7.47853903839253e-10
-4.14305438275278e-10
-1.61881539018815e-10
-3.9247475176691e-11
-6.15831709868662e-11
-9.14602777412151e-11
-1.32497462249211e-10
-1.86311991155649e-10
-2.52986766595265e-10
-3.37487845717893e-10
-4.37714638168932e-10
-5.45833858671786e-10
-6.49969711776519e-10
-7.34276773890465e-10
-7.86804048354266e-10
-8.12078360474194e-10
-8.19120446518238e-10
-2.19123179456571e-09
-5.88573322103e-09
-9.50564535112709e-09
-1.1808010770476e-08
-1.11925895672165e-08
-6.04307768525092e-09
-6.90206843292339e-10
-1.60709311300953e-09
-4.6535262189241e-09
-7.03140263138513e-09
-9.21747737766307e-09
-1.12816598242948e-08
-1.31700468832085e-08
-1.47642553670426e-08
-1.60980648675969e-08
-1.71508098689835e-08
-1.79597430113371e-08
-1.85347755104841e-08
-1.89038692693733e-08
-1.90831383083668e-08
-1.90942758821654e-08
-1.89555698767234e-08
-1.86885721763001e-08
-1.83162286548056e-08
-1.78657451326885e-08
-1.73687650503875e-08
-1.68626864503604e-08
-1.63909466533161e-08
-1.60033010513434e-08
-1.57556097040657e-08
-1.57096699742966e-08
-1.59332493247548e-08
-1.65007399169426e-08
-1.74949502690798e-08
-1.90101446125364e-08
-2.11566431008593e-08
-2.40668891035533e-08
-2.79030165038397e-08
-3.28657812157342e-08
-3.91994583135391e-08
-4.71901324942166e-08
-5.72020636009212e-08
-6.97276664519399e-08
-8.55031070301863e-08
-1.09554753943607e-07
-1.36611455201525e-07
-1.74499010125424e-06
-5.72386823278578e-06
-3.17430628212528e-06
-1.59032411064405e-06
-9.56459467153982e-07
-6.52958317791966e-07
-5.15011243344168e-07
-4.82938095569964e-07
-5.29547578626232e-07
-6.44327142722487e-07
-7.45287507502191e-07
-7.30101253311397e-07
-8.89238736886526e-07
-1.27642175200227e-06
-1.85356266225719e-06
-2.58841929157761e-06
-3.46632035948513e-06
-4.44799613903589e-06
-5.58957023616694e-06
-6.72826024239702e-06
-7.52380768097391e-06
-7.96654122535536e-06
-8.13167900192556e-06
-8.18135146753465e-06
-8.15340252068607e-06
-8.3395058573644e-06
-8.76751121396148e-06
-1.03989886841186e-05
-1.31040499468408e-05
-1.68469211727619e-05
-2.24268807205814e-05
-3.10589263447819e-05
-4.43545651902769e-05
-6.35748661134532e-05
-8.07388643455926e-05
-6.92884001896132e-05
-2.79762718887733e-06
-2.97742408446971e-06
-2.29032280467793e-06
-1.32992556582061e-06
-6.4675706623262e-07
-1.43520461814582e-07
-1.319633727831e-05
-6.52951682629016e-05
-1.7526851342957e-05
-2.00439781685918e-05
-1.21739808108984e-05
6.51513185844181e-08
1.11494375075999e-06
-1.17422884603123e-07
-5.59849926113013e-07
-3.9387623041039e-07
-2.18463451768286e-07
-1.19795827377347e-07
-7.15731489339797e-08
-4.59054668289591e-08
-2.78011585997866e-08
-1.53235153323691e-08
-8.98423569746826e-09
-4.23774486250926e-09
-3.55194853309804e-09
-5.37295040299446e-09
-7.77163539334214e-09
-1.10483070243271e-08
-1.53659180282036e-08
-2.09054003718593e-08
-2.79879812486325e-08
-3.65365459175441e-08
-4.60770341227905e-08
-5.58386024990304e-08
-6.47226827102804e-08
-7.18621303231123e-08
-7.71973745021179e-08
-8.030871852573e-08
-7.83484503536634e-08
-1.3194103697172e-07
-1.96711691766698e-07
-2.28357847103436e-07
-1.9319869325285e-07
-5.92253015847288e-08
-7.85756769883114e-08
-1.59866247002275e-07
-3.62487433215582e-07
-5.42934369614432e-07
-7.03206339356628e-07
-8.56715731066704e-07
-9.96013055556692e-07
-1.11579995367148e-06
-1.21739373884982e-06
-1.2994893664483e-06
-1.36432251855543e-06
-1.41233387900957e-06
-1.44530275552092e-06
-1.4641823906716e-06
-1.47041682229646e-06
-1.46522465797689e-06
-1.45011928909958e-06
-1.4267400861063e-06
-1.39707554597544e-06
-1.36346478893173e-06
-1.32869891743319e-06
-1.29603828341549e-06
-1.26923403517338e-06
-1.25251176487211e-06
-1.25056011295768e-06
-1.26853559870052e-06
-1.31211941397008e-06
-1.3876665728592e-06
-1.50245632053475e-06
-1.66507393882067e-06
-1.8859280900287e-06
-2.17790722206754e-06
-2.5572019960831e-06
-3.04418876363983e-06
-3.66408496548264e-06
-4.44991782187502e-06
-5.45455574545061e-06
-6.78303636751909e-06
-8.90753207734707e-06
-1.67908478319815e-05
-4.75049976714119e-05
-8.81463650967836e-05
-5.39727564744664e-05
-3.00132257417897e-05
-2.05172473559394e-05
-1.62868553594698e-05
-1.50541589004023e-05
-1.57989723205115e-05
-1.80488216340854e-05
-2.14015472677211e-05
-2.47294470442175e-05
-2.73587588074979e-05
-3.33798720983789e-05
-4.35379681680016e-05
-5.70517756578248e-05
-7.32903175347455e-05
-9.18638386179151e-05
-0.000112084093253747
-0.000134090710784034
-0.00015488206623672
-0.000169517310157382
-0.000177886378432444
-0.000181483356774854
-0.000182965061957935
-0.000183323669265067
-0.00018787314599551
-0.000198541309472824
-0.000232116091487817
-0.000286572318215554
-0.000361623404743595
-0.00047102206624073
-0.000634911855500445
-0.000879142662795922
-0.00121450153269209
-0.00151938923464362
-0.00138081836391304
-0.000278668642044864
-0.000204837552914342
-0.000159540145301606
-9.84062636628385e-05
-4.99798288750273e-05
-1.50129253883227e-05
-6.66628050163177e-05
-0.000260655925833056
-0.000145914203539178
-0.000159716658779145
-0.000109209467723875
-1.29810742390258e-05
1.66063944475811e-05
2.55012415489942e-06
-2.33175567623887e-06
-1.69022283350672e-06
-9.24808940057265e-07
-5.31872742920324e-07
-3.38665222155343e-07
-2.28824918095317e-07
-1.44599528740058e-07
-8.44914107266549e-08
-5.4582651650305e-08
-3.25022365888862e-08
-3.92121581512839e-08
-5.7012304389269e-08
-8.00764149657716e-08
-1.11569007954269e-07
-1.53883491433997e-07
-2.1029147301287e-07
-2.83668656064882e-07
-3.74055511706271e-07
-4.78605379117792e-07
-5.91602335913808e-07
-7.03787199743683e-07
-8.06396507221722e-07
-8.93289130721313e-07
-9.53756707114355e-07
-9.71451208507187e-07
-9.18205750421827e-07
-1.20268274504567e-06
-1.25696237350047e-06
-9.07566595937786e-07
-6.69955587562464e-07
-8.78667248056454e-07
-1.55728264280621e-06
-3.18404225551276e-06
-4.69264305499703e-06
-6.13141672728371e-06
-7.49583236709657e-06
-8.76612799572209e-06
-9.87853075867886e-06
-1.08538435568253e-05
-1.16665669242131e-05
-1.23367610756815e-05
-1.28604532138747e-05
-1.32518959012584e-05
-1.35155276062426e-05
-1.36626436428058e-05
-1.37018671829999e-05
-1.36453459835192e-05
-1.35062266386479e-05
-1.33011253017467e-05
-1.30498707245009e-05
-1.2776592334169e-05
-1.25098569776612e-05
-1.22829653362805e-05
-1.21338530787441e-05
-1.21050625893817e-05
-1.22438570244126e-05
-1.26028506702419e-05
-1.32415842147469e-05
-1.42291408919991e-05
-1.56481976957855e-05
-1.76006901394547e-05
-2.02155026908183e-05
-2.3659046191815e-05
-2.8148684791956e-05
-3.39701069434142e-05
-4.15269198704078e-05
-5.14672058005917e-05
-6.49049484668636e-05
-8.43550588325464e-05
-0.000147479991416985
-0.000235339837427024
-0.000299136132260067
-0.000210195735738583
-0.000138004185606342
-0.000110776023121181
-0.000101773739606218
-0.000104656561231716
-0.000115848750699373
-0.000133603700956344
-0.000156286348402582
-0.000181464479806346
-0.000209737167716996
-0.000253103844183212
-0.000313660245561438
-0.000387919009539276
-0.000473014011610462
-0.000566766541102008
-0.000665776019909911
-0.000767411643458153
-0.000860050864172533
-0.000928929860064959
-0.000973919837497203
-0.0010008503738392
-0.001019762240924
-0.0010338597551865
-0.00107091059057563
-0.00114177559783072
-0.00132035221484584
-0.00159585311421968
-0.00196414401660267
-0.00247512017389081
-0.0031936644656136
-0.00418808261957105
-0.00542501387273282
-0.00647804101198662
-0.00608834853300448
-0.00292431462089878
-0.00175207948289975
-0.00128201581837979
-0.000794067997507525
-0.000421382099589828
-0.000136349140248074
-0.000279731640217057
-0.0004601797959134
-0.000484528034317002
-0.000528630246817536
-0.000422143287230037
-0.000133006317992904
9.64088243947766e-05
1.48037571440911e-05
-3.35902082553797e-06
-3.30535161555243e-06
-1.7112284716327e-06
-1.09788937551624e-06
-8.01548328922592e-07
-5.95905253349125e-07
-3.99239810755789e-07
-2.49006973083706e-07
-1.79306634922578e-07
-1.27965907269082e-07
-1.86917251709478e-07
-2.6638998827314e-07
-3.67792740317709e-07
-5.06276665458533e-07
-6.95867877942505e-07
-9.54553041456105e-07
-1.29524156611047e-06
-1.72062420468179e-06
-2.22416192965866e-06
-2.78621661436171e-06
-3.36930755708199e-06
-3.92946761076009e-06
-4.41981082706146e-06
-4.78318902166528e-06
-4.95321830513706e-06
-4.85429008090983e-06
-4.16830405024525e-06
-3.63983365645755e-06
-3.21386028607164e-06
-3.22235381410161e-06
-3.78463501272677e-06
-6.31863243488421e-06
-1.27670555399327e-05
-1.78943995856195e-05
-2.32620672751382e-05
-2.81166511349974e-05
-3.27202167834077e-05
-3.66956203219425e-05
-4.02378654428926e-05
-4.31837985228438e-05
-4.56486773562033e-05
-4.75891993947487e-05
-4.90706518081895e-05
-5.00977458571534e-05
-5.0713719677041e-05
-5.09431732816377e-05
-5.0826557914516e-05
-5.04040370501609e-05
-4.97279774089368e-05
-4.8860163227548e-05
-4.78769554406829e-05
-4.68696457483044e-05
-4.59462155008731e-05
-4.52312663466779e-05
-4.48662617678817e-05
-4.50099524850086e-05
-4.58403549086161e-05
-4.75600372925366e-05
-5.0404668107969e-05
-5.46563582990116e-05
-6.06621665624426e-05
-6.88590613612329e-05
-7.98068304714526e-05
-9.42269847697738e-05
-0.000113048732253623
-0.00013750802085745
-0.000169357738141861
-0.000211597132710326
-0.000276015281752276
-0.000362840054310929
-0.000417518353379446
-0.000416403133447736
-0.000362818686299046
-0.00029346364953479
-0.000280625124463242
-0.000290938633914371
-0.000319650582517644
-0.000362170152806483
-0.00041679153608118
-0.000482672405413516
-0.000560738382493552
-0.000654460865956445
-0.000772528110631773
-0.00091685072141587
-0.00108140044320654
-0.00126090948367302
-0.00145068848839459
-0.00164351257986495
-0.001830928305143
-0.00200020297433134
-0.00214076529481623
-0.00225305382714142
-0.00234490961422135
-0.00242915476271456
-0.00251507369712182
-0.00265094967152447
-0.00286416142249703
-0.00328586478286436
-0.00388495793590914
-0.00464085662523222
-0.0056115035763567
-0.00685365562030412
-0.00840093421191632
-0.0100880015104436
-0.0114379401789516
-0.0110426353367243
-0.00818976415052473
-0.00537278315779597
-0.00387056432786936
-0.00230899398040283
-0.0012726337951343
-0.000362887942141615
-0.000491561227729475
-0.000502748509116434
-0.00080584169658783
-0.000805549407781174
-0.000817584406686989
-0.000397910651730135
0.000180461946236929
6.77830837429063e-05
7.41415022737519e-06
-1.35335363599405e-06
-2.54958234188156e-07
-7.02685558908131e-07
-9.81656030752376e-07
-9.46619296025998e-07
-7.05083108164907e-07
-4.79733661385117e-07
-3.98395852541993e-07
-3.33123012697672e-07
-5.77548656806029e-07
-8.22236352578579e-07
-1.129338743781e-06
-1.54734591276293e-06
-2.12498298097383e-06
-2.91851980681577e-06
-3.96561896718133e-06
-5.27612099104107e-06
-6.83704698856422e-06
-8.59394216689242e-06
-1.04326999044478e-05
-1.22024917264689e-05
-1.37316252193259e-05
-1.48554879222219e-05
-1.53858915121242e-05
-1.51789386775141e-05
-1.41481199760044e-05
-1.22632232833363e-05
-1.02584600671065e-05
-8.68225069550151e-06
-9.41771916692983e-06
-1.56344734901681e-05
-3.13465187068732e-05
-4.02103563582201e-05
-5.15023395294194e-05
-6.07489428308418e-05
-6.98869744938013e-05
-7.74650280795599e-05
-8.43759398970294e-05
-9.00112586424811e-05
-9.47816472791915e-05
-9.85033444673172e-05
-0.000101366420925255
-0.000103349857958723
-0.000104555536846154
-0.000105019418136901
-0.000104819371983477
-0.000104022112082881
-0.000102718511783385
-0.000101012785054051
-9.90357631195707e-05
-9.69449411965049e-05
-9.4929379381009e-05
-9.32099200778724e-05
-9.20399928476499e-05
-9.17056826401171e-05
-9.25272201162711e-05
-9.48660325325661e-05
-9.91351544629692e-05
-0.000105815425085205
-0.000115475182780141
-0.000128792008991055
-0.000146571129432133
-0.000169746320661213
-0.000199343936100805
-0.000236380772340476
-0.0002814804409295
-0.000332979669186002
-0.00041346780044819
-0.000452018994522087
-0.000450995303790983
-0.00043991627806901
-0.000467047216382034
-0.000445222904178519
-0.00047690825642408
-0.00052579185132024
-0.000592910229486657
-0.000674334897315585
-0.000770139390789203
-0.000881952143162544
-0.0010138554468584
-0.00116648681701524
-0.00133830422685716
-0.00153041845891531
-0.00173644753308873
-0.00195056469495554
-0.00216725181208035
-0.00237796668289164
-0.00257374966829509
-0.002752293969972
-0.002915123192777
-0.00306342369012665
-0.00320429234899205
-0.00335768548371129
-0.00352288749456386
-0.00374832849606522
-0.0040741913174728
-0.00462324193083861
-0.00534677436296088
-0.00621210178220427
-0.00724971205805681
-0.00847655467345006
-0.00989988818586359
-0.0113420121824925
-0.0126402424674149
-0.0126858187091837
-0.0119500973857574
-0.00888805046273701
-0.00671778026573354
-0.00387528236165959
-0.00214356973772747
-0.000411854923392177
-0.000882035257796835
-0.000691167335626069
-0.00101159411600151
-0.000571535915919082
-0.000707854167594918
-0.000540361921350584
0.000188044300289785
0.000241280183576426
6.20974946601066e-05
1.45735449797584e-05
9.35368765644195e-06
3.68983178560244e-06
5.93435207370586e-07
-5.37701595504537e-07
-6.57778637811853e-07
-5.58407044194656e-07
-6.24521871916562e-07
-7.60567264318251e-07
-1.35752090991619e-06
-1.96169242339354e-06
-2.70297804216743e-06
-3.69983087211645e-06
-5.07116861035091e-06
-6.93734283152843e-06
-9.36981547541554e-06
-1.23711733854525e-05
-1.5889095913139e-05
-1.97683617759948e-05
-2.37122666973428e-05
-2.73410939476859e-05
-3.02634704234776e-05
-3.21813375187094e-05
-3.27532912909946e-05
-3.177786603502e-05
-2.90770865156192e-05
-2.48638748148843e-05
-1.99031005668446e-05
-1.60554497460178e-05
-1.67324137573168e-05
-2.78437469953356e-05
-5.24676649809636e-05
-6.15788449377908e-05
-8.06921180950392e-05
-9.4526676773527e-05
-0.00010945344350021
-0.00012129351396365
-0.000132348708325924
-0.000141141014157116
-0.000148586282983651
-0.000154288565343139
-0.000158636325943469
-0.000161593312311426
-0.000163355543874372
-0.000163991881667933
-0.000163639578619595
-0.00016240876293204
-0.000160441583943032
-0.000157892726920633
-0.000154950131060955
-0.000151834530373764
-0.000148806914797628
-0.000146168296544293
-0.000144259568937304
-0.000143458810112346
-0.00014417691380246
-0.000146860179032575
-0.000151992465235296
-0.00016010063696793
-0.000171755857991579
-0.000187565816389709
-0.000208145108326715
-0.000234041824452088
-0.000265602071416654
-0.000302755608514163
-0.000344928855919718
-0.000397004606367717
-0.000435535212816795
-0.000444589437608681
-0.000440644848615322
-0.000482642804743913
-0.000560139237412942
-0.000585583222789897
-0.000657557109388956
-0.000740801436892348
-0.000839979305870006
-0.000952077927843442
-0.00107858134185639
-0.00122216968708709
-0.00138581650244317
-0.00156439124836079
-0.00175292512644762
-0.00195211707729816
-0.00215610912591817
-0.00235950250747055
-0.00255730031290715
-0.00274181418547416
-0.00290800306635648
-0.00306197287619175
-0.00320960945968037
-0.00335175457212813
-0.00350061651739389
-0.00368370470815438
-0.0038603452747554
-0.00409774743071775
-0.00443030874870356
-0.00494828352098742
-0.00560288901244125
-0.00636680324424972
-0.00725543509400551
-0.00827298189344617
-0.00944231348598899
-0.0106419012257365
-0.0119370227949257
-0.0124865722949204
-0.0132376543602316
-0.0112759480235983
-0.00927241341934272
-0.00577065920832787
-0.00363515419193609
-0.000942376671083726
-0.00187501863203425
-0.00135327573835819
-0.00150840945270989
-0.000458680586900182
-0.000130336676458046
-0.000258294288840533
0.000113162662003296
0.000703230315513158
0.000152100967644497
6.53074307945944e-05
3.86920536326998e-05
1.8418134703146e-05
7.2026580328358e-06
2.38620644552991e-06
7.49342295477171e-07
1.08663036560739e-07
-5.33950551670959e-07
-1.30180346402309e-06
-2.59475972535534e-06
-3.8693397084883e-06
-5.37985504410183e-06
-7.35839961015342e-06
-1.00216851148788e-05
-1.35491158297677e-05
-1.80098497685537e-05
-2.33181766648176e-05
-2.92772391381934e-05
-3.55094186884133e-05
-4.14299410386138e-05
-4.64060733620151e-05
-4.99125018225579e-05
-5.16627999892897e-05
-5.13554744803719e-05
-4.89770522468158e-05
-4.44166891708626e-05
-3.81222536900247e-05
-3.13716978499778e-05
-2.70003991091959e-05
-3.0086961461871e-05
-4.75443300817735e-05
-7.70545258427479e-05
-8.74642574983149e-05
-0.000117899891774973
-0.000137413094040853
-0.00015893642211951
-0.00017489843962554
-0.000189487275540876
-0.000200532560782777
-0.000209552633863431
-0.000216102141388833
-0.0002207968170972
-0.000223664507675868
-0.000225010681021825
-0.000224969931444738
-0.00022374672850944
-0.000221504702910135
-0.000218436066530486
-0.000214740860618423
-0.000210650737410509
-0.000206429406255912
-0.000202381125012268
-0.000198849589597613
-0.00019621543630264
-0.000194889883389962
-0.000195300435915993
-0.000197886376280512
-0.000203088292658448
-0.000211339765086408
-0.000223048602168728
-0.000238563377994061
-0.000258111852779618
-0.00028169090285633
-0.00030890517941425
-0.000338697333901012
-0.000368175638589417
-0.000410837460092577
-0.000421802979298817
-0.000425615467901938
-0.000444634992504512
-0.000541974382262892
-0.000644639206165869
-0.00070778508026399
-0.000808449572485011
-0.000917098611672524
-0.00103909507298295
-0.00117241328955156
-0.00131906040579907
-0.00148146989420697
-0.00166010082223702
-0.00184579174514579
-0.00203440001696921
-0.00222603515189047
-0.00241542185159351
-0.00259773915895203
-0.00276884743812069
-0.00292260824573271
-0.00305810734643355
-0.00318535417022627
-0.00331029873313608
-0.00343295166337784
-0.00359335372768174
-0.00375619395561717
-0.00391689252671657
-0.0041280844361913
-0.00441821447647716
-0.00485219920479964
-0.00538895033613201
-0.00601223750713498
-0.00673545622323968
-0.00756528335645674
-0.00854572874187819
-0.00961327856570578
-0.0109320972715765
-0.0119102705345349
-0.0134638620175488
-0.0127656936668119
-0.0113355075052731
-0.00780797240586561
-0.00578938564259901
-0.00251217704479229
-0.00331872858628307
-0.00261516902357646
-0.00231061297731363
-0.000928851966452774
0.000467926607030943
0.000137755907208027
0.000533469888199865
0.000999314769514804
0.000343733240445127
0.000180530916131442
0.000104639169422799
5.39858371156426e-05
2.47673565353153e-05
1.1147057954304e-05
5.47168818475135e-06
2.72152366477148e-06
6.08374934335933e-07
-1.58181260677408e-06
-4.10501333447484e-06
-6.47418293886706e-06
-9.14200981344663e-06
-1.2484359414722e-05
-1.68047333763468e-05
-2.22797154818748e-05
-2.88866150338313e-05
-3.63315457648847e-05
-4.41915022690492e-05
-5.18665892009474e-05
-5.86106756017902e-05
-6.37862315784029e-05
-6.69908887469219e-05
-6.81025790585521e-05
-6.70490655028718e-05
-6.41219250551478e-05
-5.93779244241216e-05
-5.36060296135654e-05
-4.86392018033997e-05
-4.81748776238266e-05
-5.78778316954363e-05
-8.25106567899334e-05
-0.000112709620459029
-0.00012752708333708
-0.000167526670946589
-0.000191294309675193
-0.000216980842088935
-0.000235024548908572
-0.000250949012627699
-0.000262433303554073
-0.000271355657755859
-0.000277385406707313
-0.00028126726530983
-0.000283123678738824
-0.000283325028624873
-0.000282063893209387
-0.000279584621241202
-0.000276086033383451
-0.000271786030445184
-0.000266905863598997
-0.000261692664032781
-0.000256421833431139
-0.00025140560234674
-0.000246991211084443
-0.000243555708051757
-0.00024149771202796
-0.000241211311095261
-0.000243076448252581
-0.000247436923701743
-0.000254583597157971
-0.000264724695971995
-0.000277944072794129
-0.000294139644585178
-0.000312927509394299
-0.000333545864279688
-0.000354919256835213
-0.000379902669196839
-0.000399828012472381
-0.000407194455572547
-0.000418426277336336
-0.000463781904403249
-0.000601963543507054
-0.000719293203563029
-0.000811267880630038
-0.000932285821949058
-0.00105962291435419
-0.0011978906756948
-0.00134593943196199
-0.00150572051170538
-0.00167892685048865
-0.0018638408086635
-0.00204936534929863
-0.00223298097805082
-0.00241410111477055
-0.00258797025932531
-0.00275031909708551
-0.00289788620775746
-0.00302619077391791
-0.00313748245818996
-0.00324297315830931
-0.00334762128468549
-0.00345062167519223
-0.00363405144714157
-0.00375527021206085
-0.0038933346690524
-0.00407128598906214
-0.00431148223763883
-0.00466283777497896
-0.00509184823630948
-0.00559225706498072
-0.00618027680256431
-0.00686918200328605
-0.00772070103635773
-0.00872066665763781
-0.0100704881597068
-0.0114045640300221
-0.0134332619876261
-0.0136416571704111
-0.0128544934239844
-0.0095863283456234
-0.0077453614941896
-0.00449812665280067
-0.00483248861787519
-0.00384085806808587
-0.00319625683716725
-0.00183110337856652
0.000912421939177057
0.000287770918310012
0.00115874217942167
0.00131667557935357
0.00074220491466822
0.000386588228062371
0.000220889175997989
0.000122190312932494
6.13064020334607e-05
3.06585734826455e-05
1.65236242291223e-05
9.1993654765628e-06
4.07440512257239e-06
-7.89822631454374e-07
-5.25814936333315e-06
-9.23005198909802e-06
-1.34136509877485e-05
-1.83384464031739e-05
-2.43566580892584e-05
-3.15825964283587e-05
-3.98614308778356e-05
-4.86851879248865e-05
-5.75071364444155e-05
-6.57025366107985e-05
-7.26104127200948e-05
-7.7782039204026e-05
-8.09895542214981e-05
-8.22259968022537e-05
-8.16810305244654e-05
-7.99108094391646e-05
-7.72122036884353e-05
-7.4765436477591e-05
-7.48769353068988e-05
-8.15627054575762e-05
-9.94857791994131e-05
-0.000129334876771637
-0.000156697219159715
-0.000177500472319242
-0.000222430283970129
-0.000248679891715701
-0.000275681345706166
-0.000294068347679603
-0.000309619596226165
-0.000320380902306503
-0.000328263405672619
-0.000333136752703366
-0.000335760756262211
-0.000336343762236999
-0.000335271580594523
-0.000332772652103914
-0.000329102514837238
-0.00032447361768819
-0.000319106934395059
-0.000313223354706638
-0.000307062653171616
-0.0003008879555713
-0.000294994328528427
-0.000289706756252284
-0.000285372270233835
-0.000282353809563979
-0.000280990674966459
-0.000281588343856825
-0.0002843873421369
-0.000289545321546991
-0.000297106251165796
-0.000306965560141408
-0.0003188328729877
-0.000332177572090314
-0.00034619510655368
-0.000359604023810832
-0.000383817434971042
-0.000389583467058432
-0.000399453372709631
-0.000422393168265365
-0.000490221465020758
-0.000656346867346816
-0.000784478550510253
-0.00089825871390509
-0.00103444901009594
-0.00117592310010423
-0.00132619876648863
-0.0014847592376439
-0.0016532374779485
-0.00183252277088002
-0.00201939116666883
-0.00220211409084765
-0.00237947727090154
-0.00255028898478463
-0.0027102604489171
-0.00285564246355543
-0.00298401194348071
-0.00309246179906624
-0.00318546137797767
-0.00327405726888272
-0.00336208417280449
-0.00347310638887977
-0.00364056958738646
-0.0037343281656843
-0.00385060912625817
-0.00399754444052544
-0.00419228194897984
-0.0044740411522673
-0.00481499005724591
-0.00521658944889037
-0.00569906197514335
-0.00628284195781167
-0.007044507145296
-0.00801050255923298
-0.00939768829633939
-0.0110327042127383
-0.0133857119064361
-0.0144903301116543
-0.0139034290729781
-0.0110205210050941
-0.00922911084344053
-0.00631630811326658
-0.00617913441484831
-0.00506827114891305
-0.00407831610910477
-0.00287998026970866
0.00105297344707281
0.000252632273305437
0.00166843204086869
0.00158271019930491
0.00140914787115574
0.000551234815334302
0.000386680262429874
0.000227977727545563
0.000123131876975856
6.5780592412958e-05
3.72268673295783e-05
2.18200549581157e-05
1.15277916659538e-05
2.32681614086748e-06
-4.98093959968547e-06
-1.11467880727988e-05
-1.71779998346509e-05
-2.37724532442459e-05
-3.13273788126793e-05
-3.99273777535575e-05
-4.93535629588564e-05
-5.89966070955452e-05
-6.83481671281822e-05
-7.69027192660952e-05
-8.41674376796948e-05
-8.98728838592324e-05
-9.38931997556337e-05
-9.62776580330693e-05
-9.74921691158752e-05
-9.83067782745993e-05
-9.9284267442259e-05
-0.000101909733012546
-0.000108658676842861
-0.000123107727593803
-0.000147923652623365
-0.000180108942358751
-0.000203547082150175
-0.000230573461165766
-0.000276559283555154
-0.000303966576694055
-0.000330318996069589
-0.000348075256820401
-0.000362416978973317
-0.000372021036754
-0.000378603112246308
-0.000382239520285591
-0.000383634003320168
-0.000383058104462876
-0.000380883837210975
-0.000377357019479707
-0.000372727577913245
-0.000367207279411392
-0.000361006720899896
-0.000354333099870903
-0.000347405094133207
-0.000340459001242062
-0.000333758072399438
-0.000327591100780104
-0.000322261376110639
-0.000318088881464121
-0.000315354033918281
-0.000314293008534159
-0.000315058599913802
-0.000317707911037829
-0.000322177203435596
-0.000328262491793806
-0.000335620408564684
-0.000343767294477496
-0.000352169023400777
-0.000363279192783578
-0.000376780408767307
-0.000382978875124804
-0.000398271965866706
-0.000433282624933448
-0.000518660895115468
-0.000703791227528675
-0.000841013287342376
-0.000971286106337045
-0.00111931070030356
-0.00127175374324631
-0.00143116309941282
-0.00159738818887564
-0.00177166303014422
-0.00195416857469181
-0.00214074002296209
-0.00231969641371851
-0.00249066033958563
-0.00265200175836994
-0.0027998608132864
-0.00293099006587158
-0.00304375580283602
-0.00313667798833246
-0.00321571552101347
-0.00329106328525353
-0.00336539850376583
-0.00350898999252866
-0.00362634540961973
-0.00370708500135291
-0.00380391114070208
-0.00392348642526208
-0.00407882964372921
-0.00430331671770097
-0.00457300340481927
-0.00489516297114049
-0.00529401666345128
-0.005796845106939
-0.00649364749979643
-0.00744396010582367
-0.00887605760184685
-0.0107721291203048
-0.0133713051759369
-0.0150129029060229
-0.0145815394551197
-0.0121081044343751
-0.0103092869328426
-0.00777743622011296
-0.00728305790087266
-0.00616203692516446
-0.00491632807790587
-0.00385623763319193
0.000697630846685959
0.000333464618416598
0.00190183929364398
0.00232509729711981
0.00158735501361121
0.000823403410251587
0.000593318004984569
0.000365254977932858
0.000210178222128139
0.000118324830855513
6.94856255547233e-05
4.22254440927616e-05
2.44524367594091e-05
9.05445846224995e-06
-2.12517948339106e-06
-1.11926482657321e-05
-1.94712053436974e-05
-2.78584218980441e-05
-3.68485222128172e-05
-4.66036871600235e-05
-5.69376726291952e-05
-6.72527222943829e-05
-7.71652590872069e-05
-8.63218919623706e-05
-9.43865092964544e-05
-0.000101225035084243
-0.000106771185366481
-0.000111110182215074
-0.000114974043506256
-0.000119284271306297
-0.000124812642683397
-0.000133156447333686
-0.000146588205499898
-0.000167721336782885
-0.000197214099724844
-0.000229956773333449
-0.000250189758517339
-0.000282284479435734
-0.000326966713497359
-0.00035458109334811
-0.000379329966120264
-0.000396067802360367
-0.000408982912762419
-0.000417406683763849
-0.000422770121827422
-0.000425321626992093
-0.000425685221717816
-0.00042417361713135
-0.00042113462874468
-0.000416819430975379
-0.000411465003292902
-0.000405274266366159
-0.000398440534459301
-0.000391149848386984
-0.000383592194988905
-0.000375968644669571
-0.000368502576960868
-0.000361440151778161
-0.000355033909142615
-0.000349562772857267
-0.000345252373144102
-0.000342283868488397
-0.000340745306982559
-0.000340630762450018
-0.00034182431815569
-0.000344098443709054
-0.00034715923333072
-0.000350692098676437
-0.000354270535235521
-0.000369059420994473
-0.000371670927844628
-0.000380068480432093
-0.000401787942201447
-0.000447693097469169
-0.00054638269886063
-0.000744564995651201
-0.000889716060144577
-0.00103252807321163
-0.00119004342118513
-0.00135114712493256
-0.0015176395990688
-0.00168951020320704
-0.00186759636310612
-0.00205150200772013
-0.00223651692319331
-0.00241133034383667
-0.00257603070010473
-0.00272871300131662
-0.00286592111534166
-0.00298490110307754
-0.00308475940038082
-0.0031652798471113
-0.0032333712301694
-0.0032980216539828
-0.00336087960280817
-0.00354638813633917
-0.00360711728196658
-0.00367597746368587
-0.00375546072615561
-0.003850810361871
-0.00397191569491408
-0.00414860369182047
-0.00435946440546937
-0.00461616390587299
-0.00494654101778461
-0.00538428128897859
-0.00603233541980905
-0.00697710667642469
-0.00846176992690962
-0.010590235888404
-0.0133898109803985
-0.0151746696229133
-0.0150074842167536
-0.0128996321348758
-0.0110874700725415
-0.00888657818689936
-0.00815160831315416
-0.00706936148224845
-0.00569189265540842
-0.00464921697069823
-0.000176034712275305
0.000733535589438367
0.00182112877983428
0.00308012870044222
0.00160740659659925
0.0012395269432703
0.00075492656301271
0.000525314616161868
0.000317140569142078
0.000186123934006763
0.000112662547568014
7.0505217212343e-05
4.34894997191532e-05
2.0157906031503e-05
4.07344731537197e-06
-8.67074504010518e-06
-1.96779153041103e-05
-3.00714919729363e-05
-4.05231978897692e-05
-5.13950044089514e-05
-6.26090150577763e-05
-7.36636147982129e-05
-8.43313330609578e-05
-9.44078247197813e-05
-0.000103691467706486
-0.000112152389595586
-0.000119762819949363
-0.000126625078577009
-0.00013369014930072
-0.000141958099306397
-0.000152303561531931
-0.000166232751470022
-0.000185552695995442
-0.000211787587186119
-0.000244151288318057
-0.000276844337838296