/*--------------------------------*- C++ -*----------------------------------*\
  =========                 |
  \\      /  F ield         | OpenFOAM: The Open Source CFD Toolbox
   \\    /   O peration     | Website:  https://openfoam.org
    \\  /    A nd           | Version:  7
     \\/     M anipulation  |
\*---------------------------------------------------------------------------*/
FoamFile
{
    version     2.0;
    format      ascii;
    class       volScalarField;
    location    "20000";
    object      nut;
}
// * * * * * * * * * * * * * * * * * * * * * * * * * * * * * * * * * * * * * //

dimensions      [0 2 -1 0 0 0 0];

internalField   nonuniform List<scalar> 
15600
(
5.85650797064687e-10
6.13194038015226e-10
5.0192003812843e-10
3.44591039044749e-10
1.90114055199151e-10
8.44885093552651e-11
3.06531782993535e-11
1.5012527134979e-11
1.17085439341521e-11
8.96534164958318e-12
6.12532256693332e-12
4.17907094203384e-12
3.07165459981528e-12
2.41718357954647e-12
2.03286782706073e-12
1.85264694571935e-12
1.83730128034981e-12
1.95737086458293e-12
2.22060678609436e-12
2.63638247525547e-12
3.2440875793131e-12
4.10044622845785e-12
5.27359458137925e-12
6.83525044284432e-12
8.89261073769476e-12
1.15949264996621e-11
1.50971482620326e-11
1.95490427300493e-11
2.50819289039952e-11
3.17861808437699e-11
3.97094509365421e-11
4.88809709644162e-11
5.91586583595845e-11
7.0091867912296e-11
8.10883203010517e-11
9.13401107354791e-11
1.00283989484707e-10
1.08242110969928e-10
1.16945519682755e-10
1.28913905910896e-10
1.51174842041719e-10
1.9543241612408e-10
2.46231620884294e-10
3.00329398256734e-10
3.56723551619217e-10
4.14633247533532e-10
4.7315762943442e-10
5.31753571666453e-10
5.89909548900888e-10
6.47285999891204e-10
7.03582559894581e-10
7.58574910735028e-10
8.12067283539888e-10
8.63903132082815e-10
9.13952329173531e-10
9.62118129812362e-10
1.00833926744781e-09
1.05259945877986e-09
1.09493703443127e-09
1.13545755892217e-09
1.17434685192523e-09
1.21188440807805e-09
1.24845595275711e-09
1.2845650205193e-09
1.32084359464162e-09
1.35806259066518e-09
1.3971438724813e-09
1.43917545468388e-09
1.48543197800615e-09
1.53740212137599e-09
1.59682460866959e-09
1.66573448155957e-09
1.74651224280831e-09
1.84192861950803e-09
1.9552706690036e-09
2.09061490839533e-09
2.25351591308255e-09
2.45942355548867e-09
2.7150739371728e-09
2.87219051113369e-09
2.4706404123938e-09
2.22270924952564e-09
2.10354108290448e-09
2.03722362094544e-09
1.9958112381515e-09
1.9643148567297e-09
1.93424031943449e-09
1.90060670850377e-09
1.86007560720769e-09
1.81971444803969e-09
1.80507418916942e-09
1.81073663087613e-09
1.82602312054182e-09
1.84453882025142e-09
1.86280437095231e-09
1.87772925641138e-09
1.88705776147867e-09
1.87589928783427e-09
1.82480226369984e-09
1.74095262407499e-09
1.63611630399976e-09
1.52060845174762e-09
1.40187327060032e-09
1.29162806969289e-09
1.19331851249524e-09
1.12765510078564e-09
1.10285389818687e-09
1.11583786998466e-09
1.16983740768223e-09
1.27537530263038e-09
1.44935164238741e-09
1.71453867850593e-09
2.05073711685757e-09
2.3194959115553e-09
2.05554745859729e-09
1.66627312712712e-09
1.25132367813354e-09
9.14216317031193e-10
6.82399702468701e-10
6.09988845740707e-10
1.11847925945622e-07
1.16831527710558e-07
9.56112741406579e-08
6.55827794659253e-08
3.64510775414304e-08
1.64762509533963e-08
6.0837267205111e-09
2.95415668138345e-09
2.27957481104335e-09
1.75462020233431e-09
1.20713990216164e-09
8.24650652570343e-10
6.04489382634077e-10
4.74172413270387e-10
3.97192508770696e-10
3.60070553952586e-10
3.55132660509427e-10
3.7653327752298e-10
4.25475884417553e-10
5.03532374774753e-10
6.17993632741314e-10
7.79564934957213e-10
1.00126661143032e-09
1.29690083286504e-09
1.6866859659463e-09
2.19908315368722e-09
2.86410667627519e-09
3.71107842239005e-09
4.76610333835348e-09
6.04765872441763e-09
7.56539792656739e-09
9.32457960177132e-09
1.12987994078701e-08
1.34010011136997e-08
1.55196246785841e-08
1.74985455043673e-08
1.92265748930203e-08
2.07641945611285e-08
2.24381608364721e-08
2.4707122320173e-08
2.88759701636942e-08
3.72961508298277e-08
4.69710368074232e-08
5.72801069197985e-08
6.80279496700362e-08
7.90685178725712e-08
9.0227929062684e-08
1.01402962558595e-07
1.12495148936562e-07
1.23439679496909e-07
1.34178979127496e-07
1.44670262062248e-07
1.54876133496992e-07
1.64766730041187e-07
1.74317164381665e-07
1.83508857125978e-07
1.92329889952656e-07
2.0077680371786e-07
2.08856413181954e-07
2.16588204319507e-07
2.24006812457415e-07
2.31164584757456e-07
2.38133980636788e-07
2.45009787744073e-07
2.51911159870659e-07
2.58983623047615e-07
2.66401376510091e-07
2.74370213917157e-07
2.83131488350001e-07
2.92967471478801e-07
3.04208513763991e-07
3.17242674020802e-07
3.32526558960681e-07
3.50595625576309e-07
3.72096534151163e-07
3.9785858497539e-07
4.28999494091144e-07
4.68656093641602e-07
5.15890078623957e-07
5.41415951972315e-07
4.68196944760794e-07
4.22777751564705e-07
4.00961792845592e-07
3.88877109279262e-07
3.81371393092906e-07
3.7564366200873e-07
3.70108325287127e-07
3.63833646353732e-07
3.56305471888724e-07
3.49075729224481e-07
3.46749215448815e-07
3.48116999202327e-07
3.51175737135384e-07
3.54761809090205e-07
3.58233096003189e-07
3.61008670906722e-07
3.62561456374229e-07
3.60005588812186e-07
3.49842989563856e-07
3.33581212319777e-07
3.13445375028178e-07
2.91349096545188e-07
2.68726992671973e-07
2.47776683967556e-07
2.29231116903697e-07
2.16979057191225e-07
2.1246367045121e-07
2.15098958209876e-07
2.25507235859017e-07
2.45624105497071e-07
2.78473991893129e-07
3.27836318852327e-07
3.89247789255634e-07
4.36759420388115e-07
3.87195032229914e-07
3.11387065034008e-07
2.33843705958392e-07
1.71767311800177e-07
1.29070428651154e-07
1.16411547805874e-07
2.40279008670591e-06
2.50109628396698e-06
2.04637416318753e-06
1.3929233847062e-06
7.81001673580873e-07
3.6439526869266e-07
1.38682893885881e-07
6.71298568704494e-08
5.1237566109752e-08
3.96728285468001e-08
2.75097682167754e-08
1.88380384573628e-08
1.37852101280351e-08
1.07873972271012e-08
9.00669184213521e-09
8.12521698185254e-09
7.96978642886418e-09
8.40880834969056e-09
9.46054426444221e-09
1.11545987088939e-08
1.36469560511237e-08
1.71701800436482e-08
2.20118517839908e-08
2.84836763055456e-08
3.70304146743613e-08
4.82797055684509e-08
6.29076570510702e-08
8.15863867734851e-08
1.04927350816982e-07
1.333775088171e-07
1.67157135501066e-07
2.06334896030275e-07
2.50396050279038e-07
2.97154621553948e-07
3.44217708105437e-07
3.88215922304904e-07
4.26696315540592e-07
4.61076104323799e-07
4.96688586324261e-07
5.43159564739499e-07
6.2745657811516e-07
8.07119979295169e-07
1.01508464114015e-06
1.23682688534588e-06
1.4680879174486e-06
1.7057367219209e-06
1.94596534807518e-06
2.18655947223148e-06
2.42536945048761e-06
2.66101091197396e-06
2.89224274518459e-06
3.11815662629271e-06
3.3379530561647e-06
3.55099496882827e-06
3.75674425708907e-06
3.95479159267224e-06
4.14486047601734e-06
4.32684554430301e-06
4.50085028900258e-06
4.6672386679518e-06
4.82668873695981e-06
4.98024890457912e-06
5.12939100802175e-06
5.27605974360054e-06
5.42271840736211e-06
5.57239397005125e-06
5.72872905343027e-06
5.89604861417148e-06
6.07945233824256e-06
6.28494399664905e-06
6.51961325285961e-06
6.79189594554195e-06
7.11191252830511e-06
7.49188715133665e-06
7.94712315130898e-06
8.49794600429866e-06
9.17165974751258e-06
1.00143426271943e-05
1.09036726839441e-05
1.12553391956037e-05
9.83464794223739e-06
8.98837369724285e-06
8.57574038353778e-06
8.34750854729412e-06
8.20607593431131e-06
8.09687473399538e-06
7.98867209878689e-06
7.86339013999435e-06
7.7144740324795e-06
7.57880309548412e-06
7.54417592553185e-06
7.5816903395858e-06
7.65128487658124e-06
7.73013328024805e-06
7.80517386746879e-06
7.86417178562705e-06
7.89366393735176e-06
7.83254448862024e-06
7.61143663375678e-06
7.26356733101015e-06
6.83448727247551e-06
6.36286973002178e-06
5.87976751815912e-06
5.43089983696297e-06
5.03380582182385e-06
4.76840454927513e-06
4.66511634423674e-06
4.71207103982119e-06
4.92020412675118e-06
5.32489513721464e-06
5.97890218425512e-06
6.94187088422729e-06
8.10885111558576e-06
9.00011857282373e-06
8.08127158170306e-06
6.36263230739828e-06
4.72921977106778e-06
3.49611848249178e-06
2.67354297505138e-06
2.47415957966818e-06
1.72559251291301e-05
1.80511266458643e-05
1.49463824859531e-05
1.01302983885196e-05
5.76555258356e-06
2.850709984036e-06
1.15935937087662e-06
5.65057197204671e-07
4.26441342800257e-07
3.32421218726102e-07
2.32529548020919e-07
1.59716586991944e-07
1.1672448962372e-07
9.11329400497379e-08
7.58412300984917e-08
6.8071261301515e-08
6.63718662793354e-08
6.96495595035573e-08
7.79514944355847e-08
9.14804591281305e-08
1.11454560050359e-07
1.39719957051427e-07
1.78605587293581e-07
2.30701699851854e-07
2.99587751840808e-07
3.90323178461791e-07
5.08483637006238e-07
6.59706089715511e-07
8.49203944115407e-07
1.08081069611991e-06
1.35609086327958e-06
1.67482849011419e-06
2.03325661189606e-06
2.4138229490618e-06
2.79090900135606e-06
3.14143500494365e-06
3.44607045307864e-06
3.70632413783148e-06
3.9535758983866e-06
4.25669734035227e-06
4.83207916010496e-06
6.17237140968413e-06
7.72983981840089e-06
9.38855469894677e-06
1.11151595101594e-05
1.28860939003767e-05
1.46716166754574e-05
1.64557174451565e-05
1.82219537645947e-05
1.99605856875859e-05
2.16625422623187e-05
2.33216151561317e-05
2.49322227522341e-05
2.64900754391159e-05
2.79914879910111e-05
2.94336686400564e-05
3.0814661404641e-05
3.21336316533917e-05
3.33911039333941e-05
3.45893324877921e-05
3.5732680507344e-05
3.68280321880942e-05
3.78851840964522e-05
3.89172157427672e-05
3.9940833762169e-05
4.09767075514251e-05
4.20498539338111e-05
4.31901271318868e-05
4.44329026065044e-05
4.58200545856339e-05
4.74013611241178e-05
4.92365556673406e-05
5.13981646676371e-05
5.39749797047054e-05
5.70778437268293e-05
6.08497500927473e-05
6.54671315039966e-05
7.07212341296686e-05
7.5712224968109e-05
7.66352784930491e-05
6.77999516655029e-05
6.31923114420755e-05
6.08575471709595e-05
5.9607229495592e-05
5.88599997989072e-05
5.82967276651452e-05
5.77257442218596e-05
5.70392852607942e-05
5.62201617865101e-05
5.55339263695891e-05
5.55017986377545e-05
5.59009563449608e-05
5.64841652775309e-05
5.7111359152272e-05
5.76981994781885e-05
5.81620482976608e-05
5.83988006899832e-05
5.79958189945686e-05
5.65141734431379e-05
5.41766995441087e-05
5.12679427593162e-05
4.80287188514693e-05
4.46748286561491e-05
4.15082916539925e-05
3.86727825341821e-05
3.67184366481016e-05
3.58792833038352e-05
3.60790549600927e-05
3.73690561802311e-05
3.99403378202519e-05
4.40525022517083e-05
4.99719275422156e-05
5.68860059593369e-05
6.22120008851477e-05
5.65172346433447e-05
4.39182710060399e-05
3.19415387878095e-05
2.34952558288502e-05
1.82030029950806e-05
1.73549071550999e-05
6.25875594053972e-05
6.63200655657823e-05
5.68546865426657e-05
3.91092830639822e-05
2.26468973709371e-05
1.20674768969775e-05
5.58642971483608e-06
2.79703634892168e-06
2.09923172078145e-06
1.64838575167423e-06
1.16392370717115e-06
8.02215024193591e-07
5.85597314975911e-07
4.56109510605361e-07
3.78242906941029e-07
3.37618130576712e-07
3.27004358388317e-07
3.41024634359394e-07
3.79179862268707e-07
4.42316908621468e-07
5.35888491138634e-07
6.68367343124041e-07
8.50686211515753e-07
1.09529857071401e-06
1.41877151951632e-06
1.84456043006109e-06
2.39897251235499e-06
3.10871678244994e-06
3.99821209238255e-06
5.08405100444869e-06
6.36890157217465e-06
7.84420981809451e-06
9.49023806331081e-06
1.12205573613099e-05
1.29102991567613e-05
1.44272955617255e-05
1.56725672721458e-05
1.66309319868967e-05
1.74289942752734e-05
1.83850566193774e-05
2.05502743500844e-05
2.60499705457508e-05
3.23501836835426e-05
3.90357107553502e-05
4.59254690614365e-05
5.29323424147764e-05
5.99220841027694e-05
6.68407684373104e-05
7.36212135255029e-05
8.0234161510034e-05
8.66480688306281e-05
9.28467162326531e-05
9.88143043259705e-05
0.000104541105280643
0.000110018669269317
0.000115241807687604
0.000120207616616518
0.000124916701879788
0.0001293737503388
0.000133588852359796
0.000137578743829866
0.000141368252361306
0.000144991658020507
0.000148494007467445
0.000151932323186835
0.000155376736968089
0.000158911745538377
0.000162637731718784
0.000166673025034168
0.00017115677861837
0.000176252966983512
0.000182155940314217
0.000189097475900621
0.000197352346846508
0.000207239110820315
0.000219101716867644
0.000233111071364163
0.000247904049281569
0.000260199677897437
0.000258702830965754
0.000232656391282934
0.00022098030875263
0.000214666221014883
0.000211581309923994
0.000209910297211191
0.000208795170933722
0.000207660612807789
0.000206201204569396
0.000204424195668228
0.000203182735637
0.000203894068886032
0.000205767510382524
0.000208103437785426
0.000210503202007968
0.000212716138241488
0.000214487342818348
0.000215460857843057
0.00021435777737375
0.000209917824778055
0.000202813371322003
0.000193836938652886
0.000183656761447279
0.000172931303294018
0.000162578063721462
0.00015312327474546
0.000146405533357293
0.000143318208354017
0.000143659710206304
0.000147560375931341
0.00015553222123038
0.000168158063042918
0.000186052293734791
0.000206156431816185
0.000222203223621241
0.00020457021747542
0.000161504104150951
0.000116474866667287
8.46510534819463e-05
6.48338347005951e-05
6.21120526482649e-05
0.000148542138448785
0.000157985540334056
0.000141300136887197
0.000100894370024689
5.89207828871363e-05
3.33308124302656e-05
1.81790138724719e-05
9.90323824103496e-06
7.51527048639122e-06
5.95676097794351e-06
4.25120605407006e-06
2.94231374615301e-06
2.14576485030662e-06
1.66687271597054e-06
1.37678727150129e-06
1.22122840111965e-06
1.17372149103589e-06
1.21495682538628e-06
1.33945942134555e-06
1.55017839657505e-06
1.86396221287214e-06
2.30822609470645e-06
2.91922683340503e-06
3.73892452525198e-06
4.82046714435431e-06
6.23909902529133e-06
8.07923262265637e-06
1.04239048833769e-05
1.33427001078804e-05
1.68685191168501e-05
2.09738685589987e-05
2.55877930017441e-05
3.06188859756393e-05
3.57537332885871e-05
4.05701269166492e-05
4.46434433602e-05
4.76776507193242e-05
4.9677537622556e-05
5.11023898762008e-05
5.31703632351292e-05
5.91545714481429e-05
7.45339639139832e-05
9.14456753944912e-05
0.000109294592876062
0.000127273936760108
0.000145278824962783
0.000162892556385447
0.000180057656303991
0.00019660708160814
0.000212522687183006
0.000227750127128052
0.000242288079374859
0.000256123974882936
0.000269262407333657
0.000281705360886352
0.000293461298127913
0.00030454056201104
0.000314959406130324
0.000324740660767846
0.000333917006622205
0.000342533595978462
0.000350651363807699
0.000358350053249443
0.000365731185089086
0.000372920745032818
0.00038007154748463
0.000387365725501182
0.000395017492217196
0.000403276659601867
0.000412433227077849
0.000422823155247085
0.000434835093735055
0.000448915585244694
0.000465561271239851
0.000485277885476561
0.0005084658428044
0.000534365889114835
0.000560070796987522
0.000577603229768941
0.000567468265191789
0.000519389751088056
0.00049977356315299
0.000488443043249021
0.000483519337361596
0.00048121107366389
0.000480054171048089
0.000478924219672572
0.000477284468734609
0.00047526212505862
0.000474534081556246
0.000477449220986162
0.000482330450523642
0.000487934786232281
0.000493538593838775
0.000498666090672116
0.000502814316616834
0.000505209307892826
0.000503375683676008
0.00049510516489155
0.000481688420775579
0.000464536495999016
0.000444810087994267
0.000423804077559601
0.000403244409668901
0.00038425287874429
0.000370627363277204
0.000364346986649212
0.000365079673928821
0.000373083368756502
0.000389305115352535
0.000414560372095417
0.000449888994126987
0.000488108519335711
0.000519863345189703
0.00048569386653407
0.000397336566709092
0.000292075203283908
0.000213081083049533
0.000159305097703883
0.000149105056293214
0.000279373859072883
0.000294042680875981
0.000271239915571333
0.000203921694816816
0.000119398029712616
6.85180525148314e-05
4.29294780708953e-05
2.7134846186906e-05
2.15290432436775e-05
1.73623522325618e-05
1.2572142487065e-05
8.75688629533587e-06
6.38566461686547e-06
4.94684867510582e-06
4.06716557161602e-06
3.58146288589919e-06
3.4105335834808e-06
3.49696810449913e-06
3.81385423823185e-06
4.36829032118255e-06
5.19989451020468e-06
6.37747116668502e-06
7.99430809333117e-06
1.01583385518446e-05
1.29971615612884e-05
1.66907896974299e-05
2.14344658984285e-05
2.74012224493419e-05
3.47004518156843e-05
4.33111347486352e-05
5.30347362455378e-05
6.35794106612789e-05
7.4649218449918e-05
8.54342263200973e-05
9.49850683198051e-05
0.000102470391617856
0.000107473433561273
0.00011033082821073
0.000112459743031101
0.000117063063109691
0.000131061817290369
0.000164166990702911
0.000198367649638054
0.000234224288727706
0.000269140042439483
0.000303506541091983
0.000336359252413261
0.000367873545819337
0.000397760425442231
0.000426132372294972
0.000452944579090297
0.000478275716760832
0.000502151403024164
0.000524629490854014
0.0005457498071603
0.000565559978755558
0.000584104090163992
0.000601432513505078
0.000617602508005421
0.000632684680893466
0.000646767475856007
0.000659963139859769
0.000672413003713054
0.00068429269068179
0.000695816768324229
0.000707242501320956
0.000718873575438155
0.000731063680295845
0.000744220572392563
0.000758810495667591
0.000775362065473492
0.000794466939837161
0.000816768651326152
0.000842913415310615
0.000873409721282631
0.000908235276955361
0.00094526725651091
0.000979204242916624
0.000996878593686126
0.000973631536487778
0.000905052511450401
0.00087797077074584
0.000861754791481656
0.00085546528928654
0.000853083091804066
0.000852600635466899
0.000852305418309288
0.000851479458534575
0.000850473775897304
0.000851793763842613
0.000858402142931779
0.000867665857186454
0.000877835565951748
0.000887855031690778
0.000896991793735671
0.000904439152816344
0.000908863211085564
0.000906524682442737
0.000894437783161241
0.000874559512527638
0.000848903005732313
0.000819091466364945
0.000787273697898473
0.000755938861179063
0.000726937925849161
0.000706270148588038
0.000697133016739362
0.000699035587649075
0.000712344782871981
0.000738432754018869
0.000778092296653841
0.000832765439286069
0.000889951808992925
0.000938828455114488
0.000887949127856021
0.000752951431704203
0.000572183975824022
0.000428140888814403
0.000316231228734587
0.000287530675978855
0.000460362916478418
0.000475713151905308
0.000445991757863339
0.000353561308827589
0.000210721015642952
0.000117404935888592
7.87380210727159e-05
5.93384477056625e-05
5.07585719028274e-05
4.27508321683533e-05
3.17201167819761e-05
2.23613829517021e-05
1.63507601082691e-05
1.26406992143893e-05
1.03413047352617e-05
9.03084477975425e-06
8.50586911874614e-06
8.61661792661256e-06
9.27075769369527e-06
1.04789531818228e-05
1.23144934168618e-05
1.49180910526117e-05
1.84849048841267e-05
2.32351732646388e-05
2.94042186456194e-05
3.73229250749778e-05
4.73204100966325e-05
5.96233838656356e-05
7.42603359359405e-05
9.09429334598961e-05
0.000109047704162373
0.000127873217619444
0.00014680391057262
0.000164351809908447
0.000179051510493605
0.000189866304473434
0.000196664355324694
0.00020067942300449
0.00020500334770158
0.000215637614955512
0.000243715876114259
0.000302199471024766
0.000358701311138976
0.000417563832740526
0.000472871356125701
0.00052660502764165
0.000576965998047997
0.000624739736590539
0.000669504651603583
0.000711637070999694
0.000751129888946207
0.000788194331360285
0.000822917599141235
0.000855435363091676
0.000885840883531711
0.000914234809061978
0.000940705712503589
0.000965347665960834
0.000988260895010278
0.00100956210964095
0.00102939115896489
0.00104792005797834
0.0010653608164656
0.00108197310434472
0.00109807107860241
0.00111402821791702
0.00113028175970454
0.00114733589056137
0.00116576433338662
0.00118621107402222
0.00120938636346186
0.00123605118448291
0.00126697244909379
0.00130280632060208
0.00134383823027408
0.00138900343542125
0.00143488546215837
0.00147319762745246
0.00148671717762941
0.00144913044363896
0.00136393702174831
0.00132998344401603
0.00130967770232858
0.00130262100522517
0.0013008328146741
0.00130178883367294
0.00130323645297526
0.00130434183526653
0.0013057344111622
0.0013106097178051
0.00132218330850835
0.00133696722306621
0.0013527584130694
0.00136817026823615
0.00138218560972838
0.00139364137578215
0.0014005390325921
0.00139795347023568
0.00138237011472923
0.00135638742064092
0.0013225004085992
0.00128291812869776
0.00124072705058581
0.00119908513570411
0.00116067082925777
0.00113365537158268
0.0011224039162603
0.00112621192376056
0.00114546600019942
0.00118185636255345
0.00123589063825672
0.00130932518990294
0.00138417136582158
0.00144911729789926
0.00138317242609412
0.00120723873185965
0.000948316651782062
0.000734196016477693
0.00054528127883369
0.000485560633782267
0.000695352214581936
0.000704050859373314
0.000665207299038534
0.000549240797311508
0.000344127820046042
0.000181785518625844
0.000122425851928168
0.000104536236024867
9.89131624164564e-05
9.01398568907868e-05
6.97781331571306e-05
5.03247634457162e-05
3.71327524729101e-05
2.87263701851758e-05
2.33996721538287e-05
2.02538393720624e-05
1.88373747152318e-05
1.88020188291539e-05
1.99004932364954e-05
2.21362227814759e-05
2.56149914314332e-05
3.05776416619988e-05
3.73645074748435e-05
4.63383798891425e-05
5.78323638003611e-05
7.23212779665319e-05
9.02023812646779e-05
0.000111598365760068
0.000136214445481165
0.000163222060380437
0.000191381463336957
0.000219542605324168
0.000246798140879846
0.000271057045680828
0.000290640501662724
0.000304723018288812
0.000313941096640918
0.00032088070523965
0.000330678234857008
0.0003522874391899
0.000400545022129302
0.000489088360919352
0.000570144145735629
0.000654148630129622
0.000730860850130511
0.000804844814675479
0.000873256505137338
0.000937747323496608
0.000997746826306006
0.00105395116896472
0.00110639771226846
0.00115544217481412
0.00120123803676524
0.00124400204497619
0.00128388364383477
0.00132103865723706
0.00135560274636925
0.00138771643627524
0.00141752620120287
0.00144519850790014
0.00147092870174741
0.00149495305263031
0.00151755912296741
0.00153909569622453
0.00155998176623654
0.0015807116713537
0.00160185929545015
0.00162407901246211
0.00164810405304989
0.00167473918477318
0.00170484215849209
0.00173928222133667
0.00177884768511532
0.00182404292972018
0.00187464889172844
0.00192839668298961
0.00198043049813625
0.00201975763333208
0.00202667892677323
0.0019756741707829
0.00187786784140986
0.00183762870152611
0.0018142940367435
0.00180709479017408
0.00180661613362953
0.0018097891557932
0.00181390627718791
0.00181806210015095
0.0018231624034747
0.00183290215429732
0.00185046932095799
0.00187168201763464
0.00189391813803212
0.00191546069209817
0.00193498062649782
0.00195091110855906
0.0019605300829091
0.00195787447703451
0.0019391336344444
0.00190748005721326
0.00186567256728137
0.00181688029141786
0.00176496488739183
0.0017136957421437
0.00166665089843694
0.00163400884234261
0.00162117733879941
0.00162719049323917
0.00165235260726792
0.00169853882711796
0.00176579534488459
0.00185611639102388
0.00194665336955022
0.00202559785059794
0.00194663969031875
0.00173684163143747
0.00140379359877214
0.00112291910596051
0.000848054150354833
0.000746741372799732
0.000985081781846469
0.000979004087443972
0.000929452091398614
0.000784428853333401
0.000532778706407803
0.000267134617389805
0.000172732916619473
0.000155933217427753
0.000161741600421605
0.000163040149343262
0.00013460321156497
0.00010074444296852
7.57683917565046e-05
5.89912485900448e-05
4.79723024300076e-05
4.11868477956224e-05
3.7797238846747e-05
3.7091837322518e-05
3.85363511118361e-05
4.20952075215357e-05
4.7878555615692e-05
5.62350020363659e-05
6.7664667363123e-05
8.26503338428787e-05
0.00010153661090871
0.000124854550136199
0.000152904236709044
0.000185469117535494
0.000221686407639301
0.000260029268399885
0.000298654238277473
0.000336105541983407
0.000371336252412441
0.000401924852124168
0.000426373292836571
0.00044444896813958
0.000457864943403057
0.000470716464721977
0.000490133897935573
0.000527601246656488
0.000600372230403775
0.00072000620180264
0.0008259609619403
0.000935121914777388
0.00103302820275174
0.00112707330234109
0.0012133768238925
0.00129446860179314
0.00136964554286286
0.00143989987683376
0.00150531721553081
0.00156638234256595
0.00162331336804817
0.00167640100159527
0.00172584927128282
0.00177186691022687
0.0018146367321925
0.00185434624840571
0.00189118978084136
0.00192538553331132
0.00195718661951865
0.0019868958110691
0.00201487825698451
0.00204157313589136
0.00206750478004068
0.00209328696136879
0.00211962576119761
0.00214731612765593
0.00217723316452432
0.00221031257503657
0.00224751172596181
0.00228973526683775
0.00233768810865308
0.00239158914923331
0.00245039492106638
0.00251090542142515
0.00256662653277614
0.00260458734731394
0.00260404231153915
0.00254157429565032
0.00243467364589547
0.00238886569039313
0.00236361472709773
0.00235691202188513
0.00235846407707086
0.00236461766424006
0.00237230022898574
0.00238055325176574
0.0023905157502543
0.00240618884948594
0.00243054370114566
0.00245886567679738
0.00248813414040847
0.00251630027352898
0.0025416996248604
0.00256232501116554
0.00257471761327763
0.00257205741344416
0.00255042955971841
0.00251342600564034
0.00246400392830706
0.00240659076561899
0.00234558637240848
0.00228533431544926
0.00223034975776214
0.00219257854477392
0.00217831116402205
0.00218629247506421
0.00221666952796688
0.00227139318961407
0.00234998618827116
0.00245471288500913
0.00255896455979357
0.00264967046622204
0.00255988391273471
0.00232232049845544
0.00192264853989227
0.00158124942581941
0.00122010267088828
0.00106972936831333
0.00132780233126545
0.00129914523718787
0.00123891361471211
0.00105255244845429
0.000784437745490412
0.000382929743440652
0.000231739103113535
0.000208027126483847
0.000230243412388962
0.000254256109151744
0.000228623616088634
0.000179945572692174
0.000139446921662656
0.000110154519005742
8.98804027725012e-05
7.67521492316856e-05
6.9560595704259e-05
6.70671037008984e-05
6.83396211862339e-05
7.32460238714262e-05
8.18357582156498e-05
9.45291699851252e-05
0.000111939680045898
0.000134566283168651
0.000162600841094062
0.000196477184483641
0.000236188771905589
0.000280974517302291
0.000329281991282694
0.000378917523054215
0.00042761500579458
0.000473833186201468
0.000516576341607461
0.000553416238799161
0.000583346745970418
0.000606949909734485
0.000627094721833321
0.00064928280596598
0.000682298835467712
0.000739403473664972
0.000838761944554445
0.000988113770346608
0.0011185471827427
0.00125180585917022
0.00137034691729012
0.00148386596285577
0.0015877166248546
0.00168512127138297
0.00177531009932233
0.00185950116165952
0.0019378390478078
0.0020109112973283
0.00207899919935046
0.00214245769092452
0.00220154345455295
0.00225651517780736
0.00230760261099428
0.00235504035825948
0.00239907164191499
0.00243996751694172
0.00247803981045664
0.00251365811793231
0.00254726462750078
0.00257938661513242
0.00261064991883668
0.00264178092145992
0.00267360714672152
0.00270704729180612
0.0027430929699061
0.00278277359437197
0.00282709293467242
0.00287691866002667
0.00293278024333671
0.00299447637287156
0.00306007561703033
0.00312557746891333
0.00318300795151559
0.00321818024605462
0.00321037224829969
0.00313877255063992
0.00302578061228543
0.00297532177579068
0.00294922244403654
0.00294366760802269
0.00294794450094768
0.00295779905165232
0.00296987196117097
0.00298315015382768
0.0029989390862802
0.00302137230769259
0.00305308664753523
0.0030889723101679
0.00312562547639085
0.00316066473619126
0.0031920729570707
0.00321738084590293
0.00323242006448755
0.00322970742743293
0.00320536798370711
0.00316314276935718
0.0031064606162307
0.00304096610289227
0.00297143653167622
0.00290274668790831
0.00284034472996776
0.00279765685606408
0.00278167662595362
0.00279085609014175
0.00282515997450412
0.00288656271798553
0.0029741258624178
0.00309061185541098
0.00320692161634727
0.00330745279207113
0.00320912841220199
0.00294875658541704
0.0024916848504938
0.00209628842062459
0.00165420198472079
0.00145034004703797
0.00172026233641587
0.00166248733298899
0.00159205103492704
0.0013521083673011
0.00109368382891008
0.0005427961639913
0.000304605112307966
0.000260816719568828
0.000294978770592978
0.000349683967474704
0.000345505073513107
0.000288575269249333
0.000232249262891799
0.000187626918996493
0.000154607424286284
0.000131924852528558
0.000118420658675704
0.000112317683832406
0.000112342732180202
0.000118202051118725
0.000129787703232035
0.000147493171172584
0.000171915877512261
0.000203386443932674
0.000241738464214073
0.000287138388700469
0.000339099081052474
0.000396217606503824
0.000456280698142286
0.000516592683884598
0.000574699802139419
0.000629177197747701
0.000679250039254945
0.00072275630707924
0.000759352324392808
0.000790494800033753
0.000820115042401285
0.000854863349436547
0.000904702567347195
0.00098383304358678
0.0011100694789098
0.00128682546301466
0.00144109886964049
0.00159701058286261
0.00173559518078439
0.00186788673657917
0.00198890803225398
0.00210229011390582
0.00220729259002409
0.00230527397639654
0.00239645297259361
0.00248149265864041
0.00256073696343017
0.00263459601963512
0.00270337768090414
0.00276738807649629
0.00282690376262003
0.00288220643245563
0.00293358878215402
0.00298137498889387
0.00302593516925256
0.00306770410889303
0.00310719802377649
0.00314502656471889
0.0031819094377186
0.0032186742555052
0.00325625436699383
0.00329567038813505
0.00333800065638588
0.003384328499663
0.0034356521229918
0.00349273875487687
0.00355587846939895
0.00362424921346533
0.00369535971594618
0.00376429669418284
0.00382200005863378
0.00385374369901642
0.0038395285823388
0.0037611766316661
0.00364467798831202
0.00359068015509352
0.00356472185842198
0.00356096919751321
0.0035686146802812
0.00358282380913331
0.00360001123607188
0.00361909550065732
0.00364147149199319
0.00367125860931133
0.00371069188434432
0.00375437440930546
0.00379853558033117
0.00384046300091051
0.00387777773374984
0.00390754343520619
0.00392494271358298
0.00392202242110747
0.00389504138408754