/*--------------------------------*- C++ -*----------------------------------*\
  =========                 |
  \\      /  F ield         | OpenFOAM: The Open Source CFD Toolbox
   \\    /   O peration     | Website:  https://openfoam.org
    \\  /    A nd           | Version:  7
     \\/     M anipulation  |
\*---------------------------------------------------------------------------*/
FoamFile
{
    version     2.0;
    format      ascii;
    class       volScalarField;
    location    "20000";
    object      omega;
}
// * * * * * * * * * * * * * * * * * * * * * * * * * * * * * * * * * * * * * //

dimensions      [0 0 -1 0 0 0 0];

internalField   nonuniform List<scalar> 
15600
(
3736.62224935754
3736.61919524228
3738.59831830934
3758.68564107175
3830.22119603466
3994.84181437767
4249.4972061261
4465.8877916266
4584.64879122981
4597.12368381005
4516.3697195742
4364.41568630367
4158.56251358597
3914.3258224542
3645.04354126228
3375.66151768964
3137.34410269118
2928.59626294887
2744.86548498035
2582.4400528448
2438.25624020399
2309.76330064617
2194.84448328116
2089.98176554545
1985.81281934516
1880.63923192881
1775.62252227287
1671.76074498973
1569.93647579953
1471.01058298465
1375.8809182373
1286.5732860827
1207.46721173102
1138.96746221486
1080.57390493464
1031.9656690024
992.979645712134
963.589585729643
943.881735146623
934.035330594737
933.60381426969
934.155562337885
934.155562337814
934.155562337872
934.155562337897
934.155562337908
934.155562337824
934.15556233795
934.155562337923
934.155562337878
934.15556233791
934.155562337897
934.155562337921
934.155562337842
934.15556233784
934.155562337898
934.155562337865
934.15556233795
934.155562337921
934.155562337894
934.155562337905
934.155562337936
934.155562337947
934.155562337868
934.155562337872
934.155562337869
934.155562337829
934.155562337827
934.155562337872
934.155562337866
934.15556233795
934.155562337921
934.155562337926
934.155562337866
934.155562337947
934.155562337868
934.155562337872
934.155562337813
934.155562337881
933.603814269725
934.035330594568
943.881735146528
963.589585729494
992.97964571241
1031.96566900229
1080.57390493513
1138.96746221559
1207.46721173041
1286.57328608057
1375.88091823451
1471.0105829832
1569.93647579953
1671.7607449883
1775.62252227326
1880.6392319302
1985.81281934384
2089.98176554764
2194.84448328262
2309.76330064634
2438.25624020586
2582.44005284854
2744.86548498194
2928.59626294717
3137.34410269097
3375.66151768623
3645.04354126472
3914.3258224652
4158.56251358845
4364.41568629941
4516.36971957543
4597.12368382035
4584.64879123444
4465.88779162645
4249.49720612599
3994.84181438115
3830.22119603491
3758.68564107051
3738.5983183072
3736.61919523973
3736.6222493567
632.291850761047
631.023592888166
634.225660202088
639.59195310055
651.017915305451
675.583649303815
715.626180436071
750.99998065354
771.3132714651
773.980224123268
760.978010534163
735.921546288421
701.712328679601
660.962089299653
615.875500928435
570.535285105587
530.250560849198
494.948603796513
463.883913065158
436.42610454656
412.057380238974
390.342809138299
370.926738104428
353.248662127155
335.742967812044
318.066431224728
300.395232629109
282.897310715259
265.722439633323
249.019310184893
232.944080515861
217.830009409713
204.402222095101
192.763105024653
182.843012604459
174.595921556396
168.004666014132
163.07581503541
159.824538010358
158.366706824469
158.691656121328
158.663727759754
158.627716762839
158.608829569511
158.588013171349
158.561804625504
158.536529650481
158.512174755817
158.490054440962
158.469933860776
158.451784653939
158.435281877389
158.420198785707
158.406315717372
158.393502395739
158.381698377443
158.370926605779
158.361285925592
158.352948676875
158.346152712595
158.341192056984
158.33840396488
158.338154485954
158.340821313444
158.34677218508
158.356338393959
158.369779165279
158.38723077868
158.408629176508
158.433596517948
158.461261423391
158.489884158499
158.51632232831
158.535576818134
158.537899291885
158.502947387131
158.408735914831
158.21205323323
157.66038102065
156.766632797663
157.593057533215
159.747403005874
163.331600659677
168.468765461166
175.17795202061
183.478932910591
193.406908704473
205.021318300772
218.420392125942
233.513656848056
249.478196439458
265.999191785377
282.952419419336
300.206361638613
317.620155792989
335.035785945688
352.27244689413
369.709886344373
388.965100007719
410.575105596797
434.878007726723
462.285621876151
493.313351149697
528.551357774268
568.749024795235
613.87668701715
658.684340954267
699.157885391204
733.099856715331
757.911551399568
770.734207102769
768.05994875187
748.398159752183
714.501656896937
678.534686408384
655.962923675747
645.38701204222
640.614187017795
637.979762627196
633.346949256675
213.178386103683
211.06894906361
214.721759185081
219.35458760627
223.217912433136
227.957675033583
237.421972069463
247.022400059925
253.331541063628
254.294197590634
250.190144151883
242.117253459926
231.002013299675
217.711624170506
202.980574255075
188.121907799646
174.87308784709
163.260230357873
153.050176383717
144.032966405908
136.037799019
128.916927416024
122.545958221306
116.738524798321
110.99085426732
105.17743753036
99.348911723349
93.5602908885459
87.8629524708005
82.3118960498719
76.9712496338227
71.9593935022914
67.4969889878738
63.6269775613956
60.3379632590958
57.625100431612
55.4957724782005
53.9664346210849
53.0651794455822
52.940764000001
53.5945024582627
53.6192114046328
53.581909511165
53.545511164124
53.4993987518419
53.445851750574
53.3922334032257
53.3396747651987
53.2899172226906
53.2429450000804
53.1988414820466
53.157327287677
53.1182290847123
53.0813780569628
53.0467169075219
53.0142705128349
52.984162733103
52.9566000018448
52.9318626397563
52.9102855521893
52.8922366945963
52.8780892936127
52.8681907910117
52.8628259335503
52.8621715520048
52.8662408465875
52.8748097429225
52.8873157724131
52.9027135622673
52.9192647776312
52.9342184247619
52.9432767800248
52.9397767084245
52.9135175101704
52.8479223185446
52.71479578001
52.4722138292662
52.0535702759276
51.3131841482441
50.5805975997821
51.5974270138337
52.7253839171793
54.1262658235297
55.9497495114565
58.2292252818937
60.9889895831394
64.2512667935751
68.0460301670881
72.4177905922652
77.3170016309171
82.4116931382845
87.6221447658766
92.9318450934559
98.3115150672603
103.7240324821
109.127961547725
114.474573031533
119.942359176804
126.091485414742
133.07188337529
140.980089647349
149.934269308825
160.096499638175
171.626144372837
184.751471319122
199.313222653729
213.64622734277
226.527090989664
237.229532297334
244.895689514715
248.612283571674
247.344809906264
241.097461237095
231.689044757603
225.803481552984
224.850606307559
225.650224299787
224.918202284774
222.278613568783
215.861012635957
105.454225810119
102.283588975695
105.038286606631
110.100439204878
113.115318824506
112.219816321643
111.992745815391
113.597192782378
115.698948460996
116.055528609042
114.238265945521
110.625492097042
105.607742955876
99.592043758493
92.9289047561225
86.2028243948612
80.1853769326906
74.9110382911673
70.2827707164239
66.2029081861252
62.5927825326171
59.3800236156684
56.498904766559
53.8574318545052
51.2354424972616
48.5721099788581
45.8864864475137
43.2042434616876
40.5523391888213
37.9637357559058
35.4812137004916
33.16747347908
31.108207696994
29.3288332959675
27.8351338394593
26.6359513709654
25.7480225156587
25.1952485429463
25.0223493366594
25.3551131586329
26.0675888293097
26.0535621318161
25.9619360991447
25.8599754112991
25.7464956562216
25.6285483906515
25.5147709440263
25.4064848210399
25.3056614745621
25.2119480458737
25.1252903337121
25.045094422689
24.97098109705
24.90253535636
24.8395009983636
24.7816981129561
24.7290597355255
24.6815935824242
24.6393717472764
24.6024982014279
24.5710792460448
24.5451849479629
24.5248080348104
24.5098154502657
24.4998909725547
24.4944659760131
24.4926305236977
24.4930161047349
24.4936350597383
24.4916545117542
24.4830686041305
24.4621946247934
24.4209044074028
24.3475538704414
24.2251399990154
24.0281689177059
23.7228981562081
23.2791345698933
22.7005003306062
22.4028710162195
23.402402388905
24.1245707545923
24.8960772014723
25.7939930452793
26.8556249974508
28.1027326282532
29.5541242250472
31.2305621683979
33.1539259966081
35.2806973905502
37.4341098121755
39.6042282431634
41.7988518063526
44.0132812352155
46.2365605423746
48.4565455267748
50.6604116451914
52.9595403182782
55.6139189242501
58.673186502399
62.1722069729027
66.1543903994528
70.6868059115324
75.8184282066971
81.6358464832035
87.9691223146623
94.1117726045592
99.5682643870699
103.997087133569
106.996181644882
108.162274971897
107.071915251862
104.046496966151
100.144753594646
100.499501164178
104.863319292724
110.592482926024
114.078906436354
114.369805922225
108.93029109231
65.370007538449
61.7937841024349
63.2088831768215
68.4735304864894
73.0781918565883
71.176249912278
66.2309141916864
63.5211913269199
63.4928820251243
63.5147356129546
62.5525578358507
60.6282399776485
57.920338720323
54.6650642706123
51.0698099833922
47.4455960315518
44.1933791425915
41.3447616597956
38.8541116349727
36.6662542931373
34.7367504138579
33.0204827060718
31.472357122838
30.0349537616626
28.5960139631715
27.1218118439979
25.6210437782901
24.1099877264811
22.6088573755918
21.1450888586639
19.7544392103913
18.4770485356904
17.3487044719986
16.3895790685761
15.6124939423594
15.0317033100803
14.6666196448186
14.5422489974229
14.6991844506786
15.1884883271295
15.7640858029872
15.6056440189654
15.4149771708739
15.2166846142749
15.0251975392487
14.8442356889556
14.6817627893667
14.5356124387003
14.4063336522402
14.2914311827538
14.1897004704868
14.0993090669801
14.0190597022399
13.9477726220558
13.8846085171043
13.8288656857671
13.7800395344523
13.737743167674
13.7016960964572
13.6716767692674
13.6474898132523
13.6289224783558
13.6157018569497
13.6074451925043
13.6036031711754
13.6033932938596
13.6057168659993
13.609053648198
13.6113232560044
13.6096980466095
13.6003470866
13.5780741448939
13.5358170769947
13.4640856196761
13.3503676458904
13.1787429749039
12.9342975620775
12.6194498033805
12.2991944613443
12.2803937349226
13.0252797273653
13.4766032944918
13.9592526981902
14.4781030502507
15.0693972639356
15.7463220755286
16.5230253108695
17.4123198425407
18.4225959213017
19.5186501088491
20.603601872078
21.6872861044409
22.7782024770566
23.8762505631219
24.9773051025578
26.0770815809823
27.1738928767813
28.3376483643519
29.7000913110491
31.2787590541755
33.0891003864486
35.150229570269
37.4944380369307
40.1382829524223
43.1177754350715
46.2947063037757
49.3217440956658
51.9679806374662
54.0494076397433
55.3518956894726
55.6840233465928
54.8435285660686
53.1743184304034
51.1060976361427
52.1059977679436
56.1378267400725
62.3079903273059
67.7009309317925
71.1442453740357
68.218018745308
45.251595837195
42.1528907533123
42.5441346786474
47.1241207610584
53.8210557360935
53.7559718813261
46.8289621704602
40.8584033989676
39.0999234031794
38.797567304003
38.2212042265957
37.0920299092725
35.4734684937675
33.5224486815879
31.3780900733708
29.2234025659505
27.2844767618253
25.5890530385809
24.1150713507262
22.8268975863497
21.6952189231082
20.6864427653093
19.7644831792381
18.8887341598816
17.998061789183
17.0730627349785
16.1196276727646
15.1519845378631
14.1897443073047
13.2595051476678
12.3927319313718
11.6161883360241
10.9440422848417
10.3947181580487
9.98237035316766
9.72097440814545
9.62645669565426
9.71560048996636
10.0037593482293
10.4609983440092
10.800281884582
10.4893742310195
10.2342358784899
9.98629876114023
9.7760593581052
9.59169287420002
9.4384874864226
9.30812557811768
9.19924689429679
9.10696817801624
9.02913757925888
8.96299960283972
8.90690778341709
8.85930280424481
8.81912398344477
8.78549202510416
8.75777930743688
8.7354976737981
8.71828644742595
8.70585686729894
8.69796018751869
8.69434465878851
8.69471578774265
8.69869052757123
8.705746241331
8.71516190405599
8.72594682259487
8.73675376530921
8.74577042395462
8.75058270671962
8.74800542359481
8.73387679794455
8.70283909806547
8.64824230467073
8.5623937752997
8.4376816003707
8.27133998083042
8.07996846332004
7.93063028777098
8.01292954959943
8.5169635121639
8.8104198694366
9.13725505487735
9.47490507260323
9.85366543786778
10.2799331264247
10.7634233150282
11.3111187358546
11.92459189034
12.5778575930018
13.2172939320942
13.8545240500162
14.4947214479643
15.138021485611
15.7822562244983
16.4255388096407
17.0697751973754
17.7591269349186
18.564452269489
19.4923476109464
20.5505160215239
21.7479115452479
23.1011406934485
24.6167919125639
26.3104400645141
28.0837174400775
29.7497369450948
31.1915359769671
32.3063644286349
32.9747758481593
33.1028809214887
32.5763214661511
31.65889177211
30.4608038311953
31.1377303345312
33.7111364990068
38.3207059671877
43.0615638431858
47.6649551012552
46.851589848402
33.0534169861345
30.7947208941425
30.7043944917436
33.9386257353257
41.6337519747248
44.7432168794009
38.2248581398099
29.8520600671767
26.2711190139055
25.4954765292677
25.0705063454306
24.358341432286
23.3281211859128
22.0892991675552
20.7384954610346
19.3877386233027
18.1688382170159
17.1060896995938
16.1891935527347
15.3924583883662
14.6937952612445
14.0649819700802
13.4751173181083
12.8944247590744
12.2901862502798
11.652265220463
10.9874585202089
10.3112048040021
9.64435863814823
9.012752517266
8.44249799413296
7.94994285826501
7.53902241814542
7.22588197451659
7.02184201952996
6.93688205568107
6.97971798158142
7.15406510018006
7.4471372700424
7.78175381523606
7.90666848467017
7.53266243517092
7.29064202650756
7.06191796734202
6.88955775772518
6.74468440001889
6.63228628091442
6.54029358599376
6.46727491675407
6.40778299779076
6.3598899100876
6.32097192402985
6.28964232610701
6.26455829623829
6.24486710397561
6.22986117568825
6.21905567077769
6.21207583708074
6.2086499796466
6.20855863202085
6.21160830253948
6.21759443866934
6.2262679108875
6.23729611506846
6.25022002298657
6.26440554854884
6.27898626444055
6.29279698232484
6.30429637475271
6.3114792722574
6.3117850845105
6.30201826165362
6.27832894865852
6.23639471979102
6.17204100173152
6.0828041189315
5.97176129147359
5.85892589693508
5.79791017069819
5.90337158321537
6.25054372902704
6.45897583364244
6.69656077694776
6.93845081850372
7.20782427044207
7.5076760764382
7.84456850824071
8.2220578194903
8.63880365164802
9.0759656155845
9.50243377155722
9.92755911618999
10.3542679927222
10.7825502429807
11.2110920717374
11.6390853716252
12.0696757395652
12.5322932350598
13.0682622552283
13.6803148879758
14.3726107909756
15.1492527381786
16.0195758570736
16.9865101109809
18.0564941797549
19.1602478651926
20.1876074093368
21.0737995400391
21.7580253302445
22.1682596566424
22.2531807965061
21.9364954106848
21.4037986671522
20.648461415206
21.0466973521842
22.5817943590777
25.7119710134068
29.1018791286323
33.3485014686614
33.6344687162732
25.0463828329839
23.5546619247424
23.3475931380718
25.3137873378217
32.4449622713076
38.6283640461059
34.2647053151524
24.7310397591346
19.2612028259502
17.7636764612984
17.3028703173322
16.7954655554023
16.0990266816957
15.2838998700603
14.4109010297657
13.5451822672343
12.7620321766821
12.0821758186075
11.500866744592
10.9976518207723
10.5540486751058
10.1449153073971
9.7437933000604
9.32986495832406
8.8883987612894
8.41631953910151
7.92307385597254
7.42596475784109
6.94608585745468
6.50620915852821
6.12532014847382
5.81129958796072
5.56319292564866
5.39377496780477
5.3100822430809
5.31728867899852
5.41681419780386
5.60107697678228
5.84011894509382
6.04744743973396
6.04044354791413
5.69338762319833
5.50554625305027
5.32499372461191
5.2023339646278
5.10027243662778
5.02566130567429
4.9660130313077
4.92085240547936
4.8853701740267
4.85827259366146
4.83747460138459
4.82200521085912
4.81086959540395
4.80347639009609
4.79932748244131
4.79809416528802
4.79952115586684
4.80342391248376
4.80964694915927
4.81804316854923
4.82844355092061
4.84062966557523
4.85430166888925
4.86904324083942
4.88428290162358
4.89925014267389
4.91292790128323
4.92400253388468
4.93081637184044
4.93133487389634
4.92315219887834
4.90358866949767
4.87000129697805
4.82050250020026
4.75541073670157
4.68036949269413
4.61414109328328
4.59688623119135
4.69946626638675
4.9495188930121
5.10932779224208
5.29177371558324
5.47735925624908
5.68297885577702
5.91018505483664
6.16341532839684
6.44433643648974
6.75054350455588
7.06824641979721
7.37836067743334
7.68777505575347
7.9982328665565
8.30966438955626
8.62125566825576
8.93281424993471
9.24784229287321
9.58708005064225
9.97652827883585
10.4175196053133
10.9124298978833
11.4630615697806
12.075342252512
12.7506469458297
13.4910108497551
14.2459939603493
14.9448151426334
15.5481506177931
16.0171793577039
16.3045209072219
16.3782160174002
16.1820742277605
15.8454248451642
15.3284184435199
15.5597839639197
16.4940286450134
18.6327178324682
20.927207762016
24.3496680666181
25.0440416567239
19.590686541911
18.6653186103729
18.471822321313
19.6540405009692
25.1515240386067
33.4249896843448
32.0851549388326
22.7442153683265
15.6222960165756
13.1692002095635
12.4937593123399
12.0400263821605
11.5169171672976
10.9563920274527
10.3840573885788
9.82804179536949
9.32561591746237
8.89262513258965
8.52585422579336
8.20755857883727
7.92130302623531
7.64465722622861
7.35614937902132
7.04333379138145
6.70373953156186
6.33972631461316
5.96317018042662
5.59172946525458
5.24428080856672
4.93835068780105
4.685701268196
4.48847722120736
4.34390306538602
4.26135339337273
4.24419958249273
4.29368226226664
4.40585105416173
4.56656881572992
4.74093312504861
4.85450243253216
4.78910550435454
4.50799524205564
4.37415766125068
4.24002421906219
4.15664982703046
4.08663154268703
4.03818566862828
4.00011898325029
3.97274571030088
3.95217208995159
3.937606132931
3.92747572019098
3.92112354784609
3.9178343071663
3.91720423218253
3.91888694639045
3.92265921224392
3.92834459243711
3.9358121632987
3.94494338114
3.9556153367463
3.96767605237287
3.9809218446955
3.99507122484226
4.00973666313601
4.02439462602814
4.03835328554729
4.05072077989027
4.06037697929324
4.06595609340065
4.06585410212112
4.05828607394907
4.04144235946939
4.01383928225744
3.97500966205019
3.92668236017965
3.87535289514685
3.83709218348726
3.84154021266721
3.93382568943208
4.12177511825315
4.25087424809771
4.39670221916972
4.54593500228317
4.71053726595123
4.89148989583187
5.09178708075773
5.31205991683135
5.54965259110193
5.794312751207
6.03373254652787
6.2728608700743
6.51282838309181
6.75356354660481
6.99457739786051
7.23605432052642
7.48147296331145
7.74609764500228
8.0473074781582
8.3859232170392
8.76327283482182
9.18022300702657
9.64090221555364
10.1459632892138
10.6951811381997
11.250481395031
11.7631413149442
12.207296392618
12.556279465734
12.7764572051189
12.8453743574266
12.7189951147379
12.4877113312292
12.1084913842636
12.2407116945498
12.8301010161914
14.337932885326
15.9035232982245
18.5384798053075
19.3203815787391
15.7614616832073
15.2226275808309
15.0535216267992
15.903600795581
19.4788550530261
28.5354168939236
30.3357260459223
22.3124671543117
14.0600497194155
10.5298245978239
9.4877932826714
8.97710713800045
8.51419762247547
8.09171295997916
7.70388233212972
7.34707478947331
7.02983301399913
6.76077806077258
6.53516750487744
6.33649733053184
6.14985768158027
5.95597730094735
5.73900074203221
5.49400816906743
5.22652973774293
4.9423298798576
4.65408998335645
4.37771225939328
4.12816913895891
3.91751277424205
3.75207933620625
3.63108324547866
3.55154958116898
3.5200096036071
3.5372604438786
3.6018090416952
3.70660893110244
3.83533120106477
3.9556456687394
4.01113039858779
3.93034091753361
3.7167012292957
3.62285927665193
3.52485692235761
3.46823722247362
3.42003168058106
3.38844293514706
3.36413148167739
3.34775983261039
3.33628094233561
3.32920037977605
3.32534304723634
3.32425096329717
3.32540476984474
3.32851983614201
3.33334872032943
3.33973249487709
3.34754195151283
3.35667582880066
3.36703458960524
3.37850631429483
3.39094642649809
3.40415890372741
3.41787510225337
3.43173128248237
3.44524599054967
3.4577973149098
3.4686036749149
3.4767120532075
3.4810017811687
3.48021776881993
3.47305623809404
3.45834387536879
3.43538229953952
3.40454744188828
3.36825133981924
3.33292015177034
3.31181679919815
3.32684563335814
3.4076440344144
3.55397012075854
3.66183679870121
3.78190228596176
3.90588948017436
4.0421143212154
4.19132745292741
4.35552998683624
4.53478511928555
4.72653125157701
4.92302349211259
5.11597867644254
5.30892744281569
5.50266667344953
5.69714348349328
5.89208845554124
6.08791744629587
6.28791522123846
6.5036790550349
6.74738328203581
7.01965457867285
7.32115129737104
7.65250178756804
8.01672618839536
8.41412137378499
8.84326066744145
9.27454650760256
9.67265895248809
10.0194208274071
10.2952835139735
10.4748020099571
10.5404861407775
10.4560686922542
10.2847014795737
9.99024282218972
10.0602859711981
10.4438055658495
11.5400518422909
12.6403000261554
14.6492109895218
15.3951618309231
12.9949753507186
12.7115098241941
12.5523955191948
13.3218490924129
15.2757049361074
23.8933133354853
28.3864050717674
22.4861519279794
13.7750219563618
9.16900754231147
7.64806939972911
7.00804748475573
6.53193394115002
6.16429160181014
5.87704999459613
5.64161138730314
5.44387044737612
5.28291958751078
5.1501914588511
5.0294168618863
4.90702040848532
4.76727001837747
4.59982216011762
4.40559863313795
4.19443587949551
3.97344940625355
3.75451092092518
3.5506472414632
3.37287702037885
3.22901887026683
3.12213775956365
3.05036876802915
3.01108613423177
3.00857565226006
3.04196204347492
3.10807892986527
3.19863141489733
3.29787805561424
3.37902724181294
3.40203783949868
3.32535961123007
3.16691170882295
3.10002236776465
3.028516336985
2.98950619291392
2.9560687420832
2.93538563348414
2.92000096066114
2.91060448020067
2.904852258566
2.90240555074886
2.90238279149233
2.9044484537125
2.90821792964913
2.91348139558922
2.92005553234675
2.92782045598885
2.93667518681662
2.94653473026784
2.95730923159824
2.96889176826556
2.9811415895535
2.9938684493683
3.00681554486757
3.01964189019782
3.0319057666419
3.04304966669125
3.05239070289074
3.05912082978038
3.06232484415639
3.06102891149597
3.05429937983143
3.04142402780114
3.02222771715817
2.99756175963021
2.97011385207991
2.94579896607978
2.93538907419099
2.95520013928696
3.02530180287273
3.14245481522829
3.23458028716028
3.33569652677768
3.4411633592831
3.55668648949875
3.68290180840493
3.82112151395757
3.97110106193035
4.13050717722552
4.29339974152191
4.45399538935591
4.61480900548988
4.77643992371989
4.93885748668189
5.10194283449785
5.26624891181018
5.43479439669523
5.6166010944976
5.82051988352589
6.04707886786939
6.29654749744131
6.56959682451218
6.86849629807615
7.19335701422062
7.54212097519825
7.8912613176228
8.21416437389781
8.49732243243201
8.72554264061341
8.87849560686361
8.94136479945682
8.88288927786158
8.74693546296706
8.50707400808652
8.53578883784686
8.79058060253107
9.60718127047895
10.4068710654259
11.9448342016096
12.6146215178768
10.9408559671894
10.8212934389633
10.6681872237233
11.432957863966
12.3115203604144
19.6155106115687
25.9858056191759
22.6766263153391
14.2417420105488
8.67070744874637
6.58486393552912
5.76550312131254
5.23594099194517
4.8698943535444
4.62384844832351
4.45305861056307
4.32684901383402
4.23389518693257
4.16056767017035
4.0899950773203
4.00963836162122
3.90714417167154
3.77672978264955
3.6230277206376
3.45735158079908
3.28678511727645
3.12159878255669
2.97196533560707
2.84579366726218
2.74811125351095
2.68024207757119
2.6401131098178
2.62547066318255
2.63887348187487
2.67843382461935
2.74013569534053
2.81565997557335
2.89118376178041
2.94579919915555
2.9520464447848
2.88632375084624
2.76938088763685
2.72047799325925
2.6682405211041
2.64097734237415
2.61778662139357
2.60439432614989
2.59503359044933
2.59026001131293
2.58829008205496
2.58886126375389
2.59130765222937
2.59537050682904
2.60075899666715
2.60731157324034
2.61488744500678
2.62339117222474
2.63273920854239
2.64285586059189
2.65365658613641
2.66503728581941
2.67686037140766
2.68894168591661
2.7010368752835
2.71282786036434
2.72391122585388
2.73378926422976
2.74186755858651
2.74746362687916
2.74983390787047
2.74823022863588
2.74200198728291
2.73076815805501
2.71469008390779
2.6948763025003
2.67403802518252
2.65741679953733
2.65370721411955
2.67520161799457
2.73591744706519
2.83180970480894
2.91166237565088
2.9983472256271
3.08965675487195
3.1894707476622
3.29833849732976
3.41709226805341
3.54532671890046
3.68097489290799
3.81941498189447
3.95647555138194
4.09394640116206
4.23229751432431
4.37151771329533
4.51159148927647
4.65314571813124
4.79890989840486
4.95603108121495
5.13114175019945
5.32468038543322
5.53677145160593
5.76817962235039
6.02065007643474
6.2941910015275
6.58644349093558
6.8783919115662
7.14937936190773
7.38885969232916
7.58436965326299
7.71886481582275
7.77893487293873
7.73647469473341
7.62169628139463
7.41811129884656
7.41802162272135
7.58889072372197
8.20809649384435
8.80770779223992
9.9958374789217
10.5814608608175
9.37755422369708
9.35844784849898
9.21966536644387
9.95974788918301
10.2892084771275
15.8462088886584
23.2220481137603
22.5315403641271
15.0979717664965
8.78004469706297
6.05910845552888
5.01187000932545
4.40523987655553
4.01086512000213
3.76780320252173
3.62215039874767
3.53265749412152
3.47847360065544
3.4409003569863
3.40176778838226
3.34907039259354
3.27317248775484
3.17149372741447
3.05047345983188
2.92118103573666
2.79005448987928
2.66566135032258
2.5558551842638
2.46635625672593
2.40045842278228
2.35860026651005
2.33880626689675
2.33907517348015
2.36067965560228
2.40119200896806
2.45632850718636
2.51842782377882
2.57598825292699
2.61323580028045
2.61165772239417
2.55806589072561
2.47145497404992
2.43492427846784
2.39682601102411
2.37767873162553
2.36183384614602
2.35353374363874
2.34842403674788
2.34687454546322
2.34753783134604
2.35018826929228
2.35431872891316
2.35972099559512
2.36617072407172
2.37353887316449
2.38171375316205
2.39061597482845
2.40017334129487
2.41031598917838
2.42096287769085
2.43201235430891
2.44333052756582
2.4547403595579
2.46601086711251
2.47684709674583
2.48688245919426
2.49567457403536
2.50270801782277
2.50740862483037
2.50917562762767
2.50744101641908
2.50176914617753
2.49201253842008
2.47854166677153
2.46258698175502
2.4467335098824
2.43552910328011
2.43598596756877
2.45749253564921
2.51015009915358
2.59002340158095
2.6599624418685
2.73534477317625
2.81549015145221
2.90302088098386
2.99839972621004
3.10212382804978
3.21371061695151
3.33135411401507
3.45140837645764
3.57077495911307
3.69072425796773
3.81163239730266
3.93350297168352
4.05639050002426
4.18095299150204
4.3096330744534
4.4481756643156
4.60167376731821
4.77047898737898
4.95474645649007
5.15529960671521
5.37351536484352
5.60934225127563
5.86032277844756
6.11089394923919
6.34463571646352
6.55292368992473
6.72500047868692
6.84594126133953
6.90297397872491
6.86989959429603
6.76743846416328
6.58841730087243
6.56758514581279
6.68179854841189
7.15721024981064
7.61879524289353
8.54619097610308
9.05149876445106
8.16162498513994
8.1993965193348
8.08758212452386
8.75366647396948
8.91868012133883
12.6903605963191
20.3372428988955
21.9098418600994
16.0779933252204
9.33293105793032
5.93342333231889
4.59969677133207
3.89284356913151
3.45226711964037
3.18908043373137
3.04266055209468
2.9655415465786
2.92929404396448
2.91087464114071
2.89036896491497
2.85569341800596
2.7990418055036
2.7197355869872
2.62468318343809
2.52389873820993
2.4230306153599
2.32914383463252
2.24835069288805
2.18487592020835
2.14093224518982
2.11650168475601
2.10977205238686
2.11888837412566
2.14420453729601
2.18308179226715
2.23134213746717
2.28228512285461
2.32665044245122
2.3527641180714
2.34823168173838
2.30577881248136
2.24127987804947
2.21367015574463
2.18610333613144
2.17282020974106
2.16242128902356
2.15785070058404
2.15587987483742
2.15670079205173
2.1592989736684
2.16346867489557
2.16881997973123
2.17518004909121
2.1823725627325
2.19029144628476
2.19884560943844
2.20796683692437
2.21759085232971
2.22765199995193
2.23807220149408
2.24875265104347
2.25956407773939
2.27033768242785
2.28085658846017
2.29084888654007
2.29998302571526
2.30786744432898
2.31405684530344
2.31807004837529
2.31942453815437
2.31769530693902
2.31260778232542
2.30417535737245
2.29289494214861
2.28002613600338
2.26795176345851
2.26057071399115
2.26355381855096
2.28418218496357
2.32996569957896
2.39742399251335
2.45915322176774
2.52547716127207
2.59660641053223
2.67430627296693
2.75894839261813
2.85079539453324
2.94933470678436
3.05299765203182
3.15886934663074
3.2645855595548
3.37104204005389
3.47854061425212
3.58709467076161
3.69680470999979
3.80833094600756
3.92384459933689
4.04801967580002
4.18483821534145
4.33459976474105
4.4975739326608
4.674601630798
4.86680001826038
5.07408282878552
5.29402263729855
5.51375947714049
5.7199700255439
5.90527111116448
6.05992053186072
6.1703272652492
6.2238606697573
6.19542094760646
6.09944564064705
5.93722635578021
5.90121208900169
5.97607222357333
6.3441176609015
6.70702066909644
7.43826203373515
7.87103598104967
7.1976668328875
7.26322598979185
7.18842341357829
7.73988502624011
7.96416470677636
10.1881988940534
17.5710507941902
20.838076956118
16.9339538810428
10.2028179644455
6.13476566053967
4.44563324828723
3.60678560973105
3.10443723253333
2.80588919891511
2.6417128817684
2.56017522167044
2.5272335159336
2.51633278462804
2.50562073414341
2.48231324357349
2.43952788686478
2.37745305222947
2.30266796861307
2.22386910001363
2.1459602853339
2.0747653749034
2.0151126407066
1.97019105804398
1.94151382200388
1.92881486551823
1.93043385466333
1.94460302676952
1.97105227121161
2.00714986080009
2.04903760847978
2.09104843503457
2.12588009172091
2.14498314013719
2.14005890475136
2.1071351354425
2.05893275410488
2.03808559560122
2.01850147074699
2.00966193760959
2.00343477436478
2.0017288863083
2.0021807375785
2.00483805614181
2.008936535594
2.01428437473304
2.02057841375013
2.02767221071836
2.03542476137028
2.04374701650316
2.05256299079185
2.06181277256599