/*--------------------------------*- C++ -*----------------------------------*\
  =========                 |
  \\      /  F ield         | OpenFOAM: The Open Source CFD Toolbox
   \\    /   O peration     | Website:  https://openfoam.org
    \\  /    A nd           | Version:  7
     \\/     M anipulation  |
\*---------------------------------------------------------------------------*/
FoamFile
{
    version     2.0;
    format      ascii;
    class       volScalarField;
    location    "20000";
    object      p;
}
// * * * * * * * * * * * * * * * * * * * * * * * * * * * * * * * * * * * * * //

dimensions      [0 2 -2 0 0 0 0];

internalField   nonuniform List<scalar> 
15600
(
1.37026514737645e-10
0.00438387666667641
0.00340215314411448
0.00665341968888926
0.0138106866409857
0.0223267384876856
0.0280520311142273
0.031326177200823
0.0334119696287769
0.0351921204096254
0.0365540073872595
0.0376443987087144
0.038509697326098
0.0392083055719451
0.0397551089580667
0.0401813690900061
0.0405311851383805
0.0408204052648804
0.0410637153579667
0.0412741345555734
0.0414611749072355
0.0416356660555436
0.0418082312837652
0.0419933356634555
0.0421915412505243
0.0424067625658596
0.0426397193682217
0.0428886109058876
0.0431481288569773
0.043409839264906
0.0436608444315966
0.043885418202533
0.0440852027778483
0.0442535979051741
0.0443853147359018
0.0444748977626629
0.0445182042826915
0.0445108705392357
0.0444568008286125
0.0443505930447633
0.0440673186513135
0.0439576813628483
0.0438889818785453
0.043926038385945
0.0440559747146226
0.044289513173736
0.04462087751578
0.0450475434088048
0.0455633451940338
0.0461626723102018
0.0468393492937381
0.0475875472207309
0.0484015966847472
0.049276168784966
0.0502062258542638
0.0511870411304587
0.0522141756202647
0.0532834751143602
0.0543910686079764
0.0555333824200722
0.0567071682048029
0.057909548695842
0.0591380806721427
0.0603908363865181
0.0616665045981145
0.0629645117320728
0.0642851651543938
0.0656298212983393
0.0670010838651106
0.0684030293218041
0.0698414568634722
0.0713242375489907
0.0728616567133809
0.0744661481001278
0.0761533457841237
0.0779456863082168
0.0798548909685448
0.0818720335319114
0.0841483150223299
0.0866986708398403
0.0883114184047708
0.0896575402340301
0.0908443213692522
0.0919829879092901
0.0931277880191139
0.0943255436639642
0.0956125518284578
0.0970226924207664
0.0985768242197672
0.10029565851509
0.102258354695091
0.104501216013993
0.107033098968698
0.109838765859197
0.112882867182014
0.116105621255356
0.119437340189432
0.122765251764341
0.125959926174139
0.12893482642532
0.131613868645979
0.133942217263538
0.135842796817717
0.137259638592216
0.138047274810819
0.138078855194045
0.136937061633124
0.134082004511638
0.128923514299144
0.120716144998743
0.108495676063168
0.0912738793077651
0.0678859311126081
0.0392295118279768
0.00756253039144613
-0.0128128990787448
-0.0203757027603725
-0.0183168568208019
-0.0130897715983046
-0.00308793480305234
2.22734935398137e-06
0.00437896092693947
0.00343226546215534
0.00667124930621705
0.0137498162829079
0.0221947056965584
0.0279199728839485
0.0312192627315164
0.0333208390154877
0.0351111092227236
0.0364876345936254
0.0375902309627609
0.0384663144053267
0.0391746366115622
0.0397306944492444
0.0401643579072757
0.0405196091036981
0.0408132081640816
0.0410599752163651
0.0412730773635729
0.041462087901407
0.0416377383671671
0.0418104039915003
0.0419947581077847
0.0421918725602079
0.0424057266862023
0.0426372638353548
0.0428849384202843
0.0431437333858871
0.0434055412138763
0.0436577676286901
0.0438841865107414
0.0440857759622973
0.0442559652694244
0.0443893221878713
0.0444802505006482
0.0445244714339943
0.0445173946410994
0.0444634306152021
0.0443578370370721
0.0440760444806686
0.0439672923022919
0.0438982987994977
0.0439350848181804
0.0440646798148267
0.044297872285957
0.0446288698078866
0.0450551557502373
0.0455705577956354
0.0461694637806032
0.0468456955355359
0.0475934235610511
0.0484069787184229
0.049281033576263
0.0502105527514362
0.0511908125251974
0.0522173775407491
0.0532860977123251
0.0543931065032767
0.0555348348811596
0.0567080391145788
0.0579098462587715
0.0591378168107364
0.0603900257584114
0.0616651631565785
0.0629626547262106
0.0642828044093782
0.0656269615449339
0.0669977178524174
0.0683991311171608
0.0698369719132996
0.0713190699071274
0.072855653220853
0.0744590528164941
0.0761447447051104
0.0779351088949093
0.0798414975825332
0.0818533171413248
0.0841188859228717
0.0866554107602572
0.0882852677778768
0.0896468658296805
0.0908451701490667
0.091994364557117
0.093149971018378
0.0943597800035645
0.0956606408087877
0.0970865807163365
0.0986584465185395
0.100399092994062
0.102386791105146
0.10465511590215
0.107210940539447
0.110037125930057
0.113096448203051
0.116327748795789
0.119659442874216
0.122977419486092
0.126155077411186
0.129108166373547
0.131761667202737
0.134060560544851
0.135927616640009
0.137304263283154
0.138042501041649
0.138005971559823
0.136766462493253
0.1337837447753
0.128468388157155
0.120075225194702
0.107652667946229
0.0902408202660165
0.0667705905750153
0.0382543374765188
0.00709883667982588
-0.0128091596893084
-0.0202217715718649
-0.018187136418023
-0.0130178633006244
-0.00306735468708392
1.18647251725491e-05
0.00438985001839956
0.00349082024109087
0.00672297570157929
0.0137118701773389
0.0220783549211362
0.0278016242924829
0.0311194881325002
0.0332325616663079
0.0350313532882182
0.0364214771665164
0.037535829275268
0.0384224069635691
0.0391403109542012
0.0397056123626934
0.0401467995732592
0.0405076348527128
0.0408057298729807
0.0410560577517834
0.041271940358665
0.0414630088080002
0.0416399044036331
0.0418127332683065
0.0419963430506945
0.0421922909778601
0.0424046477640492
0.0426345721059179
0.042880775235911
0.0431385404392307
0.0434001149581546
0.0436532604493018
0.0438813027908126
0.0440845942968412
0.044256548757988
0.0443915989478694
0.0444840054042712
0.044529324218642
0.0445226761927318
0.0444693506326742
0.0443647410860192
0.0440833242493772
0.0439761203343499
0.0439066293294702
0.043943052242615
0.0440722222453938
0.0443050924831387
0.0446357740054923
0.0450617588474496
0.0455768431488197
0.0461754097922765
0.0468512718508377
0.0475985989234439
0.0484117218662261
0.049285315868833
0.0502143490750508
0.0511941023233482
0.0522201453502837
0.0532883335752843
0.0543948061207592
0.0555359995400917
0.0567086753109525
0.0579099649969728
0.0591374325131288
0.0603891546849804
0.0616638212430617
0.0629608546729461
0.0642805517756658
0.0656242494667732
0.0669945198796195
0.0683953913574453
0.0698325902575276
0.0713138803088582
0.0728493973999266
0.0744513253814567
0.0761348679155794
0.0779220905294497
0.0798240919506457
0.0818286085818006
0.0840748569263677
0.0865771773390696
0.0882190333572953
0.0895972940798956
0.0908088719734119
0.0919705721013669
0.0931390023646597
0.0943630037309776
0.0956799738006091
0.0971240896754028
0.098716356804239
0.100482231707197
0.102498258628501
0.104794846304004
0.107376867497604
0.110225238449575
0.113300906210306
0.116541302532302
0.119873010681492
0.123180655861357
0.126341056999805
0.129272338704323
0.131900360000758
0.134169860512189
0.136003270050236
0.137339353324631
0.138027095581777
0.137920834146003
0.136582296961436
0.133472456546534
0.128004348151542
0.119436616893774
0.106837163178581
0.08928873663843
0.0658355076012695
0.0376116276852314
0.00709573345814049
-0.0123847284911514
-0.0198084544649766
-0.0179347007766585
-0.0129045882815041
-0.00303131454355899
4.41971831195275e-05
0.00442546572572676
0.00360057103288395
0.00683345703230829
0.0137092941843671
0.021973898278283
0.0276954393189511
0.0310315854521601
0.0331519742480431
0.0349566158916966
0.0363585773446302
0.0374835195747319
0.0383797937565602
0.039106730009812
0.0396808998569728
0.0401294415514723
0.0404957956003763
0.040798343032774
0.0410521874944446
0.0412708094891604
0.0414638926028833
0.0416419953548116
0.0418149698113043
0.041997775092332
0.042192414079607
0.0424030576495427
0.0426310792698347
0.0428754413196096
0.0431317299374117
0.0433925594926306
0.0436460664672331
0.0438752492513535
0.0440798877312581
0.0442533631468602
0.044389969973262
0.0444838356661191
0.0445303014754115
0.044524159499173
0.0444718416574731
0.044367493334467
0.0440855100009346
0.0439802713653185
0.0439106148168688
0.0439468874560848
0.044075947333951
0.0443088744721299
0.044639623717021
0.0450656674643558
0.04558075094695
0.0461792492464172
0.0468549679064721
0.0476020815235123
0.0484149275280207
0.0492881908557988
0.0502168498869148
0.0511961962534737
0.0522218103445122
0.0532895579044976
0.0543955876805035
0.0555363447913495
0.0567085977450094
0.0579094831050043
0.0591365671586091
0.0603879256963205
0.0616622430749155
0.0629589308104266
0.064278267419411
0.0656215617695944
0.0669913446192635
0.0683915846574481
0.0698279220539546
0.0713079918702852
0.0728417452337585
0.0744411059587851
0.0761207813606388
0.0779019662468278
0.0797956273872623
0.0817884526020554
0.0840038380737167
0.0864475306836154
0.0880972024344763
0.0894914846333976
0.0907179445516153
0.0918946780624208
0.0930788508524645
0.094320219356614
0.0956565949601607
0.0971222287973005
0.098738485643308
0.100533724927394
0.102581434103734
0.104908613616103
0.107518181842997
0.110389131493918
0.113480739053111
0.11672912267343
0.120059323813368
0.123355186436787
0.126497643823581
0.129407032808317
0.132009803411094
0.134250343382794
0.136050419706623
0.137345906701635
0.137982422555906
0.137805079867478
0.136366974555637
0.133132288595277
0.127518601115181
0.118792560273292
0.106049376583221
0.0884288408310253
0.0651044127362908
0.0373326883988471
0.00760164469429788
-0.0114450698918034
-0.0190147192359999
-0.0174649192488395
-0.012696911991384
-0.0029655191802903
0.000120304807838007
0.00449477556601592
0.00377959624669287
0.00703502533111594
0.0137718686421115
0.0218882142321242
0.0275880674235481
0.0309491468787531
0.0330752102333374
0.0348837437149581
0.0362963780437336
0.0374311407916342
0.0383366600492999
0.0390724236025206
0.0396554604486442
0.040111515041535
0.0404835719418806
0.040790741520978
0.0410482269022678
0.0412696751574684
0.0414648190880347
0.0416441335280429
0.0418172210731614
0.041999077081045
0.0421921318722878
0.0424006605672163
0.0426262565746074
0.0428681321073298
0.0431221836856136
0.0433814128255664
0.043634378508245
0.043863901320385
0.0440692024023466
0.0442436404508348
0.0443814003045107
0.0444765289527642
0.0445241502526325
0.0445187035069519
0.044467716761189
0.0443630538322003
0.0440816001738765
0.0439789940081527
0.0439097661162021
0.0439465356098087
0.0440761444776527
0.0443097798966983
0.0446411618075262
0.0450677309936081
0.0455831716001446
0.0461818628049523
0.046857615752645
0.0476046268517382
0.0484172558315635
0.0492902121901169
0.0502184978449115
0.0511974270755343
0.0522226013740064
0.0532899058136102
0.0543955062381185
0.0555358620397093
0.0567077523949492
0.0579083200687168
0.0591351320499914
0.0603862579813928
0.0616603676235957
0.0629568472979134
0.064275936809908
0.0656188886824583
0.0669881536214496
0.0683875882489355
0.0698226758320435
0.0713008222538428
0.072831650057251
0.0744266472762395
0.0760997389534806
0.0778706097362726
0.0797499896854614
0.0817240092277895
0.0838972102029119
0.0862647770802349
0.0879213539832177
0.0893318458342638
0.0905756725260221
0.09177068483043
0.0929741767709996
0.0942365978245484
0.0955960022592546
0.0970866633839607
0.0987304516323279
0.10055849790587
0.102639815487049
0.104997920934264
0.107633885614754
0.11052486142169
0.113628676537462
0.116880326164125
0.120203792644935
0.123483052271654
0.126603954156874
0.129488697077466
0.132063903131269
0.134273277282443
0.13603729388249
0.137288328850481
0.137867944312602
0.137611130378736
0.136063361663694
0.1326941733084
0.126927278861034
0.118040595476287
0.105163239862823
0.0875042098044393
0.0643813319114655
0.0371797629942989
0.00837610402423314
-0.0101476752791941
-0.0178665538771927
-0.0167223076359123
-0.0123293731452115
-0.00283790144405936
0.000260912237962381
0.00461081106435829
0.00403259803279025
0.00733870001326235
0.0139278169468199
0.0218486785018509
0.0274797838671782
0.0308700863511145
0.0330010081064793
0.0348119076340731
0.0362343187751718
0.0373782198339593
0.0382925417542785
0.0390369595771304
0.0396289391105066
0.0400927626511995
0.0404707924708723
0.0407828368661661
0.0410441598945333
0.0412685812110666
0.041465877847677
0.0416464352216146
0.0418196013784974
0.0420003139927883
0.0421914130279293
0.0423972766811085
0.0426197147413511
0.0428581804152519
0.0431088823370829
0.0433652302370398
0.0436162893227116
0.0438449030048024
0.0440497457759302
0.0442242003281088
0.0443624380954368
0.0444585228513704
0.0445074039149956
0.0445031473999046
0.0444539246937307
0.0443487943728894
0.0440711021244012
0.0439718373062598
0.0439040111448692
0.0439426126627852
0.0440739505448027
0.0443093194690171
0.044642115847351
0.0450697724761952
0.045585930207247
0.0461850105157641
0.046860864928748
0.0476077445020763
0.0484200597325436
0.0492925687230683
0.0502203174498965
0.0511986600580312
0.0522232337548942
0.0532899550436407
0.0543950165859935
0.0555348991798607
0.0567063969071672
0.0579066596246234
0.0591332520197109
0.0603842299799901
0.061658235659579
0.0629546107684367
0.0642735293219387
0.0656161511385407
0.0669847989625715
0.0683831549557354
0.0698164652118563
0.0712918005609708
0.0728183130100656
0.0744068884914312
0.0760704728410336
0.0778268679594999
0.0796863511739259
0.0816350555220486
0.0837595042161623
0.0860438282931722
0.0877065510250137
0.0891330762943702
0.0903964810612021
0.0916122649802531
0.0928376963360975
0.0941236157004762
0.0955081811260006
0.0970256597577355
0.0986984384833129
0.100559924169276
0.102673615181775
0.105059686334908
0.107717525815874
0.110622614685998
0.113731613756886
0.116978672877336
0.120287327668835
0.123542688544668
0.126636080952829
0.129491041812135
0.132033930601625
0.134207216802624
0.135929431737072
0.137128815437971
0.137641632772089
0.137291549997995
0.135617302266141
0.132095882015098
0.126158379557028
0.117096640477862
0.104079333376732
0.0863947029745875
0.0635165423260614
0.0369607328259463
0.00918815687600703
-0.00870456462707757
-0.0164930607261312
-0.015741244558286
-0.0117810253068095
-0.00262296830056972
0.000471090182882585
0.00478271052181174
0.00435533467722156
0.0077277729420818
0.0141813324583636
0.0218798948992138
0.0273861422435063
0.0307980584165673
0.0329308674827604
0.0347412539171527
0.0361725218009865
0.0373248749820208
0.0382474621935848
0.039000291869181
0.0396012698793425
0.0400731376231445
0.040457438329213
0.0407746486342066
0.0410400466382112
0.0412676255598088
0.0414671975685123
0.0416490476241746
0.0418222563726021
0.0420015895809944
0.0421902739830762
0.0423927842986907
0.0426111354075837
0.042845011658698
0.0430909437834029
0.0433427881177789
0.0435902393219756
0.0438164118695336
0.0440194586629936
0.044192863919871
0.0443308956829704
0.0444277190337072
0.0444781225943138
0.0444757312547272
0.0444285754997362
0.0443230695956021
0.0440539297294794
0.0439588803391027
0.0438942105248057
0.0439366157748044
0.0440712205143993
0.0443094408323264
0.044644364222519
0.0450735014923454
0.0455905244839652
0.0461899641405659
0.0468657671088904
0.0476122809979888
0.0484240000976438
0.04929575603139
0.0502226584118504
0.0512001163238515
0.052223814495394
0.0532897097798402
0.0543940280085724
0.0555332751068143
0.0567042609547118
0.0579041402244808
0.0591304694189789
0.0603812806154347
0.0616551735468348
0.0629514250707428
0.0642701170162822
0.0656122831729519
0.0669800771871248
0.0683769568570495
0.0698078721164196
0.0712794903649186
0.0728004145252
0.0743808518010058
0.0760327437891664
0.0777719515347282
0.0796083246569708
0.0815283067371146
0.083602457380147
0.0858029147208451
0.087469644043299
0.0889103878224638
0.0901941868880015
0.0914318151378648
0.0926804504502632
0.0939909267717516
0.0954013725052567
0.096945980229438
0.0986475436564042
0.100541180121808
0.1026843578361
0.105094183557405
0.107768460036293
0.110681155260077
0.113788011557236
0.117022603220332
0.120308568601549
0.123532785869756
0.12659216284918
0.129411010814336
0.131915099158737
0.134045349655128
0.135717727915999
0.136855697807911
0.137289017437562
0.13682942088355
0.135009806085452
0.131316490370732
0.125189440365202
0.115937442466948
0.102774586198194
0.0850771252704988
0.062481151245595
0.0366245599336024
0.00993721427265499
-0.00725293481326584
-0.0150242085446077
-0.0146078335773227
-0.0110843540342968
-0.00232130836114957
0.000741198259658921
0.00500809861999817
0.00473931362507959
0.00817133024205939
0.0145135324890437
0.0219872492244142
0.0273291109365262
0.0307409743737351
0.0328710730652595
0.0346729943252943
0.0361111128144155
0.0372711273308919
0.0382013424188867
0.0389622863730445
0.0395723290256847
0.0400525667043277
0.0404434880577577
0.0407662150861665
0.0410359863634888
0.0412669628262593
0.0414689768709109
0.0416521943297182
0.0418254076059392
0.0420030833805152
0.042188815433939
0.0423871721929279
0.0426003713434635
0.0428283405389309
0.0430679748088996
0.0433136438341582
0.0435558087298821
0.0437781037920839
0.0439781788440294
0.044149679146411
0.0442870088438465
0.0443844206987841
0.0444364829978916
0.0444363052230204
0.0443910734028007
0.0442855956772408
0.0440304692802174
0.0439407894608782
0.0438815153935056
0.0439295726028995
0.0440687345649218
0.0443105703892188
0.0446480102294268
0.0450787490688847
0.0455965814147704
0.0461962086679654
0.0468717178659417
0.0476175841366075
0.0484284077144332
0.0492991094259495
0.0502248737575073
0.0512011728188877
0.0522237445126116
0.0532885897386653
0.054391969382954
0.0555304145889828
0.0567007491883187
0.0579001287133521
0.0591260951784831
0.0603766479011515
0.0616503323472889
0.0629463455604821
0.0642646589740825
0.0656061589243098
0.066972805579941
0.0683678055446848
0.0697957847302793
0.0712629815996685
0.0727774309445437
0.0743486531578307
0.0759876332218031
0.0777083746802742
0.0795203325278811
0.0814102074370283
0.0834347641809314
0.0855528965430706
0.0872211619080462
0.0886732494093455
0.0899771245850717
0.0912367118739072
0.0925090330638048
0.0938444701143868
0.0952809869754465
0.096852600500122
0.0985823573280726
0.100506604837883
0.10267658041171
0.105106618572645
0.107792942261676
0.110708113403803
0.113807133204728
0.117023209250403
0.120280472312603
0.123467807910655
0.126487566469924
0.129264321827951
0.131723105511647
0.133803044935404
0.135417015348513
0.13648318750279
0.136823959673949
0.136239370280839
0.134257428883724
0.130375305437313
0.124043741039548
0.114591970509299
0.101285513293076
0.083595999900188
0.0613226109226172
0.0362091417340676
0.0106254315513072
-0.00583712788478635
-0.0135337882799493
-0.0133983574344389
-0.0102885871156798
-0.00194979772949578
0.00105870893850482
0.00527784824061354
0.00517461063681532
0.00864296406096646
0.0148980038655109
0.0221583667010516
0.0273242202305546
0.0307098225746556
0.0328342878325481
0.0346115706775592
0.0360508078429676
0.0372170930201333
0.0381540856507195
0.0389227505956677
0.0395419436832318
0.0400309587904728
0.0404289331514846
0.0407576143486487
0.0410321406700966
0.0412668257152004
0.0414715008305289
0.0416561867122534
0.0418293636076748
0.042005076073232
0.0421872818199459
0.042380656313393
0.042587641919921
0.0428084527293527
0.0430404162985329
0.0432784837644209
0.0435139812764221
0.0437312612017192
0.0439274677700185
0.0440964138893015
0.0442325886938746
0.0443302445932603
0.0443836634987404
0.0443855007274028
0.0443418312873806
0.044237323871591
0.0440011485572554
0.0439179216207474
0.0438661609019909
0.043921151285434
0.0440657544903728
0.0443116703402889
0.0446518543368451
0.0450842539410561
0.0456028504821658
0.0462025534268352
0.0468776154406831
0.0476226573815188
0.048432397042036
0.0493018533347546
0.0502262914313504
0.0512012507907243
0.0522225252080639
0.0532861612440495
0.054388455277891
0.055525963015065
0.0566955203884569
0.0578942807294576
0.0591197672161265
0.0603699406744926
0.0616432851406161
0.0629389092544619
0.0642566641472036
0.0655972777601931
0.0669625053194694
0.0683552909127184
0.0697799264970598
0.0712422161482956
0.0727496290205997
0.0743110032615633
0.0759363965317086
0.0776380523376291
0.0794249597445728
0.0812838238315244
0.083260014190319
0.0852982037086467
0.0869661529402554
0.0884265791158763
0.0897497745593536
0.0910310462655942
0.0923272419350611
0.0936878480160928
0.0951505452137119
0.0967490673557275
0.0985065520998087
0.100460165044428
0.102654826253754
0.10510238291053
0.1077974382465
0.110711230318435
0.113798144574639
0.116991179660411
0.120215221210032
0.123361199456747
0.126336734203626
0.129066212365962
0.131473932155802
0.133496816827937
0.13504432603529
0.136029010366729
0.136265300257415
0.135542329364576
0.133384209425597
0.129300227430794
0.122754001474268
0.11309888708194
0.0996575234164572
0.0820027954866805
0.0600937489576223
0.0357611162511507
0.0112809109727124
-0.00445626898783799
-0.0120476562859646
-0.0121557619722809
-0.00943133193762985
-0.00152553568448188
0.00141385097959287
0.00558304221268096
0.00565038174417447
0.00913067927314143
0.0153075025862609
0.0223748381974712
0.0273738846200532
0.0307137421735039
0.0328353965760131
0.0345666662462529
0.0359940511589393
0.0371634545291944
0.0381058684994486
0.0388816169791836
0.039510005419067
0.0400082825785937
0.0404138408356768
0.0407490155779159
0.0410287698891114
0.041267544416845
0.0414751445572613
0.0416614181088187
0.0418345170062133
0.0420079637855919
0.0421860987925209
0.0423737329835099
0.0425735738048898
0.0427861778173289
0.0430093697946992
0.0432387208672008
0.0434664585291108
0.0436777921195778
0.0438693500367265
0.0440350836241334
0.0441694837178368
0.0442667296521062
0.0443208347617456
0.0443242302416419
0.0442819865098936
0.0441798230463906
0.0439661683398736
0.0438901559029522
0.0438476873845531
0.0439104664466082
0.0440611844609961
0.0443115657966503
0.0446547369461462
0.0450889283404597
0.0456083441490254
0.0462081252472524
0.046882703416418
0.0476268579093323
0.0484354313581161
0.0493035474910366
0.0502265564475259
0.0512000685841913
0.0522199358631678
0.0532822520215664
0.0543833495483286
0.0555198085574458
0.0566884761184242
0.0578865016740515
0.0591113871805132
0.0603610518952496
0.0616339146599204
0.0629289912797483
0.0642460075782267
0.0655855277114805
0.0669490965080015
0.0683393903122328
0.0697603626455013
0.0712173814377712
0.0727173527511336
0.0742684212130126
0.0758797348723446
0.0775618524769972
0.0793231877462157
0.081150183071248
0.0830794499817159
0.0850408206516093
0.0867072693387099
0.0881732737904438
0.0895149540557756
0.0908174924055138
0.0921376354950666
0.0935235457152262
0.0950125259575851
0.0966379176235196
0.0984227800118237
0.100404714810717
0.102622292858392
0.105085154619212
0.107786229258414
0.110695510443635
0.113766861726874
0.116933197394306
0.120120339092633
0.123221209388981
0.126148527724834
0.128826107150902
0.131177516698
0.133137100303562
0.134610676153386
0.135504950122774
0.135625960499232
0.134753037729468
0.132407441882232
0.128111717301819
0.121344563492734
0.111487089121799
0.0979242708415511
0.0803345876472808
0.0588313437825507
0.0353116952250954
0.0119245003516299
-0.00310143786004063
-0.010571353687356
-0.0108983798763636
-0.00853473663420002
-0.00106090231780118
0.0018001591719129
0.00591750076396149
0.0061555580030042
0.00963465387104506
0.0157119872313425
0.0226208686451497
0.0274756960331093
0.0307575878843604
0.0328796005710748
0.0345519913536007
0.0359462473476306
0.0371120214237477
0.038057498829368
0.0388391737106035
0.039476604331994
0.0399846429100134
0.0403984033036476
0.0407407083191126
0.0410262413374121
0.0412695356200863
0.041480347839491
0.0416683322595064
0.0418413134138862
0.0420122237134071
0.042185817474581
0.042367071707437
0.0425590025781607
0.0427625582336892
0.0429761041343252
0.0431958368162731
0.043414873810977
0.0436193801726467
0.0438054690417167
0.0439672016261339
0.0440990129345235
0.044195000252136
0.0442490142142773
0.0442535619299716
0.0442129571608537
0.0441146010050024
0.043925598185982
0.0438573164023583
0.0438256173777004
0.0438968248987087
0.0440542494177472
0.0443094796883404
0.0446559242933
0.0450921062309431
0.0456124739326901
0.0462124159320862
0.0468865517940095
0.0476298292774848
0.0484372216386748
0.0493039632858471
0.0502254932051767
0.0511974959991226
0.0522158840740206
0.0532767999787405
0.0543766131949459
0.0555119285059393
0.056679603764734
0.0578767837104167
0.0591009478830717
0.060349972454215
0.0616222092102711
0.0629165788714766
0.0642326793024038
0.0655709078396034
0.0669325955781484
0.0683201474095743
0.0697371743792989
0.0711886052599599
0.0726807801941935
0.074221125472581
0.0758179031223118
0.077480059914449
0.0792153438672467
0.0810097444914351
0.0828937831138671
0.0847820762117423
0.0864462792716504
0.0879154250887641
0.089274773249435
0.0905980904161091
0.0919421857750504
0.0933534854271877
0.0948688423677591
0.0965210885202193
0.0983330259888029
0.100342329672324
0.102581241835609
0.105057473466123
0.107762219449255
0.110664311974163
0.11371716241881
0.116853700328669
0.120000804189598
0.123053280277688
0.125928757245025
0.128550202720032
0.130840290693451
0.132730627738043
0.134123165257994
0.134918615359696
0.134914367048223
0.133881252820815
0.131338799096984
0.126823957757112
0.11983283885094
0.109777800908121
0.0961106976192531
0.0786184965394469
0.0575616194069891
0.034881915663251
0.0125695807367025
-0.00176570241108506
-0.00910538941497238
-0.00963333067678909
-0.0076105284358118
-0.000563616289353137
0.00221381123201741
0.00627742990100226
0.0066804194048803
0.010158548699066
0.0160835997340753
0.0228847949124041
0.0276262383861493
0.030844492384566
0.0329536661829083
0.0345801980959442
0.0359158638818354
0.0370660615080714
0.0380107053319507
0.0387962986169457
0.0394421541463514
0.0399603202641825
0.0403829307701949
0.0407330684819431
0.0410249773190965
0.0412732403475499
0.0414875491856785
0.0416773578088515
0.0418501834382975
0.0420183292019982
0.0421869940181812
0.0423613434918813
0.0425447397640883
0.0427385566847191
0.0429417218792582
0.0431510429246671
0.0433604929385449
0.0435572688451709
0.0437369885537146
0.0438938179031422
0.0440221228666954
0.0441159658417283
0.0441691801610464
0.0441746224059289
0.0441361052640089
0.0440428716149735
0.0438795637904788
0.0438194048200759
0.0437996854440286
0.0438798260813242
0.0440444884357962
0.0443049387163684
0.0446549620868136
0.0450933678318554
0.0456148642943451
0.0462150973134923
0.0468888807568506
0.0476313383514635
0.0484375788432645
0.0493029521476923
0.05022298958474
0.0511934529835607
0.0522103173497821
0.0532697756185963
0.0543682352110616
0.0555023259817924
0.0566689164653951
0.0578651463032793
0.0590884720289409
0.0603367260228878
0.0616081921409447
0.0629016948746062
0.0642167025551198
0.0655534435378028
0.0669130323645998
0.0682975986992863
0.0697104063840489
0.0711559401900028
0.0726399633264473
0.074169168209634
0.0757509560740971
0.0773927445918612
0.0791015847789554
0.0808629070495896
0.0827036429546304
0.0845230041862178
0.0861844874849548
0.0876546898132619
0.0890309301233755
0.0903745062524768
0.0917425152886182
0.0931792574355741
0.0947210806751874
0.096400179386158
0.098238913171081
0.100274689215841
0.102533494512693
0.105021376607935
0.107727733080805
0.110620320832377
0.113652146512562
0.116756233204572
0.119860585298379
0.122861740434806
0.125682031318228
0.128243385960439
0.130467289888881
0.132282635692526
0.133587278051659
0.134275862047844
0.134137024901385
0.13293455476831
0.130187492533801
0.125448508438901
0.118233413141263
0.107988947246026
0.0942370949504507
0.0768768743203141
0.0563057570055204
0.0344880309407688
0.0132261466459896
-0.000443863901940519
-0.00764912984885346
-0.00836355534788602
-0.00666472189839774
-3.78659425164879e-05
0.00265289718005071
0.00666051253799693
0.00721779613843228
0.0107029887829564
0.0164096554564879
0.0231556166488012
0.0278146847391818
0.0309688036251368
0.0330214866244265
0.0346573423226675
0.0359124827855026
0.0370300166018295
0.037968030596539
0.0387545465155134
0.0394074719191065
0.039935769086683
0.0403677846131691
0.0407264605676242
0.0410253525261616
0.0412790289726693
0.0414971036449095
0.0416888374403282
0.0418614756272357
0.0420266746961889
0.0421900999618777
0.0423571169314569
0.0425314608130181
0.0427149503341312
0.0429070815498029
0.0431052532724898
0.0433042531250716
0.0434923712468588
0.0436647706316822
0.0438157445051911
0.0439396138552904
0.0440304836503652
0.0440823135163046
0.0440885188673907
0.0440526386281116
0.0439656167647471
0.0438283032233299
0.0437765747329471
0.0437697850739068
0.0438592497328289
0.0440316166180668
0.0442976292822999
0.0446515377189267
0.0450924148181129
0.0456152429695133
0.0462159275286093
0.0468894820452448
0.0476312106862009
0.0484363617489764
0.0493004042779745
0.0502189649617472
0.0511878853623241
0.0522032050309201
0.0532611686988771
0.0543582226126038
0.0554910220617559
0.0566564461811973
0.0578516292984727
0.0590740045065423
0.0603213600007674
0.0615919112846035
0.0628843860062061
0.0641981218479726
0.0655331762026876
0.066890444135951
0.0682717758112084
0.0696800821833164
0.0711193960665263
0.0725948919168138
0.0741125310516814
0.0756788807821885
0.0772999228444017
0.0789820542115364
0.0807101078151896
0.0825096326566095
0.0842644324653927
0.085922900046255
0.0873924488186056
0.0887848548499791
0.0901481715745149
0.0915400312197682
0.093002252919941
0.0945706346806736
0.0962765943809812
0.0981418621479414
0.100203261885204
0.102480646903972
0.104978647061895
0.107684800486759
0.110565876624053
0.113574503594283
0.116643857817812
0.119703091635011
0.122650283792235
0.125412312089724
0.127909766812953
0.130062785234235
0.131797553967329
0.133007656263175
0.133581661157144
0.133299494913689
0.131919523501927
0.128961820514914
0.123995970807418
0.116558679746405
0.106133611951908
0.0923163039690691
0.0751258837863915
0.0550816771657556
0.0341432337225263
0.0139022003822245
0.000868373313038645
-0.00620135725581501