/*--------------------------------*- C++ -*----------------------------------*\
  =========                 |
  \\      /  F ield         | OpenFOAM: The Open Source CFD Toolbox
   \\    /   O peration     | Website:  https://openfoam.org
    \\  /    A nd           | Version:  7
     \\/     M anipulation  |
\*---------------------------------------------------------------------------*/
FoamFile
{
    version     2.0;
    format      ascii;
    class       surfaceScalarField;
    location    "20000";
    object      phi;
}
// * * * * * * * * * * * * * * * * * * * * * * * * * * * * * * * * * * * * * //

dimensions      [0 3 -1 0 0 0 0];

internalField   nonuniform List<scalar> 
30950
(
2.29058481374744e-05
-5.50802766569142e-07
2.54285925582502e-05
-2.52274456373942e-06
2.08282684282009e-05
4.60032429726337e-06
1.08121442260765e-05
1.00161242947036e-05
1.60861153000517e-07
1.06512829324848e-05
-5.88238560879359e-06
6.04324663206124e-06
-7.31224486692289e-06
1.42985931974741e-06
-6.65542084591519e-06
-6.56823915994743e-07
-5.88481380080264e-06
-7.7060692072972e-07
-5.16617068086633e-06
-7.18642884405277e-07
-4.57234171980007e-06
-5.93828837825765e-07
-4.08597605152064e-06
-4.86365656565424e-07
-3.67649476689527e-06
-4.09481309892924e-07
-3.32221434250377e-06
-3.5428052837634e-07
-3.04716201373409e-06
-2.75052454936153e-07
-2.86990794450442e-06
-1.77254203021219e-07
-2.762711776809e-06
-1.07196307176019e-07
-2.72457159950394e-06
-3.81403088758039e-08
-2.76695684187953e-06
4.23851158641296e-08
-2.89710113381709e-06
1.30144174868236e-07
-3.12461375372261e-06
2.27512518112686e-07
-3.45143780265873e-06
3.26823971153541e-07
-3.8635035544514e-06
4.12065709500428e-07
-4.32011256807467e-06
4.56609018622053e-07
-4.80983549046526e-06
4.89722982297733e-07
-5.31509021049089e-06
5.05254834936944e-07
-5.80733532974092e-06
4.92245281226816e-07
-6.25195871217506e-06
4.44623577026412e-07
-6.61248367242818e-06
3.60525170309262e-07
-6.85710809035939e-06
2.44624627040738e-07
-6.98488219946577e-06
1.27774305391697e-07
-7.03876653844063e-06
5.38845161764979e-08
-6.99081726865766e-06
-4.79491132410717e-08
-6.82864295449035e-06
-1.6217417744067e-07
-6.56765611145779e-06
-2.60986724388326e-07
-6.25204797763569e-06
-3.15608031645157e-07
-5.96232750043439e-06
-2.89720389136716e-07
-5.81694527253029e-06
-1.45382150453043e-07
-5.89827853634571e-06
8.13333340721156e-08
-6.67875112611289e-06
7.80472657719388e-07
-9.67933627569183e-06
3.00058522061677e-06
-1.27647602218313e-05
3.08542401446587e-06
-1.57130417751501e-05
2.94828161903226e-06
-1.84487321865393e-05
2.73569047797692e-06
-2.09731490761078e-05
2.52441695600193e-06
-2.32649605270008e-05
2.29181151577821e-06
-2.53357484382238e-05
2.07078797294215e-06
-2.7196804620109e-05
1.86105623646434e-06
-2.88664941732465e-05
1.66968959778577e-06
-3.03621887882139e-05
1.49569464755316e-06
-3.17012233359819e-05
1.33903456627198e-06
-3.28992149507529e-05
1.19799161895361e-06
-3.39703935175378e-05
1.07117855746602e-06
-3.49274858209788e-05
9.57092282311944e-07
-3.578202627224e-05
8.54540421154146e-07
-3.65445834465998e-05
7.62557138625546e-07
-3.72250625298958e-05
6.80479045568479e-07
-3.78329793420842e-05
6.07916776133868e-07
-3.83777311214925e-05
5.4475174831096e-07
-3.88688400294253e-05
4.91108884446094e-07
-3.93161672859512e-05
4.473272425426e-07
-3.97300862066068e-05
4.13918917113675e-07
-4.01216131962679e-05
3.91526996555603e-07
-4.05024922604977e-05
3.80879080661893e-07
-4.08852232089193e-05
3.82730972770559e-07
-4.12830259475251e-05
3.97802768772782e-07
-4.17097217369946e-05
4.26695823078705e-07
-4.21794955993788e-05
4.69773896884889e-07
-4.27064675281378e-05
5.26971961396119e-07
-4.33039921669341e-05
5.97524666617114e-07
-4.39835333071202e-05
6.79541160069166e-07
-4.47523508372514e-05
7.68817539113271e-07
-4.56095590930103e-05
8.57208251597832e-07
-4.65423417828376e-05
9.32782671463976e-07
-4.7510866348958e-05
9.68524533130163e-07
-4.84044987169985e-05
8.93632319382795e-07
-4.90666439490391e-05
6.62145166916938e-07
-4.92797237103935e-05
2.13079683722713e-07
-4.745943087461e-05
-1.82029291546997e-06
-4.12711579410726e-05
-6.18827301031886e-06
-3.73362046463679e-05
-3.93495338950948e-06
-3.5215513040724e-05
-2.12069172802481e-06
-3.39352104257183e-05
-1.28030276279168e-06
-3.30950812620537e-05
-8.40129338405177e-07
-3.24747775158507e-05
-6.2030394375685e-07
-3.19342103074082e-05
-5.4056742062856e-07
-3.13803004013165e-05
-5.5391012677301e-07
-3.07467679254374e-05
-6.33532700848489e-07
-3.00655067094182e-05
-6.8126144397535e-07
-2.94660438021069e-05
-5.99463139935922e-07
-2.88023505657655e-05
-6.63693476663128e-07
-2.79224305619759e-05
-8.7992025574442e-07
-2.67447414255816e-05
-1.1776894031232e-06
-2.523327138488e-05
-1.51147032252725e-06
-2.33723220782754e-05
-1.86094959708094e-06
-2.11686176377218e-05
-2.20370472387232e-06
-1.85931886825064e-05
-2.57542921273976e-06
-1.56726513467749e-05
-2.92053755692486e-06
-1.25488066814628e-05
-3.12384482265561e-06
-9.34590232531383e-06
-3.20290439317005e-06
-6.15301752610488e-06
-3.1928847528179e-06
-3.00026911830069e-06
-3.15274833332339e-06
8.85693470781105e-08
-3.08883809353465e-06
3.17820259407808e-06
-3.08963271947038e-06
6.32314159918424e-06
-3.1449388953931e-06
9.84148462851467e-06
-3.51834227908038e-06
1.39237493531286e-05
-4.08226364977052e-06
1.8675646889006e-05
-4.75189763464052e-06
2.43107627136297e-05
-5.63511529931266e-06
3.11459362545348e-05
-6.83517244857216e-06
3.95645537945449e-05
-8.41861721262222e-06
4.98953621129531e-05
-1.03308082367327e-05
6.13989583058934e-05
-1.15035958982464e-05
7.07981673965073e-05
-9.39920855683902e-06
6.92038925713388e-05
1.59427509054754e-06
5.85745982754814e-05
1.06292941697278e-05
4.45451286069932e-05
1.40294695241976e-05
3.20943384738873e-05
1.24507900705714e-05
2.28481536689167e-05
9.2461848228054e-06
4.93097009043936e-07
7.60283971215757e-05
-8.17911818714325e-07
8.04253772575033e-05
-6.91972486708557e-06
6.94923226479096e-05
1.55333789063064e-05
4.29000162160242e-05
3.66084308865641e-05
1.09363510682459e-05
4.26149479746657e-05
-1.11211549536095e-05
2.81007525799578e-05
-1.90300855116171e-05
9.33878996618687e-06
-1.8752019820208e-05
-9.34889570115371e-07
-1.69072618698343e-05
-2.61536483135689e-06
-1.50509117818672e-05
-2.5749928775386e-06
-1.34525376800527e-05
-2.19220294181748e-06
-1.21256079477268e-05
-1.81329540473022e-06
-1.09951769399708e-05
-1.53991234308571e-06
-1.0025510983637e-05
-1.32394654380958e-06
-9.2764994424457e-06
-1.02406404693982e-06
-8.79535037976018e-06
-6.58403320309101e-07
-8.52529081572965e-06
-3.77255927562646e-07
-8.46163820892403e-06
-1.01792972662915e-07
-8.63577881336169e-06
2.16525657172839e-07
-9.07036648826224e-06
5.64731783793445e-07
-9.78901148390935e-06
9.46157447844974e-07
-1.07935778352018e-05
1.33139026282769e-06
-1.20378164288485e-05
1.65630425730761e-06
-1.34202234375567e-05
1.83901600253935e-06
-1.4899267520834e-05
1.96876706657464e-06
-1.64264693968565e-05
2.03245673936634e-06
-1.79248591299686e-05
1.99063506899252e-06
-1.93034275760525e-05
1.82319210097839e-06
-2.04690098770272e-05
1.52610756889053e-06
-2.13477105608083e-05
1.12332542488811e-06
-2.19429762305647e-05
7.23040103618302e-07
-2.23392136618983e-05
4.50122088926891e-07
-2.24818240480957e-05
9.46614262092586e-08
-2.23386101762347e-05
-3.05387885081233e-07
-2.19553303373761e-05
-6.44266389179453e-07
-2.14612002758526e-05
-8.09737910605813e-07
-2.10938146864144e-05
-6.57105788762336e-07
-2.11942840178871e-05
-4.49126236682363e-08
-2.22280147178448e-05
1.11506423152849e-06
-2.57315880285956e-05
4.28404616582248e-06
-3.42228784630745e-05
1.14918758546006e-05
-4.3149211854788e-05
1.20117576017725e-05
-5.14406301149385e-05
1.12397000711516e-05
-5.90427960723043e-05
1.03378566249056e-05
-6.59347963713102e-05
9.41641743903016e-06
-7.2123176555085e-05
8.48019187321781e-06
-7.76543185931476e-05
7.60193016966084e-06
-8.2583498809508e-05
6.79023659041297e-06
-8.69713146031871e-05
6.05750550352792e-06
-9.08748534177075e-05
5.3992335460831e-06
-9.4346711673344e-05
4.8108928764778e-06
-9.74336489607803e-05
4.2849289326003e-06
-0.000100177171645787
3.81470124331273e-06
-0.000102614099988595
3.39402060486159e-06
-0.000104777494724272
3.01793512113319e-06
-0.00010669752695012
2.68258931962183e-06
-0.000108402349454348
2.38530150212846e-06
-0.000109918887754983
2.1244550323391e-06
-0.000111273552826363
1.8994167836758e-06
-0.000112492852572279
1.71040860670031e-06
-0.000113603888036816
1.55836269828837e-06
-0.000114634716052803
1.44474694011815e-06
-0.000115614570468389
1.37138143435205e-06
-0.000116573926969324
1.34023561698833e-06
-0.000117544382246356
1.35318629524953e-06
-0.000118558313024924
1.41173359893582e-06
-0.000119648245191361
1.51662804288632e-06
-0.000120845816551178
1.66734530718938e-06
-0.000122180138541074
1.86129399407724e-06
-0.000123675223724357
2.09260988007528e-06
-0.000125345900492876
2.35021794133898e-06
-0.000127191179535161
2.61409657234069e-06
-0.00012918307389089
2.84910257296037e-06
-0.000131247444764768
2.99715348346779e-06
-0.000133231946760814
2.95302643840015e-06
-0.000134846017235311
2.5077026726441e-06
-0.000135512430161593
1.32855794031757e-06
-0.000134068137244653
-1.23121341577817e-06
-0.000127966995735691
-7.9214346290521e-06
-0.000115268551863521
-1.88867171002646e-05
-0.000106559179313457
-1.26443261849929e-05
-0.000101609611990395
-7.07025932215822e-06
-9.83730680845098e-05
-4.51684695130779e-06
-9.60106231001366e-05
-3.20257461119423e-06
-9.40037156021814e-05
-2.62721173037848e-06
-9.20337196301438e-05
-2.5105636751849e-06
-8.98965320319511e-05
-2.69109799793631e-06
-8.74935133167399e-05
-3.03655167738277e-06
-8.49125045556288e-05
-3.26227045386723e-06
-8.23354362099811e-05
-3.17653172211314e-06
-7.94644667006161e-05
-3.53466321029579e-06
-7.59958446304188e-05
-4.34854253782674e-06
-7.17821899243368e-05
-5.39134430745009e-06
-6.67685778823713e-05
-6.52508254650874e-06
-6.09434563262996e-05
-7.68607131452833e-06
-5.43283844694356e-05
-8.81877671427376e-06
-4.69043458681389e-05
-9.99946790882316e-06
-3.87705659484349e-05
-1.10543175246469e-05
-3.02305503787891e-05
-1.16638603910829e-05
-2.15562679007114e-05
-1.18771868008018e-05
-1.29318087611422e-05
-1.18173437362364e-05
-4.43018619694851e-06
-1.16543707232915e-05
3.92268132795183e-06
-1.14417053694328e-05
1.22624063749512e-05
-1.14293573263184e-05
2.07833434951044e-05
-1.16658758004571e-05
3.01908257406032e-05
-1.29258242483918e-05
4.09541567639086e-05
-1.48455939587319e-05
5.33772612975298e-05
-1.717500209997e-05
6.79818125651088e-05
-2.02396665431345e-05
8.55025944688258e-05
-2.43559537081052e-05
0.000106844996683246
-2.97610193046986e-05
0.000132658606459155
-3.61444183114627e-05
0.000161615102026832
-4.04600913984874e-05
0.000186704099285411
-3.44882055589506e-05
0.00019035889676605
-2.0605222236607e-06
0.000171545408187225
2.94427828124955e-05
0.000139862594941585
4.57122827603162e-05
0.000107202502770261
4.51108822298302e-05
8.18699230652092e-05
3.4578764558396e-05
6.60173228173806e-06
0.000138826927682544
1.45961344163734e-06
0.000142702692986565
-1.07954903603315e-05
0.000127107320252199
3.11287514573904e-05
8.69236629352753e-05
7.67920883629368e-05
3.34441856156409e-05
9.60944252519357e-05
-8.98106236963841e-06
7.05260004853267e-05
-2.7765931881994e-05
2.81236595423406e-05
-2.99868620116486e-05
1.28604057723539e-06
-2.77152437962649e-05
-4.8869830156295e-06
-2.49983890099279e-05
-5.29184760893971e-06
-2.25490602866259e-05
-4.64153168694893e-06
-2.04713807162008e-05
-3.89097497378141e-06
-1.86755844006662e-05
-3.33570866686332e-06
-1.71333238321632e-05
-2.86620713613577e-06
-1.59416400917776e-05
-2.21574779790407e-06
-1.51787179814303e-05
-1.42132544899944e-06
-1.47745566461587e-05
-7.81417284613957e-07
-1.47213529375739e-05
-1.54996709575282e-07
-1.50683808639783e-05
5.63553545168303e-07
-1.58537328104866e-05
1.35008368511863e-06
-1.71118096790534e-05
2.20423426646332e-06
-1.88406930554994e-05
3.06027358945743e-06
-2.09603027661507e-05
3.77591392377671e-06
-2.33169476330027e-05
4.19566083587823e-06
-2.5835675085276e-05
4.48749449931294e-06
-2.84381835574028e-05
4.63496520800102e-06
-3.10050006143597e-05
4.5574521398976e-06
-3.33983500296813e-05
4.21654154894933e-06
-3.54827930177098e-05
3.61055060980154e-06
-3.71612439865466e-05
2.80177646819801e-06
-3.84483653273445e-05
2.01016154167296e-06
-3.94537005715809e-05
1.45545745328354e-06
-4.01130720595538e-05
7.5403305618464e-07
-4.03848489505563e-05
-3.36108317853764e-08
-4.03465745489322e-05
-6.82540610253839e-07
-4.02099821917706e-05
-9.46330071005267e-07
-4.03615229916182e-05
-5.05564778647334e-07
-4.13868176079258e-05
9.80382213037441e-07
-4.42969527491556e-05
4.02519959719942e-06
-5.13995921049524e-05
1.1386685744534e-05
-6.51266952143303e-05
2.52189791848804e-05
-7.94430966111645e-05
2.63281592120779e-05
-9.24929031676651e-05
2.42895068347491e-05
-0.000104271356884409
2.2116310542292e-05
-0.000114786380037188
1.99314407828556e-05
-0.000124115956854009
1.78097688662632e-05
-0.000132366195514896
1.58521689873714e-05
-0.000139651711928754
1.40757531366382e-05
-0.000146082724587138
1.24885182660777e-05
-0.000151759335909587
1.10758449431148e-05
-0.000156770045921371
9.82160293318064e-06
-0.000161192129645733
8.70701267428927e-06
-0.000165093056052076
7.71562764333331e-06
-0.000168532155282614
6.83311981041561e-06
-0.000171562315054259
6.04809485513425e-06
-0.000174231556219921
5.35183044137467e-06
-0.000176584441330626
4.7381865688229e-06
-0.00017866330372641
4.20331738966562e-06
-0.000180509282948737
3.74539597772349e-06
-0.00018216315968862
3.36428533177246e-06
-0.000183665971273888
3.06117428404078e-06
-0.000185059389413285
2.83816509556585e-06
-0.000186385844335415
2.69783638688296e-06
-0.000187688367850205
2.64275917402256e-06
-0.000189010104524504
2.67492302008642e-06
-0.000190393423373156
2.79505250214167e-06
-0.000191878508271005
3.0017129946025e-06
-0.000193501236463297
3.29007354786205e-06
-0.000195290038480734
3.65009604965966e-06
-0.00019726120887055
4.06378029335915e-06
-0.000199411892485781
4.50090156134831e-06
-0.000201709558004601
4.91176207378992e-06
-0.00020407461791008
5.21416243615159e-06
-0.000206351668899464
5.27420440383389e-06
-0.000208269723424145
4.87108086650095e-06
-0.00020935403211968
3.59201124362425e-06
-0.000208681563979608
6.56089646868472e-07
-0.000204741753987752
-5.17102359041962e-06
-0.000195535670390867
-1.71275184355432e-05
-0.00018056925251809
-3.38531352006835e-05
-0.000169920343470403
-2.32932354801918e-05
-0.000163388059303304
-1.36025437522105e-05
-0.000158738599467158
-9.16630705013607e-06
-0.000154972883815534
-6.9682905172934e-06
-0.000151442409958646
-6.15768582902271e-06
-0.000147757378104058
-6.19559575558475e-06
-0.000143685674184473
-6.76280212681788e-06
-0.000139147116690346
-7.57510936427691e-06
-0.000134250455426165
-8.15893189439892e-06
-0.000129137167465139
-8.28981984320959e-06
-0.000123454532249626
-9.21729856864467e-06
-0.000116863232959364
-1.09398419520929e-05
-0.000109211479274609
-1.30430980950394e-05
-0.000100451934810266
-1.52846270897673e-05
-9.05901271473951e-05
-1.75478790304009e-05
-7.96669026142929e-05
-1.97420012732669e-05
-6.77089534039194e-05
-2.19574171133008e-05
-5.48960170574541e-05
-2.38672538274146e-05
-4.16126806845835e-05
-2.4947196691986e-05
-2.81945816221676e-05
-2.52952857683912e-05
-1.48605609781304e-05
-2.51513642194352e-05
-1.7019640955862e-06
-2.48129674226061e-05
1.1276267821514e-05
-2.44199371745515e-05
2.42581182671469e-05
-2.4411207497075e-05
3.75759605687929e-05
-2.49837178464371e-05
5.21772667586684e-05
-2.7527130524868e-05
6.87254389396695e-05
-3.13937657798871e-05
8.76698642581674e-05
-3.61194271634782e-05
0.000109705474214568
-4.22752769123739e-05
0.000135759205442686
-5.04096847350451e-05
0.000166930716973646
-6.09325306110407e-05
0.000203839325141483
-7.30530269623523e-05
0.000244850048292219
-8.14708148576253e-05
0.000281794052006103
-7.14322092801731e-05
0.000294622317453654
-1.48887876718327e-05
0.000277845635111096
4.62194650884679e-05
0.000239384230143878
8.41736876590195e-05
0.000193638938204805
9.08561741370905e-05
0.000155251780618651
7.29659221394598e-05
2.0749060075984e-05
0.00020983380069103
8.05517131260275e-06
0.000211313809240858
-1.22754989959152e-05
0.000192358844668385
5.00837157474418e-05
0.000142270269022183
0.000126880664110175
6.88278766378715e-05
0.000169536817651892
2.60359332960124e-06
0.0001367502837059
-3.2086696648668e-05
6.28139495261865e-05
-3.96661865647556e-05
8.8655304887785e-06
-3.7952751999076e-05
-6.60041754933667e-06
-3.47607256113702e-05
-8.48387395936863e-06
-3.16880284859197e-05
-7.71422882125176e-06
-2.89988863817094e-05
-6.58011704447941e-06
-2.66317248294681e-05
-5.70287020097449e-06
-2.45867107019446e-05
-4.91122124893445e-06
-2.30052027819669e-05
-3.79725569306602e-06
-2.20020524984401e-05
-2.42447572182699e-06
-2.15065762949309e-05
-1.27689348424089e-06
-2.15115915970303e-05
-1.49981415359182e-07
-2.20825186157537e-05
1.13448054413204e-06
-2.32717408117885e-05
2.53930585304204e-06
-2.51210806422208e-05
4.05357406203781e-06
-2.76201349955084e-05
5.55932790456341e-06
-3.06556837875289e-05
6.81146267760887e-06
-3.40273831840423e-05
7.56736019688276e-06
-3.76279716493202e-05
8.08808293370256e-06
-4.13512925594398e-05
8.3582860941834e-06
-4.50437993119808e-05
8.2499588787535e-06
-4.85337872532439e-05
7.70652949109364e-06
-5.16616112321415e-05
6.73837460887344e-06
-5.4325942400239e-05
5.46610767974166e-06
-5.65568344483683e-05
4.24105365915461e-06
-5.84834114474034e-05
3.38203454812104e-06
-6.0042295333603e-05
2.31291706338636e-06
-6.11940340581173e-05
1.11812803665312e-06
-6.20469313708628e-05
1.70356866660173e-07
-6.2886784409718e-05
-1.06476850467723e-07
-6.42344749202416e-05
8.42125928114315e-07
-6.69418335760765e-05
3.6877410753638e-06
-7.25426193009794e-05
9.62598553213839e-06
-8.35830159495258e-05
2.24270826002726e-05
-0.000101935582219934
4.35715456555428e-05
-0.000120638884525162
4.50314617065351e-05
-0.000137347682336623
4.09983048266139e-05
-0.000152115297264519
3.68839256417082e-05
-0.000165056189465949
3.28723331447552e-05
-0.000176354019661514
2.9107599206648e-05
-0.000186200237367979
2.5698386819536e-05
-0.000194779125897383
2.26546417692021e-05
-0.000202255237659386
1.99646301059717e-05
-0.000208771893947971
1.75925012839748e-05
-0.000214451893318183
1.55016023309347e-05
-0.000219400362947066
1.36554823083212e-05
-0.00022370770322421
1.20229679071935e-05
-0.000227452558960471
1.05779755195715e-05
-0.00023070438112989
9.29991698883539e-06
-0.000233525667531209
8.17311680375497e-06
-0.000235973815089328
7.18633408978196e-06
-0.000238102649624521
6.33215189392829e-06
-0.000239963626065037
5.6063723970758e-06
-0.000241606718011088
5.00737726880115e-06
-0.000243080983432041
4.5354397092626e-06
-0.000244434794444247
4.19197612521369e-06
-0.000245715711655078
3.97875362702221e-06
-0.000246969967182536
3.89701474031118e-06
-0.000248241490481925
3.94644636464404e-06
-0.000249570388596426
4.12395066434715e-06
-0.000250990733968755
4.42205841301213e-06
-0.000252527443390937
4.82678301033989e-06
-0.000254191921947384
5.31457463676896e-06
-0.000255975949634292
5.84780799792451e-06
-0.000257843118574487
6.36807050346794e-06
-0.000259716829468762
6.78547295206503e-06
-0.00026146198113282
6.95931406438028e-06
-0.000262857032609838
6.66925582374673e-06
-0.00026355837301244
5.57242119033139e-06
-0.000263032264644701
3.06590277586716e-06
-0.000260409230208965
-1.96694491017309e-06
-0.000254543081940072
-1.10371720040125e-05
-0.000244350731633078
-2.73198689114174e-05
-0.000230327343956583
-4.78765230639371e-05
-0.000220054453273365
-3.35661263603113e-05
-0.000213033024295735
-2.06239729307275e-05
-0.000207458783057888
-1.47405484779611e-05
-0.000202430191252989
-1.1996882493351e-05
-0.000197341453407093
-1.12464238245683e-05
-0.000191838179640789
-1.16988696500924e-05
-0.000185724853555049
-1.28761283213759e-05
-0.000178950639663217
-1.43493233474834e-05
-0.000171605113744664
-1.55044578882637e-05
-0.000163758522946554
-1.61364107009812e-05
-0.00015509046657213
-1.78853549860535e-05
-0.000145325837675093
-2.07044708734629e-05
-0.000134355608197043
-2.40133275764902e-05
-0.000122156832948802
-2.7483402318276e-05
-0.000108757169234517
-3.09475427015008e-05
-9.42192234543308e-05
-3.42799469894292e-05
-7.86248519938579e-05
-3.75517884902557e-05
-6.22098335370821e-05
-4.02822721785875e-05
-4.53545158059031e-05
-4.18025143071229e-05
-2.8374052669951e-05
-4.22757487998032e-05
-1.14686598442834e-05
-4.20567569119031e-05
5.27923521929966e-06
-4.15608623274348e-05
2.18938356808419e-05
-4.10345376215996e-05
3.85869503045788e-05
-4.1104322032537e-05
5.57791221616636e-05
-4.21758894657355e-05
7.45085073561677e-05
-4.62565160084032e-05
9.55317737588249e-05
-5.24170322041264e-05
0.000119371342291296
-5.99589953347882e-05
0.000146759478106935
-6.96634133044252e-05
0.000178610692257429
-8.22608991657668e-05
0.000215936687990175
-9.82585261026405e-05
0.000259131614645807
-0.000116247954008636
0.00030647409107516
-0.00012881329181306
0.000350581529796097
-0.000115539648265649
0.000373197127061942
-3.75043851433991e-05
0.000365780523525569
5.36360683978528e-05
0.000331736553711911
0.000118217657317791
0.000283303564403169
0.000139289163392093
0.000237915636356245
0.000118353850155296
4.22353379675131e-05
0.000282010911141778
1.89653262413082e-05
0.000280234236291202
-1.04988240635148e-05
0.000260052253252727
7.02656985326565e-05
0.000205399419089418
0.000181533498297135
0.000116608130795901
0.000258328105979287
2.55018905621199e-05
0.000227856523861289
-3.01577505454303e-05
0.000118473590581967
-4.68934129834861e-05
2.56011929004587e-05
-4.71721694239411e-05
-6.32166109080497e-06
-4.40595706812142e-05
-1.15964726908728e-05
-4.06809057480194e-05
-1.10928937531824e-05
-3.7581470557142e-05
-9.67955217885658e-06
-3.47789412777596e-05
-8.50539943984189e-06
-3.23303754638794e-05
-7.35978701219551e-06
-3.04333171962865e-05
-5.6943139038561e-06
-2.92475290896868e-05
-3.61026378993958e-06
-2.87154230725531e-05
-1.8089994724775e-06
-2.88354513946606e-05
-2.99530811774116e-08
-2.96877189859898e-05
1.98674813288166e-06
-3.13369235557673e-05
4.18851040836038e-06
-3.38280304569859e-05
6.54468093799952e-06
-3.71371212973837e-05
8.86841871100268e-06
-4.11184783507458e-05
1.07928196899548e-05
-4.55309326596343e-05
1.19798144590288e-05
-5.02371263864825e-05
1.27942766100319e-05
-5.51063528914172e-05
1.32275125488278e-05
-5.99607484558884e-05
1.31043543994634e-05
-6.46093890089026e-05
1.23551700146446e-05
-6.88870997633537e-05
1.10160853558099e-05
-7.27044955709128e-05
9.28350350759738e-06
-7.61099851686127e-05
7.6465433081951e-06
-7.9247655946306e-05
6.51970540847471e-06
-8.20651041362401e-05
5.13036536520197e-06
-8.45364491600195e-05
3.58947319824715e-06
-8.67996526081515e-05
2.43356047481491e-06
-8.92011273730574e-05
2.29499809264412e-06
-9.237250592913e-05
4.01350467651426e-06
-9.73849553162047e-05
8.70019066341832e-06
-0.000106047930145415
1.82889605643358e-05
-0.000120647699850033
3.70268525030437e-05
-0.000142197170688502
6.51210166804985e-05
-0.000163415845152219
6.62501363435587e-05
-0.000181845834043373
5.94282938802799e-05
-0.00019769818385831
5.27362756084344e-05
-0.000211258797638868
4.64329470652604e-05
-0.000222849002700656
4.06978043925208e-05
-0.000232757163673501
3.56065478980685e-05
-0.000241236544048608
3.11340222296521e-05
-0.000248499027834638
2.72271139550743e-05
-0.00025472143117635
2.3814904666802e-05
-0.000260050284071535
2.08304552467387e-05
-0.000264608109204374
1.82133074435599e-05
-0.000268498296749267
1.59131554398053e-05
-0.000271809477142007
1.38891558893026e-05
-0.000274618916728612
1.21093565459035e-05
-0.000276995308305723
1.05495083490691e-05
-0.000279000936254364
9.19196200824543e-06
-0.000280693366598876
8.02458221325324e-06
-0.00028212668720541
7.03969298606703e-06
-0.000283352346081299
6.23303613652874e-06
-0.000284419591801361
5.60268543135707e-06
-0.000285375516090704
5.14790042664838e-06
-0.00028626468592257
4.86792348001795e-06
-0.000287128333961752
4.76066280789808e-06
-0.000288003048194693
4.82116063087614e-06
-0.000288918883651645
5.03978615660325e-06
-0.000289896774829284
5.39994962479367e-06
-0.000290945080820158
5.87508903098915e-06
-0.000292055031446365
6.42452528542456e-06
-0.000293194734375949
6.98751094014092e-06
-0.000294301313966017
7.47465009442861e-06
-0.000295270688095892
7.75484706963058e-06
-0.00029594367320361
7.63229914527268e-06
-0.000296086960282051
6.81254285966009e-06
-0.00029537214100277
4.85760185239158e-06
-0.000293352661995713
1.04642369480475e-06
-0.000289424327184172
-5.89527981047809e-06
-0.000282866732895396
-1.75947663982783e-05
-0.000273132653458037
-3.70539484727286e-05
-0.000261172596783071
-5.9836579878403e-05
-0.000251977043199811
-4.27616800905077e-05
-0.000244916626162845
-2.76843901141911e-05
-0.000238713779361207
-2.09433954126143e-05
-0.000232650279718654
-1.80603822481898e-05
-0.000226235490660329
-1.7661212972508e-05
-0.000219190557948154
-1.87438024302738e-05
-0.000211369868893193
-2.06968174253744e-05
-0.000202742314516463
-2.29768777567178e-05
-0.00019336647570752
-2.48802967148386e-05
-0.000183255142142324
-2.62477442693789e-05
-0.000172165442562146
-2.89750545540055e-05
-0.000159913419412238
-3.29564939935786e-05
-0.000146437733085374
-3.74890138537962e-05
-0.000131736113250456
-4.21850220820004e-05
-0.000115851899045118
-4.68317568140954e-05
-9.88607230104779e-05
-5.12711229133441e-05
-8.08832502343473e-05
-5.55292611424803e-05
-6.2172997874848e-05
-5.89925244027631e-05
-4.30618855420336e-05
-6.09136265029847e-05
-2.38139542657371e-05
-6.15236799624472e-05
-4.590579066767e-06
-6.1280132000616e-05
1.45483386031829e-05
-6.06997798696853e-05
3.36577190711802e-05
-6.01439181039739e-05
5.29583773396114e-05
-6.04049803323369e-05
7.29103928213371e-05
-6.21279047523933e-05
9.45155408442354e-05
-6.78616643159121e-05
0.000118541503022305
-7.6442994683127e-05
0.000145529413011056
-8.69469049538013e-05
0.000176173380359153
-0.000100307381047021
0.000211286099569371
-0.000117373618989841
0.000251704715125538
-0.000138677141508296
0.000297589649802625
-0.000162132888768327
0.000347245134276883
-0.000178468776787195
0.000394306153864049
-0.000162600668205151
0.000423895010175467
-6.70932416567966e-05
0.000427239491363578
5.02915869931686e-05
0.000404428988135524
0.000141028160405956
0.000362995279549412
0.000180722871947764
0.000318512763252678
0.000162836366424873
6.78270352752675e-05
0.000347111758409837
3.26990898925562e-05
0.000342445211836344
-5.8322773061541e-06
0.000323244646845156
8.94662633548717e-05
0.000270087621231194
0.000234690523868772
0.000173589618615534
0.000354826108612362
6.0427105457502e-05
0.000341019036959045
-1.99181329418508e-05
0.000198818828892294
-5.04196923176399e-05
5.61027522378382e-05
-5.4762817148509e-05
-1.9785362594983e-06
-5.25321831041961e-05
-1.38271067505453e-05
-4.92889812707214e-05
-1.43360955767086e-05
-4.60643029291179e-05
-1.29042304533449e-05
-4.3017576772704e-05
-1.15521255436148e-05
-4.03000416534678e-05
-1.00773220575941e-05
-3.81845335062866e-05
-7.80982197713987e-06
-3.68887354762e-05
-4.90606176595518e-06
-3.63840011329277e-05
-2.31373377281983e-06
-3.66807741845875e-05
2.66819993030632e-07
-3.78726051805543e-05
3.17857913461254e-06
-4.00333971428636e-05
6.34930236113179e-06
-4.32057086996884e-05
9.71699247072593e-06
-4.73466310949019e-05
1.30093410689488e-05
-5.22781470191556e-05
1.57243355648635e-05
-5.77233973110882e-05
1.74250646910037e-05
-6.35168728311212e-05
1.85877520627394e-05
-6.95063207298637e-05
1.92169603791176e-05
-7.54982627655912e-05
1.90962963744109e-05
-8.12955288789069e-05
1.81524360845564e-05
-8.67417451671494e-05
1.64623016265865e-05
-9.17684998026391e-05
1.43102581573021e-05
-9.64417889380106e-05
1.23198324917829e-05
-0.00010091499241581
1.09929089675455e-05
-0.000105156637276566
9.37201033688141e-06
-0.000109168379459585
7.60121551729309e-06
-0.000113123553935994
6.38873510766139e-06
-0.000117418596142876
6.59004047196111e-06
-0.000122753985830557
9.34889454733363e-06
-0.000130280264465777
1.62264694871104e-05
-0.00014171804425118
2.97267405375965e-05
-0.000158711633548532
5.40204419813458e-05
-0.000181278450871404
8.7687834169562e-05
-0.000202520943587067
8.7492629211524e-05
-0.0002203939601836
7.73013106169285e-05
-0.000235375916599624
6.7718232152679e-05
-0.00024792457004834
5.89816006304643e-05
-0.000258471494115161
5.12447285612553e-05
-0.000267360386944632
4.44954408131802e-05
-0.000274871475004647
3.86451103583873e-05
-0.000281226081229572
3.35817202307732e-05
-0.000286602192223824
2.91910156944296e-05
-0.000291143416997117
2.53716800376187e-05
-0.000294967799224098
2.20376896743104e-05
-0.000298173875630697
1.91192318391172e-05
-0.000300845583152384
1.65608633957037e-05
-0.000303055860117251
1.43196334905693e-05
-0.000304869436585305
1.23630847950782e-05
-0.000306344920027339
1.0667445429156e-05
-0.000307536344103554
9.21600627160926e-06
-0.000308494245710046
7.99759457978805e-06
-0.000309266320495221
7.0051109152078e-06
-0.000309897673447035
6.23403838348205e-06
-0.00031043066719899
5.68089418561137e-06
-0.000310904362241309
5.34161853535114e-06
-0.000311353525479741
5.20982606417651e-06
-0.000311807164290365
5.27479946261064e-06
-0.000312286533606451
5.51915549519852e-06
-0.000312802537327777
5.91595336792757e-06
-0.000313352422497607
6.42497421976523e-06
-0.000313915640943276
6.98774374515121e-06
-0.000314448715856392
7.5205858606856e-06
-0.000314878910234899
7.90484447240123e-06
-0.000315096580208719
7.97251703400763e-06
-0.000314946084077718
7.48180299517833e-06
-0.000314214885317162
6.08134406965014e-06
-0.00031262323083123
3.26594732625824e-06
-0.000309826784290798
-1.75002289581067e-06
-0.000305415016534886
-1.03070476255924e-05
-0.000298913885404187
-2.40958975984068e-05
-0.00028999984212149
-4.59679918370122e-05
-0.000279692325266272
-7.01440968270412e-05
-0.000271232598751694
-5.12214067056031e-05
-0.000264082035936348
-3.48349530303465e-05
-0.000257346553934445
-2.76788775062064e-05
-0.000250450103263153