/*--------------------------------*- C++ -*----------------------------------*\
  =========                 |
  \\      /  F ield         | OpenFOAM: The Open Source CFD Toolbox
   \\    /   O peration     | Website:  https://openfoam.org
    \\  /    A nd           | Version:  7
     \\/     M anipulation  |
\*---------------------------------------------------------------------------*/
FoamFile
{
    version     2.0;
    format      ascii;
    class       volScalarField;
    location    "20000";
    object      Pk;
}
// * * * * * * * * * * * * * * * * * * * * * * * * * * * * * * * * * * * * * //

dimensions      [0 2 -3 0 0 0 0];

internalField   nonuniform List<scalar> 
15600
(
1.34249679716366e-07
1.64739274433042e-07
1.3517090742325e-07
4.99874983439397e-08
4.81197930857919e-09
1.80144141765496e-10
6.70540314061391e-10
3.83748196938361e-10
2.46839713508414e-10
1.51114281583557e-10
7.79236723479152e-11
3.99876607304307e-11
2.17244272864469e-11
1.24667164660098e-11
7.61299666534052e-12
5.22987310693938e-12
4.12991015014153e-12
3.68471474245035e-12
3.72450706987583e-12
4.20879587849537e-12
5.25940399202578e-12
7.1514838601234e-12
1.03107040032248e-11
1.51453983777832e-11
2.20584172935785e-11
3.16498577117713e-11
4.42535110335687e-11
5.96951069294011e-11
7.70206918881913e-11
9.44086263024747e-11
1.09834462265223e-10
1.23051558861349e-10
1.33831606091081e-10
1.39943422707146e-10
1.40768883089946e-10
1.36921753651931e-10
1.31175446447968e-10
1.29126464464973e-10
1.37364264698958e-10
1.65533075114675e-10
3.21650783568694e-10
7.65469347915432e-10
1.44970783506216e-09
2.45160385208689e-09
3.75737500497478e-09
5.37145416711431e-09
7.25591400794359e-09
9.37917293637415e-09
1.16969099901368e-08
1.4169185982247e-08
1.67546748697255e-08
1.94159088976829e-08
2.21175866886529e-08
2.48282042935914e-08
2.75197900407596e-08
3.01686974513943e-08
3.27559894560781e-08
3.52682156220879e-08
3.76981629182371e-08
4.00457556693053e-08
4.23189543103991e-08
4.45346536773143e-08
4.67195255282706e-08
4.89108317705806e-08
5.11572494841213e-08
5.35198026635809e-08
5.60730434659698e-08
5.89065969768594e-08
6.21271110283027e-08
6.58605289110115e-08
7.02543566946779e-08
7.54778416557187e-08
8.17162997061677e-08
8.91611135150315e-08
9.79690312846468e-08
1.08097302547509e-07
1.19285238705954e-07
1.31520160514129e-07
1.39516228832894e-07
1.24125589298141e-07
8.5338201758241e-08
6.96247599588473e-08
6.32417855492986e-08
6.14740024338522e-08
6.21762008418543e-08
6.44043674854571e-08
6.75150989082244e-08
7.10200790564107e-08
7.46197592316685e-08
7.8765105828215e-08
8.41401059188988e-08
8.94196794870508e-08
9.3148021227583e-08
9.41259767735386e-08
9.14765608311417e-08
8.47011503832677e-08
7.37076341284876e-08
5.87836970668487e-08
4.18049541069682e-08
2.57310425584113e-08
1.26996384285062e-08
3.93312754078038e-09
1.38468667277125e-10
1.80660229231321e-09
9.86131734737568e-09
2.73702148086528e-08
6.22686735635305e-08
1.27986089296207e-07
2.48411347429751e-07
4.69968049902901e-07
8.78524877563858e-07
1.63267508829333e-06
2.86172993712564e-06
4.33787966499188e-06
4.13736328777426e-06
2.76730419785619e-06
1.38093137941789e-06
5.93650670078167e-07
2.28734353908785e-07
1.42604578330904e-07
3.07221613807795e-05
3.354254487121e-05
2.67042537759381e-05
1.25627147202358e-05
2.38778271269503e-06
4.92765176731846e-08
5.41012706875317e-08
4.93686735067647e-08
3.53028877658058e-08
2.27388621346229e-08
1.22853129232946e-08
6.49694310860231e-09
3.60728087320794e-09
2.11252697545288e-09
1.31873211468755e-09
9.221551885783e-10
7.39276739798615e-10
6.7058073994673e-10
6.88316211027595e-10
7.87555102972218e-10
9.91484942567884e-10
1.34918013469949e-09
1.93276069512716e-09
2.81472558858437e-09
4.06817521292514e-09
5.79353548132762e-09
8.05330615689142e-09
1.0834297683836e-08
1.40127111464328e-08
1.7352986674182e-08
2.06143656213053e-08
2.37487904775316e-08
2.67062633284888e-08
2.91682920007389e-08
3.10074273951192e-08
3.22657624803167e-08
3.34043753539724e-08
3.55330518870636e-08
4.05666798114264e-08
5.36714461138274e-08
9.2719566025252e-08
1.83962456526085e-07
3.16825945495272e-07
4.9598260079957e-07
7.1710211335437e-07
9.77445270425362e-07
1.27024545376943e-06
1.58977710930521e-06
1.92949084588569e-06
2.28369064733814e-06
2.64688644105213e-06
3.01427705844738e-06
3.38152745871027e-06
3.74491143433763e-06
4.10126070677414e-06
4.44803728264852e-06
4.78336382553294e-06
5.10609935664528e-06
5.41591026373089e-06
5.71335523074059e-06
5.99996520465055e-06
6.27831782193741e-06
6.5520984201547e-06
6.82614824943608e-06
7.10650100921279e-06
7.40041210648137e-06
7.71638611933218e-06
8.06419781301096e-06
8.45488862430057e-06
8.9006882871386e-06
9.41473788534724e-06
1.00104011433108e-05
1.06998475629784e-05
1.14907757472552e-05
1.23794748629618e-05
1.33433090545155e-05
1.43255773736379e-05
1.51889931285016e-05
1.55050639436485e-05
1.4585199289339e-05
1.13821529330712e-05
9.75088867587256e-06
9.08511851132005e-06
8.89877787736043e-06
8.9745622608993e-06
9.19894517034097e-06
9.49393158241076e-06
9.8047994208524e-06
1.00977764979028e-05
1.03875784259818e-05
1.07290023321241e-05
1.09883490689972e-05
1.10181178851912e-05
1.07100093804933e-05
1.00016285654989e-05
8.87535647918432e-06
7.37020544071184e-06
5.57937891427595e-06
3.72062619151144e-06
2.07357189945803e-06
8.42931303370528e-07
1.53796059501358e-07
8.63902265499065e-08
7.18254990662443e-07
2.1882094633018e-06
4.92411630891127e-06
9.88985891180268e-06
1.86336752782464e-05
3.3791341481347e-05
6.01307922442101e-05
0.000105790642789113
0.000183988140668114
0.00030250981320301
0.000437775979495706
0.000442663377972872
0.000349386734763307
0.000217225339750593
0.000115038337439013
5.53956392867595e-05
3.62153889574933e-05
0.000748810638870973
0.000742777220176273
0.000574410462732051
0.000317682215087274
9.13360486859856e-05
7.61225479426044e-06
2.75384113407252e-07
6.38826642470623e-07
5.44953756159068e-07
3.77132030523395e-07
2.16188196191026e-07
1.18931855602357e-07
6.79419030091968e-08
4.08098455788419e-08
2.61435395670316e-08
1.86699915069779e-08
1.5231770669001e-08
1.40680697230912e-08
1.46751111717473e-08
1.70041167752516e-08
2.15629486425306e-08
2.93541675413738e-08
4.17752368430303e-08
6.02934515674768e-08
8.64194642722876e-08
1.22093209248637e-07
1.68681031091838e-07
2.26362643083682e-07
2.93714518319168e-07
3.67954665536754e-07
4.4667178860156e-07
5.29372948399803e-07
6.15779328940113e-07
7.00952438165711e-07
7.83074136412006e-07
8.62711064483072e-07
9.49074293997876e-07
1.06840806778568e-06
1.27650367635729e-06
1.72963262505716e-06
2.68955563010354e-06
4.64162607699139e-06
7.30229993829665e-06
1.05909265490885e-05
1.43960480656662e-05
1.86229361093974e-05
2.31536324950003e-05
2.78931919977745e-05
3.2749621658588e-05
3.76486466327997e-05
4.25244861835204e-05
4.73237505165777e-05
5.20015884070339e-05
5.65225984041372e-05
6.08594825690554e-05
6.49933732399177e-05
6.89136087812032e-05
7.26180800507784e-05
7.61134489461084e-05
7.94154881709755e-05
8.25492847096974e-05
8.55493018649893e-05
8.84591723142085e-05
9.13311830769052e-05
9.42253864631008e-05
9.72082691070556e-05
0.000100350888464287
0.000103726234370894
0.000107405421071122
0.00011145194006479
0.000115912757320693
0.000120805409565171
0.000126098559126479
0.000131676940463938
0.000137309975943794
0.000142668836241398
0.00014716805452465
0.000150137672434172
0.000152052257415069
0.000154610124690106
0.000138068516683174
0.000125420655560171
0.000120025449646395
0.00011820804617227
0.000118411602824298
0.000119567670915904
0.000120950818370235
0.000122042121119732
0.000122380611663904
0.00012167084981012
0.000120242462572387
0.000117213100054299
0.00011153542099695
0.000102613661063684
9.03439560950897e-05
7.50909140835185e-05
5.78122391295191e-05
3.99727728679943e-05
2.35723480343957e-05
1.06826445930557e-05
3.02027086259901e-06
1.86926262161421e-06
8.31415626639895e-06
2.37466204305478e-05
5.04128506868021e-05
9.41425782077838e-05
0.000165905202099703
0.000282134518453079
0.000468581184651528
0.000765845197238397
0.0012321884110843
0.0019368340642333
0.00287380324206658
0.00383970232370187
0.00412447359326295
0.00383813303060406
0.00303001414788095
0.00204585789365085
0.00124770747536872
0.00090938601646503
0.00515011803365483
0.00482663281927424
0.00372719695606198
0.00235318504286359
0.000936061260043609
0.00015506973294414
3.28038976224207e-06
2.32861225474453e-06
2.78785886245801e-06
2.16216956615874e-06
1.34434862577941e-06
7.80785611201833e-07
4.63393011487907e-07
2.87366513931395e-07
1.89736859462612e-07
1.38798149834126e-07
1.15463726296619e-07
1.08671474196308e-07
1.15170151062634e-07
1.35001436917395e-07
1.72165457286062e-07
2.34032613358878e-07
3.30368002543019e-07
4.71822105569999e-07
6.69436507374134e-07
9.3671018688051e-07
1.28441445688107e-06
1.71751232450004e-06
2.23432063694046e-06
2.82960998937434e-06
3.50250391448335e-06
4.25546294610229e-06
5.09729435945548e-06
6.01159998294925e-06
6.98108861946771e-06
8.02197046319661e-06
9.20032960819766e-06
1.07012501931072e-05
1.29828825157665e-05
1.70673251841938e-05
2.37596824092883e-05
3.60555238332188e-05
5.12253890910385e-05
6.79526729398081e-05
8.55179756859428e-05
0.000103370100373511
0.000121039528036437
0.000138229476900782
0.000154702612210102
0.000170316879732212
0.000184968787935689
0.000198603586469399
0.000211192166803924
0.000222732778033553
0.000233242261534561
0.000242755494624477
0.000251321911423119
0.000259004458687098
0.000265877671061976
0.000272026161434009
0.000277542483526006
0.000282524488635104
0.000287071702447296
0.000291280568040019
0.000295238238707455
0.000299014624639906
0.000302652485739504
0.000306155219559212
0.00030947220563171
0.000312481745668349
0.000314973110158938
0.000316633952377817
0.000317049204627387
0.000315724502443382
0.000312253060533002
0.000306755951151085
0.000300421242880871
0.000296983077320371
0.000311933982766656
0.000357540184913327
0.000369913058448499
0.000358908057791361
0.00035228206129935
0.000347209795543584
0.00034332547980134
0.000339248848931976
0.000334056048222204
0.000326763197976795
0.000315762871407133
0.000299162890997386
0.000277629562565505
0.000251791965515791
0.00022136416207855
0.000186798631622747
0.000149386030593279
0.000111315183868768
7.5708696801712e-05
4.59870409083904e-05
2.50856365580282e-05
1.61233538564941e-05
2.30936526518611e-05
5.03937317956131e-05
0.000103279325231617
0.000188870274586833
0.000317685584969878
0.00050942604666814
0.00079256312881436
0.00120621604638299
0.00180229380226384
0.00263803422123552
0.00375508598658638
0.00511585262235529
0.00651042700647518
0.00761125709620497
0.00841343496961331
0.00951285857593914
0.00993586166514731
0.00892921558050693
0.00707830397977566
0.00601828388772444
0.0137268132076971
0.0126537834476571
0.0101718972861952
0.00746275432367596
0.00403106094767732
0.00112571856978907
7.70215781496754e-05
3.02090928257596e-06
6.84314157970647e-06
6.54660653759323e-06
4.6051677547084e-06
2.89688834170331e-06
1.81419007542549e-06
1.17271792296473e-06
8.02445831700571e-07
6.0322970981855e-07
5.1248325721159e-07
4.9151640408608e-07
5.28420069745683e-07
6.25113840076838e-07
7.99170578450768e-07
1.08086830891359e-06
1.50827232510685e-06
2.12392839606907e-06
2.97081754828783e-06
4.09916651684503e-06
5.55267074967473e-06
7.36164282244937e-06
9.54723974499397e-06
1.21347313374535e-05
1.51628750574486e-05
1.865167252985e-05
2.26712311940324e-05
2.72207782199988e-05
3.22681905217497e-05
3.78311364938227e-05
4.40901427360394e-05
5.15712554821719e-05
6.15596734490643e-05
7.58580082470356e-05
9.3987704793019e-05
0.000123982901580036
0.000154990285616224
0.000183360218464196
0.000208216753367072
0.000229463918055661
0.00024719634104095
0.000261805203558689
0.000273616704944735
0.000283006139028719
0.000290278212476438
0.000295722296620256
0.00029958203259927
0.000302077304817697
0.00030339869472944
0.000303715458108823
0.000303175156198956
0.000301906043600666
0.000300016721593507
0.000297595856276881
0.000294710685004075
0.000291404919152153
0.000287695743576748
0.000283570107927338
0.000278980379450314
0.000273839714673189
0.000268017993215872
0.000261339644007756
0.00025358576877365
0.000244504279869384
0.000233834668048152
0.000221359855427108
0.000206996401658335
0.000190944883785169
0.00017402199169429
0.000158244238534411
0.000147362837942271
0.000148633697016779
0.000180186761046423
0.000256752984315657
0.000313872351812633
0.000322717005226985
0.000321542046790234
0.000312774452421252
0.000300453011482024
0.000285241447809056
0.000267677272327576
0.000247413424107177
0.000222969079696086
0.000192706435514816
0.000159051687610623
0.000126379190269918
9.68164764494862e-05
7.22815067196151e-05
5.46654392877048e-05
4.59503033631371e-05
4.77136908456275e-05
5.98450673842875e-05
8.19932290126475e-05
0.000117511176729301
0.000172020849192458
0.000252970291137673
0.000371066857883119
0.000539244187058073
0.00077633372467277
0.00110343497937357
0.00153648557182389
0.00209679340871186
0.0028026543583292
0.00363609000733678
0.0045144845061528
0.00522591165586286
0.00551285416544086
0.00527061007324263
0.00546151369364468
0.0076985897295613
0.0114503068058001
0.0143807246063225
0.0150356028171098
0.0149922380009155
0.0187117609156699
0.017407423165736
0.0147699006181169
0.0126701153896055
0.009180221196693
0.00400886841392222
0.000626754583044888
1.53651386735813e-05
7.52076135749626e-06
1.16438261334486e-05
1.01778033521223e-05
7.28627561052629e-06
4.9500314893918e-06
3.38764426385278e-06
2.421841041073e-06
1.87816320231637e-06
1.63144732673792e-06
1.59288538777568e-06
1.73176079598739e-06
2.05883821106629e-06
2.62481955222315e-06
3.5113086354682e-06
4.81392107098579e-06
6.63881979451877e-06
9.08231151436872e-06
1.22475549799251e-05
1.62226580331471e-05
2.1074956613923e-05
2.68755620687076e-05
3.3723925392192e-05
4.17186678692172e-05
5.08488505048737e-05
6.1289043367074e-05
7.31107092152092e-05
8.62837748539232e-05
0.000100795196999251
0.00011675959095209
0.000134560585966068
0.000154858227902601
0.000176852750925698
0.000194820101632221
0.00021955198857566
0.000235717122442711
0.000243193261521515
0.000243843923945116
0.000240170700713101
0.000233696496368826
0.000225691195011796
0.000216860665987146
0.000207707988108687
0.000198509048274696
0.000189443702561528
0.000180608439417008
0.000172058735235776
0.000163818127693573
0.000155891278945837
0.000148267978692669
0.000140926979587676
0.000133837338633195
0.000126959394991465
0.000120245135078898
0.000113638495576657
0.000107075749413353
0.000100486341632971
9.37945313712136e-05
8.69224655723853e-05
7.97955349987129e-05
7.23511367374326e-05
6.45521784608293e-05
5.64065648208241e-05
4.79937970167819e-05
3.95001041200333e-05
3.12572458488715e-05
2.37782012466701e-05
1.78206363261971e-05
1.44645665924555e-05
1.51021871159342e-05
2.26485789021333e-05
4.58826344612027e-05
9.49003500164608e-05
0.000136259317661575
0.000144888224936737
0.000143480619489941
0.000133908034631352
0.000120743809741737
0.000105441497326656
8.92664926599398e-05
7.2702547385366e-05
5.58364670562786e-05
3.96425018828646e-05
2.81393747340156e-05
2.516258182593e-05
3.23740707324283e-05
5.07839535276237e-05
8.08314660748111e-05
0.000122266249786378
0.000173290351842772
0.000229333458655721
0.000288325347700697
0.000355426735337948
0.000437041150704887
0.000541130385776781
0.00067983378865876
0.000865687525335183
0.00111732608914502
0.00144545951001391
0.00184206106813737
0.00230164310346689
0.00281480492793889
0.00333145109211563
0.00375155653757917
0.00388502383403375
0.00357056586212442
0.00275386583530847
0.00201076042618982
0.00294439479309582
0.00652015397153917
0.0117954508370151
0.0163375368388368
0.0189693161280585
0.0175329781571077
0.0168071898437646
0.0149038114021038
0.0143964383636246
0.013521794048
0.00854070681820867
0.00250134058581052
0.000183928202979987
3.11701868163993e-06
1.02360850306401e-05
1.4436833945341e-05
1.30676298854523e-05
1.01488461144354e-05
7.55601827120824e-06
5.72044593998746e-06
4.60396420511509e-06
4.09444386318526e-06
4.06070176309503e-06
4.44451549874318e-06
5.27748485259786e-06
6.65928936731273e-06
8.73636735806594e-06
1.16585514141392e-05
1.55800302336336e-05
2.05937513452798e-05
2.67696727840434e-05
3.41434746618092e-05
4.2735073112126e-05
5.26157709775805e-05
6.39285501644577e-05
7.67718176923454e-05
9.10087755488246e-05
0.000106904559133607
0.000124696784231269
0.000144443678661299
0.000166042379707277
0.000189117783733328
0.000212651703877263
0.000234300101843445
0.000248207689656275
0.000243355282991201
0.000232554599661644
0.00021310446583452
0.000190462237386518
0.000167310376363095
0.000145913865196939
0.000126794033752429
0.000110128748055597
9.57064697455599e-05
8.32698318843938e-05
7.25287111192581e-05
6.32257245194948e-05
5.51344752818046e-05
4.80648545527992e-05
4.18569563150437e-05
3.63769476073293e-05
3.15121791828666e-05
2.71675823130917e-05
2.32629004484372e-05
1.97309403541109e-05
1.65167047388553e-05
1.35773343135808e-05
1.08828130123268e-05
8.4174091724767e-06
6.18180659056971e-06
4.19592715696719e-06
2.5022774060339e-06
1.16942304800657e-06
2.94594881361932e-07
3.40916133262832e-09
4.43073613889022e-07
1.76269060845238e-06
4.07095772075936e-06
7.36423146749887e-06
1.14113676452531e-05
1.5585099344364e-05
1.91003334169251e-05
2.20294933907136e-05
2.62837126569033e-05
3.63052683316416e-05
4.61224686141337e-05
4.68320993459007e-05
4.37860474929434e-05
3.68639873878984e-05
2.88590707887529e-05
2.09967051303289e-05
1.45515987889325e-05
1.05365605836302e-05
1.03163971519857e-05
1.67713367242414e-05
3.39615102089915e-05
6.36805856305446e-05
0.000106534438471003
0.000162473617857693
0.000230720088126323
0.000309381431482467
0.000394340610928814
0.000478272843006074
0.000558658487072456
0.00064224062100188
0.00073590465820309
0.00084763901299976
0.000989805433798734
0.00117407473356355
0.00141788811800538
0.0017290117865153
0.00209272930971469
0.00249640609772621
0.00293184244639919
0.00335917350924805
0.00370071676510722
0.00379539211604587
0.00347736171285182
0.00259066696776156
0.00122744897325263
0.000831012528551487
0.00260581408697217
0.00673695642405885
0.0121322975814453
0.0163522108077698
0.0137994720301084
0.0138201512997639
0.0127269668231452
0.0131371819953624
0.0151938877190489
0.0128983762182907
0.00599563820561605
0.000979685025120482
4.94018830850736e-05
1.16935529662081e-06
1.05439309167394e-05
1.5867176264988e-05
1.56581467426558e-05
1.33233897087492e-05
1.09380662800397e-05
9.23320273580186e-06
8.43125342814741e-06
8.47307218560676e-06
9.28605500991255e-06
1.09293808651394e-05
1.35244196037811e-05
1.72202359260316e-05
2.21130842360099e-05
2.826926406331e-05
3.55995635516794e-05
4.3959843061773e-05
5.32100313058036e-05
6.32997896869377e-05
7.43696852762222e-05
8.67113117815642e-05
0.000100526088799615
0.000115647900728367
0.00013241172460189
0.000151221718435646
0.000172120269566135
0.00019462669384492
0.000217368759557541
0.000237314494019512
0.000249281800674382
0.000245086333947528
0.000214405265137971
0.000175299996329664
0.000138783396708885
0.000107944465662508
8.26778069408257e-05
6.27873188698025e-05
4.72345462907323e-05
3.5176512336662e-05
2.58424969420804e-05
1.86424170628552e-05
1.3114110026752e-05
8.90749223720319e-06
5.75519814133622e-06
3.45334891867108e-06
1.84576552375685e-06
8.12920180715018e-07
2.64129138382271e-07
1.32305864923742e-07
3.70645282930714e-07
9.50760184019457e-07
1.86190194159869e-06
3.11095609585256e-06
4.72290261590729e-06
6.74138651958476e-06
9.22901725624222e-06
1.22667653544239e-05
1.59516270019742e-05
2.03911498977971e-05
2.56926923079896e-05
3.19442142352445e-05
3.91819247614973e-05
4.73362991271458e-05
5.61494417645512e-05
6.50701874568884e-05
7.3099822169502e-05
7.8540106846154e-05
7.9504173143045e-05
7.47769989353522e-05
6.21398665822989e-05
4.06415113506137e-05
2.39766401565227e-05
1.67417878667691e-05
1.2074028113043e-05
8.33389809043728e-06
6.24642599431416e-06
6.62512024842975e-06
1.05810845068595e-05
1.9455098849769e-05
3.54219126511576e-05
6.25099647076932e-05
0.000104457664382294
0.000161588687201453
0.000233905901821208
0.000320727175328591
0.000420506349330372
0.000530238057547073
0.000644128712287606
0.00075280547018825
0.000853442951691061
0.0009541523806322
0.00106270198549271
0.0011879462764294
0.00134356719096734
0.00154281754770605
0.00180488020171297
0.0021417268395133
0.00254229092689524
0.00299511134083684
0.00349870875204861
0.0040221901295627
0.00449060507939795
0.00472220929222561
0.00448472824293643
0.00350789767648963
0.00162842110777866
0.00037996650243313
0.000924524382472016
0.00344112213173697
0.00769628034934861
0.0118321303759532
0.0101863786264499
0.010662995886165
0.0101881760228979
0.010850113856653
0.0145332610813796
0.0156370324105189
0.0102447762939206
0.0029691608521989
0.000324916347607691
1.79763011846286e-05
8.69882017194768e-07
1.05049838242426e-05
1.70151260123055e-05
1.8159645139643e-05
1.68514113090915e-05
1.52041812188788e-05
1.43528125524289e-05
1.46049840643843e-05
1.59525511417666e-05
1.8475847839262e-05
2.22228486963948e-05
2.71931998359668e-05
3.3249406468351e-05
4.02189488343413e-05
4.77579861859657e-05
5.55524472072828e-05
6.34755034677149e-05
7.16905070843298e-05
8.0661177697402e-05
9.09632076111184e-05
0.000102936312018575
0.000116364788401803
0.000131435735450515
0.000148426964546364
0.000167038709517873
0.000186143355639519
0.0002033586282415
0.000214436025986175
0.000213826713904457
0.000195477641520153
0.000154242362959669
0.000110698364594722
7.76281470237778e-05
5.34028742042481e-05
3.58688393390695e-05
2.36686617157978e-05
1.53269216878459e-05
9.86884527885902e-06
6.53146788341095e-06
4.78624986633549e-06
4.24498897431848e-06
4.6310036895183e-06
5.74282576832452e-06
7.43525091087227e-06
9.6040397640844e-06
1.2176774086781e-05
1.51064321643178e-05
1.83675522309292e-05
2.19538776401119e-05
2.58771841588924e-05
3.0166781502069e-05
3.486940326674e-05
4.00489642526234e-05
4.57856060338146e-05
5.21735755450179e-05
5.93167652634125e-05
6.73209189649512e-05
7.62805793047804e-05
8.62583969070238e-05
9.72535259353555e-05
0.000109154969132984
0.000121671585880039
0.000134235064186164
0.00014589294402514
0.000155162844356664
0.000159722662185795
0.000156997579199125
0.000145052406840575
0.000119071064483147
7.35863910962917e-05
3.60099790718019e-05
2.1305796772119e-05
1.46384986717623e-05
1.34336530296786e-05
1.65310153517879e-05
2.43346387298252e-05
3.77626800440488e-05
5.83916480412059e-05
8.89700325184828e-05
0.000134351905484807
0.000198075965140149
0.000279586670718389
0.000378599374047513
0.000494032460856461
0.000623765880765701
0.000763876933779033
0.000907150654318209
0.00104249000069694
0.00116683733147644
0.00128970636885176
0.00142010767937742
0.00156864158945145
0.00175140623824558
0.001985109127738
0.00229277689047172
0.00269330879391949
0.00318252771390506
0.00375152416507431
0.00440244740144333
0.00510303921481747
0.00575906885027258
0.00613278075310816
0.00590847372232008
0.00472955518410445
0.00234064400245964
0.00047928315657912
0.000323419496242345
0.00181279727940855
0.00480778827381436
0.00814986575720638
0.0074824096193429
0.00811302668531061
0.00801415222454502
0.00870399987345628
0.0126657964968368
0.0164650254514787
0.014072681200067
0.00620023491152158
0.00108155720424007
0.000130618470212024
1.00140248834944e-05
1.17167891481782e-06
1.09037684612289e-05
1.79592017371157e-05
2.02740980138732e-05
2.01893373501036e-05
1.99768769578451e-05
2.06588469267416e-05
2.24613733757733e-05
2.54938271366251e-05
2.96427607371476e-05
3.46546862288207e-05
4.01203567808358e-05
4.57186281183985e-05
5.11084532634781e-05
5.61359794575488e-05
6.09901077638196e-05
6.61957743501564e-05
7.24709853226178e-05
8.04642884194229e-05
9.04436367138374e-05
0.000102015888600779
0.000115050712176014
0.000129498300388556
0.000144628607427704
0.000158807235326937
0.000169227703272935
0.000171805560632606
0.000162705560279548
0.000139704052238125
0.000102125334628882
6.75505895006646e-05
4.4609031895964e-05
2.98710447226942e-05
2.06697924430526e-05
1.56926161409796e-05
1.35825823654766e-05
1.3567849929056e-05
1.50346493659333e-05
1.75919394201911e-05
2.09535710701052e-05
2.49273010852293e-05
2.93776535094064e-05
3.42142359265213e-05
3.93786921832282e-05
4.48388803926917e-05
5.05840848867953e-05
5.66226181210602e-05
6.29801857374616e-05
6.96990827939306e-05
7.683761255958e-05
8.44695483893405e-05
9.26828998787965e-05
0.000101577194519761
0.000111259019603016
0.00012183410886289
0.000133395174170813
0.000146003268550832
0.000159660434948888
0.000174270652675976
0.000189585818193702
0.000205129310388862
0.00022009528261903
0.000233245458520841
0.00024277285240944
0.0002459380781348
0.000239631099888118
0.000221290715053544
0.00018447669403917
0.000120433421525442
6.60133384826269e-05
4.41435045441883e-05
3.49838479984697e-05
3.55443026999844e-05
4.30219666862154e-05
5.74458292620562e-05
7.95420309719655e-05
0.000111089578314201
0.00015531114632563
0.000217737759349417
0.000301852423023157
0.000406595040323458
0.000531554299387261
0.00067534669396271
0.000835343252869448
0.00100676330201627
0.00118110592886634
0.00134581361364417
0.00149773544566464
0.00164787463350369
0.00180670452674776
0.00198723481135289
0.0022087437036009
0.00249243917342225
0.00286617294623429
0.00335623692345337
0.00396598552720118
0.00468853473552893
0.00552499498512143
0.00643175086421135
0.00727838553500198
0.00774899560410628
0.00744745178072454
0.00597014827136023
0.00307570939527203
0.000723480045502251
0.000130513529905313
0.00103931526427519
0.00316922261402828
0.00571472154103508
0.00563388394516303
0.00624926298535205
0.00633533045727155
0.00703572731899635
0.0105215200277247
0.0158088745398682
0.0167488241070143
0.0101039881879999
0.00255398702799332
0.000411567076771389
6.97156686802985e-05
5.11489253249068e-06
1.98035111109193e-06
1.13186775761851e-05
1.81005089884465e-05
2.10117885663152e-05
2.23331677676154e-05
2.37315102767321e-05
2.58056005282597e-05
2.87484112803249e-05
3.23257536848561e-05
3.61254087312224e-05
3.96691548282675e-05
4.27607064291246e-05
4.53489067720634e-05
4.75914869339717e-05
4.99424478718479e-05
5.30558030267384e-05
5.76090862109276e-05
6.41001574847837e-05
7.26373754245075e-05
8.2680492418367e-05
9.38161506686847e-05
0.000105690337526265
0.000117294393338779
0.000126845950558791
0.00013177376380433
0.000129057023877437
0.000117044289940028
9.64337756942746e-05
6.8643068588557e-05
4.58350784258518e-05
3.27351156767914e-05
2.63164733319972e-05
2.39858499994411e-05
2.48356737556329e-05
2.77036580859639e-05
3.20479377530084e-05
3.73864734436948e-05
4.34459910188768e-05
5.00199868600038e-05
5.69819412107521e-05
6.42463083553655e-05
7.17643674592934e-05
7.95126418540144e-05
8.74899193174877e-05
9.5713509284951e-05
0.000104217799791718
0.000113052901408594
0.000122283846978075
0.000131989641171047
0.000142262147398866
0.000153203808316259
0.000164923159994303
0.000177528356318088
0.000191116396126838
0.00020575767075411
0.000221473417283304
0.000238204029580647
0.000255765569890208
0.000273791915171625
0.000291655795318898
0.000308366771678929
0.000322469857918296
0.00033190414774967
0.000333595462608319
0.000323958710216576
0.000299774648509881
0.00025369872965734
0.000175014292226705
0.000106845788544134
7.80830861949045e-05
6.60337891066635e-05
6.77265525254777e-05
7.89644227319049e-05
9.94478467191137e-05
0.000129724867915334
0.000171773046048946
0.000229246241266449
0.000308251966369186
0.000412302661466688
0.00054006644416371
0.000691082722028312
0.00086369896460983
0.00105478896536305
0.0012587284662986
0.00146583823445387
0.00166236938447439
0.0018452814994413
0.00202712742820246
0.00222001209946217
0.00243980748138637
0.00270950608749832
0.00305532223330664
0.00351021710690795
0.00410745796290378
0.00485767651362643
0.00575480743559385
0.00679395693450873
0.00791152157858186
0.00892844212577806
0.0094355951103975
0.00897041991950609
0.0071257520514243
0.0037459828254875
0.00098642090334194
8.95510059097127e-05
0.000656013283300735
0.00225145212621424
0.00419822332202132
0.0044022804920912
0.00493865840373387
0.00509350208658253
0.00581698372667803
0.00860640640477385
0.0142908103700185
0.0180707684649133
0.0139516952933277
0.0048602012556363
0.000943022248852357
0.000199451527755541
3.91847079135167e-05
1.67823935980615e-06
2.92598766634542e-06
1.092547661908e-05
1.65094055899637e-05
1.96821599781427e-05
2.1958626498114e-05
2.41805495928226e-05
2.66670881027926e-05
2.92063076300425e-05
3.14356522202927e-05
3.30362856345158e-05
3.40650858243061e-05
3.47500657684111e-05
3.54101129954634e-05
3.65232244210806e-05
3.86436194620374e-05
4.22818656671911e-05
4.77753345281992e-05
5.51405813168232e-05
6.380018218998e-05
7.316885374957e-05
8.27024679744771e-05
9.13163860050936e-05
9.73926183903794e-05
9.89703660264168e-05
9.4274447794938e-05
8.32858872651789e-05
6.81447117391346e-05
5.09164125005014e-05
3.86640042670962e-05
3.37081248165214e-05
3.40880525006991e-05
3.73629524750205e-05
4.30305919615764e-05
5.00743553961142e-05
5.81396428982439e-05
6.68376435051895e-05
7.59841104837266e-05
8.5429741215711e-05
9.50970302829631e-05
0.000104937507755601
0.000114934168177639
0.00012509044945931
0.000135429494168581
0.000145990921604284
0.000156829931242805
0.000168015891800988
0.000179631296351979
0.000191770283226076
0.000204536953528881
0.000218042124795014
0.000232397170338717
0.000247705832159329
0.00026405116741172
0.000281477659190671
0.000299966011175622
0.000319398551594004
0.000339512905109986
0.000359841733689922
0.000379631797469482
0.000397742067018941
0.000412525235117072
0.00042169825762249
0.000421884425471587
0.000409045122781549
0.00037930048616675
0.000324967286240068
0.000234612173846075
0.000155206467547943
0.000119878863605508
0.000104702026437274
0.000107063161136286
0.000121628848011209
0.000147826551936251
0.000186051105438363
0.000238487272365334
0.000309194895930064
0.000404765417470212
0.000528773834066248
0.000679764230825199
0.000857256226236446
0.00105932858367398
0.0012823469709993
0.00151984728268488