/*--------------------------------*- C++ -*----------------------------------*\
  =========                 |
  \\      /  F ield         | OpenFOAM: The Open Source CFD Toolbox
   \\    /   O peration     | Website:  https://openfoam.org
    \\  /    A nd           | Version:  7
     \\/     M anipulation  |
\*---------------------------------------------------------------------------*/
FoamFile
{
    version     2.0;
    format      ascii;
    class       volVectorField;
    location    "20000";
    object      U;
}
// * * * * * * * * * * * * * * * * * * * * * * * * * * * * * * * * * * * * * //

dimensions      [0 1 -1 0 0 0 0];

internalField   nonuniform List<vector> 
15600
(
(0.0282218430857322 -7.6599357753917e-06 0)
(0.0315366140233384 -9.28198397697701e-05 0)
(0.031771205440802 -0.00129165825593733 -1.06042280774141e-20)
(0.02148197766093 -0.0024378686117534 -4.12957298903445e-20)
(0.00655259395752402 -0.00161464666764884 1.09534682574338e-22)
(-0.00521756085725464 0.00130608481588317 -2.57472145474259e-22)
(-0.00935265449117343 0.00399189272708134 1.31975198959672e-18)
(-0.0086871482540961 0.00478532447287103 7.18237511108576e-19)
(-0.00730648665966446 0.00469703164186239 0)
(-0.00626595886710118 0.00444599568876461 -1.00004572056416e-21)
(-0.00531453292869425 0.00404240872186022 -5.92873793482254e-22)
(-0.00457885614359778 0.00364771953868703 5.65618391308593e-22)
(-0.00396695257454552 0.00325025893851378 9.17190516580931e-19)
(-0.00345629289905764 0.00286637921869362 9.61788752887805e-19)
(-0.00303597491046871 0.00251327099226093 -1.01050517407541e-18)
(-0.00273735258819042 0.00223957792641786 1.0614524161753e-18)
(-0.00253370504397408 0.00204829581925307 -1.11053181001207e-18)
(-0.00239711472118449 0.00191873033294401 -1.13342497552963e-21)
(-0.00233377523598216 0.00185265594207233 -6.48969984283953e-24)
(-0.00234470549445669 0.00184836368162698 1.24483912470492e-18)
(-0.00243123569859676 0.00190509777181307 -5.47854316352463e-24)
(-0.00259446149069796 0.00202184888460673 -1.32476764292634e-18)
(-0.00282720182728066 0.00219171270308082 1.36490470334194e-18)
(-0.00309697919659549 0.00238723469336353 0)
(-0.00338147150135351 0.00257752965989715 -1.44545565952125e-18)
(-0.00367691275084299 0.00274971478289996 -1.49443947700582e-18)
(-0.00396513023241693 0.0028854230366226 3.00287530673059e-21)
(-0.00422573523035219 0.00296579592182619 -1.59671294259752e-18)
(-0.00443678046470199 0.00297337001976551 1.65909847334298e-18)
(-0.00457671785601765 0.00289478346646571 -6.71694908413347e-21)
(-0.00463469128885652 0.00272825065604284 6.97898967638373e-21)
(-0.00464016624467318 0.00250089935676119 -3.6157320261356e-21)
(-0.00460163126036475 0.00223872622578144 1.92349732103158e-18)
(-0.00449418024855878 0.00194412469053201 0)
(-0.0043234594916333 0.00163042447043128 0)
(-0.00410738976283045 0.00131430849747156 -2.09697492265172e-18)
(-0.00388312007498947 0.00101362180390377 1.06987438062708e-18)
(-0.00372186326327613 0.000744549814315277 1.08602964669685e-18)
(-0.00368287888219655 0.000501534140561118 2.17982361318255e-16)
(-0.00374303066612847 0.000261193081358881 2.2350618353223e-16)
(-0.00502924880192204 9.51429001927407e-05 -3.39576059751869e-20)
(-0.00724328060532259 4.01788511221602e-05 0)
(-0.00911706385263148 4.53318555894886e-05 0)
(-0.0109572890252239 4.53247465186124e-05 -4.18764224211586e-21)
(-0.0126312188753593 4.63766912183092e-05 4.17408033192299e-21)
(-0.0141731610323933 4.55786808380789e-05 0)
(-0.0155636899101865 4.45348436202347e-05 -2.49496595654566e-16)
(-0.0168182739847848 4.28499853959754e-05 -2.53656718527616e-16)
(-0.0179436230292579 4.0917723267908e-05 2.12783438331676e-21)
(-0.0189527764535981 3.87051021875193e-05 0)
(-0.0198563091943698 3.63157903945331e-05 -2.20947474823203e-21)
(-0.0206650383905394 3.37598017510013e-05 2.20612051852213e-21)
(-0.0213883636960955 3.10703741232962e-05 -2.58096546269905e-16)
(-0.0220349151151078 2.82607950954226e-05 -2.63765913256224e-16)
(-0.022612378313522 2.53491813672456e-05 0)
(-0.0231277820800336 2.23507711356613e-05 0)
(-0.023587621014002 1.92833572410674e-05 -6.12827575018818e-22)
(-0.0239980631425774 1.61660901717252e-05 6.12356620664912e-22)
(-0.0243651154065672 1.30206078138312e-05 0)
(-0.024694793332962 9.87068053847864e-06 0)
(-0.0249932666058566 6.74202585577819e-06 0)
(-0.0252669843183524 3.6614610405584e-06 0)
(-0.0255227721645701 6.55958555925665e-07 0)
(-0.0257679026345138 -2.24852839994395e-06 0)
(-0.0260101323821773 -5.02862257101658e-06 0)
(-0.0262577018023801 -7.66523018160997e-06 0)
(-0.0265192901354286 -1.01455759189565e-05 0)
(-0.0268039099979774 -1.24656542671585e-05 0)
(-0.0271207032742198 -1.46341011217784e-05 3.12447208466758e-21)
(-0.0274785965149491 -1.66766830929286e-05 -6.30972892481191e-21)
(-0.0278858025205397 -1.86378782105891e-05 3.18488194673934e-21)
(-0.0283487556684878 -2.0602397596255e-05 0)
(-0.0288698802774849 -2.27402767458996e-05 3.85617685039641e-16)
(-0.0294465044239275 -2.51813980222567e-05 7.83739238599055e-16)
(-0.0300666294811193 -2.81386397169541e-05 3.98173234851944e-16)
(-0.0306769316142048 -3.33448128122246e-05 7.23043597368027e-21)
(-0.0311943777896186 -4.13415308777357e-05 -1.46283786804751e-20)
(-0.0316313118863372 -4.38361623945166e-05 1.50001987672257e-20)
(-0.0313728034934451 -6.73757139140104e-05 -7.59803176272004e-21)
(-0.0284531170419151 -0.000413717620376009 4.58896164685898e-16)
(-0.0246715850576983 -0.00163211706764402 4.63014849770957e-16)
(-0.0229948467470925 -0.00289166767934846 -1.06123229280057e-18)
(-0.0219716015267209 -0.00407225881922487 -8.39425940981822e-21)
(-0.0213857506067367 -0.00522312290524081 -2.11844575484819e-18)
(-0.0210169237202603 -0.00634422269044692 2.10833379244959e-18)
(-0.020768796879537 -0.00743393642504534 -4.20611990733978e-18)
(-0.0205661264517009 -0.00847805603741472 4.1615743933313e-18)
(-0.0203524572787505 -0.00945777046913494 -4.10871207225135e-18)
(-0.0201090008114389 -0.0103614668991419 4.05258959891308e-18)
(-0.0199157059908864 -0.011201221370721 4.00588372282956e-18)
(-0.0197858712903793 -0.0119231708472358 -1.58938673688202e-22)
(-0.0195764175637201 -0.0124410095615213 7.57715798172628e-21)
(-0.0191995479450814 -0.0127052476125014 -3.90380794216356e-18)
(-0.018602377803378 -0.0126831021044508 -3.8959874086613e-18)
(-0.0177483688577031 -0.0123546060240134 3.90071503724381e-18)
(-0.0166168578856329 -0.0117119806077511 0)
(-0.0151741016076687 -0.0107481077873656 3.93265968357947e-18)
(-0.0133820330813708 -0.00947512695906518 1.60250968652989e-15)
(-0.0112720857859238 -0.00797777605966352 1.58463030853383e-15)
(-0.00895150040316701 -0.0063303697882091 -7.94212030305759e-18)
(-0.0064961905888787 -0.00457045253911445 0)
(-0.00393722795924263 -0.00270738064682053 -3.90529651910532e-18)
(-0.0013026099744009 -0.00074463327552144 -3.85589227890094e-18)
(0.00145699048269345 0.00136393207663562 3.76098876443095e-18)
(0.00437073747254864 0.00366036926799559 0)
(0.00765433765537526 0.00630604596672789 -8.49883705922203e-22)
(0.0116501621713626 0.00948404419749726 8.18455888096124e-22)
(0.0165507721050113 0.0131980855383458 -3.1604100433681e-18)
(0.0225772555549287 0.0174157126109645 -5.13165760212596e-21)
(0.0301290484950424 0.0221198353295919 0)
(0.0396621061680567 0.0271494519771523 -2.4083778278811e-18)
(0.0518944771168038 0.0321372705351348 0)
(0.0666572117236746 0.0357578841530972 -2.92289252517525e-22)
(0.0828814777403624 0.0358501062743886 -1.76558258110931e-18)
(0.090956742152818 0.0284387926773051 2.50686774222413e-21)
(0.0833407871934227 0.0168507062403072 -1.5264764060727e-19)
(0.0661369384137956 0.00743591621356049 -1.23228682915586e-19)
(0.0487428060315103 0.00217273116177154 -5.60703633805966e-20)
(0.0330427910722805 0.000129930006750599 4.25414108223635e-24)
(0.0274646457986887 -5.70567409372384e-05 -1.2261439910526e-23)
(0.0913431925471755 -0.000115986848969996 -4.8081077074709e-24)
(0.0979547883889609 -0.000436475071986762 1.43426559369378e-23)
(0.0978975749522795 -0.00335268421752113 -1.96643445863805e-22)
(0.0733792981109365 -0.00649428683236418 5.96643079099397e-20)
(0.0327014550762717 -0.00490361941327059 0)
(-0.00448957528047255 0.00271822417357293 -4.05530854287603e-19)
(-0.0219341711961119 0.0106173468577822 -2.00105884477076e-18)
(-0.0231548202539831 0.0133688032653465 -1.09490309478785e-18)
(-0.0201626874380463 0.0133819053949782 2.7243594780129e-22)
(-0.017501816309239 0.0127901687922705 -2.42817258704983e-18)
(-0.0150232814011029 0.0117296721414102 -2.54197742420382e-21)
(-0.0130538880407466 0.0106506173454384 1.33849716940081e-18)
(-0.0114000189566061 0.0095398596078535 0)
(-0.0100139277896284 0.00845402121327227 -1.4745312458491e-18)
(-0.00887622260961471 0.00745065379629833 1.33995476689143e-21)
(-0.00806330188769652 0.00666735299164829 -6.99883536829598e-22)
(-0.00751358451278732 0.00612002179310727 -1.70145676701348e-18)
(-0.00715823967548527 0.00575579896305794 0)
(-0.0070096736621739 0.00557873802157895 -1.83852029135692e-18)
(-0.00707189050584006 0.0055837516329401 -1.90798897014949e-18)
(-0.00734709658709994 0.00576769566101826 1.91444909690201e-21)
(-0.00783490828855458 0.00612531030447261 2.02248267725832e-18)
(-0.00851090177811016 0.00663305660899753 4.17885944217188e-21)
(-0.00929060176363717 0.00721315068644032 -4.15561052792743e-21)
(-0.0101146207374554 0.00777788736610991 4.38159407587608e-18)
(-0.0109684335021548 0.0082864567127486 -2.2549657312998e-18)
(-0.0118058858906701 0.00868559652039413 -2.32481124460114e-18)
(-0.0125749599541073 0.00892149303327807 0)
(-0.0132215055982044 0.00894519676180304 0)
(-0.0136954696185754 0.00872105985326518 0)
(-0.013976731003958 0.00824824062850966 0)
(-0.0141308832673487 0.00759808303626812 -2.77368425353758e-18)
(-0.0141766145229786 0.00683902282502126 -2.85897145019484e-18)
(-0.014058595418827 0.00598195698758541 2.95438801250114e-18)
(-0.0137905565331426 0.00506551619984505 1.18760664352341e-20)
(-0.0134231717627506 0.00413813454875347 3.11106287745225e-18)
(-0.013063554006622 0.00325341303769268 1.57444023608764e-18)
(-0.0129059290845954 0.00245603441755632 0)
(-0.0131411469581826 0.00173199040884916 -3.27389401373907e-16)
(-0.0140428035620765 0.00110823553836897 -3.22605948903183e-16)
(-0.0179803088011967 0.000733858670450227 3.67557745907041e-20)
(-0.0240167715993523 0.000585623426861173 6.01606013301775e-21)
(-0.0292114820265983 0.000554295959642718 0)
(-0.0341656747062181 0.000513924624426322 0)
(-0.0386171189962191 0.000472236380466651 0)
(-0.0426542579402446 0.000427849571622362 0)
(-0.0462576323222244 0.000385605191909064 3.43143586907585e-16)
(-0.0494767607218871 0.00034590895999421 3.40182667320998e-16)
(-0.052341323233545 0.000309777131869295 0)
(-0.0548911222022183 0.00027707173329859 -2.92218709393236e-21)
(-0.0571588028999192 0.000247697159944847 2.90504383608498e-21)
(-0.0591755773273994 0.000221320923764934 2.98265603113934e-21)
(-0.0609683176585965 0.000197651364759252 3.43874512921635e-16)
(-0.0625611744924423 0.00017639426549405 3.46827698287031e-16)
(-0.0639755208199712 0.000157311828132055 0)
(-0.06523075722712 0.000140213826967555 0)
(-0.0663447469560088 0.000124967008227566 0)
(-0.0673343792398482 0.000111490617651499 8.18854499520921e-22)
(-0.0682160141518744 9.97545414225822e-05 -8.16954598714974e-22)
(-0.069005902948789 8.97741512165672e-05 0)
(-0.0697205283911466 8.16044910443031e-05 -4.3304875958928e-22)
(-0.0703768733738972 7.53326278100887e-05 4.32267293917838e-22)
(-0.0709926019761606 7.10697518261634e-05 0)
(-0.0715861516922214 6.89425366556981e-05 0)
(-0.0721767207840736 6.9082765956553e-05 0)
(-0.0727841330971498 7.16155543750034e-05 3.81220630984199e-21)
(-0.0734285528267832 7.66440506025724e-05 -3.80462426018447e-21)
(-0.0741299928297933 8.42276472838693e-05 0)
(-0.0749075174083515 9.43483304291651e-05 -4.02957364135895e-21)
(-0.0757780151393239 0.000106860997292747 8.12127124707008e-21)
(-0.0767543204886619 0.000121409630480547 -4.0901665114833e-21)
(-0.0778418759722793 0.000137240064244822 -8.50280111974615e-21)
(-0.0790334014765001 0.000152939654948006 -4.88017957485224e-16)
(-0.0803027571299075 0.000166173370125804 -9.98417683116261e-16)
(-0.0815868091149386 0.000172030781642848 -5.11389768402744e-16)
(-0.082740835760965 0.000160486939111819 8.95839115387203e-21)
(-0.0835566724315172 0.000121075525342475 0)
(-0.0836992923925226 2.51503255735548e-05 0)
(-0.0816377530592281 -0.000329844399703034 9.89954321774363e-21)
(-0.0750256719736579 -0.00172110924889271 -5.72725800697407e-16)
(-0.0673772507642954 -0.00511046529623337 -6.05711211170753e-16)
(-0.0636801236254391 -0.00854079499237524 -1.54858566678666e-22)
(-0.0613100280271694 -0.0118858049029719 -2.80462435097384e-18)
(-0.0598183230922222 -0.0151666308141158 2.83452411132455e-18)
(-0.0587322438146726 -0.0183613336634527 -5.67492637242045e-18)
(-0.0578341008158952 -0.0214438513234129 5.66080021355897e-18)
(-0.056955315116749 -0.0243658807824567 -5.63097415757504e-18)
(-0.0559885349849911 -0.0270744602015965 0)
(-0.0549267422127903 -0.0295364501886422 0)
(-0.0539034553826345 -0.0317470145590185 -5.51603295280594e-18)
(-0.0529058127545535 -0.0335496516818497 -1.08413107656038e-20)
(-0.0516406063179401 -0.034744327642701 -2.46490401208806e-22)
(-0.0499382313052084 -0.0352176718469569 5.48683194857292e-18)
(-0.0476966286424464 -0.034896982313114 1.10223535607481e-17)
(-0.0448479319019631 -0.033743287951412 -5.55603526239725e-18)
(-0.0413484974135628 -0.0317451881043692 0)
(-0.0371331425133471 -0.0289012615261292 -1.12574247473544e-20)
(-0.0321510848346124 -0.025269932155436 -2.29855829620531e-15)
(-0.0264806835429161 -0.0210716837139044 -2.35723688742309e-15)
(-0.02034106761689 -0.0164765561704667 5.88065639329172e-18)
(-0.013882357340413 -0.0115680190063234 5.71307112347525e-21)
(-0.00716452994441581 -0.00636378773640972 0)
(-0.000237765636062595 -0.000864085671480439 5.83130467746523e-18)
(0.00702273262876451 0.00505682818417403 2.76021881169106e-21)
(0.0147022710476704 0.0115192740993019 0)
(0.0233252271174344 0.0189368219187031 0)
(0.033670274658575 0.0277510554981555 -4.94261219141835e-18)
(0.0462201228348124 0.0379482406060792 4.65032323558999e-18)
(0.0615290983445258 0.0494057125518304 -4.30809283346934e-18)
(0.0805197907601582 0.0619996877759084 3.88120042309577e-18)
(0.10424455982329 0.0752034906917794 -3.3784923386946e-18)
(0.13424770956837 0.0879088422598832 2.76357880813631e-18)
(0.170263040800381 0.0967285369738003 0)
(0.210147178859328 0.0965684427349618 2.33104484596007e-18)
(0.235253889121247 0.0785697124737077 3.90258166435678e-21)
(0.227792806043396 0.0495361426739575 1.99629462981028e-19)
(0.193751575973323 0.0241006455875415 1.30529871603435e-22)
(0.152360638484723 0.00854145778134976 6.38157228774501e-23)
(0.111689174972046 0.00162275315578705 -9.35795454785384e-23)
(0.0933264874641761 0.000158677306881865 0)
(0.162803574274612 -8.17998255703206e-05 0)
(0.169251147420879 -0.000849205342630687 7.22960005408818e-24)
(0.167859018079197 -0.00503604168146303 1.4596198900248e-20)
(0.134253713959686 -0.0102029606404915 0)
(0.0722561695535816 -0.00922078173789394 0)
(0.008057314789633 0.00155495940888939 8.01157471995974e-19)
(-0.0282762822174739 0.0148343790677683 3.87872567271709e-21)
(-0.0350020934563693 0.0202868488312165 0)
(-0.0316879318683574 0.0208351906557842 0)
(-0.027884638789866 0.0201538045062976 1.24354568177431e-18)
(-0.024201720301361 0.0186853750127134 -1.30784754911818e-18)
(-0.0211912647260173 0.0171028050342868 4.24026444604106e-23)
(-0.0186275660836444 0.0154211536195343 -1.44153260453876e-18)
(-0.0164615716051035 0.0137506609883724 -3.72726565482414e-22)
(-0.0146796054628515 0.0122013731613664 1.59606084381408e-18)
(-0.0133977372824505 0.0109870568294947 -3.35201114634663e-18)
(-0.012535452483013 0.0101432429011373 5.15408817618155e-22)
(-0.0119929142397503 0.00959782251463138 0)
(-0.0117842377267867 0.00935626880909701 3.79229260810549e-18)
(-0.0119164238618862 0.00941039663347845 1.95507615902657e-18)
(-0.0123909728080489 0.00975341509238576 -2.01639955613974e-18)
(-0.0132033447852077 0.0103720225774087 -2.07398058925009e-18)
(-0.0143100115793399 0.0112209278472018 -2.12631972846154e-18)
(-0.0155831268004202 0.0121771483948826 -4.26330004976027e-21)
(-0.0169309379806985 0.0131037458533232 -2.22805487337744e-18)
(-0.018325993882634 0.0139308742068689 2.29685733884323e-18)
(-0.0196997659652264 0.0145743287448391 2.35309168700359e-18)
(-0.0209756209209684 0.0149509211595579 -4.75939849427971e-21)
(-0.0220767243979989 0.0149875269021735 -2.5026392017672e-18)
(-0.0229371314023213 0.0146352447821122 0)
(-0.023538874900116 0.0139008961748682 0)
(-0.0239721072211138 0.0128861532442667 5.55161401392414e-18)
(-0.024263922723526 0.0116879442872499 0)
(-0.0243445809506012 0.0103275050389605 -2.9399884178723e-18)
(-0.0242359488115838 0.00886324617651549 -1.18028490524276e-20)
(-0.0240190601590344 0.00736922412745319 -1.54639261533504e-18)
(-0.0238643340099699 0.0059287631083269 -3.14971912205693e-18)
(-0.0240708640053704 0.00460889568107639 -1.59373072284908e-18)
(-0.024994288615566 0.00341260551851219 0)
(-0.0273683772960449 0.0024515117332192 -7.82887886554001e-19)
(-0.0339513753805072 0.00188740277135711 -5.8380717077154e-21)
(-0.0432097466310839 0.00163994772055786 5.67458081529345e-21)
(-0.0512222713680151 0.0015251461724995 5.53074389014577e-21)
(-0.0586703618702928 0.00139768846769726 -5.4181514140571e-21)
(-0.0652763372877293 0.00126747543074465 -5.35265416081495e-21)
(-0.0711800977935316 0.00113786479519417 5.26791713821384e-21)
(-0.076393757418283 0.00101701199596977 0)
(-0.0810048847915267 0.000906258290414937 0)
(-0.0850730250756418 0.000806751676045118 0)
(-0.088664817586988 0.000717780548794157 0)
(-0.0918348265787368 0.000638541717936886 0)
(-0.0946329498200898 0.00056793635121178 0)
(-0.0971017462404199 0.000504991047556328 0)
(-0.0992788728561065 0.000448828004350628 0)
(-0.10119745557294 0.000398744407392219 0)
(-0.102887364945002 0.000354196845560221 0)
(-0.10437597679338 0.000314804298323788 0)
(-0.105689018251503 0.000280332639116407 -7.27450026714877e-22)
(-0.10685121750725 0.000250681092114037 7.24640851662403e-22)
(-0.107886875303238 0.000225863945695161 0)
(-0.108820294982797 0.000205990047933479 0)
(-0.10967608340769 0.000191238840026113 0)
(-0.110479302763433 0.000181835138569792 1.58776723363981e-21)
(-0.111255467393771 0.000178021334839651 -1.58293542068352e-21)
(-0.1120303597207 0.000180024370658535 0)
(-0.11282963294625 0.000188016762926484 0)
(-0.11367814965134 0.000202065339181419 3.40676015866877e-21)
(-0.11459896391059 0.000222059243788807 -3.39365263978316e-21)
(-0.11561180081221 0.000247602335368945 3.52192239677333e-21)
(-0.116730827841223 0.000277847023443521 -3.50534937609111e-21)
(-0.117961351905732 0.000311227957335267 0)
(-0.119294596038823 0.000344984173919371 0)
(-0.120699893445878 0.000374322734301539 0)
(-0.122113831053942 0.000391198840029841 -7.61829631459323e-21)
(-0.123416333565298 0.000381630784559821 7.57205719389472e-21)
(-0.124385997553256 0.000318565459648741 -7.89145795561623e-21)
(-0.12468032535595 0.000151483720812275 -1.94899804424376e-22)
(-0.123683582258883 -0.000213463536068689 8.01749853875359e-21)
(-0.119836709771118 -0.00108015051544022 0)
(-0.111692410205571 -0.00346887425286218 0)
(-0.103027193423756 -0.00847543974818864 0)
(-0.0984447133379429 -0.01363355692131 1.88167552590021e-20)
(-0.0953267171064572 -0.0187967619839359 4.87004465352614e-18)
(-0.0931580671151319 -0.0238725814729547 -2.47250363905893e-18)
(-0.0913810540744822 -0.0287921633971616 2.48697879280089e-18)
(-0.0897306501346606 -0.0334872984343956 1.85736473724205e-20)
(-0.0880077768637079 -0.0378746127734115 -1.93142068838059e-20)
(-0.0861032959472787 -0.0418745742217681 0)
(-0.0840277508881478 -0.0454308276436219 -4.96292495547575e-18)
(-0.0819005178223917 -0.0484851247305219 0)
(-0.0796666851649469 -0.0507989707571704 0)
(-0.0769868402801015 -0.0521360326217838 4.97225125615049e-18)
(-0.0736694345686303 -0.0523692946195036 -9.61762309569449e-21)
(-0.0695949169453731 -0.0514228307941786 -1.00579514610693e-17)
(-0.064682213275196 -0.0492655752925859 9.79497081176986e-21)
(-0.058875451430691 -0.0458996085601894 5.15193962405271e-18)
(-0.0521010206643637 -0.0413522965825066 1.01059469349201e-20)
(-0.0443325730581427 -0.0357416384581284 5.33959001182498e-18)
(-0.0356868691613795 -0.0293694666927547 -5.43968384385705e-18)
(-0.0264172055009662 -0.0224328234743389 0)
(-0.0166923779539747 -0.0150223925614146 0)
(-0.00657219849284587 -0.00714989100051018 0)
(0.00389611651129905 0.0012004035066299 5.60620611828197e-18)
(0.014900116428 0.0102073668328171 0)
(0.0265815521282048 0.0200515557268251 0)
(0.0396863099982855 0.0312768109846728 4.98354119643732e-18)
(0.0552624548644006 0.0444246030233448 4.70510895408792e-18)
(0.0739893465269726 0.0594316938115393 -5.4167548877998e-22)
(0.0966267673821539 0.076050678570289 4.7466401513663e-22)
(0.124357136263665 0.0939570616673889 -3.60404919831801e-18)
(0.158478069382143 0.112230146855163 3.09430834090838e-18)
(0.200747537173433 0.129066473180489 -2.56734561627099e-20)
(0.250657400307137 0.139895063891083 1.75950900551244e-18)
(0.305499256561698 0.138378506042501 -1.23471821107501e-20)
(0.344926261923751 0.114918920655422 -3.43383330543593e-21)
(0.3467652690912 0.0768123832307954 -9.52718370338785e-21)
(0.311504501357691 0.0410082974609804 0)
(0.258891029265649 0.0168001002856737 0)
(0.201586474339593 0.00456992169089252 -1.53889073253321e-23)
(0.170795075232465 0.00102560921882157 1.63137531083362e-23)
(0.23997760392401 0.000303145728420572 0)
(0.243235111068757 -0.00113158078257402 0)
(0.239593989001605 -0.00635536668129971 0)
(0.201351774772227 -0.0133749746499545 0)
(0.12406593575677 -0.0140232606223784 0)
(0.0336470401742888 -0.00182313286250916 -3.80410272961876e-19)
(-0.0268948245607798 0.0166770898007664 1.01485316652572e-18)
(-0.0434992117449423 0.0255336786373419 0)
(-0.0415157950498443 0.0270302693199084 -3.01108186149365e-22)
(-0.0371745049535023 0.0265155167006026 -1.41455256526653e-23)
(-0.032670955782787 0.0248869215656125 3.19960092626619e-22)
(-0.0288587263161508 0.022988204968911 0)
(-0.025550038403828 0.0208821662681667 1.48004277636607e-18)
(-0.0227236683038609 0.0187467422411503 0)
(-0.0203891696445736 0.0167558510358887 -1.63695390623169e-18)
(-0.0186989674262428 0.0151903719852838 -7.92961740457592e-23)
(-0.0175684547606335 0.0141112781639973 5.356923856369e-22)
(-0.0168780409850086 0.0134384529758388 0)
(-0.0166403317651611 0.0131789888186783 -1.94794889874433e-18)
(-0.0168650360616904 0.013321683865051 0)
(-0.0175513161144941 0.0138546308542244 2.06712155135047e-18)
(-0.0186876319896892 0.0147528338097239 -1.07586591802581e-22)
(-0.020209884361936 0.0159451262767873 -2.16719424392205e-18)
(-0.021954919988603 0.0172681410931825 0)
(-0.023804323096222 0.0185424382444782 -2.26258256279799e-18)
(-0.0257170637732995 0.0196696445451964 0)
(-0.0276083800047697 0.020538836344968 2.37873394643665e-18)
(-0.0293852501778401 0.0210435895289648 -2.44297663645832e-18)
(-0.0309589790444396 0.0210943491372956 2.51820115221282e-18)
(-0.032260685229292 0.0206373701747055 2.58400787903181e-18)
(-0.0332835516911679 0.0196904043935052 -1.03755688399331e-20)
(-0.0341336944718737 0.01837301013151 -1.12831455700548e-20)
(-0.0348454235636578 0.016799773161943 1.09927767959514e-20)
(-0.0353478694741969 0.0150015054410787 -2.89275348076122e-18)
(-0.0356711238782031 0.0130506420636175 0)
(-0.0359222025309684 0.0110401744353817 -1.50314612653169e-18)
(-0.0363232544427406 0.00907667246240667 1.52274132888055e-18)
(-0.0372621607865059 0.00725011699717645 3.05792930508914e-18)
(-0.0392797768672739 0.00560807586220986 -7.57035998812728e-19)
(-0.0434905997851743 0.00433230023701336 -1.14085306981753e-20)
(-0.0524203847641697 0.00354008405405954 -3.21757849294692e-20)
(-0.0640928316152246 0.00317231849127129 5.13870537354772e-21)
(-0.0741397168736916 0.00291241035611024 -1.89011894632873e-24)
(-0.0832270211489719 0.0026399571200211 -4.83393360374701e-21)
(-0.0911456771588857 0.00236890460783111 0)
(-0.0980959981679287 0.00210952406956079 -4.66321680879784e-21)
(-0.104143594944945 0.001871979555392 4.56844128948017e-21)
(-0.109417758117651 0.001657909012649 0)
(-0.114010905256312 0.00146749833109572 0)
(-0.118015160344415 0.00129868549057479 0)
(-0.121505092997974 0.00114924586200339 0)
(-0.124546543672931 0.00101678892819697 -3.49419729213685e-16)
(-0.127195001625679 0.000899238636410604 -3.53498916354311e-16)
(-0.129498848780882 0.000794822914702363 -2.26967786050062e-21)
(-0.131500280752232 0.00070213789554783 0)
(-0.133236994823847 0.000620114532770127 0)
(-0.134743225010417 0.000547996873665104 0)
(-0.136050775725901 0.000485304283668862 -6.03884272921579e-22)
(-0.137189777949807 0.000431793935229022 5.9960440706744e-22)
(-0.138189304594224 0.000387418925472105 0)
(-0.139077786109311 0.000352282316439935 0)
(-0.139883244839742 0.000326586141274269 0)
(-0.140633328287729 0.000310577252097371 1.29892380067886e-21)
(-0.141355132574208 0.000304487292790106 -1.29165795897641e-21)
(-0.142074783934801 0.000308461510151375 0)
(-0.142816736826415 0.000322473451329624 0)
(-0.143602725562449 0.000346213368848467 2.75873644424207e-21)
(-0.144450264798108 0.000378934493167003 4.30515724913797e-16)
(-0.145370544303971 0.000419229865675835 4.33600165913786e-16)
(-0.146365506018206 0.000464695012900275 0)
(-0.147423762637715 0.000511413700279421 0)
(-0.148514669409637 0.000553107031421544 0)
(-0.149579979671132 0.000579591699184311 0)
(-0.150522635997551 0.000574486988443627 0)
(-0.15118544359693 0.000511292916101507 0)
(-0.151314488484741 0.000341137107542072 -6.16128006515467e-21)
(-0.150546326151658 -2.73173657506426e-05 -1.50027564636245e-22)
(-0.148344251622111 -0.00072463033659398 6.11611795175593e-21)
(-0.14364430036309 -0.00205841797467142 -6.31806839835386e-21)
(-0.135807298938946 -0.00511667727267774 -4.45978738542162e-20)
(-0.128081584674443 -0.0111332768202861 0)
(-0.123518334539787 -0.0174836188616357 0)
(-0.120120942656722 -0.0239524869720805 -1.88967888129781e-18)
(-0.117460418980844 -0.0303092101337223 3.83264727254748e-18)
(-0.115032906051527 -0.0364327265037168 0)
(-0.112598180172337 -0.0422124086353446 -5.81283999220803e-18)
(-0.109980182139467 -0.0475387900344342 0)
(-0.10709194259545 -0.0523128910382923 -1.5299521177069e-20)
(-0.103945692742177 -0.0564515694731231 3.91893079137414e-18)
(-0.100610341923314 -0.0598387297600285 -3.04495579409815e-20)
(-0.0969976845220161 -0.0621862070815915 1.50685793938727e-20)
(-0.0928090009690561 -0.063279569032057 -3.89013985320337e-18)
(-0.0878774570927802 -0.0630139849380245 -3.92427808388807e-18)
(-0.0820905710399341 -0.0613341396572467 -5.3576755013598e-21)
(-0.0753672990767885 -0.0582305323218778 7.88809773050521e-21)
(-0.0676509039192311 -0.0537276488487821 -8.07481573850346e-18)
(-0.0588756447676823 -0.0478869638356342 0)
(-0.0490529782508829 -0.0408734036859818 1.34068335059598e-20)
(-0.0383112253251097 -0.0330132869856177 4.26501625032335e-18)
(-0.0268664868829519 -0.0244765375683409 4.37968952428186e-18)
(-0.0148591623847239 -0.0153323811471516 4.47924627139656e-18)
(-0.00232362704002087 -0.00557330400744156 4.54653689264661e-18)
(0.010719335736267 0.00484232892924282 -4.52206200888736e-18)
(0.0244968118099483 0.0161182534868276 -4.31145882847006e-21)
(0.0392015549905081 0.0284728096644891 4.30762081163081e-18)
(0.055682106080443 0.0424602303335361 -4.61868085801853e-21)
(0.0750886970583382 0.0585888927433941 3.89667081967746e-18)
(0.0981959365972929 0.0767179019140746 3.62244191245599e-18)
(0.125837706149483 0.0964525600603798 -1.03025973937598e-22)
(0.159218335648921 0.117216434583504 6.74273845171093e-22)
(0.199579852016495 0.137707390769474 -6.37403104334909e-22)
(0.248445105273086 0.155555271451596 -1.94788718871159e-18)
(0.305024297199263 0.165704669894436 -1.51818087951228e-20)
(0.36647972775784 0.161775183356502 -1.52905234132199e-18)
(0.41526754878195 0.135962980798593 -6.95143431731125e-21)
(0.430032060151869 0.0952770847255228 -1.3654962659625e-19)
(0.405704275103366 0.0551942698227318 8.85760745509799e-23)
(0.35620056345267 0.025562231971988 4.66409735223169e-23)
(0.293951616093617 0.00865459581593366 -2.93472435229867e-23)
(0.254848836740505 0.00271044271726416 0)
(0.313563587458633 0.00115662718457682 -3.49988801379555e-24)
(0.312175734780666 -0.00111316953020124 1.03178393051044e-23)
(0.30649719379582 -0.00723020275427489 0)
(0.268448097193159 -0.0157581284275076 0)
(0.184203029983929 -0.0186809041169843 2.37827657110232e-22)
(0.0721837878834956 -0.00692854450071361 3.37275920628292e-19)
(-0.0159629779817074 0.0159423610660675 9.6084145626308e-19)
(-0.0476773917437307 0.0289798212216835 5.28411907090499e-22)
(-0.0492140834053412 0.0318711409594684 -1.21564857877899e-18)
(-0.0451229444419284 0.0318006838672704 -1.28279862984789e-18)
(-0.0402572366412834 0.0302747029529209 1.68395830402016e-22)
(-0.0359360606227569 0.0282649499889505 -1.72409515287509e-22)
(-0.0320818847318915 0.0258938599798747 0)
(-0.0287373633548333 0.0234215331546664 3.91638110790924e-22)
(-0.025956852468838 0.0210970756494853 1.67851004548324e-18)
(-0.0239303205453146 0.019263330136846 1.7672214108727e-18)
(-0.022583603646288 0.0180127419349468 3.7011599234785e-18)
(-0.0217891242068368 0.0172672032215146 0)
(-0.0215562444550909 0.0170361831058606 1.95401508560279e-21)
(-0.0218967436878217 0.0173053129572504 -6.02422741132212e-21)
(-0.0228055518798836 0.018055703244596 4.10625113608574e-21)
(-0.0242611923234057 0.0192470272540835 2.14916215676135e-18)
(-0.0261781179354115 0.0207795483331116 2.19856817489677e-18)
(-0.02836529126492 0.0224542897718656 -2.23290849290378e-18)
(-0.0306834406991211 0.024055439475419 2.67482457969973e-23)
(-0.0330786678438872 0.0254579709207676 2.31526860356038e-18)
(-0.0354560681787862 0.0265291703369188 -3.13881216707502e-22)
(-0.0377148057617688 0.027146229069839 4.82178461781699e-18)
(-0.0397650797381547 0.0272112416535789 0)