/*--------------------------------*- C++ -*----------------------------------*\
  =========                 |
  \\      /  F ield         | OpenFOAM: The Open Source CFD Toolbox
   \\    /   O peration     | Website:  https://openfoam.org
    \\  /    A nd           | Version:  7
     \\/     M anipulation  |
\*---------------------------------------------------------------------------*/
FoamFile
{
    version     2.0;
    format      ascii;
    class       volScalarField;
    location    "20000";
    object      walldist;
}
// * * * * * * * * * * * * * * * * * * * * * * * * * * * * * * * * * * * * * //

dimensions      [0 1 0 0 0 0 0];

internalField   nonuniform List<scalar> 
15600
(
0.0019554473315091
0.00195544813064864
0.00195493047877909
0.00194969967071141
0.00193140696461589
0.00189119332893711
0.0018336521277526
0.00178867656641745
0.00176535757235619
0.00176296068157944
0.00177865196826283
0.00180935034167477
0.00185359181723014
0.00191054483750224
0.0019798594486056
0.00205734096822381
0.00213405026006574
0.00220879783955402
0.00228152476724614
0.00235218023497069
0.00242072830648824
0.00248715002342472
0.00255143109450223
0.00261465548047058
0.00268235692192892
0.00275634118883625
0.00283668033671785
0.00292347011839466
0.00301678722831776
0.00311657671918912
0.00322251759277804
0.00333248693896033
0.00343991766292311
0.00354184916418666
0.00363628976083842
0.00372094367447661
0.0037932856457304
0.00385069988485313
0.00389069269585709
0.00391114636578694
0.0039120501370158
0.00391089466302134
0.00391089466302149
0.00391089466302136
0.00391089466302131
0.00391089466302129
0.00391089466302146
0.0039108946630212
0.00391089466302126
0.00391089466302135
0.00391089466302128
0.00391089466302131
0.00391089466302126
0.00391089466302143
0.00391089466302143
0.00391089466302131
0.00391089466302138
0.0039108946630212
0.00391089466302126
0.00391089466302132
0.00391089466302129
0.00391089466302123
0.00391089466302121
0.00391089466302137
0.00391089466302136
0.00391089466302137
0.00391089466302145
0.00391089466302146
0.00391089466302136
0.00391089466302138
0.0039108946630212
0.00391089466302126
0.00391089466302125
0.00391089466302138
0.00391089466302121
0.00391089466302137
0.00391089466302136
0.00391089466302149
0.00391089466302134
0.00391205013701573
0.00391114636578729
0.00389069269585729
0.00385069988485343
0.00379328564572987
0.00372094367447681
0.00363628976083758
0.00354184916418553
0.00343991766292399
0.00333248693896308
0.0032225175927813
0.00311657671919065
0.00301678722831776
0.00292347011839592
0.00283668033671754
0.00275634118883523
0.00268235692192981
0.00261465548046921
0.00255143109450138
0.00248715002342463
0.00242072830648731
0.00235218023496899
0.00228152476724549
0.00220879783955466
0.00213405026006581
0.00205734096822485
0.00197985944860494
0.00191054483749955
0.00185359181722959
0.00180935034167565
0.00177865196826259
0.00176296068157746
0.0017653575723553
0.00178867656641748
0.00183365212775263
0.00189119332893629
0.00193140696461583
0.00194969967071173
0.00195493047877964
0.00195544813064931
0.00195544733150932
0.00593822538866534
0.00593838171030776
0.00594508204296064
0.00596808395531871
0.0060134460883079
0.00608534750236712
0.00618677552179737
0.00631980176085056
0.00647878863468543
0.00665742632490344
0.00685051985272499
0.0070540373100267
0.00726494824583765
0.00748065472328545
0.00769880661368395
0.00791672661934438
0.00813209500314194
0.00834488061961292
0.00855535314896264
0.00876378774315496
0.008970473092417
0.00917572312048046
0.0093798585678651
0.00958324355933728
0.00978621405667757
0.00998805336101647
0.0101876505548467
0.0103838189896342
0.0105751926943301
0.0107602420614477
0.0109371191735626
0.0111036841973378
0.0112577659401455
0.0113979595451895
0.0115230220237916
0.0116316795895213
0.011722669768589
0.0117947893337783
0.0118469698661334
0.0118783480677648
0.0118894304451697
0.0118894969120239
0.0118881212920084
0.0118868219491522
0.011885598908471
0.0118844521935222
0.0118833818264012
0.0118823878277406
0.0118814702167066
0.0118806290109993
0.0118798642268496
0.0118791758790171
0.01187856398079
0.0118780285439834
0.0118775695789379
0.0118771870945187
0.0118768810981145
0.0118766515956377
0.0118764985915227
0.0118764220887258
0.0118764220887258
0.0118764985915227
0.0118766515956377
0.0118768810981145
0.0118771870945188
0.0118775695789381
0.0118780285439836
0.0118785639807902
0.0118791758790171
0.0118798642268493
0.0118806290109993
0.0118814702167066
0.0118823878277404
0.0118833818264011
0.0118844521935224
0.0118855989084709
0.0118868219491522
0.0118881212920084
0.0118894969120239
0.01188943044517
0.011878348067765
0.0118469698661336
0.011794789333778
0.0117226697685888
0.0116316795895213
0.0115230220237917
0.0113979595451885
0.0112577659401447
0.0111036841973382
0.0109371191735651
0.0107602420614485
0.0105751926943284
0.010383818989636
0.0101876505548442
0.00998805336101575
0.0097862140566797
0.00958324355933649
0.00937985856786559
0.00917572312048177
0.00897047309241544
0.00876378774315557
0.00855535314896039
0.00834488061961678
0.00813209500314106
0.00791672661934213
0.00769880661368531
0.00748065472328581
0.00726494824583689
0.00705403731002726
0.00685051985272432
0.00665742632490309
0.00647878863468543
0.00631980176085223
0.00618677552179738
0.00608534750236786
0.00601344608830711
0.00596808395531898
0.00594508204296164
0.00593838171030821
0.00593822538866546
0.0100668974005504
0.0100671624326222
0.0100788819529051
0.0101197914058343
0.0102018358683681
0.0103337675840626
0.0105200486633185
0.0107590577985609
0.0110390895500838
0.0113491435364055
0.0116807767528812
0.0120276841486896
0.012385090790809
0.0127489097139453
0.0131154135669855
0.0134807696873906
0.0138421777208012
0.0141996667357752
0.0145536420430758
0.0149045275385566
0.0152527801155837
0.0155988996077288
0.0159434005687973
0.0162867926339518
0.0166292104670736
0.0169693304098835
0.0173053079053148
0.0176351427310374
0.0179565548714145
0.018266958694899
0.0185632614425415
0.018841941585922
0.0190996380500585
0.0193340645286778
0.019543145694413
0.0197247641060295
0.0198768274944861
0.0199973498434659
0.0200845748598122
0.0201370880222842
0.020155768952582
0.0201559115263496
0.0201535794785321
0.0201513767411203
0.0201493033565236
0.0201473593646773
0.0201455448030395
0.0201438597065874
0.0201423041078141
0.0201408780367247
0.0201395815208355
0.0201384145851682
0.0201373772522502
0.0201364695421107
0.0201356914722796
0.0201350430577865
0.0201345243111573
0.0201341352424142
0.0201338758590754
0.0201337461661529
0.0201337461661529
0.0201338758590754
0.0201341352424142
0.0201345243111573
0.0201350430577866
0.0201356914722798
0.0201364695421108
0.0201373772522503
0.0201384145851681
0.0201395815208355
0.0201408780367247
0.0201423041078137
0.0201438597065872
0.0201455448030396
0.0201473593646772
0.0201493033565238
0.0201513767411206
0.0201535794785321
0.0201559115263496
0.0201557689525825
0.0201370880222845
0.0200845748598122
0.0199973498434658
0.0198768274944859
0.0197247641060294
0.0195431456944123
0.0193340645286774
0.0190996380500586
0.0188419415859214
0.0185632614425411
0.0182669586949011
0.0179565548714143
0.017635142731038
0.0173053079053145
0.0169693304098854
0.0166292104670738
0.016286792633951
0.0159434005687946
0.0155988996077304
0.0152527801155815
0.0149045275385561
0.0145536420430758
0.014199666735776
0.013842177720798
0.0134807696873939
0.013115413566984
0.0127489097139462
0.0123850907908095
0.0120276841486879
0.0116807767528856
0.0113491435364059
0.0110390895500836
0.0107590577985581
0.0105200486633183
0.0103337675840628
0.0102018358683678
0.0101197914058345
0.0100788819529058
0.0100671624326226
0.0100668974005505
0.0143468143929898
0.0143471921178661
0.0143641166685908
0.0144236015381272
0.014543703988671
0.0147379235041741
0.0150122393122189
0.0153611695422057
0.0157667121071277
0.0162130087078862
0.0166882555290327
0.0171837959346461
0.0176930496361862
0.0182103882052652
0.0187306579538454
0.0192488305034349
0.0197616099122655
0.0202690875762178
0.0207718090210848
0.0212703520270336
0.0217653476164819
0.0222574881226528
0.0227474888206258
0.0232360098855038
0.0237229764541294
0.0242064354840185
0.0246837819984719
0.0251521723716264
0.0256083791236812
0.026048721847962
0.0264688173773042
0.026863711972332
0.0272288115826975
0.0275609162918389
0.0278570879667329
0.0281143346582389
0.028329703974719
0.0285003985258542
0.0286239490433486
0.0286983696808967
0.0287249269245325
0.0287251483832802
0.0287218248709944
0.0287186856451196
0.0287157307660942
0.0287129602908334
0.0287103742727203
0.0287079727616019
0.0287057558037864
0.0287037234420358
0.0287018757155631
0.0287002126600298
0.0286987343075396
0.0286974406866376
0.0286963318223071
0.028695407735966
0.0286946684454666
0.028694113965092
0.0286937443055563
0.0286935594740025
0.0286935594740025
0.0286937443055563
0.0286941139650921
0.0286946684454665
0.0286954077359662
0.0286963318223073
0.0286974406866377
0.0286987343075397
0.0287002126600298
0.028701875715563
0.0287037234420355
0.0287057558037863
0.0287079727616019
0.0287103742727203
0.0287129602908338
0.0287157307660946
0.0287186856451194
0.0287218248709943
0.0287251483832807
0.0287249269245329
0.0286983696808969
0.028623949043349
0.0285003985258541
0.028329703974719
0.028114334658239
0.0278570879667329
0.0275609162918377
0.0272288115826971
0.0268637119723313
0.0264688173773044
0.0260487218479642
0.0256083791236791
0.0251521723716289
0.0246837819984701
0.0242064354840156
0.0237229764541295
0.0232360098855062
0.0227474888206286
0.0222574881226499
0.0217653476164821
0.0212703520270348
0.0207718090210824
0.0202690875762185
0.0197616099122674
0.0192488305034326
0.0187306579538479
0.0182103882052618
0.0176930496361883
0.0171837959346468
0.0166882555290323
0.0162130087078865
0.0157667121071262
0.0153611695422066
0.0150122393122185
0.014737923504174
0.0145437039886707
0.0144236015381275
0.0143641166685914
0.0143471921178663
0.0143468143929901
0.0187835168847746
0.0187840114307163
0.0188063323633414
0.0188850771755328
0.0190446426619566
0.0193034516274501
0.0196690519237988
0.0201319487141822
0.0206676104901792
0.0212551446635365
0.0218792656172594
0.0225288806175195
0.0231955388998008
0.0238720148026263
0.0245516764843328
0.0252282566893705
0.0258979466044044
0.0265609022095439
0.0272178142581605
0.0278694199521423
0.0285165307452711
0.0291600384502531
0.0298008663536919
0.0304398305844517
0.031076638785528
0.0317086854074139
0.0323325772266884
0.0329445963078072
0.0335405330166063
0.0341155720441076
0.0346639925524371
0.0351793561610633
0.0356557908535945
0.0360891496835461
0.0364756001172226
0.0368112436832446
0.0370922363871704
0.0373149397770048
0.0374761455270617
0.0375732755718509
0.037607997460721
0.0376083006927831
0.0376039493958728
0.0375998393753056
0.0375959707102112
0.0375923434751038
0.0375889577398763
0.0375858135697908
0.037582911025475
0.0375802501629159
0.0375778310334534
0.0375756536837758
0.0375737181559156
0.0375720244872456
0.0375705727104742
0.0375693628536439
0.0375683949401266
0.0375676689886233
0.0375671850131606
0.0375669430230913
0.0375669430230913
0.0375671850131606
0.0375676689886231
0.0375683949401267
0.0375693628536441
0.0375705727104744
0.0375720244872458
0.0375737181559158
0.0375756536837756
0.0375778310334533
0.0375802501629158
0.0375829110254749
0.0375858135697908
0.0375889577398761
0.0375923434751041
0.0375959707102114
0.0375998393753055
0.0376039493958728
0.0376083006927832
0.0376079974607212
0.0375732755718514
0.0374761455270617
0.0373149397770045
0.0370922363871701
0.0368112436832447
0.0364756001172221
0.0360891496835463
0.0356557908535942
0.0351793561610645
0.0346639925524358
0.0341155720441081
0.0335405330166067
0.0329445963078071
0.0323325772266884
0.0317086854074155
0.0310766387855282
0.030439830584447
0.0298008663536916
0.0291600384502538
0.0285165307452726
0.0278694199521402
0.0272178142581615
0.0265609022095445
0.0258979466044044
0.0252282566893719
0.0245516764843307
0.0238720148026282
0.0231955388997984
0.0225288806175217
0.0218792656172556
0.0212551446635386
0.0206676104901805
0.0201319487141822
0.0196690519238
0.0193034516274504
0.0190446426619559
0.0188850771755331
0.0188063323633422
0.0187840114307167
0.0187835168847743
0.023382748358005
0.0233833640044991
0.0234112793214496
0.0235099915204402
0.0237104707691695
0.0240362445495331
0.0244964848714488
0.0250775318074922
0.0257480842858189
0.0264820317775019
0.0272604803198062
0.0280698126023334
0.028899639333236
0.0297410794241536
0.0305859689225191
0.0314267565939453
0.0322591023563861
0.0330832291302336
0.0338999781622497
0.0347102518723064
0.0355150487215629
0.0363154672778724
0.0371126464316054
0.0379075639320102
0.0386997018234389
0.0394857781131734
0.0402615824664475
0.0410224906043092
0.0417632747642997
0.0424779431500761
0.0431593882517296
0.0437996326793991
0.0443914797246086
0.0449298007449488
0.0454098360503741
0.0458267474516569
0.0461757667067209
0.0464523835114731
0.0466526234280982
0.0467732944971157
0.0468164800353078
0.0468168680373364
0.0468114513051391
0.0468063349269204
0.0468015190011839
0.0467970036206901
0.0467927888724443
0.0467888748376896
0.0467852615918982
0.0467819492047658
0.0467789377402026
0.0467762272563291
0.0467738178054703
0.0467717094341492
0.0467699021830829
0.0467683960871802
0.0467671911755366
0.046766287471431
0.0467656849923254
0.0467653837498619
0.0467653837498619
0.0467656849923254
0.046766287471431
0.0467671911755365
0.0467683960871803
0.0467699021830833
0.0467717094341492
0.0467738178054702
0.0467762272563292
0.0467789377402024
0.0467819492047657
0.0467852615918982
0.0467888748376893
0.0467927888724444
0.0467970036206904
0.0468015190011839
0.0468063349269202
0.0468114513051395
0.0468168680373363
0.046816480035308
0.0467732944971159
0.0466526234280981
0.046452383511473
0.0461757667067212
0.0458267474516568
0.0454098360503735
0.0449298007449489
0.0443914797246083
0.0437996326793982
0.0431593882517314
0.042477943150075
0.0417632747643016
0.0410224906043083
0.0402615824664511
0.0394857781131692
0.0386997018234389
0.0379075639320152
0.0371126464316032
0.0363154672778726
0.0355150487215628
0.0347102518723057
0.0338999781622509
0.0330832291302335
0.0322591023563873
0.0314267565939446
0.0305859689225184
0.0297410794241544
0.0288996393332338
0.0280698126023347
0.0272604803198089
0.0264820317774998
0.0257480842858188
0.0250775318074927
0.0244964848714477
0.0240362445495334
0.0237104707691696
0.0235099915204405
0.0234112793214502
0.0233833640044996
0.0233827483580049
0.0281504626930558
0.0281512038763607
0.0281849186941258
0.0283043308013476
0.0285472254339243
0.0289424222991935
0.0295007759707976
0.0302043060030209
0.0310146932620413
0.0319004185777977
0.0328388480278312
0.0338137476699984
0.0348127189311751
0.035825164824125
0.0368413332581438
0.0378523421269536
0.0388533008229543
0.0398445016553257
0.040826941849743
0.0418016950742567
0.0427699536308132
0.0437330304001102
0.0446922877602167
0.045648870975982
0.0466020281506729
0.047547776048296
0.0484810572935324
0.049396308058481
0.0502872451554657
0.0511466571969676
0.0519659992016077
0.0527356984037463
0.0534471849318541
0.054094312503346
0.0546713603151828
0.0551725160455293
0.0555920533598323
0.0559245581779063
0.0561652618975272
0.056310336190752
0.0563622953786657
0.0563627712582173
0.0563562500608241
0.0563500904592248
0.0563442925720095
0.0563388565108506
0.0563337823804945
0.0563290702787492
0.0563247202964763
0.0563207325175816
0.0563171070190074
0.0563138438707245
0.0563109431357265
0.0563084048700223
0.0563062291226323
0.0563044159355823
0.0563029653438997
0.0563018773756117
0.0563011520517393
0.0563007893862988
0.0563007893862989
0.0563011520517394
0.0563018773756116
0.0563029653438998
0.0563044159355822
0.0563062291226324
0.0563084048700227
0.0563109431357266
0.0563138438707245
0.0563171070190073
0.0563207325175815
0.0563247202964763
0.0563290702787492
0.0563337823804947
0.0563388565108508
0.0563442925720096
0.0563500904592251
0.0563562500608243
0.0563627712582173
0.056362295378666
0.0563103361907521
0.0561652618975272
0.0559245581779059
0.0555920533598322
0.0551725160455296
0.0546713603151825
0.0540943125033448
0.0534471849318549
0.0527356984037466
0.0519659992016073
0.05114665719697
0.0502872451554654
0.0493963080584816
0.0484810572935293
0.0475477760482973
0.0466020281506748
0.0456488709759781
0.0446922877602198
0.0437330304001085
0.0427699536308149
0.0418016950742566
0.0408269418497423
0.0398445016553269
0.0388533008229533
0.0378523421269523
0.036841333258147
0.0358251648241213
0.0348127189311798
0.0338137476699968
0.0328388480278298
0.0319004185777983
0.0310146932620438
0.0302043060030183
0.0295007759707999
0.028942422299193
0.0285472254339239
0.0283043308013481
0.0281849186941266
0.0281512038763614
0.0281504626930559
0.0330928318759022
0.0330937031947904
0.0331334300784353
0.0332743010555088
0.0335611666449919
0.0340283329872896
0.0346883981596362
0.0355189011413522
0.0364742473400663
0.0375173111072538
0.0386215819222625
0.0397681136271113
0.0409424249235369
0.042132140169468
0.0433258610123361
0.0440716409206045
0.0449478731468025
0.0458292830127589
0.0466945926556257
0.0475370444804153
0.0483525389887562
0.0491379366203688
0.0498892453646395
0.0506187039652623
0.0514130064308501
0.0523691835902752
0.0535177716307276
0.0548660450247275
0.056428580185711
0.058223179806754
0.0602735722089493
0.0619991203429072
0.0628346285646631
0.0635945480859978
0.0642721617900585
0.0648606475456997
0.0653532858395716
0.0657437257195835
0.0660263753363303
0.0661967466932507
0.0662578009079428
0.0662583678870873
0.0662507017648173
0.0662434607236178
0.0662366449028994
0.0662302544339413
0.0662242894398798
0.0662187500356953
0.0662136363282016
0.0662089484160364
0.0662046863896499
0.0662008503312984
0.066197440315035
0.0661944564067023
0.0661918986639266
0.0661897671361124
0.0661880618644379
0.0661867828818488
0.066185930213059
0.0661855038745447
0.0661855038745447
0.0661859302130591
0.0661867828818489
0.0661880618644376
0.0661897671361124
0.066191898663927
0.0661944564067024
0.0661974403150351
0.0662008503312982
0.0662046863896498
0.0662089484160365
0.0662136363282016
0.0662187500356951
0.0662242894398801
0.0662302544339415
0.0662366449028995
0.0662434607236179
0.0662507017648172
0.0662583678870873
0.0662578009079428
0.0661967466932511
0.0660263753363303
0.0657437257195834
0.0653532858395717
0.0648606475456994
0.0642721617900579
0.0635945480859978
0.0628346285646626
0.0619991203429073
0.0602735722089513
0.0582231798067524
0.0564285801857124
0.0548660450247279
0.0535177716307242
0.0523691835902757
0.051413006430854
0.0506187039652608
0.0498892453646393
0.0491379366203629
0.0483525389887519
0.0475370444804153
0.046694592655627
0.0458292830127632
0.0449478731468022
0.0440716409206007
0.0433258610123345
0.0421321401694709
0.0409424249235332
0.0397681136271121
0.0386215819222655
0.037517311107251
0.0364742473400662
0.035518901141353
0.0346883981596349
0.0340283329872911
0.0335611666449915
0.0332743010555091
0.0331334300784365
0.0330937031947913
0.0330928318759025
0.0382162539877922
0.0382172602094963
0.0382632194762649
0.0384263358783225
0.0387587844211337
0.0393005588880457
0.0400660642415625
0.0410281935311917
0.0421338099893509
0.0433399763250483
0.0446161636684728
0.044200268575692
0.0440957597259505
0.0443979363539029
0.0450919276974862
0.0461155589413498
0.0472839635830486
0.0484508615703863
0.0495938043347324
0.0507066379747036
0.0517855638420332
0.0528277935690403
0.0538301310727837
0.054806314998362
0.0558485656728152
0.0570588113994234
0.058466321293684
0.0600768851799198
0.0619033576838619
0.0639625955645942
0.0662778294634572
0.0688592025146972
0.0716245914672209
0.0734428055774966
0.0742246688245495
0.0749036834223805
0.0754721003066432
0.0759225973441687
0.0762487292888776
0.0764453243209005
0.0765158067235151
0.0765164681428559
0.0765076151538802
0.0764992530568965
0.0764913820128983
0.0764840021734905
0.0764771136808723
0.0764707166678257
0.0764648112577017
0.0764593975644082
0.0764544756924002
0.0764500457366675
0.076446107782729
0.0764426619066205
0.0764397081748904
0.0764372466445921
0.0764352773632778
0.0764338003689958
0.0764328156902844
0.0764323233461718
0.0764323233461718
0.0764328156902843
0.0764338003689958
0.0764352773632778
0.0764372466445923
0.0764397081748903
0.0764426619066206
0.0764461077827287
0.0764500457366676
0.0764544756924001
0.076459397564408
0.0764648112577016
0.0764707166678257
0.0764771136808722
0.0764840021734904
0.0764913820128986
0.0764992530568965
0.0765076151538805
0.0765164681428558
0.0765158067235157
0.0764453243209008
0.0762487292888778
0.0759225973441685
0.0754721003066433
0.0749036834223804
0.0742246688245488
0.0734428055774957
0.071624591467221
0.0688592025146968
0.0662778294634569
0.0639625955645916
0.0619033576838596
0.0600768851799212
0.0584663212936815
0.0570588113994241
0.0558485656728152
0.0548063149983601
0.0538301310727867
0.0528277935690402
0.0517855638420285
0.0507066379747019
0.0495938043347363
0.0484508615703885
0.0472839635830461
0.0461155589413501
0.0450919276974811
0.0443979363539034
0.0440957597259532
0.0442002685756921
0.0446161636684704
0.0433399763250512
0.0421338099893505
0.041028193531191
0.0400660642415639
0.0393005588880457
0.0387587844211335
0.0384263358783228
0.0382632194762659
0.038217260209497
0.0382162539877921
0.0435273614875502
0.0435285075539436
0.0435809275719762
0.0437671046469259
0.044146806866876
0.0447659241738053
0.0456407342393494
0.0467393130973154
0.0480007053814679
0.0476231504017624
0.0466213433976935
0.0462250440996545
0.0463278673836697
0.0468791947058417
0.0478537289206473
0.0491771822395131
0.0506472383949837
0.0521071756627432
0.0535342548152231
0.0549232955808263
0.056271107895821
0.057575505503146
0.0588342611039507
0.0600623837188853
0.061355548387276
0.062818353993275
0.0644785459317403
0.0663406311673917
0.0684159453029306
0.0707204915106193
0.0732769943524713
0.0760942014112528
0.0790876419728731
0.0821562423489249
0.0845417651888589
0.0853146246706399
0.0859615958813103
0.0864743499403421
0.0868455569504339
0.0870693362285723
0.0871495921915835
0.0871503515145255
0.087140268180573
0.0871307439603725
0.087121779037293
0.0871133735840077
0.0871055277624791
0.0870982417239416
0.0870915156088884
0.0870853495470597
0.0870797436574251
0.0870746980481774
0.0870702128167186
0.0870662880496536
0.087062923822778
0.0870601202010742
0.0870578772387039
0.087056194979002
0.0870550734544743
0.0870545126867919
0.0870545126867919
0.0870550734544743
0.0870561949790021
0.0870578772387039
0.0870601202010744
0.0870629238227782
0.0870662880496535
0.087070212816719
0.0870746980481772
0.087079743657425
0.0870853495470597
0.0870915156088885
0.0870982417239412
0.0871055277624788
0.0871133735840081
0.0871217790372932
0.0871307439603728
0.087140268180573
0.0871503515145257
0.087149592191584
0.0870693362285726
0.0868455569504337
0.0864743499403416
0.0859615958813101
0.0853146246706404
0.0845417651888589
0.0821562423489248
0.0790876419728726
0.0760942014112538
0.0732769943524749
0.0707204915106138
0.0684159453029286
0.0663406311673889
0.0644785459317346
0.0628183539932789
0.0613555483872774
0.0600623837188882
0.0588342611039537
0.057575505503143
0.0562711078958172
0.0549232955808268
0.0535342548152262
0.0521071756627442
0.0506472383949842
0.0491771822395108
0.0478537289206421
0.0468791947058431
0.0463278673836672
0.046225044099653
0.0466213433976932
0.0476231504017604
0.0480007053814689
0.0467393130973143
0.0456407342393503
0.0447659241738063
0.0441468068668761
0.0437671046469264
0.0435809275719767
0.0435285075539439
0.0435273614875505
0.0490330297972996
0.0490343208312918
0.0490934383223611
0.0493035211088577
0.0497322087341015
0.0504315034126248
0.0514196238332158
0.052659651860871
0.0518817816876303
0.0501791398285514
0.04931848330931
0.0491222209796373
0.0494682309038536
0.050293321250108
0.0515615932475137
0.0531884021399358
0.0549590961065581
0.0567103914197268
0.0584199115222646
0.0600836335479297
0.0616991329249537
0.0632649422220268
0.0647798454530822
0.066259881935432
0.0678026173632023
0.0695137427663458
0.0714194289983597
0.0735230962609199
0.0758347359517708
0.0783695285858342
0.081149607481247
0.0841824975133922
0.0873823811603562
0.0906463251486218
0.093944766168306
0.0961069485977007
0.0968353515721737
0.0974126431190153
0.0978305762900283
0.0980825355820443
0.0981729231342576
0.098173783951482
0.0981624252015544
0.0981516962862945
0.0981415974122653
0.0981321287739807
0.0981232905538898
0.0981150829223562
0.0981075060376446
0.0981005600459035
0.0980942450811526
0.0980885612652695
0.0980835087079762
0.0980790875068302
0.0980752977472172
0.0980721395023377
0.0980696128332042
0.0980677177886327
0.0980664544052409
0.0980658227074414
0.0980658227074417
0.0980664544052412
0.0980677177886329
0.0980696128332041
0.0980721395023378
0.0980752977472173
0.0980790875068305
0.0980835087079756
0.0980885612652693
0.0980942450811527
0.0981005600459033
0.0981075060376444
0.0981150829223563
0.0981232905538899
0.0981321287739814
0.0981415974122654
0.0981516962862945
0.0981624252015541
0.0981737839514821
0.0981729231342582
0.0980825355820445
0.0978305762900278
0.0974126431190146
0.0968353515721734
0.0961069485977011
0.0939447661683061
0.0906463251486217
0.0873823811603574
0.0841824975133969
0.0811496074812484
0.0783695285858304
0.0758347359517697
0.0735230962609178
0.0714194289983564
0.0695137427663486
0.067802617363203
0.0662598819354337
0.064779845453081
0.0632649422220246
0.0616991329249522
0.0600836335479304
0.0584199115222677
0.0567103914197306
0.054959096106559
0.0531884021399355
0.051561593247511
0.0502933212501036
0.049468230903855
0.0491222209796404
0.0493184833093126
0.0501791398285495
0.0518817816876272
0.0526596518608726
0.0514196238332143
0.050431503412627
0.0497322087341009
0.0493035211088577
0.0490934383223619
0.0490343208312924
0.0490330297972995
0.0547403862026811
0.0547418275148449
0.0548078878648538
0.0550427523104833
0.0555222203802222
0.0563046305657799
0.0574102134289492
0.0578000425749038
0.0550616877116445
0.0534765681706399
0.0528030901052082
0.0528416384023577
0.053454661792124
0.0545669008210001
0.0561327546248935
0.0580594706829502
0.0601245932308994
0.0621613621742615
0.0641481407931629
0.0660820780557733
0.0679615412790737
0.069785791857698
0.0715545779093462
0.0732847462323371
0.0750746493287379
0.0770300046508274
0.0791754278522812
0.0815133732674392
0.0840525855739103
0.0868073802205754
0.0897991501825474
0.0930342192330196
0.0964259700693878
0.0998702568910732
0.103336872700751
0.107294626249108
0.10810744384085
0.108751636887929
0.109218007804759
0.109499179360481
0.109600069649356
0.109601035683478
0.109588354795505
0.109576377053822
0.109565102689034
0.109554531918298
0.109544664945298
0.109535501960229
0.109527043139775
0.109519288647099
0.109512238631819
0.109505893229997
0.10950025256413
0.10949531674313
0.109491085862319
0.109487560003421
0.109484739234548
0.1094826236102
0.109481213171256
0.109480507944969
0.10948050794497
0.109481213171256
0.1094826236102
0.109484739234548
0.109487560003421
0.10949108586232
0.10949531674313
0.10950025256413
0.109505893229997
0.109512238631818
0.109519288647099
0.109527043139775
0.109535501960228
0.109544664945298
0.109554531918299
0.109565102689035
0.109576377053823
0.109588354795505
0.109601035683478
0.109600069649356
0.10949917936048
0.109218007804759
0.108751636887928
0.10810744384085
0.107294626249108
0.103336872700749
0.0998702568910741
0.0964259700693926
0.0930342192330244
0.0897991501825504
0.0868073802205737
0.0840525855739088
0.0815133732674383
0.0791754278522794
0.0770300046508247
0.0750746493287368
0.0732847462323362
0.0715545779093451
0.069785791857697
0.0679615412790728
0.0660820780557738
0.0641481407931657
0.0621613621742648
0.0601245932308999
0.058059470682951
0.056132754624889
0.054566900820997
0.0534546617921251
0.0528416384023592
0.0528030901052076
0.0534765681706365
0.0550616877116432
0.057800042574902
0.0574102134289444
0.0563046305657763
0.0555222203802213
0.0550427523104831
0.0548078878648544
0.0547418275148456
0.0547403862026812
0.0606568190790922
0.0606584161745413
0.0607316737536637
0.0609922278636118
0.0615243370912568
0.0623929083983784
0.0636202576999654
0.0615499857151754
0.0588917299884219
0.0574707463376453
0.0570193250758878
0.057316637202807
0.0582109143083435
0.0596161276998235
0.0614784007216066
0.063699021414773
0.0660512359977251
0.0683669999809248
0.0706255750059578
0.0728251926102799
0.0749649612488492
0.0770448222427751
0.0790653985599932
0.0810441573446434
0.0830794949098765
0.0852764564932701
0.0876581324162538
0.0902260571862907
0.092987758088838
0.0959565941372591
0.0991530369149224
0.102582139174779
0.106156736355155
0.109771839313924
0.113396584022405
0.117016426438021
0.119792464817044
0.120506009977735
0.121022592926313
0.121334046811522
0.121445824582966
0.12144689969338
0.121432848233737
0.121419575917617
0.121407083000548
0.121395369723157
0.121384436311143
0.121374282975258
0.121364909911284
0.121356317300015
0.121348505307243
0.121341474083736
0.121335223765228
0.121329754472405
0.121325066310891
0.121321159371241
0.121318033728931
0.12131568944435
0.121314126562796
0.121313345114468
0.121313345114468
0.121314126562796
0.12131568944435
0.121318033728931
0.121321159371241
0.121325066310891
0.121329754472405
0.121335223765228
0.121341474083736
0.121348505307243
0.121356317300016
0.121364909911283
0.121374282975258
0.121384436311143
0.121395369723157
0.121407083000548
0.121419575917617
0.121432848233737
0.12144689969338
0.121445824582966
0.121334046811522
0.121022592926313
0.120506009977735
0.119792464817044
0.117016426438019
0.113396584022402
0.109771839313924
0.106156736355159
0.102582139174784
0.099153036914925
0.0959565941372561
0.0929877580888384
0.0902260571862923
0.0876581324162493
0.0852764564932662
0.0830794949098735
0.0810441573446428
0.079065398559995
0.077044822242775
0.0749649612488473
0.0728251926102796
0.0706255750059619
0.0683669999809267
0.0660512359977247
0.0636990214147724
0.0614784007216024