3 	0.00391112967796271 	3.46944695195361e-18 	0.0679325006822518 	7.41489243663805e-06 	843.170669377663 	1.40905882812154e-06 	2.83309629271426e-38
3 	0.0118766651674914 	3.46944695195361e-18 	0.067933421551985 	8.80251849369732e-05 	238.65206399317 	2.65165540291205e-05 	0
3 	0.0201340015485759 	-3.46944695195361e-18 	0.06793448214069 	0.000459257880189533 	62.3923641579371 	0.000164405070418627 	0
3 	0.0286938283423949 	-3.46944695195361e-18 	0.0679327342598455 	0.00134688662137011 	26.7143611159583 	0.00037198973601516 	0
3 	0.0375672266585909 	5.20417042793042e-18 	0.0679275665601331 	0.00261807689644928 	14.4086457105119 	0.000317270462286284 	0
3 	0.0467656835403032 	1.21430643318376e-17 	0.0679187031123395 	0.00394318310332831 	9.10630834323251 	0.000122705293796155 	0
3 	0.0563011068347006 	1.04083408558608e-17 	0.0679058857402832 	0.00515881619895725 	6.49690391622187 	2.1218126721891e-05 	0
3 	0.0661858406082648 	6.93889390390723e-18 	0.0678892168895898 	0.00624516967558618 	5.04525803582539 	1.35066254393005e-05 	0
3 	0.0764326811267815 	0 	0.0678691248163855 	0.00722538711354788 	4.14762031273834 	5.05049005266023e-05 	0
3 	0.0870548934207256 	-1.38777878078145e-17 	0.0678460537065379 	0.00812501066962732 	3.54581700367454 	0.000106193737596572 	0
3 	0.0980662284574837 	-2.08166817117217e-17 	0.0678203430428614 	0.00896376325059808 	3.11763616022715 	0.000170422175226303 	0
3 	0.109480940942647 	-1.90819582357449e-17 	0.067792247942284 	0.00975639634726825 	2.79936249021616 	0.000239413538461968 	0
3 	0.121313807773416 	-2.42861286636753e-17 	0.0677619740273499 	0.01051381072699 	2.55496608066674 	0.000311837752902987 	0
3 	0.13358014716801 	-3.64291929955129e-17 	0.0677296977181433 	0.0112441743777398 	2.36267993203386 	0.000387363849533737 	0
3 	0.146295838495839 	-3.81639164714898e-17 	0.0676955767251027 	0.0119537910634479 	2.20863158806411 	0.000466105515233657 	0
3 	0.159477342834115 	-3.81639164714898e-17 	0.0676597557484042 	0.0126476664729676 	2.08358794914466 	0.000548396005457137 	0
3 	0.173141724277517 	-3.81639164714898e-17 	0.067622371323011 	0.0133298589383282 	1.98118225536919 	0.000634693666400205 	0
3 	0.18730667202848 	-3.81639164714898e-17 	0.0675835569027552 	0.0140037274371462 	1.89689527071292 	0.000725543122393261 	0
3 	0.201990523296728 	-3.46944695195361e-17 	0.0675434481123591 	0.0146721104828163 	1.82744286271319 	0.000821561193165867 	0
3 	0.217212287037675 	-2.77555756156289e-17 	0.0675021876542783 	0.0153374538235601 	1.77039347938276 	0.000923434860745141 	0
3 	0.232991668560441 	-3.12250225675825e-17 	0.0674599300241451 	0.0160019028406904 	1.72392130297813 	0.00103192586554038 	0
3 	0.249349095037321 	-3.81639164714898e-17 	0.0674168472240201 	0.0166673708067089 	1.68664252996511 	0.00114787955242882 	0
3 	0.266305741947753 	-4.16333634234434e-17 	0.0673731360392326 	0.0173355908948034 	1.6575043208092 	0.0012722368590501 	0
3 	0.283883560490998 	-3.46944695195361e-17 	0.0673290270073796 	0.0180081569291565 	1.63570817434628 	0.00140604910010075 	0
3 	0.30210530600303 	-2.08166817117217e-17 	0.0672847954227303 	0.0186865565109262 	1.62065648802486 	0.00155049561516872 	0
3 	0.320994567414413 	-1.38777878078145e-17 	0.0672407747481244 	0.0193721992469824 	1.61191522201879 	0.00170690466097105 	0
3 	0.340575797787321 	-1.04083408558608e-17 	0.067197372935336 	0.0200664422260225 	1.60918813178978 	0.00187677822403843 	0
3 	0.360874345971201 	-2.08166817117217e-17 	0.0671550923513232 	0.0207706146148584 	1.61229964123782 	0.00206182158069047 	0
3 	0.38191648941809 	-3.46944695195361e-17 	0.0671145539276412 	0.0214860431281208 	1.62118447203402 	0.00226397838086091 	0
3 	0.403729468200046 	-3.46944695195361e-17 	0.0670765259973441 	0.0222140800553103 	1.63588283708537 	0.00248547186715968 	0
3 	0.426341520272733 	-2.42861286636753e-17 	0.0670419596506841 	0.0229561354947697 	1.65654046628537 	0.00272885234971607 	0
3 	0.441281546619829 	-1.04083408558608e-17 	0.0670217517923019 	0.0234409145223041 	1.67270454950644 	0.0028967998169404 	0
3 	0.453212556784905 	-3.46944695195361e-18 	0.0670080795544865 	0.0238237229735229 	1.68770072893977 	0.00303736335255358 	0
3 	0.474081006202548 	6.93889390390723e-18 	0.0669880671068023 	0.0244881188333059 	1.71674789887389 	0.00329285875621433 	0
3 	0.499270241132363 	1.04083408558608e-17 	0.0669719027540799 	0.0252815166992092 	1.75717322139238 	0.00362066476588232 	0
3 	0.525382231502763 	1.04083408558608e-17 	0.0669653678544352 	0.0260959341602411 	1.80531042470493 	0.00398480535256634 	0
3 	0.552450780547767 	3.46944695195361e-18 	0.0669708368944947 	0.0269334338104176 	1.86196202703145 	0.00439026948821345 	0
3 	0.580510929812849 	0 	0.0669948018163662 	0.0277960071771857 	1.92810673932471 	0.00486447239633975 	0
3 	0.60959900451791 	1.04083408558608e-17 	0.0670482147602573 	0.0286887807586258 	2.00513269079313 	0.0054677765778439 	0
3 	0.639752660582033 	1.73472347597681e-17 	0.0671336840256316 	0.0296243238443235 	2.09521717684319 	0.00623204463980772 	0
3 	0.671010933370887 	2.08166817117217e-17 	0.0672495710247492 	0.0306144779481717 	2.19993694592696 	0.00717920436905132 	0
3 	0.703414288229901 	3.12250225675825e-17 	0.067403891779973 	0.0316438301034712 	2.31651243941017 	0.00826131911568338 	0
3 	0.737004672868606 	4.5102810375397e-17 	0.0676039449356178 	0.0326605119806892 	2.4358407826406 	0.00936137283376595 	0
3 	0.771825571663976 	4.5102810375397e-17 	0.067853595562009 	0.0335930472966388 	2.54546049061379 	0.0103719598197243 	0
3 	0.807922061953054 	4.16333634234434e-17 	0.0681531185413933 	0.0343709599354893 	2.63507113794346 	0.0112124756690938 	0
3 	0.845340872387743 	4.5102810375397e-17 	0.0684986858523661 	0.0349358963829473 	2.69901229368081 	0.0118229587860115 	0
3 	0.884130443427309 	5.20417042793042e-17 	0.0688841299602708 	0.035243807027443 	2.73478806591105 	0.0121603956767471 	0
3 	0.924340990046898 	5.55111512312578e-17 	0.0693042707796915 	0.0352648896043319 	2.74104973280272 	0.0122000540894749 	0
3 	0.966024566743242 	5.55111512312578e-17 	0.0697576143254287 	0.0349843716947054 	2.71660683168976 	0.0119350952705223 	0
3 	1.00923513492173 	5.55111512312578e-17 	0.0702469819054984 	0.0344046263731265 	2.66023791473603 	0.0113717105212901 	0
3 	1.05402863275206 	5.55111512312578e-17 	0.0707780762012036 	0.0335497993822213 	2.57115646595111 	0.0105270674062951 	0
3 	1.10046304758287 	5.55111512312578e-17 	0.071356849772231 	0.0324729580138996 	2.45026651788393 	0.00943933010238331 	0
3 	1.14859849100923 	5.55111512312578e-17 	0.0719862201990887 	0.0312603774896847 	2.30195656460006 	0.00818743617436073 	0
3 	1.19849727668995 	5.89805981832114e-17 	0.0726617617618653 	0.0300219061214299 	2.13512459577693 	0.00690172435356157 	0
3 	1.25022400101563 	6.17995238316738e-17 	0.073375763330646 	0.0288605146868927 	1.96132607855569 	0.00574820617489577 	0
3 	1.30384562673186 	5.87637577487143e-17 	0.0741708778532928 	0.0278296718901841 	1.78916614058272 	0.00473561158741769 	0
3 	1.35943156962566 	5.50774703622636e-17 	0.075019857063248 	0.026944752473651 	1.62418527811331 	0.00388926675548016 	0
3 	1.41705378838763 	5.03069808033274e-17 	0.0758657128940379 	0.026205878330163 	1.47254489227339 	0.00320854302302008 	0
3 	1.47678687776592 	4.77048955893622e-17 	0.0767152746279445 	0.0255881560284727 	1.33837675960031 	0.0026774871947955 	0
3 	1.53870816513278 	4.5102810375397e-17 	0.0775701087631289 	0.0250472269557587 	1.22235864884786 	0.00228277734596367 	0
3 	1.60289781058851 	3.98986399474666e-17 	0.0784315404576189 	0.0245315427854935 	1.12270842318299 	0.0019933228553709 	0
3 	1.66943891073267 	3.64291929955129e-17 	0.0793011318850989 	0.023993191886716 	1.03644411387213 	0.00177572071854697 	0
3 	1.73841760623657 	3.46944695195361e-17 	0.0801795232408341 	0.0233946825454681 	0.960435457564258 	0.00160186691691067 	0
3 	1.8099231933566 	3.46944695195361e-17 	0.0810658991122973 	0.0227121253778252 	0.892137100111038 	0.00145142890269445 	0
3 	1.88404823953249 	3.12250225675825e-17 	0.081958093895324 	0.0219358148382558 	0.829999257540775 	0.00131237938297967 	0
3 	1.96088870322038 	3.12250225675825e-17 	0.0828482531624467 	0.0210712068194397 	0.773703006247648 	0.00117760633194783 	0
3 	2.04004996790234 	3.46944695195361e-17 	0.0837354371651815 	0.0201419681451576 	0.723357248272193 	0.00104406810705105 	0
3 	2.11873460271874 	3.46944695195361e-17 	0.0845879124106197 	0.0191871527446632 	0.678367704805858 	0.000916691771752553 	0
3 	2.19463865000285 	3.46944695195361e-17 	0.0853810380905642 	0.0182429621307359 	0.637816615544858 	0.000798403815380471 	0
3 	2.26786037121375 	3.12250225675825e-17 	0.0861226738791531 	0.0173288885683104 	0.601005055052041 	0.000689858811887691 	0
3 	2.33849455540975 	2.77555756156289e-17 	0.0868106080262147 	0.0164553745656556 	0.567631136975872 	0.000592323440979292 	0
3 	2.40663264195737 	2.77555756156289e-17 	0.0874481898405847 	0.0156291127368418 	0.537690857090339 	0.000506103934083852 	0
3 	2.47236283890404 	2.77555756156289e-17 	0.0880378500950245 	0.0148546342884404 	0.511419526813118 	0.000430866482810972 	0
3 	2.5357702371677 	2.42861286636753e-17 	0.0885822483894111 	0.0141336071566179 	0.488917575672535 	0.000365768193134457 	0
3 	2.59693692069108 	2.08166817117217e-17 	0.0890843976169318 	0.0134643724646449 	0.469945666255231 	0.000309673470536982 	0
3 	2.65594207270334 	2.08166817117217e-17 	0.0895473689770821 	0.0128432386377077 	0.454082850660853 	0.000261358450169804 	0
3 	2.71286207822659 	2.08166817117217e-17 	0.0899740454403708 	0.0122660573422692 	0.44092945918191 	0.00021968366477696 	0
3 	2.76777062296 	2.08166817117217e-17 	0.0903670874437726 	0.011728875491531 	0.430168082833305 	0.000183675279511747 	0
3 	2.8207387886695 	2.08166817117217e-17 	0.0907289652808771 	0.0112280924078801 	0.421559961948528 	0.000152523859508138 	0
3 	2.87183514520655 	2.08166817117217e-17 	0.0910619803875387 	0.0107605042265996 	0.414932099865799 	0.000125559620315933 	0
3 	2.92112583927514 	2.08166817117217e-17 	0.0913682774423957 	0.0103233028362791 	0.410164573666312 	0.00010223008441761 	0
3 	2.9686746800619 	2.08166817117217e-17 	0.0916498540481226 	0.00991405452197951 	0.407180581128395 	8.20833828926065e-05 	0
