3 	0.00391112967796271 	3.46944695195361e-18 	-0.0281022154493247 	5.62654023754255e-05 	-2.49731531396968e-22
3 	0.0118766651674914 	3.46944695195361e-18 	-0.0790463365382499 	0.000124855498465736 	2.80163123818008e-21
3 	0.0201340015485759 	-3.46944695195361e-18 	-0.122060009415851 	0.000254547297749672 	2.57250670456696e-22
3 	0.0286938283423949 	-3.46944695195361e-18 	-0.153282874862374 	0.0003838713164959 	2.99900207665389e-21
3 	0.0375672266585909 	5.20417042793042e-18 	-0.170724785670904 	0.000446319027847351 	9.98112191751676e-22
3 	0.0467656835403032 	1.21430643318376e-17 	-0.178249303638052 	0.000438882626813329 	-1.44988638161722e-21
3 	0.0563011068347006 	1.04083408558608e-17 	-0.180621525341613 	0.000383565508428169 	-1.10087953314745e-21
3 	0.0661858406082648 	6.93889390390723e-18 	-0.180538658239615 	0.000296465253528912 	3.8672604774668e-18
3 	0.0764326811267815 	0 	-0.179195206494442 	0.000185906657722165 	3.03169570264062e-17
3 	0.0870548934207256 	-1.38777878078145e-17 	-0.177115121693418 	5.63179920486072e-05 	-2.27788493225924e-17
3 	0.0980662284574837 	-2.08166817117217e-17 	-0.174544779179401 	-8.98517414640895e-05 	-3.43310024443356e-18
3 	0.109480940942647 	-1.90819582357449e-17 	-0.17160824341454 	-0.000251296175515535 	6.09053393350115e-23
3 	0.121313807773416 	-2.42861286636753e-17 	-0.168370569127657 	-0.000427399513391225 	1.08255209215594e-17
3 	0.13358014716801 	-3.64291929955129e-17 	-0.164865666040055 	-0.000617990163257497 	1.21546429778747e-17
3 	0.146295838495839 	-3.81639164714898e-17 	-0.161109589801598 	-0.000823210872361594 	-9.12254387839924e-18
3 	0.159477342834115 	-3.81639164714898e-17 	-0.157107334139943 	-0.00104345077730335 	-1.04699854482919e-17
3 	0.173141724277517 	-3.81639164714898e-17 	-0.152856485842943 	-0.00127931257909879 	-5.78607550942757e-22
3 	0.18730667202848 	-3.81639164714898e-17 	-0.14834925873301 	-0.0015315997770427 	-2.59551289260408e-22
3 	0.201990523296728 	-3.46944695195361e-17 	-0.143573641275011 	-0.00180131604992991 	1.01598677366108e-21
3 	0.217212287037675 	-2.77555756156289e-17 	-0.138514030893857 	-0.00208967356513529 	1.9341415582932e-22
3 	0.232991668560441 	-3.12250225675825e-17 	-0.133151552332785 	-0.00239810852832309 	0
3 	0.249349095037321 	-3.81639164714898e-17 	-0.127464167991681 	-0.00272830329868147 	-9.24790633798042e-23
3 	0.266305741947753 	-4.16333634234434e-17 	-0.121426640656121 	-0.00308221444693529 	-5.80763250706732e-22
3 	0.283883560490998 	-3.46944695195361e-17 	-0.115010381894265 	-0.00346210613384821 	-6.49822313401355e-22
3 	0.30210530600303 	-2.08166817117217e-17 	-0.108183202977306 	-0.003870588592982 	-3.78130503476027e-22
3 	0.320994567414413 	-1.38777878078145e-17 	-0.100908974628917 	-0.0043106615140748 	5.81761593721133e-22
3 	0.340575797787321 	-1.04083408558608e-17 	-0.0931471940695611 	-0.00478576197115096 	1.01550392694245e-21
3 	0.360874345971201 	-2.08166817117217e-17 	-0.0848524513226666 	-0.00529981613192512 	9.50692075345239e-18
3 	0.38191648941809 	-3.46944695195361e-17 	-0.0759737811973584 	-0.00585729332244102 	1.59753672871249e-17
3 	0.403729468200046 	-3.46944695195361e-17 	-0.0664538821281036 	-0.00646326029971997 	-1.51395264216053e-17
3 	0.426341520272733 	-2.42861286636753e-17 	-0.0562281778864586 	-0.00712343193636452 	-1.07466415187274e-17
3 	0.441281546619829 	-1.04083408558608e-17 	-0.049289525232423 	-0.00757598895149646 	-1.20035470617085e-22
3 	0.453212556784905 	-3.46944695195361e-18 	-0.0435872185314634 	-0.00795209806478089 	-6.23659282019367e-22
3 	0.474081006202548 	6.93889390390723e-18 	-0.0333747395308141 	-0.00863129846569488 	2.21752978150928e-17
3 	0.499270241132363 	1.04083408558608e-17 	-0.020571372750542 	-0.0094937935100418 	2.689029849844e-17
3 	0.525382231502763 	1.04083408558608e-17 	-0.006709886464991 	-0.0104400883973941 	-3.13147970361957e-17
3 	0.552450780547767 	3.46944695195361e-18 	0.00833129831178587 	-0.0114799011501677 	-2.05245046468052e-17
3 	0.580510929812849 	0 	0.0246919844701301 	-0.0126207446785806 	9.01965478785578e-22
3 	0.60959900451791 	1.04083408558608e-17 	0.0426049214069551 	-0.0138699868647947 	-4.87078482457093e-22
3 	0.639752660582033 	1.73472347597681e-17 	0.0625995997181385 	-0.0152544630557094 	-4.95784925105427e-22
3 	0.671010933370887 	2.08166817117217e-17 	0.0854873479442199 	-0.0168100887494738 	1.02132313359308e-21
3 	0.703414288229901 	3.12250225675825e-17 	0.111952777197238 	-0.0185606566741586 	-4.88619464136365e-22
3 	0.737004672868606 	4.5102810375397e-17 	0.142292656031024 	-0.0204869069503803 	-3.55481047911607e-21
3 	0.771825571663976 	4.5102810375397e-17 	0.176466036055999 	-0.0225331397241095 	-2.78664569707535e-21
3 	0.807922061953054 	4.16333634234434e-17 	0.214207720784489 	-0.0246233947525631 	-9.13255254165185e-21
3 	0.845340872387743 	4.5102810375397e-17 	0.255097249711326 	-0.0266758891179672 	-9.03387544262588e-18
3 	0.884130443427309 	5.20417042793042e-17 	0.298585926695187 	-0.0286149896677267 	-8.00599182391079e-18
3 	0.924340990046898 	5.55111512312578e-17 	0.3440190661825 	-0.030377907420185 	7.61685068336377e-18
3 	0.966024566743242 	5.55111512312578e-17 	0.390666784004844 	-0.0319142902696392 	6.51119080073797e-18
3 	1.00923513492173 	5.55111512312578e-17 	0.437743222434851 	-0.0331809740130166 	-6.0911012861857e-22
3 	1.05402863275206 	5.55111512312578e-17 	0.484395276728227 	-0.0341379666364286 	-9.02454341599173e-21
3 	1.10046304758287 	5.55111512312578e-17 	0.529679494593993 	-0.0347516059104502 	-1.78651896494534e-20
3 	1.14859849100923 	5.55111512312578e-17 	0.572591260881008 	-0.0350065790407747 	-4.89051936457633e-22
3 	1.19849727668995 	5.89805981832114e-17 	0.612225199638387 	-0.0349235746735187 	-1.79425089585876e-20
3 	1.25022400101563 	6.17995238316738e-17 	0.648077513330886 	-0.034566124357411 	1.76126131835657e-20
3 	1.30384562673186 	5.87637577487143e-17 	0.680436445664938 	-0.0339487748798716 	3.08227979423599e-20
3 	1.35943156962566 	5.50774703622636e-17 	0.709980676721939 	-0.0331629612851132 	-1.34718254116559e-20
3 	1.41705378838763 	5.03069808033274e-17 	0.736915565937905 	-0.0322719735071985 	2.31785654730715e-20
3 	1.47678687776592 	4.77048955893622e-17 	0.761499297528366 	-0.0313746321733793 	5.59153415194557e-22
3 	1.53870816513278 	4.5102810375397e-17 	0.784153928327016 	-0.0305054321951649 	-8.38109271251272e-22
3 	1.60289781058851 	3.98986399474666e-17 	0.805319560887655 	-0.0296657722541288 	-1.46025156886485e-20
3 	1.66943891073267 	3.64291929955129e-17 	0.825366497882203 	-0.028838692483517 	2.40918643949862e-21
3 	1.73841760623657 	3.46944695195361e-17 	0.844560294698172 	-0.0280002860338792 	9.9599218026258e-21
3 	1.8099231933566 	3.46944695195361e-17 	0.863062077096584 	-0.0271279352082498 	1.22771151825358e-21
3 	1.88404823953249 	3.12250225675825e-17 	0.880950139321301 	-0.0262049437253263 	-1.12677639161727e-21
3 	1.96088870322038 	3.12250225675825e-17 	0.898236622108022 	-0.0252238982546672 	-2.53776526459933e-21
3 	2.04004996790234 	3.46944695195361e-17 	0.914737518088691 	-0.0242014284974103 	0
3 	2.11873460271874 	3.46944695195361e-17 	0.930036290897786 	-0.0231600394025022 	0
3 	2.19463865000285 	3.46944695195361e-17 	0.943843587191154 	-0.0221335536786554 	0
3 	2.26786037121375 	3.12250225675825e-17 	0.956185076630421 	-0.0211450531296007 	0
3 	2.33849455540975 	2.77555756156289e-17 	0.967193208105289 	-0.0201954390621324 	0
3 	2.40663264195737 	2.77555756156289e-17 	0.976997241580757 	-0.0192896870202209 	0
3 	2.47236283890404 	2.77555756156289e-17 	0.985723357054864 	-0.0184295407479446 	0
3 	2.5357702371677 	2.42861286636753e-17 	0.993491917625888 	-0.0176151912962538 	0
3 	2.59693692069108 	2.08166817117217e-17 	1.00041237250488 	-0.0168456326028682 	0
3 	2.65594207270334 	2.08166817117217e-17 	1.00657989534813 	-0.0161191085004875 	0
3 	2.71286207822659 	2.08166817117217e-17 	1.01207546658416 	-0.0154334520246259 	0
3 	2.76777062296 	2.08166817117217e-17 	1.01696774921693 	-0.0147863064367506 	0
3 	2.8207387886695 	2.08166817117217e-17 	1.02131507702541 	-0.0141752467396862 	0
3 	2.87183514520655 	2.08166817117217e-17 	1.02516706388223 	-0.0135978460685345 	0
3 	2.92112583927514 	2.08166817117217e-17 	1.02856583948984 	-0.0130517222511424 	0
3 	2.9686746800619 	2.08166817117217e-17 	1.03154699990064 	-0.0125345750380204 	0
