# omega  FACE_DATA 3025
#  x  y  z  omega
0.0005 4.56962e-05 4.56962e-05 49023.2
0.0005 0.000132935 4.56962e-05 51005.1
0.0005 0.000212242 4.56962e-05 54542.9
0.0005 0.00028434 4.56962e-05 59369.1
0.0005 0.000349883 4.56962e-05 65344.3
0.0005 0.000409468 4.56962e-05 72428
0.0005 0.000463636 4.56962e-05 80653.7
0.0005 0.00051288 4.56962e-05 90107.5
0.0005 0.000557647 4.56962e-05 100913
0.0005 0.000598344 4.56962e-05 113221
0.0005 0.000635342 4.56962e-05 127203
0.0005 0.000668976 4.56962e-05 143051
0.0005 0.000699553 4.56962e-05 160977
0.0005 0.000727349 4.56962e-05 181219
0.0005 0.000752619 4.56962e-05 204046
0.0005 0.000775592 4.56962e-05 229770
0.0005 0.000796476 4.56962e-05 258754
0.0005 0.000815462 4.56962e-05 291426
0.0005 0.000832721 4.56962e-05 328295
0.0005 0.000848412 4.56962e-05 369966
0.0005 0.000862676 4.56962e-05 417204
0.0005 0.000875643 4.56962e-05 470916
0.0005 0.000887432 4.56962e-05 532090
0.0005 0.000898149 4.56962e-05 601853
0.0005 0.000907891 4.56962e-05 681557
0.0005 0.000916748 4.56962e-05 772845
0.0005 0.0009248 4.56962e-05 877696
0.0005 0.00093212 4.56962e-05 998475
0.0005 0.000938774 4.56962e-05 1.13797e+06
0.0005 0.000944824 4.56962e-05 1.29946e+06
0.0005 0.000950323 4.56962e-05 1.48676e+06
0.0005 0.000955322 4.56962e-05 1.70428e+06
0.0005 0.000959867 4.56962e-05 1.95716e+06
0.0005 0.000963999 4.56962e-05 2.25146e+06
0.0005 0.000967755 4.56962e-05 2.59452e+06
0.0005 0.00097117 4.56962e-05 2.99582e+06
0.0005 0.000974275 4.56962e-05 3.46857e+06
0.0005 0.000977097 4.56962e-05 4.03245e+06
0.0005 0.000979662 4.56962e-05 4.71724e+06
0.0005 0.000981994 4.56962e-05 5.56692e+06
0.0005 0.000984115 4.56962e-05 6.65044e+06
0.0005 0.000986042 4.56962e-05 8.07997e+06
0.0005 0.000987795 4.56962e-05 1.00329e+07
0.0005 0.000989388 4.56962e-05 1.27837e+07
0.0005 0.000990836 4.56962e-05 1.67598e+07
0.0005 0.000992152 4.56962e-05 2.26493e+07
0.0005 0.000993349 4.56962e-05 3.1619e+07
0.0005 0.000994437 4.56962e-05 4.57763e+07
0.0005 0.000995426 4.56962e-05 6.92211e+07
0.0005 0.000996325 4.56962e-05 1.10691e+08
0.0005 0.000997143 4.56962e-05 1.91165e+08
0.0005 0.000997886 4.56962e-05 3.69941e+08
0.0005 0.000998562 4.56962e-05 8.59576e+08
0.0005 0.000999176 4.56962e-05 2.76451e+09
0.0005 0.000999734 4.56962e-05 1.69758e+10
0.0005 4.56962e-05 0.000132935 51005.1
0.0005 0.000132935 0.000132935 53005.9
0.0005 0.000212242 0.000132935 56566.9
0.0005 0.00028434 0.000132935 61406.5
0.0005 0.000349883 0.000132935 67372.3
0.0005 0.000409468 0.000132935 74413.1
0.0005 0.000463636 0.000132935 82554.9
0.0005 0.00051288 0.000132935 91879.4
0.0005 0.000557647 0.000132935 102510
0.0005 0.000598344 0.000132935 114599
0.0005 0.000635342 0.000132935 128326
0.0005 0.000668976 0.000132935 143891
0.0005 0.000699553 0.000132935 161515
0.0005 0.000727349 0.000132935 181447
0.0005 0.000752619 0.000132935 203966
0.0005 0.000775592 0.000132935 229390
0.0005 0.000796476 0.000132935 258086
0.0005 0.000815462 0.000132935 290485
0.0005 0.000832721 0.000132935 327094
0.0005 0.000848412 0.000132935 368513
0.0005 0.000862676 0.000132935 415464
0.0005 0.000875643 0.000132935 468862
0.0005 0.000887432 0.000132935 529770
0.0005 0.000898149 0.000132935 599332
0.0005 0.000907891 0.000132935 678894
0.0005 0.000916748 0.000132935 770079
0.0005 0.0009248 0.000132935 874845
0.0005 0.00093212 0.000132935 995538
0.0005 0.000938774 0.000132935 1.13493e+06
0.0005 0.000944824 0.000132935 1.29629e+06
0.0005 0.000950323 0.000132935 1.4834e+06
0.0005 0.000955322 0.000132935 1.70068e+06
0.0005 0.000959867 0.000132935 1.95324e+06
0.0005 0.000963999 0.000132935 2.24712e+06
0.0005 0.000967755 0.000132935 2.58965e+06
0.0005 0.00097117 0.000132935 2.99032e+06
0.0005 0.000974275 0.000132935 3.46232e+06
0.0005 0.000977097 0.000132935 4.02541e+06
0.0005 0.000979662 0.000132935 4.70937e+06
0.0005 0.000981994 0.000132935 5.55825e+06
0.0005 0.000984115 0.000132935 6.64116e+06
0.0005 0.000986042 0.000132935 8.07048e+06
0.0005 0.000987795 0.000132935 1.00237e+07
0.0005 0.000989388 0.000132935 1.27753e+07
0.0005 0.000990836 0.000132935 1.67526e+07
0.0005 0.000992152 0.000132935 2.26434e+07
0.0005 0.000993349 0.000132935 3.16143e+07
0.0005 0.000994437 0.000132935 4.57729e+07
0.0005 0.000995426 0.000132935 6.92187e+07
0.0005 0.000996325 0.000132935 1.1069e+08
0.0005 0.000997143 0.000132935 1.91164e+08
0.0005 0.000997886 0.000132935 3.69941e+08
0.0005 0.000998562 0.000132935 8.59576e+08
0.0005 0.000999176 0.000132935 2.76451e+09
0.0005 0.000999734 0.000132935 1.69758e+10
0.0005 4.56962e-05 0.000212242 54542.9
0.0005 0.000132935 0.000212242 56566.9
0.0005 0.000212242 0.000212242 60155.8
0.0005 0.00028434 0.000212242 65006.8
0.0005 0.000349883 0.000212242 70948.5
0.0005 0.000409468 0.000212242 77913.9
0.0005 0.000463636 0.000212242 85916.9
0.0005 0.00051288 0.000212242 95031.9
0.0005 0.000557647 0.000212242 105379
0.0005 0.000598344 0.000212242 117114
0.0005 0.000635342 0.000212242 130422
0.0005 0.000668976 0.000212242 145515
0.0005 0.000699553 0.000212242 162629
0.0005 0.000727349 0.000212242 182027
0.0005 0.000752619 0.000212242 204005
0.0005 0.000775592 0.000212242 228894
0.0005 0.000796476 0.000212242 257072
0.0005 0.000815462 0.000212242 288975
0.0005 0.000832721 0.000212242 325110
0.0005 0.000848412 0.000212242 366077
0.0005 0.000862676 0.000212242 412585
0.0005 0.000875643 0.000212242 465482
0.0005 0.000887432 0.000212242 525850
0.0005 0.000898149 0.000212242 594957
0.0005 0.000907891 0.000212242 674175
0.0005 0.000916748 0.000212242 765107
0.0005 0.0009248 0.000212242 869676
0.0005 0.00093212 0.000212242 990189
0.0005 0.000938774 0.000212242 1.12939e+06
0.0005 0.000944824 0.000212242 1.29049e+06
0.0005 0.000950323 0.000212242 1.47728e+06
0.0005 0.000955322 0.000212242 1.69413e+06
0.0005 0.000959867 0.000212242 1.94612e+06
0.0005 0.000963999 0.000212242 2.23925e+06
0.0005 0.000967755 0.000212242 2.58085e+06
0.0005 0.00097117 0.000212242 2.98039e+06
0.0005 0.000974275 0.000212242 3.45109e+06
0.0005 0.000977097 0.000212242 4.01277e+06
0.0005 0.000979662 0.000212242 4.69527e+06
0.0005 0.000981994 0.000212242 5.54273e+06
0.0005 0.000984115 0.000212242 6.6246e+06
0.0005 0.000986042 0.000212242 8.05356e+06
0.0005 0.000987795 0.000212242 1.00073e+07
0.0005 0.000989388 0.000212242 1.27603e+07
0.0005 0.000990836 0.000212242 1.67397e+07
0.0005 0.000992152 0.000212242 2.26328e+07
0.0005 0.000993349 0.000212242 3.16061e+07
0.0005 0.000994437 0.000212242 4.57669e+07
0.0005 0.000995426 0.000212242 6.92145e+07
0.0005 0.000996325 0.000212242 1.10687e+08
0.0005 0.000997143 0.000212242 1.91162e+08
0.0005 0.000997886 0.000212242 3.6994e+08
0.0005 0.000998562 0.000212242 8.59575e+08
0.0005 0.000999176 0.000212242 2.76451e+09
0.0005 0.000999734 0.000212242 1.69758e+10
0.0005 4.56962e-05 0.00028434 59369.1
0.0005 0.000132935 0.00028434 61406.5
0.0005 0.000212242 0.00028434 65006.8
0.0005 0.00028434 0.00028434 69848.4
0.0005 0.000349883 0.00028434 75741.1
0.0005 0.000409468 0.00028434 82602.1
0.0005 0.000463636 0.00028434 90432.1
0.0005 0.00051288 0.00028434 99296.2
0.0005 0.000557647 0.00028434 109309
0.0005 0.000598344 0.00028434 120624
0.0005 0.000635342 0.00028434 133431
0.0005 0.000668976 0.00028434 147948
0.0005 0.000699553 0.00028434 164426
0.0005 0.000727349 0.00028434 183144
0.0005 0.000752619 0.00028434 204414
0.0005 0.000775592 0.00028434 228587
0.0005 0.000796476 0.00028434 256056
0.0005 0.000815462 0.00028434 287269
0.0005 0.000832721 0.00028434 322741
0.0005 0.000848412 0.00028434 363072
0.0005 0.000862676 0.00028434 408969
0.0005 0.000875643 0.00028434 461271
0.0005 0.000887432 0.00028434 520980
0.0005 0.000898149 0.00028434 589367
0.0005 0.000907891 0.00028434 667948
0.0005 0.000916748 0.00028434 758380
0.0005 0.0009248 0.00028434 862563
0.0005 0.00093212 0.00028434 982755
0.0005 0.000938774 0.00028434 1.12164e+06
0.0005 0.000944824 0.00028434 1.28239e+06
0.0005 0.000950323 0.00028434 1.46873e+06
0.0005 0.000955322 0.00028434 1.68499e+06
0.0005 0.000959867 0.00028434 1.93622e+06
0.0005 0.000963999 0.00028434 2.22836e+06
0.0005 0.000967755 0.00028434 2.56871e+06
0.0005 0.00097117 0.00028434 2.96671e+06
0.0005 0.000974275 0.00028434 3.43566e+06
0.0005 0.000977097 0.00028434 3.99546e+06
0.0005 0.000979662 0.00028434 4.67601e+06
0.0005 0.000981994 0.00028434 5.52161e+06
0.0005 0.000984115 0.00028434 6.60211e+06
0.0005 0.000986042 0.00028434 8.03067e+06
0.0005 0.000987795 0.00028434 9.98522e+06
0.0005 0.000989388 0.00028434 1.27402e+07
0.0005 0.000990836 0.00028434 1.67223e+07
0.0005 0.000992152 0.00028434 2.26187e+07
0.0005 0.000993349 0.00028434 3.15952e+07
0.0005 0.000994437 0.00028434 4.57588e+07
0.0005 0.000995426 0.00028434 6.92089e+07
0.0005 0.000996325 0.00028434 1.10683e+08
0.0005 0.000997143 0.00028434 1.9116e+08
0.0005 0.000997886 0.00028434 3.69939e+08
0.0005 0.000998562 0.00028434 8.59575e+08
0.0005 0.000999176 0.00028434 2.76451e+09
0.0005 0.000999734 0.00028434 1.69758e+10
0.0005 4.56962e-05 0.000349883 65344.3
0.0005 0.000132935 0.000349883 67372.3
0.0005 0.000212242 0.000349883 70948.5
0.0005 0.00028434 0.000349883 75741.1
0.0005 0.000349883 0.000349883 81547.8
0.0005 0.000409468 0.000349883 88272.5
0.0005 0.000463636 0.000349883 95904.5
0.0005 0.00051288 0.000349883 104499
0.0005 0.000557647 0.000349883 114163
0.0005 0.000598344 0.000349883 125044
0.0005 0.000635342 0.000349883 137329
0.0005 0.000668976 0.000349883 151236
0.0005 0.000699553 0.000349883 167021
0.0005 0.000727349 0.000349883 184978
0.0005 0.000752619 0.000349883 205435
0.0005 0.000775592 0.000349883 228761
0.0005 0.000796476 0.000349883 255370
0.0005 0.000815462 0.000349883 285725
0.0005 0.000832721 0.000349883 320357
0.0005 0.000848412 0.000349883 359873
0.0005 0.000862676 0.000349883 404984
0.0005 0.000875643 0.000349883 456525
0.0005 0.000887432 0.000349883 515486
0.0005 0.000898149 0.000349883 583056
0.0005 0.000907891 0.000349883 660741
0.0005 0.000916748 0.000349883 750353
0.0005 0.0009248 0.000349883 853869
0.0005 0.00093212 0.000349883 973520
0.0005 0.000938774 0.000349883 1.11193e+06
0.0005 0.000944824 0.000349883 1.27219e+06
0.0005 0.000950323 0.000349883 1.45796e+06
0.0005 0.000955322 0.000349883 1.6735e+06
0.0005 0.000959867 0.000349883 1.92379e+06
0.0005 0.000963999 0.000349883 2.21473e+06
0.0005 0.000967755 0.000349883 2.55357e+06
0.0005 0.00097117 0.000349883 2.94974e+06
0.0005 0.000974275 0.000349883 3.41658e+06
0.0005 0.000977097 0.000349883 3.97414e+06
0.0005 0.000979662 0.000349883 4.65239e+06
0.0005 0.000981994 0.000349883 5.49579e+06
0.0005 0.000984115 0.000349883 6.57474e+06
0.0005 0.000986042 0.000349883 8.00291e+06
0.0005 0.000987795 0.000349883 9.95853e+06
0.0005 0.000989388 0.000349883 1.2716e+07
0.0005 0.000990836 0.000349883 1.67015e+07
0.0005 0.000992152 0.000349883 2.26017e+07
0.0005 0.000993349 0.000349883 3.1582e+07
0.0005 0.000994437 0.000349883 4.57491e+07
0.0005 0.000995426 0.000349883 6.92021e+07
0.0005 0.000996325 0.000349883 1.10679e+08
0.0005 0.000997143 0.000349883 1.91157e+08
0.0005 0.000997886 0.000349883 3.69937e+08
0.0005 0.000998562 0.000349883 8.59574e+08
0.0005 0.000999176 0.000349883 2.76451e+09
0.0005 0.000999734 0.000349883 1.69758e+10
0.0005 4.56962e-05 0.000409468 72428
0.0005 0.000132935 0.000409468 74413.1
0.0005 0.000212242 0.000409468 77913.9
0.0005 0.00028434 0.000409468 82602.1
0.0005 0.000349883 0.000409468 88272.5
0.0005 0.000409468 0.000409468 94821.9
0.0005 0.000463636 0.000409468 102230
0.0005 0.00051288 0.000409468 110543
0.0005 0.000557647 0.000409468 119861
0.0005 0.000598344 0.000409468 130324
0.0005 0.000635342 0.000409468 142107
0.0005 0.000668976 0.000409468 155420
0.0005 0.000699553 0.000409468 170512
0.0005 0.000727349 0.000409468 187682
0.0005 0.000752619 0.000409468 207271
0.0005 0.000775592 0.000409468 229666
0.0005 0.000796476 0.000409468 255301
0.0005 0.000815462 0.000409468 284661
0.0005 0.000832721 0.000409468 318293
0.0005 0.000848412 0.000409468 356823
0.0005 0.000862676 0.000409468 400967
0.0005 0.000875643 0.000409468 451566
0.0005 0.000887432 0.000409468 509606
0.0005 0.000898149 0.000409468 576264
0.0005 0.000907891 0.000409468 652948
0.0005 0.000916748 0.000409468 741464
0.0005 0.0009248 0.000409468 843971
0.0005 0.00093212 0.000409468 962777
0.0005 0.000938774 0.000409468 1.10047e+06
0.0005 0.000944824 0.000409468 1.26005e+06
0.0005 0.000950323 0.000409468 1.4451e+06
0.0005 0.000955322 0.000409468 1.65978e+06
0.0005 0.000959867 0.000409468 1.90899e+06
0.0005 0.000963999 0.000409468 2.19856e+06
0.0005 0.000967755 0.000409468 2.53568e+06
0.0005 0.00097117 0.000409468 2.92977e+06
0.0005 0.000974275 0.000409468 3.39423e+06
0.0005 0.000977097 0.000409468 3.94928e+06
0.0005 0.000979662 0.000409468 4.62497e+06
0.0005 0.000981994 0.000409468 5.46596e+06
0.0005 0.000984115 0.000409468 6.54325e+06
0.0005 0.000986042 0.000409468 7.97112e+06
0.0005 0.000987795 0.000409468 9.9281e+06
0.0005 0.000989388 0.000409468 1.26884e+07
0.0005 0.000990836 0.000409468 1.66779e+07
0.0005 0.000992152 0.000409468 2.25825e+07
0.0005 0.000993349 0.000409468 3.15671e+07
0.0005 0.000994437 0.000409468 4.57382e+07
0.0005 0.000995426 0.000409468 6.91945e+07
0.0005 0.000996325 0.000409468 1.10674e+08
0.0005 0.000997143 0.000409468 1.91154e+08
0.0005 0.000997886 0.000409468 3.69936e+08
0.0005 0.000998562 0.000409468 8.59574e+08
0.0005 0.000999176 0.000409468 2.76451e+09
0.0005 0.000999734 0.000409468 1.69758e+10
0.0005 4.56962e-05 0.000463636 80653.7
0.0005 0.000132935 0.000463636 82554.9
0.0005 0.000212242 0.000463636 85916.9
0.0005 0.00028434 0.000463636 90432.1
0.0005 0.000349883 0.000463636 95904.5
0.0005 0.000409468 0.000463636 102230
0.0005 0.000463636 0.000463636 109381
0.0005 0.00051288 0.000463636 117396
0.0005 0.000557647 0.000463636 126371
0.0005 0.000598344 0.000463636 136441
0.0005 0.000635342 0.000463636 147768
0.0005 0.000668976 0.000463636 160535
0.0005 0.000699553 0.000463636 174971
0.0005 0.000727349 0.000463636 191367
0.0005 0.000752619 0.000463636 210076
0.0005 0.000775592 0.000463636 231498
0.0005 0.000796476 0.000463636 256086
0.0005 0.000815462 0.000463636 284345
0.0005 0.000832721 0.000463636 316844
0.0005 0.000848412 0.000463636 354228
0.0005 0.000862676 0.000463636 397231
0.0005 0.000875643 0.000463636 446702
0.0005 0.000887432 0.000463636 503633
0.0005 0.000898149 0.000463636 569195
0.0005 0.000907891 0.000463636 644781
0.0005 0.000916748 0.000463636 732067
0.0005 0.0009248 0.000463636 833239
0.0005 0.00093212 0.000463636 950847
0.0005 0.000938774 0.000463636 1.08751e+06
0.0005 0.000944824 0.000463636 1.24618e+06
0.0005 0.000950323 0.000463636 1.43031e+06
0.0005 0.000955322 0.000463636 1.64397e+06
0.0005 0.000959867 0.000463636 1.89194e+06
0.0005 0.000963999 0.000463636 2.17998e+06
0.0005 0.000967755 0.000463636 2.51519e+06
0.0005 0.00097117 0.000463636 2.90701e+06
0.0005 0.000974275 0.000463636 3.36888e+06
0.0005 0.000977097 0.000463636 3.92122e+06
0.0005 0.000979662 0.000463636 4.59417e+06
0.0005 0.000981994 0.000463636 5.43264e+06
0.0005 0.000984115 0.000463636 6.50828e+06
0.0005 0.000986042 0.000463636 7.936e+06
0.0005 0.000987795 0.000463636 9.89463e+06
0.0005 0.000989388 0.000463636 1.26582e+07
0.0005 0.000990836 0.000463636 1.66521e+07
0.0005 0.000992152 0.000463636 2.25615e+07
0.0005 0.000993349 0.000463636 3.1551e+07
0.0005 0.000994437 0.000463636 4.57263e+07
0.0005 0.000995426 0.000463636 6.91863e+07
0.0005 0.000996325 0.000463636 1.10669e+08
0.0005 0.000997143 0.000463636 1.91151e+08
0.0005 0.000997886 0.000463636 3.69934e+08
0.0005 0.000998562 0.000463636 8.59573e+08
0.0005 0.000999176 0.000463636 2.76451e+09
0.0005 0.000999734 0.000463636 1.69758e+10
0.0005 4.56962e-05 0.00051288 90107.5
0.0005 0.000132935 0.00051288 91879.4
0.0005 0.000212242 0.00051288 95031.9
0.0005 0.00028434 0.00051288 99296.2
0.0005 0.000349883 0.00051288 104499
0.0005 0.000409468 0.00051288 110543
0.0005 0.000463636 0.00051288 117396
0.0005 0.00051288 0.00051288 125089
0.0005 0.000557647 0.00051288 133712
0.0005 0.000598344 0.00051288 143414
0.0005 0.000635342 0.00051288 154335
0.0005 0.000668976 0.00051288 166617
0.0005 0.000699553 0.00051288 180447
0.0005 0.000727349 0.00051288 196106
0.0005 0.000752619 0.00051288 213954
0.0005 0.000775592 0.00051288 234395
0.0005 0.000796476 0.00051288 257898
0.0005 0.000815462 0.00051288 284988
0.0005 0.000832721 0.00051288 316253
0.0005 0.000848412 0.00051288 352359
0.0005 0.000862676 0.00051288 394060
0.0005 0.000875643 0.00051288 442222
0.0005 0.000887432 0.00051288 497849
0.0005 0.000898149 0.00051288 562114
0.0005 0.000907891 0.00051288 636408
0.0005 0.000916748 0.00051288 722387
0.0005 0.0009248 0.00051288 822094
0.0005 0.00093212 0.00051288 938120
0.0005 0.000938774 0.00051288 1.07336e+06
0.0005 0.000944824 0.00051288 1.23077e+06
0.0005 0.000950323 0.00051288 1.41373e+06
0.0005 0.000955322 0.00051288 1.62616e+06
0.0005 0.000959867 0.00051288 1.87273e+06
0.0005 0.000963999 0.00051288 2.15907e+06
0.0005 0.000967755 0.00051288 2.49222e+06
0.0005 0.00097117 0.00051288 2.8816e+06
0.0005 0.000974275 0.00051288 3.34071e+06
0.0005 0.000977097 0.00051288 3.8902e+06
0.0005 0.000979662 0.00051288 4.56033e+06
0.0005 0.000981994 0.00051288 5.39623e+06
0.0005 0.000984115 0.00051288 6.47028e+06
0.0005 0.000986042 0.00051288 7.89805e+06
0.0005 0.000987795 0.00051288 9.85865e+06
0.0005 0.000989388 0.00051288 1.26259e+07
0.0005 0.000990836 0.00051288 1.66246e+07
0.0005 0.000992152 0.00051288 2.25393e+07
0.0005 0.000993349 0.00051288 3.15338e+07
0.0005 0.000994437 0.00051288 4.57137e+07
0.0005 0.000995426 0.00051288 6.91776e+07
0.0005 0.000996325 0.00051288 1.10663e+08
0.0005 0.000997143 0.00051288 1.91148e+08
0.0005 0.000997886 0.00051288 3.69932e+08
0.0005 0.000998562 0.00051288 8.59572e+08
0.0005 0.000999176 0.00051288 2.76451e+09
0.0005 0.000999734 0.00051288 1.69758e+10
0.0005 4.56962e-05 0.000557647 100913
0.0005 0.000132935 0.000557647 102510
0.0005 0.000212242 0.000557647 105379
0.0005 0.00028434 0.000557647 109309
0.0005 0.000349883 0.000557647 114163
0.0005 0.000409468 0.000557647 119861
0.0005 0.000463636 0.000557647 126371
0.0005 0.00051288 0.000557647 133712
0.0005 0.000557647 0.000557647 141991
0.0005 0.000598344 0.000557647 151339
0.0005 0.000635342 0.000557647 161850
0.0005 0.000668976 0.000557647 173654
0.0005 0.000699553 0.000557647 186938
0.0005 0.000727349 0.000557647 201940
0.0005 0.000752619 0.000557647 218969
0.0005 0.000775592 0.000557647 238445
0.0005 0.000796476 0.000557647 260861
0.0005 0.000815462 0.000557647 286753
0.0005 0.000832721 0.000557647 316723
0.0005 0.000848412 0.000557647 351454
0.0005 0.000862676 0.000557647 391721
0.0005 0.000875643 0.000557647 438413
0.0005 0.000887432 0.000557647 492548
0.0005 0.000898149 0.000557647 555313
0.0005 0.000907891 0.000557647 628101
0.0005 0.000916748 0.000557647 712559
0.0005 0.0009248 0.000557647 810661
0.0005 0.00093212 0.000557647 924909
0.0005 0.000938774 0.000557647 1.05833e+06
0.0005 0.000944824 0.000557647 1.21411e+06
0.0005 0.000950323 0.000557647 1.39557e+06
0.0005 0.000955322 0.000557647 1.60652e+06
0.0005 0.000959867 0.000557647 1.85148e+06
0.0005 0.000963999 0.000557647 2.13596e+06
0.0005 0.000967755 0.000557647 2.4669e+06
0.0005 0.00097117 0.000557647 2.85368e+06
0.0005 0.000974275 0.000557647 3.30991e+06
0.0005 0.000977097 0.000557647 3.85647e+06
0.0005 0.000979662 0.000557647 4.52373e+06
0.0005 0.000981994 0.000557647 5.3571e+06
0.0005 0.000984115 0.000557647 6.4297e+06
0.0005 0.000986042 0.000557647 7.85776e+06
0.0005 0.000987795 0.000557647 9.82067e+06
0.0005 0.000989388 0.000557647 1.2592e+07
0.0005 0.000990836 0.000557647 1.65958e+07
0.0005 0.000992152 0.000557647 2.2516e+07
0.0005 0.000993349 0.000557647 3.15159e+07
0.0005 0.000994437 0.000557647 4.57006e+07
0.0005 0.000995426 0.000557647 6.91685e+07
0.0005 0.000996325 0.000557647 1.10657e+08
0.0005 0.000997143 0.000557647 1.91144e+08
0.0005 0.000997886 0.000557647 3.69931e+08
0.0005 0.000998562 0.000557647 8.59571e+08
0.0005 0.000999176 0.000557647 2.76451e+09
0.0005 0.000999734 0.000557647 1.69758e+10
0.0005 4.56962e-05 0.000598344 113221
0.0005 0.000132935 0.000598344 114599
0.0005 0.000212242 0.000598344 117114
0.0005 0.00028434 0.000598344 120624
0.0005 0.000349883 0.000598344 125044
0.0005 0.000409468 0.000598344 130324
0.0005 0.000463636 0.000598344 136441
0.0005 0.00051288 0.000598344 143414
0.0005 0.000557647 0.000598344 151339
0.0005 0.000598344 0.000598344 160300
0.0005 0.000635342 0.000598344 170376
0.0005 0.000668976 0.000598344 181693
0.0005 0.000699553 0.000598344 194427
0.0005 0.000727349 0.000598344 208808
0.0005 0.000752619 0.000598344 225117
0.0005 0.000775592 0.000598344 243710
0.0005 0.000796476 0.000598344 265069
0.0005 0.000815462 0.000598344 289769
0.0005 0.000832721 0.000598344 318419
0.0005 0.000848412 0.000598344 351715
0.0005 0.000862676 0.000598344 390453
0.0005 0.000875643 0.000598344 435538
0.0005 0.000887432 0.000598344 488013
0.0005 0.000898149 0.000598344 549083
0.0005 0.000907891 0.000598344 620149
0.0005 0.000916748 0.000598344 702862
0.0005 0.0009248 0.000598344 799178
0.0005 0.00093212 0.000598344 911438
0.0005 0.000938774 0.000598344 1.04271e+06
0.0005 0.000944824 0.000598344 1.19647e+06
0.0005 0.000950323 0.000598344 1.37608e+06
0.0005 0.000955322 0.000598344 1.58526e+06
0.0005 0.000959867 0.000598344 1.82839e+06
0.0005 0.000963999 0.000598344 2.11081e+06
0.0005 0.000967755 0.000598344 2.43938e+06
0.0005 0.00097117 0.000598344 2.82345e+06
0.0005 0.000974275 0.000598344 3.2767e+06
0.0005 0.000977097 0.000598344 3.82026e+06
0.0005 0.000979662 0.000598344 4.48467e+06
0.0005 0.000981994 0.000598344 5.31558e+06
0.0005 0.000984115 0.000598344 6.38691e+06
0.0005 0.000986042 0.000598344 7.81554e+06
0.0005 0.000987795 0.000598344 9.78108e+06
0.0005 0.000989388 0.000598344 1.25568e+07
0.0005 0.000990836 0.000598344 1.6566e+07
0.0005 0.000992152 0.000598344 2.24921e+07
0.0005 0.000993349 0.000598344 3.14975e+07
0.0005 0.000994437 0.000598344 4.56872e+07
0.0005 0.000995426 0.000598344 6.91592e+07
0.0005 0.000996325 0.000598344 1.10651e+08
0.0005 0.000997143 0.000598344 1.91141e+08
0.0005 0.000997886 0.000598344 3.69929e+08
0.0005 0.000998562 0.000598344 8.5957e+08
0.0005 0.000999176 0.000598344 2.76451e+09
0.0005 0.000999734 0.000598344 1.69758e+10
0.0005 4.56962e-05 0.000635342 127203
0.0005 0.000132935 0.000635342 128326
0.0005 0.000212242 0.000635342 130422
0.0005 0.00028434 0.000635342 133431
0.0005 0.000349883 0.000635342 137329
0.0005 0.000409468 0.000635342 142107
0.0005 0.000463636 0.000635342 147768
0.0005 0.00051288 0.000635342 154335
0.0005 0.000557647 0.000635342 161850
0.0005 0.000598344 0.000635342 170376
0.0005 0.000635342 0.000635342 179986
0.0005 0.000668976 0.000635342 190798
0.0005 0.000699553 0.000635342 202982
0.0005 0.000727349 0.000635342 216755
0.0005 0.000752619 0.000635342 232386
0.0005 0.000775592 0.000635342 250200
0.0005 0.000796476 0.000635342 270602
0.0005 0.000815462 0.000635342 294143
0.0005 0.000832721 0.000635342 321482
0.0005 0.000848412 0.000635342 353320
0.0005 0.000862676 0.000635342 390464
0.0005 0.000875643 0.000635342 433839
0.0005 0.000887432 0.000635342 484509
0.0005 0.000898149 0.000635342 543698
0.0005 0.000907891 0.000635342 612830
0.0005 0.000916748 0.000635342 693564
0.0005 0.0009248 0.000635342 787857
0.0005 0.00093212 0.000635342 898032
0.0005 0.000938774 0.000635342 1.02698e+06
0.0005 0.000944824 0.000635342 1.17824e+06
0.0005 0.000950323 0.000635342 1.35553e+06
0.0005 0.000955322 0.000635342 1.56255e+06
0.0005 0.000959867 0.000635342 1.80355e+06
0.0005 0.000963999 0.000635342 2.08374e+06
0.0005 0.000967755 0.000635342 2.40984e+06
0.0005 0.00097117 0.000635342 2.79121e+06
0.0005 0.000974275 0.000635342 3.24162e+06
0.0005 0.000977097 0.000635342 3.78222e+06
0.0005 0.000979662 0.000635342 4.4436e+06
0.0005 0.000981994 0.000635342 5.27202e+06
0.0005 0.000984115 0.000635342 6.34219e+06
0.0005 0.000986042 0.000635342 7.77163e+06
0.0005 0.000987795 0.000635342 9.7401e+06
0.0005 0.000989388 0.000635342 1.25205e+07
0.0005 0.000990836 0.000635342 1.65355e+07
0.0005 0.000992152 0.000635342 2.24675e+07
0.0005 0.000993349 0.000635342 3.14787e+07
0.0005 0.000994437 0.000635342 4.56735e+07
0.0005 0.000995426 0.000635342 6.91498e+07
0.0005 0.000996325 0.000635342 1.10645e+08
0.0005 0.000997143 0.000635342 1.91137e+08
0.0005 0.000997886 0.000635342 3.69927e+08
0.0005 0.000998562 0.000635342 8.5957e+08
0.0005 0.000999176 0.000635342 2.76451e+09
0.0005 0.000999734 0.000635342 1.69758e+10
0.0005 4.56962e-05 0.000668976 143051
0.0005 0.000132935 0.000668976 143891
0.0005 0.000212242 0.000668976 145515
0.0005 0.00028434 0.000668976 147948
0.0005 0.000349883 0.000668976 151236
0.0005 0.000409468 0.000668976 155420
0.0005 0.000463636 0.000668976 160535
0.0005 0.00051288 0.000668976 166617
0.0005 0.000557647 0.000668976 173654
0.0005 0.000598344 0.000668976 181693
0.0005 0.000635342 0.000668976 190798
0.0005 0.000668976 0.000668976 201084
0.0005 0.000699553 0.000668976 212710
0.0005 0.000727349 0.000668976 225881
0.0005 0.000752619 0.000668976 240850
0.0005 0.000775592 0.000668976 257925
0.0005 0.000796476 0.000668976 277478
0.0005 0.000815462 0.000668976 299970
0.0005 0.000832721 0.000668976 326032
0.0005 0.000848412 0.000668976 356421
0.0005 0.000862676 0.000668976 391947
0.0005 0.000875643 0.000668976 433549
0.0005 0.000887432 0.000668976 482307
0.0005 0.000898149 0.000668976 539469
0.0005 0.000907891 0.000668976 606479
0.0005 0.000916748 0.000668976 685016
0.0005 0.0009248 0.000668976 777044
0.0005 0.00093212 0.000668976 884875
0.0005 0.000938774 0.000668976 1.01126e+06
0.0005 0.000944824 0.000668976 1.15972e+06
0.0005 0.000950323 0.000668976 1.33428e+06
0.0005 0.000955322 0.000668976 1.53874e+06
0.0005 0.000959867 0.000668976 1.77727e+06
0.0005 0.000963999 0.000668976 2.05495e+06
0.0005 0.000967755 0.000668976 2.37841e+06
0.0005 0.00097117 0.000668976 2.75696e+06
0.0005 0.000974275 0.000668976 3.20452e+06
0.0005 0.000977097 0.000668976 3.74215e+06
0.0005 0.000979662 0.000668976 4.40053e+06
0.0005 0.000981994 0.000668976 5.22658e+06
0.0005 0.000984115 0.000668976 6.29582e+06
0.0005 0.000986042 0.000668976 7.72638e+06
0.0005 0.000987795 0.000668976 9.69811e+06
0.0005 0.000989388 0.000668976 1.24834e+07
0.0005 0.000990836 0.000668976 1.65044e+07
0.0005 0.000992152 0.000668976 2.24426e+07
0.0005 0.000993349 0.000668976 3.14597e+07
0.0005 0.000994437 0.000668976 4.56596e+07
0.0005 0.000995426 0.000668976 6.91402e+07
0.0005 0.000996325 0.000668976 1.10639e+08
0.0005 0.000997143 0.000668976 1.91133e+08
0.0005 0.000997886 0.000668976 3.69925e+08
0.0005 0.000998562 0.000668976 8.59569e+08
0.0005 0.000999176 0.000668976 2.76451e+09
0.0005 0.000999734 0.000668976 1.69758e+10
0.0005 4.56962e-05 0.000699553 160977
0.0005 0.000132935 0.000699553 161515
0.0005 0.000212242 0.000699553 162629
0.0005 0.00028434 0.000699553 164426
0.0005 0.000349883 0.000699553 167021
0.0005 0.000409468 0.000699553 170512
0.0005 0.000463636 0.000699553 174971
0.0005 0.00051288 0.000699553 180447
0.0005 0.000557647 0.000699553 186938
0.0005 0.000598344 0.000699553 194427
0.0005 0.000635342 0.000699553 202982
0.0005 0.000668976 0.000699553 212710
0.0005 0.000699553 0.000699553 223760
0.0005 0.000727349 0.000699553 236323
0.0005 0.000752619 0.000699553 250634
0.0005 0.000775592 0.000699553 266983
0.0005 0.000796476 0.000699553 285722
0.0005 0.000815462 0.000699553 307276
0.0005 0.000832721 0.000699553 332178
0.0005 0.000848412 0.000699553 361150
0.0005 0.000862676 0.000699553 395065
0.0005 0.000875643 0.000699553 434864
0.0005 0.000887432 0.000699553 481638
0.0005 0.000898149 0.000699553 536655
0.0005 0.000907891 0.000699553 601380
0.0005 0.000916748 0.000699553 677514
0.0005 0.0009248 0.000699553 767039
0.0005 0.00093212 0.000699553 872273
0.0005 0.000938774 0.000699553 995949
0.0005 0.000944824 0.000699553 1.14142e+06
0.0005 0.000950323 0.000699553 1.31275e+06
0.0005 0.000955322 0.000699553 1.51414e+06
0.0005 0.000959867 0.000699553 1.74977e+06
0.0005 0.000963999 0.000699553 2.02461e+06
0.0005 0.000967755 0.000699553 2.34516e+06
0.0005 0.00097117 0.000699553 2.72073e+06
0.0005 0.000974275 0.000699553 3.16536e+06
0.0005 0.000977097 0.000699553 3.70005e+06
0.0005 0.000979662 0.000699553 4.3555e+06
0.0005 0.000981994 0.000699553 5.17938e+06
0.0005 0.000984115 0.000699553 6.24798e+06
0.0005 0.000986042 0.000699553 7.68e+06
0.0005 0.000987795 0.000699553 9.65532e+06
0.0005 0.000989388 0.000699553 1.24459e+07
0.0005 0.000990836 0.000699553 1.6473e+07
0.0005 0.000992152 0.000699553 2.24176e+07
0.0005 0.000993349 0.000699553 3.14406e+07
0.0005 0.000994437 0.000699553 4.56457e+07
0.0005 0.000995426 0.000699553 6.91306e+07
0.0005 0.000996325 0.000699553 1.10633e+08
0.0005 0.000997143 0.000699553 1.9113e+08
0.0005 0.000997886 0.000699553 3.69923e+08
0.0005 0.000998562 0.000699553 8.59568e+08
0.0005 0.000999176 0.000699553 2.76451e+09
0.0005 0.000999734 0.000699553 1.69758e+10
0.0005 4.56962e-05 0.000727349 181219
0.0005 0.000132935 0.000727349 181447
0.0005 0.000212242 0.000727349 182027
0.0005 0.00028434 0.000727349 183144
0.0005 0.000349883 0.000727349 184978
0.0005 0.000409468 0.000727349 187682
0.0005 0.000463636 0.000727349 191367
0.0005 0.00051288 0.000727349 196106
0.0005 0.000557647 0.000727349 201940
0.0005 0.000598344 0.000727349 208808
0.0005 0.000635342 0.000727349 216755
0.0005 0.000668976 0.000727349 225881
0.0005 0.000699553 0.000727349 236323
0.0005 0.000727349 0.000727349 248255
0.0005 0.000752619 0.000727349 261897
0.0005 0.000775592 0.000727349 277518
0.0005 0.000796476 0.000727349 295451
0.0005 0.000815462 0.000727349 316099
0.0005 0.000832721 0.000727349 339953
0.0005 0.000848412 0.000727349 367630
0.0005 0.000862676 0.000727349 399964
0.0005 0.000875643 0.000727349 437962
0.0005 0.000887432 0.000727349 482719
0.0005 0.000898149 0.000727349 535512
0.0005 0.000907891 0.000727349 597827
0.0005 0.000916748 0.000727349 671387
0.0005 0.0009248 0.000727349 758196
0.0005 0.00093212 0.000727349 860587
0.0005 0.000938774 0.000727349 981289
0.0005 0.000944824 0.000727349 1.12351e+06
0.0005 0.000950323 0.000727349 1.2913e+06