# p  FACE_DATA 3025
#  x  y  z  p
0.0005 4.56962e-05 4.56962e-05 -8.29178e-14
0.0005 0.000132935 4.56962e-05 -1.76784e-13
0.0005 0.000212242 4.56962e-05 -2.14478e-13
0.0005 0.00028434 4.56962e-05 -2.29418e-13
0.0005 0.000349883 4.56962e-05 -2.38865e-13
0.0005 0.000409468 4.56962e-05 -2.3747e-13
0.0005 0.000463636 4.56962e-05 -2.35725e-13
0.0005 0.00051288 4.56962e-05 -2.3257e-13
0.0005 0.000557647 4.56962e-05 -2.2821e-13
0.0005 0.000598344 4.56962e-05 -2.23782e-13
0.0005 0.000635342 4.56962e-05 -2.27398e-13
0.0005 0.000668976 4.56962e-05 -2.17611e-13
0.0005 0.000699553 4.56962e-05 -2.14168e-13
0.0005 0.000727349 4.56962e-05 -2.16805e-13
0.0005 0.000752619 4.56962e-05 -2.2094e-13
0.0005 0.000775592 4.56962e-05 -2.24442e-13
0.0005 0.000796476 4.56962e-05 -2.27066e-13
0.0005 0.000815462 4.56962e-05 -2.29237e-13
0.0005 0.000832721 4.56962e-05 -2.30959e-13
0.0005 0.000848412 4.56962e-05 -2.32264e-13
0.0005 0.000862676 4.56962e-05 -2.3331e-13
0.0005 0.000875643 4.56962e-05 -2.34171e-13
0.0005 0.000887432 4.56962e-05 -2.34838e-13
0.0005 0.000898149 4.56962e-05 -2.35429e-13
0.0005 0.000907891 4.56962e-05 -2.35968e-13
0.0005 0.000916748 4.56962e-05 -2.3647e-13
0.0005 0.0009248 4.56962e-05 -2.36916e-13
0.0005 0.00093212 4.56962e-05 -2.37323e-13
0.0005 0.000938774 4.56962e-05 -2.37674e-13
0.0005 0.000944824 4.56962e-05 -2.3799e-13
0.0005 0.000950323 4.56962e-05 -2.38255e-13
0.0005 0.000955322 4.56962e-05 -2.38488e-13
0.0005 0.000959867 4.56962e-05 -2.38681e-13
0.0005 0.000963999 4.56962e-05 -2.38848e-13
0.0005 0.000967755 4.56962e-05 -2.38982e-13
0.0005 0.00097117 4.56962e-05 -2.39096e-13
0.0005 0.000974275 4.56962e-05 -2.39183e-13
0.0005 0.000977097 4.56962e-05 -2.39254e-13
0.0005 0.000979662 4.56962e-05 -2.39322e-13
0.0005 0.000981994 4.56962e-05 -2.39394e-13
0.0005 0.000984115 4.56962e-05 -2.3939e-13
0.0005 0.000986042 4.56962e-05 -2.39277e-13
0.0005 0.000987795 4.56962e-05 -2.39237e-13
0.0005 0.000989388 4.56962e-05 -2.39277e-13
0.0005 0.000990836 4.56962e-05 -2.39312e-13
0.0005 0.000992152 4.56962e-05 -2.39347e-13
0.0005 0.000993349 4.56962e-05 -2.3938e-13
0.0005 0.000994437 4.56962e-05 -2.39425e-13
0.0005 0.000995426 4.56962e-05 -2.39486e-13
0.0005 0.000996325 4.56962e-05 -2.395e-13
0.0005 0.000997143 4.56962e-05 -2.3952e-13
0.0005 0.000997886 4.56962e-05 -2.39546e-13
0.0005 0.000998562 4.56962e-05 -2.39569e-13
0.0005 0.000999176 4.56962e-05 -2.39586e-13
0.0005 0.000999734 4.56962e-05 -2.3959e-13
0.0005 4.56962e-05 0.000132935 -1.7408e-13
0.0005 0.000132935 0.000132935 -2.04139e-13
0.0005 0.000212242 0.000132935 -1.99236e-13
0.0005 0.00028434 0.000132935 -2.1447e-13
0.0005 0.000349883 0.000132935 -2.35388e-13
0.0005 0.000409468 0.000132935 -2.38413e-13
0.0005 0.000463636 0.000132935 -2.40019e-13
0.0005 0.00051288 0.000132935 -2.37091e-13
0.0005 0.000557647 0.000132935 -2.29216e-13
0.0005 0.000598344 0.000132935 -2.19282e-13
0.0005 0.000635342 0.000132935 -2.23956e-13
0.0005 0.000668976 0.000132935 -2.22665e-13
0.0005 0.000699553 0.000132935 -2.19871e-13
0.0005 0.000727349 0.000132935 -2.36047e-13
0.0005 0.000752619 0.000132935 -2.28909e-13
0.0005 0.000775592 0.000132935 -2.37795e-13
0.0005 0.000796476 0.000132935 -2.35689e-13
0.0005 0.000815462 0.000132935 -2.39029e-13
0.0005 0.000832721 0.000132935 -2.42874e-13
0.0005 0.000848412 0.000132935 -2.40963e-13
0.0005 0.000862676 0.000132935 -2.40924e-13
0.0005 0.000875643 0.000132935 -2.42705e-13
0.0005 0.000887432 0.000132935 -2.39342e-13
0.0005 0.000898149 0.000132935 -2.37375e-13
0.0005 0.000907891 0.000132935 -2.3886e-13
0.0005 0.000916748 0.000132935 -2.40059e-13
0.0005 0.0009248 0.000132935 -2.4134e-13
0.0005 0.00093212 0.000132935 -2.42563e-13
0.0005 0.000938774 0.000132935 -2.43721e-13
0.0005 0.000944824 0.000132935 -2.45012e-13
0.0005 0.000950323 0.000132935 -2.46245e-13
0.0005 0.000955322 0.000132935 -2.46393e-13
0.0005 0.000959867 0.000132935 -2.47707e-13
0.0005 0.000963999 0.000132935 -2.48899e-13
0.0005 0.000967755 0.000132935 -2.49935e-13
0.0005 0.00097117 0.000132935 -2.5111e-13
0.0005 0.000974275 0.000132935 -2.52281e-13
0.0005 0.000977097 0.000132935 -2.53014e-13
0.0005 0.000979662 0.000132935 -2.54081e-13
0.0005 0.000981994 0.000132935 -2.55204e-13
0.0005 0.000984115 0.000132935 -2.56212e-13
0.0005 0.000986042 0.000132935 -2.57231e-13
0.0005 0.000987795 0.000132935 -2.58264e-13
0.0005 0.000989388 0.000132935 -2.59386e-13
0.0005 0.000990836 0.000132935 -2.60577e-13
0.0005 0.000992152 0.000132935 -2.61898e-13
0.0005 0.000993349 0.000132935 -2.63291e-13
0.0005 0.000994437 0.000132935 -2.64875e-13
0.0005 0.000995426 0.000132935 -2.66503e-13
0.0005 0.000996325 0.000132935 -2.68156e-13
0.0005 0.000997143 0.000132935 -2.69767e-13
0.0005 0.000997886 0.000132935 -2.71149e-13
0.0005 0.000998562 0.000132935 -2.72363e-13
0.0005 0.000999176 0.000132935 -2.733e-13
0.0005 0.000999734 0.000132935 -2.73959e-13
0.0005 4.56962e-05 0.000212242 -2.13967e-13
0.0005 0.000132935 0.000212242 -2.41467e-13
0.0005 0.000212242 0.000212242 -2.2969e-13
0.0005 0.00028434 0.000212242 -2.47786e-13
0.0005 0.000349883 0.000212242 -2.42909e-13
0.0005 0.000409468 0.000212242 -2.42118e-13
0.0005 0.000463636 0.000212242 -2.41526e-13
0.0005 0.00051288 0.000212242 -2.39912e-13
0.0005 0.000557647 0.000212242 -2.37706e-13
0.0005 0.000598344 0.000212242 -2.36033e-13
0.0005 0.000635342 0.000212242 -2.36122e-13
0.0005 0.000668976 0.000212242 -2.37251e-13
0.0005 0.000699553 0.000212242 -2.373e-13
0.0005 0.000727349 0.000212242 -2.38825e-13
0.0005 0.000752619 0.000212242 -2.39882e-13
0.0005 0.000775592 0.000212242 -2.41358e-13
0.0005 0.000796476 0.000212242 -2.42565e-13
0.0005 0.000815462 0.000212242 -2.43792e-13
0.0005 0.000832721 0.000212242 -2.4493e-13
0.0005 0.000848412 0.000212242 -2.44336e-13
0.0005 0.000862676 0.000212242 -2.40675e-13
0.0005 0.000875643 0.000212242 -2.45632e-13
0.0005 0.000887432 0.000212242 -2.46948e-13
0.0005 0.000898149 0.000212242 -2.4724e-13
0.0005 0.000907891 0.000212242 -2.47583e-13
0.0005 0.000916748 0.000212242 -2.47863e-13
0.0005 0.0009248 0.000212242 -2.48143e-13
0.0005 0.00093212 0.000212242 -2.48423e-13
0.0005 0.000938774 0.000212242 -2.48679e-13
0.0005 0.000944824 0.000212242 -2.48916e-13
0.0005 0.000950323 0.000212242 -2.48379e-13
0.0005 0.000955322 0.000212242 -2.48796e-13
0.0005 0.000959867 0.000212242 -2.49846e-13
0.0005 0.000963999 0.000212242 -2.5045e-13
0.0005 0.000967755 0.000212242 -2.50861e-13
0.0005 0.00097117 0.000212242 -2.51275e-13
0.0005 0.000974275 0.000212242 -2.51692e-13
0.0005 0.000977097 0.000212242 -2.52165e-13
0.0005 0.000979662 0.000212242 -2.5264e-13
0.0005 0.000981994 0.000212242 -2.52859e-13
0.0005 0.000984115 0.000212242 -2.53189e-13
0.0005 0.000986042 0.000212242 -2.53604e-13
0.0005 0.000987795 0.000212242 -2.54089e-13
0.0005 0.000989388 0.000212242 -2.54591e-13
0.0005 0.000990836 0.000212242 -2.55111e-13
0.0005 0.000992152 0.000212242 -2.55738e-13
0.0005 0.000993349 0.000212242 -2.56437e-13
0.0005 0.000994437 0.000212242 -2.57127e-13
0.0005 0.000995426 0.000212242 -2.57767e-13
0.0005 0.000996325 0.000212242 -2.58332e-13
0.0005 0.000997143 0.000212242 -2.58923e-13
0.0005 0.000997886 0.000212242 -2.59505e-13
0.0005 0.000998562 0.000212242 -2.5992e-13
0.0005 0.000999176 0.000212242 -2.60135e-13
0.0005 0.000999734 0.000212242 -2.60189e-13
0.0005 4.56962e-05 0.00028434 -2.31282e-13
0.0005 0.000132935 0.00028434 -2.51465e-13
0.0005 0.000212242 0.00028434 -2.29702e-13
0.0005 0.00028434 0.00028434 -2.41795e-13
0.0005 0.000349883 0.00028434 -2.44427e-13
0.0005 0.000409468 0.00028434 -2.45262e-13
0.0005 0.000463636 0.00028434 -2.4521e-13
0.0005 0.00051288 0.00028434 -2.44136e-13
0.0005 0.000557647 0.00028434 -2.44282e-13
0.0005 0.000598344 0.00028434 -2.42788e-13
0.0005 0.000635342 0.00028434 -2.42889e-13
0.0005 0.000668976 0.00028434 -2.43812e-13
0.0005 0.000699553 0.00028434 -2.4392e-13
0.0005 0.000727349 0.00028434 -2.44782e-13
0.0005 0.000752619 0.00028434 -2.45961e-13
0.0005 0.000775592 0.00028434 -2.47346e-13
0.0005 0.000796476 0.00028434 -2.48516e-13
0.0005 0.000815462 0.00028434 -2.49137e-13
0.0005 0.000832721 0.00028434 -2.49575e-13
0.0005 0.000848412 0.00028434 -2.49948e-13
0.0005 0.000862676 0.00028434 -2.50357e-13
0.0005 0.000875643 0.00028434 -2.50984e-13
0.0005 0.000887432 0.00028434 -2.51732e-13
0.0005 0.000898149 0.00028434 -2.5247e-13
0.0005 0.000907891 0.00028434 -2.52964e-13
0.0005 0.000916748 0.00028434 -2.53435e-13
0.0005 0.0009248 0.00028434 -2.53919e-13
0.0005 0.00093212 0.00028434 -2.54357e-13
0.0005 0.000938774 0.00028434 -2.54779e-13
0.0005 0.000944824 0.00028434 -2.55173e-13
0.0005 0.000950323 0.00028434 -2.55555e-13
0.0005 0.000955322 0.00028434 -2.55921e-13
0.0005 0.000959867 0.00028434 -2.56287e-13
0.0005 0.000963999 0.00028434 -2.56634e-13
0.0005 0.000967755 0.00028434 -2.56976e-13
0.0005 0.00097117 0.00028434 -2.57299e-13
0.0005 0.000974275 0.00028434 -2.5762e-13
0.0005 0.000977097 0.00028434 -2.57924e-13
0.0005 0.000979662 0.00028434 -2.58227e-13
0.0005 0.000981994 0.00028434 -2.58514e-13
0.0005 0.000984115 0.00028434 -2.58806e-13
0.0005 0.000986042 0.00028434 -2.59093e-13
0.0005 0.000987795 0.00028434 -2.5935e-13
0.0005 0.000989388 0.00028434 -2.59556e-13
0.0005 0.000990836 0.00028434 -2.59721e-13
0.0005 0.000992152 0.00028434 -2.59823e-13
0.0005 0.000993349 0.00028434 -2.59888e-13
0.0005 0.000994437 0.00028434 -2.59897e-13
0.0005 0.000995426 0.00028434 -2.59856e-13
0.0005 0.000996325 0.00028434 -2.59812e-13
0.0005 0.000997143 0.00028434 -2.59697e-13
0.0005 0.000997886 0.00028434 -2.59606e-13
0.0005 0.000998562 0.00028434 -2.59422e-13
0.0005 0.000999176 0.00028434 -2.59155e-13
0.0005 0.000999734 0.00028434 -2.58837e-13
0.0005 4.56962e-05 0.000349883 -2.37933e-13
0.0005 0.000132935 0.000349883 -2.4491e-13
0.0005 0.000212242 0.000349883 -2.41068e-13
0.0005 0.00028434 0.000349883 -2.45149e-13
0.0005 0.000349883 0.000349883 -2.47792e-13
0.0005 0.000409468 0.000349883 -2.49608e-13
0.0005 0.000463636 0.000349883 -2.50424e-13
0.0005 0.00051288 0.000349883 -2.45679e-13
0.0005 0.000557647 0.000349883 -2.42486e-13
0.0005 0.000598344 0.000349883 -2.29602e-13
0.0005 0.000635342 0.000349883 -2.29852e-13
0.0005 0.000668976 0.000349883 -2.41469e-13
0.0005 0.000699553 0.000349883 -2.45943e-13
0.0005 0.000727349 0.000349883 -2.48053e-13
0.0005 0.000752619 0.000349883 -2.49754e-13
0.0005 0.000775592 0.000349883 -2.54663e-13
0.0005 0.000796476 0.000349883 -2.60085e-13
0.0005 0.000815462 0.000349883 -2.56458e-13
0.0005 0.000832721 0.000349883 -2.54736e-13
0.0005 0.000848412 0.000349883 -2.54328e-13
0.0005 0.000862676 0.000349883 -2.53543e-13
0.0005 0.000875643 0.000349883 -2.52238e-13
0.0005 0.000887432 0.000349883 -2.55704e-13
0.0005 0.000898149 0.000349883 -2.57721e-13
0.0005 0.000907891 0.000349883 -2.57905e-13
0.0005 0.000916748 0.000349883 -2.5764e-13
0.0005 0.0009248 0.000349883 -2.61143e-13
0.0005 0.00093212 0.000349883 -2.61138e-13
0.0005 0.000938774 0.000349883 -2.61052e-13
0.0005 0.000944824 0.000349883 -2.61797e-13
0.0005 0.000950323 0.000349883 -2.61386e-13
0.0005 0.000955322 0.000349883 -2.61359e-13
0.0005 0.000959867 0.000349883 -2.61394e-13
0.0005 0.000963999 0.000349883 -2.61486e-13
0.0005 0.000967755 0.000349883 -2.61806e-13
0.0005 0.00097117 0.000349883 -2.6171e-13
0.0005 0.000974275 0.000349883 -2.61714e-13
0.0005 0.000977097 0.000349883 -2.61845e-13
0.0005 0.000979662 0.000349883 -2.62094e-13
0.0005 0.000981994 0.000349883 -2.62197e-13
0.0005 0.000984115 0.000349883 -2.621e-13
0.0005 0.000986042 0.000349883 -2.6214e-13
0.0005 0.000987795 0.000349883 -2.62176e-13
0.0005 0.000989388 0.000349883 -2.6223e-13
0.0005 0.000990836 0.000349883 -2.62207e-13
0.0005 0.000992152 0.000349883 -2.62115e-13
0.0005 0.000993349 0.000349883 -2.6216e-13
0.0005 0.000994437 0.000349883 -2.62184e-13
0.0005 0.000995426 0.000349883 -2.62169e-13
0.0005 0.000996325 0.000349883 -2.62044e-13
0.0005 0.000997143 0.000349883 -2.61959e-13
0.0005 0.000997886 0.000349883 -2.61724e-13
0.0005 0.000998562 0.000349883 -2.61565e-13
0.0005 0.000999176 0.000349883 -2.61386e-13
0.0005 0.000999734 0.000349883 -2.6123e-13
0.0005 4.56962e-05 0.000409468 -2.4375e-13
0.0005 0.000132935 0.000409468 -2.46859e-13
0.0005 0.000212242 0.000409468 -2.46906e-13
0.0005 0.00028434 0.000409468 -2.49291e-13
0.0005 0.000349883 0.000409468 -2.5189e-13
0.0005 0.000409468 0.000409468 -2.54769e-13
0.0005 0.000463636 0.000409468 -2.63576e-13
0.0005 0.00051288 0.000409468 -2.44552e-13
0.0005 0.000557647 0.000409468 -2.49515e-13
0.0005 0.000598344 0.000409468 -2.49057e-13
0.0005 0.000635342 0.000409468 -2.49111e-13
0.0005 0.000668976 0.000409468 -2.50954e-13
0.0005 0.000699553 0.000409468 -2.5696e-13
0.0005 0.000727349 0.000409468 -2.53849e-13
0.0005 0.000752619 0.000409468 -2.55131e-13
0.0005 0.000775592 0.000409468 -2.56737e-13
0.0005 0.000796476 0.000409468 -2.58324e-13
0.0005 0.000815462 0.000409468 -2.59581e-13
0.0005 0.000832721 0.000409468 -2.61217e-13
0.0005 0.000848412 0.000409468 -2.62683e-13
0.0005 0.000862676 0.000409468 -2.64125e-13
0.0005 0.000875643 0.000409468 -2.65755e-13
0.0005 0.000887432 0.000409468 -2.6711e-13
0.0005 0.000898149 0.000409468 -2.69329e-13
0.0005 0.000907891 0.000409468 -2.71586e-13
0.0005 0.000916748 0.000409468 -2.7012e-13
0.0005 0.0009248 0.000409468 -2.69805e-13
0.0005 0.00093212 0.000409468 -2.70403e-13
0.0005 0.000938774 0.000409468 -2.6997e-13
0.0005 0.000944824 0.000409468 -2.70241e-13
0.0005 0.000950323 0.000409468 -2.69872e-13
0.0005 0.000955322 0.000409468 -2.69763e-13
0.0005 0.000959867 0.000409468 -2.69725e-13
0.0005 0.000963999 0.000409468 -2.69778e-13
0.0005 0.000967755 0.000409468 -2.69912e-13
0.0005 0.00097117 0.000409468 -2.69395e-13
0.0005 0.000974275 0.000409468 -2.69432e-13
0.0005 0.000977097 0.000409468 -2.69867e-13
0.0005 0.000979662 0.000409468 -2.69767e-13
0.0005 0.000981994 0.000409468 -2.69594e-13
0.0005 0.000984115 0.000409468 -2.69397e-13
0.0005 0.000986042 0.000409468 -2.69149e-13
0.0005 0.000987795 0.000409468 -2.68846e-13
0.0005 0.000989388 0.000409468 -2.68424e-13
0.0005 0.000990836 0.000409468 -2.67955e-13
0.0005 0.000992152 0.000409468 -2.67396e-13
0.0005 0.000993349 0.000409468 -2.66654e-13
0.0005 0.000994437 0.000409468 -2.65942e-13
0.0005 0.000995426 0.000409468 -2.65089e-13
0.0005 0.000996325 0.000409468 -2.64244e-13
0.0005 0.000997143 0.000409468 -2.63193e-13
0.0005 0.000997886 0.000409468 -2.62291e-13
0.0005 0.000998562 0.000409468 -2.61381e-13
0.0005 0.000999176 0.000409468 -2.60725e-13
0.0005 0.000999734 0.000409468 -2.60324e-13
0.0005 4.56962e-05 0.000463636 -2.47934e-13
0.0005 0.000132935 0.000463636 -2.50162e-13
0.0005 0.000212242 0.000463636 -2.51051e-13
0.0005 0.00028434 0.000463636 -2.53225e-13
0.0005 0.000349883 0.000463636 -2.55379e-13
0.0005 0.000409468 0.000463636 -2.53836e-13
0.0005 0.000463636 0.000463636 -2.59545e-13
0.0005 0.00051288 0.000463636 -2.6891e-13
0.0005 0.000557647 0.000463636 -2.5727e-13
0.0005 0.000598344 0.000463636 -2.56847e-13
0.0005 0.000635342 0.000463636 -2.62208e-13
0.0005 0.000668976 0.000463636 -2.59505e-13
0.0005 0.000699553 0.000463636 -2.64658e-13
0.0005 0.000727349 0.000463636 -2.61138e-13
0.0005 0.000752619 0.000463636 -2.58285e-13
0.0005 0.000775592 0.000463636 -2.64617e-13
0.0005 0.000796476 0.000463636 -2.66073e-13
0.0005 0.000815462 0.000463636 -2.67391e-13
0.0005 0.000832721 0.000463636 -2.68932e-13
0.0005 0.000848412 0.000463636 -2.69912e-13
0.0005 0.000862676 0.000463636 -2.70412e-13
0.0005 0.000875643 0.000463636 -2.71702e-13
0.0005 0.000887432 0.000463636 -2.72611e-13
0.0005 0.000898149 0.000463636 -2.73151e-13
0.0005 0.000907891 0.000463636 -2.73319e-13
0.0005 0.000916748 0.000463636 -2.73057e-13
0.0005 0.0009248 0.000463636 -2.71478e-13
0.0005 0.00093212 0.000463636 -2.72136e-13
0.0005 0.000938774 0.000463636 -2.72382e-13
0.0005 0.000944824 0.000463636 -2.72101e-13
0.0005 0.000950323 0.000463636 -2.71324e-13
0.0005 0.000955322 0.000463636 -2.70063e-13
0.0005 0.000959867 0.000463636 -2.70304e-13
0.0005 0.000963999 0.000463636 -2.70253e-13
0.0005 0.000967755 0.000463636 -2.69946e-13
0.0005 0.00097117 0.000463636 -2.70194e-13
0.0005 0.000974275 0.000463636 -2.69953e-13
0.0005 0.000977097 0.000463636 -2.69677e-13
0.0005 0.000979662 0.000463636 -2.69836e-13
0.0005 0.000981994 0.000463636 -2.69856e-13
0.0005 0.000984115 0.000463636 -2.69521e-13
0.0005 0.000986042 0.000463636 -2.6921e-13
0.0005 0.000987795 0.000463636 -2.68929e-13
0.0005 0.000989388 0.000463636 -2.68474e-13
0.0005 0.000990836 0.000463636 -2.67963e-13
0.0005 0.000992152 0.000463636 -2.67367e-13
0.0005 0.000993349 0.000463636 -2.66678e-13
0.0005 0.000994437 0.000463636 -2.65933e-13
0.0005 0.000995426 0.000463636 -2.6507e-13
0.0005 0.000996325 0.000463636 -2.64058e-13
0.0005 0.000997143 0.000463636 -2.63123e-13
0.0005 0.000997886 0.000463636 -2.62188e-13
0.0005 0.000998562 0.000463636 -2.61517e-13
0.0005 0.000999176 0.000463636 -2.6108e-13
0.0005 0.000999734 0.000463636 -2.60866e-13
0.0005 4.56962e-05 0.00051288 -2.51296e-13
0.0005 0.000132935 0.00051288 -2.5379e-13
0.0005 0.000212242 0.00051288 -2.54583e-13
0.0005 0.00028434 0.00051288 -2.56891e-13
0.0005 0.000349883 0.00051288 -2.61363e-13
0.0005 0.000409468 0.00051288 -2.68603e-13
0.0005 0.000463636 0.00051288 -2.51927e-13
0.0005 0.00051288 0.00051288 -2.60843e-13
0.0005 0.000557647 0.00051288 -2.4899e-13
0.0005 0.000598344 0.00051288 -2.5403e-13
0.0005 0.000635342 0.00051288 -2.60114e-13
0.0005 0.000668976 0.00051288 -2.62473e-13
0.0005 0.000699553 0.00051288 -2.69596e-13
0.0005 0.000727349 0.00051288 -2.68673e-13
0.0005 0.000752619 0.00051288 -2.70369e-13
0.0005 0.000775592 0.00051288 -2.72521e-13
0.0005 0.000796476 0.00051288 -2.72358e-13
0.0005 0.000815462 0.00051288 -2.72791e-13
0.0005 0.000832721 0.00051288 -2.80827e-13
0.0005 0.000848412 0.00051288 -2.82116e-13
0.0005 0.000862676 0.00051288 -2.7779e-13
0.0005 0.000875643 0.00051288 -2.77138e-13
0.0005 0.000887432 0.00051288 -2.77046e-13
0.0005 0.000898149 0.00051288 -2.77075e-13
0.0005 0.000907891 0.00051288 -2.77167e-13
0.0005 0.000916748 0.00051288 -2.77332e-13
0.0005 0.0009248 0.00051288 -2.77235e-13
0.0005 0.00093212 0.00051288 -2.76885e-13
0.0005 0.000938774 0.00051288 -2.76017e-13
0.0005 0.000944824 0.00051288 -2.74771e-13
0.0005 0.000950323 0.00051288 -2.75021e-13
0.0005 0.000955322 0.00051288 -2.74812e-13
0.0005 0.000959867 0.00051288 -2.74286e-13
0.0005 0.000963999 0.00051288 -2.73853e-13
0.0005 0.000967755 0.00051288 -2.7347e-13
0.0005 0.00097117 0.00051288 -2.73118e-13
0.0005 0.000974275 0.00051288 -2.72799e-13
0.0005 0.000977097 0.00051288 -2.72556e-13
0.0005 0.000979662 0.00051288 -2.72288e-13
0.0005 0.000981994 0.00051288 -2.71718e-13
0.0005 0.000984115 0.00051288 -2.71157e-13
0.0005 0.000986042 0.00051288 -2.70557e-13
0.0005 0.000987795 0.00051288 -2.69901e-13
0.0005 0.000989388 0.00051288 -2.69127e-13
0.0005 0.000990836 0.00051288 -2.68226e-13
0.0005 0.000992152 0.00051288 -2.6732e-13
0.0005 0.000993349 0.00051288 -2.66378e-13
0.0005 0.000994437 0.00051288 -2.65271e-13
0.0005 0.000995426 0.00051288 -2.64027e-13
0.0005 0.000996325 0.00051288 -2.62856e-13
0.0005 0.000997143 0.00051288 -2.61702e-13
0.0005 0.000997886 0.00051288 -2.60766e-13
0.0005 0.000998562 0.00051288 -2.59998e-13
0.0005 0.000999176 0.00051288 -2.59546e-13
0.0005 0.000999734 0.00051288 -2.59347e-13
0.0005 4.56962e-05 0.000557647 -2.53795e-13
0.0005 0.000132935 0.000557647 -2.58519e-13
0.0005 0.000212242 0.000557647 -2.57361e-13
0.0005 0.00028434 0.000557647 -2.59497e-13
0.0005 0.000349883 0.000557647 -2.65371e-13
0.0005 0.000409468 0.000557647 -2.64373e-13
0.0005 0.000463636 0.000557647 -2.61722e-13
0.0005 0.00051288 0.000557647 -2.73643e-13
0.0005 0.000557647 0.000557647 -2.62738e-13
0.0005 0.000598344 0.000557647 -2.6208e-13
0.0005 0.000635342 0.000557647 -2.64207e-13
0.0005 0.000668976 0.000557647 -2.6641e-13
0.0005 0.000699553 0.000557647 -2.6873e-13
0.0005 0.000727349 0.000557647 -2.71468e-13
0.0005 0.000752619 0.000557647 -2.73121e-13
0.0005 0.000775592 0.000557647 -2.74136e-13
0.0005 0.000796476 0.000557647 -2.75099e-13
0.0005 0.000815462 0.000557647 -2.76128e-13
0.0005 0.000832721 0.000557647 -2.77062e-13
0.0005 0.000848412 0.000557647 -2.77033e-13
0.0005 0.000862676 0.000557647 -2.75104e-13
0.0005 0.000875643 0.000557647 -2.78356e-13
0.0005 0.000887432 0.000557647 -2.79394e-13
0.0005 0.000898149 0.000557647 -2.79211e-13
0.0005 0.000907891 0.000557647 -2.79096e-13
0.0005 0.000916748 0.000557647 -2.78529e-13
0.0005 0.0009248 0.000557647 -2.77944e-13
0.0005 0.00093212 0.000557647 -2.77321e-13
0.0005 0.000938774 0.000557647 -2.7668e-13
0.0005 0.000944824 0.000557647 -2.76078e-13
0.0005 0.000950323 0.000557647 -2.75399e-13
0.0005 0.000955322 0.000557647 -2.74749e-13
0.0005 0.000959867 0.000557647 -2.74109e-13
0.0005 0.000963999 0.000557647 -2.73495e-13
0.0005 0.000967755 0.000557647 -2.72893e-13
0.0005 0.00097117 0.000557647 -2.72314e-13
0.0005 0.000974275 0.000557647 -2.71742e-13
0.0005 0.000977097 0.000557647 -2.71199e-13
0.0005 0.000979662 0.000557647 -2.70672e-13
0.0005 0.000981994 0.000557647 -2.70161e-13
0.0005 0.000984115 0.000557647 -2.69591e-13
0.0005 0.000986042 0.000557647 -2.69014e-13
0.0005 0.000987795 0.000557647 -2.68422e-13
0.0005 0.000989388 0.000557647 -2.67796e-13
0.0005 0.000990836 0.000557647 -2.671e-13
0.0005 0.000992152 0.000557647 -2.66345e-13
0.0005 0.000993349 0.000557647 -2.65539e-13
0.0005 0.000994437 0.000557647 -2.64646e-13
0.0005 0.000995426 0.000557647 -2.63737e-13
0.0005 0.000996325 0.000557647 -2.62849e-13
0.0005 0.000997143 0.000557647 -2.62072e-13
0.0005 0.000997886 0.000557647 -2.61359e-13
0.0005 0.000998562 0.000557647 -2.60879e-13
0.0005 0.000999176 0.000557647 -2.60604e-13
0.0005 0.000999734 0.000557647 -2.60494e-13
0.0005 4.56962e-05 0.000598344 -2.55176e-13
0.0005 0.000132935 0.000598344 -2.64572e-13
0.0005 0.000212242 0.000598344 -2.59809e-13
0.0005 0.00028434 0.000598344 -2.60465e-13
0.0005 0.000349883 0.000598344 -2.72655e-13
0.0005 0.000409468 0.000598344 -2.63587e-13
0.0005 0.000463636 0.000598344 -2.61383e-13
0.0005 0.00051288 0.000598344 -2.69775e-13
0.0005 0.000557647 0.000598344 -2.66226e-13
0.0005 0.000598344 0.000598344 -2.66274e-13
0.0005 0.000635342 0.000598344 -2.67835e-13
0.0005 0.000668976 0.000598344 -2.69713e-13
0.0005 0.000699553 0.000598344 -2.73071e-13
0.0005 0.000727349 0.000598344 -2.76647e-13
0.0005 0.000752619 0.000598344 -2.77349e-13
0.0005 0.000775592 0.000598344 -2.75777e-13
0.0005 0.000796476 0.000598344 -2.77026e-13
0.0005 0.000815462 0.000598344 -2.79687e-13
0.0005 0.000832721 0.000598344 -2.78744e-13
0.0005 0.000848412 0.000598344 -2.75377e-13
0.0005 0.000862676 0.000598344 -2.79498e-13
0.0005 0.000875643 0.000598344 -2.8053e-13
0.0005 0.000887432 0.000598344 -2.79199e-13
0.0005 0.000898149 0.000598344 -2.80232e-13
0.0005 0.000907891 0.000598344 -2.79341e-13
0.0005 0.000916748 0.000598344 -2.8053e-13
0.0005 0.0009248 0.000598344 -2.80416e-13
0.0005 0.00093212 0.000598344 -2.79209e-13
0.0005 0.000938774 0.000598344 -2.76979e-13
0.0005 0.000944824 0.000598344 -2.77124e-13
0.0005 0.000950323 0.000598344 -2.76379e-13
0.0005 0.000955322 0.000598344 -2.7561e-13
0.0005 0.000959867 0.000598344 -2.74739e-13
0.0005 0.000963999 0.000598344 -2.73911e-13
0.0005 0.000967755 0.000598344 -2.73127e-13
0.0005 0.00097117 0.000598344 -2.7237e-13
0.0005 0.000974275 0.000598344 -2.71766e-13
0.0005 0.000977097 0.000598344 -2.70894e-13
0.0005 0.000979662 0.000598344 -2.70177e-13
0.0005 0.000981994 0.000598344 -2.69423e-13
0.0005 0.000984115 0.000598344 -2.68576e-13
0.0005 0.000986042 0.000598344 -2.67819e-13
0.0005 0.000987795 0.000598344 -2.67118e-13
0.0005 0.000989388 0.000598344 -2.6643e-13
0.0005 0.000990836 0.000598344 -2.65727e-13
0.0005 0.000992152 0.000598344 -2.64955e-13
0.0005 0.000993349 0.000598344 -2.64211e-13
0.0005 0.000994437 0.000598344 -2.63532e-13
0.0005 0.000995426 0.000598344 -2.62844e-13
0.0005 0.000996325 0.000598344 -2.62199e-13
0.0005 0.000997143 0.000598344 -2.61593e-13
0.0005 0.000997886 0.000598344 -2.61145e-13
0.0005 0.000998562 0.000598344 -2.60788e-13
0.0005 0.000999176 0.000598344 -2.60579e-13
0.0005 0.000999734 0.000598344 -2.60482e-13
0.0005 4.56962e-05 0.000635342 -2.54687e-13
0.0005 0.000132935 0.000635342 -2.6539e-13
0.0005 0.000212242 0.000635342 -2.61471e-13
0.0005 0.00028434 0.000635342 -2.57737e-13
0.0005 0.000349883 0.000635342 -2.74039e-13
0.0005 0.000409468 0.000635342 -2.62216e-13
0.0005 0.000463636 0.000635342 -2.54961e-13
0.0005 0.00051288 0.000635342 -2.6411e-13
0.0005 0.000557647 0.000635342 -2.66594e-13
0.0005 0.000598344 0.000635342 -2.68852e-13
0.0005 0.000635342 0.000635342 -2.70703e-13
0.0005 0.000668976 0.000635342 -2.70551e-13
0.0005 0.000699553 0.000635342 -2.67615e-13
0.0005 0.000727349 0.000635342 -2.75116e-13
0.0005 0.000752619 0.000635342 -2.73344e-13
0.0005 0.000775592 0.000635342 -2.68641e-13
0.0005 0.000796476 0.000635342 -2.73459e-13
0.0005 0.000815462 0.000635342 -2.79154e-13
0.0005 0.000832721 0.000635342 -2.80107e-13
0.0005 0.000848412 0.000635342 -2.81659e-13
0.0005 0.000862676 0.000635342 -2.86439e-13
0.0005 0.000875643 0.000635342 -2.84757e-13
0.0005 0.000887432 0.000635342 -2.84388e-13
0.0005 0.000898149 0.000635342 -2.81038e-13
0.0005 0.000907891 0.000635342 -2.82017e-13
0.0005 0.000916748 0.000635342 -2.83336e-13
0.0005 0.0009248 0.000635342 -2.81054e-13
0.0005 0.00093212 0.000635342 -2.79728e-13
0.0005 0.000938774 0.000635342 -2.79285e-13
0.0005 0.000944824 0.000635342 -2.77736e-13
0.0005 0.000950323 0.000635342 -2.76606e-13
0.0005 0.000955322 0.000635342 -2.75536e-13
0.0005 0.000959867 0.000635342 -2.74468e-13
0.0005 0.000963999 0.000635342 -2.73322e-13
0.0005 0.000967755 0.000635342 -2.72766e-13
0.0005 0.00097117 0.000635342 -2.72049e-13
0.0005 0.000974275 0.000635342 -2.71121e-13
0.0005 0.000977097 0.000635342 -2.70597e-13
0.0005 0.000979662 0.000635342 -2.70001e-13
0.0005 0.000981994 0.000635342 -2.69167e-13
0.0005 0.000984115 0.000635342 -2.68601e-13
0.0005 0.000986042 0.000635342 -2.68007e-13
0.0005 0.000987795 0.000635342 -2.67379e-13
0.0005 0.000989388 0.000635342 -2.66687e-13
0.0005 0.000990836 0.000635342 -2.6612e-13
0.0005 0.000992152 0.000635342 -2.65514e-13
0.0005 0.000993349 0.000635342 -2.64927e-13
0.0005 0.000994437 0.000635342 -2.64304e-13
0.0005 0.000995426 0.000635342 -2.63812e-13
0.0005 0.000996325 0.000635342 -2.63317e-13
0.0005 0.000997143 0.000635342 -2.62913e-13
0.0005 0.000997886 0.000635342 -2.62548e-13
0.0005 0.000998562 0.000635342 -2.62308e-13
0.0005 0.000999176 0.000635342 -2.62179e-13
0.0005 0.000999734 0.000635342 -2.62145e-13
0.0005 4.56962e-05 0.000668976 -2.66388e-13
0.0005 0.000132935 0.000668976 -2.70466e-13
0.0005 0.000212242 0.000668976 -2.63163e-13
0.0005 0.00028434 0.000668976 -2.60032e-13
0.0005 0.000349883 0.000668976 -2.65251e-13
0.0005 0.000409468 0.000668976 -2.59261e-13
0.0005 0.000463636 0.000668976 -2.60856e-13
0.0005 0.00051288 0.000668976 -2.62034e-13
0.0005 0.000557647 0.000668976 -2.67142e-13
0.0005 0.000598344 0.000668976 -2.71436e-13
0.0005 0.000635342 0.000668976 -2.75436e-13
0.0005 0.000668976 0.000668976 -2.74595e-13
0.0005 0.000699553 0.000668976 -2.74538e-13
0.0005 0.000727349 0.000668976 -2.77916e-13
0.0005 0.000752619 0.000668976 -2.78462e-13
0.0005 0.000775592 0.000668976 -2.77797e-13
0.0005 0.000796476 0.000668976 -2.73331e-13
0.0005 0.000815462 0.000668976 -2.76843e-13
0.0005 0.000832721 0.000668976 -2.78451e-13
0.0005 0.000848412 0.000668976 -2.78028e-13
0.0005 0.000862676 0.000668976 -2.77106e-13
0.0005 0.000875643 0.000668976 -2.78768e-13
0.0005 0.000887432 0.000668976 -2.7956e-13
0.0005 0.000898149 0.000668976 -2.79571e-13
0.0005 0.000907891 0.000668976 -2.79394e-13
0.0005 0.000916748 0.000668976 -2.79752e-13
0.0005 0.0009248 0.000668976 -2.80684e-13
0.0005 0.00093212 0.000668976 -2.79646e-13
0.0005 0.000938774 0.000668976 -2.78134e-13
0.0005 0.000944824 0.000668976 -2.7707e-13
0.0005 0.000950323 0.000668976 -2.76387e-13
0.0005 0.000955322 0.000668976 -2.75675e-13
0.0005 0.000959867 0.000668976 -2.7495e-13
0.0005 0.000963999 0.000668976 -2.74186e-13
0.0005 0.000967755 0.000668976 -2.73432e-13
0.0005 0.00097117 0.000668976 -2.72694e-13
0.0005 0.000974275 0.000668976 -2.7196e-13
0.0005 0.000977097 0.000668976 -2.7127e-13
0.0005 0.000979662 0.000668976 -2.70548e-13
0.0005 0.000981994 0.000668976 -2.69796e-13
0.0005 0.000984115 0.000668976 -2.69254e-13
0.0005 0.000986042 0.000668976 -2.68707e-13
0.0005 0.000987795 0.000668976 -2.68063e-13
0.0005 0.000989388 0.000668976 -2.67429e-13
0.0005 0.000990836 0.000668976 -2.66746e-13
0.0005 0.000992152 0.000668976 -2.66101e-13
0.0005 0.000993349 0.000668976 -2.65432e-13
0.0005 0.000994437 0.000668976 -2.64826e-13
0.0005 0.000995426 0.000668976 -2.64234e-13
0.0005 0.000996325 0.000668976 -2.63706e-13
0.0005 0.000997143 0.000668976 -2.63206e-13
0.0005 0.000997886 0.000668976 -2.62809e-13
0.0005 0.000998562 0.000668976 -2.62486e-13
0.0005 0.000999176 0.000668976 -2.62293e-13
0.0005 0.000999734 0.000668976 -2.62209e-13
0.0005 4.56962e-05 0.000699553 -2.69766e-13
0.0005 0.000132935 0.000699553 -2.77192e-13
0.0005 0.000212242 0.000699553 -2.64493e-13
0.0005 0.00028434 0.000699553 -2.60898e-13
0.0005 0.000349883 0.000699553 -2.61908e-13
0.0005 0.000409468 0.000699553 -2.54088e-13
0.0005 0.000463636 0.000699553 -2.53282e-13
0.0005 0.00051288 0.000699553 -2.58207e-13
0.0005 0.000557647 0.000699553 -2.67866e-13
0.0005 0.000598344 0.000699553 -2.74101e-13
0.0005 0.000635342 0.000699553 -2.83702e-13
0.0005 0.000668976 0.000699553 -2.77775e-13
0.0005 0.000699553 0.000699553 -2.76863e-13
0.0005 0.000727349 0.000699553 -2.84425e-13
0.0005 0.000752619 0.000699553 -2.85298e-13
0.0005 0.000775592 0.000699553 -2.82306e-13
0.0005 0.000796476 0.000699553 -2.72854e-13
0.0005 0.000815462 0.000699553 -2.71719e-13
0.0005 0.000832721 0.000699553 -2.76205e-13
0.0005 0.000848412 0.000699553 -2.76839e-13
0.0005 0.000862676 0.000699553 -2.75561e-13
0.0005 0.000875643 0.000699553 -2.78507e-13
0.0005 0.000887432 0.000699553 -2.80069e-13
0.0005 0.000898149 0.000699553 -2.7992e-13
0.0005 0.000907891 0.000699553 -2.8064e-13
0.0005 0.000916748 0.000699553 -2.82565e-13
0.0005 0.0009248 0.000699553 -2.81207e-13