# U  FACE_DATA 3025
#  x  y  z  U_x  U_y  U_z  
0.0005 4.56962e-05 4.56962e-05 108.215 9.77793e-16 1.20302e-15
0.0005 0.000132935 4.56962e-05 107.913 2.06065e-15 7.66583e-16
0.0005 0.000212242 4.56962e-05 107.384 1.46485e-15 2.70141e-16
0.0005 0.00028434 4.56962e-05 106.682 1.19526e-15 5.88455e-17
0.0005 0.000349883 4.56962e-05 105.848 8.88071e-16 4.64388e-17
0.0005 0.000409468 4.56962e-05 104.91 6.55878e-16 3.86402e-17
0.0005 0.000463636 4.56962e-05 103.888 6.22363e-16 1.15681e-17
0.0005 0.00051288 4.56962e-05 102.794 6.31435e-16 -6.32194e-17
0.0005 0.000557647 4.56962e-05 101.636 6.31438e-16 -1.80197e-16
0.0005 0.000598344 4.56962e-05 100.421 5.70535e-16 -2.76396e-16
0.0005 0.000635342 4.56962e-05 99.1504 3.2998e-16 -3.35107e-16
0.0005 0.000668976 4.56962e-05 97.8282 3.08813e-17 -3.31832e-16
0.0005 0.000699553 4.56962e-05 96.456 -1.0241e-16 -2.87154e-16
0.0005 0.000727349 4.56962e-05 95.0356 -1.44713e-16 -2.41144e-16
0.0005 0.000752619 4.56962e-05 93.5683 -1.91418e-16 -2.34013e-16
0.0005 0.000775592 4.56962e-05 92.0556 -2.22978e-16 -2.18619e-16
0.0005 0.000796476 4.56962e-05 90.4984 -2.28242e-16 -1.96325e-16
0.0005 0.000815462 4.56962e-05 88.8975 -2.24353e-16 -1.83826e-16
0.0005 0.000832721 4.56962e-05 87.2531 -2.19326e-16 -1.7062e-16
0.0005 0.000848412 4.56962e-05 85.565 -2.1306e-16 -1.65891e-16
0.0005 0.000862676 4.56962e-05 83.8305 -2.02397e-16 -1.64895e-16
0.0005 0.000875643 4.56962e-05 82.0446 -1.92043e-16 -1.67105e-16
0.0005 0.000887432 4.56962e-05 80.2041 -1.79688e-16 -1.67863e-16
0.0005 0.000898149 4.56962e-05 78.3069 -1.64197e-16 -1.68628e-16
0.0005 0.000907891 4.56962e-05 76.3501 -1.46904e-16 -1.6736e-16
0.0005 0.000916748 4.56962e-05 74.3299 -1.29542e-16 -1.63483e-16
0.0005 0.0009248 4.56962e-05 72.241 -1.12638e-16 -1.58501e-16
0.0005 0.00093212 4.56962e-05 70.0768 -9.64157e-17 -1.5345e-16
0.0005 0.000938774 4.56962e-05 67.8297 -8.0786e-17 -1.4864e-16
0.0005 0.000944824 4.56962e-05 65.4913 -6.5767e-17 -1.44131e-16
0.0005 0.000950323 4.56962e-05 63.0525 -5.12583e-17 -1.40198e-16
0.0005 0.000955322 4.56962e-05 60.5045 -3.7232e-17 -1.36433e-16
0.0005 0.000959867 4.56962e-05 57.8389 -2.38051e-17 -1.3218e-16
0.0005 0.000963999 4.56962e-05 55.0492 -1.13068e-17 -1.27317e-16
0.0005 0.000967755 4.56962e-05 52.1317 -1.19079e-19 -1.22046e-16
0.0005 0.00097117 4.56962e-05 49.0876 9.18765e-18 -1.16297e-16
0.0005 0.000974275 4.56962e-05 45.9235 1.5799e-17 -1.10205e-16
0.0005 0.000977097 4.56962e-05 42.6464 2.03997e-17 -1.03715e-16
0.0005 0.000979662 4.56962e-05 39.2596 2.06956e-17 -9.66749e-17
0.0005 0.000981994 4.56962e-05 35.7856 1.62104e-17 -8.89429e-17
0.0005 0.000984115 4.56962e-05 32.279 1.00882e-17 -8.07714e-17
0.0005 0.000986042 4.56962e-05 28.8116 6.12719e-18 -7.23304e-17
0.0005 0.000987795 4.56962e-05 25.4584 6.14919e-18 -6.39417e-17
0.0005 0.000989388 4.56962e-05 22.2812 6.25123e-18 -5.58854e-17
0.0005 0.000990836 4.56962e-05 19.318 5.31498e-18 -4.8346e-17
0.0005 0.000992152 4.56962e-05 16.5841 4.37537e-18 -4.14474e-17
0.0005 0.000993349 4.56962e-05 14.078 3.8171e-18 -3.52465e-17
0.0005 0.000994437 4.56962e-05 11.7889 3.13769e-18 -2.97259e-17
0.0005 0.000995426 4.56962e-05 9.70175 1.83113e-18 -2.48215e-17
0.0005 0.000996325 4.56962e-05 7.8005 7.88689e-19 -2.04189e-17
0.0005 0.000997143 4.56962e-05 6.06936 4.49932e-19 -1.63795e-17
0.0005 0.000997886 4.56962e-05 4.4935 4.79806e-19 -1.25357e-17
0.0005 0.000998562 4.56962e-05 3.0592 4.58883e-19 -8.70788e-18
0.0005 0.000999176 4.56962e-05 1.7539 2.67891e-19 -4.73386e-18
0.0005 0.000999734 4.56962e-05 0.566111 9.36232e-20 -1.16381e-18
0.0005 4.56962e-05 0.000132935 107.913 5.81764e-16 2.66953e-15
0.0005 0.000132935 0.000132935 107.604 1.42749e-15 2.11404e-15
0.0005 0.000212242 0.000132935 107.062 1.44601e-15 1.25247e-15
0.0005 0.00028434 0.000132935 106.345 1.72404e-15 7.22668e-16
0.0005 0.000349883 0.000132935 105.496 1.52597e-15 3.11283e-16
0.0005 0.000409468 0.000132935 104.544 1.09011e-15 9.16371e-17
0.0005 0.000463636 0.000132935 103.51 8.05747e-16 -5.61433e-17
0.0005 0.00051288 0.000132935 102.406 5.57822e-16 -1.79801e-16
0.0005 0.000557647 0.000132935 101.242 4.66879e-16 -2.93023e-16
0.0005 0.000598344 0.000132935 100.023 5.16038e-16 -3.93168e-16
0.0005 0.000635342 0.000132935 98.7536 5.15748e-16 -4.69268e-16
0.0005 0.000668976 0.000132935 97.4348 4.82947e-16 -4.78181e-16
0.0005 0.000699553 0.000132935 96.0686 4.62106e-16 -4.62734e-16
0.0005 0.000727349 0.000132935 94.6561 2.70205e-16 -4.49805e-16
0.0005 0.000752619 0.000132935 93.1982 1.17116e-16 -4.32041e-16
0.0005 0.000775592 0.000132935 91.6958 1.29077e-16 -4.11925e-16
0.0005 0.000796476 0.000132935 90.1494 9.74053e-17 -3.9577e-16
0.0005 0.000815462 0.000132935 88.5593 4.40476e-17 -3.86114e-16
0.0005 0.000832721 0.000132935 86.9256 -1.7566e-17 -3.85332e-16
0.0005 0.000848412 0.000132935 85.248 -1.02028e-16 -3.91383e-16
0.0005 0.000862676 0.000132935 83.5253 -1.58541e-16 -3.96984e-16
0.0005 0.000875643 0.000132935 81.7533 -1.77193e-16 -3.86056e-16
0.0005 0.000887432 0.000132935 79.9263 -1.69815e-16 -3.73749e-16
0.0005 0.000898149 0.000132935 78.0412 -1.5096e-16 -3.64041e-16
0.0005 0.000907891 0.000132935 76.0952 -1.05008e-16 -3.58115e-16
0.0005 0.000916748 0.000132935 74.0843 -6.69759e-17 -3.55964e-16
0.0005 0.0009248 0.000132935 72.0036 -5.2002e-17 -3.56596e-16
0.0005 0.00093212 0.000132935 69.8467 -5.41059e-17 -3.59041e-16
0.0005 0.000938774 0.000132935 67.6061 -6.31441e-17 -3.62365e-16
0.0005 0.000944824 0.000132935 65.2737 -8.06498e-17 -3.65761e-16
0.0005 0.000950323 0.000132935 62.8407 -9.94871e-17 -3.68634e-16
0.0005 0.000955322 0.000132935 60.2981 -1.00806e-16 -3.69331e-16
0.0005 0.000959867 0.000132935 57.6378 -9.14419e-17 -3.6776e-16
0.0005 0.000963999 0.000132935 54.8535 -8.47893e-17 -3.64309e-16
0.0005 0.000967755 0.000132935 51.9417 -7.99678e-17 -3.58906e-16
0.0005 0.00097117 0.000132935 48.9037 -7.80114e-17 -3.51246e-16
0.0005 0.000974275 0.000132935 45.7462 -8.07625e-17 -3.4103e-16
0.0005 0.000977097 0.000132935 42.4762 -7.78643e-17 -3.28102e-16
0.0005 0.000979662 0.000132935 39.0972 -6.95701e-17 -3.12433e-16
0.0005 0.000981994 0.000132935 35.6323 -6.39948e-17 -2.94096e-16
0.0005 0.000984115 0.000132935 32.1363 -6.45122e-17 -2.73252e-16
0.0005 0.000986042 0.000132935 28.681 -6.60452e-17 -2.50445e-16
0.0005 0.000987795 0.000132935 25.341 -6.88e-17 -2.26534e-16
0.0005 0.000989388 0.000132935 22.1773 -7.15001e-17 -2.02442e-16
0.0005 0.000990836 0.000132935 19.2274 -7.50049e-17 -1.78843e-16
0.0005 0.000992152 0.000132935 16.5061 -7.90802e-17 -1.56209e-16
0.0005 0.000993349 0.000132935 14.0118 -8.30792e-17 -1.34847e-16
0.0005 0.000994437 0.000132935 11.7334 -8.69492e-17 -1.14893e-16
0.0005 0.000995426 0.000132935 9.65614 -8.94662e-17 -9.63442e-17
0.0005 0.000996325 0.000132935 7.76385 -8.82072e-17 -7.91169e-17
0.0005 0.000997143 0.000132935 6.04087 -8.06397e-17 -6.30656e-17
0.0005 0.000997886 0.000132935 4.47241 -6.52579e-17 -4.80177e-17
0.0005 0.000998562 0.000132935 3.04485 -4.45429e-17 -3.37136e-17
0.0005 0.000999176 0.000132935 1.74568 -2.31335e-17 -1.97733e-17
0.0005 0.000999734 0.000132935 0.563459 -7.84823e-18 -6.3634e-18
0.0005 4.56962e-05 0.000212242 107.384 3.95719e-16 1.8882e-15
0.0005 0.000132935 0.000212242 107.062 9.20989e-16 1.89765e-15
0.0005 0.000212242 0.000212242 106.5 1.00512e-15 1.5077e-15
0.0005 0.00028434 0.000212242 105.759 1.17566e-15 1.01279e-15
0.0005 0.000349883 0.000212242 104.884 9.94519e-16 4.50725e-16
0.0005 0.000409468 0.000212242 103.907 7.84545e-16 1.43005e-16
0.0005 0.000463636 0.000212242 102.851 6.3998e-16 -5.1826e-17
0.0005 0.00051288 0.000212242 101.73 5.21119e-16 -1.58392e-16
0.0005 0.000557647 0.000212242 100.554 4.5352e-16 -1.87325e-16
0.0005 0.000598344 0.000212242 99.3291 4.34761e-16 -2.30726e-16
0.0005 0.000635342 0.000212242 98.0583 4.04223e-16 -2.79143e-16
0.0005 0.000668976 0.000212242 96.7436 3.20315e-16 -3.07149e-16
0.0005 0.000699553 0.000212242 95.386 2.28954e-16 -3.36695e-16
0.0005 0.000727349 0.000212242 93.9858 1.45367e-16 -3.57775e-16
0.0005 0.000752619 0.000212242 92.5432 8.06717e-17 -3.20805e-16
0.0005 0.000775592 0.000212242 91.0579 3.61371e-17 -2.83413e-16
0.0005 0.000796476 0.000212242 89.5299 -8.75749e-18 -2.56869e-16
0.0005 0.000815462 0.000212242 87.9587 -5.43911e-17 -2.28858e-16
0.0005 0.000832721 0.000212242 86.344 -9.97447e-17 -2.09171e-16
0.0005 0.000848412 0.000212242 84.6849 -9.90983e-17 -1.84918e-16
0.0005 0.000862676 0.000212242 82.9802 3.44896e-17 -1.59675e-16
0.0005 0.000875643 0.000212242 81.2285 1.58979e-16 -1.34213e-16
0.0005 0.000887432 0.000212242 79.4246 1.68587e-16 -1.12119e-16
0.0005 0.000898149 0.000212242 77.5617 1.4395e-16 -9.23237e-17
0.0005 0.000907891 0.000212242 75.6355 1.09375e-16 -7.75337e-17
0.0005 0.000916748 0.000212242 73.6422 7.53615e-17 -6.7982e-17
0.0005 0.0009248 0.000212242 71.5768 4.65933e-17 -6.14034e-17
0.0005 0.00093212 0.000212242 69.4335 2.37153e-17 -5.62869e-17
0.0005 0.000938774 0.000212242 67.2052 8.5524e-18 -5.19098e-17
0.0005 0.000944824 0.000212242 64.8839 -1.15183e-18 -4.79205e-17
0.0005 0.000950323 0.000212242 62.4612 9.94497e-18 -4.37157e-17
0.0005 0.000955322 0.000212242 59.9286 3.39809e-17 -3.96926e-17
0.0005 0.000959867 0.000212242 57.2781 4.00219e-17 -3.63442e-17
0.0005 0.000963999 0.000212242 54.5037 2.83059e-17 -3.3602e-17
0.0005 0.000967755 0.000212242 51.6021 1.43124e-17 -3.10691e-17
0.0005 0.00097117 0.000212242 48.5752 5.98854e-18 -2.87687e-17
0.0005 0.000974275 0.000212242 45.4297 -5.71038e-20 -2.646e-17
0.0005 0.000977097 0.000212242 42.1725 -9.54269e-18 -2.40759e-17
0.0005 0.000979662 0.000212242 38.8075 -2.53245e-17 -2.15827e-17
0.0005 0.000981994 0.000212242 35.3589 -3.98019e-17 -1.90336e-17
0.0005 0.000984115 0.000212242 31.882 -4.95563e-17 -1.6256e-17
0.0005 0.000986042 0.000212242 28.4484 -5.78378e-17 -1.3335e-17
0.0005 0.000987795 0.000212242 25.1319 -6.78627e-17 -1.04207e-17
0.0005 0.000989388 0.000212242 21.9924 -7.79411e-17 -7.69537e-18
0.0005 0.000990836 0.000212242 19.0662 -8.35055e-17 -5.28851e-18
0.0005 0.000992152 0.000212242 16.3674 -8.65293e-17 -3.29679e-18
0.0005 0.000993349 0.000212242 13.894 -8.84705e-17 -1.72687e-18
0.0005 0.000994437 0.000212242 11.6348 -8.74029e-17 -5.87757e-19
0.0005 0.000995426 0.000212242 9.57501 -8.22654e-17 1.52541e-19
0.0005 0.000996325 0.000212242 7.69867 -7.14259e-17 5.25077e-19
0.0005 0.000997143 0.000212242 5.99019 -5.83931e-17 5.37074e-19
0.0005 0.000997886 0.000212242 4.43492 -4.62318e-17 2.60043e-19
0.0005 0.000998562 0.000212242 3.01934 -3.54208e-17 -2.20159e-19
0.0005 0.000999176 0.000212242 1.73106 -2.31862e-17 -6.35823e-19
0.0005 0.000999734 0.000212242 0.558744 -8.91286e-18 -5.1822e-19
0.0005 4.56962e-05 0.00028434 106.682 2.52191e-16 9.35929e-16
0.0005 0.000132935 0.00028434 106.345 5.37677e-16 9.99632e-16
0.0005 0.000212242 0.00028434 105.759 5.5146e-16 8.90665e-16
0.0005 0.00028434 0.00028434 104.987 6.84492e-16 5.78565e-16
0.0005 0.000349883 0.00028434 104.08 6.17015e-16 2.79786e-16
0.0005 0.000409468 0.00028434 103.073 5.05361e-16 8.81825e-17
0.0005 0.000463636 0.00028434 101.988 3.9741e-16 -7.44472e-17
0.0005 0.00051288 0.00028434 100.844 3.18939e-16 -2.54166e-16
0.0005 0.000557647 0.00028434 99.651 2.41129e-16 -3.91212e-16
0.0005 0.000598344 0.00028434 98.4148 1.81243e-16 -5.25379e-16
0.0005 0.000635342 0.00028434 97.1395 1.49438e-16 -5.9356e-16
0.0005 0.000668976 0.00028434 95.8269 8.86849e-17 -5.96491e-16
0.0005 0.000699553 0.00028434 94.4772 3.10333e-17 -5.46512e-16
0.0005 0.000727349 0.00028434 93.0902 5.26885e-18 -4.81802e-16
0.0005 0.000752619 0.00028434 91.6649 -6.04746e-18 -3.94735e-16
0.0005 0.000775592 0.00028434 90.2002 -2.6098e-17 -2.90909e-16
0.0005 0.000796476 0.00028434 88.6949 -6.14806e-17 -2.02187e-16
0.0005 0.000815462 0.00028434 87.1479 -8.93247e-17 -1.46431e-16
0.0005 0.000832721 0.00028434 85.5578 -9.07408e-17 -1.03723e-16
0.0005 0.000848412 0.00028434 83.9233 -6.63652e-17 -5.87025e-17
0.0005 0.000862676 0.00028434 82.2428 -2.3641e-17 -1.73576e-17
0.0005 0.000875643 0.00028434 80.5144 2.10836e-17 6.6238e-18
0.0005 0.000887432 0.00028434 78.7357 4.89674e-17 3.94988e-17
0.0005 0.000898149 0.00028434 76.9011 5.58456e-17 6.93127e-17
0.0005 0.000907891 0.00028434 75.0027 5.11334e-17 9.38545e-17
0.0005 0.000916748 0.00028434 73.0345 4.6082e-17 1.18295e-16
0.0005 0.0009248 0.00028434 70.9914 4.1845e-17 1.39836e-16
0.0005 0.00093212 0.00028434 68.8678 3.70623e-17 1.59771e-16
0.0005 0.000938774 0.00028434 66.657 3.27414e-17 1.76391e-16
0.0005 0.000944824 0.00028434 64.3518 2.89087e-17 1.90986e-16
0.0005 0.000950323 0.00028434 61.9439 2.51531e-17 2.0318e-16
0.0005 0.000955322 0.00028434 59.4253 2.26208e-17 2.11617e-16
0.0005 0.000959867 0.00028434 56.7886 2.03919e-17 2.16678e-16
0.0005 0.000963999 0.00028434 54.0279 1.8102e-17 2.19047e-16
0.0005 0.000967755 0.00028434 51.1407 1.59004e-17 2.19016e-16
0.0005 0.00097117 0.00028434 48.129 1.38995e-17 2.15944e-16
0.0005 0.000974275 0.00028434 45.0002 1.2121e-17 2.10369e-16
0.0005 0.000977097 0.00028434 41.7606 1.06282e-17 2.02743e-16
0.0005 0.000979662 0.00028434 38.4148 9.52484e-18 1.93328e-16
0.0005 0.000981994 0.00028434 34.9887 8.98063e-18 1.82229e-16
0.0005 0.000984115 0.00028434 31.5379 9.0545e-18 1.69614e-16
0.0005 0.000986042 0.00028434 28.1338 8.61786e-18 1.56032e-16
0.0005 0.000987795 0.00028434 24.8493 7.89085e-18 1.41978e-16
0.0005 0.000989388 0.00028434 21.7425 8.76813e-18 1.27915e-16
0.0005 0.000990836 0.00028434 18.8484 1.17613e-17 1.14077e-16
0.0005 0.000992152 0.00028434 16.18 1.78433e-17 1.00616e-16
0.0005 0.000993349 0.00028434 13.7348 2.60905e-17 8.76605e-17
0.0005 0.000994437 0.00028434 11.5015 3.45446e-17 7.52367e-17
0.0005 0.000995426 0.00028434 9.46543 4.27468e-17 6.33504e-17
0.0005 0.000996325 0.00028434 7.61063 4.67372e-17 5.19825e-17
0.0005 0.000997143 0.00028434 5.92173 4.69031e-17 4.11805e-17
0.0005 0.000997886 0.00028434 4.38427 4.08187e-17 3.0936e-17
0.0005 0.000998562 0.00028434 2.98488 2.89893e-17 2.13228e-17
0.0005 0.000999176 0.00028434 1.71131 1.54958e-17 1.23534e-17
0.0005 0.000999734 0.00028434 0.552374 5.09193e-18 4.03183e-18
0.0005 4.56962e-05 0.000349883 105.848 1.59489e-16 3.20582e-16
0.0005 0.000132935 0.000349883 105.496 3.28608e-16 3.83638e-16
0.0005 0.000212242 0.000349883 104.884 3.2749e-16 4.67607e-16
0.0005 0.00028434 0.000349883 104.08 4.05195e-16 3.49362e-16
0.0005 0.000349883 0.000349883 103.139 3.42717e-16 1.94513e-16
0.0005 0.000409468 0.000349883 102.096 2.31437e-16 5.88317e-17
0.0005 0.000463636 0.000349883 100.98 3.5655e-17 -8.18174e-17
0.0005 0.00051288 0.000349883 99.8084 -1.03534e-16 -2.9313e-16
0.0005 0.000557647 0.000349883 98.5927 -1.8533e-16 -3.83345e-16
0.0005 0.000598344 0.000349883 97.3405 -1.63929e-16 -4.61011e-16
0.0005 0.000635342 0.000349883 96.0559 -3.65309e-17 -5.32177e-16
0.0005 0.000668976 0.000349883 94.7408 4.19188e-17 -5.7422e-16
0.0005 0.000699553 0.000349883 93.3956 4.56303e-17 -5.74309e-16
0.0005 0.000727349 0.000349883 92.0193 3.57532e-17 -5.48608e-16
0.0005 0.000752619 0.000349883 90.6101 7.69017e-17 -5.01682e-16
0.0005 0.000775592 0.000349883 89.1661 5.58385e-17 -4.38995e-16
0.0005 0.000796476 0.000349883 87.685 -9.95967e-17 -3.65349e-16
0.0005 0.000815462 0.000349883 86.1644 -2.38329e-16 -2.82829e-16
0.0005 0.000832721 0.000349883 84.6023 -2.5303e-16 -1.97146e-16
0.0005 0.000848412 0.000349883 82.9964 -1.97532e-16 -1.15928e-16
0.0005 0.000862676 0.000349883 81.3444 -1.15623e-16 -4.29278e-17
0.0005 0.000875643 0.000349883 79.6439 3.73224e-17 2.02992e-17
0.0005 0.000887432 0.000349883 77.8922 1.43677e-16 7.31912e-17
0.0005 0.000898149 0.000349883 76.0864 1.33409e-16 1.19444e-16
0.0005 0.000907891 0.000349883 74.2199 1.24873e-16 1.56397e-16
0.0005 0.000916748 0.000349883 72.2832 1.17941e-16 1.83123e-16
0.0005 0.0009248 0.000349883 70.2689 9.31588e-17 2.04146e-16
0.0005 0.00093212 0.000349883 68.171 6.71123e-17 2.22301e-16
0.0005 0.000938774 0.000349883 65.9833 4.50585e-17 2.37109e-16
0.0005 0.000944824 0.000349883 63.6987 3.79903e-17 2.47583e-16
0.0005 0.000950323 0.000349883 61.31 3.38934e-17 2.54588e-16
0.0005 0.000955322 0.000349883 58.8094 3.52727e-17 2.57945e-16
0.0005 0.000959867 0.000349883 56.1902 3.71021e-17 2.5853e-16
0.0005 0.000963999 0.000349883 53.447 3.57383e-17 2.5675e-16
0.0005 0.000967755 0.000349883 50.5778 2.18576e-17 2.52676e-16
0.0005 0.00097117 0.000349883 47.5853 7.42308e-18 2.4658e-16
0.0005 0.000974275 0.000349883 44.4773 7.12818e-18 2.3892e-16
0.0005 0.000977097 0.000349883 41.2596 9.07459e-18 2.29867e-16
0.0005 0.000979662 0.000349883 37.9376 2.71581e-18 2.19093e-16
0.0005 0.000981994 0.000349883 34.539 -9.32801e-18 2.06579e-16
0.0005 0.000984115 0.000349883 31.1203 -1.71589e-17 1.92755e-16
0.0005 0.000986042 0.000349883 27.7525 -1.87093e-17 1.7803e-16
0.0005 0.000987795 0.000349883 24.507 -1.56509e-17 1.62826e-16
0.0005 0.000989388 0.000349883 21.44 -1.05467e-17 1.47441e-16
0.0005 0.000990836 0.000349883 18.5848 -3.19101e-18 1.32103e-16
0.0005 0.000992152 0.000349883 15.9533 7.46676e-18 1.16922e-16
0.0005 0.000993349 0.000349883 13.5422 1.73658e-17 1.01973e-16
0.0005 0.000994437 0.000349883 11.3403 2.49445e-17 8.73759e-17
0.0005 0.000995426 0.000349883 9.33283 2.78868e-17 7.31973e-17
0.0005 0.000996325 0.000349883 7.50409 3.00265e-17 5.95897e-17
0.0005 0.000997143 0.000349883 5.8389 2.84332e-17 4.66292e-17
0.0005 0.000997886 0.000349883 4.32298 2.45318e-17 3.4498e-17
0.0005 0.000998562 0.000349883 2.94318 1.92356e-17 2.33098e-17
0.0005 0.000999176 0.000349883 1.68742 1.09647e-17 1.32255e-17
0.0005 0.000999734 0.000349883 0.544667 3.96553e-18 4.23522e-18
0.0005 4.56962e-05 0.000409468 104.91 1.1419e-16 -1.22102e-17
0.0005 0.000132935 0.000409468 104.544 2.53968e-16 8.47261e-17
0.0005 0.000212242 0.000409468 103.907 2.21564e-16 2.40113e-16
0.0005 0.00028434 0.000409468 103.073 2.10691e-16 2.21914e-16
0.0005 0.000349883 0.000409468 102.096 1.2992e-16 1.42457e-16
0.0005 0.000409468 0.000409468 101.019 3.67027e-18 4.53644e-17
0.0005 0.000463636 0.000409468 99.8693 -2.56311e-16 -8.56069e-17
0.0005 0.00051288 0.000409468 98.6672 -3.24127e-16 -6.08665e-17
0.0005 0.000557647 0.000409468 97.4256 -3.0018e-16 -1.77848e-16
0.0005 0.000598344 0.000409468 96.1527 -3.73429e-16 -2.05375e-16
0.0005 0.000635342 0.000409468 94.8533 -3.66977e-16 -2.54815e-16
0.0005 0.000668976 0.000409468 93.5299 -3.29111e-16 -3.20927e-16
0.0005 0.000699553 0.000409468 92.1834 -2.91562e-16 -3.85673e-16
0.0005 0.000727349 0.000409468 90.8128 -2.2867e-16 -4.19179e-16
0.0005 0.000752619 0.000409468 89.416 -1.41476e-16 -4.31037e-16
0.0005 0.000775592 0.000409468 87.99 -7.50341e-17 -4.14666e-16
0.0005 0.000796476 0.000409468 86.5317 -4.09279e-17 -3.7013e-16
0.0005 0.000815462 0.000409468 85.0375 -1.0264e-17 -2.8611e-16
0.0005 0.000832721 0.000409468 83.5043 2.34366e-17 -1.92571e-16
0.0005 0.000848412 0.000409468 81.9289 5.23453e-17 -1.1254e-16
0.0005 0.000862676 0.000409468 80.3081 8.04938e-17 -4.77339e-17
0.0005 0.000875643 0.000409468 78.6388 1.02311e-16 2.63541e-18
0.0005 0.000887432 0.000409468 76.9179 1.11855e-16 2.70647e-17
0.0005 0.000898149 0.000409468 75.1419 8.19355e-17 4.2784e-17
0.0005 0.000907891 0.000409468 73.307 7.27002e-18 5.53233e-17
0.0005 0.000916748 0.000409468 71.4051 -4.90304e-17 6.08647e-17
0.0005 0.0009248 0.000409468 69.4252 -6.99008e-17 6.38603e-17
0.0005 0.00093212 0.000409468 67.3588 -8.53565e-17 6.68085e-17
0.0005 0.000938774 0.000409468 65.1994 -1.13777e-16 7.06041e-17
0.0005 0.000944824 0.000409468 62.9405 -1.43479e-16 7.11231e-17
0.0005 0.000950323 0.000409468 60.5753 -1.64493e-16 6.83717e-17
0.0005 0.000955322 0.000409468 58.0968 -1.76571e-16 6.34485e-17
0.0005 0.000959867 0.000409468 55.4988 -1.72772e-16 5.80232e-17
0.0005 0.000963999 0.000409468 52.7767 -1.61718e-16 5.21862e-17
0.0005 0.000967755 0.000409468 49.9291 -1.47272e-16 4.5971e-17
0.0005 0.00097117 0.000409468 46.9595 -1.19979e-16 4.00762e-17
0.0005 0.000974275 0.000409468 43.876 -8.40339e-17 3.43159e-17
0.0005 0.000977097 0.000409468 40.6841 -5.62778e-17 2.84658e-17
0.0005 0.000979662 0.000409468 37.39 -4.16904e-17 2.32963e-17
0.0005 0.000981994 0.000409468 34.0237 -2.89159e-17 1.89548e-17
0.0005 0.000984115 0.000409468 30.6423 -1.24035e-17 1.55625e-17
0.0005 0.000986042 0.000409468 27.3164 5.14713e-18 1.30713e-17
0.0005 0.000987795 0.000409468 24.1158 2.12049e-17 1.13814e-17
0.0005 0.000989388 0.000409468 21.0945 3.6131e-17 1.01111e-17
0.0005 0.000990836 0.000409468 18.2839 4.92105e-17 9.09675e-18
0.0005 0.000992152 0.000409468 15.6944 5.90343e-17 8.08136e-18
0.0005 0.000993349 0.000409468 13.3224 6.78456e-17 6.93696e-18
0.0005 0.000994437 0.000409468 11.1563 7.15052e-17 5.58762e-18
0.0005 0.000995426 0.000409468 9.18151 7.23061e-17 4.14232e-18
0.0005 0.000996325 0.000409468 7.38251 6.60062e-17 2.6359e-18
0.0005 0.000997143 0.000409468 5.74436 5.68852e-17 1.22421e-18
0.0005 0.000997886 0.000409468 4.25304 4.49495e-17 3.1229e-20
0.0005 0.000998562 0.000409468 2.89559 3.0899e-17 -7.53476e-19
0.0005 0.000999176 0.000409468 1.66015 1.79934e-17 -9.25266e-19
0.0005 0.000999734 0.000409468 0.535871 6.66909e-18 -4.60363e-19
0.0005 4.56962e-05 0.000463636 103.888 1.25443e-16 -2.58523e-16
0.0005 0.000132935 0.000463636 103.51 2.58294e-16 -8.78642e-17
0.0005 0.000212242 0.000463636 102.851 1.80742e-16 7.13874e-17
0.0005 0.00028434 0.000463636 101.988 9.44426e-17 1.32912e-16
0.0005 0.000349883 0.000463636 100.98 -3.99599e-17 1.36507e-16
0.0005 0.000409468 0.000463636 99.8693 -2.06959e-16 -2.46509e-17
0.0005 0.000463636 0.000463636 98.6867 -2.93075e-16 -1.99471e-16
0.0005 0.00051288 0.000463636 97.4539 -4.67974e-16 -1.17064e-16
0.0005 0.000557647 0.000463636 96.1851 -6.01141e-16 -2.52201e-16
0.0005 0.000598344 0.000463636 94.8884 -5.66322e-16 -2.49742e-16
0.0005 0.000635342 0.000463636 93.5686 -5.54968e-16 -2.47809e-16
0.0005 0.000668976 0.000463636 92.2297 -5.40418e-16 -2.42643e-16
0.0005 0.000699553 0.000463636 90.8743 -4.91155e-16 -2.3879e-16
0.0005 0.000727349 0.000463636 89.5028 -3.83788e-16 -2.09652e-16
0.0005 0.000752619 0.000463636 88.1126 -1.97632e-16 -1.94212e-16
0.0005 0.000775592 0.000463636 86.7 -4.59821e-17 -1.74392e-16
0.0005 0.000796476 0.000463636 85.261 2.70957e-17 -1.45884e-16
0.0005 0.000815462 0.000463636 83.791 6.76533e-17 -9.10852e-17
0.0005 0.000832721 0.000463636 82.2858 6.88918e-17 -3.95429e-17
0.0005 0.000848412 0.000463636 80.741 5.50076e-17 -3.69957e-18
0.0005 0.000862676 0.000463636 79.1525 5.90503e-17 -1.30023e-18
0.0005 0.000875643 0.000463636 77.5163 6.50896e-17 -3.2552e-18
0.0005 0.000887432 0.000463636 75.8286 5.31836e-17 -7.84192e-18
0.0005 0.000898149 0.000463636 74.0853 2.72818e-17 -1.36233e-17
0.0005 0.000907891 0.000463636 72.2823 -4.41228e-18 -1.49237e-17
0.0005 0.000916748 0.000463636 70.4149 -2.85083e-17 -1.13395e-17
0.0005 0.0009248 0.000463636 68.4729 -1.76082e-17 -8.90595e-18
0.0005 0.00093212 0.000463636 66.4431 5.24707e-18 -1.1408e-17
0.0005 0.000938774 0.000463636 64.3173 -2.95916e-18 -1.77637e-17
0.0005 0.000944824 0.000463636 62.0889 -3.88229e-17 -2.42052e-17
0.0005 0.000950323 0.000463636 59.7516 -6.91469e-17 -2.99265e-17
0.0005 0.000955322 0.000463636 57.2993 -7.10777e-17 -3.48093e-17
0.0005 0.000959867 0.000463636 54.7262 -6.04894e-17 -4.03579e-17
0.0005 0.000963999 0.000463636 52.0288 -5.67812e-17 -4.596e-17
0.0005 0.000967755 0.000463636 49.2064 -6.0768e-17 -5.10875e-17
0.0005 0.00097117 0.000463636 46.2631 -6.39075e-17 -5.5507e-17
0.0005 0.000974275 0.000463636 43.2078 -6.33191e-17 -5.94544e-17
0.0005 0.000977097 0.000463636 40.0454 -5.56916e-17 -6.27275e-17
0.0005 0.000979662 0.000463636 36.783 -4.70358e-17 -6.49438e-17
0.0005 0.000981994 0.000463636 33.4533 -4.49449e-17 -6.563e-17
0.0005 0.000984115 0.000463636 30.1139 -4.00751e-17 -6.48078e-17
0.0005 0.000986042 0.000463636 26.8348 -2.89463e-17 -6.25932e-17
0.0005 0.000987795 0.000463636 23.6841 -1.90528e-17 -5.92824e-17
0.0005 0.000989388 0.000463636 20.7135 -9.66059e-18 -5.51949e-17
0.0005 0.000990836 0.000463636 17.9522 -9.5669e-20 -5.06722e-17
0.0005 0.000992152 0.000463636 15.4092 8.68153e-18 -4.59109e-17
0.0005 0.000993349 0.000463636 13.0802 1.37327e-17 -4.11535e-17
0.0005 0.000994437 0.000463636 10.9536 1.71971e-17 -3.65111e-17
0.0005 0.000995426 0.000463636 9.01477 1.70431e-17 -3.20507e-17
0.0005 0.000996325 0.000463636 7.24855 1.64404e-17 -2.77008e-17
0.0005 0.000997143 0.000463636 5.6402 1.41451e-17 -2.33676e-17
0.0005 0.000997886 0.000463636 4.17597 1.09659e-17 -1.89317e-17
0.0005 0.000998562 0.000463636 2.84316 8.70585e-18 -1.42031e-17
0.0005 0.000999176 0.000463636 1.63011 5.01285e-18 -8.94291e-18
0.0005 0.000999734 0.000463636 0.526179 2.07407e-18 -3.15435e-18
0.0005 4.56962e-05 0.00051288 102.794 1.77873e-16 -4.51655e-16
0.0005 0.000132935 0.00051288 102.406 3.16853e-16 -2.02777e-16
0.0005 0.000212242 0.00051288 101.73 1.79919e-16 -6.13808e-17
0.0005 0.00028434 0.00051288 100.844 5.406e-17 2.51909e-17
0.0005 0.000349883 0.00051288 99.8084 -2.26795e-16 9.98494e-17
0.0005 0.000409468 0.00051288 98.6672 -4.95831e-16 -7.65466e-17
0.0005 0.000463636 0.00051288 97.4539 -4.72623e-16 -1.74822e-16
0.0005 0.00051288 0.00051288 96.1923 -5.83786e-16 -1.73417e-16
0.0005 0.000557647 0.00051288 94.8973 -6.41002e-16 -1.69244e-16
0.0005 0.000598344 0.00051288 93.5737 -5.61793e-16 -1.82522e-16
0.0005 0.000635342 0.00051288 92.227 -5.64106e-16 -1.77514e-16
0.0005 0.000668976 0.00051288 90.8649 -5.40758e-16 -1.70777e-16
0.0005 0.000699553 0.00051288 89.494 -4.59921e-16 -1.49396e-16
0.0005 0.000727349 0.00051288 88.1148 -3.54007e-16 -1.18749e-16
0.0005 0.000752619 0.00051288 86.7244 -2.3305e-16 -9.82437e-17
0.0005 0.000775592 0.00051288 85.3195 -9.84877e-17 -1.11216e-16
0.0005 0.000796476 0.00051288 83.895 3.59299e-17 -1.22058e-16
0.0005 0.000815462 0.00051288 82.4455 1.2919e-16 -1.33907e-16
0.0005 0.000832721 0.00051288 80.9656 1.14342e-16 -1.45927e-16
0.0005 0.000848412 0.00051288 79.4499 -2.13085e-18 -1.53553e-16
0.0005 0.000862676 0.00051288 77.8933 -7.53811e-17 -1.4954e-16
0.0005 0.000875643 0.00051288 76.2909 -5.62892e-17 -1.36778e-16
0.0005 0.000887432 0.00051288 74.6379 -3.31011e-17 -1.22917e-16
0.0005 0.000898149 0.00051288 72.9295 -9.96758e-18 -1.1151e-16
0.0005 0.000907891 0.00051288 71.161 4.9541e-18 -9.99232e-17
0.0005 0.000916748 0.00051288 69.3274 3.01715e-18 -8.7976e-17
0.0005 0.0009248 0.00051288 67.422 -1.73591e-17 -7.60161e-17
0.0005 0.00093212 0.00051288 65.4323 -4.92913e-17 -6.75037e-17
0.0005 0.000938774 0.00051288 63.3449 -7.26723e-17 -6.07124e-17
0.0005 0.000944824 0.00051288 61.152 -7.69514e-17 -5.28651e-17
0.0005 0.000950323 0.00051288 58.8473 -8.07931e-17 -4.37681e-17
0.0005 0.000955322 0.00051288 56.4252 -9.55489e-17 -3.43158e-17
0.0005 0.000959867 0.00051288 53.8811 -1.09843e-16 -2.61953e-17
0.0005 0.000963999 0.00051288 51.212 -1.13075e-16 -1.9141e-17
0.0005 0.000967755 0.00051288 48.4183 -1.09333e-16 -1.27902e-17
0.0005 0.00097117 0.00051288 45.5049 -1.01258e-16 -6.94278e-18
0.0005 0.000974275 0.00051288 42.4814 -8.99121e-17 -1.84548e-18
0.0005 0.000977097 0.00051288 39.3519 -8.22186e-17 2.75947e-18
0.0005 0.000979662 0.00051288 36.1249 -7.96554e-17 6.54455e-18
0.0005 0.000981994 0.00051288 32.8356 -7.65835e-17 9.96738e-18
0.0005 0.000984115 0.00051288 29.5425 -7.22298e-17 1.31097e-17
0.0005 0.000986042 0.00051288 26.3148 -6.73131e-17 1.58518e-17
0.0005 0.000987795 0.00051288 23.2186 -6.33251e-17 1.79794e-17
0.0005 0.000989388 0.00051288 20.3029 -5.78396e-17 1.94196e-17
0.0005 0.000990836 0.00051288 17.5948 -4.86799e-17 1.99606e-17
0.0005 0.000992152 0.00051288 15.1019 -4.01371e-17 1.95812e-17
0.0005 0.000993349 0.00051288 12.8193 -3.36569e-17 1.83643e-17
0.0005 0.000994437 0.00051288 10.7352 -3.08615e-17 1.64666e-17
0.0005 0.000995426 0.00051288 8.83517 -2.75124e-17 1.40511e-17
0.0005 0.000996325 0.00051288 7.10424 -2.46246e-17 1.13501e-17
0.0005 0.000997143 0.00051288 5.528 -2.13538e-17 8.52145e-18
0.0005 0.000997886 0.00051288 4.09296 -1.80991e-17 5.80377e-18
0.0005 0.000998562 0.00051288 2.78667 -1.46812e-17 3.40583e-18
0.0005 0.000999176 0.00051288 1.59774 -8.59259e-18 1.57626e-18
0.0005 0.000999734 0.00051288 0.515739 -2.85806e-18 3.69312e-19
0.0005 4.56962e-05 0.000557647 101.636 2.59812e-16 -5.69719e-16
0.0005 0.000132935 0.000557647 101.242 4.01433e-16 -3.24564e-16
0.0005 0.000212242 0.000557647 100.554 1.80918e-16 -1.81982e-16
0.0005 0.00028434 0.000557647 99.651 4.18542e-17 -1.38253e-16
0.0005 0.000349883 0.000557647 98.5927 -3.40663e-16 -4.7719e-17
0.0005 0.000409468 0.000557647 97.4256 -6.41375e-16 -1.92089e-16
0.0005 0.000463636 0.000557647 96.1851 -5.36147e-16 -2.08193e-16
0.0005 0.00051288 0.000557647 94.8973 -6.16986e-16 -2.15632e-16
0.0005 0.000557647 0.000557647 93.5736 -7.38933e-16 -7.16633e-17
0.0005 0.000598344 0.000557647 92.2186 -6.62723e-16 -6.78785e-17
0.0005 0.000635342 0.000557647 90.8428 -6.16659e-16 -6.98194e-17
0.0005 0.000668976 0.000557647 89.4553 -5.6776e-16 -9.44892e-17
0.0005 0.000699553 0.000557647 88.0625 -4.8029e-16 -9.82765e-17
0.0005 0.000727349 0.000557647 86.6675 -3.79398e-16 -1.05572e-16
0.0005 0.000752619 0.000557647 85.2711 -2.74517e-16 -1.13602e-16
0.0005 0.000775592 0.000557647 83.8685 -1.65115e-16 -1.52048e-16
0.0005 0.000796476 0.000557647 82.4533 -6.99928e-17 -1.73437e-16
0.0005 0.000815462 0.000557647 81.0196 -1.2009e-17 -2.08995e-16
0.0005 0.000832721 0.000557647 79.5611 8.36262e-18 -2.62367e-16
0.0005 0.000848412 0.000557647 78.0717 3.07686e-17 -3.04507e-16
0.0005 0.000862676 0.000557647 76.5452 8.97722e-17 -2.94451e-16
0.0005 0.000875643 0.000557647 74.9757 1.29063e-16 -2.86296e-16
0.0005 0.000887432 0.000557647 73.3574 1.15054e-16 -2.8333e-16
0.0005 0.000898149 0.000557647 71.6848 8.84356e-17 -2.70657e-16
0.0005 0.000907891 0.000557647 69.9524 6.75672e-17 -2.5633e-16
0.0005 0.000916748 0.000557647 68.1547 5.2615e-17 -2.39491e-16
0.0005 0.0009248 0.000557647 66.286 4.60313e-17 -2.22547e-16
0.0005 0.00093212 0.000557647 64.3363 4.30487e-17 -2.07468e-16
0.0005 0.000938774 0.000557647 62.2908 4.04949e-17 -1.91744e-16
0.0005 0.000944824 0.000557647 60.1378 3.47507e-17 -1.73533e-16
0.0005 0.000950323 0.000557647 57.8701 2.67182e-17 -1.56078e-16
0.0005 0.000955322 0.000557647 55.4826 1.92486e-17 -1.41299e-16