5 	0.00848137685241546 	-2.77555756156289e-17 	-0.0616539963730308 	-0.00022799129964661 	-2.31719376718419e-18
5 	0.0257121859855926 	-1.73472347597681e-17 	-0.069018544047064 	-0.00226427224655676 	-2.54636573921362e-18
5 	0.0434875779150913 	-1.73472347597681e-17 	-0.0590243091746519 	-0.00420394010197743 	5.06250794077564e-19
5 	0.0618247642773334 	-2.42861286636753e-17 	-0.04903876857484 	-0.00622769307846891 	1.07178048926008e-19
5 	0.0807415006855796 	-2.77555756156289e-17 	-0.0393932393697759 	-0.00840929037860194 	-3.00696358047132e-19
5 	0.100256103922415 	-2.77555756156289e-17 	-0.0296752347436312 	-0.0106945117331595 	3.30101451626468e-19
5 	0.120387469675606 	-3.12250225675825e-17 	-0.0195981203944942 	-0.013060630732646 	6.59770428821643e-26
5 	0.141155090834502 	-3.81639164714898e-17 	-0.0089494900239076 	-0.0155045550679861 	6.45833358419935e-22
5 	0.162579076364696 	-4.85722573273506e-17 	0.00244951204007717 	-0.0180267706161129 	-5.93228138738715e-22
5 	0.184680170779227 	-5.55111512312578e-17 	0.0147635710857287 	-0.0206282276049274 	3.04182590635636e-26
5 	0.207479774225169 	-5.20417042793042e-17 	0.0281531348883238 	-0.0233102472756155 	5.38476300134767e-22
5 	0.23099996320506 	-5.20417042793042e-17 	0.0427791328023349 	-0.0260743429207512 	5.86624274963863e-24
5 	0.255263511953241 	-5.55111512312578e-17 	0.0588048000011435 	-0.0289219108631048 	5.44731903350938e-24
5 	0.28029391448779 	-5.20417042793042e-17 	0.0763959659990156 	-0.0318551348255023 	-4.90980375978322e-24
5 	0.306115407359419 	-5.55111512312578e-17 	0.0957202967893337 	-0.0348793666151519 	5.26278555432115e-22
5 	0.332752993119348 	-6.24500451351651e-17 	0.116954516774336 	-0.0379843619551312 	7.36297320749923e-27
5 	0.360232464528887 	-6.24500451351651e-17 	0.140528044394117 	-0.0411626936904983 	0
5.00000000000001 	0.38858042953417 	-6.24500451351651e-17 	0.167199526501248 	-0.044431028368361 	-6.23053285809349e-24
5.00000000000001 	0.417824337030214 	-5.89805981832114e-17 	0.197418396102402 	-0.0477761741527028 	-1.21218692020079e-21
5.00000000000001 	0.447992503439259 	-5.20417042793042e-17 	0.23100628051914 	-0.0511608100124508 	-8.84238478544391e-24
5.00000000000001 	0.479114140129123 	-4.85722573273506e-17 	0.267583612623093 	-0.054564955163187 	5.5031416751541e-25
5.00000000000001 	0.511219381698112 	-4.16333634234434e-17 	0.306810291595683 	-0.0579678090785753 	-2.93063858679737e-21
5.00000000000001 	0.544339315153888 	-3.04321997289525e-17 	0.348390266188687 	-0.0613442853221161 	-6.20732458364219e-25
5.00000000000001 	0.578506010014537 	-2.53093444639585e-17 	0.391964930260185 	-0.0646631596624045 	1.77173777428571e-24
5 	0.613752549360983 	-1.86211723124385e-17 	0.437010137794539 	-0.0678895726810468 	1.498503948521e-22
5.00000000000001 	0.650113061870825 	-1.50704101975485e-17 	0.482821031376012 	-0.070984194821153 	1.55993378065833e-21
5.00000000000001 	0.687622754864604 	-1.12757025938492e-17 	0.52856786176158 	-0.0739011014570179 	-6.62804891040755e-24
5.00000000000001 	0.726317948396508 	-4.11996825544492e-18 	0.573393929586232 	-0.0765884206495061 	-3.24083968162386e-21
5 	0.766236110422517 	-2.16840434497101e-18 	0.616499662596226 	-0.0789857024524611 	-3.04441231953267e-21
5 	0.807415893080043 	2.16840434497101e-19 	0.657169267566725 	-0.0810233884596542 	3.07608372509439e-21
5 	0.849897170114196 	-2.60208521396521e-18 	0.694700623551773 	-0.0826114267048394 	3.33642469613029e-21
5.00000000000001 	0.893721075486911 	-1.25767452008319e-17 	0.728219940555865 	-0.0836537351815252 	-2.99696515490489e-18
5.00000000000001 	0.938930043206331 	-7.80625564189563e-18 	0.756676376399734 	-0.0841733641566549 	-1.4871051629505e-16
5.00000000000001 	0.985567848414992 	2.16840434497101e-18 	0.779779234230758 	-0.0842870419495326 	1.42868397247043e-16
5.00000000000001 	1.03367964977662 	2.16840434497101e-18 	0.798579131378348 	-0.0841528958344492 	4.17554218184725e-18
5.00000000000001 	1.08331203320257 	8.67361737988404e-19 	0.814619281404347 	-0.0838744963411458 	-2.92297307152588e-21
5.00000000000001 	1.13451305696023 	-2.16840434497101e-18 	0.829171440537618 	-0.083508931978829 	-1.48800819329286e-22
5.00000000000001 	1.18733229820708 	-3.03576608295941e-18 	0.843039410946611 	-0.0830922569961957 	-2.90896741216342e-22
5.00000000000001 	1.24182090099555 	-5.63785129692462e-18 	0.856612411599989 	-0.0826420779965491 	1.59503243735083e-22
5.00000000000001 	1.29803162579495 	-1.21430643318376e-17 	0.869980132173173 	-0.0821586938799919 	5.3323325336095e-21
5.00000000000001 	1.35601890057861 	-1.82145964977565e-17 	0.883047936875307 	-0.0816315549694231 	3.91441807831698e-22
5.00000000000001 	1.4158388735257 	-2.16840434497101e-17 	0.895649154314712 	-0.0810466701011879 	4.85810276962346e-21
5.00000000000001 	1.47754946738859 	-2.34187669256869e-17 	0.907655140660006 	-0.0803872878366403 	-4.35998767806188e-21
5.00000000000001 	1.54121043557859 	-2.86229373536173e-17 	0.918979126882032 	-0.0796424087238109 	-1.90275573784934e-22
5.00000000000001 	1.60688342002421 	-3.98986399474666e-17 	0.929320554192829 	-0.0788016070726728 	-4.53638436561752e-21
5.00000000000001 	1.67463201085811 	-3.98986399474666e-17 	0.9381642941238 	-0.0778526763002588 	-2.51659977692204e-23
5.00000000000001 	1.74452180799045 	-3.03576608295941e-17 	0.944987715402442 	-0.0767640243736165 	3.75790417589398e-21
5.00000000000001 	1.81662048462825 	-2.60208521396521e-17 	0.949417991768066 	-0.0755136473248922 	-1.85035452900786e-22
5.00000000000001 	1.8909978528023 	-2.94902990916057e-17 	0.951555270317645 	-0.0741080219425575 	-3.71730840875998e-21
5.00000000000001 	1.96772593096508 	-2.94902990916057e-17 	0.952125527191647 	-0.0726017953374366 	-4.22239455361635e-21
5.00000000000001 	2.0468790137251 	-2.60208521396521e-17 	0.952087837361029 	-0.0710664102949651 	-1.34516598059601e-21
5.00000000000001 	2.12853374378525 	-2.77555756156289e-17 	0.952034677818234 	-0.0695380371722671 	5.77912220060396e-21
5.00000000000001 	2.2127691861547 	-2.60208521396521e-17 	0.952115275185081 	-0.0680221375083074 	-3.94948476150036e-23
5.00000000000001 	2.29966690470632 	-2.60208521396521e-17 	0.952293676135836 	-0.0665154077427862 	-5.87315062679832e-21
5.00000000000001 	2.38931104115376 	-2.08166817117217e-17 	0.95251449911563 	-0.0650130245157598 	5.93615095639692e-21
5.00000000000001 	2.48178839652453 	-1.56125112837913e-17 	0.952752446891663 	-0.063514067468461 	1.01503132678776e-21
5.00000000000001 	2.57718851520809 	-2.08166817117217e-17 	0.953003473669627 	-0.0620183950115815 	5.01580932519979e-22
5.00000000000001 	2.67560377166032 	-2.77555756156289e-17 	0.953263260264758 	-0.060525368004882 	5.24267474815425e-22
5.00000000000001 	2.77712945984825 	-1.90819582357449e-17 	0.953526729750913 	-0.0590343644336736 	8.48487266595027e-21
5.00000000000001 	2.88186388552171 	-1.73472347597681e-18 	0.95380205823604 	-0.0575461143121993 	3.14435809166006e-21
5.00000000000001 	2.98990846140133 	-1.73472347597681e-18 	0.954106386162632 	-0.0560620973698945 	-1.32889798841391e-21
5.00000000000001 	3.10136780537485 	-3.46944695195361e-18 	0.954434818033608 	-0.0545814535802291 	-3.19793036036602e-21
5.00000000000001 	3.21634984179699 	0 	0.954753825203451 	-0.0531010302659544 	-8.97227924266547e-21
5.00000000000001 	3.33496590599099 	-3.46944695195361e-18 	0.955051417178769 	-0.0516202755465403 	-1.234729701285e-21
5.00000000000001 	3.45733085205282 	-1.38777878078145e-17 	0.955371120576582 	-0.0501427249692215 	1.07228378021348e-21
5.00000000000001 	3.58356316406265 	-2.77555756156289e-17 	0.955759415355317 	-0.0486713620428017 	7.0314289976074e-21
5.00000000000001 	3.71378507081114 	-3.46944695195361e-17 	0.956190985673553 	-0.0472034128561157 	7.82838053713777e-21
5 	3.84812266415166 	-3.46944695195361e-17 	0.956587484135106 	-0.0457333057954176 	5.32486895054775e-21
5.00000000000001 	3.98670602109313 	-3.46944695195361e-17 	0.956930697034275 	-0.0442608687067174 	5.4301766749506e-23
5.00000000000001 	4.12966932975153 	-3.46944695195361e-17 	0.957299376300289 	-0.0427919236134095 	-2.39822817390191e-21
5.00000000000001 	4.27715101928217 	-3.46944695195361e-17 	0.957743959054744 	-0.0413286462041759 	-1.42093357204247e-22
5.00000000000001 	4.4292938939185 	-3.46944695195361e-17 	0.958186469055621 	-0.0398642271834514 	-2.00757325616214e-21
5.00000000000001 	4.58624527124729 	-3.46944695195361e-17 	0.958555022816826 	-0.0383967506490227 	-6.31512964584656e-21
5.00000000000001 	4.71557360476393 	-3.81639164714898e-17 	0.958832848780373 	-0.0372204066970358 	-8.31508472308692e-21
5.00000000000001 	4.79778894286176 	-4.85722573273506e-17 	0.959016055780583 	-0.0364823684140483 	-5.99602639203035e-21
