5 	0.00848137685241546 	-2.77555756156289e-17 	0.0657700951886602 	0.000393433461735289 	79.0349755181392 	1.15054176435952e-05
5 	0.0257121859855926 	-1.73472347597681e-17 	0.0657114117075117 	0.00379162089446927 	16.9242907505763 	0.000268387342902037
5 	0.0434875779150913 	-1.73472347597681e-17 	0.065546262788633 	0.00715517060359419 	7.06317923460536 	0.00105147102689599
5 	0.0618247642773334 	-2.42861286636753e-17 	0.0652924467887306 	0.00953823618179912 	4.63161989793918 	0.00208112996697629
5 	0.0807415006855796 	-2.77555756156289e-17 	0.0650164989853229 	0.0114218775180003 	3.62612876550845 	0.00316232669175434
5 	0.100256103922415 	-2.77555756156289e-17 	0.064747404458758 	0.0130453359095616 	3.10566593348177 	0.0042076503076483
5 	0.120387469675606 	-3.12250225675825e-17 	0.0644927036863989 	0.0145170135246136 	2.80855085021032 	0.00517284902457751
5 	0.141155090834502 	-3.81639164714898e-17 	0.0642565306631402 	0.0158927187931248 	2.63463233180383 	0.00603429647421819
5 	0.162579076364696 	-4.85722573273506e-17 	0.0640413836724771 	0.0172035397839965 	2.53754867439433 	0.00678050743141041
5 	0.184680170779227 	-5.55111512312578e-17 	0.0638478331626937 	0.0184668978062485 	2.49294577884353 	0.00740793380408923
5 	0.207479774225169 	-5.20417042793042e-17 	0.0636750298679276 	0.019691387871464 	2.48677998100197 	0.0079183757386847
5 	0.23099996320506 	-5.20417042793042e-17 	0.0635213545016814 	0.020879026268484 	2.51030032782202 	0.00831716377905386
5 	0.255263511953241 	-5.55111512312578e-17 	0.0633846867206364 	0.022026300714055 	2.5576353598504 	0.00861178981319572
5 	0.28029391448779 	-5.20417042793042e-17 	0.0632616292008941 	0.0231246073003374 	2.62451872690198 	0.00881084981808189
5 	0.306115407359419 	-5.55111512312578e-17 	0.0631482122326891 	0.0241603696610631 	2.70755836001922 	0.00892323665346572
5 	0.332752993119348 	-6.24500451351651e-17 	0.0630566093120012 	0.0251151140918003 	2.8038003562772 	0.00895477742148793
5 	0.360232464528887 	-6.24500451351651e-17 	0.0630147373058276 	0.0259678355174568 	2.91073852593647 	0.00870732394491168
5.00000000000001 	0.38858042953417 	-6.24500451351651e-17 	0.0630157621941372 	0.0266869679385113 	3.02421494231795 	0.00819658144893202
5.00000000000001 	0.417824337030214 	-5.89805981832114e-17 	0.0630146819373382 	0.0272099576869805 	3.13427287584829 	0.00771592254545682
5.00000000000001 	0.447992503439259 	-5.20417042793042e-17 	0.062986334622633 	0.0274536184283407 	3.22703788275586 	0.00732197531138378
5.00000000000001 	0.479114140129123 	-4.85722573273506e-17 	0.0629344541705574 	0.0273521868427773 	3.29118141213355 	0.00697804232330294
5.00000000000001 	0.511219381698112 	-4.16333634234434e-17 	0.0628658300094244 	0.0268679862997315 	3.32173446421145 	0.00664275330616922
5.00000000000001 	0.544339315153888 	-3.04321997289525e-17 	0.0627813940506448 	0.0259872857222351 	3.32014591927723 	0.00629904313856717
5.00000000000001 	0.578506010014537 	-2.53093444639585e-17 	0.0626765219753258 	0.0247140920091869 	3.29036299706536 	0.00595134077327281
5 	0.613752549360983 	-1.86211723124385e-17 	0.0625460371489523 	0.0230730952448618 	3.23529430147268 	0.0056136640166044
5.00000000000001 	0.650113061870825 	-1.50704101975485e-17 	0.0623859703354932 	0.0211123889056145 	3.15552199138455 	0.00530014292325932
5.00000000000001 	0.687622754864604 	-1.12757025938492e-17 	0.0621935789489661 	0.0189020185814874 	3.04923650283831 	0.00501969468163016
5.00000000000001 	0.726317948396508 	-4.11996825544492e-18 	0.0619691650725456 	0.0165289522698416 	2.91234833466446 	0.00477286431145599
5 	0.766236110422517 	-2.16840434497101e-18 	0.0617168824733789 	0.0140994242152442 	2.7403656593622 	0.00455336424964433
5 	0.807415893080043 	2.16840434497101e-19 	0.0614427176486425 	0.0117108056866377 	2.52493504476042 	0.0043413081501314
5 	0.849897170114196 	-2.60208521396521e-18 	0.0611571765217571 	0.00946484212493208 	2.25273044037143 	0.00411010759802455
5.00000000000001 	0.893721075486911 	-1.25767452008319e-17 	0.0608781397287916 	0.00751162570424011 	1.92756281168681 	0.00388038582304996
5.00000000000001 	0.938930043206331 	-7.80625564189563e-18 	0.060596057372979 	0.00600932068608833 	1.58664843786595 	0.00373894057277131
5.00000000000001 	0.985567848414992 	2.16840434497101e-18 	0.0602954521094955 	0.00499613244863111 	1.28849518381457 	0.0037632979963325
5.00000000000001 	1.03367964977662 	2.16840434497101e-18 	0.0599857877281438 	0.00435786160013323 	1.06753524008066 	0.00391544716321605
5.00000000000001 	1.08331203320257 	8.67361737988404e-19 	0.0596712552240159 	0.00393875775330728 	0.918566078356947 	0.00406429839898179
5.00000000000001 	1.13451305696023 	-2.16840434497101e-18 	0.059349347730334 	0.00362158411074791 	0.819251753964489 	0.00410893578345024
5.00000000000001 	1.18733229820708 	-3.03576608295941e-18 	0.059020253778886 	0.00333630385078186 	0.749938121550277 	0.00403769421606087
5.00000000000001 	1.24182090099555 	-5.63785129692462e-18 	0.0586863874100739 	0.0030456673721467 	0.698043103613413 	0.00389043516188087
5.00000000000001 	1.29803162579495 	-1.21430643318376e-17 	0.0583502198523542 	0.00273302402263875 	0.655787436987206 	0.00370962801166771
5.00000000000001 	1.35601890057861 	-1.82145964977565e-17 	0.0580133870501216 	0.00239432465910345 	0.618119586281524 	0.00351912872057286
5.00000000000001 	1.4158388735257 	-2.16840434497101e-17 	0.0576761732296642 	0.00203294682442181 	0.581811290249042 	0.00331646083044517
5.00000000000001 	1.47754946738859 	-2.34187669256869e-17 	0.0573381590767655 	0.00165554450357788 	0.544579155025004 	0.00302723553928691
5.00000000000001 	1.54121043557859 	-2.86229373536173e-17 	0.0569962032151161 	0.00127115610945122 	0.504118240469614 	0.00251604304660021
5.00000000000001 	1.60688342002421 	-3.98986399474666e-17 	0.0566507436968166 	0.000899261082185424 	0.458159268004009 	0.0019550603424264
5.00000000000001 	1.67463201085811 	-3.98986399474666e-17 	0.0563059479970674 	0.000567169446444604 	0.405144616898105 	0.00138958675305932
5.00000000000001 	1.74452180799045 	-3.03576608295941e-17 	0.0559640576424682 	0.000302013828868604 	0.345892270713221 	0.000860780104469863
5.00000000000001 	1.81662048462825 	-2.60208521396521e-17 	0.0556287222170124 	0.000123395239627807 	0.286698845344492 	0.000418967612104991
5.00000000000001 	1.8909978528023 	-2.94902990916057e-17 	0.0553035792995905 	3.18943168943863e-05 	0.238750707068145 	0.000127192191496019
5.00000000000001 	1.96772593096508 	-2.94902990916057e-17 	0.0549896997667234 	3.01378466737805e-06 	0.209561734327404 	1.293667232598e-05
5.00000000000001 	2.0468790137251 	-2.60208521396521e-17 	0.0546842075321529 	5.83830751718901e-07 	0.195217643093558 	3.00839226092877e-06
5.00000000000001 	2.12853374378525 	-2.77555756156289e-17 	0.0543839939738176 	2.08203826658933e-06 	0.186729722881715 	1.12189205915688e-05
5.00000000000001 	2.2127691861547 	-2.60208521396521e-17 	0.0540880651944181 	3.21965918699686e-06 	0.17907576045146 	1.80139084201382e-05
5.00000000000001 	2.29966690470632 	-2.60208521396521e-17 	0.0537962145355029 	3.09274583580665e-06 	0.171111896054817 	1.80523049830988e-05
5.00000000000001 	2.38931104115376 	-2.08166817117217e-17 	0.0535083740874383 	2.27445547368177e-06 	0.163032113722718 	1.39039934637812e-05
5.00000000000001 	2.48178839652453 	-1.56125112837913e-17 	0.053224795686979 	1.58470242501714e-06 	0.155196962470494 	1.01759771263502e-05
5.00000000000001 	2.57718851520809 	-2.08166817117217e-17 	0.0529455452436213 	1.18980719507238e-06 	0.14775723407446 	8.03235503761183e-06
5.00000000000001 	2.67560377166032 	-2.77555756156289e-17 	0.0526707050139782 	9.48545177420284e-07 	0.140686426889585 	6.72795808745105e-06
5.00000000000001 	2.77712945984825 	-1.90819582357449e-17 	0.0524003964850006 	7.65950344121759e-07 	0.133918160993306 	5.7073332506233e-06
5.00000000000001 	2.88186388552171 	-1.73472347597681e-18 	0.0521347909632954 	6.25782175530037e-07 	0.127411240715607 	4.90148794004564e-06
5.00000000000001 	2.98990846140133 	-1.73472347597681e-18 	0.0518740927799987 	5.17251974721703e-07 	0.121161109636515 	4.26012163924208e-06
5.00000000000001 	3.10136780537485 	-3.46944695195361e-18 	0.0516185135407121 	4.22353366350561e-07 	0.115182308001968 	3.65765799272731e-06
5.00000000000001 	3.21634984179699 	0 	0.0513683305260344 	3.4173359359889e-07 	0.109469531202059 	3.11420160588952e-06
5.00000000000001 	3.33496590599099 	-3.46944695195361e-18 	0.0511238448806608 	2.90858539604712e-07 	0.103988631357945 	2.79376209217442e-06
5.00000000000001 	3.45733085205282 	-1.38777878078145e-17 	0.0508853714538525 	2.67515077141782e-07 	0.0987233083538275 	2.70905156903374e-06
5.00000000000001 	3.58356316406265 	-2.77555756156289e-17 	0.0506531797524623 	2.46364175323749e-07 	0.0937093430363221 	2.62619329125098e-06
5.00000000000001 	3.71378507081114 	-3.46944695195361e-17 	0.0504275515531893 	2.12227678732257e-07 	0.0890004970491177 	2.37844248454079e-06
5 	3.84812266415166 	-3.46944695195361e-17 	0.050208805390235 	1.72680189388391e-07 	0.084612864745421 	2.03391725343268e-06
5.00000000000001 	3.98670602109313 	-3.46944695195361e-17 	0.0499972774146064 	1.41574620120095e-07 	0.0805310554290675 	1.75414026091975e-06
5.00000000000001 	4.12966932975153 	-3.46944695195361e-17 	0.0497932571904266 	1.28472094452264e-07 	0.076780451321222 	1.67336763168222e-06
5.00000000000001 	4.27715101928217 	-3.46944695195361e-17 	0.049596961096909 	1.17219216607994e-07 	0.0734570416689065 	1.59211958104233e-06
5.00000000000001 	4.4292938939185 	-3.46944695195361e-17 	0.0494086265705886 	8.391625841134e-08 	0.0706533303951305 	1.17800206215629e-06
5.00000000000001 	4.58624527124729 	-3.46944695195361e-17 	0.0492283389380781 	4.47066530527053e-08 	0.0684132187538053 	6.47021320241477e-07
5.00000000000001 	4.71557360476393 	-3.81639164714898e-17 	0.0490894806617668 	2.73298835393311e-08 	0.0670533034565202 	4.06530310829796e-07
5.00000000000001 	4.79778894286176 	-4.85722573273506e-17 	0.0490068808433929 	2.48455280129993e-08 	0.0664133834671062 	3.73853273383265e-07
