# Wall shear stress
# Time        	patch         	min           	max           
2.428000e+03	wallTop	(-7.557118e+00 -8.116274e-16 -1.576837e-16)	(-2.838487e-02 7.749994e-16 4.631873e-16)
2.428000e+03	wallSide	(-5.721283e+00 -1.779003e-16 -3.890476e-17)	(-2.777850e-02 6.410338e-16 7.480278e-17)
