8 	0.00848137685241545 	3.46944695195361e-18 	0.0808933464664557 	-0.000184530839271659 	-1.04435028764751e-21
8 	0.0257121859855925 	0 	0.182354187015128 	-0.000948111242775599 	-1.04019951857703e-21
8 	0.0434875779150913 	-1.73472347597681e-17 	0.223595988769998 	-0.00197874939890813 	0
8 	0.0618247642773333 	-3.12250225675825e-17 	0.243460296256363 	-0.00310996822804689 	-1.03305615351583e-22
8 	0.0807415006855794 	-3.81639164714898e-17 	0.257047877353835 	-0.00433018078660761 	-3.30795421243422e-17
8 	0.100256103922415 	-4.5102810375397e-17 	0.268348342634064 	-0.00562032513683738 	-9.40654394758971e-17
8 	0.120387469675606 	-5.89805981832114e-17 	0.278728950981638 	-0.00696327397427776 	-8.89175879172678e-17
8 	0.141155090834502 	-6.59194920871187e-17 	0.288816462010924 	-0.00835069906208974 	-2.79316648579467e-17
8 	0.162579076364696 	-6.59194920871187e-17 	0.298967581074436 	-0.00977767920817548 	3.27020443590606e-22
8 	0.184680170779227 	-6.24500451351651e-17 	0.309421411844914 	-0.0112400537035463 	-2.57500336867123e-17
8 	0.207479774225168 	-6.24500451351651e-17 	0.320359435697811 	-0.01273366370662 	-7.66700150041797e-17
7.99999999999999 	0.230999963205059 	-6.93889390390723e-17 	0.331932343106734 	-0.0142540417085636 	-7.60788159947524e-17
7.99999999999999 	0.25526351195324 	-6.24500451351651e-17 	0.34427289019929 	-0.0157961981015008 	-2.51585462496667e-17
7.99999999999999 	0.28029391448779 	-5.55111512312578e-17 	0.357502006905761 	-0.0173544654749425 	2.97201853825789e-22
7.99999999999999 	0.306115407359419 	-5.20417042793042e-17 	0.371731210968498 	-0.0189223672316311 	-4.58769606670158e-22
7.99999999999999 	0.332752993119347 	-4.5102810375397e-17 	0.387062732075735 	-0.0204924378467009 	1.16401966201479e-24
7.99999999999999 	0.360232464528886 	-4.5102810375397e-17 	0.403588035187478 	-0.022056212574595 	1.58029327746337e-22
7.99999999999999 	0.388580429534169 	-5.55111512312578e-17 	0.421385170194181 	-0.0236055451168025 	-3.02397136761461e-17
7.99999999999999 	0.417824337030213 	-6.59194920871187e-17 	0.440516575361092 	-0.0251314231577279 	-9.2002028361743e-17
7.99999999999999 	0.447992503439258 	-6.93889390390723e-17 	0.461095778553096 	-0.0266092417746008 	-9.32417417203967e-17
7.99999999999999 	0.479114140129122 	-6.59194920871187e-17 	0.483525354506041 	-0.0280147513027773 	-3.14784533310752e-17
7.99999999999999 	0.511219381698111 	-6.59194920871187e-17 	0.508223062008182 	-0.0293263942467239 	5.09207034079629e-22
7.99999999999999 	0.544339315153887 	-6.93889390390723e-17 	0.535066820172865 	-0.0305198553091894 	1.9635623709806e-21
8 	0.578506010014536 	-6.24500451351651e-17 	0.563524788460116 	-0.0315974231808727 	-1.13480315043856e-22
8 	0.613752549360982 	-4.85722573273506e-17 	0.592912104448818 	-0.0325703878607073 	-4.18730880956269e-17
8 	0.650113061870824 	-4.16333634234434e-17 	0.622482427154332 	-0.033447499648702 	-1.26931163020377e-16
8 	0.687622754864603 	-4.16333634234434e-17 	0.651410347147503 	-0.0342364696094188 	-1.2816324372467e-16
8 	0.726317948396507 	-4.5102810375397e-17 	0.678876920929465 	-0.0349463087432116 	-4.31046500963341e-17
8 	0.766236110422516 	-3.81639164714898e-17 	0.704285562162047 	-0.0355873163125268 	4.35726352320926e-22
8 	0.807415893080042 	-3.12250225675825e-17 	0.727347368314054 	-0.0361688459431576 	3.00912476527938e-21
8 	0.849897170114195 	-3.46944695195361e-17 	0.74799740984018 	-0.0366987054237138 	3.6247389794266e-24
8 	0.89372107548691 	-3.81639164714898e-17 	0.766326236810833 	-0.0371852194421745 	1.99381132057326e-21
8 	0.93893004320633 	-4.5102810375397e-17 	0.782573557261287 	-0.0376379791245926 	-5.99676562545239e-22
8 	0.985567848414991 	-4.5102810375397e-17 	0.797123480079609 	-0.0380665441280329 	-3.46780989052309e-20
8 	1.03367964977662 	-3.46944695195361e-17 	0.810442078562472 	-0.0384780659202963 	-3.75405840783284e-16
8 	1.08331203320257 	-2.77555756156289e-17 	0.822964238008159 	-0.0388754559197811 	-3.91203613032583e-16
8 	1.13451305696022 	-3.46944695195361e-17 	0.834986938357191 	-0.0392570321500847 	3.71603526640778e-19
8 	1.18733229820708 	-3.46944695195361e-17 	0.846615404523579 	-0.0396169773875878 	2.17322079532412e-21
8 	1.24182090099555 	-2.77555756156289e-17 	0.857775236305214 	-0.0399445313819313 	-3.44429537494099e-22
7.99999999999999 	1.29803162579494 	-2.77555756156289e-17 	0.868303312791775 	-0.0402252416394938 	-3.2932833261614e-22
7.99999999999999 	1.3560189005786 	-2.77555756156289e-17 	0.878136648648991 	-0.0404558769155178 	3.30552569608882e-22
7.99999999999999 	1.41583887352569 	-3.46944695195361e-17 	0.887407916387441 	-0.0406396649315978 	1.18801369414193e-24
7.99999999999999 	1.47754946738859 	-3.46944695195361e-17 	0.896115259633718 	-0.0407835979126222 	-3.37434376915032e-21
7.99999999999999 	1.54121043557858 	-3.12250225675825e-17 	0.903890044341476 	-0.0408757227219999 	1.85791148749053e-19
7.99999999999999 	1.6068834200242 	-3.81639164714898e-17 	0.910184941285597 	-0.0409016739263386 	-6.03661166207822e-16
7.99999999999999 	1.6746320108581 	-4.16333634234434e-17 	0.914539466221372 	-0.0408515286153952 	-6.30909344257545e-16
7.99999999999999 	1.74452180799044 	-3.81639164714898e-17 	0.91692588777009 	-0.0407210468479626 	-6.28941561223162e-17
7.99999999999999 	1.81662048462824 	-2.77555756156289e-17 	0.917914481644594 	-0.0405265635415394 	-1.85569669681235e-16
7.99999999999999 	1.89099785280229 	-1.73472347597681e-17 	0.918336926095163 	-0.0402971861757374 	-2.39678119250549e-16
7.99999999999999 	1.96772593096507 	-6.93889390390723e-18 	0.91873529715914 	-0.0400502284664486 	-2.78602594595591e-16
7.99999999999999 	2.0468790137251 	0 	0.919254817687848 	-0.0397878632525407 	-3.51041337984677e-16
7.99999999999999 	2.12853374378525 	-6.93889390390723e-18 	0.919867563052939 	-0.0395076078252744 	-3.19611543036696e-16
7.99999999999999 	2.21276918615469 	-1.38777878078145e-17 	0.920529873043729 	-0.0392069790288021 	-1.70318812110619e-16
7.99999999999999 	2.29966690470631 	-1.38777878078145e-17 	0.921218054968306 	-0.0388847969074227 	-4.07905223721128e-17
7.99999999999999 	2.38931104115375 	-1.73472347597681e-17 	0.921923141587994 	-0.0385403357488976 	-4.87015202094035e-21
7.99999999999999 	2.48178839652452 	-1.73472347597681e-17 	0.9226411871942 	-0.0381730441640194 	7.10102785778853e-24
7.99999999999999 	2.57718851520809 	-1.38777878078145e-17 	0.923369778593851 	-0.0377823746427248 	0
8 	2.67560377166032 	-1.73472347597681e-17 	0.924112134302074 	-0.0373681876604689 	-3.16331924996302e-17
8 	2.77712945984824 	-1.38777878078145e-17 	0.924877538550974 	-0.0369307738781621 	-1.76168510640418e-16
7.99999999999999 	2.88186388552171 	-6.93889390390723e-18 	0.925669077104991 	-0.0364700283732086 	-1.4316394671124e-15
7.99999999999999 	2.98990846140133 	-1.04083408558608e-17 	0.926471097295318 	-0.0359847842969172 	1.09414441158522e-15
7.99999999999999 	3.10136780537484 	-1.04083408558608e-17 	0.927261015513675 	-0.0354736338786159 	1.08316461147186e-17
7.99999999999999 	3.21634984179699 	-6.93889390390723e-18 	0.928042409202398 	-0.0349367861899746 	-9.51686491182876e-21
7.99999999999999 	3.33496590599099 	-1.04083408558608e-17 	0.92885437118372 	-0.0343763390755352 	9.43405201851189e-21
7.99999999999999 	3.45733085205282 	-1.04083408558608e-17 	0.929727758451612 	-0.0337934510421782 	2.0259847442931e-22
7.99999999999999 	3.58356316406265 	-1.04083408558608e-17 	0.930634658427421 	-0.0331865579164124 	-1.59381435379986e-17
7.99999999999999 	3.71378507081113 	-1.04083408558608e-17 	0.931507364473521 	-0.0325516554911128 	-3.93712645901077e-17
7.99999999999999 	3.84812266415166 	-6.93889390390723e-18 	0.932324071890264 	-0.0318897092085025 	-4.06613970653263e-17
7.99999999999999 	3.98670602109313 	-1.04083408558608e-17 	0.933150401573008 	-0.0312014729925789 	-8.20086160323332e-16
7.99999999999999 	4.12966932975152 	-1.73472347597681e-17 	0.934051348202457 	-0.0304956611492545 	-8.17638058112312e-16
7.99999999999999 	4.27715101928216 	-1.11130722679764e-17 	0.934977244738147 	-0.0297572306918046 	-7.67129148454982e-19
7.99999999999999 	4.4292938939185 	6.1257422745431e-18 	0.935822081957356 	-0.0290029244567908 	-9.70636701347328e-16
7.99999999999999 	4.58624527124728 	1.46367293285543e-17 	0.936601163705855 	-0.0281985704252558 	-9.51814559523833e-16
8 	4.74815712485386 	1.43114686768087e-17 	0.937416250366338 	-0.0274081251662455 	-7.78347337506306e-16
8 	4.91518623147584 	1.56125112837913e-17 	0.938274913862573 	-0.0265391022003855 	-7.49392419847029e-16
