8 	0.00848137685241545 	3.46944695195361e-18 	0.103234671850499 	0.000645941555965263 	69.5325010736433 	3.33000238708689e-05
8 	0.0257121859855925 	0 	0.103207492068536 	0.00295336830281284 	26.9353545588154 	0.000244596279467747
8 	0.0434875779150913 	-1.73472347597681e-17 	0.103139406319617 	0.00531586457862955 	8.73477063251967 	0.000766702311390463
8 	0.0618247642773333 	-3.12250225675825e-17 	0.103031546615857 	0.00708720668577293 	5.04349618247629 	0.00151799953028576
8 	0.0807415006855794 	-3.81639164714898e-17 	0.102901806443768 	0.00846893384724418 	3.69307779108846 	0.00236806185647216
8 	0.100256103922415 	-4.5102810375397e-17 	0.102764590363118 	0.00963911667620622 	3.02652121683614 	0.00323416403176593
8 	0.120387469675606 	-5.89805981832114e-17 	0.102626883954132 	0.0106804363126934 	2.64523902317663 	0.00406956158094032
8 	0.141155090834502 	-6.59194920871187e-17 	0.10249231785244 	0.0116352528918465 	2.41074097858644 	0.00484649398386634
8 	0.162579076364696 	-6.59194920871187e-17 	0.102363043747086 	0.0125268512586264 	2.262649035139 	0.00554829898024065
8 	0.184680170779227 	-6.24500451351651e-17 	0.10224012256481 	0.0133679981818138 	2.17041895767041 	0.00616563651126766
8 	0.207479774225168 	-6.24500451351651e-17 	0.102123746013498 	0.014164749391595 	2.11684945343153 	0.00669433618288979
7.99999999999999 	0.230999963205059 	-6.93889390390723e-17 	0.102013445820656 	0.014918252943077 	2.09137891967096 	0.00713396058226219
7.99999999999999 	0.25526351195324 	-6.24500451351651e-17 	0.101908252537461 	0.0156256159862487 	2.08699024786509 	0.00748673197725401
7.99999999999999 	0.28029391448779 	-5.55111512312578e-17 	0.101806815566004 	0.0162803070697592 	2.09863237359344 	0.00775667417720973
7.99999999999999 	0.306115407359419 	-5.20417042793042e-17 	0.101707514862023 	0.0168723341117237 	2.12234726967199 	0.00794890423013528
7.99999999999999 	0.332752993119347 	-4.5102810375397e-17 	0.101608575311346 	0.0173883419431079 	2.15475346008492 	0.00806904506905056
7.99999999999999 	0.360232464528886 	-4.5102810375397e-17 	0.101507935775839 	0.0178117318435602 	2.19272347973653 	0.0081227467898242
7.99999999999999 	0.388580429534169 	-5.55111512312578e-17 	0.101402594855939 	0.0181228817598722 	2.23317394682207 	0.0081153105525999
7.99999999999999 	0.417824337030213 	-6.59194920871187e-17 	0.10129125641713 	0.0182994713798623 	2.27291987467618 	0.0080514002684335
7.99999999999999 	0.447992503439258 	-6.93889390390723e-17 	0.10118534568859 	0.0183148528773229 	2.30845365151134 	0.007881450908438
7.99999999999999 	0.479114140129122 	-6.59194920871187e-17 	0.101096344006035 	0.0181302554345258 	2.33498049308898 	0.00741719351844689
7.99999999999999 	0.511219381698111 	-6.59194920871187e-17 	0.101006326250546 	0.017697219096079 	2.34463913504443 	0.00684710520521594
7.99999999999999 	0.544339315153887 	-6.93889390390723e-17 	0.100888015785828 	0.0169727209508909 	2.32841530732037 	0.00631582425667343
8 	0.578506010014536 	-6.24500451351651e-17 	0.100733285934168 	0.0159446990298924 	2.28122217803615 	0.00584965462138565
8 	0.613752549360982 	-4.85722573273506e-17 	0.100544166811841 	0.0146418856437305 	2.20318440313599 	0.00543398881594974
8 	0.650113061870824 	-4.16333634234434e-17 	0.100321891044673 	0.013136221878795 	2.0985416546834 	0.00506696533385897
8 	0.687622754864603 	-4.16333634234434e-17 	0.100065624779167 	0.0115471650490206 	1.97646060497024 	0.00476817966618365
8 	0.726317948396507 	-4.5102810375397e-17 	0.0997752223227495 	0.00998363954541684 	1.84050835762929 	0.00454315151716001
8 	0.766236110422516 	-3.81639164714898e-17 	0.0994523014584184 	0.00851356999386556 	1.68745059587691 	0.00436958234522825
8 	0.807415893080042 	-3.12250225675825e-17 	0.099098718546118 	0.0071976159996604 	1.51986619809842 	0.00423167269433134
8 	0.849897170114195 	-3.46944695195361e-17 	0.0987156379172479 	0.00607709386207944 	1.34646279412684 	0.00412845939331266
8 	0.89372107548691 	-3.81639164714898e-17 	0.0983039701917646 	0.00516389183258542 	1.17905360639392 	0.00406143356136311
8 	0.93893004320633 	-4.5102810375397e-17 	0.0978648830094906 	0.00444207452140365 	1.02901278084522 	0.00401856814904531
8 	0.985567848414991 	-4.5102810375397e-17 	0.0973999524672957 	0.00387582139644457 	0.903615241991756 	0.00396846496532081
8 	1.03367964977662 	-3.46944695195361e-17 	0.0969108116686334 	0.00342090525764002 	0.804333189241525 	0.00387546123579578
8 	1.08331203320257 	-2.77555756156289e-17 	0.0963985490499624 	0.00303544371481288 	0.727993516302474 	0.00372491023590286
8 	1.13451305696022 	-3.46944695195361e-17 	0.0958634686610249 	0.00268657301397861 	0.669233351101419 	0.00353210712830851
8 	1.18733229820708 	-3.46944695195361e-17 	0.095305479472925 	0.00235311591019151 	0.62248280897159 	0.00332871735234923
8 	1.24182090099555 	-2.77555756156289e-17 	0.0947249209752562 	0.00202547437502179 	0.58308073276844 	0.00314125374125419
7.99999999999999 	1.29803162579494 	-2.77555756156289e-17 	0.094122273240477 	0.00170254580539111 	0.547709878137016 	0.00295578163337953
7.99999999999999 	1.3560189005786 	-2.77555756156289e-17 	0.0934952460923105 	0.00138467801902653 	0.513880060906235 	0.00267128974187381
7.99999999999999 	1.41583887352569 	-3.46944695195361e-17 	0.0928447104868695 	0.00106928421712172 	0.478600903320804 	0.00222479657095496
7.99999999999999 	1.47754946738859 	-3.46944695195361e-17 	0.0921739186898586 	0.000761539717719042 	0.43816624686341 	0.00172554727790184
7.99999999999999 	1.54121043557858 	-3.12250225675825e-17 	0.0914832852017404 	0.000480677140038198 	0.38940888568272 	0.00121835825118368
7.99999999999999 	1.6068834200242 	-3.81639164714898e-17 	0.0907748975373822 	0.000253477403130904 	0.332117891854922 	0.000745300958375435
7.99999999999999 	1.6746320108581 	-4.16333634234434e-17 	0.0900524044441198 	0.000101411946996986 	0.272771443481827 	0.000357084251378517
7.99999999999999 	1.74452180799044 	-3.81639164714898e-17 	0.0893198864836221 	2.55572951642447e-05 	0.224326377007341 	0.000107193154427748
7.99999999999999 	1.81662048462824 	-2.77555756156289e-17 	0.088580872703597 	2.31937772215479e-06 	0.196042486318162 	1.07190766004127e-05
7.99999999999999 	1.89099785280229 	-1.73472347597681e-17 	0.087836898877524 	8.45653559852608e-07 	0.183624497342261 	4.64069104647057e-06
7.99999999999999 	1.96772593096507 	-6.93889390390723e-18 	0.087088459106527 	2.09769652822253e-06 	0.176979204892747 	1.19003581841291e-05
7.99999999999999 	2.0468790137251 	0 	0.086335995615399 	2.9475995673245e-06 	0.170878026506993 	1.72677569925119e-05
7.99999999999999 	2.12853374378525 	-6.93889390390723e-18 	0.0855801035243704 	2.89694995078686e-06 	0.164367577986411 	1.76112030907553e-05
7.99999999999999 	2.21276918615469 	-1.38777878078145e-17 	0.0848214972124723 	2.29109008211376e-06 	0.157659412476693 	1.4504699746162e-05
7.99999999999999 	2.29966690470631 	-1.38777878078145e-17 	0.0840610033461949 	1.65046971134657e-06 	0.151025798849901 	1.09059012093283e-05
7.99999999999999 	2.38931104115375 	-1.73472347597681e-17 	0.0832994580977183 	1.2244679136823e-06 	0.144624340951027 	8.45347161071654e-06
7.99999999999999 	2.48178839652452 	-1.73472347597681e-17 	0.082537729164354 	9.79965911506998e-07 	0.138484752947544 	7.06872975443982e-06
7.99999999999999 	2.57718851520809 	-1.38777878078145e-17 	0.0817766945063965 	8.0955741529832e-07 	0.132568005568024 	6.10105675678955e-06
8 	2.67560377166032 	-1.73472347597681e-17 	0.0810172601792482 	6.7133915336354e-07 	0.126837291785711 	5.28833513647307e-06
8 	2.77712945984824 	-1.38777878078145e-17 	0.0802603291598505 	5.59466580619222e-07 	0.121281463637202 	4.60927348054444e-06
7.99999999999999 	2.88186388552171 	-6.93889390390723e-18 	0.0795067882870979 	4.66655277957716e-07 	0.115905660269473 	4.02303740105966e-06
7.99999999999999 	2.98990846140133 	-1.04083408558608e-17 	0.0787575430546122 	3.85395156438682e-07 	0.110715054773293 	3.47838548421638e-06
7.99999999999999 	3.10136780537484 	-1.04083408558608e-17 	0.0780135515490508 	3.20403270130345e-07 	0.105703216304556 	3.02951199425548e-06
7.99999999999999 	3.21634984179699 	-6.93889390390723e-18 	0.0772758113445031 	2.80740114392723e-07 	0.100857134257311 	2.78289459461555e-06
7.99999999999999 	3.33496590599099 	-1.04083408558608e-17 	0.0765452443338936 	2.61099586023156e-07 	0.0961782516158346 	2.71447977918531e-06
7.99999999999999 	3.45733085205282 	-1.04083408558608e-17 	0.0758227044649445 	2.41683483042771e-07 	0.0916937064519773 	2.63521073686418e-06
7.99999999999999 	3.58356316406265 	-1.04083408558608e-17 	0.0751089296062656 	2.09591489149965e-07 	0.0874382112868238 	2.3961563056505e-06
7.99999999999999 	3.71378507081113 	-1.04083408558608e-17 	0.0744049979751237 	1.7139842443258e-07 	0.0834286851504072 	2.05369572761031e-06
7.99999999999999 	3.84812266415166 	-6.93889390390723e-18 	0.0737115790511624 	1.41843344475755e-07 	0.0796671739714255 	1.78012560517318e-06
7.99999999999999 	3.98670602109313 	-1.04083408558608e-17 	0.0730303356652487 	1.28603650220836e-07 	0.0761758938521926 	1.68817954870938e-06
7.99999999999999 	4.12966932975152 	-1.73472347597681e-17 	0.0723605507805649 	1.21670842483955e-07 	0.0730236966932351 	1.6660824453587e-06
7.99999999999999 	4.27715101928216 	-1.11130722679764e-17 	0.0717056100112472 	9.58673106834004e-08 	0.0702931534459767 	1.36377215901005e-06
7.99999999999999 	4.4292938939185 	6.1257422745431e-18 	0.0710614217195002 	5.14934423894137e-08 	0.0680436623665325 	7.56618000053708e-07
7.99999999999999 	4.58624527124728 	1.46367293285543e-17 	0.0704370502917869 	2.38922449717315e-08 	0.0663205203825929 	3.60124060728046e-07
8 	4.74815712485386 	1.43114686768087e-17 	0.0698211162919743 	2.26086350262244e-08 	0.0652185430415089 	3.46670347517055e-07
8 	4.91518623147584 	1.56125112837913e-17 	0.0692325395101551 	3.14838477954306e-08 	0.0648209064242156 	4.85697031140041e-07
