5 	0.00391112967796275 	3.46944695195361e-18 	-0.0245761650681143 	2.5725874181599e-05 	0
5 	0.0118766651674914 	3.46944695195361e-18 	-0.0641362047376732 	-0.000150814188672187 	-5.12934524705704e-25
5 	0.0201340015485759 	-3.46944695195361e-18 	-0.0922802606779874 	-0.000461136154161493 	6.13472624657262e-21
5 	0.028693828342395 	-1.04083408558608e-17 	-0.106666380108919 	-0.000942024005358856 	4.37795353265334e-21
5 	0.0375672266585909 	-1.38777878078145e-17 	-0.110474081613261 	-0.0015207267226713 	3.8033164475634e-23
5 	0.0467656835403032 	-1.73472347597681e-17 	-0.109669777161545 	-0.00214662022314049 	4.99714421693883e-23
5 	0.0563011068347005 	-2.08166817117217e-17 	-0.107214399208599 	-0.00281754589696252 	-2.37954830374523e-21
5 	0.0661858406082648 	-2.77555756156289e-17 	-0.104101164003188 	-0.00353145068042323 	-1.82564938202307e-21
5 	0.0764326811267816 	-3.81639164714898e-17 	-0.100656186776251 	-0.00428354713912726 	-3.1829519486873e-23
5 	0.0870548934207257 	-4.16333634234434e-17 	-0.0969934002280047 	-0.0050708746804935 	-5.70339036126124e-22
5 	0.0980662284574841 	-4.16333634234434e-17 	-0.0931516922280168 	-0.00589232487788238 	5.46887135539068e-22
5 	0.109480940942647 	-4.85722573273506e-17 	-0.0891396959553109 	-0.00674769624960843 	1.79045742638668e-21
5 	0.121313807773417 	-5.20417042793042e-17 	-0.084952196577182 	-0.00763720138457271 	1.30066332311288e-23
5 	0.13358014716801 	-5.20417042793042e-17 	-0.080576747353857 	-0.00856129110559055 	7.47465090844111e-22
5 	0.146295838495838 	-5.20417042793042e-17 	-0.0759965161162752 	-0.00952057972874326 	2.3188118314165e-18
5 	0.159477342834115 	-5.20417042793042e-17 	-0.0711915376100448 	-0.0105158002277936 	1.82345908333236e-16
5 	0.173141724277517 	-5.55111512312578e-17 	-0.0661392355875885 	-0.0115477744994177 	-1.72345380802369e-16
5 	0.18730667202848 	-5.20417042793042e-17 	-0.0608145856294764 	-0.0126173932449077 	-1.70661871154104e-18
5 	0.201990523296728 	-4.5102810375397e-17 	-0.0551900886517803 	-0.0137256014555679 	-5.88731388863992e-22
5 	0.217212287037676 	-4.16333634234434e-17 	-0.0492356373410594 	-0.0148733868525642 	-5.80682086162371e-22
5 	0.232991668560441 	-4.5102810375397e-17 	-0.0429183173679194 	-0.016061769624666 	-1.66002457373784e-21
5 	0.249349095037321 	-5.20417042793042e-17 	-0.0362021659087584 	-0.0172917922893222 	-8.98480089892858e-24
5 	0.266305741947753 	-5.20417042793042e-17 	-0.0290479006358336 	-0.0185645086864643 	-2.16307988423104e-21
5 	0.283883560490999 	-4.85722573273506e-17 	-0.0214126279610358 	-0.0198809711230121 	-1.06796576958692e-21
5 	0.30210530600303 	-4.85722573273506e-17 	-0.0132495376290609 	-0.0212422144599348 	-3.73349246099094e-23
5 	0.320994567414414 	-4.16333634234434e-17 	-0.00450759062531008 	-0.0226492354798027 	-1.08996473719549e-21
5 	0.340575797787321 	-3.28513258263108e-17 	0.00486978593102305 	-0.0241028738635384 	-2.23187574363193e-21
5 	0.360874345971201 	-3.19839640883224e-17 	0.0149455216340978 	-0.0256037398616504 	2.47082457129866e-19
5 	0.38191648941809 	-2.94902990916057e-17 	0.0257824813137754 	-0.0271527824459882 	4.49012490040586e-19
5 	0.403729468200046 	-2.71050543121376e-17 	0.0374516411450131 	-0.0287504455155701 	-2.05797861226198e-18
5 	0.426341520272734 	-2.10335221462188e-17 	0.050029417531487 	-0.030396821872904 	-1.61720721978063e-16
5 	0.449781918030829 	-1.30104260698261e-17 	0.0635976944896999 	-0.032091921955778 	1.60977569146896e-16
5 	0.474081006202548 	-1.56125112837913e-17 	0.0782436964459701 	-0.0338365671531863 	4.39976075748899e-18
5 	0.499270241132364 	-1.77809156287623e-17 	0.094061641639847 	-0.0356288945291161 	1.63911240205542e-16
5 	0.525382231502763 	-2.34187669256869e-17 	0.111220031344889 	-0.0374574848826395 	-1.70947186487665e-16
5 	0.552450780547767 	-3.81639164714898e-17 	0.130201938772233 	-0.0393283555306072 	-2.52058349844841e-18
5 	0.58051092981285 	-4.16333634234434e-17 	0.151540621983444 	-0.0412466801332351 	-1.29145228097295e-22
5 	0.609599004517911 	-3.8597597340484e-17 	0.175352936521151 	-0.0431857281048028 	2.89511758837076e-21
5 	0.639752660582033 	-4.16333634234434e-17 	0.201502369594999 	-0.0451243341354334 	3.15652706288805e-21
5 	0.671010933370887 	-3.98986399474666e-17 	0.229774183129516 	-0.0470418749102722 	-2.83276522698082e-21
5 	0.703414288229901 	-4.25007251614318e-17 	0.259977975867627 	-0.0489153373276069 	6.30020490605094e-21
5 	0.737004672868606 	-4.33680868994202e-17 	0.291962512241353 	-0.050719321827502 	-9.79104252553223e-24
5 	0.771825571663976 	-3.90312782094782e-17 	0.325575618012604 	-0.0524264724033676 	-6.96785909735355e-21
5 	0.807922061953054 	-3.81639164714898e-17 	0.360611718675217 	-0.0540080989603381 	-1.31775164355353e-20
5 	0.845340872387743 	-4.16333634234434e-17 	0.396775119432 	-0.055435171028217 	-8.93983592424734e-18
5 	0.88413044342731 	-5.03069808033274e-17 	0.433668273644178 	-0.056679507122043 	-9.76876388141033e-18
5 	0.924340990046898 	-4.77048955893622e-17 	0.47080119260191 	-0.0577149417569876 	9.93002694861423e-18
5 	0.966024566743243 	-4.16333634234434e-17 	0.507613375031195 	-0.0585184728594353 	1.08065963595819e-17
5 	1.00923513492173 	-4.68375338513738e-17 	0.543501403955707 	-0.0590716012329464 	6.82027700555408e-21
5 	1.05402863275206 	-5.55111512312578e-17 	0.57785208401644 	-0.0593623677178238 	6.81321160548014e-22
5 	1.10046304758287 	-5.20417042793042e-17 	0.610106437056228 	-0.0593897361849622 	9.11772781672743e-21
5 	1.14859849100923 	-4.33680868994202e-17 	0.639872473545598 	-0.0591684356415667 	8.39570227869506e-21
5 	1.19849727668995 	-3.98986399474666e-17 	0.667020032715527 	-0.0587291849287722 	7.67205519562359e-21
5 	1.25022400101563 	-3.46944695195361e-17 	0.691682718856337 	-0.0581090882494013 	-6.8872680974656e-22
5 	1.30384562673186 	-3.12250225675825e-17 	0.714185131543769 	-0.0573342987609417 	-8.53042382545131e-21
5 	1.35943156962566 	-3.46944695195361e-17 	0.734940144856335 	-0.0564123095530373 	-7.49950767614597e-21
5 	1.41705378838763 	-2.60208521396521e-17 	0.754195336530945 	-0.055365864688605 	6.8339556717184e-21
5 	1.47678687776592 	-1.73472347597681e-17 	0.772043020732376 	-0.0542252390671839 	3.18316291965826e-21
5 	1.53870816513278 	-1.73472347597681e-17 	0.788646133717495 	-0.0530221781058149 	6.64564023382335e-21
5 	1.60289781058851 	-1.38777878078145e-17 	0.804245255807665 	-0.0517718047180268 	-5.16140450721649e-21
5 	1.66943891073267 	-3.46944695195361e-18 	0.819074755479957 	-0.0504777828242989 	1.46403002967819e-20
5 	1.73841760623657 	3.46944695195361e-18 	0.833313794626923 	-0.0491376422538514 	3.99902076522635e-21
5 	1.8099231933566 	6.93889390390723e-18 	0.847078188450829 	-0.0477460218334778 	-7.67223625547698e-23
5 	1.88404823953249 	1.38777878078145e-17 	0.860427810605714 	-0.0462941978445808 	7.35636968359229e-21
5 	1.96088870322038 	1.38777878078145e-17 	0.873367200391172 	-0.0447808405097378 	4.91458618006309e-21
5 	2.04004996790234 	2.08166817117217e-17 	0.885746569799057 	-0.0432292113068 	1.81699527422381e-23
5 	2.11873460271874 	2.77555756156289e-17 	0.897224520047338 	-0.0416641743752788 	0
5 	2.19463865000285 	2.77555756156289e-17 	0.907582335744887 	-0.0401364392585287 	0
5 	2.26786037121375 	2.77555756156289e-17 	0.91685554626654 	-0.0386583810609978 	0
5 	2.33849455540975 	3.12250225675825e-17 	0.925145229735589 	-0.0372283195027355 	0
5 	2.40663264195737 	3.46944695195361e-17 	0.932543787716958 	-0.0358474346075927 	0
5 	2.47236283890404 	3.46944695195361e-17 	0.93913558367304 	-0.0345162109559867 	0
5 	2.5357702371677 	3.46944695195361e-17 	0.944997178266363 	-0.033234490798638 	0
5 	2.59693692069108 	3.46944695195361e-17 	0.950197260667315 	-0.0320015803329535 	0
5 	2.65594207270333 	3.46944695195361e-17 	0.954796694075228 	-0.0308163520836449 	0
5 	2.71286207822658 	3.46944695195361e-17 	0.958848801776332 	-0.0296773586916842 	0
5 	2.76777062296 	3.46944695195361e-17 	0.96239985032083 	-0.0285829377777977 	0
5 	2.8207387886695 	3.46944695195361e-17 	0.965489637622336 	-0.0275312961328141 	0
5 	2.87183514520655 	3.46944695195361e-17 	0.968152103171658 	-0.026520572873428 	0
5 	2.92112583927514 	3.12250225675825e-17 	0.970415905410491 	-0.0255488850378343 	0
5 	2.96867468006189 	2.77555756156289e-17 	0.972304937983512 	-0.0246143597580035 	0
