3 	0.00273779077457386 	1.73472347597681e-17 	0.261785526943664 	6.35398920249423e-05 	1530.01999393614 	4.73371462931403e-05 	5.74870658588422e-38
3 	0.00831366561724396 	1.73472347597681e-17 	0.261779286367281 	0.00056631233257449 	651.950982666273 	0.000625345428733984 	0
3 	0.0140938010840031 	2.77555756156289e-17 	0.261777065121943 	0.00229325014412989 	146.572590787288 	0.00226947720765409 	0
3 	0.0200856798396764 	3.46944695195361e-17 	0.261765002030158 	0.00556421307017419 	59.0759236189839 	0.00354209257675247 	0
3 	0.0262970586610136 	3.12250225675825e-17 	0.26173854065276 	0.00960106885398847 	31.2998622377337 	0.00277546846723481 	0
3 	0.0327359784782122 	2.77555756156289e-17 	0.261695216388321 	0.0134943836777267 	19.8333099276233 	0.00120754128419763 	0
3 	0.0366224575118784 	2.42861286636753e-17 	0.261663153375837 	0.015619548434806 	15.8598744358119 	0.000507015424276832 	0
3 	0.040019885465085 	6.93889390390723e-18 	0.261629440924928 	0.017230197881759 	13.9130543811453 	0.000281602407592022 	0
3 	0.0463300884257854 	-6.93889390390723e-18 	0.261561788304122 	0.0199887804195459 	11.1361998324448 	8.17691132089695e-05 	0
3 	0.0535028767887471 	-6.93889390390723e-18 	0.261476597775663 	0.0227345703438769 	9.17454518921086 	0.000141446832912261 	0
3 	0.060938425394508 	-6.93889390390723e-18 	0.261381689117592 	0.025258766118506 	7.83786476614732 	0.000331823413685873 	0
3 	0.0686463599202388 	-3.46944695195361e-18 	0.261278269214033 	0.0276182283531249 	6.87172047869469 	0.000585043661406578 	0
3 	0.0766366586598531 	-6.93889390390723e-18 	0.261167255205716 	0.0298532718023265 	6.14261341704238 	0.00087306590908447 	0
3 	0.0849196654413917 	-6.93889390390723e-18 	0.261049405763912 	0.0319932040098406 	5.57429991752628 	0.00118378806292503 	0
3 	0.0935061030176072 	3.46944695195361e-18 	0.26092537654697 	0.0340599883025165 	5.12022043395693 	0.00151202078676349 	0
3 	0.102407086947087 	6.93889390390723e-18 	0.26079575496695 	0.0360705814361769 	4.75038318185618 	0.00185583369518795 	0
3 	0.11163413998388 	6.93889390390723e-18 	0.260661085111478 	0.0380384412125171 	4.44461605343436 	0.00221496192652158 	0
3 	0.121199206994262 	0 	0.260521884543179 	0.0399745215677215 	4.1888625892492 	0.00259006705998983 	0
3 	0.131114670419936 	-1.04083408558608e-17 	0.260378655420615 	0.0418879464610054 	3.97303618272869 	0.00298237919591917 	0
3 	0.14139336630771 	-1.38777878078145e-17 	0.260231892104242 	0.0437864776634961 	3.78971931099851 	0.00339352037882109 	0
3 	0.152048600926373 	-1.04083408558608e-17 	0.260082086568593 	0.0456768468531039 	3.63334403388277 	0.0038254193999453 	0
3 	0.163094167992309 	-6.93889390390723e-18 	0.259929732423188 	0.0475649960459974 	3.49965834945139 	0.00428027521801694 	0
3 	0.174544366526125 	-3.46944695195361e-18 	0.25977532810926 	0.0494562545347376 	3.38536862774922 	0.00476054773302442 	0
3 	0.186414019363428 	3.46944695195361e-18 	0.259619379721815 	0.0513554707426164 	3.28789400736109 	0.00526896495233761 	0
3 	0.198718492343699 	6.93889390390723e-18 	0.259462403843392 	0.0532671112500891 	3.20519401349501 	0.00580854075588727 	0
3 	0.211473714202121 	0 	0.259304930749441 	0.0551953352744541 	3.13564527631705 	0.00638260016304372 	0
3 	0.224696197190089 	-3.46944695195361e-18 	0.259147508346444 	0.0571440502537561 	3.07795192649705 	0.006994810463733 	0
3 	0.238403058451125 	3.46944695195361e-18 	0.258990707224815 	0.0591169524033987 	3.03107957544273 	0.00764921738959298 	0
3 	0.252612042179841 	3.46944695195361e-18 	0.258835127243977 	0.061117554876392 	2.99420613646415 	0.00835028596967197 	0
3 	0.267341542592663 	-6.93889390390723e-18 	0.25868140611447 	0.0631492052752386 	2.96668489697333 	0.00910294598885948 	0
3 	0.282610627740032 	-2.08166817117217e-17 	0.258530230498815 	0.0652150936144645 	2.94801667008214 	0.00991264212120032 	0
3 	0.298439064190913 	-2.77555756156289e-17 	0.258382350217375 	0.0673182513388924 	2.93782880604019 	0.0107853888830998 	0
3 	0.31484734262158 	-3.46944695195361e-17 	0.2582385962148 	0.0694615416094697 	2.93585949554758 	0.0117278305487647 	0
3 	0.331856704341784 	-4.5102810375397e-17 	0.258099903016337 	0.0716476407357154 	2.94194625101432 	0.0127473060745682 	0
3 	0.349489168792655 	-4.85722573273506e-17 	0.257967336487674 	0.0738790103284703 	2.95601777296428 	0.0138519188456932 	0
3 	0.367767562051934 	-4.5102810375397e-17 	0.257842127792754 	0.0761578594363373 	2.9780886375849 	0.0150506106147886 	0
3 	0.386715546383437 	-4.5102810375397e-17 	0.257725714354879 	0.0784860955769111 	3.00825640246089 	0.0163532382364876 	0
3 	0.406357650868995 	-4.16333634234434e-17 	0.257619788114796 	0.080865263131518 	3.04670083360606 	0.0177706504184397 	0
3 	0.426719303162537 	-3.12250225675825e-17 	0.257526351858943 	0.0832964669752343 	3.09368501088614 	0.0193147588649889 	0
3 	0.447826862407422 	-2.42861286636753e-17 	0.257447791744451 	0.0857802783844884 	3.14955806380924 	0.0209985933102576 	0
3 	0.46970765335962 	-2.08166817117217e-17 	0.257386982405169 	0.0883166191130736 	3.21475920661456 	0.0228363286979595 	0
3 	0.49239000176093 	-2.08166817117217e-17 	0.25734736297497 	0.0909046178307739 	3.28982254130245 	0.0248432874483331 	0
3 	0.515903271008024 	-1.73472347597681e-17 	0.257332652379464 	0.0935424297903176 	3.37538170055403 	0.0270359003932934 	0
3 	0.540277900164783 	-1.73472347597681e-17 	0.25734631278192 	0.096226922201921 	3.47217274675491 	0.0294314934595616 	0
3 	0.565545443367138 	-2.42861286636753e-17 	0.257395259911113 	0.0989523052646323 	3.58103315105406 	0.0320671770943942 	0
3 	0.59173861067142 	-2.08166817117217e-17 	0.257505364548676 	0.101713731558085 	3.70293187085516 	0.0352605206553132 	0
3 	0.618891310399116 	-6.93889390390723e-18 	0.25770014459205 	0.104518150904759 	3.83969215853831 	0.0393270102894152 	0
3 	0.647038693032828 	0 	0.257996905864516 	0.107387302146724 	3.99396879476418 	0.044197625780761 	0
3 	0.676217196720269 	3.46944695195361e-18 	0.258398193036185 	0.110291884839334 	4.16465802560515 	0.0498865949478297 	0
3 	0.706464594445211 	1.32272665043232e-17 	0.258883914459885 	0.113089809487684 	4.34243775654038 	0.0556001332654655 	0
3 	0.737820042926437 	1.7130394325271e-17 	0.259462361090874 	0.115565364810119 	4.51145003411692 	0.0607107497811772 	0
3 	0.770324133308009 	1.51788304147971e-17 	0.26013802450405 	0.117527754245402 	4.65681067778003 	0.0648735516815267 	0
3 	0.80401894370646 	1.73472347597681e-17 	0.260909161609359 	0.118824996349434 	4.77006877066061 	0.0678926175810608 	0
3 	0.83894809368296 	1.30104260698261e-17 	0.261759263755714 	0.119356756786388 	4.84948779160491 	0.0696477829166382 	0
3 	0.875156800710939 	6.93889390390723e-18 	0.262661135098441 	0.119071003681119 	4.89729212094589 	0.0701038803591731 	0
3 	0.912691938712296 	8.67361737988404e-18 	0.263584823013065 	0.117957550128527 	4.91725422886988 	0.0693760144631462 	0
3 	0.951602098737955 	1.21430643318376e-17 	0.264508616226377 	0.116031247057817 	4.91304258270421 	0.0677802936876198 	0
3 	0.991937651871333 	1.04083408558608e-17 	0.265437308503409 	0.113290899390237 	4.88620134690984 	0.0657104960326891 	0
3 	1.03375081443614 	8.67361737988404e-18 	0.266422880354208 	0.109652670953161 	4.83210125461207 	0.0628284064518052 	0
3 	1.07709571559294 	8.67361737988404e-18 	0.267533259794359 	0.104987715524934 	4.7348551542408 	0.0584132755246624 	0
3 	1.12202846741195 	3.46944695195361e-18 	0.268791602262577 	0.0992976980102037 	4.57345182040153 	0.0519695862079735 	0
3 	1.16860723751286 	0 	0.270166736767205 	0.0928473729525317 	4.33692328628422 	0.0438591279514828 	0
3 	1.2168923243656 	-3.46944695195361e-18 	0.271604484200835 	0.086078712105663 	4.03266452002557 	0.035412630927887 	0
3 	1.26694623534961 	-6.93889390390723e-18 	0.273056766948129 	0.0793627796958293 	3.68387055507658 	0.0276772668408793 	0
3 	1.29731358816177 	-6.93889390390723e-18 	0.27390699772425 	0.0754666711663403 	3.4684802049172 	0.023488891053514 	0
3 	1.32372400499756 	-6.93889390390723e-18 	0.274596850008916 	0.0723046338994532 	3.28697876081367 	0.0204619047144885 	0
3 	1.37262209225426 	-1.38777878078145e-17 	0.275691995667229 	0.0670763909909159 	2.99102902512956 	0.0158013049235859 	0
3 	1.41220272459524 	-2.08166817117217e-17 	0.276577643182837 	0.0628200600060576 	2.76377004958217 	0.012413466510832 	0
3 	1.43617694926586 	-2.08166817117217e-17 	0.277143259939671 	0.0600813868943205 	2.62918302578675 	0.0105181498805037 	0
3 	1.45930396367274 	-1.73472347597681e-17 	0.277571960680564 	0.0578407608053005 	2.52758674238321 	0.00913376788933419 	0
3 	1.48161370685419 	-1.04083408558608e-17 	0.277966015476361 	0.055760121428636 	2.44111975570182 	0.00795292374441702 	0
3 	1.50313505985141 	-6.93889390390723e-18 	0.278321556631036 	0.0538169288266508 	2.36813163931259 	0.00694758243225466 	0
3 	1.52389588309638 	-3.46944695195361e-18 	0.278639503339204 	0.051992037175783 	2.30712369213927 	0.00608601138835163 	0
3 	1.54392305247857 	-3.46944695195361e-18 	0.278923055751087 	0.0502694449383408 	2.25679057957279 	0.0053425196119749 	0
3 	1.56324249413703 	-3.46944695195361e-18 	0.279175080429611 	0.048635913701581 	2.21602970020696 	0.0046962535260967 	0
3 	1.58187921802306 	0 	0.279398038027829 	0.0470805566577318 	2.18393330713792 	0.00413038757571081 	0
3 	1.59985735027679 	0 	0.279594174932814 	0.0455944459514607 	2.15977264467884 	0.00363144136009953 	0
3 	1.61720016445966 	0 	0.279765573451271 	0.0441702614227223 	2.14297958506728 	0.00318865525754359 	0
3 	1.63393011168312 	0 	0.279914167173662 	0.0428019891479468 	2.13312885850097 	0.00279345542518209 	0
3 	1.65006884967273 	-3.46944695195361e-18 	0.28004175827984 	0.0414846701287066 	2.1299224842919 	0.0024390182146993 	0
3 	1.66563727080512 	-6.93889390390723e-18 	0.280150033952079 	0.0402141952507494 	2.1331771366518 	0.00211992437353536 	0
3 	1.68065552915414 	-1.04083408558608e-17 	0.280240579593292 	0.0389871408422087 	2.14281470229557 	0.00183188907613877 	0
3 	1.69514306658136 	-1.38777878078145e-17 	0.280314889270317 	0.03780063876144 	2.15885605754763 	0.0015715545428488 	0
3 	1.70911863790442 	-1.38777878078145e-17 	0.280374374046803 	0.0366522752767759 	2.18141801181262 	0.00133633381131285 	0
3 	1.7226003351761 	-1.38777878078145e-17 	0.280420368659266 	0.0355400136711746 	2.21071337206165 	0.00112429634859446 	0
3 	1.73560561110536 	-1.38777878078145e-17 	0.280454136884648 	0.0344621362936652 	2.24705414431231 	0.000934088334012403 	0
3 	1.74815130165068 	-1.38777878078145e-17 	0.280476875887882 	0.0334172025682913 	2.29085798376187 	0.000764882432356921 	0
3 	1.76025364781502 	-1.38777878078145e-17 	0.280489719782357 	0.0324040202016855 	2.34265812608141 	0.000616353667555087 	0
3 	1.77192831667064 	-1.38777878078145e-17 	0.280493742585283 	0.0314216274783269 	2.4031171754247 	0.00048867962489837 	0
3 	1.78319042164083 	-1.38777878078145e-17 	0.280489960705991 	0.0304692850915351 	2.47304529073959 	0.00038256471138479 	0
3 	1.79405454206499 	-1.38777878078145e-17 	0.280479335067806 	0.0295464764294947 	2.55342350378232 	0.000299289650398134 	0
3 	1.80453474207227 	-1.38777878078145e-17 	0.280462772931512 	0.0286529156208285 	2.64543312305691 	0.000240788833541238 	0
3 	1.81464458878828 	-1.38777878078145e-17 	0.28044112945955 	0.0277885629404515 	2.75049242952698 	0.000209759633958969 	0
3 	1.8243971698984 	-1.38777878078145e-17 	0.280415209033645 	0.0269536473707467 	2.87030215000162 	0.000209809299102654 	0
3 	1.83380511059041 	-1.38777878078145e-17 	0.280385766313749 	0.0261486961769067 	3.00690149168582 	0.000245646516539764 	0
3 	1.84288058989839 	-1.38777878078145e-17 	0.280353507002361 	0.0253745712369934 	3.16273681021804 	0.000323325999354394 	0
3 	1.85163535646909 	-1.38777878078145e-17 	0.280319088255506 	0.0246325114836283 	3.34074521136282 	0.000450555095958365 	0
3 	1.86008074377113 	-1.38777878078145e-17 	0.280283118660693 	0.0239241800410719 	3.54445546005158 	0.000637070832084937 	0
3 	1.8682276847667 	-1.38777878078145e-17 	0.280246157685484 	0.0232517133074203 	3.77810833545624 	0.000895092868021059 	0
3 	1.8760867260648 	-1.38777878078145e-17 	0.280208714492468 	0.0226177671226316 	4.04679779076103 	0.0012398510091851 	0
3 	1.88366804157438 	-1.38777878078145e-17 	0.280171246025397 	0.0220255520526923 	4.35663261933386 	0.00169017302924044 	0
3 	1.89098144567491 	-1.38777878078145e-17 	0.280134154308774 	0.0214788455511002 	4.71491538545827 	0.00226909730915982 	0
3 	1.89803640592158 	-1.38777878078145e-17 	0.28009778298454 	0.0209819634082887 	5.13033075209447 	0.00300444346799835 	0
3 	1.90484205530155 	-1.38777878078145e-17 	0.280062413254281 	0.0205396670570436 	5.61312888041311 	0.00392923349692761 	0
3 	1.91140720405698 	-1.38777878078145e-17 	0.280028259630105 	0.0201569784412263 	6.17528182451877 	0.00508181181576186 	0
3 	1.91774035109035 	-1.38777878078145e-17 	0.279995466215493 	0.0198388729696943 	6.83058369264289 	0.00650547912764389 	0
3 	1.9238496949667 	-1.04083408558608e-17 	0.279964104428436 	0.0195898274506017 	7.59466275321479 	0.0082474546982935 	0
3 	1.92974314452705 	-6.93889390390723e-18 	0.279934172787791 	0.0194132180010226 	8.48488189737954 	0.0103570410492808 	0
3 	1.9354283291268 	-6.93889390390723e-18 	0.279905600070274 	0.0193105950095311 	9.52013041232486 	0.0128830001329434 	0
3 	1.9409126085123 	-6.93889390390723e-18 	0.279878260182547 	0.0192809054951547 	10.7205604199714 	0.0158703467608857 	0
3 	1.94620308234835 	-6.93889390390723e-18 	0.279852009452312 	0.0193197774976251 	12.1073938906046 	0.0193569930820947 	0
3 	1.95130659940914 	-3.46944695195361e-18 	0.279826668155139 	0.0194190098529866 	13.7030036361855 	0.023377603411443 	0
3 	1.95622976644424 	0 	0.279801727141491 	0.0195663189359989 	15.5318209103373 	0.0280421469770231 	0
3 	1.96097895673142 	0 	0.279776053329098 	0.0197442618910356 	17.6257315454835 	0.0334971224748853 	0
3 	1.96556031832711 	0 	0.279749098907212 	0.0199286076822928 	20.0307091224327 	0.0396284139091192 	0
3 	1.96997978202541 	0 	0.279722203818018 	0.0200889135184277 	22.78915476181 	0.046485707450678 	0
3 	1.97424306903575 	-3.46944695195361e-18 	0.279696865182014 	0.0201855760359205 	25.9219364126985 	0.0538269626532029 	0
3 	1.9783556983893 	-6.93889390390723e-18 	0.279673107551629 	0.0201752109723675 	29.4500389809276 	0.0614033321529746 	0
3 	1.98232299408358 	-6.93889390390723e-18 	0.279650325086396 	0.020015297484445 	33.4236792153694 	0.0690982390395757 	0
3 	1.98615009197469 	-1.04083408558608e-17 	0.279628163493799 	0.019663629429261 	37.9429079599809 	0.0768257779303838 	0
3 	1.98984194642589 	-1.73472347597681e-17 	0.279606613312481 	0.0190751322187444 	43.1754158557436 	0.0844463385233422 	0
3 	1.99340333672126 	-1.73472347597681e-17 	0.279585877637087 	0.0181979125791644 	49.3827844900002 	0.0916484380785343 	0
3 	1.99683887325273 	-1.38777878078145e-17 	0.279566296136013 	0.0169706498739448 	56.9699731641099 	0.0977771325641411 	0
3 	2.00015300348844 	-1.38777878078145e-17 	0.279548301960944 	0.0153252395214833 	66.5889845927031 	0.101726304812354 	0
3 	2.00335001773022 	-1.73472347597681e-17 	0.279532359078628 	0.0131963980700512 	79.385891610711 	0.101536956338132 	0
3 	2.00643405466757 	-1.38777878078145e-17 	0.279518919123404 	0.0105474502508672 	97.6320799390603 	0.0931332982603233 	0
3 	2.00940910673542 	-1.04083408558608e-17 	0.279508292527311 	0.00747639070054165 	126.522150906905 	0.071654305813303 	0
3 	2.01227902528252 	-1.38777878078145e-17 	0.279500554858289 	0.00441563630470193 	180.29249187428 	0.0414027345625479 	0
3 	2.01504752555717 	-1.73472347597681e-17 	0.279495283581605 	0.00202577827561403 	306.321619812417 	0.015879769549812 	0
3 	2.01771819151684 	-2.42861286636753e-17 	0.279491497105833 	0.000668215128593993 	712.248790962135 	0.00358062959868829 	0
3 	2.02029448046774 	-3.12250225675825e-17 	0.279488322068596 	0.000140626537864754 	3045.35178053537 	0.000405716352952783 	0
3 	2.02277972754047 	-3.46944695195361e-17 	0.279486034214506 	1.46199883870764e-05 	7952.64819341264 	1.64519128884523e-05 	4.97965297718221e-38
