1.00000000047503e-06 	1.00195556492726 	2.77555756156289e-17 	-0.01693259370951 	1.32193698894174e-05 	2960.80168495449 	4.61311019421519e-06 	6.04056543380659e-38
1.00000000047503e-06 	1.00593833267169 	2.42861286636753e-17 	-0.016907328752176 	0.000119080059676143 	1305.71253141392 	0.000180512990203805 	0
1.00000000047503e-06 	1.01006700086189 	1.73472347597681e-17 	-0.0168629051169649 	0.000534321313592414 	296.969285249499 	0.00181625010788643 	0
1.00000000047503e-06 	1.01434691425844 	1.73472347597681e-17 	-0.0167820195958175 	0.00153379504285798 	133.039276592938 	0.0076735408903245 	0
1.00000000047503e-06 	1.01878361341616 	1.73472347597681e-17 	-0.0166216657141612 	0.00315831795618042 	84.6185877349364 	0.017812360164242 	0
1.00000000047503e-06 	1.02338284185662 	1.73472347597681e-17 	-0.0163412613725001 	0.00510515263143568 	62.3864963684375 	0.0264835858992349 	0
1.00000000047503e-06 	1.02815055350342 	2.08166817117217e-17 	-0.0159241693264888 	0.00703654178530637 	47.6019984359883 	0.0284762972814323 	0
1.00000000047503e-06 	1.03309292038978 	2.77555756156289e-17 	-0.0153761025961013 	0.00883432623012183 	36.2369312030087 	0.0245134022832173 	0
1.00000000047503e-06 	1.03821634064861 	3.46944695195361e-17 	-0.0147124896799418 	0.0105284074919091 	27.5436706925029 	0.0181344786326584 	0
1.00000000047503e-06 	1.04352744679514 	3.81639164714898e-17 	-0.0139488442629772 	0.0121648724984913 	21.1425964019858 	0.0122194640160289 	0
1.00000000047503e-06 	1.04903311431305 	4.16333634234434e-17 	-0.0130970181202806 	0.0137544863624163 	16.5481076114769 	0.00797637871585162 	0
1.00000000047503e-06 	1.05474047055515 	3.81639164714898e-17 	-0.0121658135116262 	0.0152805384258927 	13.2631882921526 	0.0052959169523816 	0
1.00000000047503e-06 	1.06065690397003 	3.81639164714898e-17 	-0.0111622142091324 	0.016724681751436 	10.8796563555464 	0.0037110177413549 	0
1.00000000047503e-06 	1.06679007366681 	3.81639164714898e-17 	-0.0100919567755837 	0.0180769608634417 	9.10501068541004 	0.00279296472140626 	0
1.00000000047503e-06 	1.07314791933019 	3.12250225675825e-17 	-0.00895982681448753 	0.019335591239438 	7.74470389612223 	0.00225531410345659 	0
1.00000000047503e-06 	1.07973867149876 	2.42861286636753e-17 	-0.00776951335777947 	0.0205036808297271 	6.673852816975 	0.0019299269127436 	0
1.00000000047503e-06 	1.08657086221988 	2.42861286636753e-17 	-0.00652340510320609 	0.0215864825947618 	5.81312357937935 	0.00172313321191834 	0
1.00000000047503e-06 	1.09365333609477 	3.12250225675825e-17 	-0.00522279465034363 	0.02258987472186 	5.11153978906143 	0.00158351001761327 	0
1.00000000047503e-06 	1.10099526172827 	3.46944695195361e-17 	-0.00386858964258866 	0.0235197348994835 	4.53513139236851 	0.00148247042063487 	0
1.00000000047503e-06 	1.10860614359809 	3.46944695195361e-17 	-0.00246223209773714 	0.0243817612594609 	4.05985002294596 	0.00140333030463675 	0
1.00000000047503e-06 	1.1164958343588 	3.46944695195361e-17 	-0.00100635557280678 	0.0251814362075915 	3.66742823330576 	0.00133552484707632 	0
1.00000000047503e-06 	1.12467454759655 	3.46944695195361e-17 	0.000495081524316248 	0.0259239889266358 	3.34315901991864 	0.00127185988160945 	0
1.00000000047503e-06 	1.13315287105104 	3.46944695195361e-17 	0.00203716872963971 	0.0266143214001186 	3.07480470860069 	0.00120731599751556 	0
1.00000000047503e-06 	1.14194178032191 	3.46944695195361e-17 	0.00361496408245945 	0.0272569149487634 	2.8520879059055 	0.00113871279205293 	0
1.00000000047503e-06 	1.15105265307715 	3.12250225675825e-17 	0.005224780563497 	0.0278557452418589 	2.6664335430583 	0.00106481075834882 	0
1.00000000047503e-06 	1.16049728378203 	2.77555756156289e-17 	0.00686511147539234 	0.0284142237302889 	2.51077295922487 	0.000986174125263153 	0
1.00000000047503e-06 	1.17028789896765 	3.12250225675825e-17 	0.00853667410718996 	0.0289351710347748 	2.37933434789119 	0.000904574414403435 	0
1.00000000047503e-06 	1.18043717305872 	3.46944695195361e-17 	0.010241733427348 	0.029420821273213 	2.26742187356971 	0.000822264950947383 	0
1.00000000047503e-06 	1.19095824478127 	3.46944695195361e-17 	0.0119831427924568 	0.0298728542816181 	2.17120888580703 	0.000741408069061045 	0
1.00000000047503e-06 	1.20186473417131 	3.46944695195361e-17 	0.0137634538556521 	0.030292451788397 	2.0875653523165 	0.000663750517497953 	0
1.00000000047503e-06 	1.21317076020668 	3.46944695195361e-17 	0.0155842951947953 	0.0306803719647084 	2.013927251203 	0.000590530448223174 	0
1.00000000047503e-06 	1.22489095908472 	3.12250225675825e-17 	0.0174460873708727 	0.0310370344011987 	1.94820438674134 	0.000522546264671087 	0
1.00000000047503e-06 	1.23704050316954 	3.12250225675825e-17 	0.0193480504693352 	0.0313626056190721 	1.88871648491805 	0.000460303445237317 	0
1.00000000047503e-06 	1.24963512063336 	3.81639164714898e-17 	0.0212883923469663 	0.03165707516811 	1.83414553773617 	0.000404165480208773 	0
1.00000000047503e-06 	1.26269111581743 	4.16333634234434e-17 	0.0232645638044985 	0.031920314714294 	1.78349388737694 	0.000354463240123548 	0
1.00000000047503e-06 	1.27622539033876 	3.81639164714898e-17 	0.0252735075331931 	0.0321521166091057 	1.73604096354692 	0.000311547328769616 	0
1.00000000047503e-06 	1.29025546497009 	3.81639164714898e-17 	0.0273118708472755 	0.0323522129449732 	1.6912955582873 	0.000275788996547488 	0
1.00000000047503e-06 	1.30479950232136 	4.16333634234434e-17 	0.0293761768146302 	0.0325202796022619 	1.64894395738021 	0.000247546083109678 	0
1.00000000047503e-06 	1.31987633035211 	4.16333634234434e-17 	0.0314629643043713 	0.0326559313721756 	1.60879650545961 	0.000227113151952954 	0
1.00000000047503e-06 	1.33550546674518 	4.16333634234434e-17 	0.0335689106409245 	0.0327587138593644 	1.5707361787032 	0.000214674431881119 	0
1.00000000047503e-06 	1.35170714417328 	3.81639164714898e-17 	0.0356909422249522 	0.0328280961337628 	1.53467276692741 	0.000210274668688019 	0
1.00000000047503e-06 	1.36850233649116 	3.46944695195361e-17 	0.0378263234898717 	0.0328634663849682 	1.50050568692203 	0.000213806653429108 	0
1.00000000047503e-06 	1.38591278588733 	3.46944695195361e-17 	0.0399726947467604 	0.03286413187742 	1.46809755244636 	0.000225001141754755 	0
1.00000000047503e-06 	1.40396103103029 	3.46944695195361e-17 	0.0421280374765943 	0.0328293237212712 	1.43725955286017 	0.000243412745423588 	0
1.00000000047503e-06 	1.422670436246 	3.46944695195361e-17 	0.0442905746254609 	0.0327582065163654 	1.40774847591416 	0.000268406252145528 	0
1.00000000047503e-06 	1.44206522176408 	3.46944695195361e-17 	0.046458636597679 	0.0326498930180935 	1.37927399885856 	0.000299152238866806 	0
1.00000000047503e-06 	1.4621704950721 	3.46944695195361e-17 	0.0486305281152069 	0.0325034640466966 	1.35151388844324 	0.000334640439378126 	0
1.00000000047503e-06 	1.48301228341844 	3.46944695195361e-17 	0.0508044264073471 	0.0323179941301236 	1.32413412938667 	0.000373712953874687 	0
1.00000000047503e-06 	1.50461756750577 	3.46944695195361e-17 	0.0529783330213937 	0.0320925834136897 	1.29681077245183 	0.000415112558760831 	0
1.00000000047503e-06 	1.52701431641895 	3.46944695195361e-17 	0.055150079735545 	0.0318263953166738 	1.26925043921152 	0.00045753855576978 	0
1.00000000047503e-06 	1.5502315238323 	4.16333634234434e-17 	0.0573173741358399 	0.0315186985784943 	1.2412069345937 	0.000499702341863231 	0
1.00000000047503e-06 	1.57429924554334 	4.85722573273506e-17 	0.0594778692101254 	0.031168912603692 	1.21249227164513 	0.000540375620743255 	0
1.00000000047503e-06 	1.59924863838147 	4.85722573273506e-17 	0.0616292408537585 	0.0307766557791869 	1.18298148476746 	0.000578426674587748 	0
1.00000000047503e-06 	1.625112000542 	4.5102810375397e-17 	0.0637692577750119 	0.0303417973872844 	1.15261169289642 	0.000612844340333834 	0
1.00000000047503e-06 	1.65192281339771 	4.85722573273506e-17 	0.0658958325583686 	0.0298645147843709 	1.12137674257477 	0.000642752802313475 	0
1.00000000047503e-06 	1.67971578484211 	5.20417042793042e-17 	0.0680070486630296 	0.0293453586466109 	1.08931922477331 	0.00066742088684549 	0
1.00000000047503e-06 	1.7085268942205 	5.55111512312578e-17 	0.0701011642508092 	0.0287853300629143 	1.05652164556998 	0.00068626824583311 	0
1.00000000047503e-06 	1.73839343890695 	6.59194920871187e-17 	0.0721765978549891 	0.0281859729154729 	1.02309811761823 	0.000698869235678171 	0
1.00000000047503e-06 	1.76935408258758 	6.93889390390723e-17 	0.0742319002106218 	0.0275494799299752 	0.989187318461804 	0.000704954864224708 	0
1.00000000047503e-06 	1.80144890531252 	6.93889390390723e-17 	0.0762657058084487 	0.0268787944697269 	0.954946837103157 	0.00070441539077544 	0
1.00000000047503e-06 	1.83471945538157 	6.59194920871187e-17 	0.0782766625747758 	0.0261776595362056 	0.920548523184533 	0.000697303421687826 	0
1.00000000047503e-06 	1.86920880313036 	6.24500451351651e-17 	0.0802634918171249 	0.0254505630759236 	0.88617416443811 	0.000683818658380341 	0
1.00000000047503e-06 	1.90496159668709 	5.55111512312578e-17 	0.0822255837882258 	0.0247025651712893 	0.852010863843643 	0.000664279026076955 	0
1.00000000047503e-06 	1.94202411977161 	4.85722573273506e-17 	0.0841626251492296 	0.0239390103578083 	0.818245605329247 	0.000639301797171703 	0
1.00000000047503e-06 	1.980444351612 	4.85722573273506e-17 	0.0862848787522275 	0.0230747093490975 	0.781295389015675 	0.000606219486458631 	0
1.00000000047503e-06 	2.04004996790234 	4.5102810375397e-17 	0.088997268759425 	0.0219507053027024 	0.73452511406372 	0.000557164133562907 	0
1.00000000047503e-06 	2.11873460271874 	4.16333634234434e-17 	0.0921176996862801 	0.0206489133193424 	0.681843758800058 	0.000493782752817762 	0
1.00000000047503e-06 	2.19463865000284 	4.16333634234434e-17 	0.0950603135512465 	0.0193979738400703 	0.633585548408916 	0.000429182119674172 	0
1.00000000047503e-06 	2.26786037121375 	4.5102810375397e-17 	0.0976473330818381 	0.0182665724610741 	0.592606676050802 	0.000371462356247713 	0
1.00000000047503e-06 	2.33849455540975 	4.85722573273506e-17 	0.0999351446384493 	0.0172416218289106 	0.5577972929305 	0.0003220912312451 	0
1.00000000047503e-06 	2.40663264195736 	4.16333634234434e-17 	0.101968436270058 	0.0163113984248669 	0.528248122218996 	0.000280791657056658 	0
1.00000000047503e-06 	2.47236283890404 	3.81639164714898e-17 	0.103783735225331 	0.0154650039490345 	0.503208463742652 	0.000246655913530239 	0
1.00000000047503e-06 	2.5357702371677 	4.5102810375397e-17 	0.105411470730524 	0.0146922172414739 	0.482047244800159 	0.00021846124217355 	0
1.00000000047503e-06 	2.59693692069107 	4.85722573273506e-17 	0.106877017300352 	0.0139836238441108 	0.46422952664309 	0.000194944704588025 	0
1.00000000047503e-06 	2.65594207270333 	4.85722573273506e-17 	0.108201594656556 	0.0133308161373433 	0.449305739795492 	0.000174983365792948 	0
1.00000000047503e-06 	2.71286207822658 	4.85722573273506e-17 	0.10940302968801 	0.0127265272497963 	0.436906417823271 	0.000157675214601638 	0
1.00000000047503e-06 	2.76777062295999 	4.85722573273506e-17 	0.110496375607913 	0.0121646552540166 	0.426737156488744 	0.000142350448642389 	0
1.00000000047503e-06 	2.82073878866949 	4.85722573273506e-17 	0.111494408904313 	0.0116401922714522 	0.41857176257162 	0.000128544286707404 	0
1.00000000047503e-06 	2.87183514520654 	4.85722573273506e-17 	0.112408024896013 	0.0111490948141626 	0.412243821388327 	0.0001159555683701 	0
1.00000000047503e-06 	2.92112583927514 	5.20417042793042e-17 	0.113246552277579 	0.0106881309806966 	0.40763782430373 	0.000104405719369116 	0
1.00000000047503e-06 	2.9686746800619 	5.55111512312578e-17 	0.114018005258237 	0.0102547301838862 	0.404680992130582 	9.38046387145821e-05 	0
