2 	0.0664216437126051 	2.77555756156289e-17 	0.0880624863318123 	1.75600491835163e-06 	937.697489302435 	9.21884420731018e-08 	2.94223122199505e-38
2 	0.0743099414758449 	2.42861286636753e-17 	0.0880593414802258 	1.98540780042374e-05 	264.045889819653 	2.3885535941381e-06 	0
2 	0.0824857562919155 	1.73472347597681e-17 	0.0880488704264548 	0.000105474558898491 	68.6543461304165 	2.31280797234744e-05 	0
2 	0.0909595122039638 	1.38777878078145e-17 	0.0880231960472605 	0.00033919775806399 	29.8669823673796 	0.000107983951300059 	0
2 	0.0997420070153233 	1.38777878078145e-17 	0.0879764325119769 	0.000765411162181111 	16.641656607379 	0.00026694186724749 	0
2 	0.108844425376383 	2.08166817117217e-17 	0.0879066204487129 	0.00132598509388275 	10.6861281424532 	0.00037738233657503 	0
2 	0.118278352305667 	2.77555756156289e-17 	0.0878168792014207 	0.001921571162142 	7.55526130521177 	0.000356079323577032 	0
2 	0.128055787157649 	2.77555756156289e-17 	0.0877125738016941 	0.00249874548986156 	5.75107410218296 	0.000265780824450989 	0
2 	0.138189158050046 	2.77555756156289e-17 	0.087598013863806 	0.00304494212376035 	4.63422979014773 	0.00017593042504064 	0
2 	0.148691336763498 	3.46944695195361e-17 	0.0874758024513454 	0.00356199285639764 	3.89691086147451 	0.000109325471426765 	0
2 	0.15957565412677 	4.16333634234434e-17 	0.0873475450296089 	0.00405449005463724 	3.38195898144493 	6.58018467457209e-05 	0
2 	0.170855915900726 	4.16333634234434e-17 	0.0872144316419836 	0.00452672671161984 	3.00500184465498 	4.02748084724464e-05 	0
2 	0.18254641917452 	4.16333634234434e-17 	0.0870774742754818 	0.00498217843973583 	2.71830932172213 	2.81553739392812e-05 	0
2 	0.194661969287546 	4.16333634234434e-17 	0.086937592504296 	0.00542357926808212 	2.49346342030285 	2.61595341206413e-05 	0
2 	0.207217897290811 	4.5102810375397e-17 	0.0867956554978768 	0.00585309282335515 	2.31273262609573 	3.20840407442973e-05 	0
2 	0.220230077961468 	3.81639164714898e-17 	0.0866525060635262 	0.00627246588198861 	2.16458551823996 	4.44870693276921e-05 	0
2 	0.233714948384304 	2.77555756156289e-17 	0.086508973541961 	0.00668314773507122 	2.04124910164321 	6.24459041319784e-05 	0
2 	0.247689527113999 	2.77555756156289e-17 	0.0863658803696625 	0.00708638087882162 	1.93732151007116 	8.53941083875453e-05 	0
2 	0.262171433931949 	3.12250225675825e-17 	0.0862240452542344 	0.00748327178175542 	1.84895246477265 	0.000113015463925744 	0
2 	0.277178910211394 	3.81639164714898e-17 	0.0860842843072177 	0.0078748494848803 	1.77334245799614 	0.00014517545911097 	0
2 	0.292730839904512 	4.5102810375397e-17 	0.0859474107700212 	0.00826211836710477 	1.70842813462576 	0.000181877723071188 	0
2 	0.308846771164956 	4.85722573273506e-17 	0.0858142337959746 	0.00864611045385162 	1.65268083548383 	0.000223238029360458 	0
2 	0.325546938619131 	4.85722573273506e-17 	0.085685556849756 	0.00902794231593701 	1.60497691687102 	0.000269472228292265 	0
2 	0.34285228629926 	4.5102810375397e-17 	0.085562176635362 	0.00940888191271531 	1.56451605504514 	0.000320897345396304 	0
2 	0.360784491250926 	4.44522890719057e-17 	0.0854451883673315 	0.00979081489985889 	1.5308241161347 	0.000378039712585494 	0
2 	0.379365987827405 	4.18502038579405e-17 	0.0853360063865056 	0.010176333518808 	1.50371928724301 	0.000441679039500045 	0
2 	0.398619992682607 	3.68628738645072e-17 	0.0852347688125949 	0.0105669590291719 	1.48309393082301 	0.000512441482714339 	0
2 	0.418570530473901 	3.51281503885303e-17 	0.0851423407053583 	0.0109657930533374 	1.46926775963602 	0.000591500383304856 	0
2 	0.439242460285389 	3.64291929955129e-17 	0.0850597129771438 	0.0113769304956681 	1.46293882251473 	0.0006805603489421 	0
2 	0.460661502781484 	4.25007251614318e-17 	0.084988133307073 	0.011805867445632 	1.46531172761319 	0.00078216158579954 	0
2 	0.482854268099713 	4.33680868994202e-17 	0.0849293236713938 	0.012260099315995 	1.47830918948203 	0.000900174410297428 	0
2 	0.505848284490675 	4.85722573273506e-17 	0.0848858585475308 	0.0127500246598214 	1.50492202585089 	0.00104061483444745 	0
2 	0.529672027711962 	5.46437894932694e-17 	0.0848619273338399 	0.0132903596699864 	1.54980132143753 	0.00121297181072283 	0
2 	0.554354951181479 	5.29090660172926e-17 	0.0848645625555737 	0.0139022544396017 	1.62016941904355 	0.00143195070170295 	0
2 	0.579927516894232 	5.20417042793042e-17 	0.0849035854072018 	0.0146147967776898 	1.72585358119008 	0.00171753267845479 	0
2 	0.606421227104929 	4.85722573273506e-17 	0.0849865441511756 	0.0154574312798273 	1.87185231501638 	0.00209434574064234 	0
2 	0.633868656776939 	4.16333634234434e-17 	0.0851145849891256 	0.0164573041594361 	2.05054741515699 	0.00259675649774712 	0
2 	0.662303486796109 	3.64291929955129e-17 	0.0852879253920938 	0.0176574570526924 	2.25780813378538 	0.00326818470185539 	0
2 	0.691760537945634 	4.16333634234434e-17 	0.0855095552293972 	0.0191197693808956 	2.50005475123495 	0.00418810235869989 	0
2 	0.722275805635659 	5.20417042793042e-17 	0.0857831991404873 	0.0209166475283195 	2.78487409646232 	0.00554914754693289 	0
2 	0.753886495378464 	5.89805981832114e-17 	0.0861197403547933 	0.0231443581938078 	3.12110140464431 	0.00754465383856693 	0
2 	0.786631058997021 	6.59194920871187e-17 	0.0865152459039613 	0.0258755684726618 	3.50871410477363 	0.0104286999632466 	0
2 	0.82054923155121 	5.89805981832114e-17 	0.086955979287031 	0.0290043280525743 	3.92208988184672 	0.0142242950642178 	0
2 	0.855682068962276 	5.20417042793042e-17 	0.087455572984426 	0.0321753173437719 	4.31387198039289 	0.0185039947055125 	0
2 	0.892071986311896 	5.20417042793042e-17 	0.0880482256767531 	0.0348885484658476 	4.62919686368473 	0.0225107868881812 	0
2 	0.928081053775882 	4.85722573273506e-17 	0.0887380673238325 	0.0366510727058622 	4.81883198043118 	0.0253490284472176 	0
2 	0.947260911195196 	4.5102810375397e-17 	0.0891385017507524 	0.0372924791970778 	4.88215622667646 	0.0264541486711115 	0
2 	0.968848502846582 	4.5102810375397e-17 	0.0896357727929775 	0.0374203758700196 	4.8752232201811 	0.0265875978099513 	0
2 	1.00935908655054 	3.81639164714898e-17 	0.0905751682196476 	0.0370090613472166 	4.75862518266081 	0.0253978434309616 	0
2 	1.05130628800602 	2.42861286636753e-17 	0.091492671528924 	0.0356726361183856 	4.45974065532636 	0.0220026251484394 	0
2 	1.09473925151454 	2.77555756156289e-17 	0.0923378699622092 	0.0338231270540503 	4.00520987847601 	0.0171835662734728 	0
2 	1.1397086678108 	2.77555756156289e-17 	0.0930949179960842 	0.031937296141438 	3.47131693539076 	0.0122416988002456 	0
2 	1.18626681244448 	1.38777878078145e-17 	0.093764289345567 	0.0303643418578084 	2.9465629269472 	0.00827056031045947 	0
2 	1.23446758427968 	3.46944695195361e-18 	0.0943627634400716 	0.0292294564185648 	2.4895817417647 	0.00561391870807336 	0
2 	1.28436654402848 	-6.93889390390723e-18 	0.0949172348225377 	0.028483160329338 	2.12601053231571 	0.00405063281165032 	0
2 	1.33602095272612 	-1.04083408558608e-17 	0.0954567251000293 	0.0279938788525303 	1.85341208123668 	0.00320219735004008 	0
2 	1.38948981004627 	-1.04083408558608e-17 	0.096009514828072 	0.0276188082315935 	1.65376205852495 	0.00275659237459531 	0
2 	1.44483389234439 	-1.73472347597681e-17 	0.0965989316482959 	0.0272377718411324 	1.50586896321492 	0.00250880766752648 	0
2 	1.50211579030683 	-2.90566182226115e-17 	0.0972360959009754 	0.0267617085624648 	1.39024536189819 	0.00233799989860458 	0
2 	1.56139994607132 	-4.11996825544492e-17 	0.0979235847523312 	0.026125093215516 	1.2925783346119 	0.00217804642136708 	0
2 	1.62275268967252 	-4.59701721133854e-17 	0.0986545612019716 	0.0252986993266039 	1.20407427988872 	0.0019975470722259 	0
2 	1.68624227465269 	-4.9439619065339e-17 	0.0994234818518153 	0.0242765049631733 	1.12000908695684 	0.0017907711542041 	0
2 	1.7519389126638 	-5.20417042793042e-17 	0.100228834364641 	0.0230675092668143 	1.03914775228585 	0.00156306238397778 	0
2 	1.81991480687205 	-5.03069808033274e-17 	0.101066677633492 	0.0216988549190781 	0.962732641328451 	0.00132348048456917 	0
2 	1.89024418395974 	-5.20417042793042e-17 	0.10192888624016 	0.0202009244994707 	0.891268063811474 	0.00108331023035213 	0
2 	1.96300332450249 	-4.85722573273506e-17 	0.102765937240915 	0.0186838818536646 	0.827915344920761 	0.000861462338686181 	0
2 	2.02025965173184 	-4.16333634234434e-17 	0.103445572940839 	0.0174679203205259 	0.782120068833958 	0.000693640679661146 	0
2 	2.06006301192217 	-4.16333634234434e-17 	0.10394629063709 	0.016570075707067 	0.75127721654601 	0.00057924159171411 	0
2 	2.09845978584128 	-4.16333634234434e-17 	0.104378136179989 	0.0157906413929441 	0.726857715929921 	0.000486431659366033 	0
2 	2.13549967996945 	-4.16333634234434e-17 	0.104788128549591 	0.0150636245928917 	0.706174277234701 	0.000404934220464862 	0
2 	2.17123064424048 	-4.16333634234434e-17 	0.10517435749048 	0.0143874713679895 	0.688987721593195 	0.00033408730099223 	0
2 	2.20569893411515 	-4.16333634234434e-17 	0.105537035851298 	0.0137596414694413 	0.675081349935865 	0.000272773827448152 	0
2 	2.23894917046122 	-4.16333634234434e-17 	0.10587709865306 	0.0131770950438461 	0.664269388354998 	0.000219961192040931 	0
2 	2.27102439731725 	-4.16333634234434e-17 	0.106195499742457 	0.0126366189614249 	0.656401526860817 	0.000174703215273787 	0
2 	2.30196613761521 	-4.5102810375397e-17 	0.106493202562735 	0.0121350397208359 	0.651365000781063 	0.000136156779252835 	0
2 	2.33181444693391 	-4.5102810375397e-17 	0.10677119800001 	0.0116693557748078 	0.649085275362559 	0.000103593426514611 	0
2 	2.3606079653529 	-3.81639164714898e-17 	0.107030488511746 	0.0112368133647937 	0.649526052248253 	7.64034292549135e-05 	0
2 	2.3883839674739 	-3.12250225675825e-17 	0.107272072506665 	0.0108349436916834 	0.652689055873405 	5.40950840130183e-05 	0
2 	2.41517841067461 	-2.77555756156289e-17 	0.107496934053764 	0.0104615744264719 	0.658613871656983 	3.62914177103911e-05 	0
2 	2.44102598165722 	-2.42861286636753e-17 	0.107706035628014 	0.0101148248228763 	0.667377979389883 	2.27256143917242e-05 	0
2 	2.46596014135207 	-2.42861286636753e-17 	0.107900312776706 	0.00979309082019963 	0.679097035284582 	1.32360236047625e-05 	0
2 	2.49001316823443 	-2.42861286636753e-17 	0.108080670233918 	0.00949502434439522 	0.693925388980804 	7.76125331846932e-06 	0
2 	2.51321620011054 	-2.42861286636753e-17 	0.108247979108303 	0.00921950938674398 	0.712056767048912 	6.33551846001123e-06 	0
2 	2.535599274427 	-2.77555756156289e-17 	0.108403074841774 	0.00896563624857602 	0.733725006730447 	9.08412186555266e-06 	0
2 	2.55719136715571 	-2.42861286636753e-17 	0.108546755724751 	0.0087326744977728 	0.75920468157223 	1.62186933964175e-05 	0
2 	2.57802043030465 	-2.08166817117217e-17 	0.108679781828996 	0.00852004462425124 	0.788811427137817 	2.80316130903049e-05 	0
2 	2.59811342810315 	-2.08166817117217e-17 	0.108802874277388 	0.00832728806765828 	0.822901757394275 	4.48889148592464e-05 	0
2 	2.61749637190832 	-2.08166817117217e-17 	0.108916714813826 	0.00815403520274772 	0.861872172542909 	6.72209416899373e-05 	0
2 	2.63619435387806 	-2.42861286636753e-17 	0.109021945667512 	0.00799997100218245 	0.906157412993106 	9.5510146465197e-05 	0
2 	2.65423157945406 	-3.12250225675825e-17 	0.10911916972488 	0.00786479845109538 	0.956227830132031 	0.000130275752273525 	0
2 	2.67163139869691 	-3.12250225675825e-17 	0.109208951029766 	0.00774820034726562 	1.01258603906793 	0.000172055536506635 	0
2 	2.68841633651388 	-3.12250225675825e-17 	0.109291815628658 	0.00764980083771407 	1.07576330015566 	0.000221385781000224 	0
2 	2.7046081218185 	-3.81639164714898e-17 	0.109368252763891 	0.00756912882163826 	1.14631643755887 	0.000278781371212012 	0
2 	2.72022771565972 	-4.16333634234434e-17 	0.109438716395591 	0.00750558604308485 	1.2248265142667 	0.000344718990647029 	0
2 	2.73529533835694 	-4.16333634234434e-17 	0.109503627006235 	0.00745842311879758 	1.31190088860076 	0.000419627136432183 	0
2 	2.74983049567626 	-4.16333634234434e-17 	0.109563373614226 	0.00742672671183842 	1.40818060323435 	0.000503887049272815 	0
2 	2.76385200408157 	-4.5102810375397e-17 	0.109618315899953 	0.0074094204417666 	1.51435522835092 	0.00059784842619885 	0
2 	2.77737801509343 	-4.85722573273506e-17 	0.109668786333991 	0.00740528090489954 	1.63118724392195 	0.000701862915717258 	0
2 	2.79042603878708 	-5.20417042793042e-17 	0.109715092195521 	0.00741296850060333 	1.75954780022464 	0.000816337009591735 	0
2 	2.80301296646003 	-5.55111512312578e-17 	0.109757517381042 	0.00743107089585921 	1.90046530385783 	0.000941804341641243 	0
2 	2.81515509249872 	-5.55111512312578e-17 	0.109796323927588 	0.00745815525728279 	2.05518786228735 	0.00107901597343117 	0
2 	2.82686813547237 	-5.55111512312578e-17 	0.109831753208226 	0.00749282415871463 	2.22526034110874 	0.00122904635137101 	0
2 	2.83816725848142 	-5.55111512312578e-17 	0.109864026796632 	0.00753376953430903 	2.41261679735353 	0.00139341246754731 	0
2 	2.84906708878691 	-5.55111512312578e-17 	0.109893347038691 	0.00757981921663354 	2.61968946034981 	0.00157420432259643 	0
2 	2.85958173674616 	-5.55111512312578e-17 	0.109919897410089 	0.00762997132974814 	2.84953629121734 	0.00177422580250786 	0
2 	2.86972481407933 	-5.55111512312578e-17 	0.109943842772527 	0.00768341283870887 	3.10599046936107 	0.00199714607110465 	0
2 	2.87950945149043 	-5.55111512312578e-17 	0.109965329651945 	0.0077395196073607 	3.39383693604943 	0.00224766194649873 	0
2 	2.88894831566566 	-5.55111512312578e-17 	0.109984486691076 	0.00779783617807792 	3.71902345925575 	0.00253167082016668 	0
2 	2.89805362567106 	-5.55111512312578e-17 	0.110001425705164 	0.00785803411492749 	4.08891685942602 	0.00285645087204569 	0
2 	2.90683716877067 	-5.55111512312578e-17 	0.11001624403386 	0.00791984834165784 	4.51261971537703 	0.00323084016913972 	0
2 	2.91531031568569 	-5.55111512312578e-17 	0.11002902571705 	0.00798299197604975 	5.00137032961163 	0.00366539824021461 	0
2 	2.92348403531448 	-5.55111512312578e-17 	0.110039831182626 	0.00804705265175783 	5.56906113029012 	0.00417254230382897 	0
2 	2.93136890893229 	-5.55111512312578e-17 	0.110048692337876 	0.00811137776734158 	6.23293039503381 	0.00477185132395642 	0
2 	2.93897514388925 	-5.89805981832114e-17 	0.11005579685656 	0.0081747661988883 	7.0150646192444 	0.0054940745471512 	0
2 	2.94631258682425 	-5.89805981832114e-17 	0.110061594224412 	0.00823475625711669 	7.94533746476455 	0.00636353838399585 	0
2 	2.95339073641193 	-5.20417042793042e-17 	0.110066134649843 	0.00828691781209439 	9.06181143809094 	0.00741843645745943 	0
2 	2.96021875565915 	-4.85722573273506e-17 	0.110068982775548 	0.00832328457940677 	10.407460805021 	0.0086827605912149 	0
2 	2.96680548376697 	-5.20417042793042e-17 	0.110069932427326 	0.00833134693769412 	12.0295471089306 	0.0101639665042291 	0
2 	2.97315944757337 	-5.55111512312578e-17 	0.110069084989709 	0.00829359272715411 	13.9831921963218 	0.0118581661865885 	0
2 	2.97928887259171 	-5.55111512312578e-17 	0.11006665121397 	0.00818699060589253 	16.3383286982351 	0.0137451641103519 	0
2 	2.98520169365902 	-5.89805981832114e-17 	0.110062888387271 	0.007982164373528 	19.1913265069001 	0.0157746971081237 	0
2 	2.99090556520806 	-6.24500451351651e-17 	0.110058100694507 	0.00764222563353684 	22.6852377178456 	0.0178328469937333 	0
2 	2.99640787117633 	-6.24500451351651e-17 	0.11005265831273 	0.00712237448692747 	27.0466801298558 	0.019687793625927 	0
2 	3.00171573456492 	-6.59194920871187e-17 	0.11004697477094 	0.00637331971240187 	32.6644272524167 	0.0209452311221084 	0
2 	3.00683602665962 	-6.93889390390723e-17 	0.110041464925961 	0.0053512740244604 	40.2962655078054 	0.0209130070647022 	0
2 	3.01177537592612 	-6.93889390390723e-17 	0.11003655718143 	0.00404598236081329 	51.6823847288473 	0.0183225328012347 	0
2 	3.01654017659085 	-6.59194920871187e-17 	0.110032628779076 	0.00257201948139646 	71.6619677337654 	0.0123468971368366 	0
2 	3.02113659691864 	-5.89805981832114e-17 	0.110029803843197 	0.00126036829663067 	116.904390946586 	0.00555125340107334 	0
2 	3.02557058719784 	-5.55111512312578e-17 	0.110027782737487 	0.000434127986120248 	262.714479658196 	0.00144789230523565 	0
2 	3.02984788744324 	-5.55111512312578e-17 	0.110026100589195 	9.31554332908701e-05 	1109.53939863668 	0.000183472452398497 	0
