6 	0.00391112967796265 	1.73472347597681e-17 	0.253725019344404 	3.99636653312886e-05 	760.073739121923 	1.11991386461016e-06 	5.41416802808946e-38
6 	0.0118766651674913 	2.42861286636753e-17 	0.253726453382896 	0.000355022588329605 	304.406266431119 	6.49585468637975e-06 	0
6 	0.020134001548576 	2.42861286636753e-17 	0.25371951174001 	0.00145000377386082 	67.756009062321 	1.09090469022868e-05 	0
6 	0.028693828342395 	2.08166817117217e-17 	0.253706291450435 	0.00352473837459118 	26.7840675452247 	1.88636912092975e-05 	0
6 	0.0375672266585908 	2.42861286636753e-17 	0.253680316177 	0.00599223779336923 	14.3065906265539 	7.90325026592503e-05 	0
6 	0.0467656835403032 	2.42861286636753e-17 	0.253638769363126 	0.00826916186430068 	9.34004772808058 	0.000182652241729037 	0
6 	0.0563011068347008 	2.42861286636753e-17 	0.25358403018369 	0.0102346753884386 	6.91556166833379 	0.00028957262025483 	0
6 	0.0661858406082648 	2.77555756156289e-17 	0.253519778438308 	0.0119577622629926 	5.52450747055867 	0.000389895915096758 	0
6 	0.0764326811267815 	2.77555756156289e-17 	0.25344847290317 	0.0135107146680803 	4.63157234731669 	0.000487682557448242 	0
6 	0.0870548934207258 	3.12250225675825e-17 	0.253371536417707 	0.014943654519746 	4.01290620032778 	0.000586506960905367 	0
6 	0.0980662284574839 	3.81639164714898e-17 	0.253289997437702 	0.0162902483048236 	3.56076533142497 	0.000688610871077371 	0
6 	0.109480940942647 	4.16333634234434e-17 	0.253204732971279 	0.0175737899835937 	3.21735161968923 	0.000795519296232595 	0
6 	0.121313807773417 	3.98986399474666e-17 	0.253116519492099 	0.0188110410692562 	2.94898905705128 	0.000908415498116966 	0
6 	0.13358014716801 	3.29597460435593e-17 	0.253026061837609 	0.020014524348491 	2.73476042189868 	0.00102832835435319 	0
6 	0.146295838495838 	2.77555756156289e-17 	0.25293401984197 	0.021193915799321 	2.56100036851148 	0.00115622781173724 	0
6 	0.159477342834115 	2.94902990916057e-17 	0.252841025716469 	0.0223569153926736 	2.41841129061315 	0.00129307683551236 	0
6 	0.173141724277517 	3.98986399474666e-17 	0.252747693661098 	0.0235098299264327 	2.30045431932421 	0.00143985875751587 	0
6 	0.18730667202848 	5.20417042793042e-17 	0.252654626066691 	0.0246580942891923 	2.20240384167973 	0.00159760844614344 	0
6 	0.201990523296728 	5.3776427755281e-17 	0.252562414734667 	0.0258062144703661 	2.12076641913913 	0.00176742095429144 	0
6 	0.217212287037676 	4.85722573273506e-17 	0.252471637988125 	0.0269580472418257 	2.05291009989893 	0.0019504703412015 	0
6 	0.232991668560441 	3.98986399474666e-17 	0.252382857857791 	0.0281169436944567 	1.99682068207573 	0.00214801667216929 	0
6 	0.249349095037321 	3.46944695195361e-17 	0.252296615058652 	0.0292858382796649 	1.95093670993139 	0.00236141332093724 	0
6 	0.266305741947753 	3.03576608295941e-17 	0.252213421764478 	0.0304672966734537 	1.91403487470273 	0.00259211258210511 	0
6 	0.283883560490998 	2.08166817117217e-17 	0.252133752337072 	0.0316635402535755 	1.88514854678349 	0.0028416691645422 	0
6 	0.30210530600303 	6.93889390390723e-18 	0.252058031919553 	0.0328764507121311 	1.86350857444868 	0.00311174058361173 	0
6 	0.320994567414413 	7.37257477290143e-18 	0.251986622670271 	0.0341075567700701 	1.84849931290659 	0.00340408338865798 	0
6 	0.340575797787321 	1.77809156287623e-17 	0.251919807358846 	0.0353580038372383 	1.83962520793734 	0.0037205437672382 	0
6 	0.360874345971201 	1.43114686768087e-17 	0.251857769982633 	0.0366285066586988 	1.83648474881628 	0.00406304060893049 	0
6 	0.38191648941809 	1.30104260698261e-18 	0.251800543016589 	0.0379192869683029 	1.8387525309639 	0.00443355852898566 	0
6 	0.403729468200045 	-6.93889390390723e-18 	0.251746670159976 	0.0392300906340189 	1.8462843346662 	0.00483504136474901 	0
6 	0.426341520272733 	-1.38777878078145e-17 	0.251697175929147 	0.0405596999294012 	1.85871004304233 	0.00526855932324759 	0
6 	0.449781918030828 	-2.08166817117217e-17 	0.251651548976663 	0.0419061842717654 	1.87582620229258 	0.0057358877726469 	0
6 	0.474081006202548 	-2.77555756156289e-17 	0.251609009732715 	0.0432666383172193 	1.89744295220827 	0.00623855154771337 	0
6 	0.499270241132363 	-3.81639164714898e-17 	0.251568463530346 	0.0446370116751804 	1.92337172217178 	0.00677767999325109 	0
6 	0.525382231502763 	-4.16333634234434e-17 	0.251528458325595 	0.0460119194955072 	1.95341294958914 	0.00735381684857365 	0
6 	0.552450780547767 	-4.16333634234434e-17 	0.251487062665132 	0.0473844385834984 	1.98734371324304 	0.00796668973845923 	0
6 	0.58051092981285 	-3.46944695195361e-17 	0.251441447963855 	0.04874589716683 	2.02490541029325 	0.00861505141282313 	0
6 	0.609599004517911 	-2.77555756156289e-17 	0.251387998649374 	0.050085666406251 	2.0657917561111 	0.00930447343664947 	0
6 	0.639752660582033 	-2.77555756156289e-17 	0.251326852700847 	0.0513916116457432 	2.10966074674809 	0.0100936268720868 	0
6 	0.671010933370887 	-3.12250225675825e-17 	0.251264439511619 	0.0526540078041452 	2.156254718457 	0.0110502012924841 	0
6 	0.703414288229901 	-3.81639164714898e-17 	0.251187951187623 	0.05386426747068 	2.20514135964266 	0.0121189948750075 	0
6 	0.737004672868606 	-3.81639164714898e-17 	0.251066034808676 	0.0549925321647086 	2.25441296204734 	0.0132498813248799 	0
6 	0.771255893458755 	-3.81639164714898e-17 	0.250880640433823 	0.055961316515852 	2.29954378697307 	0.0142671844256062 	0
6 	0.788979504711946 	-4.16333634234434e-17 	0.250767401103767 	0.0564073587508203 	2.32101238034103 	0.014737768891216 	0
6 	0.807922061953054 	-4.5102810375397e-17 	0.250613945920634 	0.0567466252656023 	2.33836789811656 	0.0151038442023821 	0
6 	0.845340872387743 	-4.5102810375397e-17 	0.250272094776035 	0.0572444348541065 	2.36503499320594 	0.015678834197349 	0
6 	0.88413044342731 	-3.46944695195361e-17 	0.249843535170563 	0.0574159594231587 	2.37706403671907 	0.0160100240522075 	0
6 	0.924340990046898 	-3.64291929955129e-17 	0.249318816120919 	0.057229642229447 	2.37260803149371 	0.016114809928613 	0
6 	0.966024566743242 	-5.03069808033274e-17 	0.248685419678248 	0.0566674855189587 	2.35079557156579 	0.0159985047106329 	0
6 	1.00923513492173 	-6.07153216591882e-17 	0.247928487655468 	0.0557238538803142 	2.31155929184174 	0.0156542890852002 	0
6 	1.05402863275206 	-6.24500451351651e-17 	0.247032043861192 	0.0544073970832066 	2.25553369619911 	0.0150755072857095 	0
6 	1.10046304758287 	-6.11490025281825e-17 	0.245980518752113 	0.0527442600266179 	2.1839993737523 	0.0142696112024663 	0
6 	1.14859849100923 	-5.91974386177085e-17 	0.244760258465984 	0.0507798952993004 	2.09883734997639 	0.0132664672663895 	0
6 	1.19849727668995 	-5.87637577487143e-17 	0.24335376637879 	0.0485741921619202 	2.00227537017075 	0.0121165903657093 	0
6 	1.25022400101563 	-6.24500451351651e-17 	0.241747415307929 	0.0462055581014081 	1.89712303566786 	0.0108897835719532 	0
6 	1.30384562673186 	-6.24500451351651e-17 	0.23995356621243 	0.0437604662478873 	1.78682839041648 	0.0096546771625944 	0
6 	1.35943156962566 	-5.89805981832114e-17 	0.23797848582973 	0.0413284131698604 	1.67750592940889 	0.00846616043434904 	0
6 	1.41705378838763 	-5.55111512312578e-17 	0.235834521576967 	0.03897407242154 	1.57285168324949 	0.00736322907439089 	0
6 	1.47678687776592 	-5.20417042793042e-17 	0.2335381442304 	0.0367249917043852 	1.47318647142899 	0.00636739963732516 	0
6 	1.533710603315 	-5.55111512312578e-17 	0.231306119472908 	0.0347501236003409 	1.38502843297126 	0.00554924244945508 	0
6 	1.56522813627809 	-5.55111512312578e-17 	0.230059500411367 	0.0337039775044349 	1.33790863297532 	0.00513380810683086 	0
6 	1.60289781058851 	-5.20417042793042e-17 	0.228569730973399 	0.0325299105504309 	1.28382602925353 	0.00469864825550344 	0
6 	1.66943891073267 	-5.3776427755281e-17 	0.225938955435276 	0.0305477443907857 	1.19122089085053 	0.00400446118327448 	0
6 	1.73841760623657 	-5.03069808033274e-17 	0.223235701723286 	0.0286295704310301 	1.10118067687059 	0.00338968853123437 	0
6 	1.8099231933566 	-5.29090660172926e-17 	0.220483732457924 	0.0267722477432489 	1.01754478213329 	0.00284423514453222 	0
6 	1.88404823953249 	-5.18248638448071e-17 	0.217713632749873 	0.0249799529934036 	0.944854548008463 	0.00236712187441858 	0
6 	1.96088870322038 	-4.74880551548651e-17 	0.214972821835355 	0.0232506102294167 	0.884684284852236 	0.00196424260131321 	0
6 	2.02025965173185 	-4.85722573273506e-17 	0.213112085637651 	0.0219647558794501 	0.847342754401364 	0.00166076641270697 	0
6 	2.06006301192217 	-4.5102810375397e-17 	0.211798703479043 	0.0210851509953081 	0.824410672490577 	0.00147721866084506 	0
6 	2.09845978584128 	-4.5102810375397e-17 	0.210609696918394 	0.020263828741913 	0.80542202032914 	0.00131082426845714 	0
6 	2.13549967996946 	-5.20417042793042e-17 	0.209498298637219 	0.0194805014566766 	0.789570377990676 	0.0011561466699857 	0
6 	2.17123064424048 	-5.89805981832114e-17 	0.20845756891565 	0.0187337004277072 	0.776649029294246 	0.00101336449612871 	0
6 	2.20569893411516 	-6.59194920871187e-17 	0.207484044794062 	0.0180219718363843 	0.766497815452674 	0.000882342050079527 	0
6 	2.23894917046123 	-7.28583859910259e-17 	0.206574032982218 	0.0173438961861727 	0.758997515511997 	0.00076267171634107 	0
6 	2.27102439731726 	-7.97972798949331e-17 	0.205723776033588 	0.0166980691386589 	0.754065713700869 	0.000653788765494555 	0
6 	2.30196613761522 	-8.67361737988404e-17 	0.20492967962073 	0.016083124742497 	0.75165376148976 	0.000555065550720513 	0
6 	2.33181444693392 	-8.67361737988404e-17 	0.204188323700372 	0.0154977657091368 	0.751744702250145 	0.000465873359242817 	0
6.00000000000001 	2.3606079653529 	-8.32667268468867e-17 	0.2034964543783 	0.0149407793043429 	0.754352089228865 	0.000385620075253303 	0
6.00000000000001 	2.38838396747391 	-7.63278329429795e-17 	0.20285098416805 	0.0144110478799154 	0.759519653729056 	0.000313773292848526 	0
6.00000000000001 	2.41517841067461 	-6.93889390390723e-17 	0.202248991871848 	0.0139075569613315 	0.767321792086994 	0.00024987470192154 	0
6.00000000000001 	2.44102598165722 	-6.93889390390723e-17 	0.201687720217435 	0.0134294020482715 	0.77786484923416 	0.000193549566901562 	0
6.00000000000001 	2.46596014135208 	-6.93889390390723e-17 	0.2011645719526 	0.0129757948795016 	0.791289189215425 	0.000144513775814658 	0
6.00000000000001 	2.49001316823444 	-6.93889390390723e-17 	0.200677104811508 	0.0125460696623653 	0.807772056262705 	0.000102580061954739 	0
6.00000000000001 	2.51321620011054 	-6.93889390390723e-17 	0.200223025403123 	0.0121396886031088 	0.827531241930075 	6.76644715677156e-05 	0
6.00000000000001 	2.535599274427 	-6.93889390390723e-17 	0.199800182937583 	0.0117562415576141 	0.850829594135673 	3.97936197132638e-05 	0
6.00000000000001 	2.55719136715571 	-6.93889390390723e-17 	0.199406562856296 	0.0113954493625774 	0.877980408392953 	1.91131361070606e-05 	0
6.00000000000001 	2.57802043030466 	-6.93889390390723e-17 	0.199040279894297 	0.0110571681441035 	0.909353720093504 	5.89750425394145e-06 	0
6.00000000000001 	2.59811342810315 	-7.28583859910259e-17 	0.198699570964989 	0.0107413919211674 	0.945383499480199 	5.61394101112644e-07 	0
6.00000000000001 	2.61749637190832 	-7.63278329429795e-17 	0.198382788099421 	0.0104482529134799 	0.986575716214754 	3.67233140047e-06 	0
6.00000000000001 	2.63619435387806 	-7.63278329429795e-17 	0.198088391485839 	0.0101780190355565 	1.03351717838128 	1.59643230402729e-05 	0
6.00000000000001 	2.65423157945406 	-8.32667268468867e-17 	0.197814942639662 	0.00993108772155457 	1.08688496020726 	3.83518050042106e-05 	0
6.00000000000001 	2.67163139869691 	-9.0205620750794e-17 	0.197561097749338 	0.00970797482550014 	1.14745611290902 	7.19429707600333e-05 	0
6.00000000000001 	2.68841633651388 	-9.0205620750794e-17 	0.197325601255425 	0.00950929691407292 	1.21611720924519 	0.000118051210070471 	0
6.00000000000001 	2.70460812181851 	-9.0205620750794e-17 	0.197107279648975 	0.00933574511662115 	1.29387311797485 	0.000178203059128947 	0
6.00000000000001 	2.72022771565972 	-9.0205620750794e-17 	0.196905035487861 	0.0091880504672579 	1.3818542388853 	0.000254140781572249 	0
6.00000000000001 	2.73529533835695 	-9.0205620750794e-17 	0.196717841717237 	0.00906693945429946 	1.48132128951812 	0.000347817541868771 	0
6.00000000000001 	2.74983049567626 	-9.0205620750794e-17 	0.196544736352759 	0.00897307893678347 	1.59366669902878 	0.000461383234666432 	0
6.00000000000001 	2.76385200408157 	-9.0205620750794e-17 	0.19638481756328 	0.00890701078136688 	1.72041178597692 	0.000597159469422322 	0
6.00000000000001 	2.77737801509344 	-8.32667268468867e-17 	0.196237239184012 	0.00886907800600453 	1.86319924098527 	0.000757603008420455 	0
6.00000000000001 	2.79042603878708 	-7.63278329429795e-17 	0.196101206681919 	0.00885934578325124 	2.0237810614501 	0.000945258093009604 	0
6.00000000000001 	2.80301296646003 	-6.59194920871187e-17 	0.195975973579753 	0.00887752220344148 	2.20400301855241 	0.00116269946789021 	0
6.00000000000001 	2.81515509249873 	-5.55111512312578e-17 	0.195860838342625 	0.00892288492897204 	2.40578794591941 	0.0014124694113436 	0
6.00000000000001 	2.82686813547238 	-5.55111512312578e-17 	0.195755141720498 	0.00899422030898657 	2.63112153729031 	0.00169701354340668 	0
6.00000000000001 	2.83816725848143 	-5.20417042793042e-17 	0.195658264517619 	0.00908978120514347 	2.8820457872309 	0.00201862147870589 	0
6.00000000000001 	2.84906708878692 	-5.20417042793042e-17 	0.195569625684903 	0.0092072685786117 	3.1606665334126 	0.00237937942436507 	0
6.00000000000001 	2.85958173674617 	-4.85722573273506e-17 	0.195488680455659 	0.00934383979892872 	3.46918262744803 	0.00278114260512728 	0
6.00000000000001 	2.86972481407933 	-3.46944695195361e-17 	0.195414918627361 	0.00949614389650802 	3.80994504811501 	0.00322553595700948 	0
6 	2.87950945149043 	-2.77555756156289e-17 	0.195347866017738 	0.00966038109594271 	4.18555491149276 	0.00371436733451634 	0
6 	2.88894831566567 	-2.77555756156289e-17 	0.195287092519322 	0.00983237946175969 	4.59903894070881 	0.00425714308693317 	0
6 	2.89805362567107 	-2.77555756156289e-17 	0.195232189721784 	0.0100076328867358 	5.05466465418218 	0.00487930972712546 	0
6 	2.90683716877067 	-2.77555756156289e-17 	0.195182730932429 	0.0101810585158814 	5.55962016232344 	0.00556151502113474 	0
6 	2.9153103156857 	-2.77555756156289e-17 	0.195138273968916 	0.0103464538338134 	6.12032458699864 	0.00632321508157011 	0
6 	2.92348403531449 	-2.77555756156289e-17 	0.195098438991812 	0.0104944592505299 	6.73899020829933 	0.00712998268277037 	0
6 	2.9313689089323 	-2.77555756156289e-17 	0.195062942702556 	0.0106152805261478 	7.41779556275415 	0.00796285043295865 	0
6.00000000000001 	2.93897514388925 	-3.12250225675825e-17 	0.195031564698818 	0.0107001421282675 	8.16220208338223 	0.00881735412373602 	0
6.00000000000001 	2.94631258682425 	-3.46944695195361e-17 	0.195004125560401 	0.0107415324155224 	8.98317686291364 	0.00969861893520735 	0
6.00000000000001 	2.95339073641193 	-3.12250225675825e-17 	0.194980478325188 	0.0107327675856873 	9.89896828618057 	0.0106181634462289 	0
6 	2.96021875565916 	-2.77555756156289e-17 	0.194960502168293 	0.0106672406415614 	10.9373292935219 	0.0115925006289198 	0
6 	2.96680548376697 	-2.77555756156289e-17 	0.194944093089553 	0.0105374945317012 	12.1385604033257 	0.0126427105234109 	0
6.00000000000001 	2.97315944757337 	-3.12250225675825e-17 	0.194931149254677 	0.0103341016952682 	13.5601087756405 	0.0137936612408437 	0
6.00000000000001 	2.97928887259171 	-4.16333634234434e-17 	0.194921549149625 	0.010044182184849 	15.2848784762049 	0.0150708602256557 	0
6.00000000000001 	2.98520169365903 	-5.55111512312578e-17 	0.1949151213464 	0.00964939927968707 	17.4347271686704 	0.0164914611880243 	0
6.00000000000001 	2.99090556520807 	-5.89805981832114e-17 	0.194911608164992 	0.00912340600953583 	20.1928228990087 	0.0180430633147748 	0
6.00000000000001 	2.99640787117633 	-5.55111512312578e-17 	0.194910637437 	0.00842900505260244 	23.8439316522712 	0.0196372508563928 	0
6.00000000000001 	3.00171573456492 	-5.20417042793042e-17 	0.194911741962012 	0.00751646102278807 	28.8538493731446 	0.0210313551064485 	0
6.00000000000001 	3.00683602665963 	-5.20417042793042e-17 	0.194914394817009 	0.00632554698060505 	36.0493976317556 	0.0216337133711633 	0
6.00000000000001 	3.01177537592613 	-5.55111512312578e-17 	0.194917821762247 	0.00480147039054596 	47.0907690472625 	0.0196361630468132 	0
6.00000000000001 	3.01654017659085 	-4.85722573273506e-17 	0.194921027794702 	0.00302885464242462 	65.968877393315 	0.0135636777375738 	0
6 	3.02113659691864 	-4.85722573273506e-17 	0.194923422335635 	0.00140770066307957 	105.271875410345 	0.00558704501247511 	0
6 	3.02557058719784 	-5.20417042793042e-17 	0.194925219919727 	0.00042484780843389 	216.55800164027 	0.00109803192629258 	0
6 	3.02984788744324 	-5.20417042793042e-17 	0.194927004797238 	6.88548026100107e-05 	718.79329606116 	8.8007697455147e-05 	0
