6 	0.00391112967796265 	1.73472347597681e-17 	-0.013494121190203 	-8.04771693711273e-05 	-1.34317681186741e-20
6 	0.0118766651674913 	2.42861286636753e-17 	-0.0353637620070963 	-0.000197276224186035 	-1.04075411694565e-20
6 	0.020134001548576 	2.42861286636753e-17 	-0.0474951576796532 	-0.000407020896060963 	3.52501513661059e-21
6 	0.028693828342395 	2.08166817117217e-17 	-0.0506799807637754 	-0.000743456344013157 	6.05479871119687e-21
6 	0.0375672266585908 	2.42861286636753e-17 	-0.0486264926450267 	-0.00112365450986957 	3.34595516959097e-21
6 	0.0467656835403032 	2.42861286636753e-17 	-0.0448434652854589 	-0.00152400556028079 	1.64208870053319e-21
6 	0.0563011068347008 	2.42861286636753e-17 	-0.040741566376726 	-0.00194842071914627 	3.23501934636771e-21
6 	0.0661858406082648 	2.77555756156289e-17 	-0.0366272604224245 	-0.00239728725138546 	8.08889206530846e-22
6 	0.0764326811267815 	2.77555756156289e-17 	-0.0325322364468563 	-0.00286799125231863 	4.46353651523697e-21
6 	0.0870548934207258 	3.12250225675825e-17 	-0.0284350603876466 	-0.00335875826569492 	4.55195101330033e-21
6 	0.0980662284574839 	3.81639164714898e-17 	-0.0243065729102299 	-0.00386881422999189 	3.93293822708329e-21
6 	0.109480940942647 	4.16333634234434e-17 	-0.0201187534975294 	-0.00439782885280144 	1.29205624768612e-21
6 	0.121313807773417 	3.98986399474666e-17 	-0.0158458994957728 	-0.00494563711985718 	-2.67185343891711e-17
6 	0.13358014716801 	3.29597460435593e-17 	-0.0114641904729159 	-0.00551214245113204 	2.10768281044286e-17
6 	0.146295838495838 	2.77555756156289e-17 	-0.00695100765486004 	-0.00609726967565848 	2.11976708856726e-16
6 	0.159477342834115 	2.94902990916057e-17 	-0.00228431081094353 	-0.00670092995629413 	-1.60636922396774e-16
6 	0.173141724277517 	3.98986399474666e-17 	0.00255787974127967 	-0.00732299078842859 	-3.75685828989009e-17
6 	0.18730667202848 	5.20417042793042e-17 	0.00759789375319541 	-0.00796324486392106 	-4.28545752022275e-22
6 	0.201990523296728 	5.3776427755281e-17 	0.012858784136269 	-0.00862138594059898 	-2.76629369764488e-21
6 	0.217212287037676 	4.85722573273506e-17 	0.0183646657429879 	-0.00929698239022472 	2.83551004759499e-22
6 	0.232991668560441 	3.98986399474666e-17 	0.0241410125028048 	-0.00998944867816313 	-3.76361284756663e-21
6 	0.249349095037321 	3.46944695195361e-17 	0.030214933724369 	-0.0106980128954437 	3.21617370189092e-21
6 	0.266305741947753 	3.03576608295941e-17 	0.0366154404369988 	-0.0114216804296201 	-8.99239257096979e-24
6 	0.283883560490998 	2.08166817117217e-17 	0.0433737078990886 	-0.0121591933050741 	2.92978305110657e-22
6 	0.30210530600303 	6.93889390390723e-18 	0.0505233373061545 	-0.0129089845637405 	3.90080163075244e-21
6 	0.320994567414413 	7.37257477290143e-18 	0.0581006178645873 	-0.0136691270927184 	-8.99667083305319e-21
6 	0.340575797787321 	1.77809156287623e-17 	0.0661447885737364 	-0.0144372763600038 	-8.95199941317502e-21
6 	0.360874345971201 	1.43114686768087e-17 	0.0746982971292705 	-0.0152106065758898 	1.85438493318676e-20
6 	0.38191648941809 	1.30104260698261e-18 	0.0838072535997665 	-0.0159856470771753 	-9.6663837661135e-21
6 	0.403729468200045 	-6.93889390390723e-18 	0.0935321895815325 	-0.0167542644165181 	1.33281553486307e-18
6 	0.426341520272733 	-1.38777878078145e-17 	0.103919139255111 	-0.0175153442694265 	1.79218973913134e-16
6 	0.449781918030828 	-2.08166817117217e-17 	0.115026211125178 	-0.0182632597456296 	-1.80084374029839e-16
6 	0.474081006202548 	-2.77555756156289e-17 	0.126915743133671 	-0.0189914549462379 	-5.90865811472678e-18
6 	0.499270241132363 	-3.81639164714898e-17 	0.139654321034002 	-0.0196923346077062 	3.45488110989032e-22
6 	0.525382231502763 	-4.16333634234434e-17 	0.15331267558617 	-0.0203571358700872 	0
6 	0.552450780547767 	-4.16333634234434e-17 	0.167965413643375 	-0.0209757992692623 	1.06760474519611e-21
6 	0.58051092981285 	-3.46944695195361e-17 	0.183690539278429 	-0.0215370158698991 	1.2530538985285e-21
6 	0.609599004517911 	-2.77555756156289e-17 	0.200568884697624 	-0.0220284684895638 	-1.33157094959176e-20
6 	0.639752660582033 	-2.77555756156289e-17 	0.218701251605446 	-0.0224348491219964 	-2.35337401697332e-20
6 	0.671010933370887 	-3.12250225675825e-17 	0.23833962529091 	-0.0227336139645936 	-3.70005275473929e-21
6 	0.703414288229901 	-3.81639164714898e-17 	0.260013967511321 	-0.02290285866161 	2.58661921629191e-17
6 	0.737004672868606 	-3.81639164714898e-17 	0.284204489776009 	-0.0229179085339905 	2.95794844130879e-17
6 	0.771255893458755 	-3.81639164714898e-17 	0.310551000041948 	-0.0227658525912185 	-2.77083376151161e-17
6 	0.788979504711946 	-4.16333634234434e-17 	0.324580524426073 	-0.0226430080126902 	-6.15670573386213e-17
6 	0.807922061953054 	-4.5102810375397e-17 	0.340154736017461 	-0.0224319413694973 	-2.96098912750947e-17
6 	0.845340872387743 	-4.5102810375397e-17 	0.371393003460588 	-0.0219254919454625 	2.653419783953e-21
6 	0.88413044342731 	-3.46944695195361e-17 	0.404489392142819 	-0.0212377807986433 	-5.00025383290747e-21
6 	0.924340990046898 	-3.64291929955129e-17 	0.439222070760123 	-0.0203674203464697 	4.31991211661452e-21
6 	0.966024566743242 	-5.03069808033274e-17 	0.47539817996099 	-0.0193142695827586 	-2.02506579492807e-20
6 	1.00923513492173 	-6.07153216591882e-17 	0.512801670011492 	-0.0180826457914392 	3.31704328781849e-20
6 	1.05402863275206 	-6.24500451351651e-17 	0.551151241699435 	-0.0166850069725297 	-3.36470413124602e-20
6 	1.10046304758287 	-6.11490025281825e-17 	0.590085301662226 	-0.0151445743288153 	-4.3315318834176e-20
6 	1.14859849100923 	-5.91974386177085e-17 	0.629176157020072 	-0.0134958392170901 	-1.08079718615633e-21
6 	1.19849727668995 	-5.87637577487143e-17 	0.667946111769174 	-0.0117784312494888 	-4.97024251953925e-20
6 	1.25022400101563 	-6.24500451351651e-17 	0.705901815831148 	-0.0100428057814054 	-3.37653236726763e-21
6 	1.30384562673186 	-6.24500451351651e-17 	0.742694037495175 	-0.00834988029315472 	-6.41464021979306e-20
6 	1.35943156962566 	-5.89805981832114e-17 	0.778027230051441 	-0.00674538192326797 	-4.34833997762934e-20
6 	1.41705378838763 	-5.55111512312578e-17 	0.811684758923842 	-0.00526542177046171 	7.87884459979088e-20
6 	1.47678687776592 	-5.20417042793042e-17 	0.8435475136121 	-0.00393328337210297 	8.65020481966192e-21
6 	1.533710603315 	-5.55111512312578e-17 	0.871279849248369 	-0.00284637278668763 	1.66312615275389e-21
6 	1.56522813627809 	-5.55111512312578e-17 	0.88586448370755 	-0.00230038921695444 	1.75769203937569e-20
6 	1.60289781058851 	-5.20417042793042e-17 	0.90194781393533 	-0.00173913467705613 	1.62659120492496e-20
6 	1.66943891073267 	-5.3776427755281e-17 	0.928596579110009 	-0.00087402507809724 	6.73795906657109e-21
6 	1.73841760623657 	-5.03069808033274e-17 	0.953486837757366 	-0.000165944131264431 	3.17659897855712e-20
6 	1.8099231933566 	-5.29090660172926e-17 	0.976591108849675 	0.000389236142500052 	-4.18163516079132e-20
6 	1.88404823953249 	-5.18248638448071e-17 	0.997872701052064 	0.000800728676341052 	1.19884082816683e-23
6 	1.96088870322038 	-4.74880551548651e-17 	1.01721688245241 	0.00106708418606712 	0
6 	2.02025965173185 	-4.85722573273506e-17 	1.03056183118252 	0.00130029946075769 	0
6 	2.06006301192217 	-4.5102810375397e-17 	1.03932433955805 	0.00145697727113924 	0
6 	2.09845978584128 	-4.5102810375397e-17 	1.04716716156984 	0.0015897036452087 	0
6 	2.13549967996946 	-5.20417042793042e-17 	1.0543333881922 	0.00171284730425847 	0
6 	2.17123064424048 	-5.89805981832114e-17 	1.06086926471858 	0.00182571731190079 	0
6 	2.20569893411516 	-6.59194920871187e-17 	1.06681810575443 	0.0019278763544953 	0
6 	2.23894917046123 	-7.28583859910259e-17 	1.07221975150682 	0.00201975976668996 	0
6 	2.27102439731726 	-7.97972798949331e-17 	1.07711029590061 	0.00210208226168121 	0
6 	2.30196613761522 	-8.67361737988404e-17 	1.08152202112866 	0.00217562713152995 	0
6 	2.33181444693392 	-8.67361737988404e-17 	1.08548345541602 	0.0022411881855025 	0
6.00000000000001 	2.3606079653529 	-8.32667268468867e-17 	1.08901949329035 	0.00229953020437624 	0
6.00000000000001 	2.38838396747391 	-7.63278329429795e-17 	1.09215154120923 	0.0023513635517707 	0
6.00000000000001 	2.41517841067461 	-6.93889390390723e-17 	1.09489766469116 	0.00239733262661148 	0
6.00000000000001 	2.44102598165722 	-6.93889390390723e-17 	1.09727272282561 	0.0024380132357373 	0
6.00000000000001 	2.46596014135208 	-6.93889390390723e-17 	1.09928848231949 	0.00247391507164439 	0
6.00000000000001 	2.49001316823444 	-6.93889390390723e-17 	1.10095370716624 	0.0025054870054861 	0
6.00000000000001 	2.51321620011054 	-6.93889390390723e-17 	1.10227422276697 	0.00253312350415152 	0
6.00000000000001 	2.535599274427 	-6.93889390390723e-17 	1.10325295607383 	0.00255717165378 	0
6.00000000000001 	2.55719136715571 	-6.93889390390723e-17 	1.10388995354797 	0.00257793810017003 	0
6.00000000000001 	2.57802043030466 	-6.93889390390723e-17 	1.10418237915725 	0.00259569582907838 	0
6.00000000000001 	2.59811342810315 	-7.28583859910259e-17 	1.10412449722134 	0.00261069041911106 	0
6.00000000000001 	2.61749637190832 	-7.63278329429795e-17 	1.10370764683789 	0.0026231456709461 	0
6.00000000000001 	2.63619435387806 	-7.63278329429795e-17 	1.10292021640323 	0.00263326859756981 	0
6.00000000000001 	2.65423157945406 	-8.32667268468867e-17 	1.10174762887172 	0.00264125370467638 	0
6.00000000000001 	2.67163139869691 	-9.0205620750794e-17 	1.10017235073384 	0.00264728644552541 	0
6.00000000000001 	2.68841633651388 	-9.0205620750794e-17 	1.0981739398042 	0.00265154573226019 	0
6.00000000000001 	2.70460812181851 	-9.0205620750794e-17 	1.09572914818664 	0.00265420529606476 	0
6.00000000000001 	2.72022771565972 	-9.0205620750794e-17 	1.09281209708636 	0.00265543361790877 	0
6.00000000000001 	2.73529533835695 	-9.0205620750794e-17 	1.08939453873519 	0.00265539209093614 	0
6.00000000000001 	2.74983049567626 	-9.0205620750794e-17 	1.08544621654806 	0.00265423116275613 	0
6.00000000000001 	2.76385200408157 	-9.0205620750794e-17 	1.08093532716221 	0.00265208429536014 	0
6.00000000000001 	2.77737801509344 	-8.32667268468867e-17 	1.07582907733629 	0.00264905971784547 	0
6.00000000000001 	2.79042603878708 	-7.63278329429795e-17 	1.07009431554818 	0.00264523016260513 	0
6.00000000000001 	2.80301296646003 	-6.59194920871187e-17 	1.06369820404946 	0.00264062104475393 	0
6.00000000000001 	2.81515509249873 	-5.55111512312578e-17 	1.05660888425213 	0.00263519785780747 	0
6.00000000000001 	2.82686813547238 	-5.55111512312578e-17 	1.04879607872194 	0.00262885386602456 	0
6.00000000000001 	2.83816725848143 	-5.20417042793042e-17 	1.04023156840685 	0.00262139939853558 	0
6.00000000000001 	2.84906708878692 	-5.20417042793042e-17 	1.03088948468529 	0.00261255407946288 	0
6.00000000000001 	2.85958173674617 	-4.85722573273506e-17 	1.02074636167655 	0.00260194284724287 	0
6.00000000000001 	2.86972481407933 	-3.46944695195361e-17 	1.00978090297157 	0.00258909581120034 	0
6 	2.87950945149043 	-2.77555756156289e-17 	0.997973425816299 	0.00257345531707739 	0
6 	2.88894831566567 	-2.77555756156289e-17 	0.985303817449585 	0.00255440737487832 	0
6 	2.89805362567107 	-2.77555756156289e-17 	0.971725659574559 	0.00253123820023105 	0
6 	2.90683716877067 	-2.77555756156289e-17 	0.957095542213657 	0.00250295072455801 	0
6 	2.9153103156857 	-2.77555756156289e-17 	0.94127146939582 	0.00246820130477106 	0
6 	2.92348403531449 	-2.77555756156289e-17 	0.924241853786447 	0.00242557367842572 	0
6 	2.9313689089323 	-2.77555756156289e-17 	0.906049584638175 	0.00237363381935414 	0
6.00000000000001 	2.93897514388925 	-3.12250225675825e-17 	0.886736433313631 	0.00231105097048541 	0
6.00000000000001 	2.94631258682425 	-3.46944695195361e-17 	0.866313073179377 	0.00223666931792894 	0
6.00000000000001 	2.95339073641193 	-3.12250225675825e-17 	0.844743752692261 	0.00214955514557368 	0
6 	2.96021875565916 	-2.77555756156289e-17 	0.821935916811146 	0.00204903941195999 	0
6 	2.96680548376697 	-2.77555756156289e-17 	0.797728181318538 	0.00193475917903565 	0
6.00000000000001 	2.97315944757337 	-3.12250225675825e-17 	0.771872644718866 	0.00180669961648179 	0
6.00000000000001 	2.97928887259171 	-4.16333634234434e-17 	0.744008709452649 	0.00166524087724016 	0
6.00000000000001 	2.98520169365903 	-5.55111512312578e-17 	0.71362567585818 	0.00151121468157531 	0
6.00000000000001 	2.99090556520807 	-5.89805981832114e-17 	0.680011116115417 	0.00134597050312852 	0
6.00000000000001 	2.99640787117633 	-5.55111512312578e-17 	0.642181626338335 	0.00117144706029661 	0
6.00000000000001 	3.00171573456492 	-5.20417042793042e-17 	0.598793345690799 	0.000990404208179635 	0
6.00000000000001 	3.00683602665963 	-5.20417042793042e-17 	0.547994743086504 	0.00080689524979201 	0
6.00000000000001 	3.01177537592613 	-5.55111512312578e-17 	0.487126204814094 	0.00062498634456826 	0
6.00000000000001 	3.01654017659085 	-4.85722573273506e-17 	0.413443592252827 	0.000449195472865246 	0
6 	3.02113659691864 	-4.85722573273506e-17 	0.327134625603785 	0.000287711316559057 	0
6 	3.02557058719784 	-5.20417042793042e-17 	0.233483953729583 	0.000153236850834041 	0
6 	3.02984788744324 	-5.20417042793042e-17 	0.138871806229337 	5.80470639356806e-05 	0
