/*--------------------------------*- C++ -*----------------------------------*\
  =========                 |
  \\      /  F ield         | OpenFOAM: The Open Source CFD Toolbox
   \\    /   O peration     | Website:  https://openfoam.org
    \\  /    A nd           | Version:  7
     \\/     M anipulation  |
\*---------------------------------------------------------------------------*/
FoamFile
{
    version     2.0;
    format      ascii;
    class       volVectorField;
    location    "0";
    object      C;
}
// * * * * * * * * * * * * * * * * * * * * * * * * * * * * * * * * * * * * * //

dimensions      [0 1 0 0 0 0 0];

internalField   nonuniform List<vector> 
15600
(
(0.0598279108762468 1.00078221064649 0)
(0.179515718451235 0.999816059516281 5.93354326045545e-18)
(0.299121746757359 0.993856736699153 -5.68629588869949e-18)
(0.417747030829745 0.97771619871995 0)
(0.53369752715548 0.948177720694615 -1.85795520733237e-18)
(0.645690865629185 0.906086345919577 2.3385472208768e-17)
(0.754033380436003 0.85538630766965 -1.23845198611831e-17)
(0.859788684502538 0.799563518546192 0)
(0.964094674744618 0.741135141563229 -3.16736722982282e-15)
(1.0680509572596 0.682133161073155 -2.90384724824134e-15)
(1.17246773511962 0.623954931921467 8.57350122150749e-18)
(1.2775592846281 0.566963762909217 9.32769802548708e-20)
(1.38319835086868 0.51095790370947 -1.6521060598003e-18)
(1.48924062591983 0.455690650479294 7.07522539938096e-18)
(1.59554538607324 0.400907175638488 -6.48400691982744e-18)
(1.70208654968579 0.346579291696063 6.31147521221306e-18)
(1.80910837465974 0.293217680056033 4.341659785537e-18)
(1.91702199051256 0.241700757933657 -8.31682241852159e-18)
(2.02623347543911 0.193025702268565 0)
(2.13711289930884 0.148328225214514 -4.95661089399955e-18)
(2.2498849968496 0.10867999730746 0)
(2.36451490645919 0.0747747285749552 -9.53934515081929e-20)
(2.48079136196884 0.0470448417857715 4.55334065310666e-18)
(2.59843693123892 0.0258765582792501 8.93199998383471e-18)
(2.71711458850793 0.0116033396088123 -4.41569914149893e-18)
(2.8365575001247 0.00448213331016975 -2.24489812058628e-18)
(2.95615421387012 0.00273650168672147 -9.63736003289914e-20)
(3.07568579304396 0.00273773726269535 -2.25106438210597e-18)
(3.19534161479645 0.00273773726269538 -9.63735264799729e-20)
(3.31499743654895 0.00273773726269529 0)
(3.43465325830144 0.00273773726269536 0)
(3.55430908005393 0.00273773726269544 -9.63735264799729e-20)
(3.67396490180643 0.00273773726269533 9.63735264799752e-20)
(3.79362072355892 0.00273773726269534 0)
(3.91327654531142 0.00273773726269529 -2.25106438210585e-18)
(4.03293236706391 0.00273773726269547 0)
(4.1525881888164 0.00273773726269538 9.63735264799757e-20)
(4.2722440105689 0.00273773726269529 0)
(4.39189983232139 0.00273773726269539 -3.49472839697676e-16)
(4.51155565407389 0.00273773726269547 -3.52569585013323e-16)
(4.63121147582638 0.00273773726269546 2.25106438210586e-18)
(4.75086729757888 0.00273773726269547 0)
(4.87052311933137 0.00273773726269549 -4.5985022906917e-18)
(4.99017894108386 0.00273773726269546 0)
(5.10983476283636 0.00273773726269544 -9.6373526479976e-20)
(5.22949058458885 0.00273773726269538 -3.4722177531557e-16)
(5.34914640634134 0.00273773726269536 -3.52915328361931e-16)
(5.46880222809384 0.00273773726269537 0)
(5.58845804984633 0.00273773726269544 -9.63735264799746e-20)
(5.70811387159882 0.0027377372626953 9.63735264799749e-20)
(5.82776969335132 0.00273773726269526 -4.40575523773181e-18)
(5.94742551510381 0.00273773726269538 -2.25106438210595e-18)
(6.0670813368563 0.0027377372626953 2.25106438210603e-18)
(6.1867371586088 0.00273773726269526 4.50212876421184e-18)
(6.30639298036129 0.00273773726269543 9.63735264799759e-20)
(6.42604880211379 0.00273773726269549 0)
(6.54570462386627 0.00273773726269535 0)
(6.66536044561877 0.00273773726269533 0)
(6.78501626737126 0.00273773726269534 4.4057552377321e-18)
(6.90467208912376 0.00273773726269538 0)
(7.02432791087625 0.00273773726269534 -3.49569213224168e-16)
(7.14398373262874 0.00273773726269538 -3.37506017366236e-16)
(7.26363955438124 0.00273773726269533 0)
(7.38329537613374 0.00273773726269534 0)
(7.50295119788623 0.0027377372626955 2.25106438210587e-18)
(7.62260701963872 0.00273773726269544 9.63735264799776e-20)
(7.74226284139121 0.00273773726269535 -9.63735264799753e-20)
(7.86191866314371 0.00273773726269537 6.6568196198381e-18)
(7.9815744848962 0.00273773726269548 -2.25106438210583e-18)
(8.10123030664869 0.00273773726269525 2.34743790858597e-18)
(8.22088612840119 0.00273773726269533 2.25106438210597e-18)
(8.34054195015368 0.00273773726269544 0)
(8.46019777190617 0.00273773726269541 3.53974968461864e-16)
(8.57985359365867 0.00273773726269539 3.5563929872204e-16)
(8.69950941541116 0.00273773726269527 -4.40575523773225e-18)
(8.81916523716366 0.00273773726269542 -9.63735264799697e-20)
(8.93882105891615 0.00273773726269542 6.65681961983761e-18)
(9.05847688066864 0.00273773726269549 0)
(9.17813270242114 0.00273773726269542 -2.2510643821058e-18)
(9.29778852417363 0.00273773726269542 3.49569213224149e-16)
(9.41744434592612 0.00273773726269544 3.48176163192354e-16)
(9.53710016767861 0.00273773726269544 -2.15469085562591e-18)
(9.65675598943111 0.00273773726269529 0)
(9.7764118111836 0.00273773726269539 -9.63735264799739e-20)
(9.8960676329361 0.00273773726269549 -2.25106438210589e-18)
(10.0157234546886 0.00273773726269533 -2.25106438210537e-18)
(10.1353792764411 0.00273773726269554 9.63735264799755e-20)
(10.2550350981936 0.00273773726269525 0)
(10.3746909199461 0.0027377372626953 -9.6373526479972e-20)
(10.4943467416986 0.00273773726269558 0)
(10.6140025634511 0.00273773726269551 -2.34743790858607e-18)
(10.7336583852036 0.0027377372626952 3.51916651132608e-16)
(10.8533142069561 0.0027377372626952 3.50432801834526e-16)
(10.972867749255 0.00273672010604585 -9.63734657001266e-20)
(11.0924639469124 0.00449517718934741 -2.14940571642932e-18)
(11.2118834107602 0.0116418328435894 0)
(11.3305580722302 0.0259402703345174 4.46732821823556e-18)
(11.44819925525 0.0471326838474327 6.28808363700167e-16)
(11.5644701000549 0.0748853591226879 6.28910713136449e-16)
(11.679093824865 0.108812057737134 2.37457999538093e-18)
(11.7918590648455 0.148479858830807 0)
(11.9027318518849 0.193193645485304 -5.30233854983481e-18)
(12.0119381815358 0.241880896487809 -5.38437025468085e-18)
(12.1198477383583 0.293406063360879 5.88855391944342e-18)
(12.2268669995652 0.346772561675066 -9.86513088293928e-20)
(12.3334071168738 0.401102695571288 0)
(12.4397111360617 0.455887561057513 8.61165649944025e-18)
(12.5457522207237 0.511156999788095 -7.45779496302884e-18)
(12.6513895837142 0.567165956191366 -7.91218406962141e-18)
(12.7564789050439 0.624161072955344 9.97651849615776e-20)
(12.8608932872053 0.682343498501604 0)
(12.9648491163265 0.741346584880546 7.64205641087472e-18)
(13.0691584439421 0.799769491737299 5.97293874283627e-18)
(13.174921008757 0.855578881737166 2.04339763349692e-17)
(13.2832745316392 0.906254901533942 0)
(13.3952824977751 0.948307642928078 0)
(13.5112459739862 0.977797032819795 0)
(13.6298772757373 0.993893888285478 -5.49389439891791e-18)
(13.7494845609047 0.999825559227449 -9.65720684423742e-20)
(13.8691720891238 1.00078221064649 4.05982957677383e-18)
(0.0598207661189104 1.00237531660174 1.91532508101396e-18)
(0.179494342777254 1.00141302089366 -3.82333771920674e-18)
(0.299087039752546 0.995477477524679 1.11712551699693e-17)
(0.417703228816359 0.979401349361985 6.8495625247232e-18)
(0.533655320716232 0.949980778637596 -1.38099889168871e-17)
(0.645665519338581 0.908057446451157 -1.12767224186983e-17)
(0.754039019024474 0.857559796854696 1.17546639215869e-17)
(0.859835392506262 0.801959801579805 0)
(0.964188112781828 0.743764577883584 3.05734700947048e-15)
(1.06819245179563 0.684998012460868 2.8025418559826e-15)
(1.17265545039346 0.627051909135753 0)
(1.27779058130623 0.570288141029405 0)
(1.38347108909411 0.514505759303101 1.26066072298443e-17)
(1.48955323314796 0.459459041844805 0)
(1.59589684439633 0.404894176194029 -9.57098041514791e-18)
(1.70247592384928 0.350783083760726 -9.04946581288862e-18)
(1.8095337318671 0.297634405127658 -3.99706108324478e-18)
(1.91747975647736 0.246323053494173 1.11472787966173e-17)
(2.02671845416583 0.197842228156919 -1.02294906242495e-17)
(2.13761841535625 0.153323110656592 0)
(2.2504034876044 0.113833096397497 0)
(2.36503896138886 0.0800631269453829 -2.40255696127598e-18)
(2.48131441234939 0.0524438982300397 0)
(2.59895351385938 0.0313600892995271 0)
(2.71762058397355 0.0171438302151103 2.27621173888188e-18)
(2.83704985332795 0.0100510423720388 2.26562863255612e-18)
(2.9566324167691 0.00831237774566679 -1.92751982847818e-19)
(3.07615020227083 0.00831360810609233 0)
(3.19579173450865 0.00831360810609226 0)
(3.31543326674647 0.0083136081060922 2.46430034628045e-18)
(3.43507479898429 0.00831360810609231 4.54309617121234e-18)
(3.55471633122211 0.0083136081060924 0)
(3.67435786345993 0.0083136081060924 0)
(3.79399939569775 0.00831360810609223 2.9081182713904e-16)
(3.91364092793557 0.00831360810609234 2.92827274127639e-16)
(4.0332824601734 0.00831360810609245 1.92752260674252e-19)
(4.15292399241122 0.00831360810609234 0)
(4.27256552464904 0.00831360810609228 0)
(4.39220705688686 0.00831360810609236 6.30592471815601e-16)
(4.51184858912468 0.00831360810609239 6.29654294840691e-16)
(4.6314901213625 0.0083136081060924 -2.27154808560623e-18)
(4.75113165360032 0.00831360810609242 -2.27154808560626e-18)
(4.87077318583814 0.00831360810609245 1.92752260674252e-19)
(4.99041471807597 0.00831360810609245 0)
(5.11005625031379 0.00831360810609239 0)
(5.22969778255161 0.00831360810609239 9.24061351561606e-16)
(5.34933931478943 0.00831360810609236 9.18674546271181e-16)
(5.46898084702725 0.00831360810609233 2.27154808560631e-18)
(5.58862237926507 0.00831360810609239 0)
(5.70826391150289 0.00831360810609228 0)
(5.82790544374071 0.00831360810609228 0)
(5.94754697597853 0.00831360810609234 0)
(6.06718850821635 0.00831360810609225 -4.35034391053802e-18)
(6.18683004045417 0.00831360810609225 0)
(6.30647157269199 0.00831360810609233 2.27154808560619e-18)
(6.42611310492981 0.00831360810609239 -2.07879582493198e-18)
(6.54575463716763 0.00831360810609238 -4.73584843188677e-18)
(6.66539616940545 0.00831360810609224 -6.42913973546969e-18)
(6.78503770164328 0.00831360810609237 0)
(6.9046792338811 0.00831360810609229 0)
(7.02432076611892 0.00831360810609238 3.39973396937239e-16)
(7.14396229835673 0.00831360810609239 3.36983535630891e-16)
(7.26360383059456 0.00831360810609224 2.27154808560607e-18)
(7.38324536283238 0.00831360810609238 0)
(7.5028868950702 0.00831360810609245 1.9275226067425e-19)
(7.62252842730802 0.00831360810609239 -2.27154808560623e-18)
(7.74216995954584 0.00831360810609227 0)
(7.86181149178366 0.00831360810609241 -6.62189199614468e-18)
(7.98145302402148 0.00831360810609235 0)
(8.1010945562593 0.00831360810609232 0)
(8.22073608849712 0.00831360810609228 -1.92752260674249e-19)
(8.34037762073494 0.0083136081060924 2.07879582493199e-18)
(8.46001915297277 0.00831360810609239 -3.33737009462427e-16)
(8.57966068521059 0.00831360810609232 -3.34769508467081e-16)
(8.69930221744841 0.00831360810609234 2.07879582493193e-18)
(8.81894374968623 0.00831360810609226 0)
(8.93858528192405 0.00831360810609249 1.92752260674246e-19)
(9.05822681416186 0.00831360810609246 0)
(9.17786834639969 0.00831360810609246 -2.07879582493195e-18)
(9.29750987863751 0.00831360810609232 -3.35815805287369e-16)
(9.41715141087533 0.0083136081060924 -3.34781875132165e-16)
(9.53679294311315 0.00831360810609239 -1.92752260674249e-19)
(9.65643447535097 0.00831360810609228 -6.81464425681851e-18)
(9.77607600758879 0.00831360810609233 0)
(9.89571753982661 0.00831360810609251 0)
(10.0153590720644 0.00831360810609225 -2.9496941878893e-16)
(10.1350006043023 0.00831360810609229 -2.90555726041959e-16)
(10.2546421365401 0.00831360810609275 1.92752260674219e-19)
(10.3742836687779 0.00831360810609233 -1.92752260674255e-19)
(10.4939252010157 0.00831360810609222 4.35034391053776e-18)
(10.6135667332536 0.00831360810609225 -1.92752260674257e-19)
(10.7332082654914 0.00831360810609232 -6.39485911897275e-16)
(10.8528497977292 0.00831360810609272 -6.28578735746389e-16)
(10.9723894587029 0.00831259524292834 0)
(11.0919715074203 0.0100640342462647 -2.07372661580631e-18)
(11.2113774225559 0.0171821698355439 -4.36074592667987e-18)
(11.3300415088301 0.0314235471030173 -2.30155129453843e-18)
(11.4476762415953 0.0525313897500826 -5.93648730566289e-16)
(11.5639461042387 0.0801733160188414 -6.20588289788173e-16)
(11.6785754178871 0.113964629842667 6.87233188993017e-18)
(11.7913536599489 0.15347413919944 4.78229359649931e-18)
(11.9022470108529 0.198009501222243 -7.91907026468099e-18)
(12.0114805739046 0.246502473237251 -3.03350789568283e-18)
(12.1194225557464 0.297822036724253 -5.58475463624729e-18)
(12.2264778102759 0.350975582520489 -6.29728496045471e-18)
(12.3330558476349 0.405088915923283 4.69134831079448e-18)
(12.4393987207886 0.459655166681715 1.01622616419747e-17)
(12.5454796790859 0.514704060937753 0)
(12.6511584902762 0.570489527534925 -5.72303792562667e-18)
(12.7562914017226 0.627257227679908 0)
(12.8607520140183 0.685207510697234 9.05025342238324e-18)
(12.9647559016054 0.743975177535318 -5.17440916241904e-18)
(13.0691119462602 0.802164952814148 -1.97240948172868e-19)
(13.1749155521175 0.857751602292048 1.04532012212818e-17)
(13.2833000171492 0.908225329180305 1.6310831916538e-17)
(13.3953247870544 0.950110182196867 1.53257779824916e-17)
(13.5112898081647 0.979481860862742 1.95517636007079e-18)
(13.6299119899864 0.995514480865336 -3.5961517229048e-18)
(13.7495059372894 1.00142248269709 -4.01675538032358e-18)
(13.8691792338811 1.00237531660174 -5.84234356181512e-18)
(0.0598133596283852 1.00402678264983 0)
(0.179472184050125 1.00306848360056 -1.92551756835965e-19)
(0.299051061329006 0.997157590812517 3.83455235036614e-19)
(0.417657822206627 0.981148232019116 1.54713804481407e-17)
(0.533611568136086 0.951849887678172 0)
(0.645639244549216 0.910100753382458 -1.24290416108053e-17)
(0.754044864167455 0.859812905968645 -5.38208363600267e-18)
(0.859883811530153 0.804443865898841 -7.71796953619313e-18)
(0.964284973675731 0.74649033668698 1.88515348423933e-19)
(1.06833912963526 0.687967810618359 1.98187319216059e-17)
(1.17285004218004 0.630262336911394 6.35888386161374e-18)
(1.27803035102034 0.573734300299064 -7.54678650108328e-18)
(1.38375381848819 0.518183582830109 0)
(1.48987729206884 0.463365480114634 0)
(1.59626117764589 0.409027232016033 3.01585414917612e-18)
(1.70287956191201 0.355140872859726 -5.71367895001158e-19)
(1.8099746711438 0.302212927660609 -5.38556851010667e-18)
(1.91795429174493 0.25111467722607 0)
(2.02722119908249 0.202835197483088 2.42080620396899e-18)
(2.13814244993683 0.158500973379323 -4.42120993540924e-18)
(2.2509409721917 0.119174968575687 -7.01196687325708e-18)
(2.36558221397909 0.085545254772642 6.78209226247618e-18)
(2.48185662358677 0.0580407378160188 -2.26659139921519e-18)
(2.59948902040048 0.0370444979755912 1.92215661546509e-19)
(2.71814511551988 0.0228872850532473 -2.01042322370194e-18)
(2.83756024285568 0.0158239567091399 4.00000764615286e-18)
(2.95712813762845 0.0140925143309742 6.22192957005373e-18)
(3.07663162415495 0.0140937392744166 2.00558286207417e-18)
(3.19625834341172 0.0140937392744166 -1.92752452119258e-19)
(3.31588506266849 0.0140937392744166 -2.19833531419328e-18)
(3.43551178192526 0.0140937392744167 1.92752452119258e-19)
(3.55513850118203 0.0140937392744168 -6.59500594257969e-18)
(3.67476522043881 0.0140937392744167 1.92752452119263e-19)
(3.79439193969558 0.0140937392744167 -2.84480533050996e-16)
(3.91401865895235 0.0140937392744167 -2.8223857823988e-16)
(4.03364537820912 0.0140937392744167 -2.19833531419333e-18)
(4.15327209746589 0.0140937392744167 2.19833531419333e-18)
(4.27289881672266 0.0140937392744166 4.2039181762676e-18)
(4.39252553597943 0.0140937392744167 -2.84866037955233e-16)
(4.5121522552362 0.0140937392744167 -2.83096903536264e-16)
(4.63177897449298 0.0140937392744166 -2.19833531419337e-18)
(4.75140569374975 0.0140937392744166 1.92752452119258e-19)
(4.87103241300652 0.0140937392744166 -2.19833531419342e-18)
(4.99065913226329 0.0140937392744167 -2.19833531419333e-18)
(5.11028585152006 0.0140937392744167 2.19833531419334e-18)
(5.22991257077683 0.0140937392744167 -5.62944317515769e-16)
(5.3495392900336 0.0140937392744167 -5.65594380779956e-16)
(5.46916600929037 0.0140937392744167 2.19833531419342e-18)
(5.58879272854714 0.0140937392744166 -2.19833531419342e-18)
(5.70841944780391 0.0140937392744167 -2.19833531419334e-18)
(5.82804616706068 0.0140937392744167 0)
(5.94767288631745 0.0140937392744167 6.20950103834148e-18)
(6.06729960557422 0.0140937392744167 0)
(6.186926324831 0.0140937392744167 -2.19833531419334e-18)
(6.30655304408777 0.0140937392744166 2.19833531419342e-18)
(6.42617976334454 0.0140937392744167 -6.40225349046058e-18)
(6.54580648260131 0.0140937392744168 2.00558286207397e-18)
(6.66543320185808 0.0140937392744168 0)
(6.78505992111485 0.0140937392744168 -1.9275245211926e-19)
(6.90468664037162 0.0140937392744168 0)
(7.02431335962839 0.0140937392744169 -1.92752452119259e-19)
(7.14394007888516 0.0140937392744169 0)
(7.26356679814193 0.0140937392744168 -6.20950103834117e-18)
(7.3831935173987 0.0140937392744167 0)
(7.50282023665547 0.0140937392744166 4.20391817626759e-18)
(7.62244695591224 0.0140937392744167 -2.19833531419333e-18)
(7.74207367516901 0.0140937392744167 2.19833531419332e-18)
(7.86170039442578 0.0140937392744167 -2.19833531419333e-18)
(7.98132711368256 0.0140937392744167 2.19833531419334e-18)
(8.10095383293933 0.0140937392744167 1.9275245211926e-19)
(8.2205805521961 0.0140937392744167 -2.00558286207406e-18)
(8.34020727145287 0.0140937392744166 2.00558286207419e-18)
(8.45983399070964 0.0140937392744167 0)
(8.57946070996641 0.0140937392744167 0)
(8.69908742922319 0.0140937392744167 0)
(8.81871414847995 0.0140937392744167 -2.19833531419343e-18)
(8.93834086773672 0.0140937392744167 0)
(9.0579675869935 0.0140937392744166 0)
(9.17759430625027 0.0140937392744166 1.92752452119267e-19)
(9.29722102550703 0.0140937392744167 0)
(9.41684774476381 0.0140937392744167 0)
(9.53647446402057 0.0140937392744167 1.92752452119262e-19)
(9.65610118327735 0.0140937392744167 1.9275245211926e-19)
(9.77572790253412 0.0140937392744167 2.19833531419332e-18)
(9.89535462179089 0.0140937392744167 0)
(10.0149813410477 0.014093739274417 2.82860455093151e-16)
(10.1346080603044 0.0140937392744164 2.82577806105039e-16)
(10.2542347795612 0.0140937392744168 2.00558286207355e-18)
(10.373861498818 0.0140937392744163 -1.92752452119278e-19)
(10.4934882180748 0.0140937392744167 0)
(10.6131149373315 0.0140937392744164 0)
(10.7327416565883 0.0140937392744168 2.80469367326778e-16)
(10.8523683758451 0.0140937392744164 2.826817392406e-16)
(10.9718936469796 0.0140927308705603 0)
(11.0914610284426 0.0158368946750748 0)
(11.2108528985368 0.0229254654320275 -4.40710429468869e-18)
(11.3295060222136 0.0371076922134361 -4.26135477094804e-18)
(11.4471340684291 0.0581278659532401 6.22433277890401e-18)
(11.5634029129275 0.0856549861994974 -8.72613210137241e-18)
(11.6780380201457 0.119305955731456 4.22591207473871e-18)
(11.7908297405909 0.158651374683165 -1.941996607623e-19)
(11.901744408675 0.203001775847276 0)
(12.0110062027707 0.251293351825651 3.89298923254603e-19)
(12.1189817974615 0.30239978001154 2.6933421963579e-18)
(12.2260743638599 0.355332572148023 -1.61941554690908e-18)
(12.3326917103959 0.409221162960164 6.03300159084169e-18)
(12.4390748608548 0.463560790425914 0)
(12.545197153481 0.518381060917446 1.23694267232809e-17)
(12.6509189312474 0.573934850472617 2.03561770859097e-18)
(12.7560970296532 0.630466802834562 2.19017452852725e-18)
(12.8606055656365 0.688176438919035 -8.92392771696695e-18)
(12.9646592722088 0.746700061766445 0)
(13.0690637452622 0.804648165065385 7.71164019161853e-18)
(13.1749098955887 0.860003914619943 0)
(13.2833264362582 0.910267938578843 0)
(13.3953686255093 0.951978753564293 -1.24989843370783e-18)
(13.5113352481178 0.981228409103079 -1.0578243381921e-17)
(13.6299479759196 0.997194440476705 -9.06109771102831e-18)
(13.7495280967531 1.00307790610756 0)
(13.8691866403716 1.00402678264983 -1.92752452119267e-19)
(0.0598056818166332 1.0057387466886 1.69308754068606e-18)
(0.17944921358468 1.00478459070882 -1.92551926992007e-19)
(0.299013764910847 0.998899251548316 1.91727672333599e-19)
(0.417610752219466 0.982959108116748 2.2094682372565e-18)
(0.53356621277571 0.953787467447 6.14693593191591e-18)
(0.64561200724821 0.912218911787437 -6.37005838424965e-18)
(0.754050923431399 0.862148551623843 1.42582699693277e-17)
(0.859934004251648 0.807018927073008 0)
(0.964385382811783 0.749315946440249 -5.00360764168392e-18)
(1.06849118065398 0.691046399970388 -5.93191242954026e-18)
(1.17305176238262 0.633590371217008 1.9223767720137e-18)
(1.27827890415967 0.577306701877279 -9.05875913309051e-18)
(1.38404690505432 0.521996135366465 -3.10992271790239e-18)
(1.49021322218965 0.467415022328427 -6.17937426251681e-18)
(1.59663885746664 0.413311693518878 7.27184415283367e-18)
(1.70329798640111 0.359658300342113 0)
(1.81043176330587 0.306959174761382 0)
(1.91844621062357 0.256081832112324 -5.11018598072629e-18)
(2.02774236101658 0.208011073886133 -4.67028412103201e-18)
(2.13868568143865 0.163868516376317 -4.25822263455554e-18)
(2.25149814641103 0.124712529151414 -2.32319546793565e-18)
(2.36614536749596 0.0912282089293989 2.0576679513286e-18)
(2.4824186975985 0.0638426059113901 -2.19352230900885e-18)
(2.60004414409982 0.0429371430334509 0)
(2.7186888621767 0.0288411392850899 -2.13209178405409e-18)
(2.83808932943011 0.0218083496192182 1.9264969919045e-19)
(2.95764201818145 0.02008439409322 0)
(3.07713068191883 0.0200856134100839 0)
(3.1967420455521 0.0200856134100838 6.19037686932103e-18)
(3.31635340918537 0.0200856134100839 -4.06266702933801e-18)
(3.43596477281864 0.0200856134100839 2.7647640269487e-16)
(3.5555761364519 0.020085613410084 2.80695167852417e-16)
(3.67518750008517 0.0200856134100839 -1.93495718935538e-18)
(3.79479886371844 0.0200856134100838 0)
(3.91441022735171 0.0200856134100839 -2.74734198156123e-16)
(4.03402159098498 0.0200856134100839 -2.77519523488082e-16)
(4.15363295461824 0.0200856134100838 8.31808670930388e-18)
(4.27324431825151 0.0200856134100839 0)
(4.39285568188477 0.0200856134100838 0)
(4.51246704551804 0.0200856134100838 -1.92752650627517e-19)
(4.63207840915131 0.0200856134100838 0)
(4.75168977278457 0.0200856134100838 0)
(4.87130113641784 0.0200856134100839 -2.12770983998285e-18)
(4.99091250005111 0.0200856134100838 6.19037686932098e-18)
(5.11052386368437 0.0200856134100838 0)
(5.23013522731764 0.0200856134100838 -4.25541967996575e-18)
(5.34974659095091 0.0200856134100838 1.92752650627517e-19)
(5.46935795458417 0.0200856134100838 0)
(5.58896931821744 0.0200856134100839 2.12770983998292e-18)
(5.7085806818507 0.0200856134100838 0)
(5.82819204548397 0.0200856134100837 3.86991437871078e-18)
(5.94780340911724 0.0200856134100838 -2.32046249061031e-18)
(6.06741477275051 0.0200856134100838 2.12770983998285e-18)
(6.18702613638377 0.0200856134100838 8.31808670930386e-18)
(6.30663750001704 0.0200856134100838 -1.93495718935543e-18)
(6.4262488636503 0.0200856134100839 -4.0626670293383e-18)
(6.54586022728357 0.020085613410084 0)
(6.66547159091684 0.020085613410084 1.92752650627517e-19)
(6.7850829545501 0.020085613410084 -1.92752650627521e-19)
(6.90469431818337 0.020085613410084 1.93495718935539e-18)
(7.02430568181664 0.0200856134100839 2.32046249061065e-18)
(7.1439170454499 0.020085613410084 -1.93495718935534e-18)
(7.26352840908317 0.020085613410084 -1.92752650627518e-19)
(7.38313977271644 0.0200856134100839 0)
(7.5027511363497 0.0200856134100839 1.92752650627515e-19)
(7.62236249998297 0.0200856134100838 8.31808670930389e-18)
(7.74197386361624 0.0200856134100838 4.06266702933818e-18)
(7.8615852272495 0.0200856134100838 6.19037686932098e-18)
(7.98119659088277 0.0200856134100839 2.12770983998275e-18)
(8.10080795451604 0.0200856134100838 0)
(8.22041931814931 0.0200856134100838 -2.12770983998283e-18)
(8.34003068178257 0.0200856134100839 -2.12770983998294e-18)
(8.45964204541584 0.0200856134100838 0)
(8.5792534090491 0.0200856134100838 0)
(8.69886477268237 0.0200856134100838 0)
(8.81847613631563 0.0200856134100838 0)
(8.9380874999489 0.0200856134100839 0)
(9.05769886358217 0.0200856134100838 -2.1277098399829e-18)
(9.17731022721544 0.0200856134100838 0)
(9.2969215908487 0.0200856134100838 0)
(9.41653295448197 0.0200856134100838 -6.19037686932099e-18)
(9.53614431811524 0.0200856134100838 0)
(9.6557556817485 0.0200856134100838 0)
(9.77536704538177 0.0200856134100838 -2.12770983998283e-18)
(9.89497840901504 0.0200856134100839 -2.12770983998292e-18)
(10.0145897726483 0.0200856134100835 2.1277098399828e-18)
(10.1342011362816 0.020085613410084 1.92752650627499e-19)
(10.2538124999148 0.0200856134100836 0)
(10.3734238635481 0.020085613410084 0)
(10.4930352271814 0.0200856134100836 0)
(10.6126465908146 0.020085613410084 -1.92752650627499e-19)
(10.7322579544479 0.0200856134100836 0)
(10.8518693180812 0.020085613410084 1.92752650627502e-19)
(10.9713796722342 0.0200846096380726 -2.32373718190523e-18)
(11.0909318491411 0.0218212317039319 -1.92857797906752e-19)
(11.2103091596829 0.0288791545887685 1.93971155443955e-18)
(11.3289509191687 0.0430000640505938 0)
(11.4465720338832 0.0639293573541867 2.00170177812667e-18)
(11.5628398229344 0.0913374659449039 0)
(11.6774809359536 0.124842950005737 4.45786345798487e-18)
(11.7902866285326 0.16401826746358 0)
(11.9012233947087 0.208176932100147 -7.20113817940834e-18)
(12.0105144540387 0.256259734271453 0)
(12.1185248929212 0.307145219320161 -7.98826685863507e-18)
(12.2256561380381 0.359849170871671 -5.88535029642187e-18)
(12.3323142337663 0.413504786049573 4.16885943924454e-18)
(12.4387391370107 0.467609488275336 7.92136066704402e-18)
(12.5449042781692 0.522192759736831 1.84589734460316e-18)
(12.6506705965117 0.577506385080875 -1.08417289104885e-17)
(12.7558955372167 0.633793953284032 -7.88805568127689e-18)
(12.8604537524811 0.691254126465321 -2.10398231554646e-18)
(12.9645591030496 0.749524764907703 0)
(13.069013778554 0.807222342958334 9.97111506933968e-18)
(13.1749040318483 0.862338734301756 9.72044773405451e-18)
(13.2833538231654 0.912385373900578 -1.30161942687276e-18)
(13.3954140698902 0.95391577596507 0)
(13.5113823526698 0.983038938533304 6.5523737208259e-18)
(13.6299852801226 0.99893594190627 0)
(13.7495510679823 1.00479397247982 -1.68980529010839e-18)
(13.8691943181834 1.0057387466886 5.27201527268696e-18)
(0.0597977227443788 1.00751342493307 -4.99680119840301e-18)
(0.179425401644373 1.00656356379704 1.82282568783245e-18)
(0.298975102216252 1.00070471439368 5.03529025470924e-18)
(0.417561957920465 0.984836321922988 1.58009421443851e-18)
(0.533519195920928 0.955796026211822 0)
(0.645583772176751 0.914414663632611 -8.48148336300038e-18)
(0.754057204659905 0.864569757269501 0)
(0.859986035644041 0.809688318459363 7.35113881041145e-18)
(0.964489470168367 0.752245064860477 2.23060243707563e-18)
(1.0686488016827 0.694237765768212 1.65031865899898e-18)
(1.17326087213223 0.637040320262264 0)
(1.27853656248373 0.581009970345457 -3.04203299726117e-18)
(1.38435072820363 0.525948352398037 -3.3723904002747e-18)
(1.49056145838517 0.471612910778368 4.27968310995987e-18)
(1.59703037278086 0.417753107117005 8.60651652803663e-18)
(1.70373173898542 0.364341214215053 0)
(1.81090560007993 0.311879290663142 7.70602548278089e-18)
(1.91895614992544 0.261230948369085 0)
(2.0282826146373 0.213376557787082 -2.63461855240346e-18)
(2.13924881310118 0.16943268819146 2.14614528394458e-18)
(2.25207573155111 0.130452946761963 -2.24797767269173e-18)
(2.36672915096818 0.0971193462672029 -2.176915561289e-18)
(2.48300136201534 0.0698570133022665 -6.177109600761e-18)
(2.60061960359027 0.0490456527699859 -4.17091598987305e-18)
(2.71925252784857 0.0350131004433306 -2.06382877039015e-18)
(2.83863779797759 0.0280119681678285 -1.92649916616504e-19)
(2.95817472366988 0.0262957737935817 1.92752538286535e-19)
(3.07764802161538 0.026296987265752 0)
(3.19724346710414 0.026296987265752 0)
(3.3168389125929 0.026296987265752 1.92752856461528e-19)
(3.43643435808166 0.026296987265752 -2.68873194385423e-16)
(3.55602980357041 0.0262969872657519 -2.59524566128405e-16)
(3.67562524905916 0.0262969872657519 0)
(3.79522069454792 0.0262969872657519 5.79323499182056e-18)
(3.91481614003668 0.026296987265752 2.6681361415049e-16)
(4.03441158552544 0.0262969872657521 2.67814597025331e-16)
(4.1540070310142 0.026296987265752 -2.0595802349145e-18)
(4.27360247650296 0.026296987265752 -2.05958023491453e-18)
(4.39319792199172 0.0262969872657519 6.1787407047435e-18)
(4.51279336748047 0.0262969872657519 2.05958023491452e-18)
(4.63238881296923 0.026296987265752 -2.05958023491453e-18)
(4.75198425845799 0.026296987265752 -1.92752856461525e-19)
(4.87157970394675 0.026296987265752 2.05958023491443e-18)
(4.99117514943551 0.026296987265752 0)
(5.11077059492426 0.0262969872657521 0)
(5.23036604041302 0.026296987265752 0)
(5.34996148590178 0.0262969872657519 0)
(5.46955693139054 0.026296987265752 -2.05958023491452e-18)
(5.58915237687929 0.026296987265752 -2.05958023491453e-18)
(5.70874782236805 0.026296987265752 0)
(5.82834326785681 0.0262969872657519 1.92752856461526e-19)
(5.94793871334557 0.0262969872657519 -5.98598784828175e-18)
(6.06753415883432 0.0262969872657518 1.86682737845312e-18)
(6.18712960432308 0.0262969872657519 -3.73365475690604e-18)
(6.30672504981184 0.026296987265752 -1.92752856461522e-19)
(6.4263204953006 0.026296987265752 0)
(6.54591594078935 0.026296987265752 -4.11916046982908e-18)
(6.66551138627811 0.026296987265752 0)
(6.78510683176687 0.026296987265752 1.86682737845299e-18)
(6.90470227725563 0.0262969872657518 -4.11916046982894e-18)
(7.02429772274438 0.0262969872657518 -1.86682737845319e-18)
(7.14389316823314 0.0262969872657519 0)
(7.2634886137219 0.026296987265752 -8.04556808319659e-18)
(7.38308405921066 0.026296987265752 0)