/*--------------------------------*- C++ -*----------------------------------*\
  =========                 |
  \\      /  F ield         | OpenFOAM: The Open Source CFD Toolbox
   \\    /   O peration     | Website:  https://openfoam.org
    \\  /    A nd           | Version:  7
     \\/     M anipulation  |
\*---------------------------------------------------------------------------*/
FoamFile
{
    version     2.0;
    format      ascii;
    class       volScalarField;
    location    "0";
    object      k_LES;
}
// * * * * * * * * * * * * * * * * * * * * * * * * * * * * * * * * * * * * * //

dimensions      [0 2 -2 0 0 0 0];

internalField   nonuniform List<scalar>
15600
(
0.00397219
0.00388080
0.00023409
0.00060172
0.00002988
0.00246020
0.00321881
0.00256067
0.00194557
0.00409196
0.00267470
0.00257410
0.00326626
0.00301170
0.00293665
0.00230495
0.00176245
0.00328703
0.00360853
0.00260541
0.00358387
0.00408720
0.00447854
0.00389218
0.00592034
0.00782408
0.00527326
0.00563611
0.00588705
0.00592996
0.00612619
0.00621393
0.00604019
0.00590099
0.00590807
0.00573776
0.00553074
0.00531767
0.00511264
0.00491885
0.00469228
0.00442357
0.00421470
0.00406051
0.00385080
0.00371650
0.00349030
0.00331622
0.00324864
0.00308602
0.00289930
0.00284938
0.00274665
0.00261506
0.00249440
0.00243518
0.00229304
0.00222071
0.00211788
0.00200836
0.00195128
0.00190317
0.00181187
0.00169298
0.00165766
0.00157247
0.00155781
0.00153084
0.00144514
0.00141426
0.00133721
0.00130282
0.00123182
0.00120178
0.00115133
0.00113389
0.00111292
0.00107873
0.00103226
0.00102074
0.00096033
0.00091439
0.00090831
0.00087383
0.00085874
0.00084576
0.00080951
0.00075738
0.00073384
0.00070834
0.00074912
0.00069402
0.00064158
0.00063598
0.00114404
0.00137246
0.00122008
0.00042523
0.00045102
0.00038278
0.00015316
0.00003671
-0.00000750
-0.00016239
-0.00009216
0.00026416
0.00007320
-0.00014247
-0.00009189
-0.00017557
-0.00012111
-0.00018625
-0.00006148
0.00001816
-0.00032132
0.00014045
0.00000496
0.00006872
0.00175995
0.00294679
0.00586780
0.00594796
0.00122514
0.00127046
0.00119584
0.00373643
0.00656828
0.00591253
0.00454873
0.00732925
0.00701464
0.00810039
0.00844893
0.00851437
0.00878535
0.00776656
0.00723950
0.00888012
0.01061776
0.01060858
0.01275184
0.01385471
0.01512488
0.01560680
0.01899116
0.01946023
0.01741203
0.01867079
0.01942092
0.01973221
0.02034362
0.02087316
0.02042725
0.02011754
0.02001362
0.01954436
0.01922106
0.01849866
0.01792860
0.01725358
0.01658166
0.01591210
0.01525152
0.01471494
0.01415156
0.01363903
0.01300414
0.01252434
0.01202435
0.01157495
0.01114776
0.01083791
0.01052675
0.01013652
0.00976733
0.00944459
0.00915358
0.00880290
0.00838662
0.00813527
0.00796867
0.00763694
0.00736284
0.00710793
0.00684056
0.00663757
0.00651457
0.00629960
0.00608176
0.00597524
0.00572050
0.00548126
0.00526027
0.00513167
0.00500088
0.00487361
0.00475090
0.00461851
0.00448799
0.00436620
0.00421392
0.00410687
0.00400358
0.00396147
0.00380103
0.00368931
0.00354565
0.00344187
0.00335610
0.00325752
0.00319967
0.00301966
0.00289532
0.00278225
0.00364330
0.00464790
0.00481808
0.00404209
0.00364375
0.00327286
0.00252445
0.00189004
0.00146077
0.00133799
0.00183119
0.00167815
0.00072916
0.00037138
0.00026477
0.00049403
0.00012983
-0.00013337
0.00054450
0.00035077
-0.00006192
0.00022873
0.00046501
0.00065076
0.00302287
0.00469901
0.00852767
0.00877674
0.00280085
0.00225653
0.00264904
0.00589964
0.01091157
0.01070107
0.00924852
0.01290358
0.01344906
0.01411254
0.01557919
0.01507153
0.01600992
0.01586457
0.01617439
0.01815223
0.01823123
0.01933808
0.02083072
0.02260491
0.02451075
0.02670391
0.03055025
0.03072183
0.03074075
0.03288828
0.03427919
0.03500736
0.03618668
0.03694786
0.03680355
0.03664392
0.03632302
0.03594718
0.03537544
0.03451438
0.03348120
0.03253183
0.03151177
0.03050690
0.02942430
0.02854965
0.02763408
0.02666221
0.02579729
0.02499276
0.02426886
0.02340145
0.02272440
0.02212520
0.02151714
0.02082473
0.02024323
0.01966795
0.01908520
0.01849459
0.01780959
0.01726419
0.01682146
0.01630206
0.01582573
0.01528271
0.01486015
0.01445305
0.01416551
0.01374908
0.01335267
0.01298266
0.01256627
0.01216327
0.01176540
0.01146336
0.01119229
0.01096564
0.01070773
0.01045223
0.01016244
0.00988918
0.00963198
0.00938842
0.00918043
0.00896879
0.00874459
0.00848355
0.00824241
0.00802428
0.00782096
0.00758991
0.00734701
0.00708390
0.00679581
0.00647405
0.00717268
0.00888383
0.00944854
0.00948164
0.00923335
0.00927967
0.00848855
0.00762485
0.00652907
0.00568282
0.00518875
0.00435281
0.00339323
0.00245644
0.00173532
0.00184698
0.00122845
0.00053404
0.00131586
0.00111993
0.00064340
0.00073622
0.00118102
0.00161843
0.00492603
0.00719704
0.01201187
0.01269705
0.00508956
0.00355700
0.00425213
0.00923876
0.01562954
0.01644213
0.01458415
0.01962427
0.02036918
0.02014240
0.02133180
0.02096724
0.02212374
0.02229170
0.02379563
0.02495878
0.02455555
0.02579748
0.02733890
0.02915680
0.03119347
0.03334376
0.03695630
0.03851142
0.04004720
0.04273328
0.04465566
0.04589833
0.04748257
0.04845327
0.04861970
0.04848499
0.04819835
0.04802632
0.04747165
0.04657485
0.04529577
0.04416575
0.04294116
0.04185223
0.04051645
0.03949754
0.03835622
0.03717332
0.03616054
0.03522366
0.03429600
0.03323587
0.03234118
0.03172679
0.03081345
0.02995934
0.02917855
0.02842363
0.02779289
0.02690930
0.02607385
0.02536978
0.02469809
0.02400221
0.02341288
0.02272470
0.02215652
0.02162431
0.02117257
0.02061735
0.02004734
0.01952408
0.01897287
0.01841978
0.01786448
0.01745729
0.01709493
0.01677007
0.01642455
0.01607664
0.01565483
0.01524790
0.01489848
0.01458716
0.01427054
0.01398231
0.01365772
0.01330741
0.01297183
0.01265238
0.01238567
0.01205078
0.01170399
0.01133267
0.01092760
0.01044027
0.01086071
0.01267304
0.01377480
0.01478597
0.01476246
0.01499993
0.01441808
0.01405906
0.01304320
0.01146582
0.01060544
0.01002006
0.00859143
0.00749464
0.00571829
0.00507616
0.00336616
0.00274713
0.00262647
0.00255073
0.00279534
0.00177629
0.00236526
0.00309131
0.00777144
0.01014703
0.01614907
0.01685857
0.00823807
0.00542593
0.00623935
0.01342984
0.01988056
0.02223835
0.02159901
0.02489884
0.02532811
0.02603751
0.02660221
0.02632755
0.02717128
0.02768871
0.02863208
0.02960083
0.02961584
0.03127341
0.03250654
0.03414257
0.03634461
0.03844525
0.04162164
0.04406870
0.04667535
0.04966498
0.05196076
0.05360348
0.05556879
0.05659701
0.05706646
0.05713625
0.05690910
0.05675603
0.05638598
0.05548280
0.05400244
0.05281429
0.05151238
0.05033984
0.04898657
0.04785605
0.04654929
0.04518378
0.04412483
0.04310992
0.04208603
0.04090324
0.03996143
0.03910553
0.03813866
0.03714718
0.03618140
0.03537023
0.03459545
0.03366176
0.03263065
0.03179718
0.03106763
0.03028795
0.02955933
0.02879657
0.02812480
0.02750312
0.02696863
0.02630865
0.02557239
0.02496238
0.02431261
0.02363434
0.02300913
0.02247891
0.02203994
0.02163269
0.02121268
0.02076720
0.02029115
0.01982911
0.01938093
0.01895664
0.01861138
0.01823407
0.01784861
0.01745548
0.01706894
0.01669132
0.01635582
0.01599795
0.01559164
0.01518236
0.01470933
0.01416486
0.01435433
0.01595092
0.01738284
0.01847700
0.01888266
0.01926549
0.01900324
0.01911414
0.01851394
0.01713793
0.01616855
0.01542102
0.01405544
0.01303596
0.01098934
0.00902768
0.00741797
0.00564277
0.00496529
0.00477650
0.00527694
0.00334365
0.00463870
0.00520566
0.01083506
0.01368840
0.02065955
0.02177414
0.01241574
0.00798629
0.00866530
0.01755055
0.02451439
0.02689185
0.02891099
0.02955904
0.02959841
0.03137287
0.03080086
0.03108574
0.03177859
0.03202554
0.03254239
0.03327834
0.03379419
0.03474298
0.03594966
0.03757243
0.03955909
0.04205027
0.04525104
0.04828160
0.05144960
0.05474788
0.05733390
0.05933178
0.06152273
0.06268365
0.06330592
0.06349773
0.06333975
0.06338701
0.06307242
0.06213737
0.06066272
0.05932537
0.05799796
0.05684817
0.05534674
0.05417911
0.05277793
0.05135148
0.05023594
0.04915215
0.04807375
0.04677583
0.04580019
0.04491373
0.04383240
0.04273081
0.04168585
0.04074827
0.03990308
0.03885093
0.03779143
0.03686477
0.03599836
0.03515473
0.03435526
0.03354836
0.03279626
0.03215533
0.03151879
0.03075647
0.02996880
0.02923288
0.02850416
0.02776793
0.02705270
0.02645520
0.02593763
0.02549713
0.02503371
0.02452519
0.02397457
0.02343257
0.02294588
0.02249294
0.02206474
0.02166379
0.02124500
0.02079853
0.02033030
0.01993635
0.01958149
0.01919682
0.01880201
0.01836893
0.01789734
0.01736687
0.01739517
0.01863465
0.01997525
0.02115552
0.02182582
0.02237824
0.02248268
0.02247022
0.02270396
0.02214066
0.02121477
0.01996728
0.01862935
0.01831368
0.01626830
0.01424296
0.01150409
0.00948795
0.00917586
0.00828113
0.00824068
0.00629466
0.00807081
0.00810070
0.01453746
0.01773611
0.02523560
0.02699712
0.01773560
0.01107644
0.01145848
0.02170663
0.02829605
0.03081743
0.03365533
0.03300037
0.03316477
0.03460137
0.03419607
0.03500664
0.03517882
0.03519280
0.03557599
0.03633638
0.03671242
0.03736078
0.03869233
0.04039997
0.04242642
0.04486284
0.04812881
0.05153498
0.05510388
0.05863199
0.06143529
0.06369419
0.06607814
0.06732117
0.06808189
0.06832199
0.06835012
0.06852232
0.06822222
0.06729838
0.06576753
0.06438887
0.06303437
0.06188098
0.06038619
0.05913951
0.05762626
0.05616614
0.05498500
0.05387363
0.05275913
0.05141503
0.05041883
0.04942857
0.04829484
0.04710661
0.04595695
0.04493896
0.04401068
0.04291209
0.04178917
0.04080626
0.03989095
0.03897943
0.03809913
0.03726406
0.03645085
0.03575712
0.03506550
0.03424014
0.03340988
0.03261628
0.03181789
0.03102701
0.03023809
0.02958793
0.02903856
0.02853170
0.02803648
0.02745398
0.02687974
0.02630413
0.02575735
0.02524667
0.02478269
0.02433537
0.02387078
0.02340376
0.02293108
0.02249388
0.02211965
0.02172978
0.02131316
0.02090722
0.02046709
0.01997494
0.01991420
0.02079997
0.02199056
0.02308355
0.02387105
0.02450011
0.02505229
0.02490611
0.02509570
0.02539193
0.02472693
0.02386450
0.02236320
0.02226391
0.02058998
0.01896637
0.01715463
0.01389544
0.01441435
0.01298182
0.01186652
0.01013618
0.01189952
0.01191989
0.01875552
0.02210316
0.02975619
0.03185959
0.02399510
0.01472973
0.01443024
0.02471484
0.03157893
0.03425968
0.03633487
0.03614670
0.03665286
0.03704870
0.03719419
0.03794829
0.03766287
0.03768028
0.03794396
0.03857128
0.03866522
0.03945418
0.04070743
0.04250363
0.04449508
0.04708901
0.05050308
0.05419963
0.05806629
0.06175967
0.06472692
0.06719094
0.06965657
0.07098403
0.07185006
0.07214773
0.07228573
0.07254992
0.07229894
0.07139127
0.06986915
0.06842138
0.06708096
0.06591519
0.06440296
0.06308786
0.06149636
0.05997750
0.05873315
0.05759326
0.05648429
0.05512358
0.05407580
0.05303852
0.05186063
0.05058927
0.04935765
0.04825701
0.04724808
0.04611276
0.04493514
0.04393274
0.04294762
0.04199955
0.04106133
0.04020018
0.03934322
0.03859774
0.03786209
0.03699193
0.03611607
0.03528196
0.03444400
0.03361991
0.03278732
0.03208429
0.03147812
0.03093720
0.03040281
0.02976276
0.02915547
0.02854373
0.02798197
0.02744427
0.02693265
0.02644369
0.02596203
0.02545817
0.02495501
0.02450873
0.02410695
0.02372199
0.02331865
0.02290179
0.02248681
0.02205284
0.02193238
0.02254659
0.02354696
0.02450824
0.02530158
0.02595550
0.02675473
0.02711293
0.02688183
0.02727088
0.02683111
0.02657870
0.02519121
0.02478917
0.02417660
0.02245875
0.02156793
0.01912762
0.01929430
0.01786696
0.01565031
0.01432133
0.01590300
0.01630998
0.02294738
0.02642168
0.03393004
0.03603366
0.03057274
0.01908601
0.01759261
0.02740586
0.03432512
0.03726962
0.03896080
0.03851028
0.03951948
0.03931379
0.03969439
0.04007230
0.03988100
0.04007890
0.04014285
0.04033010
0.04033584
0.04111751
0.04250630
0.04432146
0.04640594
0.04908188
0.05258788
0.05647964
0.06054278
0.06438121
0.06744823
0.07005632
0.07256490
0.07399092
0.07490534
0.07521353
0.07548105
0.07581455
0.07558041
0.07469200
0.07318817
0.07170278
0.07037601
0.06919611
0.06767518
0.06627501
0.06463105
0.06308214
0.06176558
0.06062482
0.05950105
0.05812359
0.05702548
0.05594445
0.05473366
0.05343124
0.05210331
0.05094164
0.04984138
0.04869109
0.04748532
0.04643603
0.04542597
0.04444640
0.04343553
0.04255809
0.04167894
0.04089002
0.04010365
0.03920814
0.03829305
0.03742103
0.03656915
0.03571003
0.03484325
0.03409024
0.03344269
0.03286670
0.03228611
0.03162357
0.03098499
0.03035100
0.02976091
0.02919826
0.02865346
0.02813675
0.02762999
0.02710333
0.02659371
0.02611962
0.02569764
0.02530914
0.02490513
0.02450249
0.02410357
0.02369509
0.02354619
0.02395910
0.02473893
0.02557439
0.02632202
0.02700636
0.02781571
0.02826704
0.02841069
0.02825178
0.02803047
0.02810798
0.02743217
0.02662650
0.02679343
0.02542575
0.02463692
0.02388662
0.02316778
0.02198520
0.01948669
0.01880276
0.02005050
0.02079459
0.02670366
0.03052662
0.03775256
0.03966561
0.03676002
0.02419115
0.02024010
0.02977759
0.03674361
0.03955056
0.04123036
0.04080729
0.04163315
0.04123077
0.04155105
0.04157089
0.04153134
0.04181417
0.04157322
0.04170484
0.04179398
0.04262768
0.04395154
0.04584472
0.04801686
0.05082531
0.05443585
0.05848653
0.06268584
0.06662867
0.06976572
0.07248838
0.07500697
0.07648962
0.07744738
0.07776324
0.07812985
0.07849717
0.07828012
0.07745791
0.07594427
0.07444440
0.07313774
0.07192094
0.07038578
0.06890416
0.06724121
0.06564764
0.06425737
0.06312559
0.06199281
0.06058272
0.05944578
0.05834184
0.05711205
0.05576399
0.05438077
0.05315527
0.05198924
0.05081562
0.04957325
0.04850306
0.04745832
0.04644318
0.04538975
0.04449029
0.04358891
0.04276136
0.04193836
0.04103166
0.04006811
0.03917697
0.03829540
0.03742757
0.03655014
0.03575230
0.03506865
0.03444525
0.03382479
0.03314525
0.03248220
0.03183194
0.03121410
0.03063147
0.03005597
0.02951577
0.02897670
0.02844054
0.02791386
0.02743201
0.02699888
0.02659464
0.02618920
0.02579386
0.02540164
0.02501388
0.02483803
0.02510608
0.02570426
0.02640663
0.02711005
0.02782548
0.02851707
0.02903214
0.02950706
0.02956415
0.02923359
0.02931217
0.02929969
0.02816944
0.02851553
0.02777251
0.02693330
0.02661277
0.02629619
0.02500028
0.02369362
0.02266255
0.02329341
0.02484294
0.02995895
0.03431003
0.04109680
0.04295028
0.04175042
0.02979831
0.02247123
0.03200829
0.03903930
0.04156017
0.04301723
0.04270861
0.04305132
0.04297603
0.04303356
0.04307577
0.04312923
0.04310844
0.04276138
0.04284865
0.04303732
0.04396184
0.04523668
0.04723917
0.04952642
0.05244530
0.05612728
0.06031050
0.06460655
0.06861438
0.07180162
0.07461086
0.07711211
0.07864140
0.07960099
0.07989082
0.08035745
0.08075129
0.08056366
0.07979336
0.07824902
0.07677155
0.07548265
0.07421795
0.07266488
0.07111074
0.06943221
0.06778795
0.06634727
0.06522072
0.06408498
0.06264848
0.06146947
0.06033797
0.05908773
0.05771825
0.05628733
0.05501384
0.05379830
0.05259518
0.05134169
0.05024447
0.04916249
0.04811426
0.04702807
0.04610651
0.04518796
0.04433676
0.04347366
0.04255386
0.04156030
0.04063098
0.03974139
0.03885943
0.03796918
0.03713952
0.03642296
0.03575589
0.03510566
0.03440761
0.03373026
0.03305653
0.03242644
0.03181816
0.03122264
0.03065815
0.03009804
0.02954866
0.02901729
0.02852220
0.02806434
0.02764793
0.02723936
0.02685043
0.02646366
0.02608508
0.02588293
0.02604323
0.02650043
0.02706817
0.02773214
0.02845229
0.02901838
0.02962682
0.03016943
0.03061411
0.03046967
0.03013569
0.03047719
0.02966853
0.02931175
0.02905498
0.02814469
0.02839646
0.02871786
0.02737713
0.02696942
0.02577342
0.02584039
0.02794407
0.03268268
0.03755966
0.04384828
0.04577344
0.04556446
0.03549725
0.02514778
0.03428526
0.04132497
0.04374682
0.04472285
0.04477981
0.04468717
0.04448239
0.04417813
0.04445887
0.04437134
0.04423101
0.04379285
0.04402647
0.04419438
0.04516416
0.04651048
0.04857119
0.05095275
0.05396862
0.05770940
0.06200417
0.06637013
0.07043151
0.07365531
0.07652474
0.07898813
0.08053202
0.08146332
0.08172971
0.08228400
0.08267773
0.08255367
0.08179447
0.08022464
0.07877461
0.07750451
0.07617644
0.07462135
0.07299558
0.07130137
0.06962258
0.06811575
0.06702085
0.06586293
0.06441919
0.06319069
0.06203015
0.06077551
0.05938403
0.05791279
0.05659585
0.05533790
0.05411305
0.05285494
0.05173798
0.05062501
0.04954072
0.04843457
0.04748081
0.04655037
0.04567214
0.04478328
0.04384601
0.04281985
0.04187316
0.04096456
0.04007339
0.03918282
0.03832632
0.03758066
0.03686045
0.03618537
0.03547616
0.03478822
0.03410284
0.03345597
0.03282667
0.03220248
0.03161989
0.03104177
0.03048641
0.02994019
0.02944069
0.02896726
0.02852194
0.02810705
0.02772317
0.02734172
0.02696429
0.02674209
0.02682205
0.02716127
0.02761360
0.02820573
0.02885644
0.02947070
0.03018850
0.03044785
0.03101929
0.03142669
0.03118867
0.03118657
0.03113058
0.03019106
0.03023411
0.02966242
0.02968188
0.03034307
0.02924542
0.02904293
0.02825890
0.02787025
0.02981308
0.03480271
0.04019486
0.04591156
0.04794040
0.04845023
0.04135831
0.02810214
0.03667539
0.04368100
0.04606229
0.04637634
0.04634316
0.04593723
0.04581743
0.04532640
0.04569663
0.04536930
0.04516812
0.04481656
0.04499337
0.04525687
0.04626554
0.04776736
0.04987600
0.05234877
0.05545176
0.05923974
0.06361249
0.06803505
0.07212185
0.07539287
0.07828775
0.08070999
0.08224479
0.08311561
0.08335953
0.08398769
0.08437609
0.08431294
0.08353469
0.08194935
0.08054587
0.07928658
0.07785463
0.07632353
0.07463630
0.07292037
0.07120720
0.06965487
0.06858299
0.06740174
0.06595594
0.06467788
0.06349032
0.06221749
0.06080826
0.05932847
0.05796764
0.05666438
0.05542211
0.05417619
0.05303170
0.05189799
0.05078919
0.04966156
0.04867116
0.04773579
0.04682827
0.04591174
0.04495933
0.04391402
0.04295334
0.04202528
0.04111648
0.04022830
0.03935185
0.03857556
0.03781845
0.03710991
0.03639941
0.03569918
0.03500413
0.03434739
0.03368878
0.03303673
0.03243927
0.03185268
0.03128851
0.03072993
0.03022085
0.02973252
0.02926065
0.02883444
0.02845038
0.02807202
0.02770161
0.02746289
0.02747857
0.02771487
0.02807396
0.02859173
0.02914588
0.02988323
0.03046753
0.03098158
0.03147820
0.03180146
0.03195314
0.03146936
0.03191353
0.03115262
0.03140730
0.03096174
0.03116587
0.03124732
0.03100237
0.03072616
0.02996734
0.02935330
0.03075185
0.03581724
0.04194093
0.04722174
0.04958978
0.05063084
0.04690708
0.03205377
0.03936979
0.04606138
0.04826871
0.04818434
0.04779635
0.04721845
0.04706283
0.04646271
0.04679869
0.04638530
0.04624938
0.04582422
0.04590990
0.04634459
0.04742014
0.04901164
0.05118140
0.05372669
0.05691534
0.06076237
0.06516449
0.06965346
0.07371452
0.07706082
0.07996593
0.08232512
0.08382265
0.08460678
0.08484778
0.08552877
0.08592104
0.08588787
0.08507910
0.08347689
0.08213858
0.08087611
0.07933002
0.07783042
0.07609643
0.07434242
0.07260929
0.07101830
0.06997034
0.06875489
0.06731006
0.06598467
0.06477493
0.06346394
0.06205889
0.06057927
0.05917683
0.05782574
0.05655752
0.05533949
0.05416931
0.05302759
0.05189380
0.05074942
0.04971096
0.04878391
0.04784544
0.04690190
0.04593151
0.04487709
0.04390326
0.04294671
0.04202490
0.04114093
0.04024715
0.03943810
0.03865714
0.03791299
0.03720085
0.03649257
0.03579212
0.03512160
0.03444128
0.03376673
0.03314845
0.03255555
0.03198241
0.03141728
0.03089523
0.03039101
0.02989674
0.02945590
0.02906176
0.02868236
0.02832259
0.02807608
0.02803410
0.02819033
0.02847582
0.02891634
0.02942673
0.03010661
0.03063668
0.03137999
0.03167782
0.03182293
0.03214122
0.03207621
0.03225372
0.03206479
0.03187637
0.03180071
0.03243187
0.03190089
0.03246508
0.03196610
0.03136172
0.03039841
0.03112002
0.03579749
0.04276031
0.04774169
0.05062276
0.05237811
0.05189576
0.03674821
0.04198605
0.04848048
0.05039193
0.05001663
0.04921786
0.04851968
0.04819692
0.04764264
0.04783748
0.04748118
0.04719330
0.04672850
0.04690121
0.04741549
0.04860752
0.05024759
0.05251809
0.05512334
0.05837334
0.06230369
0.06666810
0.07125902
0.07524685
0.07868910
0.08160716
0.08386655
0.08529486
0.08598622
0.08626794
0.08694602
0.08735148
0.08731718
0.08646439
0.08486373
0.08359726
0.08231771
0.08066572
0.07919026
0.07741629
0.07561399
0.07386690
0.07226228
0.07121539
0.06996018
0.06851427
0.06715990
0.06591560
0.06458002
0.06317945
0.06170169
0.06025159
0.05886357
0.05756365
0.05637607
0.05518459
0.05402740
0.05288010
0.05171987
0.05064472
0.04971746
0.04875570
0.04778168
0.04678476
0.04573490
0.04474226
0.04376054
0.04282794
0.04194246
0.04103346
0.04019162
0.03939524
0.03862271
0.03790742
0.03719159
0.03648967
0.03580117
0.03510672
0.03441725
0.03377399
0.03317459
0.03259196
0.03202351
0.03148477
0.03096221
0.03045129
0.02999908
0.02958409
0.02920158
0.02884917
0.02859819
0.02851038
0.02860909
0.02883309
0.02920077
0.02968529
0.03023639
0.03088477
0.03140591
0.03199753
0.03209001
0.03224308
0.03254693
0.03236811
0.03293585
0.03199155
0.03321132
0.03272558
0.03229367
0.03334672
0.03301808
0.03228336
0.03128082
0.03127178
0.03536754
0.04263724
0.04735596
0.05081194
0.05373500
0.05612248
0.04225148
0.04491009
0.05103390
0.05253948
0.05178354
0.05055935
0.04990266
0.04939360
0.04887951
0.04884619
0.04847617
0.04810188
0.04771442
0.04793456
0.04848968
0.04979582
0.05152084
0.05388957
0.05656984
0.05985869
0.06386055
0.06817292
0.07286900
0.07675311
0.08029570
0.08324332
0.08534384
0.08669392
0.08731221
0.08768277
0.08828963
0.08869134
0.08863886
0.08774210
0.08616236
0.08494948
0.08361754
0.08190131
0.08044247
0.07860306
0.07678758
0.07502235
0.07341041
0.07234109
0.07105079
0.06960284
0.06823910
0.06697343
0.06560030
0.06419071
0.06272515
0.06121809
0.05980892
0.05848043
0.05731691
0.05610172
0.05491981
0.05377053
0.05258831
0.05150468
0.05056059
0.04957521
0.04857596
0.04754483
0.04650688
0.04548960
0.04448610
0.04354904
0.04264632
0.04172724
0.04086050
0.04004956
0.03926287
0.03853446
0.03781512
0.03711720
0.03641055
0.03570464
0.03500162
0.03433490
0.03372069
0.03313065
0.03255980
0.03200382
0.03146288
0.03094357
0.03047791
0.03004043
0.02965131
0.02930001
0.02904288
0.02891710
0.02897990
0.02915251
0.02945491
0.02987046
0.03041135
0.03098649
0.03151924
0.03203965
0.03253128
0.03245407
0.03301883
0.03262148
0.03331641
0.03269438
0.03343438
0.03277134
0.03266792
0.03398014
0.03385589
0.03292337
0.03185000
0.03142540
0.03442013
0.04172878
0.04619547
0.05008185
0.05451187
0.05922527
0.04826271
0.04804323
0.05371977
0.05479999
0.05368964
0.05213163
0.05128976
0.05076136
0.05009238
0.04996832
0.04948295
0.04907428
0.04877727
0.04902721
0.04962375
0.05101027
0.05284602
0.05532116
0.05809033
0.06141423
0.06543802
0.06971110
0.07448641
0.07828828
0.08188012
0.08486446
0.08676634
0.08805126
0.08863077
0.08911621
0.08961075
0.08997638
0.08986809
0.08895612
0.08740693
0.08621870
0.08482230
0.08306183
0.08160865
0.07968567
0.07790024
0.07609406
0.07447140
0.07338426
0.07206145
0.07060580
0.06924306
0.06798136
0.06655699
0.06512616
0.06366258
0.06210428
0.06068708
0.05933745
0.05817886
0.05693642
0.05573177
0.05457696
0.05337867
0.05230207
0.05133349
0.05031946
0.04930460
0.04824291
0.04721045
0.04616736
0.04514633
0.04420384
0.04327338
0.04235024
0.04146326
0.04063920
0.03984728
0.03909848
0.03837963
0.03768513
0.03696546
0.03624440
0.03553202
0.03484423
0.03421308
0.03361506
0.03303621
0.03246234
0.03190812
0.03138520
0.03090258
0.03044701
0.03004711
0.02969178
0.02942353
0.02926846
0.02930114
0.02943570
0.02967657
0.03002031
0.03051465
0.03104927
0.03169040
0.03211030
0.03257465
0.03294480
0.03289225
0.03292255
0.03320536
0.03344914
0.03353755
0.03298458
0.03301194
0.03451931
0.03425230
0.03316197
0.03226291
0.03158481
0.03357137
0.04018573
0.04436804
0.04873833
0.05448736
0.06120493
0.05449695
0.05138940
0.05660899
0.05722708
0.05575754
0.05390318
0.05265368
0.05224851
0.05132377
0.05115252
0.05057778
0.05015175
0.04990095
0.05019288
0.05082838
0.05229752
0.05425145
0.05683359
0.05970035
0.06305205
0.06705014
0.07129423
0.07612015
0.07989921
0.08347334
0.08647357
0.08817551
0.08939522
0.08995687
0.09054932
0.09093759
0.09122617
0.09104473
0.09014230
0.08863942
0.08740116
0.08595337
0.08415784
0.08269721
0.08070867
0.07897605
0.07710492
0.07547874
0.07437170
0.07302833
0.07154939
0.07018859
0.06894259
0.06745744
0.06600341
0.06453265
0.06293266
0.06150701
0.06014725
0.05896851
0.05769804
0.05647472
0.05531301
0.05411338
0.05304133
0.05204635
0.05100180
0.04997891
0.04889195
0.04786325
0.04679278
0.04575468
0.04480091
0.04384422
0.04291938
0.04200977
0.04117736
0.04038445
0.03961324
0.03889348
0.03819309
0.03746769
0.03673255
0.03601400
0.03530656
0.03465878
0.03405091
0.03346068
0.03287138
0.03231163
0.03178176
0.03128012
0.03081201
0.03039791
0.03003702
0.02975160
0.02957915
0.02957628
0.02967841
0.02987401
0.03016456
0.03060621
0.03112931
0.03168210
0.03227508
0.03251850
0.03309238
0.03301104
0.03350577
0.03310470
0.03391889
0.03361964
0.03384044
0.03341638
0.03472533
0.03467305
0.03336542
0.03264085
0.03173240
0.03284770
0.03842125
0.04228091
0.04688794
0.05351537
0.06213130
0.06079093
0.05509735
0.05972178
0.05988579
0.05798004
0.05573495
0.05430632
0.05374182
0.05274480
0.05239771
0.05180359
0.05132337
0.05110144
0.05146295
0.05211296
0.05366953
0.05574175
0.05842507
0.06139475
0.06477037
0.06871063
0.07292791
0.07779814
0.08159232
0.08511133
0.08807100
0.08963493
0.09073392
0.09133971
0.09195860
0.09226493
0.09245768
0.09219509
0.09131913
0.08987046
0.08852715
0.08703198
0.08520193
0.08373453
0.08171166
0.08002074
0.07808813
0.07646911
0.07534125
0.07396043
0.07245715
0.07109665
0.06985908
0.06829933
0.06682689
0.06534263
0.06371695
0.06227788
0.06091453
0.05969919
0.05839316
0.05715660
0.05599184
0.05479509
0.05372767
0.05270963
0.05163675
0.05060344
0.04949875
0.04846903
0.04737929
0.04631887
0.04534684
0.04437570
0.04344946
0.04251433
0.04167995
0.04087671
0.04008793
0.03936158
0.03864476
0.03791260
0.03717667
0.03645147
0.03572973
0.03507055
0.03445084
0.03384516
0.03324226
0.03267765
0.03213740
0.03161698
0.03114097
0.03071668
0.03034401
0.03003113
0.02985082
0.02980750
0.02987944
0.03005013
0.03030347
0.03069777
0.03118632
0.03168798
0.03222835
0.03262980
0.03291911
0.03332410
0.03359921
0.03336210
0.03400662
0.03404566
0.03454304
0.03432381
0.03472196
0.03446780
0.03396581
0.03295417
0.03186547
0.03228876
0.03665431
0.04021743
0.04486283
0.05180951
0.06222334
0.06661155
0.05922987
0.06306048
0.06277182
0.06036383
0.05778468
0.05608765
0.05533835
0.05433139
0.05376902
0.05314665
0.05261857
0.05243219
0.05280576
0.05349855
0.05513927
0.05730171
0.06007856
0.06318290
0.06657583
0.07042514
0.07462883
0.07953870
0.08336378
0.08679900
0.08964995
0.09114411
0.09209960
0.09280873
0.09336329
0.09360583
0.09369806
0.09333958
0.09250185
0.09108880
0.08962926
0.08808169
0.08622167
0.08473923
0.08272128
0.08106465
0.07907152
0.07744946
0.07630419
0.07486935
0.07334022
0.07198260
0.07071573
0.06909605
0.06760300
0.06610617
0.06445963
0.06300896
0.06163787
0.06038297
0.05904151
0.05780232
0.05663198
0.05543020
0.05436814
0.05332918
0.05223373
0.05118249
0.05007709
0.04903537
0.04793355
0.04685859
0.04585527
0.04487749
0.04393963
0.04299211
0.04215422
0.04132926
0.04052952
0.03978559
0.03904934
0.03830574
0.03757998
0.03684416
0.03612244
0.03545593
0.03482590
0.03420254
0.03358445
0.03300580
0.03245659
0.03191831
0.03144134
0.03100482
0.03061763
0.03027544
0.03008255
0.03000149
0.03004915
0.03020294
0.03042054
0.03077616
0.03122368
0.03174194
0.03219381
0.03275263
0.03291639
0.03336078
0.03352850
0.03388409
0.03394010
0.03419215
0.03470690
0.03516796
0.03490941
0.03470435
0.03455979
0.03323464
0.03199847
0.03195324
0.03515980
0.03829914
0.04276957
0.04970575
0.06171341
0.07171977
0.06385503
0.06664426
0.06587701
0.06294908
0.05995160
0.05808520
0.05711142
0.05603501
0.05533092
0.05460541
0.05407545
0.05388652
0.05426575
0.05499533
0.05673202
0.05892156
0.06179683
0.06506347
0.06846178
0.07220846
0.07642639
0.08130974
0.08519356
0.08855459
0.09123406
0.09269207
0.09356145
0.09437891
0.09480156
0.09499643
0.09495084
0.09449644
0.09369407
0.09229766
0.09072446
0.08911143
0.08722138
0.08572754
0.08375241
0.08211715
0.08009063
0.07845385
0.07726825
0.07576526
0.07419172
0.07285037
0.07151933
0.06987296
0.06835122
0.06684425
0.06516536
0.06370052
0.06231742
0.06104100
0.05967956
0.05843399
0.05724971
0.05603576
0.05497935
0.05390304
0.05280273
0.05172602
0.05062938
0.04956303
0.04846567
0.04737550
0.04633936
0.04535210
0.04439209
0.04344325
0.04259763
0.04174718
0.04094140
0.04017263
0.03941940
0.03866275
0.03794087
0.03719958
0.03649054
0.03581696
0.03517907
0.03453893
0.03390824
0.03330681
0.03274722
0.03219701
0.03171468
0.03126745
0.03086125
0.03049708
0.03027777
0.03016936
0.03019846
0.03033098
0.03053567
0.03086950
0.03130283
0.03176579
0.03227973
0.03263363
0.03306616
0.03327381
0.03343480
0.03416564
0.03366402
0.03469999
0.03512878
0.03584115
0.03515738
0.03483309
0.03471767
0.03348737
0.03214790
0.03176095
0.03398200
0.03658561
0.04068393
0.04749519
0.06061762
0.07587888
0.06895533
0.07049246
0.06923689
0.06581898
0.06233982
0.06024533
0.05908248
0.05788234
0.05706314
0.05622552
0.05568099
0.05550622
0.05586466
0.05661156
0.05843666
0.06061612
0.06360406
0.06703283
0.07044047
0.07407743
0.07832781
0.08312931
0.08706251
0.09036916
0.09288966
0.09430454
0.09515759
0.09607500
0.09629270
0.09644951
0.09622962
0.09568526
0.09490506
0.09349410
0.09183673
0.09016475
0.08823390
0.08671361
0.08480717
0.08317067
0.08113504
0.07949134
0.07821903
0.07665700
0.07501730
0.07369779
0.07229453
0.07064231
0.06908655
0.06756809
0.06585164
0.06436321
0.06297144
0.06168831
0.06031882
0.05905005
0.05784766
0.05663137
0.05557516
0.05444708
0.05334739
0.05222822
0.05114069
0.05005441
0.04896882
0.04786867
0.04680617
0.04580285
0.04481504
0.04386690
0.04300638
0.04213339
0.04132193
0.04053388
0.03976271
0.03899710
0.03825920
0.03752325
0.03683310
0.03615575
0.03550858
0.03485208
0.03421101
0.03359104
0.03301695
0.03246421
0.03196587
0.03150835
0.03108225
0.03070306
0.03044860
0.03032531
0.03033225
0.03044546
0.03064056
0.03095836
0.03134054
0.03178504
0.03225815
0.03267263
0.03307178
0.03322497
0.03349680
0.03403427
0.03402299
0.03489427
0.03504252
0.03607403
0.03533682
0.03484380
0.03476758
0.03369926
0.03231740
0.03170084
0.03307147
0.03511577
0.03871859
0.04523266
0.05872387
0.07849537
0.07453356
0.07460064
0.07294512
0.06897989
0.06504708
0.06263564
0.06125216
0.05989575
0.05897580
0.05804886
0.05745711
0.05730576
0.05760317
0.05836341
0.06025473
0.06244519
0.06551579
0.06907386