/*--------------------------------*- C++ -*----------------------------------*\
  =========                 |
  \\      /  F ield         | OpenFOAM: The Open Source CFD Toolbox
   \\    /   O peration     | Website:  https://openfoam.org
    \\  /    A nd           | Version:  7
     \\/     M anipulation  |
\*---------------------------------------------------------------------------*/
FoamFile
{
    version     2.0;
    format      ascii;
    class       volSymmTensorField;
    location    "0";
    object      tauij_LES;
}
// * * * * * * * * * * * * * * * * * * * * * * * * * * * * * * * * * * * * * //

dimensions      [0 2 -2 0 0 0 0];

internalField   nonuniform List<symmTensor>
15600
(
(0.00584225 -0.00004562 0.00000000 0.00000736 0.00000000 0.00209477)
(0.00565837 -0.00001761 0.00000000 -0.00000107 0.00000000 0.00210430)
(0.00039128 0.00000930 0.00000000 -0.00000503 0.00000000 0.00008193)
(0.00044036 0.00001722 0.00000000 -0.00001143 0.00000000 0.00077450)
(0.00027379 0.00008218 0.00000000 -0.00009475 0.00000000 -0.00011929)
(0.00190491 -0.00022254 0.00000000 0.00005252 0.00000000 0.00296296)
(0.00107095 -0.00090547 0.00000000 0.00065040 0.00000000 0.00471628)
(0.00087358 -0.00048938 0.00000000 0.00031663 0.00000000 0.00393112)
(0.00097483 -0.00084376 0.00000000 0.00066506 0.00000000 0.00225125)
(0.00239743 -0.00135816 0.00000000 0.00084253 0.00000000 0.00494396)
(0.00168907 -0.00048734 0.00000000 0.00014264 0.00000000 0.00351769)
(0.00184678 -0.00138776 0.00000000 0.00099366 0.00000000 0.00230776)
(0.00197237 -0.00132639 0.00000000 0.00088593 0.00000000 0.00367422)
(0.00173827 -0.00079691 0.00000000 0.00040293 0.00000000 0.00388222)
(0.00210777 -0.00062642 0.00000000 0.00019669 0.00000000 0.00356885)
(0.00220685 -0.00033176 0.00000000 -0.00006788 0.00000000 0.00247094)
(0.00192257 -0.00042412 0.00000000 0.00005419 0.00000000 0.00154814)
(0.00298384 -0.00166246 0.00000000 0.00093274 0.00000000 0.00265749)
(0.00242763 -0.00094749 0.00000000 0.00040129 0.00000000 0.00438815)
(0.00228388 -0.00041496 0.00000000 0.00005919 0.00000000 0.00286775)
(0.00271903 -0.00070300 0.00000000 0.00024620 0.00000000 0.00420251)
(0.00312540 -0.00062579 0.00000000 0.00020955 0.00000000 0.00483944)
(0.00374208 -0.00046357 0.00000000 0.00012330 0.00000000 0.00509170)
(0.00320242 -0.00019754 0.00000000 0.00002367 0.00000000 0.00455827)
(0.00567469 -0.00013036 0.00000000 -0.00001727 0.00000000 0.00618326)
(0.00718782 0.00002488 0.00000000 -0.00001157 0.00000000 0.00847191)
(0.00478819 0.00002228 0.00000000 -0.00002996 0.00000000 0.00578830)
(0.00508603 0.00002398 0.00000000 -0.00003991 0.00000000 0.00622610)
(0.00523168 0.00002170 0.00000000 -0.00003725 0.00000000 0.00657968)
(0.00517244 0.00001822 0.00000000 -0.00003668 0.00000000 0.00672417)
(0.00532074 0.00001719 0.00000000 -0.00003703 0.00000000 0.00696867)
(0.00549678 0.00001274 0.00000000 -0.00003499 0.00000000 0.00696606)
(0.00536476 0.00001157 0.00000000 -0.00003959 0.00000000 0.00675521)
(0.00524172 0.00000833 0.00000000 -0.00003645 0.00000000 0.00659671)
(0.00529212 0.00000363 0.00000000 -0.00002010 0.00000000 0.00654412)
(0.00521062 0.00000386 0.00000000 -0.00002973 0.00000000 0.00629463)
(0.00501945 0.00000348 0.00000000 -0.00002680 0.00000000 0.00606883)
(0.00484697 0.00000275 0.00000000 -0.00002892 0.00000000 0.00581728)
(0.00461474 0.00000204 0.00000000 -0.00002925 0.00000000 0.00563979)
(0.00442629 0.00000063 0.00000000 -0.00002693 0.00000000 0.00543834)
(0.00426091 -0.00000091 0.00000000 -0.00002381 0.00000000 0.00514745)
(0.00399608 0.00000095 0.00000000 -0.00002788 0.00000000 0.00487893)
(0.00380242 -0.00000046 0.00000000 -0.00002547 0.00000000 0.00465246)
(0.00366830 -0.00000243 0.00000000 -0.00002121 0.00000000 0.00447394)
(0.00350807 -0.00000143 0.00000000 -0.00002110 0.00000000 0.00421462)
(0.00339695 -0.00000533 0.00000000 -0.00001431 0.00000000 0.00405037)
(0.00319804 -0.00000162 0.00000000 -0.00001911 0.00000000 0.00380168)
(0.00304305 -0.00000043 0.00000000 -0.00001996 0.00000000 0.00360935)
(0.00301088 -0.00000331 0.00000000 -0.00001481 0.00000000 0.00350122)
(0.00282577 -0.00000256 0.00000000 -0.00001529 0.00000000 0.00336156)
(0.00262718 0.00000045 0.00000000 -0.00001721 0.00000000 0.00318863)
(0.00262407 -0.00000218 0.00000000 -0.00001343 0.00000000 0.00308813)
(0.00252653 -0.00000192 0.00000000 -0.00001284 0.00000000 0.00297961)
(0.00237462 -0.00000056 0.00000000 -0.00001363 0.00000000 0.00286913)
(0.00225794 0.00000046 0.00000000 -0.00001448 0.00000000 0.00274533)
(0.00222580 -0.00000227 0.00000000 -0.00001097 0.00000000 0.00265553)
(0.00207833 0.00000162 0.00000000 -0.00001309 0.00000000 0.00252085)
(0.00201337 -0.00000048 0.00000000 -0.00001068 0.00000000 0.00243873)
(0.00191190 -0.00000107 0.00000000 -0.00000931 0.00000000 0.00233318)
(0.00180777 0.00000108 0.00000000 -0.00001036 0.00000000 0.00221931)
(0.00177435 0.00000063 0.00000000 -0.00000990 0.00000000 0.00213812)
(0.00174087 -0.00000095 0.00000000 -0.00000794 0.00000000 0.00207340)
(0.00165134 0.00000012 0.00000000 -0.00000836 0.00000000 0.00198077)
(0.00153276 0.00000251 0.00000000 -0.00000933 0.00000000 0.00186253)
(0.00151053 0.00000108 0.00000000 -0.00000784 0.00000000 0.00181263)
(0.00142387 0.00000331 0.00000000 -0.00000876 0.00000000 0.00172984)
(0.00142148 0.00000182 0.00000000 -0.00000759 0.00000000 0.00170172)
(0.00139734 0.00000013 0.00000000 -0.00000629 0.00000000 0.00167064)
(0.00131712 0.00000209 0.00000000 -0.00000714 0.00000000 0.00158030)
(0.00130375 0.00000103 0.00000000 -0.00000651 0.00000000 0.00153128)
(0.00121931 0.00000261 0.00000000 -0.00000714 0.00000000 0.00146225)
(0.00119232 0.00000109 0.00000000 -0.00000591 0.00000000 0.00141924)
(0.00112926 0.00000207 0.00000000 -0.00000598 0.00000000 0.00134035)
(0.00110764 0.00000176 0.00000000 -0.00000552 0.00000000 0.00130143)
(0.00105367 0.00000276 0.00000000 -0.00000580 0.00000000 0.00125480)
(0.00104346 0.00000197 0.00000000 -0.00000520 0.00000000 0.00122952)
(0.00103025 0.00000087 0.00000000 -0.00000454 0.00000000 0.00120012)
(0.00100636 0.00000104 0.00000000 -0.00000437 0.00000000 0.00115546)
(0.00096282 0.00000210 0.00000000 -0.00000478 0.00000000 0.00110648)
(0.00096523 0.00000046 0.00000000 -0.00000368 0.00000000 0.00107994)
(0.00089912 0.00000232 0.00000000 -0.00000433 0.00000000 0.00102586)
(0.00085112 0.00000366 0.00000000 -0.00000484 0.00000000 0.00098251)
(0.00085222 0.00000205 0.00000000 -0.00000396 0.00000000 0.00096835)
(0.00081641 0.00000276 0.00000000 -0.00000421 0.00000000 0.00093545)
(0.00080887 0.00000185 0.00000000 -0.00000364 0.00000000 0.00091224)
(0.00080174 0.00000050 0.00000000 -0.00000282 0.00000000 0.00089259)
(0.00076082 0.00000128 0.00000000 -0.00000315 0.00000000 0.00086135)
(0.00070173 0.00000278 0.00000000 -0.00000354 0.00000000 0.00081657)
(0.00067183 0.00000348 0.00000000 -0.00000396 0.00000000 0.00079981)
(0.00064187 0.00000317 0.00000000 -0.00000370 0.00000000 0.00077852)
(0.00069195 -0.00000067 0.00000000 -0.00000189 0.00000000 0.00080818)
(0.00061386 0.00000137 0.00000000 -0.00000279 0.00000000 0.00077696)
(0.00053710 0.00000304 0.00000000 -0.00000359 0.00000000 0.00074965)
(0.00050553 0.00000236 0.00000000 -0.00000324 0.00000000 0.00076968)
(0.00083749 -0.00000263 0.00000000 -0.00000048 0.00000000 0.00145108)
(0.00088671 -0.00000214 0.00000000 0.00000211 0.00000000 0.00185610)
(0.00048160 -0.00000865 0.00000000 0.00000697 0.00000000 0.00195159)
(0.00008499 0.00006436 0.00000000 0.00002846 0.00000000 0.00073701)
(0.00012255 0.00004620 0.00000000 0.00001724 0.00000000 0.00076224)
(0.00004830 0.00003714 0.00000000 0.00001769 0.00000000 0.00069958)
(-0.00016827 -0.00002780 0.00000000 0.00000099 0.00000000 0.00047359)
(-0.00008236 -0.00002081 0.00000000 -0.00000324 0.00000000 0.00015902)
(-0.00001742 -0.00007255 0.00000000 -0.00005965 0.00000000 0.00006207)
(-0.00029212 -0.00009976 0.00000000 -0.00003433 0.00000000 0.00000167)
(-0.00031800 -0.00011576 0.00000000 -0.00004068 0.00000000 0.00017437)
(-0.00000190 -0.00001647 0.00000000 -0.00001138 0.00000000 0.00054160)
(-0.00002944 -0.00000605 0.00000000 0.00000146 0.00000000 0.00017439)
(-0.00007840 -0.00003073 0.00000000 -0.00001075 0.00000000 -0.00019580)
(-0.00004171 -0.00003744 0.00000000 -0.00002778 0.00000000 -0.00011429)
(-0.00029129 -0.00011646 0.00000000 -0.00004505 0.00000000 -0.00001480)
(-0.00005419 -0.00003014 0.00000000 -0.00002003 0.00000000 -0.00016800)
(-0.00019134 -0.00003269 0.00000000 0.00001814 0.00000000 -0.00019929)
(-0.00003880 -0.00001745 0.00000000 -0.00000945 0.00000000 -0.00007471)
(0.00004321 0.00001043 0.00000000 0.00000236 0.00000000 -0.00000924)
(-0.00035690 -0.00000564 0.00000000 0.00003249 0.00000000 -0.00031824)
(0.00007483 -0.00006952 0.00000000 -0.00000410 0.00000000 0.00021017)
(0.00006518 0.00009274 0.00000000 0.00002293 0.00000000 -0.00007820)
(0.00011392 0.00000692 0.00000000 0.00000086 0.00000000 0.00002265)
(0.00248324 -0.00000448 0.00000000 0.00000147 0.00000000 0.00103519)
(0.00429448 -0.00002686 0.00000000 0.00000291 0.00000000 0.00159619)
(0.00879711 -0.00009708 0.00000000 0.00002009 0.00000000 0.00291840)
(0.00882658 -0.00008101 0.00000000 0.00001595 0.00000000 0.00305340)
(0.00198244 0.00002745 0.00000000 -0.00001430 0.00000000 0.00048215)
(0.00109812 -0.00001927 0.00000000 -0.00000547 0.00000000 0.00144826)
(0.00147431 -0.00013159 0.00000000 -0.00007282 0.00000000 0.00099020)
(0.00255631 -0.00056764 0.00000000 0.00030200 0.00000000 0.00461455)
(0.00359426 -0.00206797 0.00000000 0.00128036 0.00000000 0.00826194)
(0.00332466 -0.00176336 0.00000000 0.00109447 0.00000000 0.00740593)
(0.00266066 -0.00205402 0.00000000 0.00157481 0.00000000 0.00486200)
(0.00460297 -0.00268932 0.00000000 0.00173850 0.00000000 0.00831704)
(0.00543382 -0.00194869 0.00000000 0.00082296 0.00000000 0.00777251)
(0.00678739 -0.00427174 0.00000000 0.00280482 0.00000000 0.00660857)
(0.00610690 -0.00363364 0.00000000 0.00228360 0.00000000 0.00850735)
(0.00653906 -0.00280474 0.00000000 0.00136782 0.00000000 0.00912185)
(0.00732000 -0.00274365 0.00000000 0.00119107 0.00000000 0.00905963)
(0.00711560 -0.00239922 0.00000000 0.00094570 0.00000000 0.00747181)
(0.00722340 -0.00254848 0.00000000 0.00106044 0.00000000 0.00619516)
(0.00856907 -0.00381548 0.00000000 0.00194158 0.00000000 0.00724960)
(0.00889632 -0.00326909 0.00000000 0.00143028 0.00000000 0.01090893)
(0.00960636 -0.00301576 0.00000000 0.00117402 0.00000000 0.01043677)
(0.01127435 -0.00329247 0.00000000 0.00128288 0.00000000 0.01294645)
(0.01178007 -0.00307114 0.00000000 0.00119601 0.00000000 0.01473333)
(0.01276317 -0.00281687 0.00000000 0.00108419 0.00000000 0.01640241)
(0.01438617 -0.00157309 0.00000000 0.00048544 0.00000000 0.01634198)
(0.01778692 -0.00142815 0.00000000 0.00063333 0.00000000 0.01956206)
(0.01709940 -0.00001907 0.00000000 0.00043810 0.00000000 0.02138296)
(0.01530899 0.00002916 0.00000000 0.00025914 0.00000000 0.01925594)
(0.01630392 0.00003931 0.00000000 0.00026617 0.00000000 0.02077148)
(0.01673763 0.00001706 0.00000000 0.00027194 0.00000000 0.02183227)
(0.01677969 -0.00000406 0.00000000 0.00027510 0.00000000 0.02240962)
(0.01729143 -0.00002910 0.00000000 0.00028307 0.00000000 0.02311275)
(0.01810996 -0.00004872 0.00000000 0.00030635 0.00000000 0.02333002)
(0.01788463 -0.00005202 0.00000000 0.00027485 0.00000000 0.02269501)
(0.01772062 -0.00006914 0.00000000 0.00026389 0.00000000 0.02225057)
(0.01779696 -0.00008364 0.00000000 0.00028088 0.00000000 0.02194940)
(0.01764431 -0.00009199 0.00000000 0.00024241 0.00000000 0.02120199)
(0.01741183 -0.00009364 0.00000000 0.00026091 0.00000000 0.02076939)
(0.01683956 -0.00009386 0.00000000 0.00022460 0.00000000 0.01993316)
(0.01623615 -0.00010981 0.00000000 0.00021898 0.00000000 0.01940207)
(0.01561630 -0.00011188 0.00000000 0.00020150 0.00000000 0.01868935)
(0.01516605 -0.00011571 0.00000000 0.00018486 0.00000000 0.01781241)
(0.01454933 -0.00012248 0.00000000 0.00018529 0.00000000 0.01708957)
(0.01397913 -0.00012843 0.00000000 0.00017183 0.00000000 0.01635207)
(0.01354420 -0.00013681 0.00000000 0.00016331 0.00000000 0.01572238)
(0.01314394 -0.00013414 0.00000000 0.00015512 0.00000000 0.01500405)
(0.01276101 -0.00014333 0.00000000 0.00015234 0.00000000 0.01436471)
(0.01222854 -0.00013848 0.00000000 0.00013406 0.00000000 0.01364568)
(0.01185463 -0.00013814 0.00000000 0.00012548 0.00000000 0.01306858)
(0.01145677 -0.00013149 0.00000000 0.00011846 0.00000000 0.01247347)
(0.01096296 -0.00013293 0.00000000 0.00010975 0.00000000 0.01207719)
(0.01053531 -0.00013858 0.00000000 0.00010945 0.00000000 0.01165076)
(0.01035668 -0.00013606 0.00000000 0.00010026 0.00000000 0.01121888)
(0.01007081 -0.00013435 0.00000000 0.00009858 0.00000000 0.01088411)
(0.00963491 -0.00013760 0.00000000 0.00009487 0.00000000 0.01054327)
(0.00929625 -0.00013439 0.00000000 0.00008632 0.00000000 0.01015209)
(0.00905052 -0.00013543 0.00000000 0.00008383 0.00000000 0.00975484)
(0.00877798 -0.00013131 0.00000000 0.00007976 0.00000000 0.00944942)
(0.00844592 -0.00012924 0.00000000 0.00007532 0.00000000 0.00908456)
(0.00802512 -0.00012568 0.00000000 0.00006736 0.00000000 0.00868076)
(0.00781207 -0.00012853 0.00000000 0.00006718 0.00000000 0.00839129)
(0.00772991 -0.00013027 0.00000000 0.00006803 0.00000000 0.00813939)
(0.00742183 -0.00012175 0.00000000 0.00006126 0.00000000 0.00779080)
(0.00716323 -0.00012037 0.00000000 0.00005771 0.00000000 0.00750475)
(0.00694208 -0.00011891 0.00000000 0.00005427 0.00000000 0.00721952)
(0.00670717 -0.00011399 0.00000000 0.00005252 0.00000000 0.00692143)
(0.00652546 -0.00011138 0.00000000 0.00005051 0.00000000 0.00669917)
(0.00643270 -0.00011415 0.00000000 0.00005123 0.00000000 0.00654520)
(0.00620609 -0.00010933 0.00000000 0.00004827 0.00000000 0.00634484)
(0.00602579 -0.00010752 0.00000000 0.00004563 0.00000000 0.00609211)
(0.00598996 -0.00011139 0.00000000 0.00004744 0.00000000 0.00591307)
(0.00571689 -0.00010442 0.00000000 0.00004201 0.00000000 0.00568210)
(0.00547582 -0.00010225 0.00000000 0.00004070 0.00000000 0.00544599)
(0.00527752 -0.00009699 0.00000000 0.00003583 0.00000000 0.00520719)
(0.00517922 -0.00009659 0.00000000 0.00003648 0.00000000 0.00504764)
(0.00505283 -0.00009506 0.00000000 0.00003465 0.00000000 0.00491429)
(0.00493911 -0.00009372 0.00000000 0.00003409 0.00000000 0.00477402)
(0.00482988 -0.00009186 0.00000000 0.00003210 0.00000000 0.00463981)
(0.00472977 -0.00008982 0.00000000 0.00003100 0.00000000 0.00447625)
(0.00462136 -0.00008815 0.00000000 0.00003042 0.00000000 0.00432421)
(0.00452520 -0.00008554 0.00000000 0.00002897 0.00000000 0.00417822)
(0.00437373 -0.00008292 0.00000000 0.00002779 0.00000000 0.00402632)
(0.00427575 -0.00008047 0.00000000 0.00002630 0.00000000 0.00391169)
(0.00417815 -0.00007920 0.00000000 0.00002600 0.00000000 0.00380301)
(0.00415548 -0.00008189 0.00000000 0.00002725 0.00000000 0.00374021)
(0.00398567 -0.00007529 0.00000000 0.00002458 0.00000000 0.00359182)
(0.00387276 -0.00007261 0.00000000 0.00002337 0.00000000 0.00348249)
(0.00371587 -0.00006955 0.00000000 0.00002261 0.00000000 0.00335282)
(0.00360500 -0.00006698 0.00000000 0.00002165 0.00000000 0.00325711)
(0.00349599 -0.00006395 0.00000000 0.00002128 0.00000000 0.00319492)
(0.00336951 -0.00006181 0.00000000 0.00002149 0.00000000 0.00312404)
(0.00327627 -0.00005992 0.00000000 0.00002194 0.00000000 0.00310113)
(0.00301049 -0.00005159 0.00000000 0.00002006 0.00000000 0.00300877)
(0.00279126 -0.00004534 0.00000000 0.00001943 0.00000000 0.00297995)
(0.00253859 -0.00003966 0.00000000 0.00002031 0.00000000 0.00300559)
(0.00303293 -0.00006252 0.00000000 0.00004428 0.00000000 0.00420938)
(0.00343813 0.00003099 0.00000000 0.00005231 0.00000000 0.00580537)
(0.00278152 0.00012460 0.00000000 0.00006167 0.00000000 0.00679298)
(0.00240847 0.00065622 0.00000000 0.00019852 0.00000000 0.00547719)
(0.00201987 0.00051078 0.00000000 0.00015742 0.00000000 0.00511021)
(0.00167147 0.00046141 0.00000000 0.00014680 0.00000000 0.00472746)
(0.00099005 0.00033916 0.00000000 0.00013542 0.00000000 0.00392343)
(0.00079002 0.00038546 0.00000000 0.00019071 0.00000000 0.00279935)
(0.00074062 0.00019462 0.00000000 0.00003982 0.00000000 0.00214109)
(0.00042657 0.00016185 0.00000000 0.00006633 0.00000000 0.00218307)
(0.00067020 0.00019597 0.00000000 0.00005964 0.00000000 0.00293254)
(0.00062796 0.00021298 0.00000000 0.00007940 0.00000000 0.00264894)
(0.00008873 0.00008756 0.00000000 0.00006669 0.00000000 0.00130289)
(0.00005458 0.00010719 0.00000000 0.00009686 0.00000000 0.00059133)
(0.00008934 0.00002408 0.00000000 0.00000037 0.00000000 0.00043981)
(-0.00003912 0.00001067 0.00000000 0.00002431 0.00000000 0.00100287)
(-0.00008738 0.00001249 0.00000000 0.00003333 0.00000000 0.00031372)
(-0.00019429 0.00000356 0.00000000 0.00005452 0.00000000 -0.00012697)
(0.00025549 0.00012988 0.00000000 0.00007259 0.00000000 0.00076093)
(0.00008299 0.00011232 0.00000000 0.00009961 0.00000000 0.00051893)
(-0.00018370 0.00007296 0.00000000 0.00007407 0.00000000 -0.00001422)
(0.00005980 -0.00028680 0.00000000 -0.00005651 0.00000000 0.00045418)
(0.00064792 0.00023504 0.00000000 0.00005387 0.00000000 0.00022823)
(0.00109339 0.00004731 0.00000000 0.00000166 0.00000000 0.00020647)
(0.00448006 -0.00001740 0.00000000 0.00000450 0.00000000 0.00156119)
(0.00709014 -0.00006822 0.00000000 0.00001139 0.00000000 0.00229648)
(0.01302994 -0.00018568 0.00000000 0.00004307 0.00000000 0.00398233)
(0.01323605 -0.00019044 0.00000000 0.00004700 0.00000000 0.00427044)
(0.00451202 0.00002784 0.00000000 -0.00002079 0.00000000 0.00111048)
(0.00218291 -0.00010342 0.00000000 0.00002308 0.00000000 0.00230707)
(0.00287386 -0.00038082 0.00000000 -0.00000434 0.00000000 0.00242856)
(0.00406606 -0.00127910 0.00000000 0.00074217 0.00000000 0.00699105)
(0.00699268 -0.00361199 0.00000000 0.00216143 0.00000000 0.01266903)
(0.00707411 -0.00360549 0.00000000 0.00218932 0.00000000 0.01213870)
(0.00619364 -0.00429100 0.00000000 0.00317630 0.00000000 0.00912711)
(0.00886734 -0.00512201 0.00000000 0.00333546 0.00000000 0.01360436)
(0.01085778 -0.00452964 0.00000000 0.00229191 0.00000000 0.01374844)
(0.01231402 -0.00701605 0.00000000 0.00447181 0.00000000 0.01143925)
(0.01220173 -0.00679740 0.00000000 0.00421870 0.00000000 0.01473796)
(0.01257959 -0.00558155 0.00000000 0.00292909 0.00000000 0.01463437)
(0.01382350 -0.00610233 0.00000000 0.00318076 0.00000000 0.01501558)
(0.01444781 -0.00623868 0.00000000 0.00318781 0.00000000 0.01409351)
(0.01543721 -0.00676201 0.00000000 0.00350061 0.00000000 0.01341096)
(0.01731136 -0.00788091 0.00000000 0.00419791 0.00000000 0.01479519)
(0.01659151 -0.00602928 0.00000000 0.00291882 0.00000000 0.01695213)
(0.01772280 -0.00631151 0.00000000 0.00297956 0.00000000 0.01797379)
(0.01916334 -0.00568993 0.00000000 0.00261931 0.00000000 0.01987879)
(0.02035499 -0.00511982 0.00000000 0.00231920 0.00000000 0.02253563)
(0.02138763 -0.00489293 0.00000000 0.00229182 0.00000000 0.02534204)
(0.02421987 -0.00308269 0.00000000 0.00163609 0.00000000 0.02755186)
(0.02700734 -0.00259935 0.00000000 0.00195789 0.00000000 0.03213526)
(0.02594372 -0.00020849 0.00000000 0.00152716 0.00000000 0.03397279)
(0.02599956 -0.00010836 0.00000000 0.00130136 0.00000000 0.03418058)
(0.02765070 -0.00008488 0.00000000 0.00136284 0.00000000 0.03676302)
(0.02850017 -0.00014726 0.00000000 0.00138884 0.00000000 0.03866937)
(0.02890590 -0.00020356 0.00000000 0.00140648 0.00000000 0.03970234)
(0.02997425 -0.00029264 0.00000000 0.00145485 0.00000000 0.04094428)
(0.03138241 -0.00030495 0.00000000 0.00142624 0.00000000 0.04108707)
(0.03166338 -0.00031649 0.00000000 0.00140171 0.00000000 0.04054201)
(0.03190318 -0.00035699 0.00000000 0.00135414 0.00000000 0.04003051)
(0.03197075 -0.00038273 0.00000000 0.00133242 0.00000000 0.03934288)
(0.03216216 -0.00042311 0.00000000 0.00129462 0.00000000 0.03843757)
(0.03188663 -0.00039488 0.00000000 0.00124136 0.00000000 0.03762289)
(0.03127743 -0.00039918 0.00000000 0.00117244 0.00000000 0.03657889)
(0.03032660 -0.00044254 0.00000000 0.00113388 0.00000000 0.03550191)
(0.02952838 -0.00045399 0.00000000 0.00108967 0.00000000 0.03444561)
(0.02893061 -0.00046380 0.00000000 0.00103464 0.00000000 0.03305828)
(0.02811188 -0.00047021 0.00000000 0.00097581 0.00000000 0.03192611)
(0.02726698 -0.00048530 0.00000000 0.00091900 0.00000000 0.03066261)
(0.02664823 -0.00051176 0.00000000 0.00087520 0.00000000 0.02957588)
(0.02601996 -0.00049587 0.00000000 0.00081713 0.00000000 0.02843107)
(0.02537324 -0.00050339 0.00000000 0.00076243 0.00000000 0.02718876)
(0.02472864 -0.00051232 0.00000000 0.00073090 0.00000000 0.02613505)
(0.02418977 -0.00051456 0.00000000 0.00069511 0.00000000 0.02510065)
(0.02366498 -0.00049998 0.00000000 0.00066259 0.00000000 0.02421015)
(0.02278171 -0.00050850 0.00000000 0.00064212 0.00000000 0.02337908)
(0.02214715 -0.00052153 0.00000000 0.00059962 0.00000000 0.02270202)
(0.02177514 -0.00051933 0.00000000 0.00057954 0.00000000 0.02189572)
(0.02121859 -0.00050354 0.00000000 0.00054605 0.00000000 0.02126964)
(0.02048184 -0.00052097 0.00000000 0.00053323 0.00000000 0.02063438)
(0.01999160 -0.00051584 0.00000000 0.00049808 0.00000000 0.01999678)
(0.01955029 -0.00051543 0.00000000 0.00047579 0.00000000 0.01930983)
(0.01903774 -0.00050672 0.00000000 0.00045899 0.00000000 0.01867367)
(0.01848557 -0.00049452 0.00000000 0.00042558 0.00000000 0.01807803)
(0.01781754 -0.00049335 0.00000000 0.00040138 0.00000000 0.01740024)
(0.01733243 -0.00049699 0.00000000 0.00038265 0.00000000 0.01681330)
(0.01701204 -0.00048427 0.00000000 0.00036297 0.00000000 0.01626792)
(0.01656103 -0.00047356 0.00000000 0.00034960 0.00000000 0.01569349)
(0.01612395 -0.00047151 0.00000000 0.00033186 0.00000000 0.01519566)
(0.01566190 -0.00046367 0.00000000 0.00031533 0.00000000 0.01458820)
(0.01532371 -0.00045430 0.00000000 0.00030203 0.00000000 0.01409456)
(0.01497572 -0.00044791 0.00000000 0.00029291 0.00000000 0.01363748)
(0.01472641 -0.00044898 0.00000000 0.00028434 0.00000000 0.01332027)
(0.01429420 -0.00043709 0.00000000 0.00027572 0.00000000 0.01292825)
(0.01397375 -0.00043373 0.00000000 0.00026253 0.00000000 0.01246906)
(0.01370416 -0.00042701 0.00000000 0.00025374 0.00000000 0.01200743)
(0.01328932 -0.00041794 0.00000000 0.00024374 0.00000000 0.01159949)
(0.01288316 -0.00041508 0.00000000 0.00023392 0.00000000 0.01120946)
(0.01253429 -0.00040823 0.00000000 0.00022200 0.00000000 0.01077450)
(0.01227634 -0.00039973 0.00000000 0.00021439 0.00000000 0.01043598)
(0.01202740 -0.00039558 0.00000000 0.00020628 0.00000000 0.01015090)
(0.01182732 -0.00039225 0.00000000 0.00019993 0.00000000 0.00990404)
(0.01159045 -0.00038484 0.00000000 0.00019138 0.00000000 0.00963363)
(0.01139080 -0.00037889 0.00000000 0.00018463 0.00000000 0.00932903)
(0.01112992 -0.00036843 0.00000000 0.00017699 0.00000000 0.00901796)
(0.01090026 -0.00036047 0.00000000 0.00017101 0.00000000 0.00870709)
(0.01065590 -0.00035351 0.00000000 0.00016381 0.00000000 0.00844425)
(0.01043774 -0.00034935 0.00000000 0.00016053 0.00000000 0.00817856)
(0.01023652 -0.00034101 0.00000000 0.00015516 0.00000000 0.00796917)
(0.01003527 -0.00033687 0.00000000 0.00015191 0.00000000 0.00775039)
(0.00980828 -0.00032526 0.00000000 0.00014532 0.00000000 0.00753559)
(0.00953243 -0.00031371 0.00000000 0.00013810 0.00000000 0.00729656)
(0.00927934 -0.00030554 0.00000000 0.00013357 0.00000000 0.00707192)
(0.00904444 -0.00029769 0.00000000 0.00012905 0.00000000 0.00687506)
(0.00879360 -0.00029005 0.00000000 0.00012990 0.00000000 0.00671842)
(0.00847501 -0.00027394 0.00000000 0.00012413 0.00000000 0.00658067)
(0.00811631 -0.00025770 0.00000000 0.00012163 0.00000000 0.00645609)
(0.00769916 -0.00024144 0.00000000 0.00012051 0.00000000 0.00634813)
(0.00720002 -0.00022223 0.00000000 0.00012059 0.00000000 0.00627100)
(0.00652198 -0.00019221 0.00000000 0.00011892 0.00000000 0.00630719)
(0.00663679 -0.00021148 0.00000000 0.00016981 0.00000000 0.00753876)
(0.00732112 0.00005350 0.00000000 0.00020644 0.00000000 0.01024010)
(0.00680521 0.00039597 0.00000000 0.00020586 0.00000000 0.01188601)
(0.00663823 0.00110620 0.00000000 0.00036750 0.00000000 0.01195755)
(0.00615097 0.00125569 0.00000000 0.00039646 0.00000000 0.01191928)
(0.00587085 0.00152076 0.00000000 0.00050185 0.00000000 0.01218664)
(0.00477522 0.00154993 0.00000000 0.00060800 0.00000000 0.01159387)
(0.00448170 0.00190162 0.00000000 0.00085782 0.00000000 0.00991017)
(0.00395837 0.00134958 0.00000000 0.00049782 0.00000000 0.00860193)
(0.00311585 0.00109551 0.00000000 0.00041574 0.00000000 0.00783406)
(0.00268127 0.00096547 0.00000000 0.00037940 0.00000000 0.00731683)
(0.00210467 0.00085312 0.00000000 0.00037618 0.00000000 0.00622477)
(0.00159765 0.00075615 0.00000000 0.00037581 0.00000000 0.00481301)
(0.00127587 0.00082186 0.00000000 0.00051359 0.00000000 0.00312343)
(0.00110222 0.00036521 0.00000000 0.00010272 0.00000000 0.00226569)
(0.00055208 0.00030472 0.00000000 0.00018075 0.00000000 0.00296114)
(0.00036525 0.00030956 0.00000000 0.00022976 0.00000000 0.00186191)
(0.00026118 0.00023679 0.00000000 0.00017679 0.00000000 0.00063011)
(0.00055033 0.00032571 0.00000000 0.00020560 0.00000000 0.00187578)
(0.00038739 0.00036729 0.00000000 0.00028554 0.00000000 0.00156692)
(0.00035376 0.00030353 0.00000000 0.00018116 0.00000000 0.00075188)
(0.00044607 -0.00040023 0.00000000 -0.00007914 0.00000000 0.00110552)
(0.00145676 0.00028897 0.00000000 0.00006389 0.00000000 0.00084139)
(0.00266617 0.00011554 0.00000000 0.00000486 0.00000000 0.00056583)
(0.00757304 -0.00003960 0.00000000 0.00001005 0.00000000 0.00226898)
(0.01115754 -0.00013515 0.00000000 0.00002564 0.00000000 0.00321091)
(0.01866321 -0.00032094 0.00000000 0.00007831 0.00000000 0.00528223)
(0.01946344 -0.00037838 0.00000000 0.00010254 0.00000000 0.00582812)
(0.00819364 -0.00002125 0.00000000 -0.00001699 0.00000000 0.00200247)
(0.00362816 -0.00020537 0.00000000 0.00006473 0.00000000 0.00342110)
(0.00423142 -0.00058447 0.00000000 0.00011493 0.00000000 0.00415790)
(0.00677400 -0.00253682 0.00000000 0.00146560 0.00000000 0.01023791)
(0.01064996 -0.00531788 0.00000000 0.00326595 0.00000000 0.01734317)
(0.01168315 -0.00582247 0.00000000 0.00355933 0.00000000 0.01764178)
(0.01039822 -0.00678273 0.00000000 0.00502177 0.00000000 0.01374830)
(0.01420351 -0.00806652 0.00000000 0.00533237 0.00000000 0.01971266)
(0.01648478 -0.00790435 0.00000000 0.00462614 0.00000000 0.01962744)
(0.01777851 -0.00909855 0.00000000 0.00569407 0.00000000 0.01681222)
(0.01748160 -0.00912096 0.00000000 0.00577045 0.00000000 0.01941155)
(0.01830123 -0.00858222 0.00000000 0.00497035 0.00000000 0.01866290)
(0.01973484 -0.00920493 0.00000000 0.00533756 0.00000000 0.01917507)
(0.02048257 -0.00921159 0.00000000 0.00521540 0.00000000 0.01888544)
(0.02238118 -0.01028680 0.00000000 0.00587394 0.00000000 0.01933615)
(0.02363933 -0.01023751 0.00000000 0.00577624 0.00000000 0.02050198)
(0.02290852 -0.00858513 0.00000000 0.00466692 0.00000000 0.02153566)
(0.02386516 -0.00861131 0.00000000 0.00469923 0.00000000 0.02303058)
(0.02520081 -0.00718233 0.00000000 0.00396642 0.00000000 0.02551057)
(0.02631142 -0.00651525 0.00000000 0.00367749 0.00000000 0.02832469)
(0.02701346 -0.00557585 0.00000000 0.00355508 0.00000000 0.03181841)
(0.02875936 -0.00390979 0.00000000 0.00321421 0.00000000 0.03471394)
(0.03039636 -0.00297722 0.00000000 0.00364667 0.00000000 0.03986957)
(0.03143551 -0.00055895 0.00000000 0.00312447 0.00000000 0.04246286)
(0.03276928 -0.00048489 0.00000000 0.00292279 0.00000000 0.04440234)
(0.03480956 -0.00046547 0.00000000 0.00305501 0.00000000 0.04760200)
(0.03605184 -0.00055781 0.00000000 0.00311603 0.00000000 0.05014345)
(0.03699195 -0.00063036 0.00000000 0.00314748 0.00000000 0.05165723)
(0.03848271 -0.00079522 0.00000000 0.00324727 0.00000000 0.05323515)
(0.04031526 -0.00076945 0.00000000 0.00319130 0.00000000 0.05339999)
(0.04107849 -0.00076719 0.00000000 0.00313983 0.00000000 0.05302109)
(0.04156314 -0.00082340 0.00000000 0.00307113 0.00000000 0.05233572)
(0.04184546 -0.00085420 0.00000000 0.00303090 0.00000000 0.05152033)
(0.04243980 -0.00089796 0.00000000 0.00292924 0.00000000 0.05068361)
(0.04233116 -0.00084399 0.00000000 0.00282322 0.00000000 0.04978892)
(0.04176021 -0.00081800 0.00000000 0.00268680 0.00000000 0.04870270)
(0.04073933 -0.00088033 0.00000000 0.00260336 0.00000000 0.04724885)
(0.03986887 -0.00088955 0.00000000 0.00251251 0.00000000 0.04595012)
(0.03920650 -0.00089195 0.00000000 0.00240357 0.00000000 0.04427225)
(0.03844356 -0.00089522 0.00000000 0.00227175 0.00000000 0.04298915)
(0.03749766 -0.00091151 0.00000000 0.00215507 0.00000000 0.04138015)
(0.03688042 -0.00095276 0.00000000 0.00205935 0.00000000 0.04005531)
(0.03612990 -0.00092089 0.00000000 0.00193528 0.00000000 0.03864727)
(0.03546871 -0.00092409 0.00000000 0.00182173 0.00000000 0.03705620)
(0.03479333 -0.00093581 0.00000000 0.00174887 0.00000000 0.03577888)
(0.03427634 -0.00094899 0.00000000 0.00167233 0.00000000 0.03449865)
(0.03363852 -0.00091566 0.00000000 0.00159837 0.00000000 0.03335511)
(0.03262164 -0.00093091 0.00000000 0.00154362 0.00000000 0.03230649)
(0.03185402 -0.00095684 0.00000000 0.00146242 0.00000000 0.03136592)
(0.03153196 -0.00095234 0.00000000 0.00139029 0.00000000 0.03053133)
(0.03072647 -0.00092689 0.00000000 0.00133298 0.00000000 0.02956744)
(0.02985769 -0.00096115 0.00000000 0.00129549 0.00000000 0.02876550)
(0.02923256 -0.00095597 0.00000000 0.00122180 0.00000000 0.02790273)
(0.02864411 -0.00095269 0.00000000 0.00117322 0.00000000 0.02702993)
(0.02815861 -0.00094484 0.00000000 0.00111555 0.00000000 0.02631161)
(0.02732653 -0.00092122 0.00000000 0.00105865 0.00000000 0.02543342)
(0.02654140 -0.00091965 0.00000000 0.00099670 0.00000000 0.02460960)
(0.02593297 -0.00093303 0.00000000 0.00094826 0.00000000 0.02385833)
(0.02542852 -0.00091714 0.00000000 0.00091913 0.00000000 0.02304854)
(0.02483453 -0.00090065 0.00000000 0.00088493 0.00000000 0.02228497)
(0.02431420 -0.00089884 0.00000000 0.00083802 0.00000000 0.02167354)
(0.02376975 -0.00088796 0.00000000 0.00079510 0.00000000 0.02088454)