/*--------------------------------*- C++ -*----------------------------------*\
  =========                 |
  \\      /  F ield         | OpenFOAM: The Open Source CFD Toolbox
   \\    /   O peration     | Website:  https://openfoam.org
    \\  /    A nd           | Version:  7
     \\/     M anipulation  |
\*---------------------------------------------------------------------------*/
FoamFile
{
    version     2.0;
    format      ascii;
    class       volVectorField;
    location    "0";
    object      U_LES;
}
// * * * * * * * * * * * * * * * * * * * * * * * * * * * * * * * * * * * * * //

dimensions      [0 1 -1 0 0 0 0];

internalField   nonuniform List<vector>
15600
(
(0.09130454 -0.00044458 0.00000000)
(0.09829896 -0.00070142 0.00000000)
(0.00661533 0.00011953 0.00000000)
(0.00009088 -0.00027037 0.00000000)
(-0.00045605 -0.00038283 0.00000000)
(-0.00574969 0.00133236 0.00000000)
(-0.00687383 0.00426102 0.00000000)
(-0.00776994 0.00450756 0.00000000)
(-0.01064565 0.00761716 0.00000000)
(-0.01536042 0.00881388 0.00000000)
(-0.01224132 0.00534139 0.00000000)
(-0.01519189 0.01108393 0.00000000)
(-0.01978160 0.01251040 0.00000000)
(-0.01679212 0.00790309 0.00000000)
(-0.02111954 0.00824383 0.00000000)
(-0.02446913 0.00741211 0.00000000)
(-0.02286665 0.00751473 0.00000000)
(-0.02854481 0.01611607 0.00000000)
(-0.03585738 0.01456838 0.00000000)
(-0.03786102 0.00999443 0.00000000)
(-0.04284371 0.01335784 0.00000000)
(-0.04792867 0.01269337 0.00000000)
(-0.05699168 0.01025207 0.00000000)
(-0.05069205 0.00376261 0.00000000)
(-0.06193048 0.00195272 0.00000000)
(-0.06237185 0.00013189 0.00000000)
(-0.04115083 -0.00001586 0.00000000)
(-0.04086570 -0.00000810 0.00000000)
(-0.03856898 -0.00002400 0.00000000)
(-0.03591044 -0.00002327 0.00000000)
(-0.03279729 -0.00004143 0.00000000)
(-0.02846597 -0.00005192 0.00000000)
(-0.02442185 -0.00003677 0.00000000)
(-0.02032693 -0.00002964 0.00000000)
(-0.01713677 -0.00004222 0.00000000)
(-0.01343242 -0.00004211 0.00000000)
(-0.01008401 -0.00003864 0.00000000)
(-0.00729293 -0.00002457 0.00000000)
(-0.00430605 -0.00003323 0.00000000)
(-0.00081628 -0.00004203 0.00000000)
(0.00238962 -0.00003140 0.00000000)
(0.00507646 -0.00002642 0.00000000)
(0.00780531 -0.00002463 0.00000000)
(0.01002873 -0.00002586 0.00000000)
(0.01219228 -0.00002272 0.00000000)
(0.01421995 -0.00002126 0.00000000)
(0.01609076 -0.00001990 0.00000000)
(0.01767827 -0.00001236 0.00000000)
(0.01898844 -0.00001396 0.00000000)
(0.02052546 -0.00001295 0.00000000)
(0.02194217 -0.00001395 0.00000000)
(0.02306694 -0.00000995 0.00000000)
(0.02416377 -0.00001252 0.00000000)
(0.02534116 -0.00001172 0.00000000)
(0.02646448 -0.00000998 0.00000000)
(0.02749808 -0.00001080 0.00000000)
(0.02848040 -0.00000821 0.00000000)
(0.02936399 -0.00000843 0.00000000)
(0.03022029 -0.00000825 0.00000000)
(0.03086178 -0.00000485 0.00000000)
(0.03142963 -0.00000681 0.00000000)
(0.03203164 -0.00000709 0.00000000)
(0.03266101 -0.00000497 0.00000000)
(0.03319315 -0.00000389 0.00000000)
(0.03353279 -0.00000439 0.00000000)
(0.03391194 -0.00000314 0.00000000)
(0.03421348 -0.00000339 0.00000000)
(0.03465820 -0.00000592 0.00000000)
(0.03507135 -0.00000334 0.00000000)
(0.03532559 -0.00000187 0.00000000)
(0.03562309 -0.00000352 0.00000000)
(0.03593073 -0.00000277 0.00000000)
(0.03611381 -0.00000094 0.00000000)
(0.03620284 -0.00000114 0.00000000)
(0.03636215 -0.00000107 0.00000000)
(0.03643715 -0.00000100 0.00000000)
(0.03650464 -0.00000015 0.00000000)
(0.03646548 0.00000093 0.00000000)
(0.03641851 0.00000145 0.00000000)
(0.03620603 0.00000192 0.00000000)
(0.03605578 0.00000191 0.00000000)
(0.03578805 0.00000338 0.00000000)
(0.03541854 0.00000445 0.00000000)
(0.03498126 0.00000514 0.00000000)
(0.03443507 0.00000589 0.00000000)
(0.03374813 0.00000946 0.00000000)
(0.03289464 0.00001136 0.00000000)
(0.03176229 0.00001303 0.00000000)
(0.03039110 0.00001362 0.00000000)
(0.02869442 0.00001786 0.00000000)
(0.02670612 0.00003029 0.00000000)
(0.02398766 0.00003384 0.00000000)
(0.02053304 0.00003398 0.00000000)
(0.01646716 0.00004931 0.00000000)
(0.01893523 0.00015865 0.00000000)
(0.02084477 0.00058638 0.00000000)
(0.02291040 0.00095522 0.00000000)
(0.01167059 0.00594058 0.00000000)
(0.01284437 0.00507831 0.00000000)
(0.01310667 0.00573761 0.00000000)
(0.01002103 0.00613080 0.00000000)
(0.00956243 0.00588452 0.00000000)
(0.01898372 0.00339704 0.00000000)
(0.00455798 0.00353232 0.00000000)
(0.00529141 0.00457645 0.00000000)
(0.01262976 0.00600241 0.00000000)
(0.00913166 0.00558375 0.00000000)
(-0.00538954 -0.00206619 0.00000000)
(-0.01130911 -0.00717876 0.00000000)
(0.00115042 0.00324936 0.00000000)
(-0.00884648 -0.00596328 0.00000000)
(0.00008185 0.00666298 0.00000000)
(-0.00444549 -0.00304817 0.00000000)
(-0.00024875 -0.00053215 0.00000000)
(-0.02382619 -0.00064062 0.00000000)
(0.02809024 0.00404909 0.00000000)
(0.04285287 0.01114064 0.00000000)
(0.00491831 0.00050856 0.00000000)
(0.07407966 0.00069475 0.00000000)
(0.07670045 0.00004815 0.00000000)
(0.12210172 -0.00071906 0.00000000)
(0.13460757 -0.00108820 0.00000000)
(0.03277441 -0.00006645 0.00000000)
(0.00258775 -0.00070579 0.00000000)
(-0.00446329 0.00076755 0.00000000)
(-0.00845689 0.00277556 0.00000000)
(-0.01320232 0.00630242 0.00000000)
(-0.01546232 0.00819279 0.00000000)
(-0.02097712 0.01482006 0.00000000)
(-0.02610539 0.01524095 0.00000000)
(-0.02718959 0.01138743 0.00000000)
(-0.03074970 0.02093810 0.00000000)
(-0.03828116 0.02220306 0.00000000)
(-0.03984619 0.01703233 0.00000000)
(-0.04817465 0.01891730 0.00000000)
(-0.05361920 0.02012950 0.00000000)
(-0.06343545 0.02506935 0.00000000)
(-0.07446049 0.03451224 0.00000000)
(-0.08399574 0.03213944 0.00000000)
(-0.09475269 0.03060384 0.00000000)
(-0.10261136 0.03262206 0.00000000)
(-0.10842291 0.03133923 0.00000000)
(-0.11656402 0.02788744 0.00000000)
(-0.12474496 0.01414476 0.00000000)
(-0.14019782 0.01157117 0.00000000)
(-0.12453515 0.00093646 0.00000000)
(-0.11255314 -0.00002550 0.00000000)
(-0.11020292 -0.00013614 0.00000000)
(-0.10358208 -0.00022637 0.00000000)
(-0.09603513 -0.00020869 0.00000000)
(-0.08714952 -0.00032678 0.00000000)
(-0.07427731 -0.00041291 0.00000000)
(-0.06353351 -0.00032506 0.00000000)
(-0.05238827 -0.00024819 0.00000000)
(-0.04366056 -0.00029593 0.00000000)
(-0.03364365 -0.00031378 0.00000000)
(-0.02373042 -0.00029373 0.00000000)
(-0.01595068 -0.00021372 0.00000000)
(-0.00753084 -0.00026565 0.00000000)
(0.00207844 -0.00031503 0.00000000)
(0.01083152 -0.00023889 0.00000000)
(0.01868410 -0.00023100 0.00000000)
(0.02634747 -0.00020971 0.00000000)
(0.03268938 -0.00019937 0.00000000)
(0.03879284 -0.00018286 0.00000000)
(0.04445660 -0.00016015 0.00000000)
(0.04975368 -0.00016369 0.00000000)
(0.05432212 -0.00011602 0.00000000)
(0.05813689 -0.00011129 0.00000000)
(0.06261266 -0.00010692 0.00000000)
(0.06658317 -0.00012043 0.00000000)
(0.06998256 -0.00008714 0.00000000)
(0.07329722 -0.00010243 0.00000000)
(0.07669812 -0.00009675 0.00000000)
(0.07994605 -0.00008723 0.00000000)
(0.08292023 -0.00008690 0.00000000)
(0.08575520 -0.00007814 0.00000000)
(0.08841438 -0.00007185 0.00000000)
(0.09094750 -0.00006603 0.00000000)
(0.09275986 -0.00004484 0.00000000)
(0.09443971 -0.00005945 0.00000000)
(0.09636609 -0.00005575 0.00000000)
(0.09814309 -0.00004443 0.00000000)
(0.09974327 -0.00003847 0.00000000)
(0.10081422 -0.00003766 0.00000000)
(0.10195813 -0.00003175 0.00000000)
(0.10289302 -0.00003005 0.00000000)
(0.10422538 -0.00004429 0.00000000)
(0.10541347 -0.00002962 0.00000000)
(0.10614423 -0.00001992 0.00000000)
(0.10708753 -0.00003139 0.00000000)
(0.10799623 -0.00002362 0.00000000)
(0.10872609 -0.00000965 0.00000000)
(0.10895247 -0.00001156 0.00000000)
(0.10945589 -0.00001197 0.00000000)
(0.10969985 -0.00000829 0.00000000)
(0.10999718 -0.00000244 0.00000000)
(0.10992435 0.00000514 0.00000000)
(0.10971342 0.00000889 0.00000000)
(0.10932465 0.00001340 0.00000000)
(0.10883028 0.00001662 0.00000000)
(0.10816358 0.00002645 0.00000000)
(0.10721040 0.00003253 0.00000000)
(0.10597999 0.00004201 0.00000000)
(0.10454398 0.00004947 0.00000000)
(0.10270456 0.00006701 0.00000000)
(0.10024732 0.00008225 0.00000000)
(0.09720931 0.00010559 0.00000000)
(0.09344565 0.00012496 0.00000000)
(0.08875871 0.00016085 0.00000000)
(0.08293444 0.00020867 0.00000000)
(0.07533341 0.00025081 0.00000000)
(0.06600368 0.00030851 0.00000000)
(0.05432726 0.00040179 0.00000000)
(0.05005472 0.00085843 0.00000000)
(0.05593830 0.00311959 0.00000000)
(0.06209761 0.00618614 0.00000000)
(0.06837694 0.02124483 0.00000000)
(0.07335467 0.02044614 0.00000000)
(0.07724269 0.02247861 0.00000000)
(0.06715587 0.02955497 0.00000000)
(0.06686146 0.03554864 0.00000000)
(0.07038361 0.02343872 0.00000000)
(0.05591898 0.02539914 0.00000000)
(0.06922595 0.02969024 0.00000000)
(0.07107939 0.03398067 0.00000000)
(0.05577523 0.03401676 0.00000000)
(0.04263629 0.03072298 0.00000000)
(0.02362227 0.00916191 0.00000000)
(0.04010379 0.02596247 0.00000000)
(0.02128107 0.01743497 0.00000000)
(-0.00165206 0.00904844 0.00000000)
(0.03709771 0.02333624 0.00000000)
(0.03979795 0.03229073 0.00000000)
(0.00345058 0.01378627 0.00000000)
(0.06505237 0.00269076 0.00000000)
(0.08468242 0.02127124 0.00000000)
(0.04666580 0.00302848 0.00000000)
(0.10717852 0.00131013 0.00000000)
(0.10636766 0.00006190 0.00000000)
(0.15857864 -0.00111671 0.00000000)
(0.17680444 -0.00163801 0.00000000)
(0.07013399 -0.00042086 0.00000000)
(0.00857139 -0.00156374 0.00000000)
(-0.00867582 0.00186657 0.00000000)
(-0.01210608 0.00461739 0.00000000)
(-0.02127174 0.00883017 0.00000000)
(-0.02599423 0.01255366 0.00000000)
(-0.03294658 0.02258935 0.00000000)
(-0.03998421 0.02226590 0.00000000)
(-0.04567063 0.01970441 0.00000000)
(-0.05049866 0.03192739 0.00000000)
(-0.05968085 0.03242266 0.00000000)
(-0.06513653 0.02852511 0.00000000)
(-0.07574710 0.03408085 0.00000000)
(-0.08559683 0.03905926 0.00000000)
(-0.10216864 0.04800671 0.00000000)
(-0.11816493 0.05796364 0.00000000)
(-0.12565811 0.04864432 0.00000000)
(-0.14018316 0.05227184 0.00000000)
(-0.14883083 0.04871717 0.00000000)
(-0.15797644 0.04415800 0.00000000)
(-0.16767351 0.04111374 0.00000000)
(-0.17944303 0.02496812 0.00000000)
(-0.18619217 0.01868803 0.00000000)
(-0.16819991 0.00169197 0.00000000)
(-0.16037284 -0.00004742 0.00000000)
(-0.15460718 -0.00048263 0.00000000)
(-0.14390515 -0.00072719 0.00000000)
(-0.13213591 -0.00067945 0.00000000)
(-0.11838191 -0.00101203 0.00000000)
(-0.10096038 -0.00119873 0.00000000)
(-0.08404869 -0.00101781 0.00000000)
(-0.06802659 -0.00077299 0.00000000)
(-0.05532119 -0.00088370 0.00000000)
(-0.03994844 -0.00097683 0.00000000)
(-0.02614032 -0.00086534 0.00000000)
(-0.01377173 -0.00069600 0.00000000)
(-0.00137820 -0.00080789 0.00000000)
(0.01265236 -0.00095747 0.00000000)
(0.02556669 -0.00075830 0.00000000)
(0.03725152 -0.00072302 0.00000000)
(0.04852658 -0.00065572 0.00000000)
(0.05822985 -0.00061338 0.00000000)
(0.06739351 -0.00055881 0.00000000)
(0.07574720 -0.00048830 0.00000000)
(0.08381010 -0.00050877 0.00000000)
(0.09085344 -0.00037779 0.00000000)
(0.09715695 -0.00036631 0.00000000)
(0.10381179 -0.00035337 0.00000000)
(0.11010273 -0.00037724 0.00000000)
(0.11525719 -0.00030067 0.00000000)
(0.12083155 -0.00032815 0.00000000)
(0.12612162 -0.00030743 0.00000000)
(0.13127223 -0.00028121 0.00000000)
(0.13597588 -0.00028080 0.00000000)
(0.14017566 -0.00025668 0.00000000)
(0.14475172 -0.00023336 0.00000000)
(0.14859332 -0.00021768 0.00000000)
(0.15172203 -0.00014911 0.00000000)
(0.15482576 -0.00018328 0.00000000)
(0.15774374 -0.00017692 0.00000000)
(0.16063429 -0.00014986 0.00000000)
(0.16311828 -0.00012889 0.00000000)
(0.16529081 -0.00012216 0.00000000)
(0.16716964 -0.00010602 0.00000000)
(0.16911038 -0.00009817 0.00000000)
(0.17102024 -0.00013636 0.00000000)
(0.17305324 -0.00009576 0.00000000)
(0.17448180 -0.00006823 0.00000000)
(0.17585968 -0.00010023 0.00000000)
(0.17746465 -0.00007872 0.00000000)
(0.17849965 -0.00003725 0.00000000)
(0.17922462 -0.00004104 0.00000000)
(0.18007062 -0.00004197 0.00000000)
(0.18074732 -0.00002915 0.00000000)
(0.18127503 -0.00001214 0.00000000)
(0.18134547 0.00001051 0.00000000)
(0.18123299 0.00002296 0.00000000)
(0.18080393 0.00003731 0.00000000)
(0.18025323 0.00004936 0.00000000)
(0.17918697 0.00007685 0.00000000)
(0.17810394 0.00009513 0.00000000)
(0.17643048 0.00012157 0.00000000)
(0.17451490 0.00014942 0.00000000)
(0.17191523 0.00019941 0.00000000)
(0.16854252 0.00024840 0.00000000)
(0.16421718 0.00031822 0.00000000)
(0.15861713 0.00038430 0.00000000)
(0.15198436 0.00049168 0.00000000)
(0.14334765 0.00062060 0.00000000)
(0.13234581 0.00077446 0.00000000)
(0.11854798 0.00097087 0.00000000)
(0.10109750 0.00124607 0.00000000)
(0.09053791 0.00214222 0.00000000)
(0.09785413 0.00691117 0.00000000)
(0.11016169 0.01368105 0.00000000)
(0.12933312 0.03101971 0.00000000)
(0.14053129 0.03671201 0.00000000)
(0.15324327 0.04800929 0.00000000)
(0.15605351 0.06350551 0.00000000)
(0.16188046 0.08018821 0.00000000)
(0.17224669 0.06392277 0.00000000)
(0.16186446 0.06613802 0.00000000)
(0.16146172 0.07104323 0.00000000)
(0.15352819 0.07678727 0.00000000)
(0.14104912 0.07883492 0.00000000)
(0.12812059 0.08529148 0.00000000)
(0.12370109 0.04657475 0.00000000)
(0.10949110 0.06669907 0.00000000)
(0.08745412 0.06418736 0.00000000)
(0.02810563 0.02501122 0.00000000)
(0.09648689 0.06536397 0.00000000)
(0.10388396 0.08099751 0.00000000)
(0.05555613 0.03993862 0.00000000)
(0.12138165 0.00728458 0.00000000)
(0.13737187 0.02428271 0.00000000)
(0.10511949 0.00689515 0.00000000)
(0.14918970 0.00218199 0.00000000)
(0.14302117 0.00007886 0.00000000)
(0.20110659 -0.00164211 0.00000000)
(0.22430341 -0.00244869 0.00000000)
(0.11733537 -0.00101958 0.00000000)
(0.01715641 -0.00286405 0.00000000)
(-0.01226681 0.00220065 0.00000000)
(-0.01677707 0.00696461 0.00000000)
(-0.03004492 0.01194959 0.00000000)
(-0.03844106 0.01757050 0.00000000)
(-0.04465483 0.03014666 0.00000000)
(-0.05527564 0.02960186 0.00000000)
(-0.06287316 0.03031997 0.00000000)
(-0.06985344 0.04013144 0.00000000)
(-0.07714439 0.04052430 0.00000000)
(-0.08619350 0.04099505 0.00000000)
(-0.09894782 0.04830116 0.00000000)
(-0.11277827 0.05424653 0.00000000)
(-0.13328330 0.06673336 0.00000000)
(-0.14942198 0.07160511 0.00000000)
(-0.15773451 0.06448963 0.00000000)
(-0.17388529 0.06750669 0.00000000)
(-0.18384120 0.05866912 0.00000000)
(-0.19369258 0.05407433 0.00000000)
(-0.20127606 0.04619510 0.00000000)
(-0.20993535 0.03133779 0.00000000)
(-0.21158679 0.02056926 0.00000000)
(-0.19913593 0.00168251 0.00000000)
(-0.19216061 -0.00027214 0.00000000)
(-0.18327552 -0.00099725 0.00000000)
(-0.16954116 -0.00138442 0.00000000)
(-0.15448019 -0.00134594 0.00000000)
(-0.13700908 -0.00191145 0.00000000)
(-0.11595636 -0.00220802 0.00000000)
(-0.09537173 -0.00193054 0.00000000)
(-0.07584789 -0.00147413 0.00000000)
(-0.05977393 -0.00166491 0.00000000)
(-0.04134086 -0.00182420 0.00000000)
(-0.02415355 -0.00161871 0.00000000)
(-0.00873506 -0.00137417 0.00000000)
(0.00662012 -0.00150325 0.00000000)
(0.02349708 -0.00175350 0.00000000)
(0.03934194 -0.00144341 0.00000000)
(0.05392763 -0.00137439 0.00000000)
(0.06777303 -0.00124545 0.00000000)
(0.08010497 -0.00115772 0.00000000)
(0.09161016 -0.00105305 0.00000000)
(0.10195559 -0.00093954 0.00000000)
(0.11207551 -0.00096194 0.00000000)
(0.12118067 -0.00075129 0.00000000)
(0.12951159 -0.00073265 0.00000000)
(0.13819175 -0.00069751 0.00000000)
(0.14589813 -0.00072488 0.00000000)
(0.15331691 -0.00061347 0.00000000)
(0.16031677 -0.00064692 0.00000000)
(0.16745465 -0.00059824 0.00000000)
(0.17405693 -0.00054944 0.00000000)
(0.18012132 -0.00055331 0.00000000)
(0.18615126 -0.00050990 0.00000000)
(0.19161447 -0.00046890 0.00000000)
(0.19707406 -0.00043344 0.00000000)
(0.20162703 -0.00030703 0.00000000)
(0.20533206 -0.00036099 0.00000000)
(0.20925142 -0.00035009 0.00000000)
(0.21343972 -0.00031499 0.00000000)
(0.21704061 -0.00026763 0.00000000)
(0.22015661 -0.00024672 0.00000000)
(0.22291021 -0.00021892 0.00000000)
(0.22542482 -0.00020654 0.00000000)
(0.22826508 -0.00026176 0.00000000)
(0.23096195 -0.00019350 0.00000000)
(0.23304103 -0.00015147 0.00000000)
(0.23523257 -0.00020204 0.00000000)
(0.23747706 -0.00016591 0.00000000)
(0.23891484 -0.00009063 0.00000000)
(0.24040901 -0.00009135 0.00000000)
(0.24181048 -0.00009321 0.00000000)
(0.24292210 -0.00006857 0.00000000)
(0.24381814 -0.00003700 0.00000000)
(0.24439507 0.00000622 0.00000000)
(0.24445024 0.00003029 0.00000000)
(0.24407830 0.00005614 0.00000000)
(0.24376413 0.00008106 0.00000000)
(0.24314231 0.00013188 0.00000000)
(0.24168426 0.00016750 0.00000000)
(0.24013095 0.00021632 0.00000000)
(0.23789464 0.00026584 0.00000000)
(0.23499430 0.00035690 0.00000000)
(0.23122178 0.00045457 0.00000000)
(0.22606958 0.00058339 0.00000000)
(0.21993528 0.00070799 0.00000000)
(0.21179305 0.00090836 0.00000000)
(0.20156867 0.00115634 0.00000000)
(0.18844361 0.00144869 0.00000000)
(0.17186086 0.00182161 0.00000000)
(0.15046034 0.00234720 0.00000000)
(0.13487460 0.00383097 0.00000000)
(0.14095151 0.01068413 0.00000000)
(0.15797908 0.02112730 0.00000000)
(0.18059814 0.03977009 0.00000000)
(0.19616893 0.05153798 0.00000000)
(0.21509818 0.06799955 0.00000000)
(0.22637089 0.08618773 0.00000000)
(0.24651699 0.10946703 0.00000000)
(0.26073525 0.11012281 0.00000000)
(0.26265534 0.11533491 0.00000000)
(0.26438836 0.12036972 0.00000000)
(0.26686276 0.12783729 0.00000000)
(0.25618583 0.13217555 0.00000000)
(0.24733315 0.15508016 0.00000000)
(0.23024708 0.10528685 0.00000000)
(0.21499422 0.11481892 0.00000000)
(0.18663559 0.13053218 0.00000000)
(0.12142925 0.07385661 0.00000000)
(0.17741067 0.12105559 0.00000000)
(0.18948413 0.13986657 0.00000000)
(0.16211760 0.07669962 0.00000000)
(0.19111731 0.02910949 0.00000000)
(0.20771944 0.02626071 0.00000000)
(0.18002096 0.01228650 0.00000000)
(0.20288947 0.00341275 0.00000000)
(0.18552346 0.00012395 0.00000000)
(0.24937893 -0.00226091 0.00000000)
(0.27451276 -0.00334122 0.00000000)
(0.17249592 -0.00196144 0.00000000)
(0.03105764 -0.00449446 0.00000000)
(-0.01635323 0.00209689 0.00000000)
(-0.02230086 0.00984065 0.00000000)
(-0.03831834 0.01626773 0.00000000)
(-0.05094477 0.02300477 0.00000000)
(-0.05727208 0.03957426 0.00000000)
(-0.06841620 0.03705644 0.00000000)
(-0.07798045 0.03897017 0.00000000)
(-0.08718814 0.04848953 0.00000000)
(-0.09334685 0.04876387 0.00000000)
(-0.10521076 0.05277165 0.00000000)
(-0.11916055 0.05981740 0.00000000)
(-0.13573040 0.06777207 0.00000000)
(-0.15578656 0.07841928 0.00000000)
(-0.17208771 0.08195520 0.00000000)
(-0.18434020 0.07835649 0.00000000)
(-0.20113361 0.07886292 0.00000000)
(-0.21165277 0.06839484 0.00000000)
(-0.22040028 0.06005705 0.00000000)
(-0.22697307 0.05119979 0.00000000)
(-0.23228131 0.03593031 0.00000000)
(-0.22925014 0.02164272 0.00000000)
(-0.21974332 0.00218879 0.00000000)
(-0.21301632 -0.00060480 0.00000000)
(-0.20115952 -0.00169424 0.00000000)
(-0.18498262 -0.00220697 0.00000000)
(-0.16729404 -0.00220434 0.00000000)
(-0.14717781 -0.00302599 0.00000000)
(-0.12356802 -0.00341001 0.00000000)
(-0.10055033 -0.00306356 0.00000000)
(-0.07886537 -0.00234411 0.00000000)
(-0.06021580 -0.00262438 0.00000000)
(-0.03963033 -0.00285129 0.00000000)
(-0.02005292 -0.00254542 0.00000000)
(-0.00238623 -0.00223239 0.00000000)
(0.01508566 -0.00235171 0.00000000)
(0.03378757 -0.00270497 0.00000000)
(0.05171112 -0.00229161 0.00000000)
(0.06828240 -0.00218107 0.00000000)
(0.08403737 -0.00197246 0.00000000)
(0.09827012 -0.00183331 0.00000000)
(0.11148330 -0.00166159 0.00000000)
(0.12317541 -0.00150215 0.00000000)
(0.13478034 -0.00152445 0.00000000)
(0.14543661 -0.00123792 0.00000000)
(0.15544051 -0.00121571 0.00000000)
(0.16568494 -0.00114223 0.00000000)
(0.17470559 -0.00116629 0.00000000)
(0.18311868 -0.00103863 0.00000000)
(0.19179934 -0.00106006 0.00000000)
(0.20030697 -0.00097822 0.00000000)
(0.20788837 -0.00089524 0.00000000)
(0.21529445 -0.00090825 0.00000000)
(0.22214767 -0.00085095 0.00000000)
(0.22909722 -0.00078144 0.00000000)
(0.23530447 -0.00072261 0.00000000)
(0.24090133 -0.00053805 0.00000000)
(0.24592857 -0.00059556 0.00000000)
(0.25089911 -0.00057975 0.00000000)
(0.25582630 -0.00054553 0.00000000)
(0.26041932 -0.00046440 0.00000000)
(0.26439836 -0.00042092 0.00000000)
(0.26786806 -0.00037823 0.00000000)
(0.27131551 -0.00035986 0.00000000)
(0.27493373 -0.00042607 0.00000000)
(0.27790568 -0.00033183 0.00000000)
(0.28093546 -0.00027452 0.00000000)
(0.28385539 -0.00034126 0.00000000)
(0.28655726 -0.00028842 0.00000000)
(0.28896604 -0.00017692 0.00000000)
(0.29075140 -0.00017163 0.00000000)
(0.29262859 -0.00017146 0.00000000)
(0.29410825 -0.00013303 0.00000000)
(0.29536700 -0.00008444 0.00000000)
(0.29622375 -0.00001735 0.00000000)
(0.29688731 0.00002000 0.00000000)
(0.29730763 0.00006217 0.00000000)
(0.29705617 0.00010607 0.00000000)
(0.29619184 0.00018203 0.00000000)
(0.29532984 0.00023904 0.00000000)
(0.29361683 0.00031461 0.00000000)
(0.29156251 0.00038984 0.00000000)
(0.28893702 0.00052879 0.00000000)
(0.28524190 0.00068719 0.00000000)
(0.27995651 0.00088259 0.00000000)
(0.27331997 0.00108628 0.00000000)
(0.26498142 0.00139440 0.00000000)
(0.25397012 0.00178510 0.00000000)
(0.23994854 0.00224763 0.00000000)
(0.22182067 0.00284549 0.00000000)
(0.19849632 0.00367680 0.00000000)
(0.17934063 0.00568804 0.00000000)
(0.18185598 0.01366805 0.00000000)
(0.19998196 0.02628867 0.00000000)
(0.22144172 0.04579520 0.00000000)
(0.24113833 0.06166512 0.00000000)
(0.26154253 0.08169337 0.00000000)
(0.27924798 0.10576028 0.00000000)
(0.30546062 0.12601054 0.00000000)
(0.32518791 0.14487972 0.00000000)
(0.33609683 0.15873414 0.00000000)
(0.34719153 0.16700526 0.00000000)
(0.35661003 0.17622265 0.00000000)
(0.36059356 0.18229570 0.00000000)
(0.36485587 0.21576970 0.00000000)
(0.34003425 0.17277350 0.00000000)
(0.31078047 0.17132970 0.00000000)
(0.30369960 0.19580639 0.00000000)
(0.26585036 0.13941309 0.00000000)
(0.28277848 0.18721262 0.00000000)
(0.28894263 0.19683114 0.00000000)
(0.28861440 0.12364822 0.00000000)
(0.28327324 0.06760770 0.00000000)
(0.30987073 0.04179078 0.00000000)
(0.27105041 0.01940685 0.00000000)
(0.26341938 0.00510922 0.00000000)
(0.23468709 0.00016395 0.00000000)
(0.30267049 -0.00290531 0.00000000)
(0.32890483 -0.00438575 0.00000000)
(0.23258917 -0.00340407 0.00000000)
(0.05153939 -0.00652380 0.00000000)
(-0.01963537 0.00296410 0.00000000)
(-0.02814901 0.01318680 0.00000000)
(-0.04633717 0.02081254 0.00000000)
(-0.06118745 0.02851007 0.00000000)
(-0.07031100 0.04882326 0.00000000)
(-0.08137811 0.04467804 0.00000000)
(-0.09133655 0.04824628 0.00000000)
(-0.10290946 0.05740642 0.00000000)
(-0.10888076 0.05737446 0.00000000)
(-0.12334090 0.06427777 0.00000000)
(-0.13776157 0.07073817 0.00000000)
(-0.15408104 0.07817732 0.00000000)
(-0.17344440 0.08785782 0.00000000)
(-0.19086700 0.09072661 0.00000000)
(-0.20669698 0.08917490 0.00000000)
(-0.22006543 0.08665070 0.00000000)
(-0.23073582 0.07540919 0.00000000)
(-0.23913159 0.06518974 0.00000000)
(-0.24339655 0.05476027 0.00000000)
(-0.24762311 0.03819457 0.00000000)
(-0.24201220 0.02193479 0.00000000)
(-0.23400470 0.00228919 0.00000000)
(-0.22600239 -0.00114275 0.00000000)
(-0.21208121 -0.00253608 0.00000000)
(-0.19403437 -0.00314969 0.00000000)
(-0.17429715 -0.00321326 0.00000000)
(-0.15207300 -0.00430587 0.00000000)
(-0.12697389 -0.00474084 0.00000000)
(-0.10204570 -0.00436993 0.00000000)
(-0.07885292 -0.00336671 0.00000000)
(-0.05824125 -0.00372771 0.00000000)
(-0.03622764 -0.00400635 0.00000000)
(-0.01495026 -0.00359672 0.00000000)
(0.00442989 -0.00322918 0.00000000)
(0.02347723 -0.00331638 0.00000000)
(0.04336962 -0.00376706 0.00000000)
(0.06274047 -0.00326989 0.00000000)
(0.08078951 -0.00309940 0.00000000)
(0.09763176 -0.00280291 0.00000000)
(0.11330049 -0.00262075 0.00000000)
(0.12780398 -0.00235908 0.00000000)
(0.14063996 -0.00214552 0.00000000)
(0.15323170 -0.00217222 0.00000000)
(0.16500575 -0.00181703 0.00000000)
(0.17630711 -0.00179805 0.00000000)
(0.18756137 -0.00167371 0.00000000)
(0.19755642 -0.00168328 0.00000000)
(0.20730523 -0.00154453 0.00000000)
(0.21691187 -0.00155050 0.00000000)
(0.22649548 -0.00143764 0.00000000)
(0.23512326 -0.00130011 0.00000000)
(0.24319008 -0.00132676 0.00000000)
(0.25087272 -0.00125733 0.00000000)
(0.25846602 -0.00116408 0.00000000)
(0.26581586 -0.00107055 0.00000000)
(0.27223094 -0.00083360 0.00000000)
(0.27784145 -0.00087882 0.00000000)
(0.28355754 -0.00086509 0.00000000)
(0.28937698 -0.00083355 0.00000000)
(0.29471168 -0.00071671 0.00000000)
(0.29943453 -0.00064116 0.00000000)
(0.30377486 -0.00058041 0.00000000)
(0.30774638 -0.00055798 0.00000000)
(0.31180725 -0.00062780 0.00000000)
(0.31557407 -0.00050807 0.00000000)
(0.31893640 -0.00043690 0.00000000)
(0.32239870 -0.00051530 0.00000000)
(0.32572638 -0.00044296 0.00000000)
(0.32862189 -0.00030154 0.00000000)
(0.33101724 -0.00028294 0.00000000)
(0.33314503 -0.00027699 0.00000000)
(0.33528857 -0.00022548 0.00000000)
(0.33703054 -0.00015776 0.00000000)
(0.33841530 -0.00006318 0.00000000)
(0.33925397 -0.00001326 0.00000000)
(0.33987334 0.00004713 0.00000000)
(0.34019180 0.00011607 0.00000000)
(0.33997036 0.00021866 0.00000000)
(0.33912056 0.00030119 0.00000000)
(0.33795692 0.00040404 0.00000000)
(0.33628516 0.00050679 0.00000000)
(0.33378300 0.00069717 0.00000000)
(0.32986310 0.00092528 0.00000000)
(0.32500744 0.00119205 0.00000000)
(0.31860776 0.00148410 0.00000000)
(0.31018101 0.00190804 0.00000000)
(0.29944150 0.00245371 0.00000000)
(0.28510175 0.00311337 0.00000000)
(0.26663309 0.00395752 0.00000000)
(0.24270509 0.00513463 0.00000000)
(0.22125140 0.00768442 0.00000000)
(0.21972532 0.01647425 0.00000000)
(0.23566344 0.03080365 0.00000000)
(0.25690183 0.05068882 0.00000000)
(0.27807997 0.07060716 0.00000000)
(0.29951684 0.09238180 0.00000000)
(0.32219955 0.12005055 0.00000000)
(0.34607613 0.14008705 0.00000000)
(0.37400278 0.16815500 0.00000000)
(0.39741232 0.19114252 0.00000000)
(0.41498020 0.20322165 0.00000000)
(0.42235647 0.21208681 0.00000000)
(0.43261487 0.21337343 0.00000000)
(0.45451947 0.25261976 0.00000000)
(0.44773192 0.22845019 0.00000000)
(0.42381846 0.22815239 0.00000000)
(0.40300318 0.25137201 0.00000000)
(0.42825380 0.21576838 0.00000000)
(0.41868270 0.26597917 0.00000000)
(0.43234866 0.26942187 0.00000000)
(0.45099737 0.17267142 0.00000000)
(0.41843114 0.10378653 0.00000000)
(0.44374390 0.06999674 0.00000000)
(0.37792614 0.02824358 0.00000000)
(0.33391758 0.00734380 0.00000000)
(0.29065620 0.00027264 0.00000000)
(0.36001316 -0.00347672 0.00000000)
(0.38646860 -0.00554926 0.00000000)
(0.29639955 -0.00537767 0.00000000)
(0.07839554 -0.00905260 0.00000000)
(-0.02154141 0.00401959 0.00000000)
(-0.03445787 0.01611081 0.00000000)
(-0.05361649 0.02489971 0.00000000)
(-0.07000536 0.03425983 0.00000000)
(-0.08216536 0.05420882 0.00000000)
(-0.09199100 0.04993247 0.00000000)
(-0.10314831 0.05613691 0.00000000)
(-0.11602922 0.06369853 0.00000000)
(-0.12364678 0.06634166 0.00000000)
(-0.13944258 0.07369633 0.00000000)
(-0.15301129 0.07919065 0.00000000)
(-0.16956216 0.08697348 0.00000000)
(-0.18871018 0.09639942 0.00000000)
(-0.20665965 0.09839369 0.00000000)
(-0.22236491 0.09683706 0.00000000)
(-0.23479957 0.09213951 0.00000000)
(-0.24517740 0.08098328 0.00000000)
(-0.25285053 0.06898623 0.00000000)
(-0.25629330 0.05647325 0.00000000)
(-0.25760486 0.03932709 0.00000000)
(-0.25047136 0.02174639 0.00000000)
(-0.24296389 0.00223689 0.00000000)
(-0.23380872 -0.00178357 0.00000000)
(-0.21813318 -0.00351977 0.00000000)
(-0.19868420 -0.00422003 0.00000000)
(-0.17725446 -0.00437066 0.00000000)
(-0.15363019 -0.00571463 0.00000000)
(-0.12752522 -0.00617359 0.00000000)
(-0.10123312 -0.00581580 0.00000000)
(-0.07695408 -0.00453949 0.00000000)
(-0.05490334 -0.00495071 0.00000000)
(-0.03179833 -0.00527042 0.00000000)
(-0.00933218 -0.00475515 0.00000000)
(0.01138153 -0.00434381 0.00000000)
(0.03157868 -0.00439596 0.00000000)
(0.05231934 -0.00491479 0.00000000)
(0.07265841 -0.00435255 0.00000000)
(0.09175822 -0.00411372 0.00000000)
(0.10947503 -0.00371336 0.00000000)
(0.12613766 -0.00350035 0.00000000)
(0.14149208 -0.00313533 0.00000000)
(0.15526941 -0.00285905 0.00000000)
(0.16856319 -0.00289409 0.00000000)
(0.18121178 -0.00247338 0.00000000)
(0.19348301 -0.00246223 0.00000000)
(0.20555881 -0.00228048 0.00000000)
(0.21640312 -0.00226425 0.00000000)
(0.22692248 -0.00212228 0.00000000)
(0.23725706 -0.00210872 0.00000000)
(0.24768428 -0.00197220 0.00000000)
(0.25697566 -0.00176112 0.00000000)
(0.26567157 -0.00179532 0.00000000)
(0.27390413 -0.00172087 0.00000000)
(0.28213951 -0.00160372 0.00000000)
(0.29006707 -0.00146891 0.00000000)
(0.29716164 -0.00119304 0.00000000)
(0.30359918 -0.00120270 0.00000000)
(0.30976299 -0.00120112 0.00000000)
(0.31617642 -0.00116877 0.00000000)
(0.32208175 -0.00101839 0.00000000)
(0.32738130 -0.00090346 0.00000000)
(0.33216797 -0.00082299 0.00000000)
(0.33675017 -0.00079736 0.00000000)
(0.34130128 -0.00086322 0.00000000)
(0.34559971 -0.00072088 0.00000000)
(0.34955255 -0.00063664 0.00000000)
(0.35335739 -0.00071937 0.00000000)
(0.35701574 -0.00062526 0.00000000)
(0.36029175 -0.00046208 0.00000000)
(0.36323401 -0.00042466 0.00000000)
(0.36591745 -0.00040719 0.00000000)
(0.36824732 -0.00034496 0.00000000)
(0.37045718 -0.00025682 0.00000000)
(0.37210848 -0.00013511 0.00000000)
(0.37351239 -0.00007097 0.00000000)
(0.37458723 0.00001209 0.00000000)
(0.37502854 0.00010930 0.00000000)
(0.37501181 0.00023611 0.00000000)
(0.37468204 0.00034856 0.00000000)
(0.37378874 0.00047664 0.00000000)
(0.37226442 0.00061162 0.00000000)
(0.37018228 0.00085622 0.00000000)
(0.36691902 0.00115675 0.00000000)
(0.36221344 0.00149492 0.00000000)
(0.35620567 0.00188285 0.00000000)
(0.34808891 0.00242987 0.00000000)
(0.33744384 0.00313404 0.00000000)
(0.32371082 0.00400407 0.00000000)
(0.30563362 0.00511177 0.00000000)
(0.28193252 0.00665246 0.00000000)
(0.25933526 0.00976424 0.00000000)
(0.25385338 0.01905879 0.00000000)
(0.26687007 0.03458527 0.00000000)
(0.28561437 0.05489869 0.00000000)
(0.30702420 0.07667883 0.00000000)