4 	0.00391112967796256 	-1.38777878078145e-17 	0.158205546350823 	3.24138341013845e-05 	834.119275214724 	8.10428810806359e-06 	3.11398674308514e-38
4 	0.0118766651674913 	-1.38777878078145e-17 	0.158202715451777 	0.000353656987452597 	244.359498384618 	0.00010262416232076 	0
4 	0.020134001548576 	-6.93889390390723e-18 	0.158194709200887 	0.00165343991815344 	61.7959774738916 	0.000402860768898737 	0
4 	0.0286938283423949 	0 	0.15817389907688 	0.00413146368465022 	25.8181340450128 	0.00041773831613163 	0
4 	0.0375672266585908 	3.46944695195361e-18 	0.158131724387867 	0.00687382363722005 	14.197237518044 	0.000128800742471165 	0
4 	0.046765683540303 	1.04083408558608e-17 	0.158065859654086 	0.00930726427138054 	9.42417591074656 	3.85407127409798e-05 	0
4 	0.0563011068347006 	6.93889390390723e-18 	0.157980776478444 	0.0113921106328381 	7.0419788784169 	0.000110532193532728 	0
4 	0.0661858406082648 	0 	0.157881918275492 	0.0132189015293825 	5.65693535648398 	0.000237868411472926 	0
4 	0.0764326811267815 	0 	0.157772826651615 	0.0148647949905156 	4.76169682461214 	0.000382359386614214 	0
4 	0.0870548934207258 	0 	0.157655670133846 	0.0163820639606603 	4.13954579960274 	0.000534245446311766 	0
4 	0.0980662284574838 	0 	0.157532070262045 	0.017805874214075 	3.68459403432131 	0.000691513527363165 	0
4 	0.109480940942647 	-3.46944695195361e-18 	0.157403401015455 	0.0191606913492769 	3.33946006417428 	0.000854321504566498 	0
4 	0.121313807773417 	-6.93889390390723e-18 	0.157270868093441 	0.0204642159438656 	3.07048217734623 	0.00102349989135386 	0
4 	0.13358014716801 	-6.93889390390723e-18 	0.157135557110654 	0.0217297335939669 	2.8566571045339 	0.00120011810475933 	0
4 	0.146295838495838 	-1.04083408558608e-17 	0.156998471928741 	0.0229675487331472 	2.68422389129757 	0.00138535585612013 	0
4 	0.159477342834115 	-1.38777878078145e-17 	0.156860559009607 	0.0241858874560578 	2.54380555467133 	0.0015804717300243 	0
4 	0.173141724277517 	-1.38777878078145e-17 	0.156722721320512 	0.025391483749383 	2.42880529169266 	0.00178680491319602 	0
4 	0.18730667202848 	-1.38777878078145e-17 	0.156585826325733 	0.0265899702382973 	2.33445969502476 	0.00200578821364991 	0
4 	0.201990523296728 	-1.38777878078145e-17 	0.156450710586492 	0.0277861437414813 	2.25725542894921 	0.00223896452407366 	0
4 	0.217212287037676 	-2.08166817117217e-17 	0.15631818229722 	0.0289841476021704 	2.1945565239207 	0.00248800382475928 	0
4 	0.232991668560442 	-2.77555756156289e-17 	0.156189022656934 	0.0301875964752821 	2.14435866053132 	0.00275471953415187 	0
4 	0.249349095037321 	-2.77555756156289e-17 	0.156063986776487 	0.0313996595690957 	2.10512268655946 	0.00304108354179659 	0
4 	0.266305741947753 	-3.12250225675825e-17 	0.155943804692698 	0.0326231123875597 	2.07565905857401 	0.00334923932943269 	0
4 	0.283883560490999 	-3.81639164714898e-17 	0.155829182976407 	0.0338603632309678 	2.05504586453445 	0.00368151245245683 	0
4 	0.30210530600303 	-3.81639164714898e-17 	0.155720807369936 	0.0351134582135443 	2.04256948147568 	0.00404041740089511 	0
4 	0.320994567414413 	-3.46944695195361e-17 	0.155619346861676 	0.0363840668444781 	2.03768076814031 	0.00442865950596639 	0
4 	0.34057579778732 	-3.12250225675825e-17 	0.155525459588034 	0.0376734490000204 	2.03996206384536 	0.00484913009908044 	0
4 	0.360874345971201 	-2.77555756156289e-17 	0.155439800833778 	0.0389824032140658 	2.04910175734108 	0.00530489256024155 	0
4 	0.38191648941809 	-2.77555756156289e-17 	0.155363032981606 	0.0403111955305273 	2.06487414114573 	0.0057991561600462 	0
4 	0.403729468200046 	-2.77555756156289e-17 	0.155295837476265 	0.0416594676368881 	2.08712287389932 	0.00633523329458664 	0
4 	0.426341520272734 	-3.12250225675825e-17 	0.155238933962319 	0.0430261226240493 	2.11574675072667 	0.00691647610180641 	0
4 	0.449781918030829 	-3.46944695195361e-17 	0.155193119925136 	0.0444091422452883 	2.15068671180892 	0.00754619091155955 	0
4 	0.474081006202548 	-3.81639164714898e-17 	0.155159295242579 	0.0458052548538808 	2.19191314456113 	0.00822748132642393 	0
4 	0.499270241132364 	-4.16333634234434e-17 	0.155138258992502 	0.0472102747492932 	2.23941222718513 	0.008963152435461 	0
4 	0.525382231502763 	-4.16333634234434e-17 	0.155130059554379 	0.0486186957219175 	2.29317001810671 	0.00975552213275147 	0
4 	0.552450780547768 	-4.16333634234434e-17 	0.155136063099126 	0.050023337372909 	2.35315296463983 	0.0106171984335606 	0
4 	0.58051092981285 	-4.16333634234434e-17 	0.155170522363589 	0.0514158181777146 	2.41932746341675 	0.0116268883581196 	0
4 	0.60959900451791 	-3.46944695195361e-17 	0.155262957767224 	0.0527911434084652 	2.49189573162262 	0.0128615353111347 	0
4 	0.639752660582033 	-3.46944695195361e-17 	0.155422419551376 	0.0541461013566079 	2.57099893436793 	0.0142740972385411 	0
4 	0.671010933370887 	-4.5102810375397e-17 	0.155617005044736 	0.0554533498818417 	2.6546469732176 	0.0158301792111087 	0
4 	0.703414288229901 	-5.20417042793042e-17 	0.155814255135289 	0.0566433249249195 	2.73745593371985 	0.0173152071894177 	0
4 	0.737004672868606 	-5.20417042793042e-17 	0.156008535131772 	0.0576301984468425 	2.8122648414645 	0.0185740629975037 	0
4 	0.771825571663976 	-5.20417042793042e-17 	0.156207808603533 	0.0583362546829866 	2.87217050868766 	0.0195442875153035 	0
4 	0.807922061953054 	-5.55111512312578e-17 	0.156419863922382 	0.0587020301084465 	2.91195078246866 	0.0202122385615333 	0
4 	0.845340872387743 	-5.55111512312578e-17 	0.156647498528851 	0.0586862577324924 	2.92862187316802 	0.0205691954293993 	0
4 	0.884130443427309 	-5.55111512312578e-17 	0.156888709769852 	0.05826320972055 	2.92111732668601 	0.0205922016649914 	0
4 	0.924340990046898 	-5.55111512312578e-17 	0.157138660424969 	0.0574226014391932 	2.8895240792868 	0.020250799728111 	0
4 	0.966024566743242 	-5.89805981832114e-17 	0.15739166410025 	0.0561729870946537 	2.83450723530192 	0.0195265454473403 	0
4 	1.00923513492173 	-6.59194920871187e-17 	0.157642373687052 	0.0545463329705482 	2.7571839623877 	0.0184311739219596 	0
4 	1.05402863275206 	-6.59194920871187e-17 	0.157886087608332 	0.0526004450214302 	2.65931996707256 	0.0170152480145518 	0
4 	1.10046304758287 	-6.24500451351651e-17 	0.158118463343187 	0.0504167571828633 	2.54361207433832 	0.0153656638295186 	0
4 	1.14859849100923 	-6.59194920871187e-17 	0.158334996067464 	0.0480925301817286 	2.41384187519439 	0.013594055491291 	0
4 	1.19849727668995 	-6.59194920871187e-17 	0.158530649640444 	0.0457281748485105 	2.27472176416556 	0.0118191191836387 	0
4 	1.25022400101563 	-6.59194920871187e-17 	0.158700215879475 	0.0434122388511962 	2.13134882337264 	0.0101465194529389 	0
4 	1.30384562673186 	-6.93889390390723e-17 	0.158839641260453 	0.0412082603366356 	1.98839168281383 	0.00865161564410985 	0
4 	1.35943156962565 	-6.93889390390723e-17 	0.158946668961392 	0.039147847581 	1.84935949463682 	0.0073714597027816 	0
4 	1.41705378838762 	-7.63278329429795e-17 	0.159028676427804 	0.0372315543671687 	1.71629919644543 	0.00630707914438644 	0
4 	1.47678687776592 	-7.63278329429795e-17 	0.159134076255929 	0.0354350988066583 	1.58999457332429 	0.00540301825142391 	0
4 	1.53870816513278 	-7.28583859910259e-17 	0.159258998179708 	0.0337267225553921 	1.47044123952544 	0.00459553177609224 	0
4 	1.60289781058851 	-7.63278329429795e-17 	0.159356691303055 	0.0320734645602396 	1.35539430883814 	0.00388033559217462 	0
4 	1.66943891073267 	-7.97972798949331e-17 	0.159428715053772 	0.0304489139682829 	1.24435834315931 	0.003253195312356 	0
4 	1.73841760623657 	-7.63278329429795e-17 	0.159474389473369 	0.0288368181579732 	1.1411525817808 	0.00271653737313742 	0
4 	1.8099231933566 	-7.28583859910259e-17 	0.159491417115867 	0.0272227438847475 	1.05025161371452 	0.00226160034744346 	0
4 	1.88404823953249 	-7.28583859910259e-17 	0.159477438234051 	0.0255903739993958 	0.972776942031956 	0.00187187909753662 	0
4 	1.96088870322038 	-6.93889390390723e-17 	0.159433676346915 	0.0239654308438301 	0.908425009858597 	0.00153960767350286 	0
4 	2.02025965173185 	-6.93889390390723e-17 	0.159376407039985 	0.0226630778197271 	0.865963523340417 	0.00130369649398194 	0
4 	2.06006301192217 	-6.93889390390723e-17 	0.159324350370903 	0.0217449958906852 	0.839615518099343 	0.00115190162086101 	0
4 	2.09845978584128 	-6.93889390390723e-17 	0.159269023275177 	0.0209062840134995 	0.818210504242505 	0.00102148614472654 	0
4 	2.13549967996946 	-6.93889390390723e-17 	0.159208764342116 	0.0201029304950104 	0.80007613703573 	0.000902623276776788 	0
4 	2.17123064424048 	-6.93889390390723e-17 	0.159144103057502 	0.0193344397341129 	0.784991932545008 	0.000794132282292935 	0
4 	2.20569893411516 	-6.93889390390723e-17 	0.159075661796443 	0.018600250946956 	0.772793204037302 	0.000695110412054622 	0
4 	2.23894917046123 	-6.59194920871187e-17 	0.15900403212616 	0.0178996952779835 	0.763358890105879 	0.000604812566984094 	0
4 	2.27102439731726 	-6.24500451351651e-17 	0.158929759461972 	0.0172319890731579 	0.756604009661137 	0.000522605611040016 	0
4 	2.30196613761522 	-6.24500451351651e-17 	0.158853357219107 	0.0165962478936305 	0.752475144707188 	0.000447946104145997 	0
4 	2.33181444693392 	-6.24500451351651e-17 	0.158775312409737 	0.0159915109211296 	0.75094792860324 	0.000380366969228761 	0
4 	2.3606079653529 	-6.59194920871187e-17 	0.158696087796443 	0.0154167693211717 	0.752025902620844 	0.000319470077880237 	0
4 	2.38838396747391 	-7.63278329429795e-17 	0.158616123245504 	0.014870994758461 	0.755740351385441 	0.000264922856156324 	0
4 	2.41517841067461 	-8.32667268468867e-17 	0.158535836365269 	0.0143531659687407 	0.762150886825064 	0.000216457478301899 	0
4 	2.44102598165722 	-7.97972798949331e-17 	0.158455622515305 	0.0138622923754411 	0.771346652561357 	0.000173871813007258 	0
4 	2.46596014135208 	-7.63278329429795e-17 	0.158375854368255 	0.0133974343939554 	0.783448086285618 	0.000137031677360822 	0
4 	2.49001316823444 	-7.63278329429795e-17 	0.158296881170908 	0.0129577204307666 	0.798609219408364 	0.000105874167929417 	0
4 	2.51321620011054 	-7.97972798949331e-17 	0.158219027814729 	0.012542360757462 	0.817020519410429 	8.04119507071518e-05 	0
4 	2.535599274427 	-8.32667268468867e-17 	0.158142593805127 	0.0121506584884491 	0.838912296080607 	6.07384403662862e-05 	0
4 	2.55719136715571 	-8.32667268468867e-17 	0.1580678522037 	0.0117820178614629 	0.864558701452897 	4.70338047712875e-05 	0
4 	2.57802043030465 	-7.63278329429795e-17 	0.157995048605743 	0.0114359499424022 	0.894282356795851 	3.95717064074674e-05 	0
4 	2.59811342810315 	-6.93889390390723e-17 	0.157924400205936 	0.0111120757722089 	0.928459639863018 	3.87266482176469e-05 	0
4 	2.61749637190832 	-7.28583859910259e-17 	0.157856094998176 	0.0108101268600796 	0.967526663042691 	4.49817369514294e-05 	0
4 	2.63619435387806 	-7.97972798949331e-17 	0.15779029115049 	0.0105299428194153 	1.01198596959815 	5.89366244373148e-05 	0
4 	2.65423157945406 	-8.32667268468867e-17 	0.15772711659285 	0.0102714658564464 	1.06241397313025 	8.13153524961366e-05 	0
4 	2.67163139869691 	-8.32667268468867e-17 	0.157666668853935 	0.0100347317741301 	1.11946916804911 	0.000112973832134098 	0
4 	2.68841633651388 	-8.32667268468867e-17 	0.157609015182107 	0.00981985716492099 	1.18390115078191 	0.00015490675796208 	0
4 	2.7046081218185 	-8.32667268468867e-17 	0.157554192985041 	0.00962702255373744 	1.25656051832845 	0.000208253920258357 	0
4 	2.72022771565972 	-8.32667268468867e-17 	0.157502210620535 	0.00945645142986998 	1.33840975865736 	0.000274306147365592 	0
4 	2.73529533835694 	-8.32667268468867e-17 	0.157453048566482 	0.00930838537472211 	1.43053532138511 	0.000354511487921376 	0
4 	2.74983049567625 	-8.67361737988404e-17 	0.157406660989542 	0.00918305583284695 	1.5341611592935 	0.000450482690269852 	0
4 	2.76385200408156 	-8.32667268468867e-17 	0.157362977718658 	0.00908065344358521 	1.65066415853908 	0.000564007476537643 	0
4 	2.77737801509343 	-8.67361737988404e-17 	0.157321906611233 	0.0090012961815466 	1.78159201867737 	0.000697063419247691 	0
4 	2.79042603878708 	-9.71445146547012e-17 	0.157283336277667 	0.00894499776196248 	1.92868428881023 	0.00085183925991691 	0
4 	2.80301296646003 	-9.71445146547012e-17 	0.157247139106891 	0.0089116377709547 	2.09389739981602 	0.001030764119607 	0
4 	2.81515509249872 	-9.0205620750794e-17 	0.157213174516475 	0.00890093473199285 	2.27943465199503 	0.00123654514885498 	0
4 	2.82686813547237 	-8.32667268468867e-17 	0.157181292338684 	0.00891242282964895 	2.48778224378781 	0.00147221274058406 	0
4 	2.83816725848143 	-8.32667268468867e-17 	0.157151336232485 	0.0089454323713315 	2.72175261883462 	0.0017411705623454 	0
4 	2.84906708878691 	-8.32667268468867e-17 	0.157123146953509 	0.0089990734497198 	2.98453677191222 	0.00204724549054272 	0
4 	2.85958173674616 	-8.32667268468867e-17 	0.157096565399946 	0.00907222191291036 	3.27976785885692 	0.00239473022086692 	0
4 	2.86972481407933 	-8.32667268468867e-17 	0.157071436249073 	0.00916350694539639 	3.61159977801243 	0.00278840905203017 	0
4 	2.87950945149043 	-7.97972798949331e-17 	0.157047613528412 	0.00927130065549641 	3.98480682778404 	0.00323355546085039 	0
4 	2.88894831566566 	-7.63278329429795e-17 	0.157024959272927 	0.00939371249072403 	4.40491501431364 	0.00373589912019702 	0
4 	2.89805362567106 	-7.63278329429795e-17 	0.157003300722391 	0.00952859520530589 	4.87838342940814 	0.00430309011909584 	0
4 	2.90683716877067 	-7.97972798949331e-17 	0.156982423771314 	0.00967355014929105 	5.41298873628632 	0.00495287343759891 	0
4 	2.91531031568569 	-9.0205620750794e-17 	0.156962408181184 	0.00982579411630072 	6.01910764311342 	0.00571385993275525 	0
4 	2.92348403531448 	-9.71445146547012e-17 	0.156943115785158 	0.00998165396500453 	6.71138645744349 	0.00658916423960231 	0
4 	2.93136890893229 	-1.00613961606655e-16 	0.15692440199893 	0.0101358652020045 	7.50500696329449 	0.00760533421584523 	0
4 	2.93897514388925 	-1.07552855510562e-16 	0.156906467388364 	0.0102796617043148 	8.41163414126993 	0.00874717138499259 	0
4 	2.94631258682425 	-1.11022302462516e-16 	0.156889254632418 	0.0104021099329269 	9.44253949503853 	0.0100045831724555 	0
4 	2.95339073641193 	-1.11022302462516e-16 	0.156872592436506 	0.0104910085710986 	10.6122751501902 	0.0113753454812763 	0
4 	2.96021875565916 	-1.07552855510562e-16 	0.156856377762568 	0.0105330160262542 	11.9433833791135 	0.0128602558520105 	0
4 	2.96680548376697 	-1.00613961606655e-16 	0.156840604151229 	0.0105132612788414 	13.47003039729 	0.0144600103310408 	0
4 	2.97315944757337 	-1.00613961606655e-16 	0.156825338782685 	0.0104146558858574 	15.2394144553349 	0.0161724088578614 	0
4 	2.97928887259171 	-1.04083408558608e-16 	0.15681070414468 	0.0102168188226926 	17.3202177256116 	0.0179874164209887 	0
4 	2.98520169365903 	-1.00613961606655e-16 	0.156796868502676 	0.0098943803106135 	19.8170809106672 	0.0198763845660532 	0
4 	2.99090556520807 	-1.00613961606655e-16 	0.156784036296455 	0.00941484345396556 	22.8906513790217 	0.021768248312422 	0
4 	2.99640787117633 	-1.04083408558608e-16 	0.15677243469066 	0.0087363926813921 	26.7953541225531 	0.0234935944970178 	0
4 	3.00171573456492 	-1.00613961606655e-16 	0.156762285810902 	0.00780796608432381 	31.9584031028056 	0.0247170771826771 	0
4 	3.00683602665963 	-9.71445146547012e-17 	0.156753787940015 	0.00657451286938766 	39.1707250651259 	0.0247613128302115 	0
4 	3.01177537592613 	-9.71445146547012e-17 	0.156747197282322 	0.00499906392061679 	50.1171880419494 	0.0219999583857096 	0
4 	3.01654017659085 	-1.00613961606655e-16 	0.156742593106739 	0.00317798824956708 	69.1443099276669 	0.014939067100891 	0
4 	3.02113659691864 	-1.04083408558608e-16 	0.156739675044967 	0.00151642633636863 	110.593221201718 	0.00634538138851784 	0
4 	3.02557058719784 	-1.04083408558608e-16 	0.156737877468946 	0.000486749751554075 	236.212365369193 	0.00140966685929982 	0
4 	3.02984788744324 	-1.07552855510562e-16 	0.156736613382328 	9.10701244934653e-05 	884.664480199542 	0.000144731650861988 	0
