/*--------------------------------*- C++ -*----------------------------------*\
  =========                 |
  \\      /  F ield         | OpenFOAM: The Open Source CFD Toolbox
   \\    /   O peration     | Website:  https://openfoam.org
    \\  /    A nd           | Version:  7
     \\/     M anipulation  |
\*---------------------------------------------------------------------------*/
FoamFile
{
    version     2.0;
    format      ascii;
    class       volScalarField;
    location    "0";
    object      k_LES;
}
// * * * * * * * * * * * * * * * * * * * * * * * * * * * * * * * * * * * * * //

dimensions      [0 2 -2 0 0 0 0];

internalField   nonuniform List<scalar>
15600
(
0.00419798
0.00470592
0.00285894
0.00073046
0.00081268
0.00289702
0.00554468
0.00198116
0.00229122
0.00046359
0.00092142
0.00081380
0.00057072
0.00090959
0.00085905
0.00026045
0.00056716
0.00089867
0.00098215
0.00111794
0.00068663
0.00191697
0.00169190
0.00097842
0.00146319
0.00164734
0.00239437
0.00189832
0.00160048
0.00186558
0.00212434
0.00224634
0.00249283
0.00267493
0.00282862
0.00298629
0.00320080
0.00327142
0.00328765
0.00329326
0.00334501
0.00345237
0.00344056
0.00346925
0.00346077
0.00341713
0.00338393
0.00341131
0.00340465
0.00325436
0.00316939
0.00312184
0.00311142
0.00307619
0.00304350
0.00300287
0.00294476
0.00290604
0.00289792
0.00297097
0.00288096
0.00275769
0.00268470
0.00263803
0.00260768
0.00256440
0.00245834
0.00240825
0.00228414
0.00222558
0.00223783
0.00225513
0.00213897
0.00210242
0.00198706
0.00193306
0.00187295
0.00184945
0.00179036
0.00174899
0.00169633
0.00166374
0.00166259
0.00160871
0.00157212
0.00150326
0.00148417
0.00145859
0.00141241
0.00140202
0.00139446
0.00140760
0.00215934
0.00229890
0.00202892
0.00031556
0.00043420
0.00085341
0.00049843
-0.00009531
0.00009898
-0.00033620
0.00000840
-0.00010324
-0.00022824
-0.00012723
-0.00028046
-0.00058230
-0.00018425
-0.00067787
-0.00003757
-0.00056023
-0.00033691
0.00037408
-0.00103306
0.00003143
0.00042090
-0.00007725
0.00143326
0.00269036
0.01035740
0.01225426
0.00889558
0.00473115
0.00474594
0.00709441
0.01128810
0.00585130
0.00453066
0.00355938
0.00313831
0.00357307
0.00263519
0.00333938
0.00314946
0.00294755
0.00317858
0.00330005
0.00402002
0.00421352
0.00440614
0.00568028
0.00541229
0.00575227
0.00618317
0.00671878
0.00763053
0.00703069
0.00728056
0.00823905
0.00902908
0.00977902
0.01063339
0.01129736
0.01190451
0.01253379
0.01295673
0.01335807
0.01360330
0.01374942
0.01395564
0.01410426
0.01426525
0.01433695
0.01433345
0.01436088
0.01426215
0.01404562
0.01401146
0.01375043
0.01357003
0.01338730
0.01326389
0.01316324
0.01310740
0.01302345
0.01288540
0.01273248
0.01264707
0.01260818
0.01242202
0.01221633
0.01200207
0.01182963
0.01167166
0.01147241
0.01126714
0.01100896
0.01072746
0.01049314
0.01037227
0.01023407
0.00998268
0.00975385
0.00950024
0.00925129
0.00906335
0.00886912
0.00866648
0.00849717
0.00832421
0.00816335
0.00805187
0.00787178
0.00766655
0.00749522
0.00737812
0.00722751
0.00704312
0.00693456
0.00683903
0.00677944
0.00796607
0.00919979
0.00941894
0.00779484
0.00771411
0.00894676
0.00803302
0.00347966
0.00493642
0.00099956
0.00222883
0.00203108
0.00168201
0.00127043
0.00177816
0.00014535
0.00159567
-0.00131702
0.00044009
0.00069694
0.00245913
0.00506752
0.00262257
0.00053361
0.00273675
0.00487548
0.00577470
0.00764376
0.01956335
0.02352273
0.01844981
0.01155625
0.01054591
0.01348223
0.01473974
0.01170218
0.00912331
0.00736252
0.00699359
0.00701329
0.00607265
0.00636462
0.00667841
0.00635095
0.00662154
0.00701254
0.00779631
0.00780934
0.00819892
0.00905529
0.00920554
0.00965973
0.01029141
0.01073332
0.01134850
0.01166258
0.01277075
0.01419732
0.01546780
0.01667533
0.01791809
0.01894069
0.01985823
0.02076882
0.02142469
0.02202389
0.02253343
0.02286719
0.02326569
0.02359320
0.02373010
0.02380010
0.02381574
0.02398996
0.02393983
0.02371310
0.02351531
0.02329462
0.02301669
0.02271677
0.02254245
0.02247878
0.02245857
0.02229644
0.02213942
0.02192508
0.02183140
0.02173907
0.02145091
0.02117252
0.02091419
0.02071676
0.02044358
0.02030214
0.02004077
0.01965559
0.01925498
0.01892697
0.01872880
0.01846277
0.01816001
0.01774276
0.01737410
0.01702012
0.01674311
0.01645600
0.01615218
0.01587804
0.01561821
0.01537471
0.01515394
0.01485095
0.01457249
0.01431084
0.01412283
0.01387743
0.01357059
0.01336510
0.01316195
0.01296757
0.01383248
0.01565442
0.01669026
0.01679190
0.01711531
0.01827235
0.01878038
0.01574330
0.01541413
0.01260921
0.00971648
0.00990455
0.01056560
0.00690778
0.01077417
0.00740237
0.00817002
0.00191026
0.00731430
0.00616480
0.00839054
0.01652654
0.00935733
0.00546189
0.00989792
0.01428408
0.01516343
0.01605628
0.03018428
0.03590411
0.03050199
0.02108827
0.01741993
0.01858140
0.01872886
0.01581349
0.01251507
0.01135543
0.01038289
0.00979837
0.00950147
0.00911166
0.00967915
0.00948101
0.00962241
0.01025659
0.01067513
0.01098750
0.01137496
0.01189320
0.01199424
0.01243586
0.01301867
0.01363463
0.01426295
0.01511398
0.01663425
0.01827087
0.01980593
0.02129009
0.02279081
0.02401978
0.02510677
0.02619785
0.02695572
0.02775059
0.02837309
0.02887792
0.02942629
0.02982211
0.02998223
0.03011132
0.03020107
0.03044113
0.03040657
0.03019674
0.03002923
0.02976717
0.02943628
0.02910750
0.02894811
0.02891343
0.02887702
0.02869694
0.02851353
0.02832891
0.02823269
0.02808040
0.02778084
0.02745044
0.02715421
0.02696466
0.02670942
0.02655377
0.02636115
0.02592597
0.02547824
0.02513772
0.02488096
0.02456125
0.02416589
0.02371266
0.02328573
0.02289428
0.02253658
0.02224922
0.02190757
0.02161815
0.02131052
0.02103289
0.02079837
0.02044621
0.02011697
0.01982685
0.01963307
0.01935825
0.01901343
0.01876419
0.01850431
0.01823787
0.01878458
0.02072717
0.02234288
0.02384374
0.02475877
0.02624580
0.02658336
0.02546021
0.02548709
0.02477465
0.02412506
0.02323398
0.02326497
0.02263718
0.02305137
0.01965205
0.02109209
0.01506501
0.01784991
0.01743449
0.02175358
0.03236561
0.02308179
0.01896240
0.02413624
0.02696265
0.02687368
0.02644006
0.04032825
0.04617013
0.04313745
0.03046239
0.02364539
0.02099523
0.02122882
0.01826211
0.01586407
0.01427531
0.01329457
0.01219882
0.01213722
0.01181851
0.01204906
0.01221067
0.01233301
0.01274776
0.01318777
0.01325511
0.01356143
0.01362275
0.01390099
0.01435762
0.01497986
0.01570284
0.01643788
0.01763803
0.01934209
0.02112370
0.02283272
0.02449530
0.02612556
0.02747472
0.02866956
0.02984433
0.03070336
0.03165576
0.03237450
0.03297515
0.03363264
0.03408759
0.03431657
0.03448116
0.03464993
0.03488828
0.03486993
0.03470605
0.03453993
0.03429799
0.03393902
0.03360298
0.03347602
0.03342014
0.03336496
0.03314539
0.03294177
0.03285618
0.03274055
0.03253752
0.03222508
0.03186805
0.03153202
0.03136642
0.03114002
0.03096499
0.03082392
0.03039345
0.02995902
0.02959167
0.02928843
0.02895935
0.02850477
0.02800285
0.02756683
0.02718367
0.02679982
0.02650141
0.02614270
0.02585549
0.02555009
0.02527820
0.02503086
0.02467295
0.02434579
0.02404534
0.02387335
0.02362796
0.02331473
0.02305847
0.02277546
0.02247066
0.02279359
0.02457999
0.02642703
0.02823024
0.02986160
0.03149684
0.03285470
0.03256269
0.03319724
0.03286432
0.03327386
0.03348505
0.03314641
0.03361787
0.03356314
0.03171727
0.03326472
0.03093712
0.03180909
0.03101191
0.03840534
0.04441194
0.04172465
0.03535705
0.03831424
0.04030156
0.03883844
0.03717899
0.05004875
0.05503920
0.05372846
0.03917533
0.02739648
0.02353591
0.02351905
0.02093009
0.01787258
0.01646976
0.01539247
0.01452049
0.01438181
0.01403318
0.01427450
0.01432110
0.01450017
0.01467211
0.01473292
0.01483170
0.01498057
0.01496650
0.01523605
0.01572444
0.01637223
0.01718354
0.01810985
0.01953057
0.02135416
0.02324341
0.02508907
0.02687721
0.02856058
0.02999769
0.03128453
0.03250373
0.03345206
0.03448869
0.03530370
0.03598998
0.03668656
0.03718472
0.03750212
0.03768741
0.03791835
0.03814386
0.03811742
0.03799631
0.03786487
0.03766492
0.03726214
0.03694466
0.03682247
0.03674481
0.03664864
0.03641808
0.03618823
0.03618232
0.03605338
0.03582437
0.03550485
0.03512385
0.03475647
0.03458059
0.03440722
0.03422532
0.03409264
0.03368458
0.03329813
0.03288292
0.03256536
0.03216978
0.03166853
0.03116807
0.03074683
0.03032875
0.02993319
0.02964208
0.02931060
0.02903396
0.02873829
0.02846855
0.02822199
0.02788897
0.02759778
0.02727697
0.02711968
0.02691140
0.02663516
0.02641173
0.02613629
0.02583445
0.02603428
0.02758553
0.02946729
0.03143593
0.03330557
0.03510713
0.03679208
0.03763827
0.03852119
0.03927507
0.03986451
0.03987508
0.04039891
0.04038617
0.04035392
0.04067763
0.04130943
0.04127790
0.04083786
0.04239308
0.04726553
0.05064065
0.05371079
0.04770589
0.04826485
0.04890742
0.04866877
0.04751507
0.05893683
0.06326704
0.06238543
0.04798117
0.03136953
0.02671014
0.02545637
0.02299593
0.02007426
0.01847705
0.01730210
0.01636065
0.01606973
0.01576063
0.01577061
0.01588396
0.01597881
0.01593065
0.01591957
0.01593135
0.01600148
0.01593758
0.01617655
0.01670817
0.01742386
0.01832965
0.01943199
0.02103050
0.02294732
0.02493805
0.02688721
0.02875027
0.03046338
0.03197703
0.03334196
0.03455732
0.03560627
0.03670863
0.03759829
0.03831879
0.03901824
0.03956696
0.03997009
0.04018793
0.04044212
0.04063775
0.04060035
0.04050200
0.04043074
0.04027148
0.03986566
0.03952742
0.03939520
0.03929281
0.03918692
0.03893101
0.03868891
0.03869879
0.03856743
0.03833839
0.03803230
0.03763005
0.03723149
0.03705917
0.03693751
0.03673076
0.03658451
0.03620941
0.03586483
0.03540367
0.03505687
0.03462478
0.03408985
0.03360776
0.03318516
0.03272837
0.03235034
0.03207090
0.03175078
0.03147983
0.03119008
0.03092299
0.03068957
0.03040063
0.03011898
0.02978498
0.02963440
0.02946943
0.02923346
0.02902113
0.02877673
0.02850906
0.02864196
0.02997756
0.03178646
0.03379095
0.03579462
0.03762063
0.03944091
0.04082683
0.04220725
0.04336806
0.04393672
0.04511078
0.04575958
0.04586168
0.04625171
0.04658952
0.04636024
0.04742213
0.04799269
0.05160203
0.05417226
0.05732345
0.05811402
0.05604577
0.05416760
0.05256385
0.05474982
0.05609556
0.06579894
0.06998756
0.06996992
0.05766130
0.03759340
0.02997095
0.02739928
0.02459210
0.02185772
0.02005590
0.01857361
0.01780026
0.01738545
0.01711776
0.01703624
0.01705668
0.01711498
0.01692897
0.01676898
0.01671374
0.01670195
0.01666576
0.01690710
0.01748106
0.01828549
0.01929104
0.02054298
0.02229410
0.02428895
0.02636920
0.02839826
0.03029981
0.03202340
0.03361978
0.03504142
0.03624170
0.03738260
0.03851181
0.03946857
0.04018832
0.04087922
0.04148955
0.04195563
0.04220146
0.04246073
0.04261926
0.04256353
0.04248158
0.04246949
0.04232476
0.04194729
0.04157137
0.04143220
0.04130755
0.04119776
0.04093600
0.04069347
0.04065085
0.04053521
0.04031680
0.04002656
0.03961898
0.03919795
0.03903466
0.03892150
0.03869504
0.03854885
0.03819671
0.03788451
0.03739672
0.03701806
0.03653328
0.03600847
0.03554648
0.03511134
0.03460543
0.03426608
0.03399547
0.03367525
0.03340198
0.03313151
0.03285268
0.03262428
0.03238135
0.03209636
0.03175052
0.03158992
0.03146582
0.03126650
0.03107154
0.03085587
0.03063916
0.03074733
0.03191848
0.03361795
0.03556885
0.03764012
0.03948433
0.04140719
0.04304014
0.04467660
0.04607623
0.04691701
0.04787495
0.04901071
0.05026135
0.05019088
0.05125346
0.05088363
0.05289629
0.05306162
0.05513926
0.05877843
0.06025002
0.06002756
0.06126973
0.05813578
0.05483178
0.05746305
0.06194780
0.06966459
0.07415425
0.07605945
0.06656680
0.04472509
0.03356211
0.02957979
0.02631871
0.02349053
0.02139764
0.01986439
0.01898799
0.01847260
0.01816489
0.01797395
0.01793018
0.01791073
0.01763479
0.01740102
0.01725826
0.01721904
0.01720050
0.01751004
0.01813727
0.01901698
0.02012742
0.02152562
0.02341272
0.02547684
0.02763316
0.02972302
0.03163701
0.03337261
0.03503592
0.03649582
0.03770179
0.03891398
0.04006127
0.04104778
0.04176784
0.04244512
0.04310484
0.04362285
0.04389211
0.04411801
0.04425749
0.04417204
0.04411104
0.04412455
0.04397941
0.04363711
0.04323756
0.04307856
0.04294549
0.04283403
0.04258329
0.04235139
0.04223117
0.04215592
0.04191544
0.04164811
0.04124203
0.04081450
0.04064618
0.04051751
0.04026478
0.04012707
0.03981714
0.03951740
0.03901291
0.03858865
0.03808074
0.03757953
0.03712587
0.03667019
0.03614258
0.03583761
0.03555954
0.03523510
0.03495201
0.03470431
0.03442217
0.03418333
0.03396514
0.03366097
0.03331345
0.03313990
0.03304601
0.03287894
0.03268817
0.03251153
0.03234216
0.03244113
0.03349313
0.03507558
0.03692905
0.03898544
0.04086531
0.04280506
0.04465501
0.04636076
0.04786063
0.04888418
0.05003194
0.05143869
0.05240282
0.05280850
0.05432002
0.05491534
0.05667218
0.05758990
0.05848063
0.06087693
0.06277263
0.06067473
0.06402503
0.06052331
0.05682243
0.05805198
0.06423361
0.07090043
0.07623823
0.07976772
0.07378108
0.05227191
0.03746943
0.03197680
0.02804017
0.02490607
0.02260186
0.02098445
0.01999439
0.01939814
0.01898089
0.01874516
0.01857495
0.01845261
0.01812630
0.01786779
0.01769170
0.01761456
0.01764207
0.01800520
0.01872240
0.01967190
0.02089466
0.02242664
0.02443602
0.02656309
0.02879192
0.03091845
0.03283893
0.03458725
0.03628758
0.03778032
0.03901541
0.04028693
0.04144289
0.04243590
0.04315722
0.04381953
0.04450035
0.04505953
0.04533918
0.04551933
0.04566418
0.04554188
0.04549525
0.04551166
0.04534944
0.04504458
0.04465055
0.04444882
0.04432807
0.04419567
0.04397892
0.04374536
0.04357171
0.04354110
0.04324183
0.04299259
0.04259391
0.04218992
0.04199364
0.04183373
0.04155084
0.04142030
0.04118253
0.04087675
0.04035021
0.03987816
0.03937441
0.03889773
0.03844373
0.03797226
0.03745489
0.03715858
0.03686554
0.03654007
0.03624744
0.03601736
0.03573091
0.03547830
0.03525685
0.03492674
0.03459476
0.03440288
0.03431669
0.03416832
0.03399015
0.03384769
0.03370440
0.03381546
0.03476535
0.03623745
0.03798061
0.04000870
0.04190322
0.04390541
0.04579523
0.04750036
0.04913297
0.05047025
0.05178755
0.05311534
0.05428301
0.05508484
0.05601553
0.05694809
0.05850530
0.06008193
0.06132131
0.06304656
0.06449782
0.06462568
0.06557251
0.06207936
0.05838067
0.05786464
0.06413752
0.07046851
0.07673994
0.08158363
0.07964629
0.06054387
0.04214000
0.03471946
0.02990798
0.02638160
0.02375050
0.02199504
0.02082114
0.02017538
0.01963223
0.01932844
0.01908108
0.01885012
0.01850036
0.01822325
0.01802646
0.01794929
0.01804786
0.01847507
0.01926773
0.02027856
0.02162549
0.02327834
0.02538941
0.02759124
0.02988478
0.03202572
0.03395317
0.03571174
0.03742581
0.03893884
0.04021703
0.04155696
0.04270026
0.04369178
0.04440606
0.04505906
0.04573987
0.04632316
0.04660784
0.04675899
0.04690616
0.04674064
0.04672400
0.04670869
0.04653054
0.04626087
0.04588368
0.04562774
0.04551492
0.04537549
0.04519207
0.04494160
0.04474011
0.04473397
0.04437478
0.04414516
0.04375887
0.04338536
0.04315051
0.04294230
0.04263152
0.04249915
0.04234364
0.04203165
0.04147559
0.04096653
0.04048199
0.04002783
0.03956327
0.03910403
0.03860491
0.03830340
0.03798970
0.03766386
0.03736085
0.03713787
0.03683373
0.03656596
0.03633866
0.03597986
0.03567548
0.03546905
0.03536940
0.03522525
0.03505857
0.03494139
0.03481320
0.03492978
0.03579847
0.03715700
0.03880428
0.04079520
0.04269003
0.04469061
0.04659993
0.04842671
0.05008231
0.05159055
0.05311348
0.05423556
0.05546721
0.05699900
0.05765601
0.05870608
0.05964698
0.06222973
0.06409745
0.06496401
0.06608095
0.06720924
0.06616615
0.06336069
0.05967650
0.05795061
0.06299217
0.06879965
0.07583752
0.08219827
0.08386399
0.06879927
0.04754877
0.03796225
0.03205695
0.02788370
0.02493463
0.02298707
0.02164126
0.02086398
0.02019959
0.01980859
0.01947087
0.01914596
0.01878747
0.01851592
0.01831608
0.01826096
0.01843026
0.01893601
0.01980559
0.02088296
0.02234171
0.02410058
0.02630599
0.02858916
0.03091839
0.03306954
0.03500496
0.03677629
0.03848195
0.04000780
0.04132306
0.04273923
0.04388294
0.04485668
0.04555815
0.04618334
0.04688336
0.04747941
0.04775688
0.04789592
0.04802144
0.04781747
0.04784375
0.04779562
0.04760373
0.04734112
0.04699824
0.04668457
0.04656389
0.04644137
0.04628988
0.04600597
0.04578465
0.04576458
0.04538347
0.04516243
0.04479179
0.04444403
0.04416341
0.04392174
0.04359377
0.04343114
0.04333076
0.04301773
0.04244775
0.04191595
0.04144228
0.04101698
0.04053425
0.04011111
0.03961662
0.03931739
0.03898413
0.03865627
0.03834304
0.03811998
0.03778063
0.03749701
0.03726330
0.03689089
0.03660037
0.03640191
0.03627396
0.03611927
0.03595863
0.03585834
0.03573267
0.03585880
0.03664960
0.03788860
0.03945829
0.04140093
0.04329887
0.04525997
0.04718644
0.04907414
0.05083874
0.05249545
0.05391023
0.05501675
0.05660810
0.05822915
0.05901374
0.06049297
0.06101340
0.06337071
0.06513268
0.06567221
0.06724030
0.06833188
0.06644781
0.06438569
0.06084040
0.05832687
0.06156277
0.06666723
0.07389193
0.08148984
0.08622693
0.07627890
0.05362421
0.04172655
0.03451560
0.02954549
0.02618557
0.02393653
0.02240976
0.02148943
0.02073028
0.02021174
0.01980424
0.01941025
0.01904093
0.01877346
0.01859351
0.01857165
0.01882151
0.01940539
0.02035373
0.02152051
0.02306172
0.02491925
0.02721014
0.02957481
0.03191766
0.03408343
0.03601141
0.03778034
0.03948349
0.04102482
0.04235808
0.04384418
0.04502757
0.04597064
0.04665857
0.04722804
0.04797907
0.04856473
0.04882706
0.04895763
0.04905146
0.04884133
0.04889087
0.04884524
0.04862534
0.04833007
0.04803276
0.04767856
0.04753004
0.04744722
0.04730268
0.04700173
0.04675861
0.04669068
0.04632587
0.04608826
0.04573079
0.04540641
0.04508760
0.04482946
0.04447690
0.04429043
0.04418680
0.04387379
0.04331021
0.04277008
0.04230628
0.04189503
0.04139802
0.04100212
0.04052413
0.04022291
0.03987983
0.03955197
0.03922802
0.03899948
0.03860927
0.03831612
0.03808047
0.03770865
0.03741379
0.03722999
0.03707331
0.03689086
0.03673555
0.03664880
0.03650845
0.03663748
0.03736649
0.03849222
0.03999694
0.04187474
0.04373365
0.04569081
0.04761176
0.04952621
0.05130080
0.05300564
0.05440253
0.05574710
0.05749588
0.05872542
0.05998996
0.06155715
0.06243825
0.06392873
0.06555058
0.06632748
0.06679566
0.06787252
0.06687395
0.06477503
0.06173405
0.05888393
0.06034813
0.06454984
0.07151357
0.07976128
0.08714572
0.08257713
0.06038733
0.04602181
0.03736146
0.03145699
0.02755792
0.02496935
0.02322534
0.02212494
0.02126175
0.02061471
0.02011649
0.01967145
0.01929557
0.01903618
0.01888245
0.01890862
0.01922863
0.01989493
0.02092165
0.02219529
0.02379706
0.02574159
0.02811603
0.03054348
0.03290589
0.03508209
0.03699726
0.03873033
0.04045018
0.04201505
0.04336718
0.04491419
0.04616061
0.04706867
0.04773007
0.04825608
0.04904443
0.04961090
0.04984265
0.04997493
0.05003665
0.04985904
0.04989154
0.04988138
0.04959930
0.04925930
0.04901494
0.04865290
0.04848623
0.04842811
0.04824569
0.04794582
0.04769049
0.04757223
0.04723755
0.04694296
0.04661955
0.04631383
0.04597988
0.04570310
0.04530466
0.04511742
0.04494658
0.04463435
0.04407775
0.04355859
0.04310034
0.04268542
0.04219157
0.04178693
0.04136658
0.04105259
0.04069419
0.04037060
0.04004061
0.03980258
0.03936956
0.03906895
0.03883147
0.03846230
0.03815652
0.03797082
0.03779287
0.03758181
0.03742089
0.03734766
0.03718188
0.03730006
0.03797557
0.03901082
0.04045433
0.04224059
0.04405973
0.04597341
0.04785069
0.04980396
0.05160825
0.05332300
0.05481356
0.05625438
0.05793564
0.05921182
0.06072289
0.06185009
0.06348016
0.06448120
0.06612206
0.06688575
0.06736754
0.06728338
0.06714093
0.06500519
0.06233160
0.05954336
0.05964605
0.06279698
0.06901849
0.07740957
0.08676853
0.08741752
0.06758016
0.05086358
0.04066487
0.03365702
0.02914201
0.02608335
0.02410987
0.02282015
0.02182487
0.02104497
0.02044581
0.01994708
0.01956329
0.01931717
0.01920175
0.01928237
0.01966716
0.02041125
0.02150901
0.02289555
0.02455794
0.02658154
0.02902661
0.03149247
0.03388110
0.03607243
0.03797400
0.03966005
0.04140094
0.04300616
0.04439602
0.04599477
0.04727662
0.04817352
0.04879955
0.04929913
0.05010725
0.05063287
0.05084178
0.05098446
0.05101314
0.05086089
0.05087324
0.05089254
0.05052557
0.05017859
0.04996917
0.04961537
0.04945772
0.04940066
0.04915783
0.04884683
0.04858954
0.04843145
0.04812675
0.04776703
0.04747698
0.04719529
0.04686130
0.04655864
0.04611028
0.04590353
0.04564981
0.04533617
0.04479337
0.04431260
0.04385621
0.04343799
0.04294990
0.04249819
0.04214879
0.04183412
0.04145059
0.04113377
0.04080641
0.04054682
0.04009613
0.03977948
0.03953683
0.03917434
0.03885529
0.03864963
0.03845532
0.03821979
0.03803778
0.03797175
0.03779411
0.03788645
0.03849937
0.03946089
0.04082316
0.04252526
0.04429454
0.04614598
0.04796058
0.04990724
0.05172364
0.05344160
0.05507347
0.05665621
0.05821675
0.05949519
0.06100318
0.06218480
0.06418595
0.06468314
0.06645402
0.06695392
0.06861557
0.06751221
0.06706328
0.06508525
0.06267558
0.06011925
0.05932231
0.06141152
0.06664606
0.07472455
0.08527531
0.09056480
0.07484839
0.05626033
0.04445757
0.03619631
0.03090711
0.02736930
0.02509484
0.02359670
0.02243924
0.02151629
0.02080584
0.02026824
0.01986800
0.01963454
0.01956375
0.01968933
0.02013881
0.02096519
0.02211867
0.02361767
0.02535017
0.02745277
0.02993877
0.03244112
0.03484645
0.03705762
0.03894875
0.04061936
0.04237863
0.04402970
0.04548234
0.04711526
0.04838016
0.04928392
0.04986896
0.05037729
0.05117380
0.05164677
0.05185316
0.05199587
0.05200539
0.05185972
0.05185852
0.05188672
0.05144870
0.05114283
0.05092644
0.05059824
0.05043700
0.05036474
0.05007541
0.04971521
0.04946941
0.04927905
0.04900458
0.04859953
0.04831546
0.04806505
0.04774032
0.04739668
0.04689658
0.04665823
0.04634890
0.04600830
0.04549621
0.04505548
0.04460694
0.04418431
0.04369460
0.04318848
0.04287279
0.04259048
0.04217110
0.04185810
0.04154760
0.04126115
0.04079442
0.04045482
0.04019094
0.03985168
0.03952018
0.03928843
0.03907415
0.03881626
0.03860323
0.03854915
0.03837245
0.03841391
0.03896377
0.03985688
0.04112100
0.04274767
0.04445435
0.04626624
0.04799771
0.04989881
0.05171600
0.05345896
0.05520137
0.05683940
0.05827696
0.05984641
0.06113291
0.06233419
0.06432398
0.06561195
0.06653972
0.06687713
0.06890037
0.06808266
0.06663014
0.06486776
0.06282846
0.06054332
0.05925184
0.06039468
0.06454041
0.07194517
0.08298728
0.09214440
0.08176977
0.06216904
0.04877329
0.03915539
0.03298419
0.02887157
0.02622474
0.02450269
0.02312998
0.02205747
0.02124093
0.02064451
0.02021601
0.02000049
0.01998025
0.02013606
0.02065096
0.02155963
0.02275467
0.02435691
0.02616569
0.02834967
0.03086902
0.03341899
0.03581906
0.03804230
0.03995199
0.04163340
0.04341172
0.04511143
0.04662123
0.04828059
0.04947150
0.05038970
0.05095174
0.05149375
0.05224751
0.05268286
0.05289725
0.05302468
0.05301361
0.05287310
0.05289336
0.05287044
0.05242649
0.05215474
0.05192284
0.05162424
0.05144467
0.05131214
0.05100090
0.05058544
0.05035065
0.05013752
0.04989177
0.04945962
0.04916495
0.04892674
0.04860806
0.04819806
0.04768558
0.04741018
0.04707189
0.04669256
0.04621372
0.04578581
0.04537246
0.04492857
0.04442840
0.04388483
0.04357357
0.04332718
0.04287745
0.04256253
0.04227111
0.04196300
0.04147841
0.04112162
0.04080317
0.04049084
0.04016653
0.03989964
0.03966623
0.03937920
0.03913424
0.03910390
0.03893027
0.03891178
0.03938412
0.04021080
0.04138370
0.04292193
0.04457206
0.04632855
0.04798744
0.04983712
0.05165037
0.05348816
0.05520511
0.05678880
0.05829512
0.05991236
0.06112195
0.06271559
0.06389079
0.06614299
0.06646695
0.06694505
0.06690642
0.06787227
0.06616212
0.06459436
0.06278976
0.06080427
0.05930399
0.05967290
0.06276151
0.06924793
0.08017743
0.09222039
0.08780610
0.06845356
0.05361077
0.04256493
0.03538002
0.03063376
0.02752794
0.02554257
0.02394097
0.02268328
0.02176133
0.02109562
0.02063212
0.02043047
0.02046557
0.02064051
0.02121915
0.02220398
0.02343351
0.02512281
0.02701338
0.02927315
0.03182275
0.03443246
0.03683582
0.03905587
0.04099348
0.04272434
0.04451848
0.04625925
0.04782308
0.04948133
0.05061306
0.05154306
0.05207006
0.05266143
0.05335971
0.05379410
0.05399412
0.05410648
0.05406100
0.05392831
0.05397024
0.05384348
0.05348337
0.05321116
0.05296272
0.05265832
0.05248266
0.05225014
0.05192690
0.05149975
0.05125546
0.05103995
0.05079212
0.05035716
0.05005117
0.04978331
0.04944582
0.04897359
0.04848964
0.04817555
0.04782334
0.04742831
0.04695364
0.04653562
0.04613914
0.04566878
0.04516020
0.04460131
0.04427367
0.04404103
0.04359059
0.04326954
0.04298211
0.04265344
0.04215873
0.04178803
0.04140255
0.04109309
0.04080264
0.04049209
0.04024423
0.03992028
0.03965150
0.03963852
0.03947985
0.03941579
0.03979946
0.04054444
0.04162644
0.04307979
0.04465863
0.04633555
0.04794387
0.04974280
0.05153199
0.05338102
0.05508701
0.05664107
0.05832022
0.05977466
0.06108591
0.06279029
0.06375309
0.06563840
0.06621184
0.06670028
0.06598259
0.06665615
0.06567088
0.06417741
0.06258447
0.06087989
0.05936370
0.05914911
0.06127191
0.06674965
0.07708078
0.09095574
0.09245466
0.07497093
0.05892480
0.04646545
0.03819479
0.03267050
0.02905812
0.02674433
0.02489141
0.02343569
0.02238766
0.02164184
0.02114271
0.02093061
0.02102960
0.02122471
0.02185565
0.02290483
0.02417709
0.02593486
0.02791110
0.03023211
0.03279582
0.03548515
0.03790243
0.04013881
0.04209481
0.04386357
0.04570167
0.04749213
0.04908148
0.05072522
0.05184796
0.05274977
0.05325196
0.05386794
0.05452092
0.05499087
0.05515297
0.05522974
0.05515559
0.05502911
0.05507085
0.05486177
0.05458752
0.05433445
0.05405831
0.05372187
0.05351673
0.05320730
0.05286085
0.05246964
0.05221698
0.05199996
0.05172707
0.05132166
0.05096820
0.05066705
0.05028990
0.04976041
0.04930944
0.04895292
0.04860212
0.04820490
0.04773065
0.04731537
0.04690192
0.04642350
0.04588953
0.04534853
0.04499624
0.04475919
0.04432106
0.04398960
0.04369156
0.04334160
0.04284912
0.04244902
0.04200132
0.04168753
0.04144001
0.04107566
0.04080598
0.04046394
0.04018378
0.04015634
0.04002346
0.03992026
0.04021213
0.04086396
0.04183823
0.04322342
0.04473563
0.04630989
0.04787745
0.04962679
0.05136958
0.05321251
0.05490598
0.05652759
0.05814630
0.05955698
0.06108068
0.06256165
0.06373137
0.06507104
0.06593396
0.06605937
0.06610656
0.06583893
0.06505451
0.06366152
0.06228086
0.06079708
0.05936890
0.05873309
0.06005703
0.06450476
0.07392132
0.08866161
0.09555821
0.08154190
0.06470301
0.05088328
0.04143772
0.03502717
0.03083831
0.02814611
0.02600741
0.02434482
0.02314563
0.02231210
0.02176088
0.02151445
0.02168332
0.02190572
0.02256236
0.02367336
0.02500125
0.02679941
0.02887227
0.03124129
0.03381116
0.03659948
0.03901647
0.04129621
0.04325651
0.04504460
0.04695493
0.04881526
0.05042043
0.05203899
0.05318834
0.05399637
0.05448894
0.05512334
0.05576711
0.05624884
0.05637411
0.05636681
0.05628498
0.05618492
0.05618358
0.05596868
0.05573478
0.05552206
0.05521519
0.05484537
0.05456891
0.05421451
0.05382098
0.05348034
0.05325713
0.05302141
0.05271130
0.05233131
0.05190937
0.05158638
0.05116857
0.05059620
0.05015451
0.04977334
0.04942099
0.04898611
0.04854401
0.04812453
0.04766795
0.04718705
0.04663593
0.04614438
0.04575330
0.04550019
0.04506373
0.04472823
0.04441161
0.04403593
0.04355614
0.04310994
0.04262348
0.04230667
0.04207974
0.04166706
0.04136425
0.04102816
0.04073710
0.04065948
0.04054225
0.04040239
0.04060644
0.04116667
0.04204463
0.04335700
0.04479487
0.04628234
0.04781386
0.04948694
0.05119349
0.05303454
0.05473309
0.05632971
0.05783689
0.05938642
0.06097610
0.06223567
0.06387352
0.06470612
0.06545634
0.06599642
0.06604888
0.06532842
0.06437281
0.06310208
0.06184471
0.06058028
0.05927627
0.05835842
0.05905036
0.06252705
0.07085992
0.08560803
0.09692837
0.08767616
0.07081726
0.05584297
0.04516139
0.03778246
0.03292528
0.02978008
0.02731568
0.02543393
0.02406421
0.02312536
0.02249573
0.02221554
0.02243507
0.02268972
0.02335670
0.02452923
0.02590057
0.02772821
0.02989744
0.03230314
0.03490445
0.03778496
0.04021547
0.04251008
0.04446104
0.04630125
0.04828988
0.05021889
0.05182939
0.05342752
0.05459832
0.05530303
0.05574618
0.05642758
0.05704352
0.05752915
0.05764232
0.05753897
0.05745280
0.05740467
0.05732791
0.05716861
0.05696611
0.05674523
0.05642434
0.05602020
0.05568743
0.05527923
0.05484204
0.05454545
0.05435244
0.05411883
0.05373602
0.05336672
0.05287507
0.05250762
0.05208376
0.05147713
0.05103427
0.05064540
0.05027048
0.04977730
0.04937306
0.04896388
0.04845460
0.04797508
0.04744600
0.04699211
0.04654018
0.04624710
0.04581267
0.04548116
0.04514188
0.04473328
0.04427527
0.04378877
0.04327636
0.04294560
0.04269288
0.04226566
0.04193348
0.04162029
0.04130188
0.04116189
0.04103763
0.04086731
0.04100126
0.04148149
0.04230093
0.04351558
0.04484033
0.04626309
0.04776390
0.04935995
0.05106066
0.05285347
0.05452354
0.05606192
0.05756826
0.05910280
0.06059180
0.06191264
0.06350007
0.06436315
0.06490064
0.06482284
0.06512062
0.06467127
0.06363799
0.06242538
0.06133206
0.06023795
0.05907615
0.05796967
0.05820828
0.06080945
0.06797554
0.08204769
0.09668259
0.09307776
0.07715384
0.06129723
0.04936744
0.04098734
0.03535737
0.03168737
0.02885695
0.02672392
0.02516598
0.02409570
0.02336617
0.02304787
0.02327392
0.02357703
0.02425701
0.02547903
0.02687796
0.02874118
0.03097648
0.03342356
0.03610037
0.03901246
0.04148914
0.04377686
0.04572892
0.04767053
0.04972644
0.05169502
0.05330346
0.05486617
0.05605884
0.05672516
0.05704567
0.05777997
0.05833437
0.05878265
0.05894409
0.05878793
0.05869928
0.05868846
0.05854377
0.05844857
0.05829006
0.05801583
0.05767971
0.05722675
0.05686996
0.05643090
0.05595559
0.05565496
0.05548849
0.05528220
0.05483432
0.05445716
0.05385976
0.05343873
0.05299996
0.05240049
0.05195949
0.05154764
0.05114561
0.05062463
0.05022576
0.04983231
0.04928148
0.04879782
0.04831265
0.04784622
0.04734289
0.04699728
0.04658091
0.04625290
0.04587805
0.04543938
0.04500617
0.04448378
0.04395188
0.04360162
0.04328893
0.04286859
0.04252255
0.04221794
0.04186282
0.04167654
0.04152591
0.04133033
0.04142867
0.04184952
0.04262389
0.04369653
0.04490483
0.04627021
0.04772616
0.04926255
0.05093970
0.05264643
0.05425613
0.05576985
0.05731378
0.05877421
0.06008220
0.06171596
0.06270636
0.06374389
0.06424046
0.06407808
0.06431860
0.06385841
0.06282717
0.06171901
0.06074390
0.05981899
0.05877604
0.05755583
0.05747005
0.05933349
0.06537856
0.07829466
0.09498401
0.09724600
0.08347583
0.06716636
0.05409454
0.04465412
0.03817744
0.03391427
0.03067179
0.02823526
0.02645316
0.02523369
0.02440820
0.02402631
0.02421405
0.02455266
0.02525789
0.02651747