/*--------------------------------*- C++ -*----------------------------------*\
  =========                 |
  \\      /  F ield         | OpenFOAM: The Open Source CFD Toolbox
   \\    /   O peration     | Website:  https://openfoam.org
    \\  /    A nd           | Version:  7
     \\/     M anipulation  |
\*---------------------------------------------------------------------------*/
FoamFile
{
    version     2.0;
    format      ascii;
    class       volSymmTensorField;
    location    "0";
    object      tauij_LES;
}
// * * * * * * * * * * * * * * * * * * * * * * * * * * * * * * * * * * * * * //

dimensions      [0 2 -2 0 0 0 0];

internalField   nonuniform List<symmTensor>
15600
(
(0.00508441 -0.00006462 0.00000000 0.00002297 0.00000000 0.00328858)
(0.00597970 -0.00003332 0.00000000 -0.00001253 0.00000000 0.00344467)
(0.00143971 -0.00084272 0.00000000 0.00056968 0.00000000 0.00370849)
(0.00083330 0.00012535 0.00000000 -0.00010064 0.00000000 0.00072826)
(0.00066853 -0.00036139 0.00000000 0.00022495 0.00000000 0.00073189)
(0.00197323 -0.00147488 0.00000000 0.00106485 0.00000000 0.00275596)
(0.00384339 -0.00278097 0.00000000 0.00211008 0.00000000 0.00513590)
(0.00143295 -0.00101930 0.00000000 0.00071566 0.00000000 0.00181371)
(0.00134414 -0.00104291 0.00000000 0.00082295 0.00000000 0.00241536)
(0.00045112 -0.00017136 0.00000000 -0.00005270 0.00000000 0.00052877)
(0.00017658 -0.00028846 0.00000000 0.00041083 0.00000000 0.00125544)
(0.00052796 -0.00034080 0.00000000 0.00021972 0.00000000 0.00087992)
(0.00018025 -0.00025771 0.00000000 0.00033286 0.00000000 0.00062833)
(0.00056021 -0.00038534 0.00000000 0.00027053 0.00000000 0.00098844)
(0.00029047 -0.00028285 0.00000000 0.00028991 0.00000000 0.00113771)
(0.00026593 -0.00007225 0.00000000 -0.00004248 0.00000000 0.00029744)
(0.00032567 -0.00020554 0.00000000 0.00013225 0.00000000 0.00067639)
(0.00049305 -0.00035504 0.00000000 0.00025882 0.00000000 0.00104547)
(0.00032927 -0.00037176 0.00000000 0.00040469 0.00000000 0.00123034)
(0.00085053 -0.00049593 0.00000000 0.00028927 0.00000000 0.00109608)
(0.00051641 -0.00028147 0.00000000 0.00015409 0.00000000 0.00070275)
(0.00142583 -0.00076442 0.00000000 0.00042264 0.00000000 0.00198547)
(0.00124458 -0.00041179 0.00000000 0.00014813 0.00000000 0.00199110)
(0.00091827 -0.00032389 0.00000000 0.00013506 0.00000000 0.00090351)
(0.00117790 -0.00052612 0.00000000 0.00024098 0.00000000 0.00150751)
(0.00159946 -0.00016301 0.00000000 0.00003232 0.00000000 0.00166290)
(0.00247454 -0.00047077 0.00000000 0.00010682 0.00000000 0.00220738)
(0.00194028 -0.00000392 0.00000000 0.00000271 0.00000000 0.00185366)
(0.00168723 0.00000439 0.00000000 -0.00000422 0.00000000 0.00151795)
(0.00194865 0.00000490 0.00000000 -0.00000424 0.00000000 0.00178676)
(0.00216328 0.00000681 0.00000000 -0.00000090 0.00000000 0.00208631)
(0.00222874 0.00000648 0.00000000 -0.00000626 0.00000000 0.00227019)
(0.00245879 0.00000761 0.00000000 -0.00000532 0.00000000 0.00253219)
(0.00259492 0.00000889 0.00000000 -0.00000554 0.00000000 0.00276047)
(0.00269994 0.00000791 0.00000000 -0.00000453 0.00000000 0.00296181)
(0.00284370 0.00000871 0.00000000 -0.00000655 0.00000000 0.00313542)
(0.00299142 0.00000981 0.00000000 0.00000045 0.00000000 0.00340973)
(0.00300888 0.00000984 0.00000000 -0.00000269 0.00000000 0.00353665)
(0.00302264 0.00000894 0.00000000 -0.00000663 0.00000000 0.00355928)
(0.00299926 0.00000710 0.00000000 -0.00000783 0.00000000 0.00359508)
(0.00304796 0.00000759 0.00000000 -0.00000796 0.00000000 0.00365002)
(0.00316384 0.00000581 0.00000000 -0.00000189 0.00000000 0.00374279)
(0.00314194 0.00000774 0.00000000 -0.00000720 0.00000000 0.00374637)
(0.00312134 0.00000715 0.00000000 -0.00000723 0.00000000 0.00382438)
(0.00307528 0.00000602 0.00000000 -0.00000650 0.00000000 0.00385276)
(0.00304397 0.00000356 0.00000000 -0.00000763 0.00000000 0.00379792)
(0.00306365 0.00000369 0.00000000 -0.00000709 0.00000000 0.00371130)
(0.00308113 0.00000288 0.00000000 -0.00000099 0.00000000 0.00374249)
(0.00311246 0.00000092 0.00000000 0.00000037 0.00000000 0.00369647)
(0.00299893 0.00000280 0.00000000 -0.00000737 0.00000000 0.00351716)
(0.00292607 0.00000288 0.00000000 -0.00000786 0.00000000 0.00342058)
(0.00286498 0.00000279 0.00000000 -0.00000694 0.00000000 0.00338563)
(0.00280972 0.00000055 0.00000000 -0.00000490 0.00000000 0.00341802)
(0.00281889 -0.00000050 0.00000000 -0.00000535 0.00000000 0.00333885)
(0.00281348 0.00000026 0.00000000 -0.00000495 0.00000000 0.00327846)
(0.00278910 0.00000084 0.00000000 -0.00000613 0.00000000 0.00322277)
(0.00274267 0.00000069 0.00000000 -0.00000712 0.00000000 0.00315397)
(0.00268551 0.00000130 0.00000000 -0.00000699 0.00000000 0.00313355)
(0.00266742 -0.00000068 0.00000000 -0.00000627 0.00000000 0.00313468)
(0.00272695 -0.00000327 0.00000000 0.00000000 0.00000000 0.00321499)
(0.00266032 -0.00000348 0.00000000 -0.00000125 0.00000000 0.00310285)
(0.00254253 -0.00000147 0.00000000 -0.00000551 0.00000000 0.00297835)
(0.00245969 -0.00000051 0.00000000 -0.00000598 0.00000000 0.00291570)
(0.00241237 -0.00000124 0.00000000 -0.00000631 0.00000000 0.00287000)
(0.00237359 -0.00000218 0.00000000 -0.00000351 0.00000000 0.00284527)
(0.00234949 -0.00000351 0.00000000 -0.00000269 0.00000000 0.00278200)
(0.00222832 -0.00000184 0.00000000 -0.00000464 0.00000000 0.00269300)
(0.00218898 -0.00000333 0.00000000 -0.00000370 0.00000000 0.00263124)
(0.00206308 -0.00000060 0.00000000 -0.00000596 0.00000000 0.00251116)
(0.00201703 -0.00000154 0.00000000 -0.00000561 0.00000000 0.00243975)
(0.00205510 -0.00000211 0.00000000 -0.00000421 0.00000000 0.00242477)
(0.00208403 -0.00000533 0.00000000 -0.00000126 0.00000000 0.00242749)
(0.00197667 -0.00000169 0.00000000 -0.00000412 0.00000000 0.00230540)
(0.00193538 -0.00000337 0.00000000 -0.00000256 0.00000000 0.00227202)
(0.00181680 -0.00000189 0.00000000 -0.00000415 0.00000000 0.00216148)
(0.00176150 -0.00000202 0.00000000 -0.00000392 0.00000000 0.00210854)
(0.00169919 -0.00000111 0.00000000 -0.00000439 0.00000000 0.00205110)
(0.00165625 -0.00000264 0.00000000 -0.00000314 0.00000000 0.00204580)
(0.00160253 -0.00000228 0.00000000 -0.00000332 0.00000000 0.00198151)
(0.00156254 -0.00000165 0.00000000 -0.00000333 0.00000000 0.00193878)
(0.00151889 -0.00000166 0.00000000 -0.00000356 0.00000000 0.00187732)
(0.00149179 -0.00000137 0.00000000 -0.00000345 0.00000000 0.00183914)
(0.00149264 -0.00000227 0.00000000 -0.00000226 0.00000000 0.00183481)
(0.00143050 -0.00000117 0.00000000 -0.00000298 0.00000000 0.00178990)
(0.00136656 -0.00000142 0.00000000 -0.00000254 0.00000000 0.00178023)
(0.00129618 -0.00000066 0.00000000 -0.00000319 0.00000000 0.00171353)
(0.00127321 -0.00000073 0.00000000 -0.00000298 0.00000000 0.00169812)
(0.00122994 -0.00000009 0.00000000 -0.00000300 0.00000000 0.00169024)
(0.00115130 -0.00000002 0.00000000 -0.00000313 0.00000000 0.00167665)
(0.00111156 -0.00000012 0.00000000 -0.00000254 0.00000000 0.00169502)
(0.00108307 0.00000019 0.00000000 -0.00000259 0.00000000 0.00170844)
(0.00104505 0.00000042 0.00000000 -0.00000210 0.00000000 0.00177225)
(0.00148701 -0.00000530 0.00000000 0.00000314 0.00000000 0.00282852)
(0.00124392 0.00003144 0.00000000 -0.00000090 0.00000000 0.00335479)
(0.00071223 0.00012668 0.00000000 0.00004977 0.00000000 0.00329584)
(0.00019856 0.00001318 0.00000000 -0.00000896 0.00000000 0.00044152)
(0.00028099 -0.00004315 0.00000000 -0.00005699 0.00000000 0.00064440)
(0.00021468 0.00011596 0.00000000 0.00005834 0.00000000 0.00143381)
(0.00020546 0.00009627 0.00000000 0.00004255 0.00000000 0.00074885)
(-0.00004941 -0.00002527 0.00000000 -0.00001485 0.00000000 -0.00012636)
(0.00003799 0.00002576 0.00000000 0.00001569 0.00000000 0.00014429)
(-0.00005801 -0.00006100 0.00000000 -0.00006210 0.00000000 -0.00055229)
(-0.00008064 -0.00005966 0.00000000 -0.00004406 0.00000000 0.00014149)
(-0.00001196 -0.00002219 0.00000000 -0.00002781 0.00000000 -0.00016671)
(-0.00014520 -0.00008855 0.00000000 -0.00004807 0.00000000 -0.00026322)
(-0.00007846 -0.00004851 0.00000000 -0.00002926 0.00000000 -0.00014674)
(-0.00012819 -0.00009961 0.00000000 -0.00008236 0.00000000 -0.00035038)
(-0.00011479 -0.00013676 0.00000000 -0.00015258 0.00000000 -0.00089723)
(-0.00004586 -0.00002394 0.00000000 -0.00001114 0.00000000 -0.00031151)
(-0.00015757 -0.00015609 0.00000000 -0.00015320 0.00000000 -0.00104496)
(-0.00002107 0.00001179 0.00000000 0.00003956 0.00000000 -0.00009364)
(-0.00013706 -0.00009326 0.00000000 -0.00005176 0.00000000 -0.00093164)
(-0.00014260 -0.00009849 0.00000000 -0.00006638 0.00000000 -0.00046485)
(0.00021259 0.00018228 0.00000000 0.00013321 0.00000000 0.00040236)
(-0.00059953 -0.00042542 0.00000000 -0.00030373 0.00000000 -0.00116285)
(0.00009211 -0.00004945 0.00000000 -0.00004811 0.00000000 0.00001887)
(0.00026823 -0.00012162 0.00000000 -0.00000384 0.00000000 0.00057741)
(-0.00014939 -0.00000635 0.00000000 0.00000597 0.00000000 -0.00001108)
(0.00132104 -0.00002101 0.00000000 -0.00000065 0.00000000 0.00154613)
(0.00292634 -0.00001865 0.00000000 0.00000352 0.00000000 0.00245086)
(0.01314125 -0.00029364 0.00000000 0.00017229 0.00000000 0.00740127)
(0.01592251 -0.00034611 0.00000000 0.00021247 0.00000000 0.00837355)
(0.00857556 -0.00286318 0.00000000 0.00128743 0.00000000 0.00792816)
(0.00511968 -0.00064333 0.00000000 0.00003908 0.00000000 0.00430353)
(0.00442337 -0.00130887 0.00000000 0.00062890 0.00000000 0.00443961)
(0.00461059 -0.00336180 0.00000000 0.00269064 0.00000000 0.00688759)
(0.00759557 -0.00544937 0.00000000 0.00440629 0.00000000 0.01057433)
(0.00413562 -0.00291023 0.00000000 0.00218146 0.00000000 0.00538552)
(0.00257358 -0.00198134 0.00000000 0.00162206 0.00000000 0.00486569)
(0.00245473 -0.00171087 0.00000000 0.00120547 0.00000000 0.00345854)
(0.00129125 -0.00151586 0.00000000 0.00180949 0.00000000 0.00317589)
(0.00227815 -0.00165131 0.00000000 0.00124445 0.00000000 0.00362355)
(0.00170742 -0.00142798 0.00000000 0.00126263 0.00000000 0.00230033)
(0.00218593 -0.00154438 0.00000000 0.00113468 0.00000000 0.00335815)
(0.00165294 -0.00153751 0.00000000 0.00151371 0.00000000 0.00313227)
(0.00229938 -0.00149208 0.00000000 0.00099076 0.00000000 0.00260496)
(0.00207499 -0.00153489 0.00000000 0.00117461 0.00000000 0.00310756)
(0.00203888 -0.00161055 0.00000000 0.00135391 0.00000000 0.00320731)
(0.00274681 -0.00226147 0.00000000 0.00192702 0.00000000 0.00336622)
(0.00332492 -0.00197211 0.00000000 0.00122706 0.00000000 0.00387506)
(0.00357667 -0.00201437 0.00000000 0.00119016 0.00000000 0.00404546)
(0.00445260 -0.00227144 0.00000000 0.00128948 0.00000000 0.00561847)
(0.00471264 -0.00175427 0.00000000 0.00078005 0.00000000 0.00533189)
(0.00527287 -0.00197104 0.00000000 0.00087715 0.00000000 0.00535453)
(0.00565031 -0.00195761 0.00000000 0.00083883 0.00000000 0.00587719)
(0.00664888 -0.00110147 0.00000000 0.00036298 0.00000000 0.00642571)
(0.00751168 -0.00112642 0.00000000 0.00040356 0.00000000 0.00734583)
(0.00720039 -0.00001684 0.00000000 0.00017683 0.00000000 0.00668416)
(0.00753714 0.00002609 0.00000000 0.00015191 0.00000000 0.00687207)
(0.00836163 0.00004402 0.00000000 0.00017324 0.00000000 0.00794322)
(0.00888645 0.00005103 0.00000000 0.00019668 0.00000000 0.00897504)
(0.00937026 0.00004947 0.00000000 0.00022229 0.00000000 0.00996549)
(0.01008186 0.00004858 0.00000000 0.00024119 0.00000000 0.01094375)
(0.01051777 0.00005334 0.00000000 0.00025784 0.00000000 0.01181910)
(0.01091994 0.00003202 0.00000000 0.00026480 0.00000000 0.01262428)
(0.01134764 0.00003831 0.00000000 0.00027758 0.00000000 0.01344235)
(0.01158096 0.00003089 0.00000000 0.00029753 0.00000000 0.01403497)
(0.01175747 0.00002958 0.00000000 0.00031215 0.00000000 0.01464652)
(0.01196864 0.00001747 0.00000000 0.00031944 0.00000000 0.01491851)
(0.01204927 -0.00000458 0.00000000 0.00032068 0.00000000 0.01512889)
(0.01225215 -0.00001109 0.00000000 0.00032934 0.00000000 0.01532978)
(0.01246860 -0.00002141 0.00000000 0.00033260 0.00000000 0.01540732)
(0.01252908 -0.00001066 0.00000000 0.00033715 0.00000000 0.01566427)
(0.01245177 -0.00002179 0.00000000 0.00033959 0.00000000 0.01588254)
(0.01233891 -0.00003220 0.00000000 0.00033671 0.00000000 0.01599129)
(0.01245880 -0.00006832 0.00000000 0.00033920 0.00000000 0.01592376)
(0.01258340 -0.00005812 0.00000000 0.00032602 0.00000000 0.01561487)
(0.01242814 -0.00005797 0.00000000 0.00033354 0.00000000 0.01532955)
(0.01258393 -0.00007429 0.00000000 0.00031715 0.00000000 0.01512184)
(0.01239509 -0.00007143 0.00000000 0.00031802 0.00000000 0.01478775)
(0.01230533 -0.00008395 0.00000000 0.00030829 0.00000000 0.01452645)
(0.01209351 -0.00007835 0.00000000 0.00029863 0.00000000 0.01438246)
(0.01188709 -0.00010040 0.00000000 0.00029112 0.00000000 0.01434957)
(0.01191601 -0.00011325 0.00000000 0.00028297 0.00000000 0.01412748)
(0.01200580 -0.00011795 0.00000000 0.00028330 0.00000000 0.01392570)
(0.01198943 -0.00011329 0.00000000 0.00028109 0.00000000 0.01377638)
(0.01189405 -0.00011743 0.00000000 0.00028003 0.00000000 0.01359672)
(0.01171613 -0.00011364 0.00000000 0.00027582 0.00000000 0.01347301)
(0.01163409 -0.00013328 0.00000000 0.00027006 0.00000000 0.01338998)
(0.01156808 -0.00012985 0.00000000 0.00025796 0.00000000 0.01339032)
(0.01149214 -0.00014046 0.00000000 0.00025081 0.00000000 0.01310108)
(0.01134073 -0.00014371 0.00000000 0.00024793 0.00000000 0.01284400)
(0.01113793 -0.00013966 0.00000000 0.00024361 0.00000000 0.01262260)
(0.01097158 -0.00015489 0.00000000 0.00024120 0.00000000 0.01244647)
(0.01079518 -0.00014275 0.00000000 0.00022621 0.00000000 0.01232194)
(0.01065872 -0.00015443 0.00000000 0.00022142 0.00000000 0.01206468)
(0.01043091 -0.00015091 0.00000000 0.00021213 0.00000000 0.01189124)
(0.01024857 -0.00015808 0.00000000 0.00020608 0.00000000 0.01156326)
(0.00995986 -0.00014830 0.00000000 0.00020277 0.00000000 0.01129229)
(0.00981168 -0.00016561 0.00000000 0.00019778 0.00000000 0.01097682)
(0.00978116 -0.00015952 0.00000000 0.00019528 0.00000000 0.01076810)
(0.00973151 -0.00016598 0.00000000 0.00018708 0.00000000 0.01054956)
(0.00953425 -0.00015464 0.00000000 0.00018556 0.00000000 0.01024554)
(0.00928783 -0.00015170 0.00000000 0.00017392 0.00000000 0.01004595)
(0.00903398 -0.00015495 0.00000000 0.00016664 0.00000000 0.00979985)
(0.00879982 -0.00015846 0.00000000 0.00016205 0.00000000 0.00954070)
(0.00861817 -0.00015571 0.00000000 0.00016170 0.00000000 0.00934683)
(0.00835262 -0.00015685 0.00000000 0.00015333 0.00000000 0.00923229)
(0.00815820 -0.00015783 0.00000000 0.00015061 0.00000000 0.00902416)
(0.00799625 -0.00015252 0.00000000 0.00014311 0.00000000 0.00885498)
(0.00786512 -0.00015263 0.00000000 0.00013787 0.00000000 0.00864544)
(0.00770867 -0.00014861 0.00000000 0.00013634 0.00000000 0.00848169)
(0.00757842 -0.00014206 0.00000000 0.00012935 0.00000000 0.00839597)
(0.00735091 -0.00013576 0.00000000 0.00012685 0.00000000 0.00826580)
(0.00703095 -0.00013106 0.00000000 0.00012582 0.00000000 0.00817634)
(0.00680662 -0.00013317 0.00000000 0.00011970 0.00000000 0.00806410)
(0.00662387 -0.00012914 0.00000000 0.00011790 0.00000000 0.00801447)
(0.00635462 -0.00011489 0.00000000 0.00011585 0.00000000 0.00798455)
(0.00596589 -0.00011369 0.00000000 0.00011277 0.00000000 0.00800757)
(0.00566336 -0.00010872 0.00000000 0.00010694 0.00000000 0.00809882)
(0.00536208 -0.00009949 0.00000000 0.00010725 0.00000000 0.00820873)
(0.00497853 -0.00009091 0.00000000 0.00010452 0.00000000 0.00847583)
(0.00519634 -0.00007458 0.00000000 0.00014970 0.00000000 0.01058611)
(0.00498915 0.00053485 0.00000000 0.00020770 0.00000000 0.01320273)
(0.00466102 0.00082229 0.00000000 0.00029026 0.00000000 0.01388661)
(0.00431390 0.00103897 0.00000000 0.00033296 0.00000000 0.01094282)
(0.00381168 0.00114251 0.00000000 0.00041643 0.00000000 0.01120011)
(0.00396935 0.00166110 0.00000000 0.00078557 0.00000000 0.01313860)
(0.00338211 0.00190545 0.00000000 0.00113060 0.00000000 0.01155334)
(0.00147291 0.00080644 0.00000000 0.00044786 0.00000000 0.00503855)
(0.00189634 0.00114140 0.00000000 0.00069311 0.00000000 0.00728339)
(0.00046685 0.00017813 0.00000000 0.00001814 0.00000000 0.00151415)
(0.00034910 0.00046849 0.00000000 0.00055072 0.00000000 0.00355785)
(0.00023837 0.00018147 0.00000000 0.00015293 0.00000000 0.00367086)
(0.00045778 0.00027119 0.00000000 0.00017321 0.00000000 0.00273304)
(0.00037524 0.00033843 0.00000000 0.00031463 0.00000000 0.00185099)
(0.00025728 0.00014304 0.00000000 0.00007358 0.00000000 0.00322546)
(0.00010876 -0.00000678 0.00000000 -0.00009368 0.00000000 0.00027562)
(0.00031670 0.00017526 0.00000000 0.00009182 0.00000000 0.00278282)
(-0.00031017 -0.00034156 0.00000000 -0.00036977 0.00000000 -0.00195410)
(-0.00001981 -0.00002804 0.00000000 -0.00002696 0.00000000 0.00092694)
(-0.00007354 -0.00009865 0.00000000 -0.00010706 0.00000000 0.00157449)
(0.00099634 0.00067330 0.00000000 0.00045422 0.00000000 0.00346770)
(0.00235028 0.00171771 0.00000000 0.00121687 0.00000000 0.00656789)
(0.00145662 0.00101979 0.00000000 0.00071520 0.00000000 0.00307331)
(0.00000611 0.00001266 0.00000000 0.00006038 0.00000000 0.00100073)
(0.00226856 -0.00029944 0.00000000 0.00000373 0.00000000 0.00320121)
(0.00696611 0.00099187 0.00000000 0.00015873 0.00000000 0.00262613)
(0.00723257 0.00001423 0.00000000 0.00002658 0.00000000 0.00429025)
(0.00942334 -0.00011031 0.00000000 0.00007075 0.00000000 0.00579343)
(0.02593765 -0.00075836 0.00000000 0.00049306 0.00000000 0.01269599)
(0.03118807 -0.00107558 0.00000000 0.00077787 0.00000000 0.01507952)
(0.02118091 -0.00530030 0.00000000 0.00222935 0.00000000 0.01348936)
(0.01207748 -0.00228761 0.00000000 0.00092199 0.00000000 0.01011304)
(0.00937332 -0.00283195 0.00000000 0.00166105 0.00000000 0.01005745)
(0.00849405 -0.00604260 0.00000000 0.00522696 0.00000000 0.01324345)
(0.00935761 -0.00652778 0.00000000 0.00573962 0.00000000 0.01438225)
(0.00812237 -0.00565921 0.00000000 0.00445151 0.00000000 0.01083048)
(0.00499960 -0.00411067 0.00000000 0.00370659 0.00000000 0.00954044)
(0.00472550 -0.00348464 0.00000000 0.00282692 0.00000000 0.00717262)
(0.00423068 -0.00383077 0.00000000 0.00371355 0.00000000 0.00604295)
(0.00443521 -0.00327997 0.00000000 0.00262472 0.00000000 0.00696665)
(0.00425729 -0.00318754 0.00000000 0.00256777 0.00000000 0.00532025)
(0.00428021 -0.00305370 0.00000000 0.00236361 0.00000000 0.00608542)
(0.00449813 -0.00373712 0.00000000 0.00329703 0.00000000 0.00556167)
(0.00488017 -0.00332570 0.00000000 0.00242476 0.00000000 0.00539697)
(0.00484525 -0.00350199 0.00000000 0.00271132 0.00000000 0.00568651)
(0.00509932 -0.00389167 0.00000000 0.00318558 0.00000000 0.00574018)
(0.00600418 -0.00425982 0.00000000 0.00326162 0.00000000 0.00632681)
(0.00634742 -0.00377761 0.00000000 0.00249581 0.00000000 0.00677544)
(0.00680136 -0.00378486 0.00000000 0.00238460 0.00000000 0.00721188)
(0.00719921 -0.00363442 0.00000000 0.00224890 0.00000000 0.00866247)
(0.00820161 -0.00316332 0.00000000 0.00166709 0.00000000 0.00854238)
(0.00875741 -0.00301943 0.00000000 0.00153593 0.00000000 0.00902611)
(0.00950712 -0.00266506 0.00000000 0.00130772 0.00000000 0.00976799)
(0.01040450 -0.00176904 0.00000000 0.00091412 0.00000000 0.01014802)
(0.01084002 -0.00119784 0.00000000 0.00084343 0.00000000 0.01101356)
(0.01174848 -0.00013283 0.00000000 0.00065737 0.00000000 0.01091931)
(0.01285695 -0.00001202 0.00000000 0.00065869 0.00000000 0.01202586)
(0.01388407 0.00001266 0.00000000 0.00074326 0.00000000 0.01376731)
(0.01461821 0.00001073 0.00000000 0.00082920 0.00000000 0.01548818)
(0.01538203 -0.00000859 0.00000000 0.00091504 0.00000000 0.01705361)
(0.01628519 -0.00003287 0.00000000 0.00100217 0.00000000 0.01854882)
(0.01690169 -0.00004112 0.00000000 0.00106412 0.00000000 0.01991558)
(0.01741684 -0.00009410 0.00000000 0.00110876 0.00000000 0.02119087)
(0.01792488 -0.00009265 0.00000000 0.00115832 0.00000000 0.02245444)
(0.01830743 -0.00012175 0.00000000 0.00122383 0.00000000 0.02331813)
(0.01862708 -0.00013314 0.00000000 0.00128121 0.00000000 0.02413948)
(0.01910580 -0.00016062 0.00000000 0.00128561 0.00000000 0.02467545)
(0.01939028 -0.00019064 0.00000000 0.00129722 0.00000000 0.02504688)
(0.01977354 -0.00022312 0.00000000 0.00132440 0.00000000 0.02543345)
(0.02016524 -0.00022336 0.00000000 0.00131987 0.00000000 0.02570128)
(0.02015539 -0.00021589 0.00000000 0.00134891 0.00000000 0.02595590)
(0.02007169 -0.00023395 0.00000000 0.00136556 0.00000000 0.02616293)
(0.01998208 -0.00026164 0.00000000 0.00136779 0.00000000 0.02628161)
(0.02037227 -0.00033835 0.00000000 0.00136803 0.00000000 0.02623963)
(0.02065271 -0.00030102 0.00000000 0.00132208 0.00000000 0.02590487)
(0.02061202 -0.00029149 0.00000000 0.00132734 0.00000000 0.02548684)
(0.02071451 -0.00032897 0.00000000 0.00130749 0.00000000 0.02500862)
(0.02062410 -0.00031059 0.00000000 0.00128203 0.00000000 0.02468311)
(0.02051927 -0.00033561 0.00000000 0.00124893 0.00000000 0.02426517)
(0.02019715 -0.00032346 0.00000000 0.00122224 0.00000000 0.02401415)
(0.01996347 -0.00037109 0.00000000 0.00120875 0.00000000 0.02391268)
(0.02005781 -0.00039773 0.00000000 0.00117389 0.00000000 0.02372585)
(0.02028612 -0.00041558 0.00000000 0.00116989 0.00000000 0.02346113)
(0.02024862 -0.00039652 0.00000000 0.00116376 0.00000000 0.02318050)
(0.02016223 -0.00039406 0.00000000 0.00114728 0.00000000 0.02296933)
(0.01997973 -0.00039685 0.00000000 0.00113830 0.00000000 0.02273214)
(0.01993430 -0.00042903 0.00000000 0.00111835 0.00000000 0.02261016)
(0.01982274 -0.00042038 0.00000000 0.00107860 0.00000000 0.02257680)
(0.01972077 -0.00044544 0.00000000 0.00106827 0.00000000 0.02211278)
(0.01961219 -0.00044444 0.00000000 0.00104700 0.00000000 0.02168584)
(0.01943234 -0.00044157 0.00000000 0.00102676 0.00000000 0.02136928)
(0.01926974 -0.00046857 0.00000000 0.00100687 0.00000000 0.02115691)
(0.01898192 -0.00045365 0.00000000 0.00098250 0.00000000 0.02092275)
(0.01891983 -0.00046660 0.00000000 0.00093768 0.00000000 0.02074677)
(0.01868409 -0.00045924 0.00000000 0.00091115 0.00000000 0.02048630)
(0.01844268 -0.00046575 0.00000000 0.00088950 0.00000000 0.01997900)
(0.01807191 -0.00045100 0.00000000 0.00086465 0.00000000 0.01957340)
(0.01790689 -0.00048544 0.00000000 0.00084130 0.00000000 0.01910575)
(0.01784998 -0.00047891 0.00000000 0.00083382 0.00000000 0.01877379)
(0.01777763 -0.00048978 0.00000000 0.00081855 0.00000000 0.01832936)
(0.01759406 -0.00046626 0.00000000 0.00078250 0.00000000 0.01794346)
(0.01717361 -0.00044921 0.00000000 0.00075321 0.00000000 0.01755870)
(0.01682665 -0.00046209 0.00000000 0.00072583 0.00000000 0.01719574)
(0.01651866 -0.00047074 0.00000000 0.00070555 0.00000000 0.01681603)
(0.01626289 -0.00046218 0.00000000 0.00068858 0.00000000 0.01653476)
(0.01590620 -0.00046884 0.00000000 0.00066973 0.00000000 0.01633607)
(0.01560577 -0.00047011 0.00000000 0.00064890 0.00000000 0.01604969)
(0.01536699 -0.00046653 0.00000000 0.00062640 0.00000000 0.01576269)
(0.01518057 -0.00046308 0.00000000 0.00060331 0.00000000 0.01545254)
(0.01493978 -0.00045646 0.00000000 0.00059354 0.00000000 0.01521610)
(0.01467224 -0.00043848 0.00000000 0.00057684 0.00000000 0.01505880)
(0.01430209 -0.00042534 0.00000000 0.00056624 0.00000000 0.01483358)
(0.01385010 -0.00041373 0.00000000 0.00054829 0.00000000 0.01474659)
(0.01346825 -0.00042049 0.00000000 0.00052741 0.00000000 0.01462603)
(0.01312738 -0.00041407 0.00000000 0.00052048 0.00000000 0.01459781)
(0.01262940 -0.00037525 0.00000000 0.00050755 0.00000000 0.01461791)
(0.01191846 -0.00036874 0.00000000 0.00048888 0.00000000 0.01473384)
(0.01133078 -0.00036543 0.00000000 0.00047444 0.00000000 0.01492498)
(0.01065643 -0.00033648 0.00000000 0.00046856 0.00000000 0.01519890)
(0.00976622 -0.00030844 0.00000000 0.00046297 0.00000000 0.01570595)
(0.00913583 -0.00024396 0.00000000 0.00055542 0.00000000 0.01797371)
(0.00883013 0.00073560 0.00000000 0.00068432 0.00000000 0.02179438)
(0.00889255 0.00131913 0.00000000 0.00076562 0.00000000 0.02372235)
(0.00897352 0.00222135 0.00000000 0.00105591 0.00000000 0.02355438)
(0.00873515 0.00279123 0.00000000 0.00134695 0.00000000 0.02414851)
(0.00870327 0.00336119 0.00000000 0.00177729 0.00000000 0.02606414)
(0.00803099 0.00413435 0.00000000 0.00256673 0.00000000 0.02696304)
(0.00683965 0.00380987 0.00000000 0.00234645 0.00000000 0.02230051)
(0.00608569 0.00362710 0.00000000 0.00239172 0.00000000 0.02235085)
(0.00536862 0.00342657 0.00000000 0.00227833 0.00000000 0.01757147)
(0.00385340 0.00292850 0.00000000 0.00235381 0.00000000 0.01322575)
(0.00245474 0.00224787 0.00000000 0.00219488 0.00000000 0.01515947)
(0.00361592 0.00234809 0.00000000 0.00161086 0.00000000 0.01590442)
(0.00252028 0.00176066 0.00000000 0.00129370 0.00000000 0.01000158)
(0.00285678 0.00209580 0.00000000 0.00160232 0.00000000 0.01708923)
(0.00277843 0.00183990 0.00000000 0.00119633 0.00000000 0.01082999)
(0.00200130 0.00140190 0.00000000 0.00103018 0.00000000 0.01330856)
(0.00057630 0.00025830 0.00000000 0.00001146 0.00000000 0.00323277)
(0.00209959 0.00152064 0.00000000 0.00109944 0.00000000 0.01142956)
(0.00121010 0.00085016 0.00000000 0.00060541 0.00000000 0.01051409)
(0.00335800 0.00227802 0.00000000 0.00156639 0.00000000 0.01185669)
(0.00713650 0.00481862 0.00000000 0.00332947 0.00000000 0.02258710)
(0.00545311 0.00384595 0.00000000 0.00273686 0.00000000 0.01052469)
(0.00352608 0.00161660 0.00000000 0.00082536 0.00000000 0.00657233)
(0.00965866 0.00138522 0.00000000 0.00052608 0.00000000 0.00961110)
(0.02006539 0.00266884 0.00000000 0.00042027 0.00000000 0.00808250)
(0.02111062 0.00021119 0.00000000 0.00011527 0.00000000 0.00910096)
(0.02142012 -0.00029576 0.00000000 0.00023004 0.00000000 0.01046240)
(0.04187105 -0.00141931 0.00000000 0.00096846 0.00000000 0.01752905)
(0.04880340 -0.00215496 0.00000000 0.00163502 0.00000000 0.02136980)
(0.03852304 -0.00685684 0.00000000 0.00320311 0.00000000 0.01927783)
(0.02153749 -0.00483414 0.00000000 0.00283471 0.00000000 0.01780434)
(0.01396090 -0.00508507 0.00000000 0.00392239 0.00000000 0.01695658)
(0.01122026 -0.00770913 0.00000000 0.00732444 0.00000000 0.01861809)
(0.01137368 -0.00767431 0.00000000 0.00739850 0.00000000 0.01868554)
(0.01054160 -0.00718244 0.00000000 0.00605146 0.00000000 0.01503391)
(0.00674970 -0.00557172 0.00000000 0.00538149 0.00000000 0.01289895)
(0.00694288 -0.00523515 0.00000000 0.00457571 0.00000000 0.01119227)
(0.00648658 -0.00531035 0.00000000 0.00486569 0.00000000 0.00941352)
(0.00615540 -0.00455584 0.00000000 0.00385921 0.00000000 0.00958214)
(0.00657483 -0.00484322 0.00000000 0.00399324 0.00000000 0.00843487)
(0.00607838 -0.00450343 0.00000000 0.00375053 0.00000000 0.00839441)
(0.00686039 -0.00520712 0.00000000 0.00438553 0.00000000 0.00811237)
(0.00722647 -0.00505500 0.00000000 0.00394030 0.00000000 0.00779525)
(0.00716418 -0.00517998 0.00000000 0.00416943 0.00000000 0.00791121)
(0.00786058 -0.00561719 0.00000000 0.00448662 0.00000000 0.00816598)
(0.00825108 -0.00563031 0.00000000 0.00439370 0.00000000 0.00870547)
(0.00890026 -0.00531242 0.00000000 0.00378390 0.00000000 0.00929083)
(0.00933920 -0.00517736 0.00000000 0.00354530 0.00000000 0.00986541)
(0.00969192 -0.00462119 0.00000000 0.00307160 0.00000000 0.01102289)
(0.01060010 -0.00403361 0.00000000 0.00247406 0.00000000 0.01091431)
(0.01118661 -0.00363271 0.00000000 0.00223173 0.00000000 0.01145338)
(0.01196264 -0.00304193 0.00000000 0.00194783 0.00000000 0.01212688)
(0.01294556 -0.00215882 0.00000000 0.00162799 0.00000000 0.01269571)
(0.01353623 -0.00131967 0.00000000 0.00150855 0.00000000 0.01348113)
(0.01483549 -0.00030928 0.00000000 0.00142023 0.00000000 0.01397223)
(0.01612927 -0.00017207 0.00000000 0.00150480 0.00000000 0.01563441)
(0.01711016 -0.00016175 0.00000000 0.00168834 0.00000000 0.01774323)
(0.01790711 -0.00019981 0.00000000 0.00187181 0.00000000 0.01983295)
(0.01881813 -0.00025316 0.00000000 0.00204706 0.00000000 0.02171499)
(0.01981966 -0.00030725 0.00000000 0.00220798 0.00000000 0.02355397)
(0.02051833 -0.00033491 0.00000000 0.00233971 0.00000000 0.02518151)
(0.02105102 -0.00041158 0.00000000 0.00243883 0.00000000 0.02672369)
(0.02164953 -0.00042827 0.00000000 0.00253095 0.00000000 0.02821522)
(0.02209977 -0.00047361 0.00000000 0.00266080 0.00000000 0.02915086)
(0.02262825 -0.00050198 0.00000000 0.00276805 0.00000000 0.03010487)
(0.02322051 -0.00054986 0.00000000 0.00278847 0.00000000 0.03073720)
(0.02371976 -0.00056875 0.00000000 0.00281711 0.00000000 0.03121896)
(0.02423939 -0.00063053 0.00000000 0.00286205 0.00000000 0.03175115)
(0.02466205 -0.00060910 0.00000000 0.00286371 0.00000000 0.03211847)
(0.02468095 -0.00060340 0.00000000 0.00291130 0.00000000 0.03237221)
(0.02469277 -0.00061852 0.00000000 0.00293285 0.00000000 0.03259702)
(0.02473890 -0.00066649 0.00000000 0.00295205 0.00000000 0.03271119)
(0.02526988 -0.00077256 0.00000000 0.00295518 0.00000000 0.03265721)
(0.02561220 -0.00069989 0.00000000 0.00287145 0.00000000 0.03232948)
(0.02571428 -0.00067383 0.00000000 0.00288628 0.00000000 0.03179291)
(0.02585907 -0.00070947 0.00000000 0.00282497 0.00000000 0.03137442)
(0.02579062 -0.00068190 0.00000000 0.00279307 0.00000000 0.03095064)
(0.02567059 -0.00069732 0.00000000 0.00271698 0.00000000 0.03048498)
(0.02535507 -0.00068571 0.00000000 0.00266702 0.00000000 0.03019291)
(0.02515966 -0.00074431 0.00000000 0.00264522 0.00000000 0.03009133)
(0.02529054 -0.00078644 0.00000000 0.00257832 0.00000000 0.02995800)
(0.02553470 -0.00080456 0.00000000 0.00256997 0.00000000 0.02964937)
(0.02552899 -0.00076747 0.00000000 0.00254792 0.00000000 0.02931699)
(0.02545399 -0.00075308 0.00000000 0.00251091 0.00000000 0.02906215)
(0.02537971 -0.00077178 0.00000000 0.00250005 0.00000000 0.02877805)
(0.02537218 -0.00078780 0.00000000 0.00245636 0.00000000 0.02863684)
(0.02522341 -0.00077753 0.00000000 0.00238678 0.00000000 0.02855062)
(0.02514131 -0.00080502 0.00000000 0.00234983 0.00000000 0.02807054)
(0.02507702 -0.00079582 0.00000000 0.00231073 0.00000000 0.02751314)
(0.02492558 -0.00079944 0.00000000 0.00227940 0.00000000 0.02710344)
(0.02480236 -0.00082240 0.00000000 0.00223986 0.00000000 0.02688710)