/*--------------------------------*- C++ -*----------------------------------*\
  =========                 |
  \\      /  F ield         | OpenFOAM: The Open Source CFD Toolbox
   \\    /   O peration     | Website:  https://openfoam.org
    \\  /    A nd           | Version:  7
     \\/     M anipulation  |
\*---------------------------------------------------------------------------*/
FoamFile
{
    version     2.0;
    format      ascii;
    class       volVectorField;
    location    "0";
    object      U_LES;
}
// * * * * * * * * * * * * * * * * * * * * * * * * * * * * * * * * * * * * * //

dimensions      [0 1 -1 0 0 0 0];

internalField   nonuniform List<vector>
15600
(
(0.01144473 0.00024538 0.00000000)
(0.00764157 -0.00006048 0.00000000)
(-0.00943645 0.00535081 0.00000000)
(-0.00297787 -0.00100392 0.00000000)
(-0.00284726 0.00168728 0.00000000)
(-0.01470336 0.01080368 0.00000000)
(-0.02000079 0.01443901 0.00000000)
(-0.01048138 0.00751427 0.00000000)
(-0.00816513 0.00614869 0.00000000)
(-0.00492958 0.00266226 0.00000000)
(-0.00492167 0.00535934 0.00000000)
(-0.00563034 0.00388479 0.00000000)
(-0.00345420 0.00413265 0.00000000)
(-0.00747013 0.00521178 0.00000000)
(-0.00829504 0.00737418 0.00000000)
(-0.00820356 0.00413213 0.00000000)
(-0.01102225 0.00710034 0.00000000)
(-0.01338986 0.00962468 0.00000000)
(-0.01454672 0.01436005 0.00000000)
(-0.01889676 0.01142581 0.00000000)
(-0.01944538 0.01089163 0.00000000)
(-0.03180804 0.01750791 0.00000000)
(-0.02706623 0.00980897 0.00000000)
(-0.02400349 0.00888383 0.00000000)
(-0.02575122 0.01151694 0.00000000)
(-0.02753086 0.00271560 0.00000000)
(-0.03206804 0.00624437 0.00000000)
(-0.02920758 0.00038172 0.00000000)
(-0.02903015 0.00009661 0.00000000)
(-0.03440651 0.00009399 0.00000000)
(-0.03816396 0.00007822 0.00000000)
(-0.04134750 0.00004254 0.00000000)
(-0.04322504 0.00003349 0.00000000)
(-0.04467988 0.00002646 0.00000000)
(-0.04547109 0.00001273 0.00000000)
(-0.04604716 0.00000712 0.00000000)
(-0.04511297 -0.00001447 0.00000000)
(-0.04436728 -0.00003873 0.00000000)
(-0.04258192 -0.00003881 0.00000000)
(-0.04083515 -0.00002779 0.00000000)
(-0.03922711 -0.00003180 0.00000000)
(-0.03758169 -0.00001606 0.00000000)
(-0.03685358 -0.00003320 0.00000000)
(-0.03482464 -0.00004620 0.00000000)
(-0.03247183 -0.00004831 0.00000000)
(-0.02990753 -0.00005284 0.00000000)
(-0.02764177 -0.00003859 0.00000000)
(-0.02567743 -0.00003770 0.00000000)
(-0.02378982 -0.00003126 0.00000000)
(-0.02252349 -0.00003575 0.00000000)
(-0.02094395 -0.00002687 0.00000000)
(-0.01907569 -0.00003313 0.00000000)
(-0.01681599 -0.00004599 0.00000000)
(-0.01471506 -0.00003743 0.00000000)
(-0.01295097 -0.00003428 0.00000000)
(-0.01127115 -0.00003589 0.00000000)
(-0.00943029 -0.00003066 0.00000000)
(-0.00778507 -0.00003692 0.00000000)
(-0.00589643 -0.00003351 0.00000000)
(-0.00381809 -0.00003958 0.00000000)
(-0.00240455 -0.00003282 0.00000000)
(-0.00075000 -0.00002782 0.00000000)
(0.00064832 -0.00002922 0.00000000)
(0.00237381 -0.00003063 0.00000000)
(0.00410274 -0.00003739 0.00000000)
(0.00561790 -0.00002762 0.00000000)
(0.00681636 -0.00002325 0.00000000)
(0.00799473 -0.00001827 0.00000000)
(0.00909895 -0.00002409 0.00000000)
(0.01010344 -0.00001401 0.00000000)
(0.01102577 -0.00002463 0.00000000)
(0.01204326 -0.00001119 0.00000000)
(0.01252501 -0.00001234 0.00000000)
(0.01332817 -0.00001466 0.00000000)
(0.01386594 -0.00000860 0.00000000)
(0.01445665 -0.00001120 0.00000000)
(0.01472915 -0.00000271 0.00000000)
(0.01517626 -0.00000700 0.00000000)
(0.01541290 -0.00000233 0.00000000)
(0.01540424 0.00000219 0.00000000)
(0.01521732 0.00000310 0.00000000)
(0.01499673 0.00000627 0.00000000)
(0.01466727 0.00000603 0.00000000)
(0.01423846 0.00001047 0.00000000)
(0.01375654 0.00000866 0.00000000)
(0.01309571 0.00001494 0.00000000)
(0.01203291 0.00002632 0.00000000)
(0.01066943 0.00002259 0.00000000)
(0.00917699 0.00002865 0.00000000)
(0.00743068 0.00004099 0.00000000)
(0.00496964 0.00004390 0.00000000)
(0.00211173 0.00007550 0.00000000)
(-0.00246129 0.00019109 0.00000000)
(-0.00210833 -0.00037697 0.00000000)
(-0.00037022 -0.00035593 0.00000000)
(0.00093034 0.00019589 0.00000000)
(0.00197072 0.00034106 0.00000000)
(0.00353561 0.00162393 0.00000000)
(0.00422176 0.00216080 0.00000000)
(0.00011106 0.00005376 0.00000000)
(0.00065816 0.00040138 0.00000000)
(-0.00390879 -0.00307840 0.00000000)
(0.00194171 0.00131490 0.00000000)
(-0.00085432 -0.00093914 0.00000000)
(0.00131791 0.00080798 0.00000000)
(-0.00276324 -0.00155871 0.00000000)
(0.00048257 -0.00042311 0.00000000)
(-0.00496304 -0.00574560 0.00000000)
(-0.00330497 -0.00197844 0.00000000)
(-0.01023936 -0.00927524 0.00000000)
(-0.00607464 -0.00315070 0.00000000)
(-0.00921724 -0.00648720 0.00000000)
(-0.00737701 -0.00528351 0.00000000)
(0.02615515 0.01937850 0.00000000)
(-0.02944436 -0.02138954 0.00000000)
(0.00722986 0.00122341 0.00000000)
(0.02493585 0.00291575 0.00000000)
(-0.00106667 0.00047974 0.00000000)
(0.02376118 0.00042221 0.00000000)
(0.01385077 0.00034079 0.00000000)
(0.03286467 0.00038495 0.00000000)
(0.02700893 -0.00034471 0.00000000)
(0.00383937 0.00686095 0.00000000)
(-0.01405372 0.00195953 0.00000000)
(-0.01785741 0.00580535 0.00000000)
(-0.02716362 0.01952680 0.00000000)
(-0.03091583 0.02211872 0.00000000)
(-0.02140293 0.01533633 0.00000000)
(-0.01657809 0.01228239 0.00000000)
(-0.01404851 0.00994557 0.00000000)
(-0.01106376 0.01343854 0.00000000)
(-0.01446390 0.01071501 0.00000000)
(-0.01420154 0.01267178 0.00000000)
(-0.01861571 0.01346004 0.00000000)
(-0.01998110 0.01970579 0.00000000)
(-0.02560951 0.01750064 0.00000000)
(-0.03010496 0.02264790 0.00000000)
(-0.03301406 0.02832317 0.00000000)
(-0.04037966 0.03508777 0.00000000)
(-0.04926005 0.03125330 0.00000000)
(-0.05549504 0.03318819 0.00000000)
(-0.06347216 0.03493150 0.00000000)
(-0.06418210 0.02649114 0.00000000)
(-0.06732265 0.02727799 0.00000000)
(-0.06751756 0.02494180 0.00000000)
(-0.06894791 0.01303033 0.00000000)
(-0.07124957 0.01195101 0.00000000)
(-0.07228891 0.00212462 0.00000000)
(-0.08283606 0.00122282 0.00000000)
(-0.09551625 0.00087228 0.00000000)
(-0.10471697 0.00064879 0.00000000)
(-0.11088206 0.00041742 0.00000000)
(-0.11517719 0.00029910 0.00000000)
(-0.11766121 0.00019673 0.00000000)
(-0.11924526 0.00009943 0.00000000)
(-0.11920354 -0.00001961 0.00000000)
(-0.11719805 -0.00016498 0.00000000)
(-0.11377339 -0.00036542 0.00000000)
(-0.10810779 -0.00043179 0.00000000)
(-0.10322707 -0.00030921 0.00000000)
(-0.09880848 -0.00034266 0.00000000)
(-0.09487944 -0.00018147 0.00000000)
(-0.09154138 -0.00035827 0.00000000)
(-0.08605483 -0.00047817 0.00000000)
(-0.08001893 -0.00047801 0.00000000)
(-0.07327133 -0.00054369 0.00000000)
(-0.06739713 -0.00039654 0.00000000)
(-0.06275335 -0.00035488 0.00000000)
(-0.05814419 -0.00030197 0.00000000)
(-0.05354689 -0.00037137 0.00000000)
(-0.04897833 -0.00032284 0.00000000)
(-0.04399409 -0.00036599 0.00000000)
(-0.03851013 -0.00045721 0.00000000)
(-0.03296430 -0.00038561 0.00000000)
(-0.02813103 -0.00035402 0.00000000)
(-0.02337908 -0.00038339 0.00000000)
(-0.01826900 -0.00032905 0.00000000)
(-0.01383330 -0.00039392 0.00000000)
(-0.00898073 -0.00035801 0.00000000)
(-0.00400799 -0.00035208 0.00000000)
(0.00009755 -0.00031973 0.00000000)
(0.00474260 -0.00030213 0.00000000)
(0.00892039 -0.00033425 0.00000000)
(0.01341244 -0.00032144 0.00000000)
(0.01783274 -0.00036329 0.00000000)
(0.02189158 -0.00027702 0.00000000)
(0.02539232 -0.00024413 0.00000000)
(0.02852825 -0.00020749 0.00000000)
(0.03171147 -0.00025018 0.00000000)
(0.03434694 -0.00017466 0.00000000)
(0.03689190 -0.00024031 0.00000000)
(0.03948541 -0.00012005 0.00000000)
(0.04122365 -0.00014582 0.00000000)
(0.04336472 -0.00014292 0.00000000)
(0.04497664 -0.00011757 0.00000000)
(0.04657077 -0.00010230 0.00000000)
(0.04756000 -0.00006875 0.00000000)
(0.04876227 -0.00007595 0.00000000)
(0.04949401 -0.00002218 0.00000000)
(0.04967472 0.00000968 0.00000000)
(0.04933014 0.00004716 0.00000000)
(0.04885621 0.00004022 0.00000000)
(0.04808887 0.00006912 0.00000000)
(0.04712814 0.00008832 0.00000000)
(0.04589844 0.00009254 0.00000000)
(0.04430126 0.00017451 0.00000000)
(0.04161071 0.00024195 0.00000000)
(0.03822494 0.00027818 0.00000000)
(0.03436279 0.00030874 0.00000000)
(0.02960322 0.00042891 0.00000000)
(0.02322328 0.00052507 0.00000000)
(0.01533165 0.00070346 0.00000000)
(0.00710845 0.00124527 0.00000000)
(0.00626692 -0.00007782 0.00000000)
(0.00901115 0.00101214 0.00000000)
(0.01417172 0.00383889 0.00000000)
(0.01755538 0.00542960 0.00000000)
(0.02275607 0.00915845 0.00000000)
(0.02904917 0.01602541 0.00000000)
(0.02375334 0.01309142 0.00000000)
(0.02887948 0.01722399 0.00000000)
(0.02064559 0.01108895 0.00000000)
(0.01433550 0.01591437 0.00000000)
(0.02167227 0.01607059 0.00000000)
(0.02607152 0.01625602 0.00000000)
(0.01331947 0.01144954 0.00000000)
(0.03259405 0.02040025 0.00000000)
(0.01155324 0.00529288 0.00000000)
(0.03041946 0.01941681 0.00000000)
(-0.00853900 -0.01188256 0.00000000)
(0.01897752 0.01333982 0.00000000)
(0.02761918 0.01770398 0.00000000)
(0.05199113 0.03692623 0.00000000)
(0.16397406 0.11963323 0.00000000)
(0.06584247 0.04765233 0.00000000)
(0.06004280 0.03564272 0.00000000)
(0.11383923 0.01321786 0.00000000)
(0.09061029 0.01654211 0.00000000)
(0.06696198 0.00239676 0.00000000)
(0.04021216 0.00098336 0.00000000)
(0.07126690 0.00038930 0.00000000)
(0.06357396 -0.00094181 0.00000000)
(0.03304965 0.00666333 0.00000000)
(-0.01845587 0.00430588 0.00000000)
(-0.03471503 0.01102817 0.00000000)
(-0.03999140 0.02794094 0.00000000)
(-0.04027331 0.02873407 0.00000000)
(-0.03280386 0.02347091 0.00000000)
(-0.02793710 0.02142433 0.00000000)
(-0.02356079 0.01785766 0.00000000)
(-0.02127496 0.02177677 0.00000000)
(-0.02452216 0.01873512 0.00000000)
(-0.02678993 0.02180764 0.00000000)
(-0.03129735 0.02318740 0.00000000)
(-0.03608886 0.03262235 0.00000000)
(-0.04316688 0.03176432 0.00000000)
(-0.05007517 0.03836697 0.00000000)
(-0.05709111 0.04744558 0.00000000)
(-0.06772759 0.05215619 0.00000000)
(-0.07494376 0.04907217 0.00000000)
(-0.08267645 0.05076648 0.00000000)
(-0.08865302 0.05021028 0.00000000)
(-0.09489071 0.04223392 0.00000000)
(-0.09849870 0.03907625 0.00000000)
(-0.10025781 0.03239293 0.00000000)
(-0.10149515 0.02095685 0.00000000)
(-0.10225122 0.01428156 0.00000000)
(-0.11051347 0.00496476 0.00000000)
(-0.12690659 0.00294327 0.00000000)
(-0.14236948 0.00212038 0.00000000)
(-0.15343646 0.00150860 0.00000000)
(-0.16039051 0.00095101 0.00000000)
(-0.16419998 0.00060595 0.00000000)
(-0.16619581 0.00037442 0.00000000)
(-0.16661408 0.00010876 0.00000000)
(-0.16493305 -0.00022463 0.00000000)
(-0.16131323 -0.00053264 0.00000000)
(-0.15522897 -0.00099766 0.00000000)
(-0.14761901 -0.00115047 0.00000000)
(-0.14050175 -0.00087251 0.00000000)
(-0.13412010 -0.00090121 0.00000000)
(-0.12831677 -0.00057648 0.00000000)
(-0.12240928 -0.00098869 0.00000000)
(-0.11429145 -0.00124181 0.00000000)
(-0.10580813 -0.00124478 0.00000000)
(-0.09678506 -0.00137124 0.00000000)
(-0.08865997 -0.00104004 0.00000000)
(-0.08218257 -0.00093494 0.00000000)
(-0.07525924 -0.00086168 0.00000000)
(-0.06880417 -0.00097274 0.00000000)
(-0.06204492 -0.00090282 0.00000000)
(-0.05471525 -0.00101250 0.00000000)
(-0.04709045 -0.00118000 0.00000000)
(-0.03945884 -0.00103616 0.00000000)
(-0.03237001 -0.00095919 0.00000000)
(-0.02538572 -0.00102394 0.00000000)
(-0.01812073 -0.00089203 0.00000000)
(-0.01177132 -0.00101043 0.00000000)
(-0.00487888 -0.00096403 0.00000000)
(0.00197159 -0.00092858 0.00000000)
(0.00821526 -0.00088306 0.00000000)
(0.01473146 -0.00084178 0.00000000)
(0.02101285 -0.00090388 0.00000000)
(0.02736338 -0.00086158 0.00000000)
(0.03366175 -0.00093450 0.00000000)
(0.03960872 -0.00076421 0.00000000)
(0.04476080 -0.00066004 0.00000000)
(0.04936696 -0.00058703 0.00000000)
(0.05404713 -0.00065943 0.00000000)
(0.05796132 -0.00048161 0.00000000)
(0.06176662 -0.00061356 0.00000000)
(0.06544865 -0.00037962 0.00000000)
(0.06866778 -0.00040487 0.00000000)
(0.07175338 -0.00039934 0.00000000)
(0.07423122 -0.00032789 0.00000000)
(0.07661656 -0.00027863 0.00000000)
(0.07853374 -0.00022612 0.00000000)
(0.08034090 -0.00020775 0.00000000)
(0.08168665 -0.00009321 0.00000000)
(0.08221079 0.00001340 0.00000000)
(0.08207895 0.00008953 0.00000000)
(0.08175356 0.00009162 0.00000000)
(0.08087780 0.00015885 0.00000000)
(0.07981175 0.00021601 0.00000000)
(0.07845861 0.00024152 0.00000000)
(0.07632289 0.00043144 0.00000000)
(0.07292734 0.00061457 0.00000000)
(0.06855367 0.00070523 0.00000000)
(0.06338528 0.00082522 0.00000000)
(0.05670174 0.00112746 0.00000000)
(0.04800609 0.00137863 0.00000000)
(0.03704109 0.00185165 0.00000000)
(0.02616792 0.00271114 0.00000000)
(0.02346996 0.00213136 0.00000000)
(0.02695792 0.00472824 0.00000000)
(0.03319162 0.00951385 0.00000000)
(0.04042106 0.01406530 0.00000000)
(0.04693819 0.01936082 0.00000000)
(0.05667606 0.02967841 0.00000000)
(0.06218532 0.03595755 0.00000000)
(0.06879212 0.04251555 0.00000000)
(0.07407052 0.04818703 0.00000000)
(0.06989955 0.05316721 0.00000000)
(0.06627999 0.06446590 0.00000000)
(0.08698710 0.05894277 0.00000000)
(0.08237840 0.05723370 0.00000000)
(0.09430396 0.07184104 0.00000000)
(0.08597770 0.05842472 0.00000000)
(0.09848601 0.07153492 0.00000000)
(0.07190140 0.04562646 0.00000000)
(0.10372036 0.07856545 0.00000000)
(0.10200348 0.07624807 0.00000000)
(0.18517045 0.13200523 0.00000000)
(0.32144890 0.22979489 0.00000000)
(0.26149686 0.19015624 0.00000000)
(0.19204356 0.10438913 0.00000000)
(0.26763846 0.05873031 0.00000000)
(0.24794215 0.04337558 0.00000000)
(0.14748822 0.00924477 0.00000000)
(0.08922242 0.00200778 0.00000000)
(0.12627189 0.00096650 0.00000000)
(0.11598494 -0.00176534 0.00000000)
(0.07766959 0.00415281 0.00000000)
(-0.00677908 0.00370223 0.00000000)
(-0.04440337 0.01698048 0.00000000)
(-0.05036031 0.03453585 0.00000000)
(-0.05012492 0.03559949 0.00000000)
(-0.04282312 0.03075498 0.00000000)
(-0.03712813 0.02899581 0.00000000)
(-0.03371455 0.02628113 0.00000000)
(-0.03183077 0.02897974 0.00000000)
(-0.03413199 0.02642394 0.00000000)
(-0.03842476 0.03131944 0.00000000)
(-0.04266439 0.03307968 0.00000000)
(-0.05006181 0.04193389 0.00000000)
(-0.05850882 0.04485640 0.00000000)
(-0.06607130 0.05242375 0.00000000)
(-0.07708044 0.06117106 0.00000000)
(-0.08659255 0.06593302 0.00000000)
(-0.09608102 0.06531292 0.00000000)
(-0.10479530 0.06655040 0.00000000)
(-0.11106433 0.06252042 0.00000000)
(-0.11833703 0.05445889 0.00000000)
(-0.12253617 0.04836313 0.00000000)
(-0.12517859 0.03922689 0.00000000)
(-0.12801410 0.02746700 0.00000000)
(-0.13021437 0.01757222 0.00000000)
(-0.14208717 0.00785760 0.00000000)
(-0.16046995 0.00497601 0.00000000)
(-0.17609498 0.00351267 0.00000000)
(-0.18684197 0.00241695 0.00000000)
(-0.19304313 0.00146058 0.00000000)
(-0.19584765 0.00083593 0.00000000)
(-0.19667915 0.00044691 0.00000000)
(-0.19571396 -0.00003331 0.00000000)
(-0.19251487 -0.00063150 0.00000000)
(-0.18721805 -0.00112012 0.00000000)
(-0.17944385 -0.00184735 0.00000000)
(-0.17019318 -0.00209973 0.00000000)
(-0.16163903 -0.00165342 0.00000000)
(-0.15389390 -0.00165858 0.00000000)
(-0.14627820 -0.00122414 0.00000000)
(-0.13855400 -0.00185961 0.00000000)
(-0.12890112 -0.00223519 0.00000000)
(-0.11889094 -0.00224395 0.00000000)
(-0.10853883 -0.00241702 0.00000000)
(-0.09913584 -0.00187522 0.00000000)
(-0.09122048 -0.00170956 0.00000000)
(-0.08322911 -0.00164361 0.00000000)
(-0.07518302 -0.00176828 0.00000000)
(-0.06687336 -0.00172261 0.00000000)
(-0.05810437 -0.00188171 0.00000000)
(-0.04913697 -0.00210431 0.00000000)
(-0.04022228 -0.00191821 0.00000000)
(-0.03155426 -0.00178165 0.00000000)
(-0.02309642 -0.00188978 0.00000000)
(-0.01445664 -0.00166515 0.00000000)
(-0.00683289 -0.00180103 0.00000000)
(0.00135048 -0.00176186 0.00000000)
(0.00932099 -0.00169626 0.00000000)
(0.01700854 -0.00164254 0.00000000)
(0.02477231 -0.00158354 0.00000000)
(0.03244863 -0.00166777 0.00000000)
(0.04000385 -0.00159391 0.00000000)
(0.04759614 -0.00167930 0.00000000)
(0.05469190 -0.00142487 0.00000000)
(0.06095165 -0.00123881 0.00000000)
(0.06671019 -0.00112313 0.00000000)
(0.07232412 -0.00120514 0.00000000)
(0.07727842 -0.00092820 0.00000000)
(0.08192882 -0.00108378 0.00000000)
(0.08643498 -0.00078483 0.00000000)
(0.09062436 -0.00078414 0.00000000)
(0.09456425 -0.00075692 0.00000000)
(0.09772927 -0.00062348 0.00000000)
(0.10070689 -0.00053408 0.00000000)
(0.10333625 -0.00047929 0.00000000)
(0.10573035 -0.00040431 0.00000000)
(0.10768082 -0.00022689 0.00000000)
(0.10867651 -0.00002419 0.00000000)
(0.10893466 0.00010111 0.00000000)
(0.10887459 0.00012853 0.00000000)
(0.10839529 0.00023675 0.00000000)
(0.10754508 0.00035477 0.00000000)
(0.10616544 0.00041877 0.00000000)
(0.10394359 0.00073628 0.00000000)
(0.10043392 0.00104789 0.00000000)
(0.09580163 0.00123152 0.00000000)
(0.09014672 0.00149337 0.00000000)
(0.08252864 0.00201373 0.00000000)
(0.07279244 0.00248516 0.00000000)
(0.06043476 0.00328449 0.00000000)
(0.04831603 0.00449267 0.00000000)
(0.04348650 0.00473772 0.00000000)
(0.04682707 0.00827700 0.00000000)
(0.05284471 0.01495716 0.00000000)
(0.06121047 0.02150580 0.00000000)
(0.06990160 0.02925916 0.00000000)
(0.07807490 0.04167320 0.00000000)
(0.09067004 0.05183338 0.00000000)
(0.10059976 0.06277637 0.00000000)
(0.11521776 0.07733928 0.00000000)
(0.12775537 0.09255794 0.00000000)
(0.13497607 0.11256828 0.00000000)
(0.14792074 0.10361826 0.00000000)
(0.16398006 0.12097186 0.00000000)
(0.16272504 0.12422532 0.00000000)
(0.17555451 0.12642235 0.00000000)
(0.18200700 0.14459932 0.00000000)
(0.18669483 0.13662909 0.00000000)
(0.20580406 0.15886193 0.00000000)
(0.19875020 0.16683535 0.00000000)
(0.32801450 0.23159271 0.00000000)
(0.45680802 0.31976416 0.00000000)
(0.47560908 0.34164122 0.00000000)
(0.43947004 0.20879432 0.00000000)
(0.50095807 0.13289672 0.00000000)
(0.42494671 0.07271432 0.00000000)
(0.25631360 0.01848069 0.00000000)
(0.15933722 0.00485232 0.00000000)
(0.19739433 0.00191395 0.00000000)
(0.18014849 -0.00274867 0.00000000)
(0.13456436 -0.00060978 0.00000000)
(0.01976693 0.00249482 0.00000000)
(-0.04725652 0.02104590 0.00000000)
(-0.05672105 0.03883125 0.00000000)
(-0.05951020 0.04209021 0.00000000)
(-0.05194918 0.03743100 0.00000000)
(-0.04613243 0.03509130 0.00000000)
(-0.04286292 0.03381387 0.00000000)
(-0.04172694 0.03611979 0.00000000)
(-0.04314079 0.03473856 0.00000000)
(-0.04899310 0.04015875 0.00000000)
(-0.05454012 0.04328648 0.00000000)
(-0.06234982 0.05172309 0.00000000)
(-0.07257659 0.05725015 0.00000000)
(-0.08156043 0.06564495 0.00000000)
(-0.09300093 0.07312945 0.00000000)
(-0.10351196 0.07790944 0.00000000)
(-0.11245562 0.07801240 0.00000000)
(-0.12148456 0.07782166 0.00000000)
(-0.12672682 0.07214697 0.00000000)
(-0.13568587 0.06363090 0.00000000)
(-0.14105606 0.05582596 0.00000000)
(-0.14509921 0.04493066 0.00000000)
(-0.14919560 0.03249980 0.00000000)
(-0.15352243 0.02097790 0.00000000)
(-0.16722891 0.01083327 0.00000000)
(-0.18540073 0.00699973 0.00000000)
(-0.20008566 0.00487447 0.00000000)
(-0.20956824 0.00325757 0.00000000)
(-0.21442447 0.00184553 0.00000000)
(-0.21594139 0.00093540 0.00000000)
(-0.21543210 0.00037274 0.00000000)
(-0.21319669 -0.00033472 0.00000000)
(-0.20854520 -0.00121793 0.00000000)
(-0.20208758 -0.00191307 0.00000000)
(-0.19315914 -0.00286867 0.00000000)
(-0.18295097 -0.00320509 0.00000000)
(-0.17326874 -0.00260581 0.00000000)
(-0.16447013 -0.00258105 0.00000000)
(-0.15561092 -0.00209368 0.00000000)
(-0.14652935 -0.00291931 0.00000000)
(-0.13578524 -0.00339577 0.00000000)
(-0.12476817 -0.00341513 0.00000000)
(-0.11370578 -0.00358882 0.00000000)
(-0.10362164 -0.00284534 0.00000000)
(-0.09467801 -0.00263296 0.00000000)
(-0.08581977 -0.00260096 0.00000000)
(-0.07674144 -0.00272191 0.00000000)
(-0.06738709 -0.00272522 0.00000000)
(-0.05759734 -0.00290734 0.00000000)
(-0.04781302 -0.00315616 0.00000000)
(-0.03803736 -0.00297508 0.00000000)
(-0.02835147 -0.00275482 0.00000000)
(-0.01882452 -0.00293297 0.00000000)
(-0.00936905 -0.00259878 0.00000000)
(-0.00079859 -0.00271359 0.00000000)
(0.00821998 -0.00269955 0.00000000)
(0.01690494 -0.00260112 0.00000000)
(0.02560518 -0.00255368 0.00000000)
(0.03417887 -0.00248358 0.00000000)
(0.04273178 -0.00257006 0.00000000)
(0.05108694 -0.00247308 0.00000000)
(0.05955596 -0.00255016 0.00000000)
(0.06735024 -0.00220161 0.00000000)
(0.07431846 -0.00195198 0.00000000)
(0.08094478 -0.00178437 0.00000000)
(0.08712564 -0.00184637 0.00000000)
(0.09285542 -0.00149485 0.00000000)
(0.09812739 -0.00162355 0.00000000)
(0.10327943 -0.00131305 0.00000000)
(0.10815907 -0.00125540 0.00000000)
(0.11253463 -0.00119135 0.00000000)
(0.11626588 -0.00099104 0.00000000)
(0.11985382 -0.00087429 0.00000000)
(0.12309299 -0.00079874 0.00000000)
(0.12585304 -0.00066741 0.00000000)
(0.12825082 -0.00042274 0.00000000)
(0.12964178 -0.00011743 0.00000000)
(0.13042831 0.00006730 0.00000000)
(0.13069951 0.00014080 0.00000000)
(0.13062387 0.00027180 0.00000000)
(0.13012724 0.00047593 0.00000000)
(0.12887081 0.00060162 0.00000000)
(0.12680631 0.00104557 0.00000000)
(0.12346063 0.00149114 0.00000000)
(0.11898527 0.00179216 0.00000000)
(0.11327087 0.00222415 0.00000000)
(0.10536673 0.00298950 0.00000000)
(0.09532631 0.00371930 0.00000000)
(0.08261503 0.00484071 0.00000000)
(0.07009688 0.00640295 0.00000000)
(0.06365387 0.00738625 0.00000000)
(0.06561638 0.01182415 0.00000000)
(0.07097415 0.01936234 0.00000000)
(0.07920849 0.02736164 0.00000000)
(0.08874092 0.03714451 0.00000000)
(0.09903775 0.05175672 0.00000000)
(0.11225440 0.06579088 0.00000000)
(0.12577258 0.07975067 0.00000000)
(0.14018712 0.09733112 0.00000000)
(0.15972212 0.11426061 0.00000000)
(0.17567049 0.13247324 0.00000000)
(0.18862733 0.13492865 0.00000000)
(0.20932527 0.15493765 0.00000000)
(0.21626448 0.16885204 0.00000000)
(0.23834619 0.17839551 0.00000000)
(0.25139989 0.19517848 0.00000000)
(0.28285159 0.21707731 0.00000000)
(0.30160052 0.23758455 0.00000000)
(0.31212348 0.29612148 0.00000000)
(0.45370637 0.31739694 0.00000000)
(0.54493055 0.37779958 0.00000000)
(0.63798287 0.44303342 0.00000000)
(0.70032740 0.31904952 0.00000000)
(0.72029979 0.19564673 0.00000000)
(0.60121895 0.10372620 0.00000000)
(0.38775873 0.03111239 0.00000000)
(0.24937300 0.00910121 0.00000000)
(0.27971403 0.00378109 0.00000000)
(0.25213836 -0.00363399 0.00000000)
(0.19706367 -0.00464139 0.00000000)
(0.06177037 -0.00079033 0.00000000)
(-0.04059546 0.02199843 0.00000000)
(-0.06165486 0.04294108 0.00000000)
(-0.06798590 0.04802474 0.00000000)
(-0.06231425 0.04480165 0.00000000)
(-0.05326593 0.04227492 0.00000000)
(-0.05163028 0.04166305 0.00000000)
(-0.05097398 0.04329787 0.00000000)
(-0.05333784 0.04367204 0.00000000)
(-0.05924418 0.04901497 0.00000000)
(-0.06581103 0.05333130 0.00000000)
(-0.07457199 0.06133717 0.00000000)
(-0.08489083 0.06821492 0.00000000)
(-0.09507673 0.07656227 0.00000000)
(-0.10608321 0.08351560 0.00000000)
(-0.11557890 0.08767989 0.00000000)
(-0.12514293 0.08771867 0.00000000)
(-0.13375697 0.08642672 0.00000000)
(-0.13967830 0.07997074 0.00000000)
(-0.14892568 0.07085094 0.00000000)
(-0.15546171 0.06149465 0.00000000)
(-0.16036035 0.04993086 0.00000000)
(-0.16581326 0.03650793 0.00000000)
(-0.17230818 0.02407911 0.00000000)
(-0.18653261 0.01361849 0.00000000)
(-0.20360470 0.00890747 0.00000000)
(-0.21656310 0.00612249 0.00000000)
(-0.22453262 0.00397629 0.00000000)
(-0.22812396 0.00209514 0.00000000)
(-0.22828156 0.00088683 0.00000000)
(-0.22658894 0.00014871 0.00000000)
(-0.22319556 -0.00078691 0.00000000)
(-0.21758786 -0.00194459 0.00000000)
(-0.21010481 -0.00288233 0.00000000)
(-0.20024261 -0.00403972 0.00000000)
(-0.18952717 -0.00443150 0.00000000)
(-0.17913219 -0.00370257 0.00000000)
(-0.16948742 -0.00364621 0.00000000)
(-0.15973394 -0.00315766 0.00000000)
(-0.14955244 -0.00414186 0.00000000)
(-0.13806535 -0.00469833 0.00000000)
(-0.12640563 -0.00471693 0.00000000)
(-0.11511451 -0.00484046 0.00000000)
(-0.10456063 -0.00393675 0.00000000)
(-0.09487429 -0.00369175 0.00000000)
(-0.08531798 -0.00368896 0.00000000)
(-0.07551449 -0.00381833 0.00000000)
(-0.06541432 -0.00388746 0.00000000)
(-0.05490252 -0.00406631 0.00000000)
(-0.04459577 -0.00430709 0.00000000)
(-0.03422217 -0.00415783 0.00000000)
(-0.02389045 -0.00385174 0.00000000)
(-0.01369526 -0.00410921 0.00000000)
(-0.00369542 -0.00366068 0.00000000)
(0.00561484 -0.00373377 0.00000000)
(0.01518515 -0.00376002 0.00000000)
(0.02437437 -0.00361293 0.00000000)
(0.03376211 -0.00359897 0.00000000)
(0.04286955 -0.00351780 0.00000000)
(0.05200659 -0.00357299 0.00000000)
(0.06091780 -0.00348103 0.00000000)
(0.06994774 -0.00352135 0.00000000)
(0.07821369 -0.00306904 0.00000000)
(0.08565828 -0.00277713 0.00000000)
(0.09287911 -0.00255468 0.00000000)
(0.09941865 -0.00255770 0.00000000)
(0.10572688 -0.00216271 0.00000000)
(0.11153288 -0.00223096 0.00000000)
(0.11703049 -0.00193684 0.00000000)
(0.12232794 -0.00180225 0.00000000)
(0.12701403 -0.00168427 0.00000000)
(0.13125203 -0.00143467 0.00000000)
(0.13529914 -0.00129997 0.00000000)
(0.13894616 -0.00116511 0.00000000)
(0.14201187 -0.00099321 0.00000000)
(0.14483715 -0.00067037 0.00000000)
(0.14658705 -0.00026546 0.00000000)
(0.14781906 -0.00001594 0.00000000)
(0.14841278 0.00012120 0.00000000)
(0.14873078 0.00025716 0.00000000)
(0.14861984 0.00056054 0.00000000)
(0.14763844 0.00078280 0.00000000)
(0.14573954 0.00133876 0.00000000)
(0.14267561 0.00192270 0.00000000)
(0.13842345 0.00235951 0.00000000)
(0.13279165 0.00298314 0.00000000)
(0.12507535 0.00400933 0.00000000)
(0.11516655 0.00500945 0.00000000)
(0.10271055 0.00644980 0.00000000)
(0.09024694 0.00836500 0.00000000)
(0.08270009 0.01007246 0.00000000)
(0.08315006 0.01510962 0.00000000)
(0.08757256 0.02318621 0.00000000)
(0.09511843 0.03252572 0.00000000)
(0.10479209 0.04336279 0.00000000)
(0.11522776 0.05883055 0.00000000)
(0.13068985 0.07520037 0.00000000)
(0.14493061 0.09134599 0.00000000)
(0.16340020 0.11200061 0.00000000)
(0.18291542 0.12977598 0.00000000)
(0.20066371 0.14819459 0.00000000)
(0.21825538 0.15744330 0.00000000)
(0.23564792 0.17891320 0.00000000)
(0.24965757 0.19245668 0.00000000)
(0.27817642 0.20801350 0.00000000)
(0.29102358 0.22555398 0.00000000)
(0.33447755 0.25992537 0.00000000)
(0.35463828 0.28628387 0.00000000)
(0.39899226 0.36028078 0.00000000)
(0.51125918 0.35791369 0.00000000)
(0.58348924 0.40139878 0.00000000)
(0.71704496 0.46265767 0.00000000)
(0.84950818 0.38363503 0.00000000)
(0.87027886 0.24650093 0.00000000)
(0.75204122 0.13180817 0.00000000)
(0.52568836 0.04724820 0.00000000)
(0.35267423 0.01544177 0.00000000)
(0.36827841 0.00616518 0.00000000)
(0.32888686 -0.00382782 0.00000000)
(0.26301347 -0.00751769 0.00000000)
(0.11546033 -0.00584610 0.00000000)
(-0.02406685 0.01984658 0.00000000)
(-0.06494142 0.04659658 0.00000000)
(-0.07461989 0.05288078 0.00000000)
(-0.07147311 0.05135444 0.00000000)
(-0.06248154 0.05007782 0.00000000)
(-0.06109030 0.04950031 0.00000000)
(-0.06049043 0.05056110 0.00000000)
(-0.06318802 0.05235793 0.00000000)
(-0.06928304 0.05742428 0.00000000)
(-0.07630096 0.06277661 0.00000000)
(-0.08495343 0.07024723 0.00000000)
(-0.09538910 0.07758737 0.00000000)
(-0.10557329 0.08584572 0.00000000)
(-0.11593213 0.09193927 0.00000000)
(-0.12564184 0.09564655 0.00000000)
(-0.13492684 0.09554849 0.00000000)
(-0.14329355 0.09332845 0.00000000)
(-0.14962879 0.08629994 0.00000000)
(-0.15884098 0.07655542 0.00000000)
(-0.16627578 0.06627726 0.00000000)
(-0.17225346 0.05384553 0.00000000)
(-0.17874700 0.03995396 0.00000000)
(-0.18685029 0.02687457 0.00000000)
(-0.20084626 0.01610637 0.00000000)
(-0.21646056 0.01066801 0.00000000)
(-0.22752471 0.00720927 0.00000000)
(-0.23392080 0.00456261 0.00000000)
(-0.23632405 0.00221665 0.00000000)
(-0.23538719 0.00068501 0.00000000)
(-0.23263658 -0.00022007 0.00000000)
(-0.22824334 -0.00138744 0.00000000)
(-0.22190403 -0.00278312 0.00000000)
(-0.21370688 -0.00399757 0.00000000)
(-0.20332364 -0.00532576 0.00000000)
(-0.19216834 -0.00575284 0.00000000)
(-0.18125330 -0.00492496 0.00000000)
(-0.17097529 -0.00483311 0.00000000)
(-0.16058321 -0.00438169 0.00000000)
(-0.14953503 -0.00550293 0.00000000)
(-0.13763415 -0.00611312 0.00000000)
(-0.12553601 -0.00610877 0.00000000)
(-0.11421588 -0.00614795 0.00000000)
(-0.10337525 -0.00514896 0.00000000)
(-0.09307577 -0.00487517 0.00000000)
(-0.08293799 -0.00488620 0.00000000)
(-0.07262294 -0.00503151 0.00000000)
(-0.06202663 -0.00517408 0.00000000)
(-0.05098464 -0.00534666 0.00000000)
(-0.04027611 -0.00554366 0.00000000)
(-0.02946272 -0.00543121 0.00000000)
(-0.01874190 -0.00506968 0.00000000)
(-0.00818446 -0.00538226 0.00000000)
(0.00218813 -0.00483082 0.00000000)
(0.01208809 -0.00485548 0.00000000)
(0.02203074 -0.00493249 0.00000000)
(0.03158500 -0.00470470 0.00000000)
(0.04138417 -0.00475009 0.00000000)
(0.05089320 -0.00465492 0.00000000)
(0.06046404 -0.00465658 0.00000000)
(0.06978433 -0.00459170 0.00000000)
(0.07911728 -0.00457418 0.00000000)
(0.08770943 -0.00401583 0.00000000)
(0.09548488 -0.00368810 0.00000000)
(0.10310754 -0.00341472 0.00000000)
(0.10991966 -0.00332724 0.00000000)
(0.11664895 -0.00291520 0.00000000)
(0.12283775 -0.00290774 0.00000000)
(0.12863830 -0.00262327 0.00000000)
(0.13414173 -0.00240533 0.00000000)
(0.13902838 -0.00223078 0.00000000)
(0.14370829 -0.00195860 0.00000000)
(0.14818063 -0.00179484 0.00000000)
(0.15216369 -0.00157379 0.00000000)
(0.15549533 -0.00136785 0.00000000)
(0.15855252 -0.00096217 0.00000000)
(0.16062853 -0.00045901 0.00000000)
(0.16221676 -0.00015037 0.00000000)
(0.16317919 0.00006503 0.00000000)
(0.16384034 0.00019825 0.00000000)
(0.16409786 0.00059780 0.00000000)
(0.16333006 0.00095428 0.00000000)
(0.16162597 0.00160950 0.00000000)
(0.15889875 0.00232904 0.00000000)
(0.15492584 0.00292118 0.00000000)
(0.14948680 0.00374325 0.00000000)
(0.14205490 0.00503821 0.00000000)
(0.13257433 0.00631008 0.00000000)
(0.12061925 0.00805374 0.00000000)
(0.10841334 0.01034302 0.00000000)
(0.10022263 0.01272040 0.00000000)
(0.09928143 0.01819821 0.00000000)
(0.10271091 0.02681194 0.00000000)