2 	0.204239703047747 	2.08166817117217e-17 	0.185037806565817 	9.53179668757219e-07 	2562.47282619591 	5.63182153712346e-08 	2.86291922420354e-38
2 	0.209215445626134 	1.38777878078145e-17 	0.18502877325048 	1.16681318265456e-05 	736.330535703703 	1.56783617472891e-06 	0
2 	0.214371643686243 	1.21430643318376e-17 	0.185017798371559 	6.46356022323029e-05 	189.952313473035 	1.71352260942875e-05 	0
2 	0.219714773355171 	1.21430643318376e-17 	0.185001334331566 	0.000217675191906672 	81.4909410497443 	9.51127122081224e-05 	0
2 	0.225251538117274 	1.56125112837913e-17 	0.1849774190381 	0.000532597556487611 	44.6310604131295 	0.000307816605123017 	0
2 	0.230988876422674 	1.38777878078145e-17 	0.184944878029265 	0.00103274610534351 	28.0774023817924 	0.000622894113558017 	0
2 	0.236933969522678 	1.04083408558608e-17 	0.184903982720171 	0.00167442338581066 	19.2410417347969 	0.000839150359861686 	0
2 	0.243094249536736 	8.67361737988404e-18 	0.184856645490262 	0.00238208803252059 	14.001718947748 	0.000823152849719653 	0
2 	0.249477407755551 	1.73472347597681e-18 	0.184805441309934 	0.00309936624237565 	10.7015989796009 	0.000646329341161051 	0
2 	0.256091403184792 	-1.73472347597681e-18 	0.184752497986798 	0.00379972779289987 	8.53482028916937 	0.000436708711758396 	0
2 	0.262944471333784 	-1.73472347597681e-18 	0.184699147803801 	0.00447504960605358 	7.05778242418494 	0.000265236464888349 	0
2 	0.270045133253419 	0 	0.184646126686079 	0.00512527859045141 	6.01310736299074 	0.000148442571296287 	0
2 	0.277402204827315 	0 	0.184593850535593 	0.00575324106465216 	5.24797874973876 	7.98703948127245e-05 	0
2 	0.285024806320119 	-1.73472347597681e-18 	0.18454258652981 	0.00636249578504339 	4.66970019696602 	4.84961192569748e-05 	0
2 	0.292922372186588 	-5.20417042793042e-18 	0.184492535612055 	0.00695652548993653 	4.22054108241704 	4.48812403491776e-05 	0
2 	0.301104661144868 	-6.93889390390723e-18 	0.184443871254192 	0.00753847584815916 	3.86346608273534 	6.21664821674362e-05 	0
2 	0.309581766517083 	-1.04083408558608e-17 	0.184396758533495 	0.00811111149571564 	3.57399064971129 	9.56338737270634e-05 	0
2 	0.318364126840036 	-6.93889390390723e-18 	0.184351363345361 	0.00867685280121975 	3.33545805719876 	0.000142094358520979 	0
2 	0.3274625367485 	-6.93889390390723e-18 	0.184307856403073 	0.00923783797513683 	3.13623769989762 	0.000199402998985339 	0
2 	0.336888158133131 	-1.04083408558608e-17 	0.184266414616261 	0.00979598926796862 	2.96801989517851 	0.000266125159509222 	0
2 	0.346652531574654 	-1.04083408558608e-17 	0.184227221319168 	0.0103530763560242 	2.8247508293237 	0.000341318302665532 	0
2 	0.356767588055453 	-1.73472347597681e-17 	0.184190466252466 	0.0109107759822448 	2.70195098771793 	0.000424393475439285 	0
2 	0.367245660949204 	-2.42861286636753e-17 	0.184156346014219 	0.0114707293893311 	2.59626966543427 	0.000515030828226041 	0
2 	0.378099498288554 	-3.12250225675825e-17 	0.184125065743454 	0.0120346001722552 	2.50518901805343 	0.00061313301329726 	0
2 	0.389342275310276 	-4.5102810375397e-17 	0.184096843016816 	0.0126041358265481 	2.42682581617765 	0.00071880730680869 	0
2 	0.400987607276593 	-5.55111512312578e-17 	0.184071915317389 	0.0131812369249836 	2.35979941035674 	0.000832372324416493 	0
2 	0.413049562570635 	-5.55111512312578e-17 	0.184050552998511 	0.0137680387815247 	2.30314675843019 	0.000954389103447112 	0
2 	0.425542676063153 	-5.89805981832114e-17 	0.184033080456892 	0.0143670118877239 	2.25627324005931 	0.00108571988512726 	0
2 	0.438481962746717 	-5.89805981832114e-17 	0.184019909314407 	0.0149810896273515 	2.21893343096346 	0.00122762191433941 	0
2 	0.451882931632717 	-5.89805981832114e-17 	0.18401158888244 	0.0156138352451973 	2.19124033686706 	0.00138188893361988 	0
2 	0.465761599905378 	-5.89805981832114e-17 	0.184008881058614 	0.0162696655232052 	2.17370579490051 	0.00155106127170505 	0
2 	0.480134507325936 	-5.89805981832114e-17 	0.184012868605563 	0.0169541574035449 	2.16731986470485 	0.00173873919505244 	0
2 	0.495018730878875 	-6.59194920871187e-17 	0.184025107060542 	0.0176744781888584 	2.17368447274697 	0.00195005857859284 	0
2 	0.505103866616217 	-7.11236625150491e-17 	0.184038139030672 	0.0181713480676142 	2.18508956255081 	0.00210406831784492 	0
2 	0.512958328548976 	-7.80625564189563e-17 	0.184052217430722 	0.0185663165860723 	2.19993258615893 	0.00223391245788963 	0
2 	0.52643874760892 	-8.67361737988404e-17 	0.184083566817286 	0.0192615785533451 	2.23520563542893 	0.00247580946630276 	0
2 	0.543004266748957 	-1.00613961606655e-16 	0.184137690688097 	0.0201574234616482 	2.29913910147178 	0.00281688245637319 	0
2 	0.560154665728559 	-1.04083408558608e-16 	0.184216600288057 	0.0211504959445398 	2.39477556744433 	0.00323928453414602 	0
2 	0.577909799842719 	-1.00613961606655e-16 	0.184327905290057 	0.0222710161572949 	2.53223419985819 	0.00377558365457854 	0
2 	0.596290142031336 	-1.04083408558608e-16 	0.184477565543001 	0.0235500524497969 	2.71843190352284 	0.00446734958612807 	0
2 	0.615316798126349 	-1.00613961606655e-16 	0.184667352931185 	0.025014698565693 	2.95022900525252 	0.00536807091687847 	0
2 	0.635011522192281 	-9.71445146547012e-17 	0.184896294443583 	0.0267001384152708 	3.22152315934696 	0.00654408339164452 	0
2 	0.655396731937682 	-9.36750677027476e-17 	0.185164304490067 	0.0286610859182341 	3.53245239600595 	0.00808102558260844 	0
2 	0.676495524173076 	-8.67361737988404e-17 	0.185473040302278 	0.0309691246526813 	3.88844451743976 	0.0100962601987943 	0
2 	0.698331690289076 	-9.0205620750794e-17 	0.185824816284698 	0.0337030200552691 	4.29646028675711 	0.0128004338188203 	0
2 	0.720929731726265 	-9.71445146547012e-17 	0.186227852208494 	0.0369429922350408 	4.76327464684655 	0.0166874589691221 	0
2 	0.744314875406381 	-9.71445146547012e-17 	0.186700645234718 	0.0407991587223552 	5.29932989015664 	0.0222087589591876 	0
2 	0.768513089092199 	-1.04083408558608e-16 	0.187239961755701 	0.045374730832159 	5.91003986645986 	0.0300338114984349 	0
2 	0.793551096641308 	-1.14491749414469e-16 	0.187819332940499 	0.0505464767825504 	6.57063038226005 	0.040193345627599 	0
2 	0.819456393116764 	-1.17961196366423e-16 	0.188438867696369 	0.0558480808142848 	7.22973066796834 	0.0516223337042559 	0
2 	0.846257259715333 	-1.21430643318376e-16 	0.18912587551431 	0.0605893654548766 	7.82656413158855 	0.0628505946675595 	0
2 	0.873982778471785 	-1.17961196366423e-16 	0.189925611974874 	0.0641348574250499 	8.31661603969305 	0.0734131655517326 	0
2 	0.902662846695427 	-1.07552855510562e-16 	0.190880931803515 	0.0660262312314232 	8.68666189666824 	0.0814508186614199 	0
2 	0.932328191092801 	-1.11022302462516e-16 	0.191927256783959 	0.0659007759279767 	8.89681901245506 	0.086253706241862 	0
2 	0.963010381528271 	-1.11022302462516e-16 	0.19293730726557 	0.0634239747027531 	8.85338243538497 	0.0842988837787893 	0
2 	0.994741844372037 	-1.11022302462516e-16 	0.193831147591237 	0.0586584480476944 	8.44748598746738 	0.0730586895327209 	0
2 	1.02755587538303 	-1.21430643318376e-16 	0.194513137015723 	0.0523625851521652 	7.63056404475881 	0.0546977538276975 	0
2 	1.06148665207217 	-1.21430643318376e-16 	0.194923588553094 	0.0458033757103869 	6.49147781821658 	0.0352095969579162 	0
2 	1.09656924548955 	-1.21647483752874e-16 	0.195076111913953 	0.0401803516703161 	5.24888009766915 	0.0201462114069709 	0
2 	1.13283963137755 	-1.21213802883879e-16 	0.195047824758897 	0.0360678799051321 	4.15074642417094 	0.0110304485824753 	0
2 	1.17033470063016 	-1.18394877235417e-16 	0.194912434338267 	0.0333404682533317 	3.31312259325737 	0.00626401068860834 	0
2 	1.20909226899779 	-1.17961196366423e-16 	0.194704087882426 	0.0316072983001494 	2.72067843752167 	0.00393686659755034 	0
2 	1.24915108597551 	-1.13624387676481e-16 	0.194448632281482 	0.0304536512479038 	2.28062683994005 	0.00283353882997891 	0
2 	1.29055084281242 	-1.05818132034585e-16 	0.194191621763489 	0.029589044129711 	1.97412293129894 	0.00228732142755869 	0
2 	1.3333321795791 	-1.11022302462516e-16 	0.193971027388503 	0.0288189345903815 	1.7892033916589 	0.00196782004664382 	0
2 	1.37753669123035 	-1.196959198424e-16 	0.193786883696939 	0.0280313994869593 	1.6731771577842 	0.00173720552082264 	0
2 	1.41220272459525 	-1.17961196366423e-16 	0.193654916095908 	0.0273454872256657 	1.60563773904007 	0.00156206108999115 	0
2 	1.43617694926587 	-1.17961196366423e-16 	0.193562856406113 	0.0267990984673728 	1.5644900518006 	0.00143782512709179 	0
2 	1.45930396367274 	-1.17961196366423e-16 	0.193473046136477 	0.0262583355543292 	1.53188538473288 	0.00132154235238066 	0
2 	1.48161370685419 	-1.14491749414469e-16 	0.193389523794976 	0.0257002341335197 	1.50430828481192 	0.00120773208395411 	0
2 	1.50313505985141 	-1.11022302462516e-16 	0.193310723397823 	0.0251285013781348 	1.48108909579436 	0.00109743429912709 	0
2 	1.52389588309639 	-1.11022302462516e-16 	0.193235192767544 	0.0245470616594839 	1.46182559288429 	0.000991189157931409 	0
2 	1.54392305247858 	-1.09287578986539e-16 	0.193162425950537 	0.023959705630804 	1.44627198550371 	0.000889458740153121 	0
2 	1.56324249413704 	-1.11022302462516e-16 	0.19309211118093 	0.0233699078459769 	1.43428148360503 	0.000792612908157849 	0
2 	1.58187921802306 	-1.12757025938492e-16 	0.193023951623628 	0.0227807434257513 	1.42577571053684 	0.00070093059262688 	0
2 	1.5998573502768 	-1.09287578986539e-16 	0.19295768716361 	0.0221948631413289 	1.42072801445669 	0.000614616184295599 	0
2 	1.61720016445966 	-1.05818132034585e-16 	0.192893105229563 	0.0216145024138704 	1.4191543585629 	0.000533816391758842 	0
2 	1.63393011168312 	-9.8879238130678e-17 	0.192830036427657 	0.0210415093193129 	1.42110867722377 	0.000458634454795981 	0
2 	1.65006884967274 	-9.71445146547012e-17 	0.192768349217396 	0.0204773824513201 	1.42668114389719 	0.00038914288897923 	0
2 	1.66563727080512 	-1.02348685082632e-16 	0.192707945681511 	0.0199233130060485 	1.43599856845758 	0.000325395813872112 	0
2 	1.68065552915415 	-1.04083408558608e-16 	0.192648757565116 	0.0193802276498173 	1.44922654252656 	0.000267441432816512 	0
2 	1.69514306658136 	-1.05818132034585e-16 	0.192590742339253 	0.0188488301458019 	1.46657318050838 	0.00021533504322153 	0
2 	1.70911863790442 	-1.07552855510562e-16 	0.192533879368119 	0.0183296406480097 	1.48829445600545 	0.00016915292420424 	0
2 	1.72260033517611 	-1.07552855510562e-16 	0.192478166261325 	0.01782303219518 	1.51470125420981 	0.000129007509130153 	0
2 	1.73560561110537 	-1.07552855510562e-16 	0.192423615457159 	0.0173292643610208 	1.54616837467917 	9.50643908716191e-05 	0
2 	1.74815130165068 	-1.09287578986539e-16 	0.192370251064348 	0.0168485143090706 	1.58314584004962 	6.75619189328844e-05 	0
2 	1.76025364781503 	-1.11022302462516e-16 	0.192318105977644 	0.0163809057066548 	1.62617300568089 	4.68344292245228e-05 	0
2 	1.77192831667065 	-1.11022302462516e-16 	0.192267219271925 	0.0159265361053253 	1.67589613344187 	3.33405113692943e-05 	0
2 	1.78319042164084 	-1.11022302462516e-16 	0.192217633870219 	0.0154855035182288 	1.73309030129945 	2.76981901043307e-05 	0
2 	1.79405454206499 	-1.11022302462516e-16 	0.192169394473366 	0.0150579330348838 	1.79868678230877 	3.07295136945229e-05 	0
2 	1.80453474207227 	-1.11022302462516e-16 	0.192122545732584 	0.0146440044220728 	1.87380735717099 	4.35178516176771e-05 	0
2 	1.81464458878829 	-1.12757025938492e-16 	0.192077130640602 	0.0142439817710958 	1.95980744009768 	6.74822638883626e-05 	0
2 	1.82439716989841 	-1.17961196366423e-16 	0.192033189112118 	0.013858246363354 	2.05833041364894 	0.000104474676832009 	0
2 	1.83380511059041 	-1.196959198424e-16 	0.191990756719776 	0.013487334022165 	2.17137619363308 	0.000156907335913742 	0
2 	1.84288058989839 	-1.16226472890446e-16 	0.191949863547745 	0.0131319782618062 	2.30138777245089 	0.000227920113758135 	0
2 	1.8516353564691 	-1.14491749414469e-16 	0.191910533121152 	0.0127931604633796 	2.45136027414538 	0.000321599631936735 	0
2 	1.86008074377114 	-1.14491749414469e-16 	0.191872781366551 	0.0124721679743408 	2.6249777806223 	0.000443264482084729 	0
2 	1.8682276847667 	-1.17961196366423e-16 	0.191836615556627 	0.0121706602340262 	2.82678360932809 	0.000599832345157618 	0
2 	1.87608672606481 	-1.21430643318376e-16 	0.191802033193262 	0.0118907414447053 	3.06238937226705 	0.000800283993333641 	0
2 	1.88366804157438 	-1.196959198424e-16 	0.191769020792661 	0.0116350354716999 	3.33872622340233 	0.00105623332897214 	0
2 	1.89098144567491 	-1.17961196366423e-16 	0.191737552562333 	0.0114067539899874 	3.66433696008298 	0.00138259751909668 	0
2 	1.89803640592159 	-1.196959198424e-16 	0.191707588980612 	0.011209741863015 	4.04969839986861 	0.00179833116659483 	0
2 	1.90484205530156 	-1.17961196366423e-16 	0.191679075225675 	0.0110484742590902 	4.50754795886922 	0.00232713741792279 	0
2 	1.91140720405699 	-1.14491749414469e-16 	0.191651939454336 	0.0109279692645172 	5.05316598226429 	0.00299799477317296 	0
2 	1.91774035109036 	-1.16226472890446e-16 	0.191626092547113 	0.010853571411994 	5.70453911919581 	0.0038452497191066 	0
2 	1.92384969496671 	-1.21430643318376e-16 	0.19160143452715 	0.0108305629263375 	6.48231036997223 	0.00490794936570416 	0
2 	1.92974314452706 	-1.26634813746307e-16 	0.191577862007685 	0.0108635813003425 	7.40942915435699 	0.00622808295823989 	0
2 	1.93542832912681 	-1.31838984174237e-16 	0.191555209745397 	0.0109558736979627 	8.51046627136186 	0.00785055803590576 	0
2 	1.9409126085123 	-1.37043154602168e-16 	0.191533083727869 	0.011108474826702 	9.81086733900023 	0.00986586699874279 	0
2 	1.94620308234835 	-1.38777878078145e-16 	0.191511268194837 	0.0113191683657308 	11.3407778457902 	0.0124126252840539 	0
2 	1.95130659940914 	-1.33573707650214e-16 	0.191489634406033 	0.0115815888172457 	13.1434072540653 	0.0154401680373733 	0
2 	1.95622976644424 	-1.28369537222284e-16 	0.191468503560947 	0.0118839353293874 	15.2490764437236 	0.0190637958790194 	0
2 	1.96097895673142 	-1.28369537222284e-16 	0.191448405347199 	0.0122002651604538 	17.6421950810654 	0.023116743134806 	0
2 	1.96556031832711 	-1.28369537222284e-16 	0.191429212558137 	0.0124966862336444 	20.2831181120286 	0.0274233257370244 	0
2 	1.96997978202541 	-1.23165366794353e-16 	0.191410684967772 	0.0127383770636009 	23.1368306363492 	0.0318529657352119 	0
2 	1.97424306903575 	-1.196959198424e-16 	0.191392766815279 	0.0128929360768546 	26.1903439057333 	0.0363018358903907 	0
2 	1.9783556983893 	-1.196959198424e-16 	0.191375566262472 	0.012930877401485 	29.46311564889 	0.0406787729846499 	0
2 	1.98232299408358 	-1.14491749414469e-16 	0.191359259758194 	0.0128245494566507 	33.0151065531051 	0.0448994804920592 	0
2 	1.98615009197469 	-1.11022302462516e-16 	0.191344000289346 	0.01254605723455 	36.9544174060083 	0.0488590797628343 	0
2 	1.98984194642589 	-1.11022302462516e-16 	0.191329920235511 	0.0120648699854254 	41.4466787418583 	0.0523121795329455 	0
2 	1.99340333672126 	-1.11022302462516e-16 	0.191317276289561 	0.0113491641684746 	46.7317869692528 	0.0549780494570403 	0
2 	1.99683887325273 	-1.09287578986539e-16 	0.191306391433918 	0.0103676843057047 	53.1725239081453 	0.0564003956425791 	0
2 	2.00015300348844 	-1.09287578986539e-16 	0.19129743175902 	0.00909478356532478 	61.3754948343423 	0.0558565214372391 	0
2 	2.00335001773022 	-1.11022302462516e-16 	0.191290407756306 	0.00752153462180916 	72.4593469606156 	0.0522267910435308 	0
2 	2.00643405466757 	-1.11022302462516e-16 	0.191285330638781 	0.00567935679255117 	88.7011273105456 	0.0430558102269725 	0
2 	2.00940910673542 	-1.11022302462516e-16 	0.191282006436883 	0.00373641977746237 	115.326004094116 	0.0285488383996356 	0
2 	2.01227902528252 	-1.11022302462516e-16 	0.191279968439614 	0.00202720522068442 	166.267007146642 	0.0136833144865774 	0
2 	2.01504752555717 	-1.11022302462516e-16 	0.191278724529661 	0.000857013946186696 	285.106991324984 	0.00427598963184756 	0
2 	2.01771819151684 	-1.12757025938492e-16 	0.191277858065417 	0.000261210317090625 	649.925993022127 	0.000792926562526561 	0
2 	2.02029448046774 	-1.16226472890446e-16 	0.191277130938108 	4.92627570565836e-05 	2552.32659561397 	7.62167776699594e-05 	0
2 	2.02277972754047 	-1.17961196366423e-16 	0.191276587044809 	4.39013657898288e-06 	8519.9470113484 	2.84135509041342e-06 	3.25907914419581e-38
