7 	0.00391112967796255 	1.21430643318376e-17 	-0.0036142495061298 	-2.3541578004979e-05 	0
7 	0.0118766651674913 	1.21430643318376e-17 	-0.00499298724844463 	-0.00017988529030067 	-9.47072956885336e-23
7 	0.020134001548576 	1.04083408558608e-17 	0.00084417114746029 	-0.000508999138208729 	-7.81355144241425e-22
7 	0.0286938283423949 	1.21430643318376e-17 	0.0109137140606962 	-0.00100092045118109 	-1.72732125344895e-22
7 	0.0375672266585908 	1.73472347597681e-17 	0.0205863603407304 	-0.00156838189070068 	-8.74084411036531e-23
7 	0.046765683540303 	1.56125112837913e-17 	0.0285154904089358 	-0.00217855827657325 	-2.00851178495004e-22
7 	0.0563011068347006 	1.21430643318376e-17 	0.0351558921172318 	-0.00283375682871074 	-1.278652563074e-22
7 	0.0661858406082648 	1.04083408558608e-17 	0.0410304423169534 	-0.00353128383240196 	-7.72047219420697e-24
7 	0.0764326811267815 	-1.73472347597681e-18 	0.0464621284727195 	-0.00426615577616137 	-7.42933965683714e-24
7 	0.0870548934207257 	-6.93889390390723e-18 	0.051643488198493 	-0.00503546281280154 	-5.90760068263536e-23
7 	0.098066228457484 	-1.73472347597681e-18 	0.0566967619255065 	-0.00583802860470477 	-7.42547791868054e-24
7 	0.109480940942647 	1.73472347597681e-18 	0.0617058410406874 	-0.00667345870366472 	9.99555506109929e-24
7 	0.121313807773416 	3.46944695195361e-18 	0.06673280823594 	-0.007541697987058 	7.95260600108584e-23
7 	0.13358014716801 	1.73472347597681e-18 	0.0718269018663947 	-0.00844287254634409 	9.9898543795706e-24
7 	0.146295838495838 	3.46944695195361e-18 	0.0770296643553197 	-0.00937721320843108 	-3.86643007212089e-24
7 	0.159477342834115 	6.93889390390723e-18 	0.08237807447424 	-0.0103450030162551 	-7.73050105760893e-24
7 	0.173141724277517 	8.67361737988404e-18 	0.0879065612396323 	-0.0113465373911795 	-1.09292162177993e-23
7 	0.18730667202848 	8.67361737988404e-18 	0.0936483694072614 	-0.0123820918894648 	-5.96141983255219e-23
7 	0.201990523296728 	1.73472347597681e-18 	0.0996365340863061 	-0.0134518935974806 	-1.05080808434788e-23
7 	0.217212287037676 	-6.93889390390723e-18 	0.105904611231413 	-0.0145560935485338 	3.11855770066948e-24
7 	0.232991668560441 	-5.20417042793042e-18 	0.112487250216739 	-0.0156947384954162 	1.57095050801644e-23
7 	0.249349095037321 	-1.73472347597681e-18 	0.119420659987526 	-0.0168677408558231 	1.05763580804821e-22
7 	0.266305741947753 	-3.46944695195361e-18 	0.126742999367732 	-0.0180748458842469 	1.04289187764403e-22
7 	0.283883560490998 	1.73472347597681e-18 	0.134494708750763 	-0.0193155952519257 	1.34411372350655e-17
7 	0.30210530600303 	3.46944695195361e-18 	0.142718791263328 	-0.0205892862896051 	1.34742736018947e-17
7 	0.320994567414413 	-5.20417042793042e-18 	0.151461044692711 	-0.0218949261796355 	4.70617520842911e-20
7 	0.34057579778732 	-5.20417042793042e-18 	0.160770239911012 	-0.023231180372483 	-4.81216039476186e-20
7 	0.3608743459712 	-1.73472347597681e-18 	0.170698236557294 	-0.024596314567391 	-1.35031710358294e-17
7 	0.38191648941809 	0 	0.181300021962391 	-0.0259881301842038 	-1.34400610401232e-17
7 	0.403729468200046 	5.20417042793042e-18 	0.19263365448816 	-0.0274038938789672 	1.24149020588743e-23
7 	0.426341520272734 	8.67361737988404e-18 	0.204760087156568 	-0.0288402557303774 	7.41210195961197e-23
7 	0.449781918030829 	1.04083408558608e-17 	0.217742840552692 	-0.0302931311625367 	-1.89322841871985e-22
7 	0.474081006202548 	1.04083408558608e-17 	0.231647487186291 	-0.0317575585323617 	-5.13053582853533e-23
7 	0.499270241132363 	1.21430643318376e-17 	0.24654092070285 	-0.0332278662312054 	-1.95842025071196e-22
7 	0.525382231502763 	1.04083408558608e-17 	0.262490460491447 	-0.0346986174066779 	1.61356322317206e-22
7 	0.552450780547767 	5.20417042793042e-18 	0.279565475969209 	-0.0361629218421416 	-7.29382476773395e-25
7 	0.580510929812849 	5.20417042793042e-18 	0.29786931654672 	-0.0375987067757368 	-1.97744423533989e-22
7 	0.60959900451791 	1.04083408558608e-17 	0.317745943857306 	-0.0389845675092627 	1.7527166766925e-17
7 	0.639752660582033 	1.73472347597681e-17 	0.339605829431968 	-0.0403011926350902 	1.66068694252848e-17
7 	0.671010933370887 	2.08166817117217e-17 	0.36351865382405 	-0.0415161477579607 	-1.93284840521501e-17
7 	0.703414288229901 	2.08166817117217e-17 	0.389307991728038 	-0.04261810494095 	-1.84070914285731e-17
7 	0.737004672868606 	2.42861286636753e-17 	0.416714404789028 	-0.043604056623803 	-3.95290924581385e-22
7 	0.771825571663976 	2.77555756156289e-17 	0.445491618079163 	-0.0444681603343683 	4.79371244229545e-22
7 	0.807922061953054 	2.94902990916057e-17 	0.475425953173546 	-0.0451997606665804 	-5.33062545955376e-22
7 	0.845340872387742 	3.12250225675825e-17 	0.506306577808421 	-0.0457855443221668 	-5.81082357676772e-22
7 	0.884130443427309 	2.94902990916057e-17 	0.537883934428089 	-0.0462127602792314 	4.03145623803328e-23
7 	0.924340990046897 	3.12250225675825e-17 	0.569842235913665 	-0.0464720510077839 	6.39137927527288e-22
7 	0.966024566743242 	3.46944695195361e-17 	0.601794791529513 	-0.046559189181139 	1.58204024480485e-22
7 	1.00923513492173 	3.98986399474666e-17 	0.633297844478631 	-0.0464757776210593 	6.44065740142791e-22
7 	1.05402863275205 	4.33680868994202e-17 	0.663875352232273 	-0.046229579935907 	2.9917957462744e-24
7 	1.10046304758287 	4.16333634234434e-17 	0.693070277711582 	-0.0458336409413146 	-7.81957078490108e-23
7 	1.14859849100923 	3.98986399474666e-17 	0.720530742221058 	-0.0453036846580041 	7.21692190608738e-23
7 	1.19849727668994 	3.98986399474666e-17 	0.746074624981859 	-0.0446546003650263 	7.41078860107304e-23
7 	1.25022400101563 	3.64291929955129e-17 	0.769695769898799 	-0.0438983609936535 	0
7 	1.30384562673185 	3.12250225675825e-17 	0.791551968801814 	-0.0430438816533188 	6.72460336413767e-23
7 	1.35943156962565 	3.29597460435593e-17 	0.811958263198713 	-0.0420915442141957 	9.60187945833262e-22
7 	1.41705378838762 	3.29597460435593e-17 	0.831199662565048 	-0.0410420397617136 	1.95173721587523e-22
7 	1.47678687776592 	2.94902990916057e-17 	0.849344917353763 	-0.0399006412198159 	1.05533314597883e-21
7 	1.53870816513277 	2.94902990916057e-17 	0.866356919764906 	-0.0386786885831647 	3.72604675942248e-22
7 	1.60289781058851 	2.77555756156289e-17 	0.882211108463757 	-0.037382387068315 	1.9086065272207e-21
7 	1.66943891073266 	2.08166817117217e-17 	0.896901519365651 	-0.0360153937016639 	-2.23730675489902e-22
7 	1.73841760623657 	1.90819582357449e-17 	0.91046883587056 	-0.0345769888111931 	-1.93846639837374e-21
7 	1.80992319335659 	2.42861286636753e-17 	0.923008923410995 	-0.0330604351743391 	1.44571978709601e-21
7 	1.88404823953248 	2.60208521396521e-17 	0.934611616863928 	-0.0314555445065668 	1.15628705547383e-22
7 	1.96088870322037 	2.60208521396521e-17 	0.945075698683602 	-0.0297951559454303 	0
7 	2.02025965173184 	2.42861286636753e-17 	0.952419324468552 	-0.0284552915640908 	0
7 	2.06006301192217 	2.42861286636753e-17 	0.957158176084999 	-0.027503504047173 	0
7 	2.09845978584128 	2.77555756156289e-17 	0.961208806927213 	-0.0266112339521518 	0
7 	2.13549967996945 	3.12250225675825e-17 	0.964806148643191 	-0.0257410018895164 	0
7 	2.17123064424048 	3.46944695195361e-17 	0.967978040405763 	-0.0248928437685566 	0
7 	2.20569893411515 	3.64291929955129e-17 	0.970748324505243 	-0.0240666733570999 	0
7 	2.23894917046122 	3.81639164714898e-17 	0.973137265163622 	-0.0232623123924641 	0
7 	2.27102439731725 	3.81639164714898e-17 	0.975161831049961 	-0.0224794926406163 	0
7 	2.30196613761521 	3.81639164714898e-17 	0.9768359004211 	-0.0217178593949047 	0
7 	2.33181444693391 	3.64291929955129e-17 	0.978170416249443 	-0.0209769778880442 	0
7 	2.3606079653529 	3.46944695195361e-17 	0.97917350698608 	-0.0202563404937616 	0
7 	2.3883839674739 	3.46944695195361e-17 	0.979850582430117 	-0.0195553736807445 	0
7 	2.41517841067461 	3.46944695195361e-17 	0.980204410530629 	-0.0188734443200267 	0
7 	2.44102598165722 	3.12250225675825e-17 	0.98023517909167 	-0.018209865204338 	0
7 	2.46596014135207 	2.77555756156289e-17 	0.979940545644862 	-0.0175638997900663 	0
7 	2.49001316823443 	2.77555756156289e-17 	0.979315678759347 	-0.0169347662939372 	0
7 	2.51321620011054 	3.12250225675825e-17 	0.978353294537219 	-0.0163216413817771 	0
7 	2.535599274427 	3.46944695195361e-17 	0.977043692871514 	-0.0157236637812486 	0
7 	2.55719136715571 	3.81639164714898e-17 	0.975374799155212 	-0.0151399382369063 	0
7 	2.57802043030465 	3.81639164714898e-17 	0.973332218470005 	-0.0145695403024237 	0
7 	2.59811342810315 	3.46944695195361e-17 	0.970899310781078 	-0.0140115225240562 	0
7 	2.61749637190832 	3.46944695195361e-17 	0.968057297197125 	-0.0134649225985377 	0
7 	2.63619435387806 	3.29597460435593e-17 	0.964785408721682 	-0.0129287740701334 	0
7 	2.65423157945406 	3.12250225675825e-17 	0.961061089815325 	-0.0124021200456445 	0
7 	2.67163139869691 	3.12250225675825e-17 	0.956860269080063 	-0.0118840302354859 	0
7 	2.68841633651388 	3.12250225675825e-17 	0.952157707919981 	-0.0113736213519301 	0
7 	2.7046081218185 	3.29597460435593e-17 	0.946927434487317 	-0.0108700804447019 	0
7 	2.72022771565972 	3.46944695195361e-17 	0.941143263937839 	-0.0103726900981489 	0
6.99999999999999 	2.73529533835694 	3.12250225675825e-17 	0.934779396513515 	-0.00988085431657315 	0
6.99999999999999 	2.74983049567625 	2.77555756156289e-17 	0.927811072371696 	-0.00939412613602098 	0
6.99999999999999 	2.76385200408156 	3.12250225675825e-17 	0.920215247942382 	-0.00891223585206776 	0
6.99999999999999 	2.77737801509343 	3.29597460435593e-17 	0.911971246803553 	-0.00843508164909964 	0
6.99999999999999 	2.79042603878708 	3.46944695195361e-17 	0.903061333892663 	-0.00796261371734967 	0
6.99999999999999 	2.80301296646003 	3.81639164714898e-17 	0.893471077395 	-0.00749503859520564 	0
6.99999999999999 	2.81515509249872 	3.64291929955129e-17 	0.883177018607247 	-0.00703420280423598 	0
6.99999999999999 	2.82686813547237 	3.46944695195361e-17 	0.872044288472806 	-0.00657756705445638 	0
6.99999999999999 	2.83816725848142 	3.64291929955129e-17 	0.859889118538907 	-0.00612184565541291 	0
6.99999999999999 	2.84906708878691 	3.64291929955129e-17 	0.846654027164203 	-0.0056677478182385 	0
6.99999999999999 	2.85958173674616 	3.12250225675825e-17 	0.832377828467111 	-0.00521781135697281 	0
6.99999999999999 	2.86972481407933 	3.12250225675825e-17 	0.817148850006066 	-0.00477544291569586 	0
6.99999999999999 	2.87950945149043 	3.46944695195361e-17 	0.801071443694329 	-0.00434416180885738 	0
6.99999999999999 	2.88894831566566 	3.46944695195361e-17 	0.784246503126364 	-0.00392718551232655 	0
6.99999999999999 	2.89805362567106 	3.81639164714898e-17 	0.766762091061978 	-0.00352728328455909 	0
6.99999999999999 	2.90683716877067 	4.16333634234434e-17 	0.748689811089598 	-0.00314675173266505 	0
6.99999999999999 	2.91531031568569 	4.16333634234434e-17 	0.730083397995604 	-0.00278742194703082 	0
6.99999999999999 	2.92348403531448 	4.33680868994202e-17 	0.710977485923844 	-0.00245067754959569 	0
6.99999999999999 	2.93136890893229 	4.85722573273506e-17 	0.691385694156448 	-0.00213748314597394 	0
6.99999999999999 	2.93897514388925 	5.72458747072346e-17 	0.671297742802852 	-0.00184842114196934 	0
7 	2.94631258682425 	6.24500451351651e-17 	0.650675426773647 	-0.00158373292668356 	0
7 	2.95339073641193 	6.24500451351651e-17 	0.629447178851056 	-0.00134336090796682 	0
7 	2.96021875565915 	6.24500451351651e-17 	0.607500862057419 	-0.00112698997396869 	0
7 	2.96680548376697 	6.41847686111419e-17 	0.584674284632516 	-0.000934089886615211 	0
7 	2.97315944757337 	6.41847686111419e-17 	0.560742323951192 	-0.000763961824078142 	0
7 	2.97928887259171 	5.89805981832114e-17 	0.535398453165633 	-0.00061576696291629 	0
7 	2.98520169365902 	5.89805981832114e-17 	0.50822546156092 	-0.00048838774219907 	0
7 	2.99090556520806 	5.55111512312578e-17 	0.47863977339844 	-0.000379890599629141 	0
7 	2.99640787117633 	4.85722573273506e-17 	0.445809960816858 	-0.000288296753235623 	0
7 	3.00171573456492 	5.20417042793042e-17 	0.408625678562913 	-0.000211290697535019 	0
7 	3.00683602665962 	5.3776427755281e-17 	0.365755835019878 	-0.000147360720377683 	0
7 	3.01177537592612 	5.55111512312578e-17 	0.315999465752626 	-9.55000817870348e-05 	0
7 	3.01654017659085 	5.89805981832114e-17 	0.259423134853395 	-5.54727400475536e-05 	0
7 	3.02113659691864 	5.89805981832114e-17 	0.198683827819176 	-2.74801704978137e-05 	0
7 	3.02557058719784 	5.89805981832114e-17 	0.13798323419096 	-1.06620834054964e-05 	0
7 	3.02984788744324 	5.55111512312578e-17 	0.080159468629686 	-2.54745930056551e-06 	0
