1 	0.609998707734988 	-6.93889390390723e-18 	0.0793546827640469 	8.10976261652665e-08 	2469.78176329301 	7.66263563428927e-10 	1.8177699731239e-38
1 	0.615677669341748 	-6.93889390390723e-18 	0.0793349423078935 	1.14496098835737e-06 	579.595258362492 	2.25833657525477e-08 	0
1 	0.621563396586334 	-1.38777878078145e-17 	0.0793136478310849 	6.87262385136101e-06 	161.838166756709 	2.68799860085233e-07 	0
1 	0.627663371400796 	-6.93889390390723e-18 	0.0792924369546853 	2.4418804554311e-05 	70.591152865557 	1.63350278207803e-06 	0
1 	0.633985343163336 	0 	0.0792705362863562 	6.3830143025921e-05 	38.1678816574375 	6.26418927445925e-06 	0
1 	0.640537338029282 	3.46944695195361e-18 	0.0792475663093379 	0.000136943852273793 	23.3684994205148 	1.70937439073538e-05 	0
1 	0.647327668572245 	6.93889390390723e-18 	0.0792234125789226 	0.000254679042486334 	15.4943791263467 	3.4738769260605e-05 	0
1 	0.65436494374482 	1.04083408558608e-17 	0.0791980949461708 	0.000422350979841969 	10.8584243046257 	5.27886508790599e-05 	0
1 	0.661658079168369 	1.04083408558608e-17 	0.0791718751318123 	0.000635804001713504 	7.94638167033097 	5.95694386773687e-05 	0
1 	0.66921630776171 	3.46944695195361e-18 	0.0791452932535936 	0.000882858346142459 	6.04842193653329 	4.99263517158006e-05 	0
1 	0.677049190718746 	0 	0.0791190291880865 	0.00115070303346691 	4.78511177711353 	3.09201578647407e-05 	0
1 	0.685166628845283 	3.46944695195361e-18 	0.0790937050750328 	0.00143052670361757 	3.93008609772625 	1.31536877077507e-05 	0
1 	0.693578874265574 	1.04083408558608e-17 	0.0790697779361567 	0.00171827984043196 	3.34168602153717 	2.88108913233914e-06 	0
1 	0.702296542509335 	1.04083408558608e-17 	0.0790475627000672 	0.00201345078279767 	2.93121540555285 	1.89309680315054e-06 	0
1 	0.711330624990233 	0 	0.0790273318887393 	0.00231782586232038 	2.64387554179941 	1.01248169345447e-05 	0
1 	0.720692501887127 	-1.04083408558608e-17 	0.0790094197571486 	0.00263481926877099 	2.44639033786238 	2.74476406284951e-05 	0
1 	0.730393955439554 	-1.38777878078145e-17 	0.0789943054149859 	0.00296931181264527 	2.31932479221276 	5.44917995079185e-05 	0
1 	0.740447183669264 	-2.08166817117217e-17 	0.0789826767021414 	0.00332791041379958 	2.25269229880301 	9.31329882106355e-05 	0
1 	0.75086481453986 	-2.77555756156289e-17 	0.0789754630151798 	0.00371960570008684 	2.24383646062838 	0.000147113674936152 	0
1 	0.761659920566846 	-2.77555756156289e-17 	0.0789737445450536 	0.00415690768291964 	2.296989296008 	0.000223108076212291 	0
1 	0.772846033890729 	-2.77555756156289e-17 	0.0789784135188547 	0.00465719698519851 	2.42357082531981 	0.000332144526065653 	0
1 	0.784437161826055 	-3.12250225675825e-17 	0.0789900207926675 	0.0052388391473538 	2.63451815196315 	0.000490404849974457 	0
1 	0.796447802899618 	-3.81639164714898e-17 	0.0790095518679821 	0.00591538534847696 	2.9169418553582 	0.000721468308123105 	0
1 	0.808892963391327 	-4.16333634234434e-17 	0.0790387095486012 	0.00671029907373862 	3.25231067272112 	0.00105807861257225 	0
1 	0.821788174391592 	-4.16333634234434e-17 	0.0790800490704908 	0.00766218698126676 	3.64373437461066 	0.00154074503984836 	0
1 	0.835149509389415 	-3.12250225675825e-17 	0.0791400372940388 	0.00881366669758306 	4.09507238859112 	0.00222264584525977 	0
1 	0.848993602405718 	-2.77555756156289e-17 	0.0792339644804538 	0.0102095597387894 	4.61023188285478 	0.0032003267660262 	0
1 	0.863337666686782 	-3.12250225675825e-17 	0.0794006607158865 	0.0118809008691393 	5.19244656224011 	0.00468238658442969 	0
1 	0.878199513973139 	-2.42861286636753e-17 	0.079653203886799 	0.0137994637301902 	5.84603065244806 	0.00711575329326211 	0
1 	0.893597574359564 	-2.42861286636753e-17 	0.0799054181360682 	0.0159351450920972 	6.58399677615023 	0.0107573718253878 	0
1 	0.909550916762347 	-3.12250225675825e-17 	0.0801037349647807 	0.0182555205971828 	7.41356430351304 	0.0156246063528575 	0
1 	0.926079270010412 	-3.33392168039293e-17 	0.0803268962771239 	0.0206347970957832 	8.3025741293404 	0.0218097307881783 	0
1 	0.943203044577384 	-3.19297539796981e-17 	0.0806487332938283 	0.0227996125238991 	9.11096898578678 	0.0283640691345801 	0
1 	0.96094335497223 	-3.51281503885303e-17 	0.0810661074540014 	0.024526079225961 	9.66788372286736 	0.0338361728737437 	0
1 	0.979322042806652 	-3.00324001778485e-17 	0.0815436383948405 	0.025727018165273 	9.88176637882745 	0.0368247422741251 	0
1 	0.998361700558027 	-2.03830008427275e-17 	0.0820374252498824 	0.0264267014651343 	9.71898686588769 	0.0365261457748246 	0
1 	1.01808569604737 	-2.12503625807159e-17 	0.0824955075187049 	0.0267346039157889 	9.19902589214863 	0.0331544202875419 	0
1 	1.03851819765243 	-1.60461921527855e-17 	0.0828890770400596 	0.026801992961448 	8.3828638084091 	0.0276844846597985 	0
1 	1.05968420027697 	-1.04083408558608e-17 	0.0832167086269334 	0.0267878281319929 	7.36767063823523 	0.0216938654854697 	0
1 	1.08160955209792 	-9.54097911787244e-18 	0.0834557961086348 	0.0268090170758944 	6.27235063829258 	0.015958695949795 	0
1 	1.10432098211309 	-6.93889390390723e-18 	0.0836037887310671 	0.0269407988217471 	5.20498165667093 	0.0113306000613197 	0
1 	1.12784612851327 	-6.93889390390723e-18 	0.0836718030061717 	0.0272053803958617 	4.24574483631545 	0.00802101356790801 	0
1 	1.15221356790332 	-7.80625564189563e-18 	0.0836548426109221 	0.027583152560536 	3.44930032298795 	0.00588148974736533 	0
1 	1.17745284539835 	-1.38777878078145e-17 	0.0835643226412094 	0.0280297124230643 	2.85908037567089 	0.00461442380949549 	0
1 	1.20359450562215 	-1.64798730217797e-17 	0.0834381738209076 	0.0284998912750641 	2.4685138263951 	0.00393468596147838 	0
1 	1.23067012463664 	-9.54097911787244e-18 	0.0833315534334765 	0.0289602854026997 	2.2219108742069 	0.00362338975464179 	0
1 	1.25871234283237 	-1.73472347597681e-18 	0.0832838117681654 	0.0293849101149113 	2.0625873187653 	0.00351362507182034 	0
1 	1.28775489881211 	4.33680868994202e-18 	0.0833062048796045 	0.0297506890138984 	1.95084477972223 	0.00348909267969472 	0
1 	1.31783266430119 	5.20417042793042e-18 	0.0833945910383 	0.0300363850845205 	1.86241107756129 	0.0034797123982739 	0
1 	1.34898168012017 	5.20417042793042e-18 	0.0835415500277481 	0.030223248130827 	1.78394096761998 	0.0034513968600636 	0
1 	1.38123919325783 	6.93889390390723e-18 	0.0837417567773207 	0.0302958524541493 	1.70928068999196 	0.00339381438077894 	0
1 	1.41464369508463 	8.67361737988404e-18 	0.0839937952228579 	0.030242437302374 	1.63647469612416 	0.00330875128328926 	0
1 	1.44923496074941 	5.20417042793042e-18 	0.0843001483001123 	0.0300547499828383 	1.56543548670386 	0.00320096361849772 	0
1 	1.48505408980478 	-3.46944695195361e-18 	0.0846658781356741 	0.0297277364514935 	1.49642946958019 	0.00307305122244497 	0
1 	1.52214354810991 	1.73472347597681e-18 	0.0850967469677405 	0.0292594091259405 	1.42940283737653 	0.00292445826622577 	0
1 	1.56054721106232 	3.46944695195361e-18 	0.0855976510750565 	0.0286509928112659 	1.36393067531321 	0.0027531536896406 	0
1 	1.60031040821395 	-1.73472347597681e-18 	0.0861718327722551 	0.0279072182475556 	1.29946307219205 	0.00255801355079142 	0
1 	1.64147996933068 	0 	0.0868207928597988 	0.0270365334374583 	1.23559511815023 	0.00234044947060246 	0
1 	1.68410427195819 	-6.93889390390723e-18 	0.0875445388203838 	0.0260510432379801 	1.17221873040805 	0.00210477733073444 	0
1 	1.72823329056171 	-2.08166817117217e-17 	0.0883418592965537 	0.0249660911995552 	1.10953396294555 	0.00185759231359839 	0
1 	1.77391864731173 	-3.12250225675825e-17 	0.0892104867062059 	0.023799538858415 	1.04796888865451 	0.00160673829640127 	0
1 	1.82121366459262 	-3.81639164714898e-17 	0.090146895663039 	0.0225712342043983 	0.988145563376554 	0.0013603005680487 	0
1 	1.8701734193166 	-4.85722573273506e-17 	0.0911455685664368 	0.0213029924963643 	0.93102534580103 	0.00112559753684886 	0
1 	1.92085479913089 	-5.55111512312578e-17 	0.0921983557292427 	0.0200148374594105 	0.877510747268769 	0.00090883369929347 	0
1 	1.97331656061211 	-6.59194920871187e-17 	0.0932680811227914 	0.0187559084574899 	0.828968647651378 	0.00071876293513075 	0
1 	2.02025965173185 	-7.28583859910259e-17 	0.0942586997865082 	0.0176450283807624 	0.788997913486862 	0.000567790986240772 	0
1 	2.06006301192217 	-6.93889390390723e-17 	0.0951244560229459 	0.0167147830296212 	0.757662057362992 	0.000454212555534973 	0
1 	2.09845978584128 	-7.28583859910259e-17 	0.09592265758947 	0.0158936849707968 	0.731889068711871 	0.000363614638440519 	0
1 	2.13549967996946 	-7.63278329429795e-17 	0.0966845185928498 	0.0151441764714087 	0.710221960666378 	0.000288927315220928 	0
1 	2.17123064424048 	-7.63278329429795e-17 	0.0974089219633047 	0.014458019384885 	0.692283531853484 	0.00022768712108953 	0
1 	2.20569893411516 	-7.63278329429795e-17 	0.0980957231648117 	0.0138277072745514 	0.677760679634355 	0.000177561634448837 	0
1 	2.23894917046123 	-7.97972798949331e-17 	0.0987455371765537 	0.0132466494811817 	0.666399417201333 	0.000136581868866375 	0
1 	2.27102439731726 	-8.67361737988404e-17 	0.0993592842059446 	0.0127092145026649 	0.658000570664416 	0.000103128952230434 	0
1 	2.30196613761522 	-9.0205620750794e-17 	0.0999380719893733 	0.0122106702485046 	0.652416202229972 	7.59052149887852e-05 	0
1 	2.33181444693392 	-9.0205620750794e-17 	0.100483146246809 	0.0117470844676076 	0.649546533037192 	5.38973148994446e-05 	0
1 	2.3606079653529 	-9.0205620750794e-17 	0.100995842709778 	0.0113152186762874 	0.649337385478714 	3.63372419556999e-05 	0
1 	2.38838396747391 	-8.67361737988404e-17 	0.101477547826572 	0.0109124271481499 	0.651778208465415 	2.26659347853633e-05 	0
1 	2.41517841067461 	-7.97972798949331e-17 	0.101929669460238 	0.010536566430276 	0.65690073184339 	1.25019728508491e-05 	0
1 	2.44102598165722 	-7.63278329429795e-17 	0.102353615021108 	0.0101859171848467 	0.66477826203473 	5.61608879889653e-06 	0
1 	2.46596014135208 	-7.63278329429795e-17 	0.102750775097125 	0.0098591180962698 	0.675525590839538 	1.91131290018482e-06 	0
1 	2.49001316823444 	-7.28583859910259e-17 	0.103122511357401 	0.00955511049243069 	0.689299445899591 	1.40807863762326e-06 	0
1 	2.51321620011054 	-6.93889390390723e-17 	0.103470147830426 	0.00927309179026876 	0.706299364217995 	4.2333711392522e-06 	0
1 	2.535599274427 	-6.93889390390723e-17 	0.103794964860699 	0.00901247564033467 	0.72676881796204 	1.06128614587834e-05 	0
1 	2.55719136715571 	-6.24500451351651e-17 	0.104098195203951 	0.00877285657101709 	0.750996363746469 	2.08648655827231e-05 	0
1 	2.57802043030466 	-5.55111512312578e-17 	0.104381021838723 	0.00855397695127598 	0.779316524207664 	3.53948643063156e-05 	0
1 	2.59811342810315 	-5.55111512312578e-17 	0.104644577156898 	0.00835569418056258 	0.812110049634914 	5.46892199466737e-05 	0
1 	2.61749637190832 	-5.55111512312578e-17 	0.104889943257019 	0.00817794618945405 	0.849803159557201 	7.93066607664971e-05 	0
1 	2.63619435387806 	-5.55111512312578e-17 	0.105118153112137 	0.00802071366739886 	0.892865348898628 	0.000109866122321477 	0
1 	2.65423157945406 	-5.20417042793042e-17 	0.10533019235859 	0.0078839800276133 	0.941805380486994 	0.000147029752002031 	0
1 	2.67163139869691 	-4.85722573273506e-17 	0.105527001462527 	0.00776768639194581 	0.997165213443874 	0.00019148032515663 	0
1 	2.68841633651388 	-4.85722573273506e-17 	0.105709478235706 	0.00767167486875321 	1.05951189683725 	0.000243893043692746 	0
1 	2.70460812181851 	-5.20417042793042e-17 	0.105878480523696 	0.00759563919037036 	1.12942784344174 	0.000304903071277218 	0
1 	2.72022771565972 	-5.55111512312578e-17 	0.106034828726592 	0.00753907639148102 	1.2075004089022 	0.000375071189088497 	0
1 	2.73529533835695 	-5.55111512312578e-17 	0.106179308057469 	0.0075012422094215 	1.2943123588282 	0.000454851598548424 	0
1 	2.74983049567625 	-4.85722573273506e-17 	0.106312670472331 	0.00748111789867109 	1.39043544369486 	0.000544567026155863 	0
1 	2.76385200408157 	-4.5102810375397e-17 	0.106435636199995 	0.00747739347768428 	1.49642982518384 	0.000644396835664322 	0
1 	2.77737801509344 	-4.85722573273506e-17 	0.106548894853884 	0.00748847106134931 	1.61285239800398 	0.000754383607819285 	0
1 	2.79042603878708 	-4.85722573273506e-17 	0.106653106093601 	0.00751248994092964 	1.74027703742205 	0.000874462336636749 	0
1 	2.80301296646003 	-5.20417042793042e-17 	0.106748899869582 	0.0075473748917992 	1.87932944302994 	0.00100451458613819 	0
1 	2.81515509249872 	-5.20417042793042e-17 	0.106836876373364 	0.00759090512320221 	2.03073863746255 	0.00114444783262737 	0
1 	2.82686813547237 	-4.85722573273506e-17 	0.106917605723654 	0.00764079517659791 	2.19540656492035 	0.00129429806067215 	0
1 	2.83816725848142 	-4.5102810375397e-17 	0.106991627362119 	0.0076947805079897 	2.374496853736 	0.00145435266731302 	0
1 	2.84906708878691 	-3.46944695195361e-17 	0.107059449125993 	0.00775070105643386 	2.56954387203383 	0.00162529045913235 	0
0.999999999999999 	2.85958173674616 	-2.77555756156289e-17 	0.107121546062681 	0.00780657622640191 	2.7825839484344 	0.00180833654018732 	0
1 	2.86972481407933 	-2.42861286636753e-17 	0.107178359194067 	0.0078606648353576 	3.01631224946449 	0.00200543252592064 	0
1 	2.87950945149043 	-2.08166817117217e-17 	0.107230294203347 	0.00791150368681156 	3.2742714580311 	0.00221942571157712 	0
1 	2.88894831566566 	-2.42861286636753e-17 	0.107277719945384 	0.00795792291955503 	3.56108207824486 	0.00245428421285636 	0
1 	2.89805362567106 	-2.77555756156289e-17 	0.107320966968219 	0.00799903786315635 	3.88272896939193 	0.00271534820007071 	0
1 	2.90683716877067 	-2.77555756156289e-17 	0.107360326280136 	0.00803421592866182 	4.24692494294219 	0.00300962982990214 	0
1 	2.9153103156857 	-2.77555756156289e-17 	0.107396048595221 	0.00806301661241807 	4.66358044785364 	0.00334617471650534 	0
1 	2.92348403531448 	-2.77555756156289e-17 	0.107428344725139 	0.00808510133753896 	5.14541941999298 	0.00373649330336786 	0
1 	2.9313689089323 	-2.42861286636753e-17 	0.107457387834111 	0.00810010692187771 	5.70879710168987 	0.00419505827571718 	0
1 	2.93897514388925 	-2.42861286636753e-17 	0.107483313838335 	0.00810747287069462 	6.37479935426785 	0.00473983980396307 	0
1 	2.94631258682425 	-2.08166817117217e-17 	0.107506210064496 	0.00810620991803999 	7.17074432798703 	0.00539281691761128 	0
1 	2.95339073641193 	-1.04083408558608e-17 	0.107526124809142 	0.00809459743375033 	8.13227602189323 	0.00618649802218655 	0
1 	2.96021875565915 	-6.93889390390723e-18 	0.107543299586813 	0.00806946286006109 	9.30704605109602 	0.00716738531423876 	0
1 	2.96680548376697 	-1.04083408558608e-17 	0.10755823799468 	0.00802463672661869 	10.7608847384602 	0.00837961694086948 	0
1 	2.97315944757337 	-1.38777878078145e-17 	0.107570945438863 	0.00794924865286243 	12.5818857583553 	0.0098711940960886 	0
1 	2.97928887259171 	-1.38777878078145e-17 	0.107580866156945 	0.00782564274303623 	14.8790582780042 	0.0116715827444865 	0
1 	2.98520169365902 	-1.38777878078145e-17 	0.107587748058717 	0.00762722442598962 	17.7843336452341 	0.0137589211313977 	0
1 	2.99090556520806 	-1.38777878078145e-17 	0.107591791219481 	0.00731699656110904 	21.4669900520033 	0.0160355414039094 	0
1 	2.99640787117633 	-1.38777878078145e-17 	0.107593399930601 	0.00684734489704528 	26.1661796771347 	0.0182755917601708 	0
1 	3.00171573456492 	-1.38777878078145e-17 	0.107593074349229 	0.00616339778310919 	32.2652881559441 	0.0200420389168872 	0
1 	3.00683602665962 	-1.38777878078145e-17 	0.107591361902737 	0.00521510403162515 	40.4951140031629 	0.0206119764635817 	0
1 	3.01177537592612 	-1.04083408558608e-17 	0.107588862682837 	0.00398321308387985 	52.556374302306 	0.0186160091831081 	0
1 	3.01654017659085 	-6.93889390390723e-18 	0.107586252320406 	0.0025680233047837 	73.2885541849726 	0.0130157064198792 	0
1 	3.02113659691864 	-6.93889390390723e-18 	0.107584051921354 	0.0012835299737826 	119.698356767229 	0.00616406667216057 	0
1 	3.02557058719784 	-1.04083408558608e-17 	0.107582271118071 	0.000453282557335767 	270.13606903373 	0.00172398092253152 	0
1 	3.02984788744324 	-1.04083408558608e-17 	0.107580618241155 	0.00010030560619523 	1163.672192234 	0.000234769741468605 	0
