3 	0.00391112967796268 	1.04083408558608e-17 	-0.0387081554323987 	5.74269586238002e-05 	-1.14324974780605e-16
3 	0.0118766651674915 	1.04083408558608e-17 	-0.108541111675809 	0.000100570400963172 	2.44822144453311e-16
3 	0.0201340015485761 	0 	-0.163043185707239 	0.000132370299217535 	7.38131674272934e-17
3 	0.0286938283423949 	0 	-0.197189365825377 	0.000114065332891041 	4.84229050389792e-23
3 	0.0375672266585908 	6.93889390390723e-18 	-0.213166322647432 	8.32570890396795e-06 	4.51003187595842e-22
3 	0.0467656835403032 	3.46944695195361e-18 	-0.218775097677278 	-0.000163234896923572 	5.0096991004885e-22
3 	0.0563011068347005 	-3.46944695195361e-18 	-0.219765547160115 	-0.000377544870478851 	8.79782976489457e-18
3 	0.0661858406082648 	3.46944695195361e-18 	-0.218667970351047 	-0.000623046920841783 	2.2930417692331e-17
3 	0.0764326811267817 	1.38777878078145e-17 	-0.216477958660164 	-0.000893864127782307 	-1.45853166564377e-17
3 	0.0870548934207257 	1.38777878078145e-17 	-0.213618902661245 	-0.00118673404018935 	-7.41154605175104e-18
3 	0.0980662284574838 	2.77555756156289e-17 	-0.210289637174679 	-0.00149994768709676 	-4.43214644590139e-17
3 	0.109480940942647 	3.81639164714898e-17 	-0.206590160191337 	-0.0018327092719747 	-6.87313221479782e-17
3 	0.121313807773417 	3.12250225675825e-17 	-0.202571890536956 	-0.00218476111920985 	5.03471858804181e-17
3 	0.13358014716801 	3.12250225675825e-17 	-0.198259946517132 	-0.00255619524656595 	4.15868704146971e-17
3 	0.146295838495838 	2.77555756156289e-17 	-0.193663912935766 	-0.00294736115173443 	4.80660340426156e-22
3 	0.159477342834115 	2.42861286636753e-17 	-0.188783406077685 	-0.00335881896421342 	9.55781555964793e-22
3 	0.173141724277517 	2.42861286636753e-17 	-0.183611091475683 	-0.00379131655376977 	1.13177054903365e-21
3 	0.183614095490672 	2.3635607360184e-17 	-0.179576767877728 	-0.0041265253668457 	1.03054792262084e-21
3 	0.190823961865322 	2.71050543121376e-17 	-0.17676115203195 	-0.00435932234760957 	8.19129365845884e-22
3 	0.201990523296728 	3.12250225675825e-17 	-0.17233936976754 	-0.00472309279398558 	5.08303348663132e-22
3 	0.217212287037675 	3.12250225675825e-17 	-0.166202764854306 	-0.00522474527028734 	1.59730906186659e-22
3 	0.232991668560441 	2.77555756156289e-17 	-0.159700301318113 	-0.00575223359905718 	-1.51236731767296e-22
3 	0.249349095037321 	3.12250225675825e-17 	-0.152804104827131 	-0.00630728019371425 	-1.51452170000111e-22
3 	0.266305741947753 	3.12250225675825e-17 	-0.145482603596103 	-0.00689185751412215 	5.46693024777044e-24
3 	0.283883560490998 	2.77555756156289e-17 	-0.137700312782485 	-0.00750821757778931 	-2.60712647571209e-22
3 	0.30210530600303 	3.46944695195361e-17 	-0.129417524006514 	-0.00815892572554811 	-1.22257141789844e-22
3 	0.320994567414414 	3.46944695195361e-17 	-0.12058990533134 	-0.0088468982740502 	-2.1004134744065e-17
3 	0.340575797787321 	3.46944695195361e-17 	-0.111168010491126 	-0.00957544342760822 	-3.89006040287731e-17
3 	0.360874345971201 	4.85722573273506e-17 	-0.101096691033971 	-0.0103483043735208 	4.13432812278853e-17
3 	0.38191648941809 	5.55111512312578e-17 	-0.0903144006488733 	-0.0111697028587679 	1.91336992179901e-17
3 	0.403729468200046 	4.85722573273506e-17 	-0.0787523769329473 	-0.0120443808561021 	-1.72992002070346e-21
3 	0.426341520272733 	4.16333634234434e-17 	-0.0663336822082849 	-0.0129776365892774 	-2.01875662156412e-21
3 	0.449781918030829 	3.81639164714898e-17 	-0.0529720819918844 	-0.0139753454685789 	-2.62716055864645e-21
3 	0.474081006202548 	4.16333634234434e-17 	-0.0385707376951601 	-0.0150439447491784 	-1.08364012747912e-21
3 	0.499270241132363 	4.16333634234434e-17 	-0.0230206899888712 	-0.0161903869320641 	7.9587938024272e-22
3 	0.525382231502763 	3.46944695195361e-17 	-0.00619911837700522 	-0.0174222403334568 	2.68046460816423e-21
3 	0.552450780547768 	3.81639164714898e-17 	0.0120326321649608 	-0.0187481109673985 	3.43409201511911e-22
3 	0.58051092981285 	4.5102810375397e-17 	0.0318316805532377 	-0.0201755723433507 	1.33888281362534e-21
3 	0.609599004517911 	4.85722573273506e-17 	0.0534235258768282 	-0.0217054366467293 	1.35096524783813e-21
3 	0.639752660582033 	5.20417042793042e-17 	0.0773790138481315 	-0.0233609966155947 	3.72129099267473e-21
3 	0.671010933370887 	5.55111512312578e-17 	0.10465690989168 	-0.0251741409603161 	3.46056874541837e-21
3 	0.703414288229901 	5.89805981832114e-17 	0.136052824336234 	-0.027165072702445 	-1.55957538724586e-22
3 	0.737004672868606 	6.24500451351651e-17 	0.171861856221506 	-0.0293061709638608 	5.3162455457702e-21
3 	0.771825571663976 	5.89805981832114e-17 	0.211991289083925 	-0.0315385114290785 	-2.44484179444457e-24
3 	0.807922061953054 	5.55111512312578e-17 	0.256138254527305 	-0.0337858175842255 	-6.29348602493395e-21
3 	0.845340872387743 	5.20417042793042e-17 	0.303889219819336 	-0.0359668959470954 	1.15803281298727e-20
3 	0.884130443427309 	5.55111512312578e-17 	0.354730782684811 	-0.0380057679597635 	7.51368093574536e-18
3 	0.924340990046898 	5.89805981832114e-17 	0.40802989657205 	-0.0398378493192979 	8.14008294906433e-18
3 	0.966024566743242 	5.6920614055489e-17 	0.463031253646225 	-0.0414108907442765 	3.13754185083224e-20
3 	1.00923513492173 	5.908901840046e-17 	0.518867406855802 	-0.0426729169150164 	5.56402329777667e-22
3 	1.05402863275206 	6.07153216591882e-17 	0.574543023671219 	-0.0435866763003715 	-5.33568938118616e-22
3 	1.10046304758287 	6.54858112181245e-17 	0.629016791478836 	-0.044121151215397 	-2.91410680006116e-22
3 	1.14859849100923 	7.02563007770607e-17 	0.681218301776097 	-0.0442573174875431 	7.84057568603592e-24
3 	1.19849727668995 	6.85215773010839e-17 	0.730179383682328 	-0.0440089705028292 	-1.72882173635083e-20
3 	1.25022400101563 	6.24500451351651e-17 	0.775270744469468 	-0.0434233122488965 	9.92280534814322e-22
3 	1.30384562673186 	5.72458747072346e-17 	0.816438442511744 	-0.042532723634195 	2.68798025384904e-21
3 	1.35943156962566 	5.72458747072346e-17 	0.854244027211353 	-0.0413712386531716 	1.66651344263363e-22
3 	1.41705378838763 	6.07153216591882e-17 	0.889028729293828 	-0.040005449856823 	-2.82745327450547e-21
3 	1.47678687776592 	5.89805981832114e-17 	0.920857143374584 	-0.0385398000075294 	-1.60625741902882e-21
3 	1.53870816513278 	6.24500451351651e-17 	0.949976388436719 	-0.0370470944762028 	-1.33837639091681e-23
3 	1.60289781058851 	7.28583859910259e-17 	0.976737267058243 	-0.0355533174984755 	2.82940063241211e-21
3 	1.66943891073267 	7.97972798949331e-17 	1.0014786688202 	-0.0340529958904822 	1.84647585780405e-23
3 	1.71135564625027 	8.32667268468867e-17 	1.01593220469776 	-0.0331215470507817 	-8.45053209353406e-22
3 	1.74646535410267 	7.97972798949331e-17 	1.02707353931638 	-0.0323470720543202 	-4.6190466291799e-21
3 	1.8099231933566 	7.63278329429795e-17 	1.04611582367095 	-0.0309442786581542 	-1.45556946833495e-20
3 	1.88404823953249 	7.63278329429795e-17 	1.06636546392812 	-0.0292879387526972 	-2.90326068938462e-21
3 	1.96088870322038 	7.97972798949331e-17 	1.08464685670273 	-0.0276124356894442 	0
3 	2.02025965173185 	8.32667268468867e-17 	1.09800765198063 	-0.026255229935136 	0
3 	2.06006301192217 	7.97972798949331e-17 	1.10687026776814 	-0.0252678778511409 	0
3 	2.09845978584128 	7.63278329429795e-17 	1.11442299815379 	-0.0243707688417578 	0
3 	2.13549967996946 	7.63278329429795e-17 	1.12128112206444 	-0.023505138151301 	0
3 	2.17123064424048 	7.28583859910259e-17 	1.12750022483982 	-0.0226688990466059 	0
3 	2.20569893411516 	6.93889390390723e-17 	1.13313000810901 	-0.0218622462501954 	0
3 	2.23894917046123 	6.93889390390723e-17 	1.13821485775603 	-0.0210850310184441 	0
3 	2.27102439731726 	6.93889390390723e-17 	1.14279429343091 	-0.0203367759853078 	0
3 	2.30196613761522 	6.93889390390723e-17 	1.14690335415358 	-0.0196168255803454 	0
3 	2.33181444693392 	6.59194920871187e-17 	1.15057293585667 	-0.0189243933915989 	0
3 	2.3606079653529 	6.59194920871187e-17 	1.1538300894668 	-0.018258591571627 	0
3 	2.38838396747391 	6.59194920871187e-17 	1.15669828364612 	-0.0176184599579553 	0
3 	2.41517841067461 	6.59194920871187e-17 	1.15919763397585 	-0.0170029912202592 	0
3 	2.44102598165722 	6.93889390390723e-17 	1.1613450998169 	-0.0164111512624561 	0
3 	2.46596014135208 	6.93889390390723e-17 	1.16315465030178 	-0.0158418955596455 	0
3 	2.49001316823444 	6.93889390390723e-17 	1.16463740137884 	-0.0152941820823477 	0
3 	2.51321620011054 	6.93889390390723e-17 	1.16580172637107 	-0.0147669813492417 	0
3 	2.535599274427 	7.28583859910259e-17 	1.16665334308991 	-0.0142592840881844 	0
3 	2.55719136715571 	7.63278329429795e-17 	1.16719538117409 	-0.0137701069238402 	0
3 	2.57802043030466 	7.63278329429795e-17 	1.16742843402469 	-0.013298496445198 	0
3 	2.59811342810315 	7.97972798949331e-17 	1.16735060048786 	-0.0128435319427835 	0
3 	2.61749637190832 	8.32667268468867e-17 	1.16695752226269 	-0.0124043270443495 	0
3 	2.63619435387806 	7.63278329429795e-17 	1.16624242380008 	-0.011980030418493 	0
3 	2.65423157945406 	7.28583859910259e-17 	1.16519616205433 	-0.0115698256575815 	0
3 	2.67163139869691 	7.63278329429795e-17 	1.1638072936193 	-0.0111729303950853 	0
3 	2.68841633651388 	7.63278329429795e-17 	1.16206216621315 	-0.0107885946599291 	-1.26650445809592e-16
3 	2.70460812181851 	7.97972798949331e-17 	1.15994503980408 	-0.0104160984256655 	-1.20925679663066e-16
3 	2.72022771565972 	8.32667268468867e-17 	1.157438239533 	-0.010054748281225 	1.38049137005655e-16
3 	2.73529533835695 	8.32667268468867e-17 	1.15452233772961 	-0.00970387314074667 	-1.26528880662451e-17
3 	2.74983049567626 	8.32667268468867e-17 	1.15117635572103 	-0.00936281893166894 	-1.38110832738367e-16
3 	2.76385200408157 	7.63278329429795e-17 	1.14737796816833 	-0.00903094226115498 	1.58663113342216e-16
3 	2.77737801509344 	6.93889390390723e-17 	1.14310368419869 	-0.008707603165685 	1.5179668715526e-16
3 	2.79042603878708 	6.93889390390723e-17 	1.13832897197655 	-0.008392157195067 	0
3 	2.80301296646003 	6.93889390390723e-17 	1.13302828821986 	-0.0080839472586133 	0
3 	2.81515509249873 	7.28583859910259e-17 	1.1271749730938 	-0.00778229584635436 	0
3 	2.82686813547238 	7.63278329429795e-17 	1.12074097492321 	-0.00748649840306018 	0
3 	2.83816725848143 	7.97972798949331e-17 	1.11369637827878 	-0.0071958187468729 	0
3 	2.84906708878692 	8.32667268468867e-17 	1.10600872200937 	-0.00690948746383251 	0
3 	2.85958173674616 	7.97972798949331e-17 	1.09764210842869 	-0.00662670417030264 	0
3 	2.86972481407933 	7.28583859910259e-17 	1.08855611823226 	-0.00634664443688712 	0
3 	2.87950945149043 	6.93889390390723e-17 	1.07870455508327 	-0.00606847198501964 	0
3 	2.88894831566567 	6.93889390390723e-17 	1.06803404749002 	-0.00579135629780241 	0
3 	2.89805362567107 	6.93889390390723e-17 	1.05648253397454 	-0.00551449572312034 	0
3 	2.90683716877067 	6.93889390390723e-17 	1.04397765329623 	-0.00523715186583212 	0
3 	2.9153103156857 	6.93889390390723e-17 	1.03043504709541 	-0.00495873157829773 	0
3 	2.92348403531449 	6.59194920871187e-17 	1.01575439638533 	-0.0046787621415401 	0
3 	2.9313689089323 	6.59194920871187e-17 	0.999796388306853 	-0.00439637978298068 	0
3 	2.93897514388925 	6.93889390390723e-17 	0.982319042306557 	-0.00410947145574725 	0
3 	2.94631258682425 	6.93889390390723e-17 	0.963021956724011 	-0.00381552439007274 	0
3 	2.95339073641193 	6.93889390390723e-17 	0.941646862096369 	-0.00351389433261485 	0
3 	2.96021875565916 	6.93889390390723e-17 	0.917950254406516 	-0.00320556355886472 	0
3 	2.96680548376697 	6.93889390390723e-17 	0.891667036490775 	-0.00289260756541097 	0
3 	2.97315944757337 	6.93889390390723e-17 	0.862484405665609 	-0.00257785752034801 	0
3 	2.97928887259171 	6.93889390390723e-17 	0.830014888896098 	-0.00226464621464914 	0
3 	2.98520169365903 	6.93889390390723e-17 	0.793761971527111 	-0.00195664912529773 	0
3 	2.99090556520807 	6.93889390390723e-17 	0.753072002958331 	-0.0016577704526714 	0
3 	2.99640787117633 	6.93889390390723e-17 	0.707067537096406 	-0.00137198654727081 	0
3 	3.00171573456492 	6.93889390390723e-17 	0.654584669238349 	-0.00110329541072894 	0
3 	3.00683602665963 	6.93889390390723e-17 	0.594121217627191 	-0.000855674883138132 	0
3 	3.01177537592613 	6.93889390390723e-17 	0.523713118961166 	-0.000632194807383688 	0
3 	3.01654017659085 	6.93889390390723e-17 	0.441164105198823 	-0.000434831236806529 	0
3 	3.02113659691864 	7.28583859910259e-17 	0.346657817557678 	-0.000267236383986783 	0
3 	3.02557058719784 	7.97972798949331e-17 	0.24553452541065 	-0.000137681804656277 	0
3 	3.02984788744324 	8.32667268468867e-17 	0.144673983967891 	-5.18540552937461e-05 	0
