# omega  FACE_DATA 31819
#  x  y  z  omega
0.0005 4.59758e-05 4.71292e-05 20472.5
0.0005 0.000133748 4.71292e-05 21917.6
0.0005 0.000213541 4.71292e-05 24495.2
0.0005 0.000286079 4.71292e-05 27993.2
0.0005 0.000352024 4.71292e-05 32270.2
0.0005 0.000411973 4.71292e-05 37246
0.0005 0.000466473 4.71292e-05 42888.8
0.0005 0.000516018 4.71292e-05 49206.7
0.0005 0.000561059 4.71292e-05 56245.9
0.0005 0.000602005 4.71292e-05 64099.8
0.0005 0.000639229 4.71292e-05 72900.7
0.0005 0.000673069 4.71292e-05 82762.1
0.0005 0.000703833 4.71292e-05 93782.1
0.0005 0.000731799 4.71292e-05 106104
0.0005 0.000757224 4.71292e-05 119934
0.0005 0.000780337 4.71292e-05 135536
0.0005 0.000801349 4.71292e-05 153235
0.0005 0.000820451 4.71292e-05 173414
0.0005 0.000837816 4.71292e-05 196524
0.0005 0.000853602 4.71292e-05 223096
0.0005 0.000867954 4.71292e-05 253742
0.0005 0.000881001 4.71292e-05 289176
0.0005 0.000892861 4.71292e-05 330227
0.0005 0.000903644 4.71292e-05 377850
0.0005 0.000913446 4.71292e-05 433153
0.0005 0.000922357 4.71292e-05 497434
0.0005 0.000930458 4.71292e-05 572257
0.0005 0.000937823 4.71292e-05 659626
0.0005 0.000944518 4.71292e-05 762315
0.0005 0.000950604 4.71292e-05 884453
0.0005 0.000956137 4.71292e-05 1.03248e+06
0.0005 0.000961167 4.71292e-05 1.21588e+06
0.0005 0.00096574 4.71292e-05 1.4492e+06
0.0005 0.000969897 4.71292e-05 1.7563e+06
0.0005 0.000973676 4.71292e-05 2.17515e+06
0.0005 0.000977112 4.71292e-05 2.76481e+06
0.0005 0.000980235 4.71292e-05 3.61735e+06
0.0005 0.000983075 4.71292e-05 4.88099e+06
0.0005 0.000985656 4.71292e-05 6.80684e+06
0.0005 0.000988002 4.71292e-05 9.8482e+06
0.0005 0.000990136 4.71292e-05 1.48866e+07
0.0005 0.000992075 4.71292e-05 2.38007e+07
0.0005 0.000993838 4.71292e-05 4.11004e+07
0.0005 0.000995441 4.71292e-05 7.95348e+07
0.0005 0.000996898 4.71292e-05 1.84801e+08
0.0005 0.000998222 4.71292e-05 5.94344e+08
0.0005 0.000999427 4.71292e-05 3.64963e+09
0.0005 4.59758e-05 0.000141083 20472.5
0.0005 0.000133748 0.000141083 21917.6
0.0005 0.000213541 0.000141083 24495.2
0.0005 0.000286079 0.000141083 27993.2
0.0005 0.000352024 0.000141083 32270.3
0.0005 0.000411973 0.000141083 37246
0.0005 0.000466473 0.000141083 42888.9
0.0005 0.000516018 0.000141083 49206.7
0.0005 0.000561059 0.000141083 56246
0.0005 0.000602005 0.000141083 64099.8
0.0005 0.000639229 0.000141083 72900.7
0.0005 0.000673069 0.000141083 82762.2
0.0005 0.000703833 0.000141083 93782.2
0.0005 0.000731799 0.000141083 106104
0.0005 0.000757224 0.000141083 119934
0.0005 0.000780337 0.000141083 135536
0.0005 0.000801349 0.000141083 153235
0.0005 0.000820451 0.000141083 173414
0.0005 0.000837816 0.000141083 196524
0.0005 0.000853602 0.000141083 223096
0.0005 0.000867954 0.000141083 253742
0.0005 0.000881001 0.000141083 289177
0.0005 0.000892861 0.000141083 330227
0.0005 0.000903644 0.000141083 377851
0.0005 0.000913446 0.000141083 433154
0.0005 0.000922357 0.000141083 497435
0.0005 0.000930458 0.000141083 572258
0.0005 0.000937823 0.000141083 659627
0.0005 0.000944518 0.000141083 762316
0.0005 0.000950604 0.000141083 884454
0.0005 0.000956137 0.000141083 1.03248e+06
0.0005 0.000961167 0.000141083 1.21588e+06
0.0005 0.00096574 0.000141083 1.4492e+06
0.0005 0.000969897 0.000141083 1.7563e+06
0.0005 0.000973676 0.000141083 2.17516e+06
0.0005 0.000977112 0.000141083 2.76481e+06
0.0005 0.000980235 0.000141083 3.61736e+06
0.0005 0.000983075 0.000141083 4.88099e+06
0.0005 0.000985656 0.000141083 6.80684e+06
0.0005 0.000988002 0.000141083 9.8482e+06
0.0005 0.000990136 0.000141083 1.48866e+07
0.0005 0.000992075 0.000141083 2.38007e+07
0.0005 0.000993838 0.000141083 4.11004e+07
0.0005 0.000995441 0.000141083 7.95348e+07
0.0005 0.000996898 0.000141083 1.84801e+08
0.0005 0.000998222 0.000141083 5.94344e+08
0.0005 0.000999427 0.000141083 3.64963e+09
0.0005 4.59758e-05 0.00023443 20472.5
0.0005 0.000133748 0.00023443 21917.6
0.0005 0.000213541 0.00023443 24495.3
0.0005 0.000286079 0.00023443 27993.2
0.0005 0.000352024 0.00023443 32270.3
0.0005 0.000411973 0.00023443 37246
0.0005 0.000466473 0.00023443 42888.9
0.0005 0.000516018 0.00023443 49206.8
0.0005 0.000561059 0.00023443 56246
0.0005 0.000602005 0.00023443 64099.9
0.0005 0.000639229 0.00023443 72900.8
0.0005 0.000673069 0.00023443 82762.3
0.0005 0.000703833 0.00023443 93782.4
0.0005 0.000731799 0.00023443 106105
0.0005 0.000757224 0.00023443 119934
0.0005 0.000780337 0.00023443 135537
0.0005 0.000801349 0.00023443 153235
0.0005 0.000820451 0.00023443 173414
0.0005 0.000837816 0.00023443 196525
0.0005 0.000853602 0.00023443 223096
0.0005 0.000867954 0.00023443 253743
0.0005 0.000881001 0.00023443 289177
0.0005 0.000892861 0.00023443 330228
0.0005 0.000903644 0.00023443 377851
0.0005 0.000913446 0.00023443 433155
0.0005 0.000922357 0.00023443 497435
0.0005 0.000930458 0.00023443 572258
0.0005 0.000937823 0.00023443 659628
0.0005 0.000944518 0.00023443 762317
0.0005 0.000950604 0.00023443 884455
0.0005 0.000956137 0.00023443 1.03248e+06
0.0005 0.000961167 0.00023443 1.21588e+06
0.0005 0.00096574 0.00023443 1.4492e+06
0.0005 0.000969897 0.00023443 1.75631e+06
0.0005 0.000973676 0.00023443 2.17516e+06
0.0005 0.000977112 0.00023443 2.76481e+06
0.0005 0.000980235 0.00023443 3.61736e+06
0.0005 0.000983075 0.00023443 4.88099e+06
0.0005 0.000985656 0.00023443 6.80684e+06
0.0005 0.000988002 0.00023443 9.8482e+06
0.0005 0.000990136 0.00023443 1.48866e+07
0.0005 0.000992075 0.00023443 2.38007e+07
0.0005 0.000993838 0.00023443 4.11004e+07
0.0005 0.000995441 0.00023443 7.95348e+07
0.0005 0.000996898 0.00023443 1.84801e+08
0.0005 0.000998222 0.00023443 5.94344e+08
0.0005 0.000999427 0.00023443 3.64963e+09
0.0005 4.59758e-05 0.000327172 20472.5
0.0005 0.000133748 0.000327172 21917.6
0.0005 0.000213541 0.000327172 24495.3
0.0005 0.000286079 0.000327172 27993.2
0.0005 0.000352024 0.000327172 32270.3
0.0005 0.000411973 0.000327172 37246.1
0.0005 0.000466473 0.000327172 42888.9
0.0005 0.000516018 0.000327172 49206.8
0.0005 0.000561059 0.000327172 56246.1
0.0005 0.000602005 0.000327172 64100
0.0005 0.000639229 0.000327172 72900.9
0.0005 0.000673069 0.000327172 82762.4
0.0005 0.000703833 0.000327172 93782.5
0.0005 0.000731799 0.000327172 106105
0.0005 0.000757224 0.000327172 119934
0.0005 0.000780337 0.000327172 135537
0.0005 0.000801349 0.000327172 153236
0.0005 0.000820451 0.000327172 173415
0.0005 0.000837816 0.000327172 196525
0.0005 0.000853602 0.000327172 223096
0.0005 0.000867954 0.000327172 253743
0.0005 0.000881001 0.000327172 289177
0.0005 0.000892861 0.000327172 330228
0.0005 0.000903644 0.000327172 377852
0.0005 0.000913446 0.000327172 433155
0.0005 0.000922357 0.000327172 497436
0.0005 0.000930458 0.000327172 572259
0.0005 0.000937823 0.000327172 659629
0.0005 0.000944518 0.000327172 762318
0.0005 0.000950604 0.000327172 884456
0.0005 0.000956137 0.000327172 1.03248e+06
0.0005 0.000961167 0.000327172 1.21588e+06
0.0005 0.00096574 0.000327172 1.4492e+06
0.0005 0.000969897 0.000327172 1.75631e+06
0.0005 0.000973676 0.000327172 2.17516e+06
0.0005 0.000977112 0.000327172 2.76481e+06
0.0005 0.000980235 0.000327172 3.61736e+06
0.0005 0.000983075 0.000327172 4.88099e+06
0.0005 0.000985656 0.000327172 6.80684e+06
0.0005 0.000988002 0.000327172 9.8482e+06
0.0005 0.000990136 0.000327172 1.48866e+07
0.0005 0.000992075 0.000327172 2.38007e+07
0.0005 0.000993838 0.000327172 4.11004e+07
0.0005 0.000995441 0.000327172 7.95348e+07
0.0005 0.000996898 0.000327172 1.84801e+08
0.0005 0.000998222 0.000327172 5.94344e+08
0.0005 0.000999427 0.000327172 3.64963e+09
0.0005 4.59758e-05 0.000419316 20472.6
0.0005 0.000133748 0.000419316 21917.6
0.0005 0.000213541 0.000419316 24495.3
0.0005 0.000286079 0.000419316 27993.3
0.0005 0.000352024 0.000419316 32270.4
0.0005 0.000411973 0.000419316 37246.1
0.0005 0.000466473 0.000419316 42889
0.0005 0.000516018 0.000419316 49206.9
0.0005 0.000561059 0.000419316 56246.2
0.0005 0.000602005 0.000419316 64100.1
0.0005 0.000639229 0.000419316 72901
0.0005 0.000673069 0.000419316 82762.5
0.0005 0.000703833 0.000419316 93782.7
0.0005 0.000731799 0.000419316 106105
0.0005 0.000757224 0.000419316 119935
0.0005 0.000780337 0.000419316 135537
0.0005 0.000801349 0.000419316 153236
0.0005 0.000820451 0.000419316 173415
0.0005 0.000837816 0.000419316 196525
0.0005 0.000853602 0.000419316 223097
0.0005 0.000867954 0.000419316 253743
0.0005 0.000881001 0.000419316 289178
0.0005 0.000892861 0.000419316 330228
0.0005 0.000903644 0.000419316 377852
0.0005 0.000913446 0.000419316 433156
0.0005 0.000922357 0.000419316 497436
0.0005 0.000930458 0.000419316 572259
0.0005 0.000937823 0.000419316 659629
0.0005 0.000944518 0.000419316 762319
0.0005 0.000950604 0.000419316 884457
0.0005 0.000956137 0.000419316 1.03248e+06
0.0005 0.000961167 0.000419316 1.21588e+06
0.0005 0.00096574 0.000419316 1.4492e+06
0.0005 0.000969897 0.000419316 1.75631e+06
0.0005 0.000973676 0.000419316 2.17516e+06
0.0005 0.000977112 0.000419316 2.76481e+06
0.0005 0.000980235 0.000419316 3.61736e+06
0.0005 0.000983075 0.000419316 4.88099e+06
0.0005 0.000985656 0.000419316 6.80684e+06
0.0005 0.000988002 0.000419316 9.8482e+06
0.0005 0.000990136 0.000419316 1.48866e+07
0.0005 0.000992075 0.000419316 2.38007e+07
0.0005 0.000993838 0.000419316 4.11004e+07
0.0005 0.000995441 0.000419316 7.95348e+07
0.0005 0.000996898 0.000419316 1.84801e+08
0.0005 0.000998222 0.000419316 5.94344e+08
0.0005 0.000999427 0.000419316 3.64963e+09
0.0005 4.59758e-05 0.000510864 20472.6
0.0005 0.000133748 0.000510864 21917.7
0.0005 0.000213541 0.000510864 24495.3
0.0005 0.000286079 0.000510864 27993.3
0.0005 0.000352024 0.000510864 32270.4
0.0005 0.000411973 0.000510864 37246.2
0.0005 0.000466473 0.000510864 42889.1
0.0005 0.000516018 0.000510864 49207
0.0005 0.000561059 0.000510864 56246.2
0.0005 0.000602005 0.000510864 64100.2
0.0005 0.000639229 0.000510864 72901.1
0.0005 0.000673069 0.000510864 82762.6
0.0005 0.000703833 0.000510864 93782.8
0.0005 0.000731799 0.000510864 106105
0.0005 0.000757224 0.000510864 119935
0.0005 0.000780337 0.000510864 135537
0.0005 0.000801349 0.000510864 153236
0.0005 0.000820451 0.000510864 173415
0.0005 0.000837816 0.000510864 196525
0.0005 0.000853602 0.000510864 223097
0.0005 0.000867954 0.000510864 253743
0.0005 0.000881001 0.000510864 289178
0.0005 0.000892861 0.000510864 330229
0.0005 0.000903644 0.000510864 377852
0.0005 0.000913446 0.000510864 433156
0.0005 0.000922357 0.000510864 497436
0.0005 0.000930458 0.000510864 572260
0.0005 0.000937823 0.000510864 659630
0.0005 0.000944518 0.000510864 762319
0.0005 0.000950604 0.000510864 884457
0.0005 0.000956137 0.000510864 1.03248e+06
0.0005 0.000961167 0.000510864 1.21588e+06
0.0005 0.00096574 0.000510864 1.44921e+06
0.0005 0.000969897 0.000510864 1.75631e+06
0.0005 0.000973676 0.000510864 2.17516e+06
0.0005 0.000977112 0.000510864 2.76481e+06
0.0005 0.000980235 0.000510864 3.61736e+06
0.0005 0.000983075 0.000510864 4.881e+06
0.0005 0.000985656 0.000510864 6.80684e+06
0.0005 0.000988002 0.000510864 9.8482e+06
0.0005 0.000990136 0.000510864 1.48866e+07
0.0005 0.000992075 0.000510864 2.38007e+07
0.0005 0.000993838 0.000510864 4.11004e+07
0.0005 0.000995441 0.000510864 7.95348e+07
0.0005 0.000996898 0.000510864 1.84801e+08
0.0005 0.000998222 0.000510864 5.94344e+08
0.0005 0.000999427 0.000510864 3.64963e+09
0.0005 4.59758e-05 0.00060182 20472.6
0.0005 0.000133748 0.00060182 21917.7
0.0005 0.000213541 0.00060182 24495.4
0.0005 0.000286079 0.00060182 27993.3
0.0005 0.000352024 0.00060182 32270.4
0.0005 0.000411973 0.00060182 37246.2
0.0005 0.000466473 0.00060182 42889.1
0.0005 0.000516018 0.00060182 49207
0.0005 0.000561059 0.00060182 56246.3
0.0005 0.000602005 0.00060182 64100.3
0.0005 0.000639229 0.00060182 72901.2
0.0005 0.000673069 0.00060182 82762.7
0.0005 0.000703833 0.00060182 93782.9
0.0005 0.000731799 0.00060182 106105
0.0005 0.000757224 0.00060182 119935
0.0005 0.000780337 0.00060182 135537
0.0005 0.000801349 0.00060182 153236
0.0005 0.000820451 0.00060182 173415
0.0005 0.000837816 0.00060182 196526
0.0005 0.000853602 0.00060182 223097
0.0005 0.000867954 0.00060182 253743
0.0005 0.000881001 0.00060182 289178
0.0005 0.000892861 0.00060182 330229
0.0005 0.000903644 0.00060182 377852
0.0005 0.000913446 0.00060182 433156
0.0005 0.000922357 0.00060182 497437
0.0005 0.000930458 0.00060182 572260
0.0005 0.000937823 0.00060182 659630
0.0005 0.000944518 0.00060182 762320
0.0005 0.000950604 0.00060182 884458
0.0005 0.000956137 0.00060182 1.03249e+06
0.0005 0.000961167 0.00060182 1.21588e+06
0.0005 0.00096574 0.00060182 1.44921e+06
0.0005 0.000969897 0.00060182 1.75631e+06
0.0005 0.000973676 0.00060182 2.17516e+06
0.0005 0.000977112 0.00060182 2.76481e+06
0.0005 0.000980235 0.00060182 3.61736e+06
0.0005 0.000983075 0.00060182 4.881e+06
0.0005 0.000985656 0.00060182 6.80684e+06
0.0005 0.000988002 0.00060182 9.8482e+06
0.0005 0.000990136 0.00060182 1.48866e+07
0.0005 0.000992075 0.00060182 2.38007e+07
0.0005 0.000993838 0.00060182 4.11004e+07
0.0005 0.000995441 0.00060182 7.95348e+07
0.0005 0.000996898 0.00060182 1.84801e+08
0.0005 0.000998222 0.00060182 5.94344e+08
0.0005 0.000999427 0.00060182 3.64963e+09
0.0005 4.59758e-05 0.000692188 20472.6
0.0005 0.000133748 0.000692188 21917.7
0.0005 0.000213541 0.000692188 24495.4
0.0005 0.000286079 0.000692188 27993.4
0.0005 0.000352024 0.000692188 32270.5
0.0005 0.000411973 0.000692188 37246.2
0.0005 0.000466473 0.000692188 42889.2
0.0005 0.000516018 0.000692188 49207.1
0.0005 0.000561059 0.000692188 56246.4
0.0005 0.000602005 0.000692188 64100.3
0.0005 0.000639229 0.000692188 72901.3
0.0005 0.000673069 0.000692188 82762.8
0.0005 0.000703833 0.000692188 93783
0.0005 0.000731799 0.000692188 106105
0.0005 0.000757224 0.000692188 119935
0.0005 0.000780337 0.000692188 135537
0.0005 0.000801349 0.000692188 153236
0.0005 0.000820451 0.000692188 173415
0.0005 0.000837816 0.000692188 196526
0.0005 0.000853602 0.000692188 223097
0.0005 0.000867954 0.000692188 253744
0.0005 0.000881001 0.000692188 289178
0.0005 0.000892861 0.000692188 330229
0.0005 0.000903644 0.000692188 377853
0.0005 0.000913446 0.000692188 433156
0.0005 0.000922357 0.000692188 497437
0.0005 0.000930458 0.000692188 572260
0.0005 0.000937823 0.000692188 659631
0.0005 0.000944518 0.000692188 762320
0.0005 0.000950604 0.000692188 884458
0.0005 0.000956137 0.000692188 1.03249e+06
0.0005 0.000961167 0.000692188 1.21588e+06
0.0005 0.00096574 0.000692188 1.44921e+06
0.0005 0.000969897 0.000692188 1.75631e+06
0.0005 0.000973676 0.000692188 2.17516e+06
0.0005 0.000977112 0.000692188 2.76481e+06
0.0005 0.000980235 0.000692188 3.61736e+06
0.0005 0.000983075 0.000692188 4.881e+06
0.0005 0.000985656 0.000692188 6.80684e+06
0.0005 0.000988002 0.000692188 9.8482e+06
0.0005 0.000990136 0.000692188 1.48866e+07
0.0005 0.000992075 0.000692188 2.38007e+07
0.0005 0.000993838 0.000692188 4.11004e+07
0.0005 0.000995441 0.000692188 7.95348e+07
0.0005 0.000996898 0.000692188 1.84801e+08
0.0005 0.000998222 0.000692188 5.94344e+08
0.0005 0.000999427 0.000692188 3.64963e+09
0.0005 4.59758e-05 0.000781971 20472.6
0.0005 0.000133748 0.000781971 21917.7
0.0005 0.000213541 0.000781971 24495.4
0.0005 0.000286079 0.000781971 27993.4
0.0005 0.000352024 0.000781971 32270.5
0.0005 0.000411973 0.000781971 37246.3
0.0005 0.000466473 0.000781971 42889.2
0.0005 0.000516018 0.000781971 49207.1
0.0005 0.000561059 0.000781971 56246.4
0.0005 0.000602005 0.000781971 64100.4
0.0005 0.000639229 0.000781971 72901.4
0.0005 0.000673069 0.000781971 82762.9
0.0005 0.000703833 0.000781971 93783
0.0005 0.000731799 0.000781971 106105
0.0005 0.000757224 0.000781971 119935
0.0005 0.000780337 0.000781971 135537
0.0005 0.000801349 0.000781971 153236
0.0005 0.000820451 0.000781971 173415
0.0005 0.000837816 0.000781971 196526
0.0005 0.000853602 0.000781971 223097
0.0005 0.000867954 0.000781971 253744
0.0005 0.000881001 0.000781971 289178
0.0005 0.000892861 0.000781971 330229
0.0005 0.000903644 0.000781971 377853
0.0005 0.000913446 0.000781971 433156
0.0005 0.000922357 0.000781971 497437
0.0005 0.000930458 0.000781971 572261
0.0005 0.000937823 0.000781971 659631
0.0005 0.000944518 0.000781971 762320
0.0005 0.000950604 0.000781971 884459
0.0005 0.000956137 0.000781971 1.03249e+06
0.0005 0.000961167 0.000781971 1.21588e+06
0.0005 0.00096574 0.000781971 1.44921e+06
0.0005 0.000969897 0.000781971 1.75631e+06
0.0005 0.000973676 0.000781971 2.17516e+06
0.0005 0.000977112 0.000781971 2.76482e+06
0.0005 0.000980235 0.000781971 3.61736e+06
0.0005 0.000983075 0.000781971 4.881e+06
0.0005 0.000985656 0.000781971 6.80684e+06
0.0005 0.000988002 0.000781971 9.8482e+06
0.0005 0.000990136 0.000781971 1.48866e+07
0.0005 0.000992075 0.000781971 2.38007e+07
0.0005 0.000993838 0.000781971 4.11004e+07
0.0005 0.000995441 0.000781971 7.95348e+07
0.0005 0.000996898 0.000781971 1.84801e+08
0.0005 0.000998222 0.000781971 5.94344e+08
0.0005 0.000999427 0.000781971 3.64963e+09
0.0005 4.59758e-05 0.000871175 20472.6
0.0005 0.000133748 0.000871175 21917.7
0.0005 0.000213541 0.000871175 24495.4
0.0005 0.000286079 0.000871175 27993.4
0.0005 0.000352024 0.000871175 32270.5
0.0005 0.000411973 0.000871175 37246.3
0.0005 0.000466473 0.000871175 42889.2
0.0005 0.000516018 0.000871175 49207.2
0.0005 0.000561059 0.000871175 56246.5
0.0005 0.000602005 0.000871175 64100.4
0.0005 0.000639229 0.000871175 72901.4
0.0005 0.000673069 0.000871175 82762.9
0.0005 0.000703833 0.000871175 93783.1
0.0005 0.000731799 0.000871175 106105
0.0005 0.000757224 0.000871175 119935
0.0005 0.000780337 0.000871175 135537
0.0005 0.000801349 0.000871175 153236
0.0005 0.000820451 0.000871175 173415
0.0005 0.000837816 0.000871175 196526
0.0005 0.000853602 0.000871175 223097
0.0005 0.000867954 0.000871175 253744
0.0005 0.000881001 0.000871175 289178
0.0005 0.000892861 0.000871175 330229
0.0005 0.000903644 0.000871175 377853
0.0005 0.000913446 0.000871175 433157
0.0005 0.000922357 0.000871175 497437
0.0005 0.000930458 0.000871175 572261
0.0005 0.000937823 0.000871175 659631
0.0005 0.000944518 0.000871175 762321
0.0005 0.000950604 0.000871175 884459
0.0005 0.000956137 0.000871175 1.03249e+06
0.0005 0.000961167 0.000871175 1.21588e+06
0.0005 0.00096574 0.000871175 1.44921e+06
0.0005 0.000969897 0.000871175 1.75631e+06
0.0005 0.000973676 0.000871175 2.17516e+06
0.0005 0.000977112 0.000871175 2.76482e+06
0.0005 0.000980235 0.000871175 3.61736e+06
0.0005 0.000983075 0.000871175 4.881e+06
0.0005 0.000985656 0.000871175 6.80684e+06
0.0005 0.000988002 0.000871175 9.8482e+06
0.0005 0.000990136 0.000871175 1.48866e+07
0.0005 0.000992075 0.000871175 2.38007e+07
0.0005 0.000993838 0.000871175 4.11004e+07
0.0005 0.000995441 0.000871175 7.95348e+07
0.0005 0.000996898 0.000871175 1.84801e+08
0.0005 0.000998222 0.000871175 5.94344e+08
0.0005 0.000999427 0.000871175 3.64963e+09
0.0005 4.59758e-05 0.000959801 20472.7
0.0005 0.000133748 0.000959801 21917.7
0.0005 0.000213541 0.000959801 24495.4
0.0005 0.000286079 0.000959801 27993.4
0.0005 0.000352024 0.000959801 32270.6
0.0005 0.000411973 0.000959801 37246.3
0.0005 0.000466473 0.000959801 42889.3
0.0005 0.000516018 0.000959801 49207.2
0.0005 0.000561059 0.000959801 56246.5
0.0005 0.000602005 0.000959801 64100.5
0.0005 0.000639229 0.000959801 72901.5
0.0005 0.000673069 0.000959801 82763
0.0005 0.000703833 0.000959801 93783.1
0.0005 0.000731799 0.000959801 106105
0.0005 0.000757224 0.000959801 119935
0.0005 0.000780337 0.000959801 135537
0.0005 0.000801349 0.000959801 153236
0.0005 0.000820451 0.000959801 173415
0.0005 0.000837816 0.000959801 196526
0.0005 0.000853602 0.000959801 223097
0.0005 0.000867954 0.000959801 253744
0.0005 0.000881001 0.000959801 289178
0.0005 0.000892861 0.000959801 330229
0.0005 0.000903644 0.000959801 377853
0.0005 0.000913446 0.000959801 433157
0.0005 0.000922357 0.000959801 497437
0.0005 0.000930458 0.000959801 572261
0.0005 0.000937823 0.000959801 659631
0.0005 0.000944518 0.000959801 762321
0.0005 0.000950604 0.000959801 884459
0.0005 0.000956137 0.000959801 1.03249e+06
0.0005 0.000961167 0.000959801 1.21588e+06
0.0005 0.00096574 0.000959801 1.44921e+06
0.0005 0.000969897 0.000959801 1.75631e+06
0.0005 0.000973676 0.000959801 2.17516e+06
0.0005 0.000977112 0.000959801 2.76482e+06
0.0005 0.000980235 0.000959801 3.61736e+06
0.0005 0.000983075 0.000959801 4.881e+06
0.0005 0.000985656 0.000959801 6.80684e+06
0.0005 0.000988002 0.000959801 9.8482e+06
0.0005 0.000990136 0.000959801 1.48866e+07
0.0005 0.000992075 0.000959801 2.38007e+07
0.0005 0.000993838 0.000959801 4.11004e+07
0.0005 0.000995441 0.000959801 7.95348e+07
0.0005 0.000996898 0.000959801 1.84801e+08
0.0005 0.000998222 0.000959801 5.94344e+08
0.0005 0.000999427 0.000959801 3.64963e+09
0.0005 4.59758e-05 0.00104786 20472.7
0.0005 0.000133748 0.00104786 21917.8
0.0005 0.000213541 0.00104786 24495.5
0.0005 0.000286079 0.00104786 27993.4
0.0005 0.000352024 0.00104786 32270.6
0.0005 0.000411973 0.00104786 37246.4
0.0005 0.000466473 0.00104786 42889.3
0.0005 0.000516018 0.00104786 49207.2
0.0005 0.000561059 0.00104786 56246.5
0.0005 0.000602005 0.00104786 64100.5
0.0005 0.000639229 0.00104786 72901.5
0.0005 0.000673069 0.00104786 82763
0.0005 0.000703833 0.00104786 93783.2
0.0005 0.000731799 0.00104786 106106
0.0005 0.000757224 0.00104786 119935
0.0005 0.000780337 0.00104786 135538
0.0005 0.000801349 0.00104786 153236
0.0005 0.000820451 0.00104786 173415
0.0005 0.000837816 0.00104786 196526
0.0005 0.000853602 0.00104786 223097
0.0005 0.000867954 0.00104786 253744
0.0005 0.000881001 0.00104786 289178
0.0005 0.000892861 0.00104786 330229
0.0005 0.000903644 0.00104786 377853
0.0005 0.000913446 0.00104786 433157
0.0005 0.000922357 0.00104786 497437
0.0005 0.000930458 0.00104786 572261
0.0005 0.000937823 0.00104786 659631
0.0005 0.000944518 0.00104786 762321
0.0005 0.000950604 0.00104786 884459
0.0005 0.000956137 0.00104786 1.03249e+06
0.0005 0.000961167 0.00104786 1.21588e+06
0.0005 0.00096574 0.00104786 1.44921e+06
0.0005 0.000969897 0.00104786 1.75631e+06
0.0005 0.000973676 0.00104786 2.17516e+06
0.0005 0.000977112 0.00104786 2.76482e+06
0.0005 0.000980235 0.00104786 3.61736e+06
0.0005 0.000983075 0.00104786 4.881e+06
0.0005 0.000985656 0.00104786 6.80684e+06
0.0005 0.000988002 0.00104786 9.8482e+06
0.0005 0.000990136 0.00104786 1.48866e+07
0.0005 0.000992075 0.00104786 2.38007e+07
0.0005 0.000993838 0.00104786 4.11004e+07
0.0005 0.000995441 0.00104786 7.95348e+07
0.0005 0.000996898 0.00104786 1.84801e+08
0.0005 0.000998222 0.00104786 5.94344e+08
0.0005 0.000999427 0.00104786 3.64963e+09
0.0005 4.59758e-05 0.00113534 20472.7
0.0005 0.000133748 0.00113534 21917.8
0.0005 0.000213541 0.00113534 24495.5
0.0005 0.000286079 0.00113534 27993.4
0.0005 0.000352024 0.00113534 32270.6
0.0005 0.000411973 0.00113534 37246.4
0.0005 0.000466473 0.00113534 42889.3
0.0005 0.000516018 0.00113534 49207.2
0.0005 0.000561059 0.00113534 56246.5
0.0005 0.000602005 0.00113534 64100.5
0.0005 0.000639229 0.00113534 72901.5
0.0005 0.000673069 0.00113534 82763
0.0005 0.000703833 0.00113534 93783.2
0.0005 0.000731799 0.00113534 106106
0.0005 0.000757224 0.00113534 119935
0.0005 0.000780337 0.00113534 135538
0.0005 0.000801349 0.00113534 153236
0.0005 0.000820451 0.00113534 173415
0.0005 0.000837816 0.00113534 196526
0.0005 0.000853602 0.00113534 223097
0.0005 0.000867954 0.00113534 253744
0.0005 0.000881001 0.00113534 289178
0.0005 0.000892861 0.00113534 330229
0.0005 0.000903644 0.00113534 377853
0.0005 0.000913446 0.00113534 433157
0.0005 0.000922357 0.00113534 497438
0.0005 0.000930458 0.00113534 572261
0.0005 0.000937823 0.00113534 659631
0.0005 0.000944518 0.00113534 762321
0.0005 0.000950604 0.00113534 884460
0.0005 0.000956137 0.00113534 1.03249e+06
0.0005 0.000961167 0.00113534 1.21588e+06
0.0005 0.00096574 0.00113534 1.44921e+06
0.0005 0.000969897 0.00113534 1.75631e+06
0.0005 0.000973676 0.00113534 2.17516e+06
0.0005 0.000977112 0.00113534 2.76482e+06
0.0005 0.000980235 0.00113534 3.61736e+06
0.0005 0.000983075 0.00113534 4.881e+06
0.0005 0.000985656 0.00113534 6.80684e+06
0.0005 0.000988002 0.00113534 9.8482e+06
0.0005 0.000990136 0.00113534 1.48866e+07
0.0005 0.000992075 0.00113534 2.38007e+07
0.0005 0.000993838 0.00113534 4.11004e+07
0.0005 0.000995441 0.00113534 7.95348e+07
0.0005 0.000996898 0.00113534 1.84801e+08
0.0005 0.000998222 0.00113534 5.94344e+08
0.0005 0.000999427 0.00113534 3.64963e+09
0.0005 4.59758e-05 0.00122226 20472.7
0.0005 0.000133748 0.00122226 21917.8
0.0005 0.000213541 0.00122226 24495.5
0.0005 0.000286079 0.00122226 27993.5
0.0005 0.000352024 0.00122226 32270.6
0.0005 0.000411973 0.00122226 37246.4
0.0005 0.000466473 0.00122226 42889.3
0.0005 0.000516018 0.00122226 49207.3
0.0005 0.000561059 0.00122226 56246.6
0.0005 0.000602005 0.00122226 64100.5
0.0005 0.000639229 0.00122226 72901.5
0.0005 0.000673069 0.00122226 82763.1
0.0005 0.000703833 0.00122226 93783.2
0.0005 0.000731799 0.00122226 106106
0.0005 0.000757224 0.00122226 119935
0.0005 0.000780337 0.00122226 135538
0.0005 0.000801349 0.00122226 153236
0.0005 0.000820451 0.00122226 173415
0.0005 0.000837816 0.00122226 196526
0.0005 0.000853602 0.00122226 223098
0.0005 0.000867954 0.00122226 253744
0.0005 0.000881001 0.00122226 289179
0.0005 0.000892861 0.00122226 330229
0.0005 0.000903644 0.00122226 377853
0.0005 0.000913446 0.00122226 433157
0.0005 0.000922357 0.00122226 497438
0.0005 0.000930458 0.00122226 572261
0.0005 0.000937823 0.00122226 659632
0.0005 0.000944518 0.00122226 762321
0.0005 0.000950604 0.00122226 884460
0.0005 0.000956137 0.00122226 1.03249e+06
0.0005 0.000961167 0.00122226 1.21588e+06
0.0005 0.00096574 0.00122226 1.44921e+06
0.0005 0.000969897 0.00122226 1.75631e+06
0.0005 0.000973676 0.00122226 2.17516e+06
0.0005 0.000977112 0.00122226 2.76482e+06
0.0005 0.000980235 0.00122226 3.61736e+06
0.0005 0.000983075 0.00122226 4.881e+06
0.0005 0.000985656 0.00122226 6.80684e+06
0.0005 0.000988002 0.00122226 9.8482e+06
0.0005 0.000990136 0.00122226 1.48866e+07
0.0005 0.000992075 0.00122226 2.38007e+07
0.0005 0.000993838 0.00122226 4.11004e+07
0.0005 0.000995441 0.00122226 7.95348e+07
0.0005 0.000996898 0.00122226 1.84801e+08
0.0005 0.000998222 0.00122226 5.94344e+08
0.0005 0.000999427 0.00122226 3.64963e+09
0.0005 4.59758e-05 0.00130862 20472.7
0.0005 0.000133748 0.00130862 21917.8
0.0005 0.000213541 0.00130862 24495.5
0.0005 0.000286079 0.00130862 27993.5
0.0005 0.000352024 0.00130862 32270.6
0.0005 0.000411973 0.00130862 37246.4
0.0005 0.000466473 0.00130862 42889.3
0.0005 0.000516018 0.00130862 49207.3
0.0005 0.000561059 0.00130862 56246.6
0.0005 0.000602005 0.00130862 64100.5
0.0005 0.000639229 0.00130862 72901.5
0.0005 0.000673069 0.00130862 82763.1
0.0005 0.000703833 0.00130862 93783.2
0.0005 0.000731799 0.00130862 106106
0.0005 0.000757224 0.00130862 119935
0.0005 0.000780337 0.00130862 135538
0.0005 0.000801349 0.00130862 153236
0.0005 0.000820451 0.00130862 173415
0.0005 0.000837816 0.00130862 196526
0.0005 0.000853602 0.00130862 223098
0.0005 0.000867954 0.00130862 253744
0.0005 0.000881001 0.00130862 289179
0.0005 0.000892861 0.00130862 330229
0.0005 0.000903644 0.00130862 377853
0.0005 0.000913446 0.00130862 433157
0.0005 0.000922357 0.00130862 497438
0.0005 0.000930458 0.00130862 572261
0.0005 0.000937823 0.00130862 659632
0.0005 0.000944518 0.00130862 762321
0.0005 0.000950604 0.00130862 884460
0.0005 0.000956137 0.00130862 1.03249e+06
0.0005 0.000961167 0.00130862 1.21588e+06
0.0005 0.00096574 0.00130862 1.44921e+06
0.0005 0.000969897 0.00130862 1.75631e+06
0.0005 0.000973676 0.00130862 2.17516e+06
0.0005 0.000977112 0.00130862 2.76482e+06
0.0005 0.000980235 0.00130862 3.61736e+06
0.0005 0.000983075 0.00130862 4.881e+06
0.0005 0.000985656 0.00130862 6.80684e+06
0.0005 0.000988002 0.00130862 9.8482e+06
0.0005 0.000990136 0.00130862 1.48866e+07
0.0005 0.000992075 0.00130862 2.38007e+07
0.0005 0.000993838 0.00130862 4.11004e+07
0.0005 0.000995441 0.00130862 7.95348e+07
0.0005 0.000996898 0.00130862 1.84801e+08
0.0005 0.000998222 0.00130862 5.94344e+08
0.0005 0.000999427 0.00130862 3.64963e+09
0.0005 4.59758e-05 0.00139441 20472.7
0.0005 0.000133748 0.00139441 21917.8
0.0005 0.000213541 0.00139441 24495.5
0.0005 0.000286079 0.00139441 27993.5
0.0005 0.000352024 0.00139441 32270.6
0.0005 0.000411973 0.00139441 37246.4
0.0005 0.000466473 0.00139441 42889.3
0.0005 0.000516018 0.00139441 49207.3
0.0005 0.000561059 0.00139441 56246.6
0.0005 0.000602005 0.00139441 64100.6
0.0005 0.000639229 0.00139441 72901.5
0.0005 0.000673069 0.00139441 82763.1
0.0005 0.000703833 0.00139441 93783.2
0.0005 0.000731799 0.00139441 106106
0.0005 0.000757224 0.00139441 119935
0.0005 0.000780337 0.00139441 135538
0.0005 0.000801349 0.00139441 153236
0.0005 0.000820451 0.00139441 173415
0.0005 0.000837816 0.00139441 196526
0.0005 0.000853602 0.00139441 223098
0.0005 0.000867954 0.00139441 253744
0.0005 0.000881001 0.00139441 289179
0.0005 0.000892861 0.00139441 330229
0.0005 0.000903644 0.00139441 377853
0.0005 0.000913446 0.00139441 433157
0.0005 0.000922357 0.00139441 497438
0.0005 0.000930458 0.00139441 572261
0.0005 0.000937823 0.00139441 659632
0.0005 0.000944518 0.00139441 762321
0.0005 0.000950604 0.00139441 884460
0.0005 0.000956137 0.00139441 1.03249e+06
0.0005 0.000961167 0.00139441 1.21588e+06
0.0005 0.00096574 0.00139441 1.44921e+06
0.0005 0.000969897 0.00139441 1.75631e+06
0.0005 0.000973676 0.00139441 2.17516e+06
0.0005 0.000977112 0.00139441 2.76482e+06
0.0005 0.000980235 0.00139441 3.61736e+06
0.0005 0.000983075 0.00139441 4.881e+06
0.0005 0.000985656 0.00139441 6.80684e+06
0.0005 0.000988002 0.00139441 9.8482e+06
0.0005 0.000990136 0.00139441 1.48866e+07
0.0005 0.000992075 0.00139441 2.38007e+07
0.0005 0.000993838 0.00139441 4.11004e+07
0.0005 0.000995441 0.00139441 7.95348e+07
0.0005 0.000996898 0.00139441 1.84801e+08
0.0005 0.000998222 0.00139441 5.94344e+08
0.0005 0.000999427 0.00139441 3.64963e+09
0.0005 4.59758e-05 0.00147966 20472.7
0.0005 0.000133748 0.00147966 21917.8
0.0005 0.000213541 0.00147966 24495.5
0.0005 0.000286079 0.00147966 27993.5
0.0005 0.000352024 0.00147966 32270.6
0.0005 0.000411973 0.00147966 37246.4