# p  FACE_DATA 31819
#  x  y  z  p
0.0005 4.59758e-05 4.71292e-05 5.18756e-14
0.0005 0.000133748 4.71292e-05 3.89786e-14
0.0005 0.000213541 4.71292e-05 2.49341e-14
0.0005 0.000286079 4.71292e-05 2.72787e-14
0.0005 0.000352024 4.71292e-05 3.74027e-14
0.0005 0.000411973 4.71292e-05 4.95131e-14
0.0005 0.000466473 4.71292e-05 5.87372e-14
0.0005 0.000516018 4.71292e-05 6.66794e-14
0.0005 0.000561059 4.71292e-05 7.42918e-14
0.0005 0.000602005 4.71292e-05 8.14269e-14
0.0005 0.000639229 4.71292e-05 8.90666e-14
0.0005 0.000673069 4.71292e-05 9.49271e-14
0.0005 0.000703833 4.71292e-05 1.00674e-13
0.0005 0.000731799 4.71292e-05 1.06934e-13
0.0005 0.000757224 4.71292e-05 1.12758e-13
0.0005 0.000780337 4.71292e-05 1.18177e-13
0.0005 0.000801349 4.71292e-05 1.23305e-13
0.0005 0.000820451 4.71292e-05 1.28494e-13
0.0005 0.000837816 4.71292e-05 1.32268e-13
0.0005 0.000853602 4.71292e-05 1.35595e-13
0.0005 0.000867954 4.71292e-05 1.38267e-13
0.0005 0.000881001 4.71292e-05 1.40493e-13
0.0005 0.000892861 4.71292e-05 1.42047e-13
0.0005 0.000903644 4.71292e-05 1.43025e-13
0.0005 0.000913446 4.71292e-05 1.4365e-13
0.0005 0.000922357 4.71292e-05 1.43903e-13
0.0005 0.000930458 4.71292e-05 1.43813e-13
0.0005 0.000937823 4.71292e-05 1.43523e-13
0.0005 0.000944518 4.71292e-05 1.43143e-13
0.0005 0.000950604 4.71292e-05 1.42403e-13
0.0005 0.000956137 4.71292e-05 1.41599e-13
0.0005 0.000961167 4.71292e-05 1.40861e-13
0.0005 0.00096574 4.71292e-05 1.40087e-13
0.0005 0.000969897 4.71292e-05 1.39292e-13
0.0005 0.000973676 4.71292e-05 1.38508e-13
0.0005 0.000977112 4.71292e-05 1.37815e-13
0.0005 0.000980235 4.71292e-05 1.37115e-13
0.0005 0.000983075 4.71292e-05 1.36433e-13
0.0005 0.000985656 4.71292e-05 1.35784e-13
0.0005 0.000988002 4.71292e-05 1.35186e-13
0.0005 0.000990136 4.71292e-05 1.34653e-13
0.0005 0.000992075 4.71292e-05 1.34188e-13
0.0005 0.000993838 4.71292e-05 1.33772e-13
0.0005 0.000995441 4.71292e-05 1.33411e-13
0.0005 0.000996898 4.71292e-05 1.3312e-13
0.0005 0.000998222 4.71292e-05 1.32905e-13
0.0005 0.000999427 4.71292e-05 1.32763e-13
0.0005 4.59758e-05 0.000141083 4.48178e-14
0.0005 0.000133748 0.000141083 3.7585e-14
0.0005 0.000213541 0.000141083 3.61935e-14
0.0005 0.000286079 0.000141083 4.1951e-14
0.0005 0.000352024 0.000141083 5.36027e-14
0.0005 0.000411973 0.000141083 6.47873e-14
0.0005 0.000466473 0.000141083 7.17838e-14
0.0005 0.000516018 0.000141083 8.00073e-14
0.0005 0.000561059 0.000141083 8.76167e-14
0.0005 0.000602005 0.000141083 9.58694e-14
0.0005 0.000639229 0.000141083 1.02033e-13
0.0005 0.000673069 0.000141083 1.08455e-13
0.0005 0.000703833 0.000141083 1.14237e-13
0.0005 0.000731799 0.000141083 1.21551e-13
0.0005 0.000757224 0.000141083 1.27091e-13
0.0005 0.000780337 0.000141083 1.3086e-13
0.0005 0.000801349 0.000141083 1.34829e-13
0.0005 0.000820451 0.000141083 1.37946e-13
0.0005 0.000837816 0.000141083 1.42043e-13
0.0005 0.000853602 0.000141083 1.45097e-13
0.0005 0.000867954 0.000141083 1.47188e-13
0.0005 0.000881001 0.000141083 1.48799e-13
0.0005 0.000892861 0.000141083 1.50024e-13
0.0005 0.000903644 0.000141083 1.50832e-13
0.0005 0.000913446 0.000141083 1.51252e-13
0.0005 0.000922357 0.000141083 1.51478e-13
0.0005 0.000930458 0.000141083 1.51467e-13
0.0005 0.000937823 0.000141083 1.51092e-13
0.0005 0.000944518 0.000141083 1.50653e-13
0.0005 0.000950604 0.000141083 1.50095e-13
0.0005 0.000956137 0.000141083 1.49481e-13
0.0005 0.000961167 0.000141083 1.49108e-13
0.0005 0.00096574 0.000141083 1.48694e-13
0.0005 0.000969897 0.000141083 1.48251e-13
0.0005 0.000973676 0.000141083 1.4782e-13
0.0005 0.000977112 0.000141083 1.47454e-13
0.0005 0.000980235 0.000141083 1.47172e-13
0.0005 0.000983075 0.000141083 1.46959e-13
0.0005 0.000985656 0.000141083 1.46814e-13
0.0005 0.000988002 0.000141083 1.46742e-13
0.0005 0.000990136 0.000141083 1.46776e-13
0.0005 0.000992075 0.000141083 1.46885e-13
0.0005 0.000993838 0.000141083 1.47033e-13
0.0005 0.000995441 0.000141083 1.47186e-13
0.0005 0.000996898 0.000141083 1.47307e-13
0.0005 0.000998222 0.000141083 1.47386e-13
0.0005 0.000999427 0.000141083 1.47431e-13
0.0005 4.59758e-05 0.00023443 5.41164e-14
0.0005 0.000133748 0.00023443 5.47067e-14
0.0005 0.000213541 0.00023443 5.81991e-14
0.0005 0.000286079 0.00023443 6.37608e-14
0.0005 0.000352024 0.00023443 7.56627e-14
0.0005 0.000411973 0.00023443 8.54426e-14
0.0005 0.000466473 0.00023443 9.37506e-14
0.0005 0.000516018 0.00023443 1.02986e-13
0.0005 0.000561059 0.00023443 1.13825e-13
0.0005 0.000602005 0.00023443 1.18931e-13
0.0005 0.000639229 0.00023443 1.25323e-13
0.0005 0.000673069 0.00023443 1.31751e-13
0.0005 0.000703833 0.00023443 1.37601e-13
0.0005 0.000731799 0.00023443 1.43433e-13
0.0005 0.000757224 0.00023443 1.48869e-13
0.0005 0.000780337 0.00023443 1.53662e-13
0.0005 0.000801349 0.00023443 1.55237e-13
0.0005 0.000820451 0.00023443 1.58366e-13
0.0005 0.000837816 0.00023443 1.6185e-13
0.0005 0.000853602 0.00023443 1.64193e-13
0.0005 0.000867954 0.00023443 1.64888e-13
0.0005 0.000881001 0.00023443 1.65837e-13
0.0005 0.000892861 0.00023443 1.66898e-13
0.0005 0.000903644 0.00023443 1.6699e-13
0.0005 0.000913446 0.00023443 1.67047e-13
0.0005 0.000922357 0.00023443 1.66896e-13
0.0005 0.000930458 0.00023443 1.66606e-13
0.0005 0.000937823 0.00023443 1.66235e-13
0.0005 0.000944518 0.00023443 1.65777e-13
0.0005 0.000950604 0.00023443 1.65238e-13
0.0005 0.000956137 0.00023443 1.64623e-13
0.0005 0.000961167 0.00023443 1.63976e-13
0.0005 0.00096574 0.00023443 1.63289e-13
0.0005 0.000969897 0.00023443 1.62604e-13
0.0005 0.000973676 0.00023443 1.61827e-13
0.0005 0.000977112 0.00023443 1.6107e-13
0.0005 0.000980235 0.00023443 1.60303e-13
0.0005 0.000983075 0.00023443 1.59535e-13
0.0005 0.000985656 0.00023443 1.58757e-13
0.0005 0.000988002 0.00023443 1.57956e-13
0.0005 0.000990136 0.00023443 1.57204e-13
0.0005 0.000992075 0.00023443 1.56489e-13
0.0005 0.000993838 0.00023443 1.55812e-13
0.0005 0.000995441 0.00023443 1.55204e-13
0.0005 0.000996898 0.00023443 1.54718e-13
0.0005 0.000998222 0.00023443 1.54369e-13
0.0005 0.000999427 0.00023443 1.5415e-13
0.0005 4.59758e-05 0.000327172 8.71895e-14
0.0005 0.000133748 0.000327172 8.98439e-14
0.0005 0.000213541 0.000327172 9.42602e-14
0.0005 0.000286079 0.000327172 1.00975e-13
0.0005 0.000352024 0.000327172 1.09209e-13
0.0005 0.000411973 0.000327172 1.17062e-13
0.0005 0.000466473 0.000327172 1.25307e-13
0.0005 0.000516018 0.000327172 1.34027e-13
0.0005 0.000561059 0.000327172 1.43588e-13
0.0005 0.000602005 0.000327172 1.45714e-13
0.0005 0.000639229 0.000327172 1.51433e-13
0.0005 0.000673069 0.000327172 1.58602e-13
0.0005 0.000703833 0.000327172 1.66331e-13
0.0005 0.000731799 0.000327172 1.72709e-13
0.0005 0.000757224 0.000327172 1.75633e-13
0.0005 0.000780337 0.000327172 1.77957e-13
0.0005 0.000801349 0.000327172 1.81841e-13
0.0005 0.000820451 0.000327172 1.84424e-13
0.0005 0.000837816 0.000327172 1.85992e-13
0.0005 0.000853602 0.000327172 1.87e-13
0.0005 0.000867954 0.000327172 1.8781e-13
0.0005 0.000881001 0.000327172 1.88461e-13
0.0005 0.000892861 0.000327172 1.88506e-13
0.0005 0.000903644 0.000327172 1.87921e-13
0.0005 0.000913446 0.000327172 1.87788e-13
0.0005 0.000922357 0.000327172 1.88163e-13
0.0005 0.000930458 0.000327172 1.87886e-13
0.0005 0.000937823 0.000327172 1.87256e-13
0.0005 0.000944518 0.000327172 1.86666e-13
0.0005 0.000950604 0.000327172 1.86395e-13
0.0005 0.000956137 0.000327172 1.861e-13
0.0005 0.000961167 0.000327172 1.85785e-13
0.0005 0.00096574 0.000327172 1.85544e-13
0.0005 0.000969897 0.000327172 1.8536e-13
0.0005 0.000973676 0.000327172 1.85236e-13
0.0005 0.000977112 0.000327172 1.85159e-13
0.0005 0.000980235 0.000327172 1.85135e-13
0.0005 0.000983075 0.000327172 1.8524e-13
0.0005 0.000985656 0.000327172 1.85408e-13
0.0005 0.000988002 0.000327172 1.85633e-13
0.0005 0.000990136 0.000327172 1.85924e-13
0.0005 0.000992075 0.000327172 1.86294e-13
0.0005 0.000993838 0.000327172 1.86677e-13
0.0005 0.000995441 0.000327172 1.8706e-13
0.0005 0.000996898 0.000327172 1.87354e-13
0.0005 0.000998222 0.000327172 1.87556e-13
0.0005 0.000999427 0.000327172 1.8768e-13
0.0005 4.59758e-05 0.000419316 1.30037e-13
0.0005 0.000133748 0.000419316 1.32604e-13
0.0005 0.000213541 0.000419316 1.35621e-13
0.0005 0.000286079 0.000419316 1.40615e-13
0.0005 0.000352024 0.000419316 1.46892e-13
0.0005 0.000411973 0.000419316 1.54965e-13
0.0005 0.000466473 0.000419316 1.61671e-13
0.0005 0.000516018 0.000419316 1.68249e-13
0.0005 0.000561059 0.000419316 1.74672e-13
0.0005 0.000602005 0.000419316 1.81054e-13
0.0005 0.000639229 0.000419316 1.87072e-13
0.0005 0.000673069 0.000419316 1.92715e-13
0.0005 0.000703833 0.000419316 1.97224e-13
0.0005 0.000731799 0.000419316 2.01196e-13
0.0005 0.000757224 0.000419316 2.04534e-13
0.0005 0.000780337 0.000419316 2.07489e-13
0.0005 0.000801349 0.000419316 2.09893e-13
0.0005 0.000820451 0.000419316 2.11724e-13
0.0005 0.000837816 0.000419316 2.12959e-13
0.0005 0.000853602 0.000419316 2.13904e-13
0.0005 0.000867954 0.000419316 2.14562e-13
0.0005 0.000881001 0.000419316 2.14951e-13
0.0005 0.000892861 0.000419316 2.15066e-13
0.0005 0.000903644 0.000419316 2.14923e-13
0.0005 0.000913446 0.000419316 2.14572e-13
0.0005 0.000922357 0.000419316 2.14184e-13
0.0005 0.000930458 0.000419316 2.13683e-13
0.0005 0.000937823 0.000419316 2.13133e-13
0.0005 0.000944518 0.000419316 2.12536e-13
0.0005 0.000950604 0.000419316 2.11661e-13
0.0005 0.000956137 0.000419316 2.10724e-13
0.0005 0.000961167 0.000419316 2.10065e-13
0.0005 0.00096574 0.000419316 2.09317e-13
0.0005 0.000969897 0.000419316 2.08519e-13
0.0005 0.000973676 0.000419316 2.07692e-13
0.0005 0.000977112 0.000419316 2.06851e-13
0.0005 0.000980235 0.000419316 2.05966e-13
0.0005 0.000983075 0.000419316 2.0505e-13
0.0005 0.000985656 0.000419316 2.04109e-13
0.0005 0.000988002 0.000419316 2.03133e-13
0.0005 0.000990136 0.000419316 2.02178e-13
0.0005 0.000992075 0.000419316 2.01209e-13
0.0005 0.000993838 0.000419316 2.00279e-13
0.0005 0.000995441 0.000419316 1.99426e-13
0.0005 0.000996898 0.000419316 1.98741e-13
0.0005 0.000998222 0.000419316 1.98259e-13
0.0005 0.000999427 0.000419316 1.9796e-13
0.0005 4.59758e-05 0.000510864 1.75471e-13
0.0005 0.000133748 0.000510864 1.76946e-13
0.0005 0.000213541 0.000510864 1.78637e-13
0.0005 0.000286079 0.000510864 1.81929e-13
0.0005 0.000352024 0.000510864 1.86986e-13
0.0005 0.000411973 0.000510864 1.9282e-13
0.0005 0.000466473 0.000510864 1.99181e-13
0.0005 0.000516018 0.000510864 2.05092e-13
0.0005 0.000561059 0.000510864 2.10815e-13
0.0005 0.000602005 0.000510864 2.15739e-13
0.0005 0.000639229 0.000510864 2.20069e-13
0.0005 0.000673069 0.000510864 2.23894e-13
0.0005 0.000703833 0.000510864 2.27287e-13
0.0005 0.000731799 0.000510864 2.30109e-13
0.0005 0.000757224 0.000510864 2.32521e-13
0.0005 0.000780337 0.000510864 2.34527e-13
0.0005 0.000801349 0.000510864 2.36093e-13
0.0005 0.000820451 0.000510864 2.37372e-13
0.0005 0.000837816 0.000510864 2.38396e-13
0.0005 0.000853602 0.000510864 2.39231e-13
0.0005 0.000867954 0.000510864 2.39887e-13
0.0005 0.000881001 0.000510864 2.40396e-13
0.0005 0.000892861 0.000510864 2.40781e-13
0.0005 0.000903644 0.000510864 2.41072e-13
0.0005 0.000913446 0.000510864 2.4127e-13
0.0005 0.000922357 0.000510864 2.41396e-13
0.0005 0.000930458 0.000510864 2.41393e-13
0.0005 0.000937823 0.000510864 2.41397e-13
0.0005 0.000944518 0.000510864 2.41426e-13
0.0005 0.000950604 0.000510864 2.41478e-13
0.0005 0.000956137 0.000510864 2.41564e-13
0.0005 0.000961167 0.000510864 2.41684e-13
0.0005 0.00096574 0.000510864 2.41843e-13
0.0005 0.000969897 0.000510864 2.42049e-13
0.0005 0.000973676 0.000510864 2.42298e-13
0.0005 0.000977112 0.000510864 2.42698e-13
0.0005 0.000980235 0.000510864 2.43175e-13
0.0005 0.000983075 0.000510864 2.43739e-13
0.0005 0.000985656 0.000510864 2.44417e-13
0.0005 0.000988002 0.000510864 2.452e-13
0.0005 0.000990136 0.000510864 2.46064e-13
0.0005 0.000992075 0.000510864 2.46994e-13
0.0005 0.000993838 0.000510864 2.47932e-13
0.0005 0.000995441 0.000510864 2.48821e-13
0.0005 0.000996898 0.000510864 2.49529e-13
0.0005 0.000998222 0.000510864 2.50032e-13
0.0005 0.000999427 0.000510864 2.5034e-13
0.0005 4.59758e-05 0.00060182 2.20876e-13
0.0005 0.000133748 0.00060182 2.21824e-13
0.0005 0.000213541 0.00060182 2.22862e-13
0.0005 0.000286079 0.00060182 2.25544e-13
0.0005 0.000352024 0.00060182 2.29298e-13
0.0005 0.000411973 0.00060182 2.33968e-13
0.0005 0.000466473 0.00060182 2.39225e-13
0.0005 0.000516018 0.00060182 2.44734e-13
0.0005 0.000561059 0.00060182 2.49337e-13
0.0005 0.000602005 0.00060182 2.52874e-13
0.0005 0.000639229 0.00060182 2.55699e-13
0.0005 0.000673069 0.00060182 2.57685e-13
0.0005 0.000703833 0.00060182 2.62291e-13
0.0005 0.000731799 0.00060182 2.62937e-13
0.0005 0.000757224 0.00060182 2.65789e-13
0.0005 0.000780337 0.00060182 2.68365e-13
0.0005 0.000801349 0.00060182 2.67646e-13
0.0005 0.000820451 0.00060182 2.68164e-13
0.0005 0.000837816 0.00060182 2.68638e-13
0.0005 0.000853602 0.00060182 2.69753e-13
0.0005 0.000867954 0.00060182 2.70545e-13
0.0005 0.000881001 0.00060182 2.71105e-13
0.0005 0.000892861 0.00060182 2.71554e-13
0.0005 0.000903644 0.00060182 2.71921e-13
0.0005 0.000913446 0.00060182 2.72332e-13
0.0005 0.000922357 0.00060182 2.72254e-13
0.0005 0.000930458 0.00060182 2.7217e-13
0.0005 0.000937823 0.00060182 2.72113e-13
0.0005 0.000944518 0.00060182 2.71981e-13
0.0005 0.000950604 0.00060182 2.71589e-13
0.0005 0.000956137 0.00060182 2.7119e-13
0.0005 0.000961167 0.00060182 2.70583e-13
0.0005 0.00096574 0.00060182 2.69982e-13
0.0005 0.000969897 0.00060182 2.69348e-13
0.0005 0.000973676 0.00060182 2.68647e-13
0.0005 0.000977112 0.00060182 2.67869e-13
0.0005 0.000980235 0.00060182 2.67027e-13
0.0005 0.000983075 0.00060182 2.66103e-13
0.0005 0.000985656 0.00060182 2.6511e-13
0.0005 0.000988002 0.00060182 2.6409e-13
0.0005 0.000990136 0.00060182 2.63006e-13
0.0005 0.000992075 0.00060182 2.61915e-13
0.0005 0.000993838 0.00060182 2.60892e-13
0.0005 0.000995441 0.00060182 2.59939e-13
0.0005 0.000996898 0.00060182 2.59182e-13
0.0005 0.000998222 0.00060182 2.58644e-13
0.0005 0.000999427 0.00060182 2.58308e-13
0.0005 4.59758e-05 0.000692188 2.67002e-13
0.0005 0.000133748 0.000692188 2.6675e-13
0.0005 0.000213541 0.000692188 2.68288e-13
0.0005 0.000286079 0.000692188 2.70771e-13
0.0005 0.000352024 0.000692188 2.73313e-13
0.0005 0.000411973 0.000692188 2.78526e-13
0.0005 0.000466473 0.000692188 2.85877e-13
0.0005 0.000516018 0.000692188 2.86962e-13
0.0005 0.000561059 0.000692188 2.89904e-13
0.0005 0.000602005 0.000692188 2.93234e-13
0.0005 0.000639229 0.000692188 2.96359e-13
0.0005 0.000673069 0.000692188 2.99627e-13
0.0005 0.000703833 0.000692188 2.99787e-13
0.0005 0.000731799 0.000692188 3.00666e-13
0.0005 0.000757224 0.000692188 3.02135e-13
0.0005 0.000780337 0.000692188 3.0335e-13
0.0005 0.000801349 0.000692188 3.04803e-13
0.0005 0.000820451 0.000692188 3.04506e-13
0.0005 0.000837816 0.000692188 3.04683e-13
0.0005 0.000853602 0.000692188 3.05084e-13
0.0005 0.000867954 0.000692188 3.05671e-13
0.0005 0.000881001 0.000692188 3.06457e-13
0.0005 0.000892861 0.000692188 3.06202e-13
0.0005 0.000903644 0.000692188 3.05866e-13
0.0005 0.000913446 0.000692188 3.06158e-13
0.0005 0.000922357 0.000692188 3.06414e-13
0.0005 0.000930458 0.000692188 3.06262e-13
0.0005 0.000937823 0.000692188 3.05964e-13
0.0005 0.000944518 0.000692188 3.05875e-13
0.0005 0.000950604 0.000692188 3.05911e-13
0.0005 0.000956137 0.000692188 3.0602e-13
0.0005 0.000961167 0.000692188 3.06207e-13
0.0005 0.00096574 0.000692188 3.06468e-13
0.0005 0.000969897 0.000692188 3.06811e-13
0.0005 0.000973676 0.000692188 3.07248e-13
0.0005 0.000977112 0.000692188 3.0777e-13
0.0005 0.000980235 0.000692188 3.08394e-13
0.0005 0.000983075 0.000692188 3.09135e-13
0.0005 0.000985656 0.000692188 3.09978e-13
0.0005 0.000988002 0.000692188 3.10953e-13
0.0005 0.000990136 0.000692188 3.11992e-13
0.0005 0.000992075 0.000692188 3.131e-13
0.0005 0.000993838 0.000692188 3.14183e-13
0.0005 0.000995441 0.000692188 3.15214e-13
0.0005 0.000996898 0.000692188 3.16032e-13
0.0005 0.000998222 0.000692188 3.16609e-13
0.0005 0.000999427 0.000692188 3.16954e-13
0.0005 4.59758e-05 0.000781971 3.15239e-13
0.0005 0.000133748 0.000781971 3.09687e-13
0.0005 0.000213541 0.000781971 3.15844e-13
0.0005 0.000286079 0.000781971 3.18999e-13
0.0005 0.000352024 0.000781971 3.19904e-13
0.0005 0.000411973 0.000781971 3.23246e-13
0.0005 0.000466473 0.000781971 3.27128e-13
0.0005 0.000516018 0.000781971 3.28923e-13
0.0005 0.000561059 0.000781971 3.29836e-13
0.0005 0.000602005 0.000781971 3.35816e-13
0.0005 0.000639229 0.000781971 3.37467e-13
0.0005 0.000673069 0.000781971 3.39282e-13
0.0005 0.000703833 0.000781971 3.39013e-13
0.0005 0.000731799 0.000781971 3.40034e-13
0.0005 0.000757224 0.000781971 3.42228e-13
0.0005 0.000780337 0.000781971 3.42368e-13
0.0005 0.000801349 0.000781971 3.43297e-13
0.0005 0.000820451 0.000781971 3.45023e-13
0.0005 0.000837816 0.000781971 3.45318e-13
0.0005 0.000853602 0.000781971 3.45695e-13
0.0005 0.000867954 0.000781971 3.46083e-13
0.0005 0.000881001 0.000781971 3.4641e-13
0.0005 0.000892861 0.000781971 3.46685e-13
0.0005 0.000903644 0.000781971 3.46931e-13
0.0005 0.000913446 0.000781971 3.46949e-13
0.0005 0.000922357 0.000781971 3.46896e-13
0.0005 0.000930458 0.000781971 3.46782e-13
0.0005 0.000937823 0.000781971 3.46624e-13
0.0005 0.000944518 0.000781971 3.4635e-13
0.0005 0.000950604 0.000781971 3.4603e-13
0.0005 0.000956137 0.000781971 3.4567e-13
0.0005 0.000961167 0.000781971 3.44985e-13
0.0005 0.00096574 0.000781971 3.44385e-13
0.0005 0.000969897 0.000781971 3.43688e-13
0.0005 0.000973676 0.000781971 3.42837e-13
0.0005 0.000977112 0.000781971 3.41946e-13
0.0005 0.000980235 0.000781971 3.40969e-13
0.0005 0.000983075 0.000781971 3.39883e-13
0.0005 0.000985656 0.000781971 3.38689e-13
0.0005 0.000988002 0.000781971 3.37424e-13
0.0005 0.000990136 0.000781971 3.36078e-13
0.0005 0.000992075 0.000781971 3.34679e-13
0.0005 0.000993838 0.000781971 3.33344e-13
0.0005 0.000995441 0.000781971 3.32084e-13
0.0005 0.000996898 0.000781971 3.31067e-13
0.0005 0.000998222 0.000781971 3.30348e-13
0.0005 0.000999427 0.000781971 3.29908e-13
0.0005 4.59758e-05 0.000871175 3.64657e-13
0.0005 0.000133748 0.000871175 3.63774e-13
0.0005 0.000213541 0.000871175 3.65527e-13
0.0005 0.000286079 0.000871175 3.66969e-13
0.0005 0.000352024 0.000871175 3.68058e-13
0.0005 0.000411973 0.000871175 3.69518e-13
0.0005 0.000466473 0.000871175 3.71681e-13
0.0005 0.000516018 0.000871175 3.73478e-13
0.0005 0.000561059 0.000871175 3.7471e-13
0.0005 0.000602005 0.000871175 3.76594e-13
0.0005 0.000639229 0.000871175 3.77973e-13
0.0005 0.000673069 0.000871175 3.79201e-13
0.0005 0.000703833 0.000871175 3.80443e-13
0.0005 0.000731799 0.000871175 3.81644e-13
0.0005 0.000757224 0.000871175 3.82731e-13
0.0005 0.000780337 0.000871175 3.83463e-13
0.0005 0.000801349 0.000871175 3.8387e-13
0.0005 0.000820451 0.000871175 3.8578e-13
0.0005 0.000837816 0.000871175 3.87102e-13
0.0005 0.000853602 0.000871175 3.8793e-13
0.0005 0.000867954 0.000871175 3.8841e-13
0.0005 0.000881001 0.000871175 3.88468e-13
0.0005 0.000892861 0.000871175 3.88396e-13
0.0005 0.000903644 0.000871175 3.89246e-13
0.0005 0.000913446 0.000871175 3.89498e-13
0.0005 0.000922357 0.000871175 3.89288e-13
0.0005 0.000930458 0.000871175 3.89223e-13
0.0005 0.000937823 0.000871175 3.89515e-13
0.0005 0.000944518 0.000871175 3.89782e-13
0.0005 0.000950604 0.000871175 3.89984e-13
0.0005 0.000956137 0.000871175 3.90213e-13
0.0005 0.000961167 0.000871175 3.90684e-13
0.0005 0.00096574 0.000871175 3.91198e-13
0.0005 0.000969897 0.000871175 3.91768e-13
0.0005 0.000973676 0.000871175 3.92365e-13
0.0005 0.000977112 0.000871175 3.93089e-13
0.0005 0.000980235 0.000871175 3.93879e-13
0.0005 0.000983075 0.000871175 3.94777e-13
0.0005 0.000985656 0.000871175 3.95789e-13
0.0005 0.000988002 0.000871175 3.96905e-13
0.0005 0.000990136 0.000871175 3.98082e-13
0.0005 0.000992075 0.000871175 3.99312e-13
0.0005 0.000993838 0.000871175 4.005e-13
0.0005 0.000995441 0.000871175 4.01624e-13
0.0005 0.000996898 0.000871175 4.02519e-13
0.0005 0.000998222 0.000871175 4.03152e-13
0.0005 0.000999427 0.000871175 4.03537e-13
0.0005 4.59758e-05 0.000959801 4.12228e-13
0.0005 0.000133748 0.000959801 4.1343e-13
0.0005 0.000213541 0.000959801 4.13746e-13
0.0005 0.000286079 0.000959801 4.14501e-13
0.0005 0.000352024 0.000959801 4.15265e-13
0.0005 0.000411973 0.000959801 4.16099e-13
0.0005 0.000466473 0.000959801 4.16774e-13
0.0005 0.000516018 0.000959801 4.16751e-13
0.0005 0.000561059 0.000959801 4.15759e-13
0.0005 0.000602005 0.000959801 4.18942e-13
0.0005 0.000639229 0.000959801 4.18321e-13
0.0005 0.000673069 0.000959801 4.18813e-13
0.0005 0.000703833 0.000959801 4.22145e-13
0.0005 0.000731799 0.000959801 4.24305e-13
0.0005 0.000757224 0.000959801 4.26402e-13
0.0005 0.000780337 0.000959801 4.28694e-13
0.0005 0.000801349 0.000959801 4.28595e-13
0.0005 0.000820451 0.000959801 4.30003e-13
0.0005 0.000837816 0.000959801 4.31177e-13
0.0005 0.000853602 0.000959801 4.32096e-13
0.0005 0.000867954 0.000959801 4.32808e-13
0.0005 0.000881001 0.000959801 4.33317e-13
0.0005 0.000892861 0.000959801 4.33634e-13
0.0005 0.000903644 0.000959801 4.33768e-13
0.0005 0.000913446 0.000959801 4.33917e-13
0.0005 0.000922357 0.000959801 4.34022e-13
0.0005 0.000930458 0.000959801 4.34059e-13
0.0005 0.000937823 0.000959801 4.34086e-13
0.0005 0.000944518 0.000959801 4.33859e-13
0.0005 0.000950604 0.000959801 4.33398e-13
0.0005 0.000956137 0.000959801 4.32956e-13
0.0005 0.000961167 0.000959801 4.32566e-13
0.0005 0.00096574 0.000959801 4.32102e-13
0.0005 0.000969897 0.000959801 4.3153e-13
0.0005 0.000973676 0.000959801 4.30873e-13
0.0005 0.000977112 0.000959801 4.301e-13
0.0005 0.000980235 0.000959801 4.29209e-13
0.0005 0.000983075 0.000959801 4.28271e-13
0.0005 0.000985656 0.000959801 4.27234e-13
0.0005 0.000988002 0.000959801 4.26091e-13
0.0005 0.000990136 0.000959801 4.24862e-13
0.0005 0.000992075 0.000959801 4.23566e-13
0.0005 0.000993838 0.000959801 4.22333e-13
0.0005 0.000995441 0.000959801 4.21177e-13
0.0005 0.000996898 0.000959801 4.20249e-13
0.0005 0.000998222 0.000959801 4.19584e-13
0.0005 0.000999427 0.000959801 4.1918e-13
0.0005 4.59758e-05 0.00104786 4.5947e-13
0.0005 0.000133748 0.00104786 4.62823e-13
0.0005 0.000213541 0.00104786 4.6059e-13
0.0005 0.000286079 0.00104786 4.61004e-13
0.0005 0.000352024 0.00104786 4.62155e-13
0.0005 0.000411973 0.00104786 4.64626e-13
0.0005 0.000466473 0.00104786 4.63207e-13
0.0005 0.000516018 0.00104786 4.62812e-13
0.0005 0.000561059 0.00104786 4.62932e-13
0.0005 0.000602005 0.00104786 4.63581e-13
0.0005 0.000639229 0.00104786 4.64084e-13
0.0005 0.000673069 0.00104786 4.64898e-13
0.0005 0.000703833 0.00104786 4.66024e-13
0.0005 0.000731799 0.00104786 4.67019e-13
0.0005 0.000757224 0.00104786 4.67989e-13
0.0005 0.000780337 0.00104786 4.69009e-13
0.0005 0.000801349 0.00104786 4.6994e-13
0.0005 0.000820451 0.00104786 4.70675e-13
0.0005 0.000837816 0.00104786 4.70854e-13
0.0005 0.000853602 0.00104786 4.7172e-13
0.0005 0.000867954 0.00104786 4.7211e-13
0.0005 0.000881001 0.00104786 4.72061e-13
0.0005 0.000892861 0.00104786 4.71971e-13
0.0005 0.000903644 0.00104786 4.7185e-13
0.0005 0.000913446 0.00104786 4.7157e-13
0.0005 0.000922357 0.00104786 4.71574e-13
0.0005 0.000930458 0.00104786 4.7156e-13
0.0005 0.000937823 0.00104786 4.71539e-13
0.0005 0.000944518 0.00104786 4.71337e-13
0.0005 0.000950604 0.00104786 4.71512e-13
0.0005 0.000956137 0.00104786 4.71758e-13
0.0005 0.000961167 0.00104786 4.72049e-13
0.0005 0.00096574 0.00104786 4.72417e-13
0.0005 0.000969897 0.00104786 4.7289e-13
0.0005 0.000973676 0.00104786 4.73469e-13
0.0005 0.000977112 0.00104786 4.74063e-13
0.0005 0.000980235 0.00104786 4.7475e-13
0.0005 0.000983075 0.00104786 4.75552e-13
0.0005 0.000985656 0.00104786 4.76435e-13
0.0005 0.000988002 0.00104786 4.77371e-13
0.0005 0.000990136 0.00104786 4.78375e-13
0.0005 0.000992075 0.00104786 4.79415e-13
0.0005 0.000993838 0.00104786 4.80401e-13
0.0005 0.000995441 0.00104786 4.81337e-13
0.0005 0.000996898 0.00104786 4.82066e-13
0.0005 0.000998222 0.00104786 4.82583e-13
0.0005 0.000999427 0.00104786 4.82896e-13
0.0005 4.59758e-05 0.00113534 5.04737e-13
0.0005 0.000133748 0.00113534 5.05807e-13
0.0005 0.000213541 0.00113534 5.05863e-13
0.0005 0.000286079 0.00113534 5.06145e-13
0.0005 0.000352024 0.00113534 5.06219e-13
0.0005 0.000411973 0.00113534 5.07014e-13
0.0005 0.000466473 0.00113534 5.07136e-13
0.0005 0.000516018 0.00113534 5.07237e-13
0.0005 0.000561059 0.00113534 5.0768e-13
0.0005 0.000602005 0.00113534 5.08682e-13
0.0005 0.000639229 0.00113534 5.07659e-13
0.0005 0.000673069 0.00113534 5.08335e-13
0.0005 0.000703833 0.00113534 5.1074e-13
0.0005 0.000731799 0.00113534 5.09595e-13
0.0005 0.000757224 0.00113534 5.08583e-13
0.0005 0.000780337 0.00113534 5.10215e-13
0.0005 0.000801349 0.00113534 5.1161e-13
0.0005 0.000820451 0.00113534 5.12159e-13
0.0005 0.000837816 0.00113534 5.12471e-13
0.0005 0.000853602 0.00113534 5.12532e-13
0.0005 0.000867954 0.00113534 5.1262e-13
0.0005 0.000881001 0.00113534 5.12716e-13
0.0005 0.000892861 0.00113534 5.12529e-13
0.0005 0.000903644 0.00113534 5.12363e-13
0.0005 0.000913446 0.00113534 5.12539e-13
0.0005 0.000922357 0.00113534 5.1211e-13
0.0005 0.000930458 0.00113534 5.11612e-13
0.0005 0.000937823 0.00113534 5.11293e-13
0.0005 0.000944518 0.00113534 5.1084e-13
0.0005 0.000950604 0.00113534 5.10488e-13
0.0005 0.000956137 0.00113534 5.10044e-13
0.0005 0.000961167 0.00113534 5.09523e-13
0.0005 0.00096574 0.00113534 5.0894e-13
0.0005 0.000969897 0.00113534 5.08275e-13
0.0005 0.000973676 0.00113534 5.07596e-13
0.0005 0.000977112 0.00113534 5.06883e-13
0.0005 0.000980235 0.00113534 5.0606e-13
0.0005 0.000983075 0.00113534 5.05136e-13
0.0005 0.000985656 0.00113534 5.04119e-13
0.0005 0.000988002 0.00113534 5.03012e-13
0.0005 0.000990136 0.00113534 5.01836e-13
0.0005 0.000992075 0.00113534 5.0059e-13
0.0005 0.000993838 0.00113534 4.99368e-13
0.0005 0.000995441 0.00113534 4.98216e-13
0.0005 0.000996898 0.00113534 4.97293e-13
0.0005 0.000998222 0.00113534 4.96631e-13
0.0005 0.000999427 0.00113534 4.96214e-13
0.0005 4.59758e-05 0.00122226 5.48996e-13
0.0005 0.000133748 0.00122226 5.49803e-13
0.0005 0.000213541 0.00122226 5.50702e-13
0.0005 0.000286079 0.00122226 5.51459e-13
0.0005 0.000352024 0.00122226 5.48723e-13
0.0005 0.000411973 0.00122226 5.50775e-13
0.0005 0.000466473 0.00122226 5.50963e-13
0.0005 0.000516018 0.00122226 5.503e-13
0.0005 0.000561059 0.00122226 5.49866e-13
0.0005 0.000602005 0.00122226 5.49803e-13
0.0005 0.000639229 0.00122226 5.49781e-13
0.0005 0.000673069 0.00122226 5.49957e-13
0.0005 0.000703833 0.00122226 5.50522e-13
0.0005 0.000731799 0.00122226 5.50761e-13
0.0005 0.000757224 0.00122226 5.50926e-13
0.0005 0.000780337 0.00122226 5.51506e-13
0.0005 0.000801349 0.00122226 5.5245e-13
0.0005 0.000820451 0.00122226 5.52052e-13
0.0005 0.000837816 0.00122226 5.51932e-13
0.0005 0.000853602 0.00122226 5.52108e-13
0.0005 0.000867954 0.00122226 5.52407e-13
0.0005 0.000881001 0.00122226 5.52733e-13
0.0005 0.000892861 0.00122226 5.52515e-13
0.0005 0.000903644 0.00122226 5.52658e-13
0.0005 0.000913446 0.00122226 5.52624e-13
0.0005 0.000922357 0.00122226 5.52414e-13
0.0005 0.000930458 0.00122226 5.524e-13
0.0005 0.000937823 0.00122226 5.5249e-13
0.0005 0.000944518 0.00122226 5.52641e-13
0.0005 0.000950604 0.00122226 5.52883e-13
0.0005 0.000956137 0.00122226 5.53186e-13
0.0005 0.000961167 0.00122226 5.53536e-13
0.0005 0.00096574 0.00122226 5.53931e-13
0.0005 0.000969897 0.00122226 5.54377e-13
0.0005 0.000973676 0.00122226 5.54894e-13
0.0005 0.000977112 0.00122226 5.55481e-13
0.0005 0.000980235 0.00122226 5.56139e-13
0.0005 0.000983075 0.00122226 5.56859e-13
0.0005 0.000985656 0.00122226 5.57635e-13
0.0005 0.000988002 0.00122226 5.58497e-13
0.0005 0.000990136 0.00122226 5.59421e-13
0.0005 0.000992075 0.00122226 5.60381e-13
0.0005 0.000993838 0.00122226 5.61292e-13
0.0005 0.000995441 0.00122226 5.62158e-13
0.0005 0.000996898 0.00122226 5.62834e-13
0.0005 0.000998222 0.00122226 5.63317e-13
0.0005 0.000999427 0.00122226 5.63616e-13
0.0005 4.59758e-05 0.00130862 5.92154e-13
0.0005 0.000133748 0.00130862 5.93444e-13
0.0005 0.000213541 0.00130862 5.95524e-13
0.0005 0.000286079 0.00130862 5.96004e-13
0.0005 0.000352024 0.00130862 5.91587e-13
0.0005 0.000411973 0.00130862 5.91253e-13
0.0005 0.000466473 0.00130862 5.93728e-13
0.0005 0.000516018 0.00130862 5.92452e-13
0.0005 0.000561059 0.00130862 5.90358e-13
0.0005 0.000602005 0.00130862 5.90521e-13
0.0005 0.000639229 0.00130862 5.90486e-13
0.0005 0.000673069 0.00130862 5.93159e-13
0.0005 0.000703833 0.00130862 5.94001e-13
0.0005 0.000731799 0.00130862 5.92503e-13
0.0005 0.000757224 0.00130862 5.92052e-13
0.0005 0.000780337 0.00130862 5.91855e-13
0.0005 0.000801349 0.00130862 5.91787e-13
0.0005 0.000820451 0.00130862 5.91798e-13
0.0005 0.000837816 0.00130862 5.9189e-13
0.0005 0.000853602 0.00130862 5.92208e-13
0.0005 0.000867954 0.00130862 5.92736e-13
0.0005 0.000881001 0.00130862 5.9229e-13
0.0005 0.000892861 0.00130862 5.92203e-13
0.0005 0.000903644 0.00130862 5.9233e-13
0.0005 0.000913446 0.00130862 5.91991e-13
0.0005 0.000922357 0.00130862 5.91648e-13
0.0005 0.000930458 0.00130862 5.91358e-13
0.0005 0.000937823 0.00130862 5.91116e-13
0.0005 0.000944518 0.00130862 5.90755e-13
0.0005 0.000950604 0.00130862 5.90316e-13
0.0005 0.000956137 0.00130862 5.89799e-13
0.0005 0.000961167 0.00130862 5.89248e-13
0.0005 0.00096574 0.00130862 5.88648e-13
0.0005 0.000969897 0.00130862 5.88012e-13
0.0005 0.000973676 0.00130862 5.87355e-13
0.0005 0.000977112 0.00130862 5.86579e-13
0.0005 0.000980235 0.00130862 5.8576e-13
0.0005 0.000983075 0.00130862 5.84883e-13
0.0005 0.000985656 0.00130862 5.83936e-13
0.0005 0.000988002 0.00130862 5.82916e-13
0.0005 0.000990136 0.00130862 5.81861e-13
0.0005 0.000992075 0.00130862 5.80774e-13
0.0005 0.000993838 0.00130862 5.7974e-13
0.0005 0.000995441 0.00130862 5.78769e-13
0.0005 0.000996898 0.00130862 5.78e-13
0.0005 0.000998222 0.00130862 5.77448e-13
0.0005 0.000999427 0.00130862 5.77104e-13