# V  FACE_DATA 31819
#  x  y  z  V
0.0005 4.59758e-05 4.71292e-05 8.66722e-12
0.0005 0.000133748 4.71292e-05 7.87929e-12
0.0005 0.000213541 4.71292e-05 7.163e-12
0.0005 0.000286079 4.71292e-05 6.51181e-12
0.0005 0.000352024 4.71292e-05 5.91983e-12
0.0005 0.000411973 4.71292e-05 5.38166e-12
0.0005 0.000466473 4.71292e-05 4.89242e-12
0.0005 0.000516018 4.71292e-05 4.44766e-12
0.0005 0.000561059 4.71292e-05 4.04332e-12
0.0005 0.000602005 4.71292e-05 3.67575e-12
0.0005 0.000639229 4.71292e-05 3.34159e-12
0.0005 0.000673069 4.71292e-05 3.03781e-12
0.0005 0.000703833 4.71292e-05 2.76164e-12
0.0005 0.000731799 4.71292e-05 2.51059e-12
0.0005 0.000757224 4.71292e-05 2.28235e-12
0.0005 0.000780337 4.71292e-05 2.07486e-12
0.0005 0.000801349 4.71292e-05 1.88624e-12
0.0005 0.000820451 4.71292e-05 1.71476e-12
0.0005 0.000837816 4.71292e-05 1.55888e-12
0.0005 0.000853602 4.71292e-05 1.41716e-12
0.0005 0.000867954 4.71292e-05 1.28833e-12
0.0005 0.000881001 4.71292e-05 1.17121e-12
0.0005 0.000892861 4.71292e-05 1.06473e-12
0.0005 0.000903644 4.71292e-05 9.6794e-13
0.0005 0.000913446 4.71292e-05 8.79945e-13
0.0005 0.000922357 4.71292e-05 7.9995e-13
0.0005 0.000930458 4.71292e-05 7.27227e-13
0.0005 0.000937823 4.71292e-05 6.61116e-13
0.0005 0.000944518 4.71292e-05 6.01014e-13
0.0005 0.000950604 4.71292e-05 5.46377e-13
0.0005 0.000956137 4.71292e-05 4.96706e-13
0.0005 0.000961167 4.71292e-05 4.51551e-13
0.0005 0.00096574 4.71292e-05 4.10501e-13
0.0005 0.000969897 4.71292e-05 3.73183e-13
0.0005 0.000973676 4.71292e-05 3.39257e-13
0.0005 0.000977112 4.71292e-05 3.08415e-13
0.0005 0.000980235 4.71292e-05 2.80378e-13
0.0005 0.000983075 4.71292e-05 2.54889e-13
0.0005 0.000985656 4.71292e-05 2.31717e-13
0.0005 0.000988002 4.71292e-05 2.10652e-13
0.0005 0.000990136 4.71292e-05 1.91502e-13
0.0005 0.000992075 4.71292e-05 1.74092e-13
0.0005 0.000993838 4.71292e-05 1.58266e-13
0.0005 0.000995441 4.71292e-05 1.43878e-13
0.0005 0.000996898 4.71292e-05 1.30798e-13
0.0005 0.000998222 4.71292e-05 1.18907e-13
0.0005 0.000999427 4.71292e-05 1.08098e-13
0.0005 4.59758e-05 0.000141083 8.61119e-12
0.0005 0.000133748 0.000141083 7.82836e-12
0.0005 0.000213541 0.000141083 7.11669e-12
0.0005 0.000286079 0.000141083 6.46972e-12
0.0005 0.000352024 0.000141083 5.88156e-12
0.0005 0.000411973 0.000141083 5.34687e-12
0.0005 0.000466473 0.000141083 4.86079e-12
0.0005 0.000516018 0.000141083 4.4189e-12
0.0005 0.000561059 0.000141083 4.01719e-12
0.0005 0.000602005 0.000141083 3.65199e-12
0.0005 0.000639229 0.000141083 3.31999e-12
0.0005 0.000673069 0.000141083 3.01817e-12
0.0005 0.000703833 0.000141083 2.74379e-12
0.0005 0.000731799 0.000141083 2.49436e-12
0.0005 0.000757224 0.000141083 2.2676e-12
0.0005 0.000780337 0.000141083 2.06145e-12
0.0005 0.000801349 0.000141083 1.87405e-12
0.0005 0.000820451 0.000141083 1.70368e-12
0.0005 0.000837816 0.000141083 1.5488e-12
0.0005 0.000853602 0.000141083 1.408e-12
0.0005 0.000867954 0.000141083 1.28e-12
0.0005 0.000881001 0.000141083 1.16364e-12
0.0005 0.000892861 0.000141083 1.05785e-12
0.0005 0.000903644 0.000141083 9.61682e-13
0.0005 0.000913446 0.000141083 8.74257e-13
0.0005 0.000922357 0.000141083 7.94779e-13
0.0005 0.000930458 0.000141083 7.22526e-13
0.0005 0.000937823 0.000141083 6.56842e-13
0.0005 0.000944518 0.000141083 5.97129e-13
0.0005 0.000950604 0.000141083 5.42845e-13
0.0005 0.000956137 0.000141083 4.93495e-13
0.0005 0.000961167 0.000141083 4.48632e-13
0.0005 0.00096574 0.000141083 4.07847e-13
0.0005 0.000969897 0.000141083 3.7077e-13
0.0005 0.000973676 0.000141083 3.37064e-13
0.0005 0.000977112 0.000141083 3.06422e-13
0.0005 0.000980235 0.000141083 2.78565e-13
0.0005 0.000983075 0.000141083 2.53241e-13
0.0005 0.000985656 0.000141083 2.30219e-13
0.0005 0.000988002 0.000141083 2.0929e-13
0.0005 0.000990136 0.000141083 1.90264e-13
0.0005 0.000992075 0.000141083 1.72967e-13
0.0005 0.000993838 0.000141083 1.57243e-13
0.0005 0.000995441 0.000141083 1.42948e-13
0.0005 0.000996898 0.000141083 1.29953e-13
0.0005 0.000998222 0.000141083 1.18139e-13
0.0005 0.000999427 0.000141083 1.07399e-13
0.0005 4.59758e-05 0.00023443 8.55553e-12
0.0005 0.000133748 0.00023443 7.77775e-12
0.0005 0.000213541 0.00023443 7.07068e-12
0.0005 0.000286079 0.00023443 6.42789e-12
0.0005 0.000352024 0.00023443 5.84354e-12
0.0005 0.000411973 0.00023443 5.31231e-12
0.0005 0.000466473 0.00023443 4.82937e-12
0.0005 0.000516018 0.00023443 4.39034e-12
0.0005 0.000561059 0.00023443 3.99122e-12
0.0005 0.000602005 0.00023443 3.62838e-12
0.0005 0.000639229 0.00023443 3.29853e-12
0.0005 0.000673069 0.00023443 2.99866e-12
0.0005 0.000703833 0.00023443 2.72605e-12
0.0005 0.000731799 0.00023443 2.47823e-12
0.0005 0.000757224 0.00023443 2.25294e-12
0.0005 0.000780337 0.00023443 2.04812e-12
0.0005 0.000801349 0.00023443 1.86193e-12
0.0005 0.000820451 0.00023443 1.69267e-12
0.0005 0.000837816 0.00023443 1.53879e-12
0.0005 0.000853602 0.00023443 1.3989e-12
0.0005 0.000867954 0.00023443 1.27172e-12
0.0005 0.000881001 0.00023443 1.15611e-12
0.0005 0.000892861 0.00023443 1.05101e-12
0.0005 0.000903644 0.00023443 9.55465e-13
0.0005 0.000913446 0.00023443 8.68605e-13
0.0005 0.000922357 0.00023443 7.89641e-13
0.0005 0.000930458 0.00023443 7.17855e-13
0.0005 0.000937823 0.00023443 6.52596e-13
0.0005 0.000944518 0.00023443 5.93269e-13
0.0005 0.000950604 0.00023443 5.39335e-13
0.0005 0.000956137 0.00023443 4.90305e-13
0.0005 0.000961167 0.00023443 4.45732e-13
0.0005 0.00096574 0.00023443 4.05211e-13
0.0005 0.000969897 0.00023443 3.68373e-13
0.0005 0.000973676 0.00023443 3.34885e-13
0.0005 0.000977112 0.00023443 3.04441e-13
0.0005 0.000980235 0.00023443 2.76764e-13
0.0005 0.000983075 0.00023443 2.51604e-13
0.0005 0.000985656 0.00023443 2.28731e-13
0.0005 0.000988002 0.00023443 2.07937e-13
0.0005 0.000990136 0.00023443 1.89034e-13
0.0005 0.000992075 0.00023443 1.71849e-13
0.0005 0.000993838 0.00023443 1.56226e-13
0.0005 0.000995441 0.00023443 1.42024e-13
0.0005 0.000996898 0.00023443 1.29113e-13
0.0005 0.000998222 0.00023443 1.17375e-13
0.0005 0.000999427 0.00023443 1.06705e-13
0.0005 4.59758e-05 0.000327172 8.50022e-12
0.0005 0.000133748 0.000327172 7.72747e-12
0.0005 0.000213541 0.000327172 7.02497e-12
0.0005 0.000286079 0.000327172 6.38634e-12
0.0005 0.000352024 0.000327172 5.80576e-12
0.0005 0.000411973 0.000327172 5.27797e-12
0.0005 0.000466473 0.000327172 4.79815e-12
0.0005 0.000516018 0.000327172 4.36196e-12
0.0005 0.000561059 0.000327172 3.96541e-12
0.0005 0.000602005 0.000327172 3.60492e-12
0.0005 0.000639229 0.000327172 3.2772e-12
0.0005 0.000673069 0.000327172 2.97927e-12
0.0005 0.000703833 0.000327172 2.70843e-12
0.0005 0.000731799 0.000327172 2.46221e-12
0.0005 0.000757224 0.000327172 2.23837e-12
0.0005 0.000780337 0.000327172 2.03488e-12
0.0005 0.000801349 0.000327172 1.8499e-12
0.0005 0.000820451 0.000327172 1.68172e-12
0.0005 0.000837816 0.000327172 1.52884e-12
0.0005 0.000853602 0.000327172 1.38985e-12
0.0005 0.000867954 0.000327172 1.2635e-12
0.0005 0.000881001 0.000327172 1.14864e-12
0.0005 0.000892861 0.000327172 1.04422e-12
0.0005 0.000903644 0.000327172 9.49289e-13
0.0005 0.000913446 0.000327172 8.6299e-13
0.0005 0.000922357 0.000327172 7.84536e-13
0.0005 0.000930458 0.000327172 7.13215e-13
0.0005 0.000937823 0.000327172 6.48377e-13
0.0005 0.000944518 0.000327172 5.89434e-13
0.0005 0.000950604 0.000327172 5.35849e-13
0.0005 0.000956137 0.000327172 4.87135e-13
0.0005 0.000961167 0.000327172 4.4285e-13
0.0005 0.00096574 0.000327172 4.02591e-13
0.0005 0.000969897 0.000327172 3.65992e-13
0.0005 0.000973676 0.000327172 3.3272e-13
0.0005 0.000977112 0.000327172 3.02473e-13
0.0005 0.000980235 0.000327172 2.74975e-13
0.0005 0.000983075 0.000327172 2.49977e-13
0.0005 0.000985656 0.000327172 2.27252e-13
0.0005 0.000988002 0.000327172 2.06593e-13
0.0005 0.000990136 0.000327172 1.87812e-13
0.0005 0.000992075 0.000327172 1.70738e-13
0.0005 0.000993838 0.000327172 1.55216e-13
0.0005 0.000995441 0.000327172 1.41106e-13
0.0005 0.000996898 0.000327172 1.28278e-13
0.0005 0.000998222 0.000327172 1.16616e-13
0.0005 0.000999427 0.000327172 1.06015e-13
0.0005 4.59758e-05 0.000419316 8.44527e-12
0.0005 0.000133748 0.000419316 7.67752e-12
0.0005 0.000213541 0.000419316 6.97956e-12
0.0005 0.000286079 0.000419316 6.34505e-12
0.0005 0.000352024 0.000419316 5.76823e-12
0.0005 0.000411973 0.000419316 5.24385e-12
0.0005 0.000466473 0.000419316 4.76713e-12
0.0005 0.000516018 0.000419316 4.33376e-12
0.0005 0.000561059 0.000419316 3.93978e-12
0.0005 0.000602005 0.000419316 3.58162e-12
0.0005 0.000639229 0.000419316 3.25602e-12
0.0005 0.000673069 0.000419316 2.96001e-12
0.0005 0.000703833 0.000419316 2.69092e-12
0.0005 0.000731799 0.000419316 2.44629e-12
0.0005 0.000757224 0.000419316 2.2239e-12
0.0005 0.000780337 0.000419316 2.02173e-12
0.0005 0.000801349 0.000419316 1.83794e-12
0.0005 0.000820451 0.000419316 1.67085e-12
0.0005 0.000837816 0.000419316 1.51896e-12
0.0005 0.000853602 0.000419316 1.38087e-12
0.0005 0.000867954 0.000419316 1.25534e-12
0.0005 0.000881001 0.000419316 1.14121e-12
0.0005 0.000892861 0.000419316 1.03747e-12
0.0005 0.000903644 0.000419316 9.43152e-13
0.0005 0.000913446 0.000419316 8.57411e-13
0.0005 0.000922357 0.000419316 7.79464e-13
0.0005 0.000930458 0.000419316 7.08604e-13
0.0005 0.000937823 0.000419316 6.44185e-13
0.0005 0.000944518 0.000419316 5.85623e-13
0.0005 0.000950604 0.000419316 5.32385e-13
0.0005 0.000956137 0.000419316 4.83986e-13
0.0005 0.000961167 0.000419316 4.39987e-13
0.0005 0.00096574 0.000419316 3.99988e-13
0.0005 0.000969897 0.000419316 3.63626e-13
0.0005 0.000973676 0.000419316 3.30569e-13
0.0005 0.000977112 0.000419316 3.00517e-13
0.0005 0.000980235 0.000419316 2.73198e-13
0.0005 0.000983075 0.000419316 2.48361e-13
0.0005 0.000985656 0.000419316 2.25783e-13
0.0005 0.000988002 0.000419316 2.05257e-13
0.0005 0.000990136 0.000419316 1.86598e-13
0.0005 0.000992075 0.000419316 1.69634e-13
0.0005 0.000993838 0.000419316 1.54213e-13
0.0005 0.000995441 0.000419316 1.40194e-13
0.0005 0.000996898 0.000419316 1.27449e-13
0.0005 0.000998222 0.000419316 1.15862e-13
0.0005 0.000999427 0.000419316 1.05329e-13
0.0005 4.59758e-05 0.000510864 8.39067e-12
0.0005 0.000133748 0.000510864 7.62788e-12
0.0005 0.000213541 0.000510864 6.93444e-12
0.0005 0.000286079 0.000510864 6.30404e-12
0.0005 0.000352024 0.000510864 5.73094e-12
0.0005 0.000411973 0.000510864 5.20995e-12
0.0005 0.000466473 0.000510864 4.73632e-12
0.0005 0.000516018 0.000510864 4.30574e-12
0.0005 0.000561059 0.000510864 3.91431e-12
0.0005 0.000602005 0.000510864 3.55846e-12
0.0005 0.000639229 0.000510864 3.23497e-12
0.0005 0.000673069 0.000510864 2.94088e-12
0.0005 0.000703833 0.000510864 2.67353e-12
0.0005 0.000731799 0.000510864 2.43048e-12
0.0005 0.000757224 0.000510864 2.20953e-12
0.0005 0.000780337 0.000510864 2.00866e-12
0.0005 0.000801349 0.000510864 1.82605e-12
0.0005 0.000820451 0.000510864 1.66005e-12
0.0005 0.000837816 0.000510864 1.50914e-12
0.0005 0.000853602 0.000510864 1.37194e-12
0.0005 0.000867954 0.000510864 1.24722e-12
0.0005 0.000881001 0.000510864 1.13384e-12
0.0005 0.000892861 0.000510864 1.03076e-12
0.0005 0.000903644 0.000510864 9.37055e-13
0.0005 0.000913446 0.000510864 8.51868e-13
0.0005 0.000922357 0.000510864 7.74425e-13
0.0005 0.000930458 0.000510864 7.04023e-13
0.0005 0.000937823 0.000510864 6.40021e-13
0.0005 0.000944518 0.000510864 5.81837e-13
0.0005 0.000950604 0.000510864 5.28943e-13
0.0005 0.000956137 0.000510864 4.80857e-13
0.0005 0.000961167 0.000510864 4.37143e-13
0.0005 0.00096574 0.000510864 3.97403e-13
0.0005 0.000969897 0.000510864 3.61275e-13
0.0005 0.000973676 0.000510864 3.28432e-13
0.0005 0.000977112 0.000510864 2.98575e-13
0.0005 0.000980235 0.000510864 2.71431e-13
0.0005 0.000983075 0.000510864 2.46756e-13
0.0005 0.000985656 0.000510864 2.24323e-13
0.0005 0.000988002 0.000510864 2.0393e-13
0.0005 0.000990136 0.000510864 1.85391e-13
0.0005 0.000992075 0.000510864 1.68538e-13
0.0005 0.000993838 0.000510864 1.53216e-13
0.0005 0.000995441 0.000510864 1.39287e-13
0.0005 0.000996898 0.000510864 1.26625e-13
0.0005 0.000998222 0.000510864 1.15113e-13
0.0005 0.000999427 0.000510864 1.04649e-13
0.0005 4.59758e-05 0.00060182 8.33643e-12
0.0005 0.000133748 0.00060182 7.57857e-12
0.0005 0.000213541 0.00060182 6.88961e-12
0.0005 0.000286079 0.00060182 6.26328e-12
0.0005 0.000352024 0.00060182 5.69389e-12
0.0005 0.000411973 0.00060182 5.17627e-12
0.0005 0.000466473 0.00060182 4.7057e-12
0.0005 0.000516018 0.00060182 4.27791e-12
0.0005 0.000561059 0.00060182 3.88901e-12
0.0005 0.000602005 0.00060182 3.53546e-12
0.0005 0.000639229 0.00060182 3.21405e-12
0.0005 0.000673069 0.00060182 2.92187e-12
0.0005 0.000703833 0.00060182 2.65624e-12
0.0005 0.000731799 0.00060182 2.41477e-12
0.0005 0.000757224 0.00060182 2.19524e-12
0.0005 0.000780337 0.00060182 1.99567e-12
0.0005 0.000801349 0.00060182 1.81425e-12
0.0005 0.000820451 0.00060182 1.64932e-12
0.0005 0.000837816 0.00060182 1.49938e-12
0.0005 0.000853602 0.00060182 1.36307e-12
0.0005 0.000867954 0.00060182 1.23916e-12
0.0005 0.000881001 0.00060182 1.12651e-12
0.0005 0.000892861 0.00060182 1.0241e-12
0.0005 0.000903644 0.00060182 9.30997e-13
0.0005 0.000913446 0.00060182 8.46361e-13
0.0005 0.000922357 0.00060182 7.69419e-13
0.0005 0.000930458 0.00060182 6.99472e-13
0.0005 0.000937823 0.00060182 6.35884e-13
0.0005 0.000944518 0.00060182 5.78076e-13
0.0005 0.000950604 0.00060182 5.25524e-13
0.0005 0.000956137 0.00060182 4.77749e-13
0.0005 0.000961167 0.00060182 4.34317e-13
0.0005 0.00096574 0.00060182 3.94834e-13
0.0005 0.000969897 0.00060182 3.5894e-13
0.0005 0.000973676 0.00060182 3.26309e-13
0.0005 0.000977112 0.00060182 2.96644e-13
0.0005 0.000980235 0.00060182 2.69677e-13
0.0005 0.000983075 0.00060182 2.45161e-13
0.0005 0.000985656 0.00060182 2.22873e-13
0.0005 0.000988002 0.00060182 2.02612e-13
0.0005 0.000990136 0.00060182 1.84193e-13
0.0005 0.000992075 0.00060182 1.67448e-13
0.0005 0.000993838 0.00060182 1.52225e-13
0.0005 0.000995441 0.00060182 1.38387e-13
0.0005 0.000996898 0.00060182 1.25806e-13
0.0005 0.000998222 0.00060182 1.14369e-13
0.0005 0.000999427 0.00060182 1.03972e-13
0.0005 4.59758e-05 0.000692188 8.28254e-12
0.0005 0.000133748 0.000692188 7.52958e-12
0.0005 0.000213541 0.000692188 6.84507e-12
0.0005 0.000286079 0.000692188 6.22279e-12
0.0005 0.000352024 0.000692188 5.65708e-12
0.0005 0.000411973 0.000692188 5.1428e-12
0.0005 0.000466473 0.000692188 4.67528e-12
0.0005 0.000516018 0.000692188 4.25025e-12
0.0005 0.000561059 0.000692188 3.86386e-12
0.0005 0.000602005 0.000692188 3.5126e-12
0.0005 0.000639229 0.000692188 3.19328e-12
0.0005 0.000673069 0.000692188 2.90298e-12
0.0005 0.000703833 0.000692188 2.63907e-12
0.0005 0.000731799 0.000692188 2.39916e-12
0.0005 0.000757224 0.000692188 2.18105e-12
0.0005 0.000780337 0.000692188 1.98277e-12
0.0005 0.000801349 0.000692188 1.80252e-12
0.0005 0.000820451 0.000692188 1.63866e-12
0.0005 0.000837816 0.000692188 1.48969e-12
0.0005 0.000853602 0.000692188 1.35426e-12
0.0005 0.000867954 0.000692188 1.23115e-12
0.0005 0.000881001 0.000692188 1.11922e-12
0.0005 0.000892861 0.000692188 1.01748e-12
0.0005 0.000903644 0.000692188 9.24979e-13
0.0005 0.000913446 0.000692188 8.4089e-13
0.0005 0.000922357 0.000692188 7.64445e-13
0.0005 0.000930458 0.000692188 6.9495e-13
0.0005 0.000937823 0.000692188 6.31773e-13
0.0005 0.000944518 0.000692188 5.74339e-13
0.0005 0.000950604 0.000692188 5.22126e-13
0.0005 0.000956137 0.000692188 4.7466e-13
0.0005 0.000961167 0.000692188 4.31509e-13
0.0005 0.00096574 0.000692188 3.92281e-13
0.0005 0.000969897 0.000692188 3.56619e-13
0.0005 0.000973676 0.000692188 3.24199e-13
0.0005 0.000977112 0.000692188 2.94727e-13
0.0005 0.000980235 0.000692188 2.67933e-13
0.0005 0.000983075 0.000692188 2.43576e-13
0.0005 0.000985656 0.000692188 2.21432e-13
0.0005 0.000988002 0.000692188 2.01302e-13
0.0005 0.000990136 0.000692188 1.83002e-13
0.0005 0.000992075 0.000692188 1.66366e-13
0.0005 0.000993838 0.000692188 1.51241e-13
0.0005 0.000995441 0.000692188 1.37492e-13
0.0005 0.000996898 0.000692188 1.24993e-13
0.0005 0.000998222 0.000692188 1.1363e-13
0.0005 0.000999427 0.000692188 1.033e-13
0.0005 4.59758e-05 0.000781971 8.22899e-12
0.0005 0.000133748 0.000781971 7.4809e-12
0.0005 0.000213541 0.000781971 6.80082e-12
0.0005 0.000286079 0.000781971 6.18256e-12
0.0005 0.000352024 0.000781971 5.62051e-12
0.0005 0.000411973 0.000781971 5.10956e-12
0.0005 0.000466473 0.000781971 4.64505e-12
0.0005 0.000516018 0.000781971 4.22278e-12
0.0005 0.000561059 0.000781971 3.83889e-12
0.0005 0.000602005 0.000781971 3.4899e-12
0.0005 0.000639229 0.000781971 3.17263e-12
0.0005 0.000673069 0.000781971 2.88421e-12
0.0005 0.000703833 0.000781971 2.62201e-12
0.0005 0.000731799 0.000781971 2.38365e-12
0.0005 0.000757224 0.000781971 2.16695e-12
0.0005 0.000780337 0.000781971 1.96996e-12
0.0005 0.000801349 0.000781971 1.79087e-12
0.0005 0.000820451 0.000781971 1.62806e-12
0.0005 0.000837816 0.000781971 1.48006e-12
0.0005 0.000853602 0.000781971 1.34551e-12
0.0005 0.000867954 0.000781971 1.22319e-12
0.0005 0.000881001 0.000781971 1.11199e-12
0.0005 0.000892861 0.000781971 1.0109e-12
0.0005 0.000903644 0.000781971 9.18999e-13
0.0005 0.000913446 0.000781971 8.35454e-13
0.0005 0.000922357 0.000781971 7.59503e-13
0.0005 0.000930458 0.000781971 6.90457e-13
0.0005 0.000937823 0.000781971 6.27689e-13
0.0005 0.000944518 0.000781971 5.70626e-13
0.0005 0.000950604 0.000781971 5.18751e-13
0.0005 0.000956137 0.000781971 4.71592e-13
0.0005 0.000961167 0.000781971 4.2872e-13
0.0005 0.00096574 0.000781971 3.89745e-13
0.0005 0.000969897 0.000781971 3.54314e-13
0.0005 0.000973676 0.000781971 3.22104e-13
0.0005 0.000977112 0.000781971 2.92821e-13
0.0005 0.000980235 0.000781971 2.66201e-13
0.0005 0.000983075 0.000781971 2.42001e-13
0.0005 0.000985656 0.000781971 2.20001e-13
0.0005 0.000988002 0.000781971 2.00001e-13
0.0005 0.000990136 0.000781971 1.81819e-13
0.0005 0.000992075 0.000781971 1.6529e-13
0.0005 0.000993838 0.000781971 1.50264e-13
0.0005 0.000995441 0.000781971 1.36603e-13
0.0005 0.000996898 0.000781971 1.24185e-13
0.0005 0.000998222 0.000781971 1.12895e-13
0.0005 0.000999427 0.000781971 1.02632e-13
0.0005 4.59758e-05 0.000871175 8.1758e-12
0.0005 0.000133748 0.000871175 7.43254e-12
0.0005 0.000213541 0.000871175 6.75686e-12
0.0005 0.000286079 0.000871175 6.1426e-12
0.0005 0.000352024 0.000871175 5.58418e-12
0.0005 0.000411973 0.000871175 5.07653e-12
0.0005 0.000466473 0.000871175 4.61502e-12
0.0005 0.000516018 0.000871175 4.19548e-12
0.0005 0.000561059 0.000871175 3.81407e-12
0.0005 0.000602005 0.000871175 3.46734e-12
0.0005 0.000639229 0.000871175 3.15212e-12
0.0005 0.000673069 0.000871175 2.86557e-12
0.0005 0.000703833 0.000871175 2.60506e-12
0.0005 0.000731799 0.000871175 2.36824e-12
0.0005 0.000757224 0.000871175 2.15294e-12
0.0005 0.000780337 0.000871175 1.95722e-12
0.0005 0.000801349 0.000871175 1.77929e-12
0.0005 0.000820451 0.000871175 1.61754e-12
0.0005 0.000837816 0.000871175 1.47049e-12
0.0005 0.000853602 0.000871175 1.33681e-12
0.0005 0.000867954 0.000871175 1.21528e-12
0.0005 0.000881001 0.000871175 1.1048e-12
0.0005 0.000892861 0.000871175 1.00436e-12
0.0005 0.000903644 0.000871175 9.13058e-13
0.0005 0.000913446 0.000871175 8.30053e-13
0.0005 0.000922357 0.000871175 7.54593e-13
0.0005 0.000930458 0.000871175 6.85994e-13
0.0005 0.000937823 0.000871175 6.23631e-13
0.0005 0.000944518 0.000871175 5.66937e-13
0.0005 0.000950604 0.000871175 5.15397e-13
0.0005 0.000956137 0.000871175 4.68543e-13
0.0005 0.000961167 0.000871175 4.25948e-13
0.0005 0.00096574 0.000871175 3.87226e-13
0.0005 0.000969897 0.000871175 3.52023e-13
0.0005 0.000973676 0.000871175 3.20021e-13
0.0005 0.000977112 0.000871175 2.90928e-13
0.0005 0.000980235 0.000871175 2.6448e-13
0.0005 0.000983075 0.000871175 2.40437e-13
0.0005 0.000985656 0.000871175 2.18579e-13
0.0005 0.000988002 0.000871175 1.98708e-13
0.0005 0.000990136 0.000871175 1.80644e-13
0.0005 0.000992075 0.000871175 1.64221e-13
0.0005 0.000993838 0.000871175 1.49292e-13
0.0005 0.000995441 0.000871175 1.3572e-13
0.0005 0.000996898 0.000871175 1.23382e-13
0.0005 0.000998222 0.000871175 1.12165e-13
0.0005 0.000999427 0.000871175 1.01969e-13
0.0005 4.59758e-05 0.000959801 8.12294e-12
0.0005 0.000133748 0.000959801 7.38449e-12
0.0005 0.000213541 0.000959801 6.71318e-12
0.0005 0.000286079 0.000959801 6.10289e-12
0.0005 0.000352024 0.000959801 5.54808e-12
0.0005 0.000411973 0.000959801 5.04371e-12
0.0005 0.000466473 0.000959801 4.58519e-12
0.0005 0.000516018 0.000959801 4.16835e-12
0.0005 0.000561059 0.000959801 3.78941e-12
0.0005 0.000602005 0.000959801 3.44492e-12
0.0005 0.000639229 0.000959801 3.13175e-12
0.0005 0.000673069 0.000959801 2.84704e-12
0.0005 0.000703833 0.000959801 2.58822e-12
0.0005 0.000731799 0.000959801 2.35293e-12
0.0005 0.000757224 0.000959801 2.13902e-12
0.0005 0.000780337 0.000959801 1.94457e-12
0.0005 0.000801349 0.000959801 1.76779e-12
0.0005 0.000820451 0.000959801 1.60708e-12
0.0005 0.000837816 0.000959801 1.46098e-12
0.0005 0.000853602 0.000959801 1.32817e-12
0.0005 0.000867954 0.000959801 1.20742e-12
0.0005 0.000881001 0.000959801 1.09766e-12
0.0005 0.000892861 0.000959801 9.97871e-13
0.0005 0.000903644 0.000959801 9.07155e-13
0.0005 0.000913446 0.000959801 8.24687e-13
0.0005 0.000922357 0.000959801 7.49715e-13
0.0005 0.000930458 0.000959801 6.81559e-13
0.0005 0.000937823 0.000959801 6.19599e-13
0.0005 0.000944518 0.000959801 5.63272e-13
0.0005 0.000950604 0.000959801 5.12066e-13
0.0005 0.000956137 0.000959801 4.65514e-13
0.0005 0.000961167 0.000959801 4.23195e-13
0.0005 0.00096574 0.000959801 3.84722e-13
0.0005 0.000969897 0.000959801 3.49748e-13
0.0005 0.000973676 0.000959801 3.17952e-13
0.0005 0.000977112 0.000959801 2.89048e-13
0.0005 0.000980235 0.000959801 2.62771e-13
0.0005 0.000983075 0.000959801 2.38882e-13
0.0005 0.000985656 0.000959801 2.17166e-13
0.0005 0.000988002 0.000959801 1.97423e-13
0.0005 0.000990136 0.000959801 1.79476e-13
0.0005 0.000992075 0.000959801 1.6316e-13
0.0005 0.000993838 0.000959801 1.48327e-13
0.0005 0.000995441 0.000959801 1.34843e-13
0.0005 0.000996898 0.000959801 1.22584e-13
0.0005 0.000998222 0.000959801 1.1144e-13
0.0005 0.000999427 0.000959801 1.01309e-13
0.0005 4.59758e-05 0.00104786 8.07043e-12
0.0005 0.000133748 0.00104786 7.33676e-12
0.0005 0.000213541 0.00104786 6.66978e-12
0.0005 0.000286079 0.00104786 6.06343e-12
0.0005 0.000352024 0.00104786 5.51221e-12
0.0005 0.000411973 0.00104786 5.0111e-12
0.0005 0.000466473 0.00104786 4.55555e-12
0.0005 0.000516018 0.00104786 4.14141e-12
0.0005 0.000561059 0.00104786 3.76492e-12
0.0005 0.000602005 0.00104786 3.42265e-12
0.0005 0.000639229 0.00104786 3.1115e-12
0.0005 0.000673069 0.00104786 2.82864e-12
0.0005 0.000703833 0.00104786 2.57149e-12
0.0005 0.000731799 0.00104786 2.33772e-12
0.0005 0.000757224 0.00104786 2.1252e-12
0.0005 0.000780337 0.00104786 1.932e-12
0.0005 0.000801349 0.00104786 1.75636e-12
0.0005 0.000820451 0.00104786 1.59669e-12
0.0005 0.000837816 0.00104786 1.45154e-12
0.0005 0.000853602 0.00104786 1.31958e-12
0.0005 0.000867954 0.00104786 1.19962e-12
0.0005 0.000881001 0.00104786 1.09056e-12
0.0005 0.000892861 0.00104786 9.9142e-13
0.0005 0.000903644 0.00104786 9.01291e-13
0.0005 0.000913446 0.00104786 8.19355e-13
0.0005 0.000922357 0.00104786 7.44869e-13
0.0005 0.000930458 0.00104786 6.77153e-13
0.0005 0.000937823 0.00104786 6.15594e-13
0.0005 0.000944518 0.00104786 5.59631e-13
0.0005 0.000950604 0.00104786 5.08755e-13
0.0005 0.000956137 0.00104786 4.62505e-13
0.0005 0.000961167 0.00104786 4.20459e-13
0.0005 0.00096574 0.00104786 3.82235e-13
0.0005 0.000969897 0.00104786 3.47487e-13
0.0005 0.000973676 0.00104786 3.15897e-13
0.0005 0.000977112 0.00104786 2.87179e-13
0.0005 0.000980235 0.00104786 2.61072e-13
0.0005 0.000983075 0.00104786 2.37338e-13
0.0005 0.000985656 0.00104786 2.15762e-13
0.0005 0.000988002 0.00104786 1.96147e-13
0.0005 0.000990136 0.00104786 1.78316e-13
0.0005 0.000992075 0.00104786 1.62105e-13
0.0005 0.000993838 0.00104786 1.47368e-13
0.0005 0.000995441 0.00104786 1.33971e-13
0.0005 0.000996898 0.00104786 1.21792e-13
0.0005 0.000998222 0.00104786 1.1072e-13
0.0005 0.000999427 0.00104786 1.00655e-13
0.0005 4.59758e-05 0.00113534 8.01826e-12
0.0005 0.000133748 0.00113534 7.28933e-12
0.0005 0.000213541 0.00113534 6.62666e-12
0.0005 0.000286079 0.00113534 6.02424e-12
0.0005 0.000352024 0.00113534 5.47658e-12
0.0005 0.000411973 0.00113534 4.97871e-12
0.0005 0.000466473 0.00113534 4.5261e-12
0.0005 0.000516018 0.00113534 4.11463e-12
0.0005 0.000561059 0.00113534 3.74058e-12
0.0005 0.000602005 0.00113534 3.40052e-12
0.0005 0.000639229 0.00113534 3.09139e-12
0.0005 0.000673069 0.00113534 2.81035e-12
0.0005 0.000703833 0.00113534 2.55486e-12
0.0005 0.000731799 0.00113534 2.3226e-12
0.0005 0.000757224 0.00113534 2.11146e-12
0.0005 0.000780337 0.00113534 1.91951e-12
0.0005 0.000801349 0.00113534 1.74501e-12
0.0005 0.000820451 0.00113534 1.58637e-12
0.0005 0.000837816 0.00113534 1.44215e-12
0.0005 0.000853602 0.00113534 1.31105e-12
0.0005 0.000867954 0.00113534 1.19186e-12
0.0005 0.000881001 0.00113534 1.08351e-12
0.0005 0.000892861 0.00113534 9.85011e-13
0.0005 0.000903644 0.00113534 8.95464e-13
0.0005 0.000913446 0.00113534 8.14059e-13
0.0005 0.000922357 0.00113534 7.40053e-13
0.0005 0.000930458 0.00113534 6.72776e-13
0.0005 0.000937823 0.00113534 6.11614e-13
0.0005 0.000944518 0.00113534 5.56013e-13
0.0005 0.000950604 0.00113534 5.05466e-13
0.0005 0.000956137 0.00113534 4.59515e-13
0.0005 0.000961167 0.00113534 4.17741e-13
0.0005 0.00096574 0.00113534 3.79764e-13
0.0005 0.000969897 0.00113534 3.4524e-13
0.0005 0.000973676 0.00113534 3.13855e-13
0.0005 0.000977112 0.00113534 2.85323e-13
0.0005 0.000980235 0.00113534 2.59384e-13
0.0005 0.000983075 0.00113534 2.35804e-13
0.0005 0.000985656 0.00113534 2.14367e-13
0.0005 0.000988002 0.00113534 1.94879e-13
0.0005 0.000990136 0.00113534 1.77163e-13
0.0005 0.000992075 0.00113534 1.61057e-13
0.0005 0.000993838 0.00113534 1.46416e-13
0.0005 0.000995441 0.00113534 1.33105e-13
0.0005 0.000996898 0.00113534 1.21005e-13
0.0005 0.000998222 0.00113534 1.10004e-13
0.0005 0.000999427 0.00113534 1.00004e-13
0.0005 4.59758e-05 0.00122226 7.96642e-12
0.0005 0.000133748 0.00122226 7.2422e-12
0.0005 0.000213541 0.00122226 6.58382e-12
0.0005 0.000286079 0.00122226 5.98529e-12
0.0005 0.000352024 0.00122226 5.44117e-12
0.0005 0.000411973 0.00122226 4.94652e-12
0.0005 0.000466473 0.00122226 4.49684e-12
0.0005 0.000516018 0.00122226 4.08804e-12
0.0005 0.000561059 0.00122226 3.7164e-12
0.0005 0.000602005 0.00122226 3.37854e-12
0.0005 0.000639229 0.00122226 3.0714e-12
0.0005 0.000673069 0.00122226 2.79218e-12
0.0005 0.000703833 0.00122226 2.53835e-12
0.0005 0.000731799 0.00122226 2.30759e-12
0.0005 0.000757224 0.00122226 2.09781e-12
0.0005 0.000780337 0.00122226 1.9071e-12
0.0005 0.000801349 0.00122226 1.73373e-12
0.0005 0.000820451 0.00122226 1.57611e-12
0.0005 0.000837816 0.00122226 1.43283e-12
0.0005 0.000853602 0.00122226 1.30257e-12
0.0005 0.000867954 0.00122226 1.18416e-12
0.0005 0.000881001 0.00122226 1.07651e-12
0.0005 0.000892861 0.00122226 9.78643e-13
0.0005 0.000903644 0.00122226 8.89676e-13
0.0005 0.000913446 0.00122226 8.08796e-13
0.0005 0.000922357 0.00122226 7.35269e-13
0.0005 0.000930458 0.00122226 6.68426e-13
0.0005 0.000937823 0.00122226 6.0766e-13
0.0005 0.000944518 0.00122226 5.52419e-13
0.0005 0.000950604 0.00122226 5.02199e-13
0.0005 0.000956137 0.00122226 4.56544e-13
0.0005 0.000961167 0.00122226 4.1504e-13
0.0005 0.00096574 0.00122226 3.77309e-13
0.0005 0.000969897 0.00122226 3.43008e-13
0.0005 0.000973676 0.00122226 3.11826e-13
0.0005 0.000977112 0.00122226 2.83478e-13
0.0005 0.000980235 0.00122226 2.57707e-13
0.0005 0.000983075 0.00122226 2.34279e-13
0.0005 0.000985656 0.00122226 2.12981e-13
0.0005 0.000988002 0.00122226 1.93619e-13
0.0005 0.000990136 0.00122226 1.76018e-13
0.0005 0.000992075 0.00122226 1.60016e-13
0.0005 0.000993838 0.00122226 1.45469e-13
0.0005 0.000995441 0.00122226 1.32245e-13
0.0005 0.000996898 0.00122226 1.20222e-13
0.0005 0.000998222 0.00122226 1.09293e-13
0.0005 0.000999427 0.00122226 9.93573e-14
0.0005 4.59758e-05 0.00130862 7.91492e-12
0.0005 0.000133748 0.00130862 7.19539e-12
0.0005 0.000213541 0.00130862 6.54126e-12
0.0005 0.000286079 0.00130862 5.9466e-12
0.0005 0.000352024 0.00130862 5.406e-12
0.0005 0.000411973 0.00130862 4.91455e-12
0.0005 0.000466473 0.00130862 4.46777e-12
0.0005 0.000516018 0.00130862 4.06161e-12
0.0005 0.000561059 0.00130862 3.69237e-12
0.0005 0.000602005 0.00130862 3.3567e-12
0.0005 0.000639229 0.00130862 3.05155e-12
0.0005 0.000673069 0.00130862 2.77413e-12
0.0005 0.000703833 0.00130862 2.52194e-12
0.0005 0.000731799 0.00130862 2.29267e-12
0.0005 0.000757224 0.00130862 2.08425e-12
0.0005 0.000780337 0.00130862 1.89477e-12
0.0005 0.000801349 0.00130862 1.72252e-12
0.0005 0.000820451 0.00130862 1.56593e-12
0.0005 0.000837816 0.00130862 1.42357e-12
0.0005 0.000853602 0.00130862 1.29415e-12
0.0005 0.000867954 0.00130862 1.1765e-12
0.0005 0.000881001 0.00130862 1.06955e-12
0.0005 0.000892861 0.00130862 9.72317e-13
0.0005 0.000903644 0.00130862 8.83924e-13
0.0005 0.000913446 0.00130862 8.03567e-13
0.0005 0.000922357 0.00130862 7.30516e-13
0.0005 0.000930458 0.00130862 6.64105e-13
0.0005 0.000937823 0.00130862 6.03732e-13
0.0005 0.000944518 0.00130862 5.48847e-13
0.0005 0.000950604 0.00130862 4.98952e-13
0.0005 0.000956137 0.00130862 4.53593e-13
0.0005 0.000961167 0.00130862 4.12357e-13
0.0005 0.00096574 0.00130862 3.7487e-13
0.0005 0.000969897 0.00130862 3.40791e-13
0.0005 0.000973676 0.00130862 3.0981e-13
0.0005 0.000977112 0.00130862 2.81645e-13
0.0005 0.000980235 0.00130862 2.56041e-13
0.0005 0.000983075 0.00130862 2.32765e-13
0.0005 0.000985656 0.00130862 2.11604e-13
0.0005 0.000988002 0.00130862 1.92368e-13
0.0005 0.000990136 0.00130862 1.7488e-13
0.0005 0.000992075 0.00130862 1.58982e-13
0.0005 0.000993838 0.00130862 1.44529e-13
0.0005 0.000995441 0.00130862 1.3139e-13
0.0005 0.000996898 0.00130862 1.19445e-13
0.0005 0.000998222 0.00130862 1.08587e-13
0.0005 0.000999427 0.00130862 9.8715e-14