/*--------------------------------*- C++ -*----------------------------------*\
  =========                 |
  \\      /  F ield         | OpenFOAM: The Open Source CFD Toolbox
   \\    /   O peration     | Website:  https://openfoam.org
    \\  /    A nd           | Version:  7
     \\/     M anipulation  |
\*---------------------------------------------------------------------------*/
FoamFile
{
    version     2.0;
    format      ascii;
    class       volScalarField;
    location    "20000";
    object      Cx;
}
// * * * * * * * * * * * * * * * * * * * * * * * * * * * * * * * * * * * * * //

dimensions      [0 1 0 0 0 0 0];

internalField   nonuniform List<scalar> 
15600
(
0.0473279108943568
0.141984855971558
0.236617731419041
0.330985025021903
0.424513866315547
0.516279535932282
0.60558789507108
0.692465025939928
0.777354578623925
0.860809004640445
0.943381211859631
1.02561043259854
1.10799897312358
1.19080427810559
1.27401896615697
1.35757341226565
1.4413964565673
1.52541835677489
1.60957220881767
1.69386347403442
1.77843216594831
1.86348387706221
1.94922640773013
2.0358588787185
2.12356082973358
2.21245556504744
2.3025477553019
2.39375061616785
2.48594641742551
2.57899323379697
2.67272662664817
2.76695840790734
2.86148206196939
2.9561207225991
3.05077654438781
3.14543236617652
3.24008818796523
3.33474400975394
3.42939983154266
3.52405565333137
3.61871147512009
3.7133672969088
3.80802311869751
3.90267894048623
3.99733476227495
4.09199058406366
4.18664640585237
4.28130222764109
4.3759580494298
4.47061387121852
4.56526969300723
4.65992551479594
4.75458133658465
4.84923715837337
4.94389298016208
5.0385488019508
5.13320462373951
5.22786044552822
5.32251626731693
5.41717208910565
5.51182791089437
5.60648373268308
5.70113955447179
5.7957953762605
5.89045119804922
5.98510701983793
6.07976284162665
6.17441866341536
6.26907448520407
6.36373030699278
6.4583861287815
6.55304195057021
6.64769777235892
6.74235359414764
6.83700941593635
6.93166523772506
7.02632105951377
7.12097688130249
7.2156327030912
7.31028852487992
7.40494434666863
7.49960016845734
7.59425599024606
7.68891181203477
7.78356763382348
7.8782234556122
7.97287927740091
8.06751768834753
8.16204051496402
8.25627060274033
8.35000118783505
8.44304436531316
8.53523605579291
8.62643419482916
8.71652113346184
8.80541029575546
8.89310692289766
8.97973513151498
9.06547422774219
9.15052310132589
9.23509007081081
9.31938053150198
9.40353381933676
9.48755499900299
9.57137698584187
9.65493008821728
9.73814308711436
9.82094640779436
9.90333343583796
9.98556280439545
10.0681378323452
10.1515978070749
10.2364948835501
10.3233818632685
10.4127019446818
10.5044775640194
10.5980122977647
10.6923819015252
10.7870151703247
10.8816720891056
0.0473207661383768
0.141963427014147
0.236582220798793
0.330936553500874
0.424455838181996
0.516219007266968
0.605534603237529
0.69242859460257
0.777342881906013
0.860827730725767
0.943433853034644
1.02569833543093
1.10812148628476
1.19095974010105
1.27420574949341
1.35779016670207
1.44164211538225
1.52569213113014
1.60987357619592
1.69419188479293
1.77878650709393
1.86386221514572
1.94962597998387
2.03627612726168
2.1239914795473
2.212894850935
2.30299089789769
2.39419318270471
2.48638444478051
2.57942332511637
2.67314604126003
2.76736515615474
2.8618749794002
2.95649939466603
3.05114092694279
3.14578245921954
3.24042399149629
3.33506552377304
3.4297070560498
3.52434858832655
3.6189901206033
3.71363165288006
3.80827318515681
3.90291471743357
3.99755624971033
4.09219778198708
4.18683931426384
4.28148084654059
4.37612237881734
4.47076391109409
4.56540544337085
4.6600469756476
4.75468850792435
4.84933004020111
4.94397157247786
5.03861310475462
5.13325463703137
5.22789616930813
5.32253770158488
5.41717923386163
5.51182076613838
5.60646229841514
5.70110383069189
5.79574536296864
5.89038689524539
5.98502842752215
6.07966995979891
6.17431149207566
6.26895302435241
6.36359455662916
6.45823608890592
6.55287762118267
6.64751915345942
6.74216068573618
6.83680221801293
6.93144375028968
7.02608528256644
7.12072681484319
7.21536834711994
7.3100098793967
7.40465141167345
7.49929294395021
7.59393447622696
7.68857600850371
7.78321754078047
7.87785907305722
7.97250060533398
8.06712477164837
8.16163377070078
8.25585119887375
8.34957111847041
8.44260637443697
8.53479354214266
8.62599112396581
8.71608194026606
8.80497976088406
8.89268981057596
8.97933571251804
9.06509605665411
9.15016893852568
9.23476184529608
9.31907935260229
9.40326023569933
9.48730953375956
9.57116042917654
9.65474350798714
9.73798783494306
9.82082411234325
9.90324575678813
9.98551038650661
10.0681193183936
10.1516096939313
10.2365314752289
10.3234352764332
10.4127625483053
10.5045356275136
10.5980607809161
10.6924174142467
10.7870365994607
10.8816792338616
0.04731335964931
0.141941213052065
0.23654540932166
0.33088630632737
0.424395684308641
0.516156261259128
0.605479359167837
0.69239082867897
0.777330756703356
0.860847142801833
0.94348842260842
1.0257894583996
1.10824848746073
1.19112089712483
1.27439937525187
1.35801486149084
1.44189677340267
1.52597593464641
1.61018598354933
1.69453232620569
1.77915382880043
1.86425441286836
1.95004018974596
2.03670866084596
2.12443790532732
2.21335022915016
2.30345027410007
2.39465196174205
2.48683851834961
2.57986917192749
2.67358082024327
2.76778680476718
2.8622822905333
2.95689193858657
3.05151865788519
3.14614537718381
3.24077209648243
3.33539881578105
3.43002553507968
3.52465225437829
3.61927897367691
3.71390569297553
3.80853241227415
3.90315913157277
3.99778585087139
4.09241257017002
4.18703928946864
4.28166600876726
4.37629272806587
4.47091944736449
4.56554616666311
4.66017288596174
4.75479960526036
4.84942632455898
4.9440530438576
5.03867976315621
5.13330648245483
5.22793320175346
5.32255992105208
5.4171866403507
5.51181335964931
5.60644007894793
5.70106679824656
5.79569351754517
5.8903202368438
5.98494695614242
6.07957367544103
6.17420039473965
6.26882711403828
6.3634538333369
6.45808055263552
6.55270727193413
6.64733399123275
6.74196071053137
6.83658742982999
6.93121414912861
7.02584086842724
7.12046758772585
7.21509430702447
7.30972102632309
7.40434774562171
7.49897446492034
7.59360118421896
7.68822790351758
7.78285462281619
7.87748134211481
7.97210806141343
8.06671746127371
8.16121212621846
8.25541643102941
8.34912529441831
8.44215233868299
8.5343348179293
8.62553182212362
8.71562665813822
8.80453345425703
8.89225741820335
8.97892166162696
9.06470403204444
9.1498018016979
9.23442159591313
9.31876714063194
9.40297662988742
9.48705507640176
9.57093593940377
9.65455009277539
9.73782689542994
9.82069733685271
9.90315486579982
9.9854560483985
10.0681001262222
10.151622016238
10.2365694073679
10.3234906462788
10.4128253720173
10.5045958180429
10.598111040146
10.6924542279022
10.7870588136079
10.8816866403507
0.0473056818391256
0.141918185328253
0.236507249333618
0.33083421845412
0.424333326823456
0.516091216681004
0.60542209134585
0.692351679279358
0.777318187319323
0.860867265998442
0.943544991223741
1.02588391946741
1.10838014106055
1.19128795780251
1.27460009409041
1.35824778751053
1.44216076029607
1.5262701347216
1.61050983530496
1.69488523899125
1.77953460658428
1.86466097794983
1.95046957323171
2.03715703940751
2.12490068499367
2.21382228920195
2.30392647859322
2.39512754719068
2.48730922595182
2.58033135139918
2.67403152643875
2.76822389958757
2.86270452265112
2.95729886252635
3.0519102262046
3.14652158988285
3.2411329535611
3.33574431723935
3.4303556809176
3.52496704459585
3.6195784082741
3.71418977195235
3.80880113563061
3.90341249930886
3.99802386298711
4.09263522666536
4.18724659034362
4.28185795402187
4.37646931770012
4.47108068137837
4.56569204505662
4.66030340873487
4.75491477241312
4.84952613609138
4.94413749976962
5.03874886344787
5.13336022712613
5.22797159080438
5.32258295448263
5.41719431816088
5.51180568183913
5.60641704551738
5.70102840919563
5.79563977287388
5.89025113655214
5.98486250023039
6.07947386390864
6.17408522758688
6.26869659126514
6.36330795494339
6.45791931862164
6.55253068229989
6.64714204597814
6.74175340965639
6.83636477333464
6.9309761370129
7.02558750069115
7.1201988643694
7.21481022804765
7.3094215917259
7.40403295540415
7.4986443190824
7.59325568276066
7.68786704643891
7.78247841011716
7.87708977379541
7.97170113747366
8.06629522994212
8.16077503567949
8.25496573638088
8.34866313853935
8.44168167028116
8.533859289313
8.62505569471465
8.71515469769369
8.80407079810855
8.89180918602647
8.97849244283215
9.06429764641758
9.14942121556542
9.23406888219199
9.31844349141683
9.40268263475909
9.48679129752184
9.57070322591045
9.65434959219649
9.73766006023097
9.82056591720585
9.9030606452105
9.98539971972822
10.0680802309862
10.1516347899463
10.2366087290717
10.3235480444843
10.4128904971461
10.5046582135268
10.5981631405173
10.6924923901483
10.7870818415236
10.8816943181609
0.0472977227685564
0.141894314032393
0.236467691434788
0.330780222450963
0.424268685001765
0.516023789329206
0.605362725635592
0.69231109572298
0.777305157482264
0.860888126365977
0.943603632111219
1.02598184091858
1.10851661751602
1.19146113840223
1.27480816584943
1.35848924629542
1.44243441780671
1.52657511221246
1.61084555070523
1.69525108001305
1.77992933338157
1.86508243670912
1.95091468629957
2.03762184339467
2.1253804176373
2.21431164219484
2.3044201278464
2.39562055471802
2.48779717693964
2.58081046184359
2.67449874330577
2.76867700645458
2.86314222235192
2.95772069326651
3.05231613880362
3.14691158434073
3.24150702987785
3.33610247541496
3.43069792095208
3.52529336648919
3.6198888120263
3.71448425756341
3.80907970310053
3.90367514863764
3.99827059417475
4.09286603971187
4.18746148524898
4.28205693078609
4.37665237632321
4.47124782186032
4.56584326739744
4.66043871293455
4.75503415847166
4.84962960400877
4.94422504954588
5.038820495083
5.13341594062011
5.22801138615722
5.32260683169433
5.41720227723145
5.51179772276856
5.60639316830567
5.70098861384279
5.7955840593799
5.89017950491701
5.98477495045413
6.07937039599124
6.17396584152835
6.26856128706546
6.36315673260258
6.45775217813969
6.5523476236768
6.64694306921391
6.74153851475103
6.83613396028814
6.93072940582525
7.02532485136236
7.11992029689948
7.21451574243659
7.30911118797371
7.40370663351082
7.49830207904793
7.59289752458504
7.68749297012216
7.78208841565927
7.87668386119639
7.9712793067335
8.06585753105636
8.16032193325072
8.2544985314838
8.34818405255193
8.44119375992974
8.5333663406999
8.62456212536947
8.71466544795695
8.80359119350762
8.89134453378645
8.97804750048834
9.06387637368683
9.14902668744026
9.23370324752692
9.31810798597675
9.4023778697229
9.48651785564485
9.57046198743737
9.65414174669261
9.73748711336991
9.82042968327372
9.90296297304724
9.98534132757559
10.0680596069299
10.1516480315929
10.2366494912444
10.3236075453542
10.4129580079993
10.5047228947392
10.5982171494764
10.6925319503879
10.7871057130185
10.8817022772314
0.0472894721342326
0.14186956826191
0.236426684415784
0.330724248417695
0.424201675161632
0.515953891915744
0.605301185185241
0.692269025472503
0.777291650324468
0.860909750909119
0.943664421184116
1.02608334951692
1.1086580935024
1.19164066311465
1.27502385988808
1.35873955042593
1.44271810019789
1.52689126192769
1.61119356435064
1.6956303228708
1.78033852018609
1.86551933474589
1.95137610517076
2.03810367451929
2.12587772429564
2.21481892161982
2.30493186091184
2.39613162254516
2.48830300298783
2.58130712349073
2.67498307567734
2.76914671193512
2.86359595625735
2.95815797688567
3.05273692115414
3.1473158654226
3.24189480969107
3.33647375395954
3.431052698228
3.52563164249647
3.62021058676493
3.71478953103339
3.80936847530186
3.90394741957033
3.99852636383879
4.09310530810726
4.18768425237573
4.28226319664419
4.37684214091265
4.47142108518112
4.56600002944959
4.66057897371805
4.75515791798651
4.84973686225498
4.94431580652344
5.03889475079191
5.13347369506038
5.22805263932884
5.32263158359731
5.41721052786578
5.51178947213424
5.6063684164027
5.70094736067117
5.79552630493963
5.8901052492081
5.98468419347657
6.07926313774503
6.17384208201349
6.26842102628196
6.36299997055042
6.45757891481889
6.55215785908736
6.64673680335582
6.74131574762428
6.83589469189275
6.93047363616121
7.02505258042968
7.11963152469814
7.21421046896661
7.30878941323507
7.40336835750354
7.49794730177201
7.59252624604047
7.68710519030894
7.7816841345774
7.87626307884587
7.97084202311433
8.06540379799582
8.15985223237103
8.25401421152065
8.3476874162577
8.44068797600654
8.53285533394519
8.62405047513926
8.71415827557067
8.80309401958254
8.8908628599679
8.97758625859531
9.06343966849338
9.1486177065858
9.23332421858539
9.31776018998299
9.40206194024518
9.48623439678659
9.57021191168937
9.6539262871975
9.73730783095869
9.82028845869501
9.90286172286898
9.98528079634948
10.0680382273549
10.1516617583193
10.2366917466543
10.3236692259156
10.4130279919733
10.504789945413
10.5982731369402
10.6925729598335
10.7871304589951
10.8817105278658
0.047280919255343
0.141843915982433
0.236384175191097
0.330666223893371
0.424132210555719
0.515881433954992
0.605237390327688
0.692225414066
0.777277648360301
0.8609321676218
0.943727437136607
1.02618857666996
1.10880475216705
1.19182676434325
1.27524745543289
1.3589990239332
1.44301217471071
1.52721899313903
1.61155432676244
1.69602345851355
1.78076269671092
1.86597223764673
1.95185442717521
2.03860315653577
2.12639324875652
2.21534478417451
2.30546234025215
2.39666141227304
2.48882735891124
2.58182197929134
2.67548515054322
2.76963362408367
2.864066311746
2.95861127946683
3.05317311797751
3.1477349564882
3.24229679499888
3.33685863350957
3.43142047202026
3.52598231053094
3.62054414904163
3.71510598755231
3.809667826063
3.90422966457369
3.99879150308437
4.09335334159506
4.18791518010575
4.28247701861643
4.37703885712712
4.47160069563781
4.56616253414849
4.66072437265918
4.75528621116986
4.84984804968055
4.94440988819123
5.03897172670192
5.13353356521261
5.22809540372329
5.32265724223398
5.41721908074466
5.51178091925535
5.60634275776604
5.70090459627672
5.7954664347874
5.89002827329809
5.98459011180878
6.07915195031947
6.17371378883015
6.26827562734084
6.36283746585152
6.45739930436221
6.5519611428729
6.64652298138358
6.74108481989427
6.83564665840495
6.93020849691564
7.02477033542632
7.11933217393701
7.2138940124477
7.30845585095838
7.40301768946906
7.49757952797976
7.59214136649044
7.68670320500113
7.78126504351181
7.87582688202249
7.97038872053318
8.06493344338302
8.15936532499186
8.25351214951776
8.34717258673871
8.44016366375128
8.53232560752697
8.62352008166866
8.7136325239758
8.80257863271729
8.89036354102008
8.97710812005224
9.06298696550027
9.14819374355561
9.23293130469521
9.31739965319607
9.4017344373393
9.48594055399537
9.56995267493092
9.65370293478825
9.73712198090752
9.82014206064787
9.90275676360269
9.9852180476894
10.0680160645843
10.1516759878955
10.2367355500033
10.323733166017
10.4131005396652
10.5048594523485
10.598331175387
10.6926154715736
10.7871561114884
10.8817190807447
0.0472720530598089
0.141817323985897
0.236340108730721
0.330606073762596
0.424060201258826
0.515806321646591
0.605171258477367
0.692180205046442
0.777263133463585
0.860955405523454
0.943792761545657
1.02629765859906
1.10895678336653
1.19201968300506
1.27547924193932
1.35926800271861
1.44331702203936
1.52755873011102
1.61192830496583
1.69643099587536
1.78120241207409
1.86644173171741
1.95235027152484
2.03912093604846
2.12692765839167
2.21588991061329
2.30601225259783
2.39721060973895
2.48937092351237
2.58235569574929
2.67600561786149
2.7701383732294
2.86455389771373
2.95908118783013
3.05362529394975
3.14816940006936
3.24271350618898
3.3372576123086
3.43180171842822
3.52634582454783
3.62088993066745
3.71543403678707
3.80997814290669
3.90452224902631
3.99906635514593
4.09361046126555
4.18815456738516
4.28269867350478
4.3772427796244
4.47178688574402
4.56633099186364
4.66087509798326
4.75541920410287
4.84996331022249
4.94450741634211
5.03905152246173
5.13359562858134
5.22813973470096
5.32268384082058
5.4172279469402
5.51177205305982
5.60631615917943
5.70086026529905
5.79540437141867
5.88994847753829
5.98449258365791
6.07903668977752
6.17358079589714
6.26812490201676
6.36266900813638
6.457213114256
6.55175722037561
6.64630132649523
6.74084543261485
6.83538953873447
6.92993364485408
7.0244777509737
7.11902185709332
7.21356596321294
7.30811006933255
7.40265417545217
7.49719828157179
7.59174238769141
7.68628649381103
7.78083059993064
7.87537470605026
7.96991881216988
8.06444585832323
8.15886058079022
8.25299169553366
8.34663889752517
8.43962014441797
8.53177647568992
8.62297025833833
8.71308751256159
8.8020443657183
8.8898459305497
8.97661246588472
9.06251767866052
9.147754249508
9.23252399720945
9.31702590888285
9.40139493703627
9.48563594687697
9.56968394156715
9.65347140032416
9.73692932262449
9.81999029961307
9.9026479593738
9.98515300036452
10.0679930899272
10.1516907387424
10.2367809579968
10.3237994484317
10.4131757449921
10.5049315055256
10.5983913399503
10.6926595406416
10.7871827037066
10.8817279469402
0.0472628620699511
0.141789757847785
0.236294427988666
0.330543720158351
0.423985554051523
0.515728457753973
0.605102704023368
0.692133339888625
0.777248086844129
0.860979494696572
0.943860478976617
1.02641073651578
1.10911438391242
1.19221966884265
1.27571951946643
1.3595468349886
1.44363303682402
1.52791091265036
1.61231598309453
1.69685346253404
1.7816582355095
1.86692842474182
1.95286428011517
2.03965768334875
2.12748164502058
2.21645500662855
2.30658230983629
2.39777992590432
2.48993440046019
2.58290896378428
2.67654515140005
2.77066161279221
2.86505934536197
2.9595683102926
3.0540940344325
3.1486197585724
3.2431454827123
3.3376712068522
3.4321969309921
3.52672265513201
3.62124837927191
3.71577410341181
3.81029982755172
3.90482555169162
3.99935127583152
4.09387699997143
4.18840272411133
4.28292844825123
4.37745417239113
4.47197989653103
4.56650562067094
4.66103134481084
4.75555706895074
4.85008279309064
4.94460851723054
5.03913424137045
5.13365996551035
5.22818568965025
5.32271141379015
5.41723713793006
5.51176286206996
5.60628858620986
5.70081431034976
5.79534003448967
5.88986575862957
5.98439148276947
6.07891720690937
6.17344293104927
6.26796865518917
6.36249437932907
6.45702010346898
6.55154582760888
6.64607155174878
6.74059727588868
6.83512300002859
6.92964872416849
7.02417444830839
7.1187001724483
7.2132258965882
7.3077516207281
7.402277344868
7.4968030690079
7.59132879314781
7.68585451728771
7.78038024142761
7.87490596556751
7.96943168970741
8.06394041161619
8.15833734635262
8.25245217581773
8.34608565773259
8.43905671439624
8.53120722755757
8.62240029337608
8.71252253578457
8.80149052695071
8.88930935848422
8.97609865444342
9.06203120045853
9.14729865549559
9.23210176884785
9.31663847321241
9.4010429998358
9.48532018110217
9.56940536370931
9.65323138407246
9.73672960670415
9.81983297912878
9.90253516933029
9.98508557016805
10.0679692736421
10.1517060299555
10.2368280294175
10.3238681589657
10.4132537053107
10.5050061982207
10.5984537085158
10.6927052240868
10.7872102700744
10.88173713793
0.0472533343876309
0.141761181882553
0.236247073829214
0.330479082361086
0.423908172299519
0.515647741478521
0.605031638218602
0.692084757923389
0.7772324890234
0.861004466325659
0.943930677092709
1.0265279568046
1.10927775782609
1.19242698074738
1.27596859906534
1.35983588170547
1.44396062816174
1.52827599667511
1.61271786301758
1.69729140539418
1.7821307571038
1.8674329467688
1.95339711835628
2.04021409328286
2.12805592580613
2.21704080376427
2.30717324993344
2.39837009777513
2.49051851920106
2.58348249962636
2.67710444960873
2.77120402012855
2.86558330901476
2.96007327745557
3.05457994623083
3.14908661500609
3.24359328378135
3.33809995255661
3.43260662133187
3.52711329010714
3.6216199588824
3.71612662765766
3.81063329643292
3.90513996520818
3.99964663398345
4.09415330275871
4.18865997153397
4.28316664030923
4.37767330908449
4.47217997785976
4.56668664663502
4.66119331541028
4.75569998418554
4.8502066529608
4.94471332173606
5.03921999051133
5.13372665928659
5.22823332806185
5.32273999683711
5.41724666561238
5.51175333438764
5.6062600031629
5.70076667193816
5.79527334071342
5.88978000948868
5.98428667826395
6.07879334703921
6.17330001581447
6.26780668458973
6.362313353365
6.45682002214026
6.55132669091551
6.64583335969078
6.74034002846604
6.8348466972413
6.92935336601656
7.02386003479182
7.11836670356709
7.21287337234235
7.30738004111761
7.40188670989287
7.49639337866814
7.5909000474434
7.68540671621865
7.77991338499392
7.87442005376918
7.96892672254444
8.06341644893907
8.15779494432923
8.25189289193804
8.34551215116751
8.43847264430049
8.53061712621201
8.62180944893545
8.71193686225511
8.80091639944302
8.88875313020428
8.97556602057348
9.06152690112352
9.14682637172875
9.23166407301431
9.31623684462961
9.40067817013737
9.48499284789629
9.56911658072449
9.65298257532024
9.7365225746045
9.81966989553623
9.90241824746029
9.98501566980878
10.0679445848978
10.1517218813301
10.2368768252016
10.3239393865682
10.4133345215445
10.5050836271267
10.5985183618223
10.6927525810483
10.7872388462779
10.8817466656124
0.0472434576788485
0.14173155909734
0.236197984950313
0.330412076694277
0.423827955828502
0.515564068329093
0.604957969064905
0.692034396259091
0.777216319809318
0.861030352737584
0.944003446768494
1.02664947121256
1.10944711660274
1.19264188709458
1.27622680318187
1.36013551705463
1.44430022013599
1.52865445480508
1.61313446498894
1.69774539139514
1.78262058856032
1.86795595092782
1.95394947603422
2.04079088615123
2.12865124418305
2.21764806036299
2.30778583788901
2.39898188935596
2.49112403590295
2.58407704574306
2.67768423652352
2.77176629740829
2.86612646696586
2.96059674302103
3.05508365837873
3.14957057373642
3.24405748909412
3.33854440445182
3.43303131980952
3.52751823516721
3.62200515052491
3.71649206588261
3.81097898124031
3.905465896598
3.9999528119557
4.0944397273134
4.1889266426711
4.28341355802879
4.37790047338649
4.47238738874419
4.56687430410188
4.66136121945958
4.75584813481728
4.85033505017498
4.94482196553267
5.03930888089037
5.13379579624806
5.22828271160576
5.32276962696346
5.41725654232116
5.51174345767885
5.60623037303655
5.70071728839425
5.79520420375195
5.88969111910964
5.98417803446734
6.07866494982504
6.17315186518273
6.26763878054043
6.36212569589813
6.45661261125583
6.55109952661352
6.64558644197122
6.74007335732892
6.83456027268661
6.92904718804431
7.02353410340201
7.1180210187597
7.2125079341174
7.30699484947509
7.40148176483279
7.49596868019049
7.59045559554819
7.68494251090588
7.77942942626358
7.87391634162128
7.96840325697897
8.0628732919994
8.15723267255708
8.25131311987714
8.34491763540029
8.43786717802569
8.53000540773992
8.62119696014056
8.71132973379068
8.80032123995898
8.88817652564457
8.97501387475342
9.06100412781435
9.14633678681199
9.23121034308927
9.31582050320581
9.40029997565049
9.48465352351001
9.56881721876865
9.65272465197232
9.73630795831251
9.81950083771598
9.90229704240314
9.98494320879741
10.0679189917334
10.1517383133865
10.2369274085176
10.3240132234469
10.413418298314
10.5051638924791
10.5985853835666
10.692801672832
10.7872684693099
10.8817565423212
0.0472332191577758
0.141700851144209
0.236147097804266
0.330342616416108
0.423744800794524
0.515477329986658
0.604881601193954
0.691982189700191
0.777199558270109
0.861057187443445
0.94407888220753
1.02677543704552
1.10962267948533
1.19286466609091
1.27649446607402
1.36044612892902
1.44465225236571
1.52904677697346
1.61356632832111
1.69821600824499
1.78312836399091
1.86849811427444
1.95452206820399
2.04138880864113
2.12926837082023
2.21827756254757
2.30842086672686
2.39961609263909
2.49175173443444
2.58469337180055
2.67828526270384
2.77234917252371
2.86668952235675
2.96113938463788
3.05560582295343
3.15007226126898
3.24453869958454
3.33900513790009
3.43347157621564
3.52793801453119
3.62240445284674
3.7168708911623
3.81133732947785
3.9058037677934
4.00027020610895
4.09473664442451
4.18920308274006
4.28366952105561
4.37813595937116
4.47260239768671
4.56706883600226
4.66153527431782
4.75600171263337
4.85046815094892
4.94493458926447
5.03940102758002
5.13386746589557
5.22833390421113
5.32280034252668
5.41726678084223
5.51173321915778
5.60619965747333
5.70066609578888
5.79513253410444
5.88959897241999
5.98406541073554
6.07853184905109
6.17299828736664
6.26746472568219
6.36193116399775
6.4563976023133
6.55086404062885
6.6453304789444
6.73979691725995
6.8342633555755
6.92872979389105
7.02319623220661
7.11766267052216
7.21212910883771
7.30659554715326
7.40106198546881
7.49552842378437
7.58999486209992
7.68446130041547
7.77892773873102
7.87339417704657
7.96786061536212
8.06231023765699
8.156649803151
8.25071210909485
8.34430134080406
8.43723953176857
8.5293712802437
8.62056203409591
8.71070036443429
8.79970427803535
8.88757879836163
8.97444150220249
9.06046220377427
9.14582926695265
9.23073999169616
9.31538890996585
9.39990792678319
9.4843017686708
9.56850689030278
9.65245728013418
9.73608547999696
9.81932558681475
9.90217139725338
9.98486809333011
10.0678924610177
10.1517553473967
10.236979844848
10.3240897651868
10.4135051440725
10.5052470981851
10.5986548605111
10.6928525629893
10.787299177519
10.8817667808422
0.0472226055702049
0.141669018270335
0.236094346515438
0.330270611607161
0.42365859954948
0.515387414164226
0.604802435743813
0.691928070662836
0.777182182707203
0.861085005181945
0.944157081064308
1.02690601737201
1.10980467374824
1.1930956061346
1.27677193424462
1.36076811943128
1.44501718057439
1.52945347106127
1.61401401208317
1.69870386518132
1.78365474073687
1.86906013866682
1.95511563611522
2.04200863479317
2.12990810461846
2.21893012523885
2.30907915852157
2.40027352862967
2.49240242737934
2.58533227565999
2.67890830620415
2.77295340003176
2.86727320408694
2.96170190477914
3.05614711591955
3.15059232705996
3.24503753820037
3.33948274934078
3.43392796048119
3.52837317162159
3.62281838276201
3.71726359390242
3.81170880504283
3.90615401618324
4.00059922732365
4.09504443846406
4.18948964960447
4.28393486074488
4.37838007188529
4.4728252830257
4.56727049416611
4.66171570530652
4.75616091644693
4.85060612758734
4.94505133872775
5.03949654986816
5.13394176100857
5.22838697214898
5.32283218328939
5.4172773944298
5.51172260557021
5.60616781671062
5.70061302785103
5.79505823899144
5.88950345013185
5.98394866127226
6.07839387241267
6.17283908355308
6.26728429469349
6.3617295058339
6.45617471697431
6.55061992811472
6.64506513925512
6.73951035039554
6.83395556153595
6.92840077267635
7.02284598381677
7.11729119495718
7.21173640609759
7.306181617238
7.40062682837841
7.49507203951882
7.58951725065923
7.68396246179964
7.77840767294005
7.87285288408045
7.96729809522086
8.0617265570137
8.15604558156143
8.25008908155663
8.34366246955837
8.43658889301297
8.5287139228163
8.61990384885997
8.71004793943704
8.79906471498458
8.88695917456751
8.97384816195539
9.05990042745494
9.14530315514025
9.23025240994103
9.31494150619025
9.39950151600831
9.48393712801427
9.56818519359116
9.65218011367974
9.73585485164886
9.81914391596196
9.90204114935768
9.9847902261666
10.0678649584054
10.1517730054119
10.2370342020739
10.3241691108755
10.4135951712459
10.5053333519585
10.598726882597
10.6929053173996
10.7873310106582
10.8817773944298
0.0472116031763901
0.141636019266727
0.23603966279505
0.330195969054004
0.42356924050186
0.515294204461358
0.604720370230898
0.691871969087398
0.777164170627161
0.861113841964355
0.94423814457067
1.02704138123413
1.10999333499165
1.19333500618874
1.27705956688996
1.36110190539424
1.44539547718007
1.52987506355468
1.61447809582468
1.69920959375996
1.78420040021993
1.86964275167429
1.95573094817173
2.04265116700341
2.13057127374464
2.21960659321058
2.30976156546271
2.4009550484086
2.49307695708872
2.5859945844104
2.67955417358115
2.77357976213088
2.86787826775747
2.96228503165133
3.0567082380041
3.15113144435689
3.24555465070967
3.33997785706244
3.43440106341523
3.52882426976801
3.62324747612079
3.71767068247357
3.81209388882634
3.90651709517913
4.00094030153191
4.09536350788469
4.18978671423747
4.28420992059025
4.37863312694303
4.47305633329581
4.56747953964859
4.66190274600137
4.75632595235416
4.85074915870694
4.94517236505971
5.03959557141249
5.13401877776528
5.22844198411805
5.32286519047083
5.41728839682362
5.5117116031764
5.60613480952918
5.70055801588196
5.79498122223474
5.88940442858752
5.98382763494029
6.07825084129307
6.17267404764585
6.26709725399864
6.36152046035142
6.4559436667042
6.55036687305698
6.64479007940976
6.73921328576254
6.83363649211532
6.9280596984681
7.02248290482088
7.11690611117366
7.21132931752644
7.30575252387922
7.400175730232
7.49459893658478
7.58902214293756
7.68344534929034
7.77786855564312
7.8722917619959
7.96671496834868
8.06112149446988
8.1554192255976
8.24944323072644
8.34300019461643
8.43591441947798
8.5280324844785
8.61922155238112
8.70937161420345
8.79840172286081
8.88631685212814
8.973233085903
9.05931807160815
9.14475777029606
9.2297469666243
9.31447771269197
9.39908021720641
9.48355912949462
9.56785171218124
9.65189279380333
9.73561577470867
9.81895558997618
9.90190613010426
9.98470950650434
10.067836448293
10.1517913102914
10.2370905505636
10.3242513632295
10.4136884963789
10.5054227654587
10.59880154306
10.6929600043559
10.7873640099368
10.8817883968236
0.0472001977332616
0.141601811414773
0.235982975852613
0.330118592128573
0.423476607972218
0.515197580213486
0.604635298417424
0.691813812347752
0.777145498712536
0.86114373512115
0.944322177666862
1.0271817038665
1.11018890744638
1.19358317616831
1.27735773636474
1.3614479189206
1.44578763190686
1.53031210022668
1.61495918032578
1.69973384867253
1.78476604882435
1.8702467075193
1.95636880092632
2.04331723706209
2.13125873670387
2.22030784218305
2.31046897095797
2.4016615342343
2.49377619677128
2.58668115543932
2.68022370093794
2.77422906967353
2.86850549664912
2.96288952013714
3.05728991560366
3.15169031107018
3.2460907065367
3.34049110200323
3.43489149746975
3.52929189293628
3.6236922884028
3.71809268386932
3.81249307933585
3.90689347480237
4.00129387026889