/*--------------------------------*- C++ -*----------------------------------*\
  =========                 |
  \\      /  F ield         | OpenFOAM: The Open Source CFD Toolbox
   \\    /   O peration     | Website:  https://openfoam.org
    \\  /    A nd           | Version:  7
     \\/     M anipulation  |
\*---------------------------------------------------------------------------*/
FoamFile
{
    version     2.0;
    format      ascii;
    class       volScalarField;
    location    "20000";
    object      Cy;
}
// * * * * * * * * * * * * * * * * * * * * * * * * * * * * * * * * * * * * * //

dimensions      [0 1 0 0 0 0 0];

internalField   nonuniform List<scalar> 
15600
(
1.00195551652101
1.00179412474911
0.999549105227584
0.992415181931285
0.97826201975789
0.955435656837957
0.924261969003174
0.886759576761121
0.844938471061733
0.800326193652692
0.754104035529104
0.707289914098137
0.660769450151954
0.614994899582643
0.569962473434071
0.525556296536336
0.48165460540992
0.43812946256613
0.394855837668961
0.351850166662829
0.30939672881599
0.267929142452462
0.22791643644154
0.189875658852726
0.154387809334284
0.122020398977996
0.0931552727581357
0.0680189654529763
0.0468148018439566
0.0297318042270312
0.0169378869966599
0.00857344872993203
0.00471272620968296
0.00391103304202603
0.00391103304202594
0.00391103304202591
0.00391103304202595
0.00391103304202601
0.00391103304202599
0.00391103304202609
0.00391103304202611
0.00391103304202609
0.00391103304202612
0.00391103304202611
0.00391103304202599
0.00391103304202603
0.00391103304202591
0.00391103304202595
0.003911033042026
0.00391103304202586
0.00391103304202598
0.00391103304202606
0.003911033042026
0.00391103304202599
0.00391103304202617
0.00391103304202617
0.00391103304202593
0.00391103304202595
0.00391103304202594
0.00391103304202595
0.00391103304202592
0.00391103304202598
0.00391103304202595
0.00391103304202594
0.00391103304202605
0.00391103304202618
0.00391103304202602
0.00391103304202602
0.00391103304202611
0.00391103304202601
0.00391103304202588
0.003911033042026
0.00391103304202593
0.00391103304202601
0.00391103304202595
0.003911033042026
0.00391103304202605
0.00391103304202611
0.00391103304202609
0.00391103304202596
0.00391103304202606
0.00391103304202607
0.00391103304202588
0.00391103304202595
0.003911033042026
0.00391103304202596
0.00391103304202604
0.00472144295040222
0.00860116498039606
0.0169859386081647
0.0297995967463653
0.0469016269640563
0.0681240478072268
0.093277719267592
0.122159253589393
0.154541793877245
0.190042529264271
0.228093569561173
0.268114056007203
0.309587054358449
0.352043930755322
0.395051271567252
0.438325851129788
0.48185241641289
0.525756106033112
0.570164868359428
0.615200402079081
0.660978562784895
0.707501792407437
0.754315314886032
0.800532572715741
0.845135220734698
0.886940421511117
0.924418963229542
0.955558766219486
0.978344903335267
0.992461668805222
0.99956902009806
1.00179879835475
1.00195551652101
1.00593828065304
1.00577753292918
1.00354147224793
0.996436017130337
0.982339334884527
0.959604069125559
0.928554798717727
0.891202083584919
0.849547886945826
0.805113650341744
0.759075949233765
0.712448638821255
0.666113808305141
0.620521915317901
0.575669187241446
0.531440210940998
0.487713708509694
0.44436225277099
0.401261312111769
0.358427255624453
0.316143227259639
0.274841115283736
0.234988077244046
0.19709909839905
0.161752860320934
0.129514610005339
0.100764669010311
0.0757286678914951
0.0546091197996914
0.0375942925015899
0.0248514301283827
0.016520370860075
0.0126750551303672
0.0118765613060781
0.0118765613060782
0.0118765613060781
0.0118765613060781
0.0118765613060782
0.0118765613060783
0.0118765613060781
0.0118765613060781
0.0118765613060782
0.0118765613060781
0.0118765613060781
0.0118765613060782
0.0118765613060782
0.0118765613060781
0.011876561306078
0.0118765613060781
0.011876561306078
0.0118765613060781
0.0118765613060782
0.0118765613060782
0.0118765613060782
0.0118765613060782
0.0118765613060782
0.0118765613060781
0.011876561306078
0.0118765613060782
0.011876561306078
0.0118765613060779
0.0118765613060781
0.011876561306078
0.0118765613060781
0.0118765613060783
0.0118765613060781
0.0118765613060782
0.0118765613060784
0.0118765613060783
0.011876561306078
0.0118765613060781
0.0118765613060781
0.0118765613060781
0.0118765613060781
0.011876561306078
0.0118765613060781
0.0118765613060783
0.0118765613060781
0.0118765613060782
0.0118765613060781
0.0118765613060782
0.0118765613060783
0.0118765613060782
0.0118765613060781
0.0118765613060781
0.0118765613060781
0.0118765613060781
0.0126837370849851
0.0165479765058342
0.024899289986438
0.0376618144928846
0.0546955984421006
0.0758333309146441
0.100886626900369
0.129652910525621
0.161906230402135
0.197265302930058
0.235164503526341
0.275025290955631
0.316332793318563
0.358620246504845
0.401455966130301
0.444557857647605
0.487910730152857
0.531639223109753
0.575870774526403
0.620726597784016
0.666322086509122
0.712659671658126
0.75928638547411
0.805319205800338
0.849743851405193
0.891382206576624
0.928711166358661
0.959726687177109
0.982421887698387
0.996482318495666
1.00356130764765
1.00578218788441
1.00593828065304
1.01006694496041
1.00990686487812
1.00768009123206
1.00060414719235
0.986566013957954
0.963925182579745
0.933004887373703
0.89580733240216
0.854326159120953
0.810076485434789
0.764229998543367
0.717796342626657
0.67165394590136
0.626251401830827
0.581584954730767
0.537539670431667
0.493994774390515
0.45082336843957
0.407901437960124
0.365245282744105
0.323136869832113
0.282006294052423
0.242318773074638
0.204587153776965
0.169387714735989
0.137283355914123
0.10865281965489
0.0837207991721352
0.062688966257824
0.0457448065125373
0.033054869253706
0.0247584117384098
0.0209290671963978
0.0201338899208166
0.0201338899208166
0.0201338899208166
0.0201338899208167
0.0201338899208168
0.0201338899208168
0.0201338899208167
0.0201338899208166
0.0201338899208166
0.0201338899208166
0.0201338899208166
0.0201338899208165
0.0201338899208166
0.0201338899208167
0.0201338899208167
0.0201338899208166
0.0201338899208166
0.0201338899208166
0.0201338899208167
0.0201338899208168
0.0201338899208167
0.0201338899208166
0.0201338899208166
0.0201338899208166
0.0201338899208166
0.0201338899208166
0.0201338899208166
0.0201338899208166
0.0201338899208166
0.0201338899208167
0.0201338899208166
0.0201338899208166
0.0201338899208166
0.0201338899208166
0.0201338899208168
0.0201338899208167
0.0201338899208166
0.0201338899208166
0.0201338899208166
0.0201338899208166
0.0201338899208166
0.0201338899208166
0.0201338899208166
0.0201338899208166
0.0201338899208166
0.0201338899208166
0.0201338899208166
0.0201338899208167
0.0201338899208168
0.0201338899208168
0.0201338899208167
0.0201338899208166
0.0201338899208166
0.0201338899208166
0.0209377130905648
0.0247859027277219
0.0331025303339262
0.0458120480657686
0.0627750857302781
0.0838250275031273
0.108774271026281
0.137421082045598
0.169540447846165
0.204752668034471
0.242494466626159
0.282189704810726
0.3233256485854
0.36543747208735
0.408095283529571
0.45101816092033
0.49419097775724
0.53773785606383
0.581785704788954
0.626455234226296
0.671861359108518
0.718006499018672
0.764439560781098
0.810281187117889
0.854521309602376
0.895986707195817
0.93316060547568
0.96404729130231
0.986648223891142
1.00065025625315
1.00769984424972
1.00991150049972
1.01006694496041
1.01434685418343
1.01418746620055
1.0119703198078
1.00492496795162
0.990947528613469
0.968404591092726
0.937617995827965
0.900581284925606
0.859279473279371
0.815221123545041
0.769572855607206
0.723339948363393
0.677397034911501
0.632190776219348
0.587717434153794
0.543862571061259
0.500505934205762
0.457521173810079
0.414784811190927
0.372313074301617
0.330386710156517
0.289433954443237
0.24991801388627
0.212349518645807
0.177302256272318
0.145336693719907
0.116829936275906
0.0920057054803052
0.071064800949337
0.0541938974685049
0.0415588240918668
0.0332982358760569
0.0294854475945154
0.0286937083668617
0.0286937083668618
0.0286937083668617
0.0286937083668617
0.0286937083668617
0.0286937083668618
0.0286937083668618
0.0286937083668617
0.0286937083668617
0.0286937083668617
0.0286937083668617
0.0286937083668617
0.0286937083668616
0.0286937083668617
0.0286937083668617
0.0286937083668618
0.0286937083668617
0.0286937083668618
0.0286937083668617
0.0286937083668617
0.0286937083668617
0.0286937083668618
0.0286937083668617
0.0286937083668617
0.0286937083668617
0.0286937083668617
0.0286937083668617
0.0286937083668617
0.0286937083668617
0.0286937083668617
0.0286937083668617
0.0286937083668617
0.0286937083668617
0.0286937083668618
0.0286937083668617
0.0286937083668618
0.0286937083668618
0.0286937083668617
0.0286937083668617
0.0286937083668617
0.0286937083668617
0.0286937083668617
0.0286937083668617
0.0286937083668617
0.0286937083668618
0.0286937083668617
0.0286937083668617
0.0286937083668617
0.0286937083668617
0.0286937083668617
0.0286937083668617
0.0286937083668618
0.0286937083668618
0.0286937083668617
0.0294940561071961
0.0333256080087555
0.041606279112551
0.0542608483106306
0.0711505480946384
0.0921094831953813
0.116950862573676
0.145473824421341
0.177454329077633
0.212514317343278
0.25009294786504
0.289616572266984
0.330574672762868
0.372504432745023
0.414977818695388
0.457715124134492
0.500701289320099
0.544059899878272
0.587917316314986
0.632393727403378
0.677603551434158
0.723549196203503
0.769781511824964
0.815424940176537
0.859473779964667
0.900759884112822
0.937773040596695
0.968526171827892
0.991029383104918
1.004970877663
1.01198998742545
1.01419208178025
1.01434685418343
1.01878354885512
1.01862487832544
1.01641771186786
1.00940407290704
0.995489550928129
0.97304809347747
0.942400095974518
0.905530121262802
0.864414241712766
0.820554224637284
0.775111436994131
0.729086632484123
0.683350510036512
0.63834772729144
0.594074564306729
0.550417098138628
0.507255616977248
0.464464339527852
0.421920342677541
0.379639779909975
0.337902133517415
0.297133711937105
0.257795637277313
0.220396241772524
0.185506730691639
0.153685048856094
0.125306604537185
0.100594112011722
0.0797474667747243
0.0629525030984732
0.0503743033920132
0.0421508984548155
0.038355272939555
0.0375670977102484
0.0375670977102484
0.0375670977102485
0.0375670977102485
0.0375670977102484
0.0375670977102483
0.0375670977102483
0.0375670977102484
0.0375670977102484
0.0375670977102485
0.0375670977102485
0.0375670977102484
0.0375670977102484
0.0375670977102484
0.0375670977102484
0.0375670977102484
0.0375670977102485
0.0375670977102484
0.0375670977102484
0.0375670977102484
0.0375670977102484
0.0375670977102484
0.0375670977102484
0.0375670977102484
0.0375670977102484
0.0375670977102484
0.0375670977102482
0.0375670977102482
0.0375670977102484
0.0375670977102484
0.0375670977102484
0.0375670977102484
0.0375670977102484
0.0375670977102484
0.0375670977102484
0.0375670977102485
0.0375670977102483
0.0375670977102484
0.0375670977102484
0.0375670977102484
0.0375670977102483
0.0375670977102484
0.0375670977102484
0.0375670977102485
0.0375670977102482
0.0375670977102484
0.0375670977102484
0.0375670977102483
0.0375670977102484
0.0375670977102484
0.0375670977102485
0.0375670977102485
0.0375670977102484
0.0375670977102484
0.0383638427013183
0.0421781473768721
0.0504215448047187
0.0630191525801371
0.0798328279537051
0.100697422603809
0.125426986526686
0.15382156231548
0.185658119003491
0.220560298697117
0.257969783858061
0.297315507778848
0.338089250078991
0.379830277015212
0.422112481416192
0.464657416845203
0.507450092765151
0.550613538752714
0.594273546777147
0.638549764982441
0.683556097026158
0.72929493848907
0.775319154001567
0.820757123795166
0.864607673691605
0.905707916431233
0.942554442743985
0.973169126883307
0.99557103695661
1.00944977596602
1.01643729095699
1.01862947312906
1.01878354885512
1.02338277247361
1.02322484567974
1.02102802475949
1.01404726046313
1.00019796076352
0.977861700974545
0.947357378475451
0.910660247916491
0.869737111613204
0.826082692649432
0.780852912646283
0.735043834335373
0.689522078331928
0.644730225518687
0.600664574807358
0.557211736824843
0.514252560507089
0.47166185386996
0.429317269725406
0.387234884360044
0.345692869010626
0.305115534258943
0.265961841226855
0.228737740040346
0.194011759088168
0.162339228670162
0.134093797885971
0.109497136856605
0.0887482038405286
0.0720319618110428
0.0595127191843956
0.0513278596384529
0.047550025613484
0.0467655449472286
0.0467655449472286
0.0467655449472287
0.0467655449472287
0.0467655449472287
0.0467655449472286
0.0467655449472287
0.0467655449472286
0.0467655449472286
0.0467655449472288
0.0467655449472287
0.0467655449472287
0.0467655449472286
0.0467655449472286
0.0467655449472286
0.0467655449472286
0.0467655449472288
0.0467655449472288
0.0467655449472288
0.0467655449472286
0.0467655449472287
0.0467655449472287
0.0467655449472287
0.0467655449472286
0.0467655449472286
0.0467655449472286
0.0467655449472286
0.0467655449472286
0.0467655449472286
0.0467655449472286
0.0467655449472286
0.0467655449472287
0.0467655449472287
0.0467655449472287
0.0467655449472286
0.0467655449472287
0.0467655449472288
0.0467655449472286
0.0467655449472286
0.0467655449472286
0.0467655449472285
0.0467655449472286
0.0467655449472287
0.0467655449472285
0.0467655449472287
0.0467655449472286
0.0467655449472285
0.0467655449472286
0.0467655449472286
0.0467655449472286
0.0467655449472287
0.0467655449472287
0.0467655449472287
0.0467655449472286
0.0475585552047294
0.0513549808363409
0.0595597391641673
0.0720982988927897
0.0888331649143987
0.109599963213955
0.134213615627953
0.162475102276474
0.194162437831883
0.228901028018983
0.266135171564997
0.305296478007148
0.345879108534329
0.387424488573741
0.429508507872762
0.471854026199375
0.514446124756153
0.557407256698418
0.600862624628509
0.644931316252477
0.689726701736682
0.735251164002632
0.781059656037239
0.826284640724074
0.869929636842833
0.910837209612923
0.947511001676086
0.977982167000616
1.00027906483075
1.01409274929918
1.02104751207697
1.02322941894617
1.02338277247361
1.02815047893728
1.02799332312463
1.02580722673756
1.01886054143625
1.00507885337745
0.982851645033982
0.952496260775031
0.915978306078116
0.87525497367818
0.831813684429925
0.78680471516084
0.741219265788035
0.695919729185019
0.651346533354387
0.607495996748749
0.564255283117741
0.521505822689225
0.479123034381042
0.436985168030256
0.395108219899165
0.353769002138059
0.313389754281456
0.274427197296564
0.237384811933992
0.202828351638191
0.171310436414278
0.143202891758515
0.118726305392503
0.0980786640100728
0.0814440273723965
0.0689859015536116
0.06084099940825
0.0570816086297091
0.0563009578745565
0.0563009578745565
0.0563009578745564
0.0563009578745565
0.0563009578745563
0.0563009578745564
0.0563009578745564
0.0563009578745566
0.0563009578745565
0.0563009578745564
0.0563009578745564
0.0563009578745565
0.0563009578745565
0.0563009578745564
0.0563009578745564
0.0563009578745564
0.0563009578745565
0.0563009578745565
0.0563009578745565
0.0563009578745565
0.0563009578745566
0.0563009578745564
0.0563009578745564
0.0563009578745563
0.0563009578745565
0.0563009578745564
0.0563009578745564
0.0563009578745564
0.0563009578745565
0.0563009578745565
0.0563009578745564
0.0563009578745563
0.0563009578745566
0.0563009578745566
0.0563009578745567
0.0563009578745565
0.0563009578745564
0.0563009578745565
0.0563009578745565
0.0563009578745563
0.0563009578745565
0.0563009578745564
0.0563009578745565
0.0563009578745562
0.0563009578745564
0.0563009578745565
0.0563009578745564
0.0563009578745564
0.0563009578745564
0.0563009578745564
0.0563009578745566
0.0563009578745565
0.0563009578745563
0.0563009578745566
0.0570900965788286
0.0608679882031023
0.0690326919888532
0.0815100406103834
0.0981632103221189
0.118828629776536
0.143322124583325
0.171445646728214
0.202978294820557
0.237547302798185
0.274599681490858
0.31356981472152
0.353954332495444
0.395296898512041
0.437175472594964
0.479314268570092
0.521698442007019
0.564449848521239
0.607693079754767
0.651546642440882
0.696123353705574
0.741425583351102
0.787010449268692
0.832014646580515
0.875446558942037
0.916154403770471
0.952649133900656
0.982971522895214
1.00515956149066
1.01890580820149
1.02582661892145
1.02799787406491
1.02815047893728
1.03309284025225
1.03293648366435
1.03076150469067
1.02385014683584
1.01013854731457
0.988024385382187
0.957823395407433
0.921491180225138
0.880974971030884
0.837754619002504
0.792974549411775
0.747620921220677
0.702551744657396
0.658205215929767
0.614577673743168
0.571556855238774
0.529024793235392
0.486857539935415
0.444933964074387
0.403269978959547
0.362140987864013
0.32196708340162
0.283202664316166
0.246348651518898
0.211967921853285
0.180610285748438
0.152645678306087
0.128293565204342
0.107750925987229
0.0912008841219457
0.0788061139530293
0.0707026329420059
0.0669623610418989
0.066185680504505
0.0661856805045049
0.0661856805045049
0.0661856805045048
0.0661856805045048
0.0661856805045048
0.0661856805045049
0.0661856805045049
0.0661856805045049
0.0661856805045048
0.0661856805045048
0.0661856805045049
0.0661856805045048
0.0661856805045049
0.0661856805045047
0.0661856805045049
0.0661856805045048
0.0661856805045049
0.0661856805045047
0.0661856805045049
0.0661856805045048
0.0661856805045049
0.0661856805045048
0.0661856805045048
0.0661856805045049
0.0661856805045049
0.0661856805045049
0.0661856805045048
0.0661856805045049
0.066185680504505
0.0661856805045048
0.0661856805045047
0.0661856805045048
0.066185680504505
0.0661856805045048
0.0661856805045048
0.0661856805045048
0.066185680504505
0.0661856805045047
0.0661856805045048
0.0661856805045049
0.0661856805045049
0.0661856805045049
0.0661856805045047
0.0661856805045048
0.0661856805045049
0.0661856805045049
0.0661856805045048
0.0661856805045047
0.0661856805045049
0.0661856805045048
0.0661856805045049
0.0661856805045049
0.0661856805045048
0.0669708058233725
0.0707294844835577
0.0788526664350036
0.0912665616531294
0.107835042343841
0.128395369226692
0.152764304786912
0.180744808472071
0.212117102528907
0.246510316068284
0.283374271370012
0.322146228175463
0.36232537574966
0.403457698064094
0.445123300856519
0.487047801617194
0.529216433006206
0.57175043120702
0.614773754516579
0.658404307408053
0.702754333701284
0.747826189602802
0.793179237263381
0.837954559111814
0.88116558189568
0.921666382262878
0.957975490980782
0.988143653532177
1.01021884496834
1.02389518339488
1.03078079825588
1.03294101146059
1.03309284025225
1.03821625452228
1.03806072643732
1.03589727215028
1.02902253593063
1.01538359258595
0.993386618384402
0.963345678608764
0.927206007033291
0.886904508467242
0.843913187170396
0.79937040252408
0.754257087868588
0.709426710206511
0.665315152141921
0.621918773370618
0.579125905437051
0.536819205830619
0.494875383240982
0.453173947977072
0.411730727352968
0.370819664149709
0.330858625407197
0.292299602570251
0.255640862932554
0.221442301355687
0.190250815774908
0.162434381660422
0.138211301551056
0.117777510952731
0.101315162745367
0.0889860690802113
0.0809255265564101
0.0772050739172673
0.0764325090445702
0.0764325090445703
0.0764325090445703
0.0764325090445701
0.0764325090445702
0.0764325090445702
0.0764325090445703
0.0764325090445702
0.0764325090445703
0.0764325090445701
0.0764325090445703
0.0764325090445702
0.0764325090445703
0.0764325090445702
0.0764325090445702
0.0764325090445701
0.0764325090445703
0.0764325090445701
0.0764325090445702
0.0764325090445703
0.0764325090445702
0.0764325090445702
0.0764325090445702
0.0764325090445702
0.0764325090445702
0.0764325090445703
0.0764325090445701
0.0764325090445701
0.0764325090445702
0.0764325090445703
0.0764325090445701
0.0764325090445703
0.0764325090445703
0.0764325090445701
0.0764325090445702
0.0764325090445702
0.0764325090445701
0.0764325090445703
0.0764325090445703
0.0764325090445702
0.0764325090445702
0.0764325090445704
0.0764325090445702
0.0764325090445704
0.0764325090445702
0.0764325090445702
0.0764325090445703
0.0764325090445702
0.0764325090445703
0.0764325090445701
0.0764325090445702
0.0764325090445701
0.0764325090445702
0.0764325090445703
0.0772134739496861
0.0809522358167211
0.0890323748921558
0.101380492272149
0.11786118160374
0.138312566149763
0.162552379585551
0.190384625720239
0.221590691592116
0.255801670897087
0.292470300351562
0.331036820971374
0.371003075038135
0.411917451799537
0.453362281523853
0.495064636789627
0.537009830170661
0.579318455723974
0.622113815196482
0.665513188733721
0.709628225840745
0.754461268634759
0.799574005791762
0.844112067798256
0.887094109238277
0.927380280606414
0.963496968146087
0.99350525448737
1.01546346474349
1.02906733385004
1.03591646348404
1.03806523024167
1.03821625452228
1.04352735423128
1.04337268499998
1.04122117759321
1.03438440461048
1.02082077914841
0.998945285713472
0.969070259244589
0.933130184615331
0.893051262041698
0.850297361472309
0.806000554213366
0.761136356551923
0.716553525799911
0.672685546147993
0.629528799046725
0.586972232225797
0.544899150734002
0.503186943801301
0.461715786815696
0.42050141794883
0.379816265983666
0.340075890851246
0.301729788504826
0.265273475406657
0.231263755194957
0.200244506623401
0.172581673758388
0.148492353398787
0.128171398773296
0.111799956625435
0.0995389453338934
0.0915229142334191
0.0878230068949895
0.0870547084625487
0.0870547084625487
0.0870547084625486
0.0870547084625485
0.0870547084625488
0.0870547084625487
0.0870547084625487
0.0870547084625489
0.0870547084625487
0.0870547084625487
0.0870547084625485
0.0870547084625488
0.0870547084625488
0.0870547084625487
0.0870547084625488
0.0870547084625486
0.0870547084625487
0.0870547084625487
0.0870547084625486
0.0870547084625487
0.0870547084625486
0.0870547084625488
0.0870547084625487
0.0870547084625487
0.0870547084625487
0.0870547084625487
0.0870547084625486
0.0870547084625486
0.0870547084625486
0.0870547084625487
0.0870547084625487
0.0870547084625488
0.0870547084625487
0.0870547084625487
0.0870547084625487
0.0870547084625486
0.0870547084625488
0.0870547084625486
0.0870547084625486
0.0870547084625487
0.0870547084625486
0.0870547084625487
0.0870547084625488
0.0870547084625486
0.0870547084625488
0.0870547084625487
0.0870547084625487
0.0870547084625486
0.0870547084625486
0.0870547084625487
0.0870547084625487
0.0870547084625488
0.0870547084625486
0.0870547084625487
0.0878313605390104
0.0915494760003647
0.0995849954397377
0.111864925399744
0.128254607391583
0.14859305881363
0.172699020102462
0.200377577679758
0.231411326036515
0.265433395407444
0.301899543704433
0.340253102433521
0.379998664084616
0.420687111300137
0.461903080375613
0.503375152285838
0.545088722444952
0.587163719257527
0.629722763865108
0.672882489209377
0.716753928701891
0.761339409859101
0.806203033165486
0.850495143806918
0.893239815716718
0.933303495711998
0.969220713218696
0.999063266615401
1.020900210222
1.03442895514786
1.04124026295038
1.04337716393355
1.04352735423128
1.04903301482922
1.04887923591419
1.0467401130483
1.03994269405435
1.02645714569434
1.00470758333619
0.975004548064508
0.939271382098208
0.899423189004146
0.856915406503151
0.812873587504244
0.768267632796824
0.723941417436653
0.680325939280393
0.637417602325421
0.595105993067035
0.55327508784115
0.511802981352393
0.470570538434913
0.429593404853286
0.389142439926046
0.349630811953178
0.311505429972576
0.275258958839647
0.241444997725687
0.210604295607211
0.183100690746349
0.159150030041426
0.13894604480451
0.122668838791831
0.110478403873817
0.10250851475203
0.0988299053511918
0.0980660296584267
0.0980660296584265
0.0980660296584265
0.0980660296584267
0.0980660296584266
0.0980660296584266
0.0980660296584267
0.0980660296584266
0.0980660296584265
0.0980660296584269
0.0980660296584269
0.0980660296584265
0.0980660296584266
0.0980660296584266
0.0980660296584267
0.0980660296584265
0.0980660296584265
0.0980660296584266
0.0980660296584268
0.0980660296584268
0.0980660296584266
0.0980660296584265
0.0980660296584266
0.0980660296584267
0.0980660296584266
0.0980660296584265
0.0980660296584265
0.0980660296584268
0.0980660296584268
0.0980660296584266
0.0980660296584267
0.0980660296584266
0.0980660296584266
0.0980660296584266
0.0980660296584266
0.0980660296584266
0.0980660296584266
0.0980660296584267
0.0980660296584265
0.0980660296584267
0.0980660296584267
0.0980660296584268
0.0980660296584266
0.0980660296584266
0.0980660296584266
0.0980660296584265
0.0980660296584265
0.0980660296584265
0.0980660296584265
0.0980660296584267
0.0980660296584266
0.0980660296584265
0.0980660296584268
0.0980660296584265
0.0988382109074128
0.102534923622553
0.110524188906486
0.122733433598623
0.139028774464876
0.159250155788339
0.183217361640563
0.210736600707441
0.241591719156007
0.275417958348309
0.311674208061109
0.349807003507521
0.389323788138155
0.429778029337235
0.470756753910126
0.511990106488984
0.553463568361978
0.595296377893237
0.637610450682131
0.680521748751787
0.724140666843212
0.768469517342392
0.813074900953549
0.857112050310991
0.899610657225418
0.939443695460596
0.975154135866592
1.00482488503483
1.02653611952522
1.03998698814702
1.04675908854656
1.04888368906588
1.04903301482922
1.05474036363266
1.05458750764909
1.05246122301834
1.04570459971592
1.03229998876362
1.01068097082885
0.981156227295737
0.945637549551088
0.906028538100879
0.863775889612815
0.819998399841321
0.775660148364007
0.731599949090718
0.688246222398545
0.645595395652284
0.603537717521011
0.56195786022505
0.520734649791884
0.47974966576165
0.439018458107784
0.398810259185817
0.359535758045726
0.321639182036637
0.285610239939648
0.251999209066912
0.221343593971158
0.194005049985479
0.170198128330008
0.150115397309263
0.133935879491855
0.121818606305502
0.113896549447625
0.110240018192733
0.109480727265316
0.109480727265316
0.109480727265316
0.109480727265316
0.109480727265316
0.109480727265316
0.109480727265316
0.109480727265316
0.109480727265316
0.109480727265316
0.109480727265316
0.109480727265316
0.109480727265316
0.109480727265316
0.109480727265316
0.109480727265316
0.109480727265316
0.109480727265316
0.109480727265316
0.109480727265316
0.109480727265316
0.109480727265316
0.109480727265316
0.109480727265316
0.109480727265316
0.109480727265316
0.109480727265316
0.109480727265316
0.109480727265316
0.109480727265316
0.109480727265316
0.109480727265316
0.109480727265316
0.109480727265316
0.109480727265316
0.109480727265316
0.109480727265316
0.109480727265316
0.109480727265316
0.109480727265316
0.109480727265316
0.109480727265316
0.109480727265316
0.109480727265316
0.109480727265316
0.109480727265316
0.109480727265316
0.109480727265316
0.109480727265316
0.109480727265316
0.109480727265316
0.109480727265316
0.109480727265316
0.109480727265316
0.110248273899493
0.113922799820745
0.121864116554791
0.134000086632009
0.15019763046652
0.170297653174572
0.194121020686677
0.221475105056603
0.252145049970068
0.285768285236227
0.321806947219819
0.359710892205631
0.398990519048605
0.439201974568574
0.479934763658682
0.520920651894206
0.562145209582134
0.603726959764472
0.645787086647782
0.68844085675284
0.731798002745413
0.775860821332243
0.820198505091795
0.863971353186453
0.906214881105586
0.945808828629904
0.981304917195638
1.01079756844271
1.03237848860105
1.04574862796918
1.05248008463314
1.05459193407442
1.05474036363266
1.06065678905124
1.06050488980913
1.05839191372886
1.05167758063838
1.03835687218929
1.01687318103405
0.987533260588135
0.952236928277067
0.912875860252892
0.87088769199688
0.82738421460724
0.783323473199552
0.739539035092069
0.696456648693058
0.654072765585096
0.612278320877243
0.570958708173093
0.529993511618312
0.489265051644564
0.448788778926088
0.40883223925023
0.369803551587766
0.332144163353288
0.29634071895882
0.262940052164439
0.232476304253092
0.205308867680005
0.181650950533261
0.161693915514246
0.145615664404798
0.133574233012847
0.125701760621885
0.122068116302804
0.121313578102475
0.121313578102475
0.121313578102475
0.121313578102475
0.121313578102475
0.121313578102475
0.121313578102476
0.121313578102476
0.121313578102475
0.121313578102475
0.121313578102475
0.121313578102475
0.121313578102475
0.121313578102476
0.121313578102476
0.121313578102475
0.121313578102475
0.121313578102475
0.121313578102475
0.121313578102475
0.121313578102475
0.121313578102475
0.121313578102476
0.121313578102475
0.121313578102475
0.121313578102475
0.121313578102475
0.121313578102475
0.121313578102475
0.121313578102475
0.121313578102475
0.121313578102476
0.121313578102476
0.121313578102475
0.121313578102475
0.121313578102475
0.121313578102475
0.121313578102476
0.121313578102475
0.121313578102475
0.121313578102475
0.121313578102475
0.121313578102476
0.121313578102476
0.121313578102475
0.121313578102475
0.121313578102475
0.121313578102475
0.121313578102475
0.121313578102475
0.121313578102475
0.121313578102475
0.121313578102475
0.121313578102475
0.122076320333904
0.125727846691446
0.133619458412856
0.145679469677386
0.161775633980508
0.181749852463218
0.205424112538664
0.23260699223726
0.26308498028468
0.296497775088114
0.332310878525614
0.369977589617903
0.409011370894287
0.448971146773525
0.48944899102316
0.530178349546232
0.571144884928434
0.61246637868161
0.654263256821553
0.696650064881853
0.739735849190413
0.783522890206255
0.827583067398791
0.871081932101066
0.913061036821556
0.952407135184051
0.987681019693445
1.01698904877007
1.03843488066886
1.05172133331334
1.05841065728819
1.06050928852902
1.06065678905124
1.06678995015216
1.06663904270009
1.06453986271567
1.05786936911032
1.04463563688925
1.02329223007123
0.99414390332358
0.959078061481889
0.919974019625343
0.878260020193609
0.835040593062643
0.791267527823625
0.747768952961107
0.704967846959011
0.662860686498678
0.621339118284995
0.580289283738217
0.539591552899503
0.499129014237045
0.458917015489472
0.419221354086857
0.380447484763751
0.343033973154826
0.307464287040708
0.274281690478246
0.244016838281378
0.21702677715124
0.193523322852434
0.173696588327902
0.157723313523546
0.145760502162301
0.13793943062709
0.134329511662237
0.133579900304302
0.133579900304302
0.133579900304302
0.133579900304302
0.133579900304302