/*--------------------------------*- C++ -*----------------------------------*\
  =========                 |
  \\      /  F ield         | OpenFOAM: The Open Source CFD Toolbox
   \\    /   O peration     | Website:  https://openfoam.org
    \\  /    A nd           | Version:  7
     \\/     M anipulation  |
\*---------------------------------------------------------------------------*/
FoamFile
{
    version     2.0;
    format      ascii;
    class       volScalarField;
    location    "20000";
    object      Dk;
}
// * * * * * * * * * * * * * * * * * * * * * * * * * * * * * * * * * * * * * //

dimensions      [0 2 -3 0 0 0 0];

internalField   nonuniform List<scalar> 
15600
(
0.000444494806480413
0.000471071484021856
0.000379216439078839
0.000257864767455633
0.000140154805642799
6.12001085210352e-05
2.75087039186055e-05
2.08341783856722e-05
1.71424984561823e-05
1.2111103910657e-05
8.40495582805424e-06
6.35380711889179e-06
5.28445429471424e-06
4.71301142314153e-06
4.4231751529764e-06
4.31126176553706e-06
4.38413067083695e-06
4.66465834311235e-06
5.1814523606323e-06
5.93039477921001e-06
6.9194152157647e-06
8.18785055891565e-06
9.75344177804711e-06
1.16127774158276e-05
1.37593425162514e-05
1.62476171001411e-05
1.9179759367878e-05
2.25206292981189e-05
2.62081484074369e-05
3.01827346123939e-05
3.4464511220967e-05
3.92821142851168e-05
4.55908737196809e-05
5.64551805095372e-05
6.9401435838394e-05
8.16285446499136e-05
9.32455591474778e-05
0.000104386366704028
0.000115137054744362
0.000125552647687385
0.00013567433170833
0.000145536027490844
0.000155209651330881
0.000164700546318397
0.00017383503883297
0.000182458332888907
0.000190524145566951
0.000198001892698311
0.000204864315662146
0.000211088899778346
0.00021665884142901
0.000221564195936816
0.000225802453634576
0.000229378030310499
0.000232302316065911
0.000234592119979121
0.000236269375160049
0.000237360011351695
0.000237892928310786
0.000237899250217713
0.000237412194435752
0.000236465928358279
0.000235095889995841
0.000233335686605367
0.000231216423938184
0.000228759725121217
0.000225980566430717
0.00022290219586633
0.000219552495536847
0.000215965426210896
0.00021217399099894
0.00020820177876277
0.000204058598093388
0.000199746323506188
0.000195276506745803
0.000190650342829964
0.000185868100609125
0.00018093256890124
0.000175831620328295
0.000170504867229132
0.000164945097655434
0.000159053944763229
0.000152761287405715
0.00014585358353632
0.000138172399584433
0.000129261537421765
0.000119026349133116
0.000111843932988581
0.000120367457554333
0.000132449801039277
0.000147635165029775
0.000164390051053087
0.000183510626503045
0.000205324884166044
0.000230688319460216
0.000261863046530734
0.000296480037821522
0.000331493182362006
0.000365626855669953
0.00039705751295746
0.000423775713910402
0.000440957221004654
0.00045141280398195
0.000463753137009134
0.000480453769677442
0.000503534723480988
0.000538016856585949
0.000592018443662938
0.000679015232522408
0.000773770104020516
0.000874446559709087
0.000978903402209535
0.00107520305304554
0.00111365473425688
0.000991883247200987
0.000810369310782458
0.000636334121720209
0.000505292885133899
0.000416273133582058
0.000416687677096071
0.00242711724190958
0.00256766043497918
0.00208003232903253
0.00141803608300348
0.000772631393412083
0.000338639393263048
0.000152023010525328
0.000114240283708796
9.41101082536959e-05
6.67310388363603e-05
4.63454347587317e-05
3.49816859158377e-05
2.90378692922108e-05
2.58576081790719e-05
2.42358944902748e-05
2.35950860345984e-05
2.39633723403625e-05
2.54643635286432e-05
2.82574502391655e-05
3.2325274826206e-05
3.77107410797077e-05
4.46298816660423e-05
5.31869368712893e-05
6.33702728357521e-05
7.51469308003452e-05
8.88109054079868e-05
0.000104921103386315
0.000123299006869347
0.000143605266088856
0.000165515956695409
0.000189138539685157
0.0002158001787037
0.000251004084680536
0.000310703858842411
0.000381397590763569
0.00044824479122082
0.000511759036316451
0.000572649552210643
0.000631381794387689
0.000688249511633283
0.00074347237047997
0.00079723113126324
0.00084991748920949
0.000901561512037947
0.000950904105324125
0.000997326101846677
0.00104066282411365
0.00108075904887313
0.00111747871379984
0.00115071212356695
0.00118038088022291
0.00120644351584196
0.00122889792983412
0.0012477785554317
0.00126315591112468
0.00127512849692976
0.00128382090928155
0.00128937778660044
0.00129195837069892
0.00129173270832738
0.00128888076284644
0.0012835867679241
0.00127604035944956
0.00126642101217082
0.00125489355211055
0.00124157233515498
0.00122653754218305
0.00120991244829171
0.00119184440572958
0.00117251240466572
0.00115209039305595
0.00113070164657649
0.00110839661353173
0.00108518473472687
0.00106112542358286
0.00103622468071632
0.00101047896529937
0.000983904708581794
0.000956432841244854
0.000927742346238029
0.000897786996885478
0.000866052505801023
0.000832140617941531
0.000794943825262674
0.000753555345290676
0.000705581051297996
0.000650375924046388
0.00061208650138521
0.000657965617707616
0.000723401634758336
0.000805346626609172
0.000896119467489318
0.00099971665198962
0.0011179958540058
0.00125560304939442
0.00142400968657117
0.00161079102109333
0.00180009763042677
0.00198504141872675
0.00215601774272987
0.00230214713241009
0.00239875749516922
0.00246012894094075
0.00253064804380594
0.00262436247541267
0.00275268033710261
0.0029425099029337
0.0032375721502715
0.00370652866928305
0.00422155538835878
0.00476935969683093
0.00533765258381537
0.00586208194403196
0.00608532011288634
0.00545750863878542
0.00447866945916438
0.00351762085992055
0.00278657216071661
0.00229059835340849
0.00228227553368531
0.0059124331133156
0.00621235567844656
0.00512808495325633
0.00352945420658093
0.00192286895563722
0.000840296025103643
0.000372397852667955
0.000276218732510078
0.000227575233555389
0.000162016476352548
0.000112719608280899
8.50352212805307e-05
7.04948616194593e-05
6.26946720638733e-05
5.86861098600324e-05
5.70695011420387e-05
5.78924898038586e-05
6.14531229151241e-05
6.81400359854458e-05
7.7926761270359e-05
9.09238009578157e-05
0.000107653127277252
0.00012837797836039
0.000153085170006851
0.00018172555010973
0.000215027106604362
0.000254285273661552
0.000299080162242042
0.000348605437801237
0.000402143811531154
0.000460102432701503
0.000526524044380618
0.000616198830133644
0.000760947624262728
0.000927843933024855
0.00108510601414579
0.00123389488896957
0.00137580877219255
0.00151200417438551
0.00164318315636526
0.00176988153601277
0.00189252761545334
0.00201211592358976
0.00212737264698237
0.00223547259609428
0.00233645757197039
0.00243006415895037
0.00251607091180897
0.00259429884250022
0.00266462380624548
0.00272698481774618
0.00278139285503178
0.00282793272373226
0.00286675648350494
0.00289807963739475
0.00292216560439073
0.00293932103703363
0.00294988369116984
0.00295421208028277
0.00295267902354804
0.00294566965464083
0.00293357214320425
0.00291677820793962
0.00289565561551871
0.00287053562070016
0.0028416450598905
0.00280914429771516
0.00277327868215562
0.00273433971577057
0.00269268289358464
0.002648655498545
0.00260249622589621
0.00255429544854319
0.00250406235053993
0.00245190515702556
0.002397825055484
0.00234177665701296
0.00228379682533977
0.00222371055658842
0.00216081655848181
0.00209498012887846
0.00202512689178066
0.00195028879996873
0.00186820273577292
0.00177656495615016
0.00167033221559103
0.00154572575343981
0.00145950773776398
0.00155619237371387
0.00170092685710376
0.0018823714890247
0.00208599216171183
0.00231904583523254
0.0025859634062991
0.00289674821655239
0.00327362127003771
0.00369344099293236
0.00412471119307245
0.00455185465441384
0.00495494863765308
0.00531076126943736
0.00557041545775162
0.00575620159640021
0.00595404314920776
0.00619986944436087
0.00652213990288507
0.00697948937085621
0.00766643288277844
0.00872430181874627
0.00991566256281184
0.0111929803760539
0.0125236754750859
0.0137692046514489
0.0144302361957001
0.0133188291978986
0.0112163777319369
0.00894089349590199
0.00707943580763474
0.00577215408104684
0.00564513048838297
0.0105731771449975
0.0108610077904704
0.0092206787675121
0.00655197266610474
0.00360452921807536
0.00155390689332034
0.000663123578487679
0.000479200421294674
0.000393660739412859
0.000281463737132275
0.000196384280342709
0.000148217958780377
0.000122805412033593
0.00010911294369859
0.000102012864301662
9.91020763900393e-05
0.0001004345129157
0.000106529309951563
0.000118048040110671
0.000134968165526569
0.000157499079882969
0.000186509637710297
0.000222413982231731
0.000265160937564686
0.00031470464374506
0.00037223810868544
0.000439576895808889
0.000515840858686919
0.000599674924683724
0.0006902049591231
0.000789010079172595
0.000904793256231876
0.00106095412336687
0.0012877621272091
0.0015343362106966
0.00176321675786173
0.00197586360785646
0.00217530343424156
0.00236382721804569
0.00254283168319758
0.00271342155782092
0.00287641859744204
0.00303276757509433
0.00317754752517297
0.00331213443836214
0.00343657368167902
0.00355087037381254
0.0036550514386306
0.00374916737888895
0.00383330498922732
0.00390759688018123
0.00397222995943172
0.00402744617670641
0.00407353743988994
0.00411084011077438
0.00413972260897301
0.00416058109360818
0.00417382854494523
0.00417988609841635
0.00417917882800301
0.00417213397762737
0.00415917454695174
0.00414071768737794
0.00411715210849652
0.00408882033485613
0.00405595296580744
0.00401871204797525
0.00397734660269846
0.00393214918066488
0.00388348404737266
0.00383171433009598
0.00377707503062063
0.00371964202630711
0.0036594026731718
0.00359644904125805
0.00353075396275134
0.00346217158555336
0.00339075295137276
0.00331623213134473
0.00323790731097133
0.00315516845969345
0.00306690680911489
0.00297171225861215
0.00286700921228999
0.00274935762177861
0.00261268278697143
0.00244675837212379
0.00232964629871431
0.002437793198409
0.0026239508966777
0.00286305372015166
0.0031390940973945
0.00345880697279762
0.00382836963938666
0.00426021877998521
0.00477723667466486
0.00535841089181404
0.00597066298232111
0.00659379997811809
0.00720483428846982
0.0077762721649363
0.00825752676233939
0.00866254851943585
0.00907677300390168
0.0095520154920853
0.0101320962972869
0.0108926266158764
0.0119520657684308
0.0134688237995614
0.015209231036723
0.0170797673092036
0.0190159797705768
0.0208233949591289
0.0219699517231998
0.0211623497878103
0.018895472762393
0.0159865525837742
0.0131689087821629
0.0109032565831511
0.0104199845160884
0.0157656867101828
0.0155790013078399
0.0136239715566174
0.0103676163661098
0.00603563906331066
0.00260178698449612
0.0010379668396981
0.000711525125591155
0.000578748504972563
0.000415778786126036
0.000291407442467878
0.000220313158084371
0.000182603010591725
0.000162130199642834
0.000151412648581335
0.000146958103929976
0.000148806256296885
0.000157709929405129
0.000174566061384639
0.000199322001813873
0.000232229428814842
0.000274309777625961
0.000325827210327463
0.000386372961400444
0.000455627401736717
0.00053467961791274
0.000624818173925653
0.000724391159274348
0.000831840524963124
0.00094718479071485
0.00107449699861652
0.00122601482998647
0.00142264916702177
0.00166631695252884
0.00191325364514194
0.00214154534759993
0.00234963003300422
0.00254238902093852
0.00272257128406643
0.00289202183361768
0.00305214956608956
0.00320407114085333
0.00334446840141618
0.00347454405558376
0.00359497199355625
0.00370594591120714
0.00380763524949627
0.00390019978434197
0.0039837992127396
0.00405860459363157
0.0041248090255316
0.00418263514946516
0.00423233651538695
0.00427419642892438
0.00430852281819417
0.00433564248926217
0.0043558973599043
0.00436963709348685
0.00437721333858874
0.00437897728053184
0.00437527725681938
0.00436645543736021
0.00435284389726441
0.00433475335044706
0.00431245674001526
0.00428614706762454
0.00425596767134986
0.0042221214311227
0.00418483446600153
0.00414438815972995
0.00410107021628769
0.00405505853620399
0.00400641635320845
0.0039551390368208
0.00390129810747688
0.0038448770096959
0.0037858947801294
0.00372414744205684
0.00365936518169965
0.00359110526459606
0.00351877843249245
0.00344159717769625
0.00335828000548998
0.00326705993995778
0.00316480708120674
0.00304716355063383
0.0029031407784521
0.00279841932240543
0.00286420808956461
0.00302100564719218
0.00323688356543079
0.00349848614349576
0.00380857164468289
0.00417234293374844
0.00460014075134998
0.00510605766215075
0.00567880992894214
0.0062965219833508
0.00694183256332257
0.00759755748730556
0.00824261419695514
0.00884905604908961
0.00942472490428548
0.010020309624864
0.0106819700699862
0.0114552159311049
0.0124028469118887
0.0136228006109777
0.0151976513423384
0.0170011731990912
0.0189224536614802
0.0208716859631633
0.0226493353878239
0.0238732408662106
0.0238553070429694
0.0228618743464122
0.0211751559995401
0.0189904203632624
0.016758891696612
0.0160208618792702
0.0195959359040967
0.0186819761190115
0.0167316079179572
0.0139396483233046
0.0091366300565738
0.00418478465995259
0.00156422183827574
0.000968351401823161
0.000770082573626357
0.000555880863301656
0.000392207687291042
0.000297502054855885
0.000246908623102789
0.000219074358456577
0.000204344514623806
0.000198108251231586
0.000200328297831099
0.000211909207144342
0.000233785370501365
0.000265685803738866
0.00030759362055772
0.000360076225077625
0.000422581317967764
0.000493839117886066
0.000572940156615087
0.000660310960929601
0.000756202681313811
0.000859224490947765
0.000969127386054778
0.00108822105425539
0.00122307029464349
0.00138551373333749
0.00158533117393732
0.00179511516575168
0.00200213634916532
0.00219856590286554
0.00237697723072066
0.00254305371893376
0.00269841607572119
0.00284468464069414
0.00298295905149385
0.00311220188132877
0.003231755062204
0.00334282199749321
0.00344575060235464
0.00354069507974281
0.00362780215035598
0.00370720953480944
0.00377905669917771
0.00384349192385629
0.00390068112365834
0.0039508129971516
0.00399409991400365
0.00403077791288056
0.00406110164652192
0.00408534156601115
0.00410378000021463
0.00411670554604237
0.00412440853011314
0.00412717884488512
0.00412530301949512
0.00411906195049023
0.00410872634137805
0.00409455203149351
0.00407676719921739
0.00405554617880858
0.00403102703403564
0.00400338730768683
0.00397281298345834
0.00393953163580654
0.00390378127447175
0.00386570895061015
0.00382538415452058
0.00378282558847544
0.00373827433479218
0.00369156143767877
0.00364267051123818
0.00359150922225017
0.00353788785672403
0.0034815464705762
0.00342205691315239
0.00335896916898131
0.00329136543874026
0.00321831891179908
0.0031376551387775
0.00304687358914472
0.00294006991401843
0.00286129700340958
0.00288509944656656
0.00299564759707689
0.00316455801040106
0.0033806282690137
0.00364309390931679
0.00395493908273689
0.00432330454505718
0.00475457862665901
0.00524317713879249
0.00577615677527679
0.00634006370957761
0.00692314889376788
0.00751061095426742
0.00809247776069459
0.0086779611717009
0.00929243638326713
0.00996887623050516
0.0107467969892459
0.0116673476075152
0.0128011932636016
0.0141460639374457
0.015663769434657
0.0172659547241828
0.0188606315338292
0.0202919262551968
0.0213025840368897
0.0216653149539902
0.0218623575209957
0.021930131284445
0.0214698649109245
0.0206134154408174
0.0201419208149561
0.0208902110556491
0.019570825854436
0.0178136268627784
0.0160709480780486
0.0122431635905968
0.00636546205620889
0.00237839558032457
0.00125789669258966
0.000953441869916845
0.000689449345197249
0.000490561290716268
0.00037387852985304
0.000310766246788907
0.000275566613760845
0.000256595203394808
0.00024829472372284
0.000250398206204944
0.0002637330970175
0.000288900890335983
0.000325113097514959
0.00037167307362145
0.00042813362600685
0.000492938718997144
0.000564326394351227
0.00064146206084213
0.000724645414950504
0.000813953676535412
0.000909584231261296
0.00101305490390786
0.00112834982964761
0.00126246390197748
0.00142380323081944
0.00161143207233078
0.00178591572501684
0.00196134812250949
0.00213168137139095
0.00228680295288439
0.00243245472683728
0.00256910062444871
0.00269812067052909
0.00281986767623671
0.00293297264237756
0.00303819210944337
0.00313613039398634
0.00322699165505241
0.00331088650152066
0.0033879278111941
0.00345822479113861
0.00352189223674707
0.0035790545006347
0.00362985253400275
0.00367444756246627
0.00371302161082874
0.00374577776581011
0.00377293543389837
0.00379472855008058
0.00381140179045686
0.00382320579351828
0.00383039316787835
0.00383321632133984
0.00383192441421548
0.00382676134725148
0.00381796157104336
0.00380574858040839
0.00379032567436198
0.00377185760334588
0.00375047929618836
0.00372635409955557
0.00369964496029342
0.00367054839402762
0.00363927367483231
0.00360595148433105
0.00357065657871873
0.003533597065019
0.00349476233892377
0.00345408628208195
0.0034115647733049
0.00336716146873798
0.00332075382712342
0.00327219195283483
0.00322118087708825
0.00316747833964067
0.00311046043304796
0.00304969863768226
0.00298380012895452
0.00291132718591978
0.00283095003985507
0.00277228027623797
0.0027729561163586
0.00284912669117527
0.00297993359492414
0.00315581887620357
0.00337416959808662
0.00363617456778217
0.00394653688749821
0.00430723040025098
0.00471475255511003
0.00516085732165228
0.00563485923926009
0.00612804552004421
0.00662916367371215
0.00713614006887897
0.00765953581238628
0.0082126454738521
0.00881730699675549
0.00950575466946522
0.010303005196469
0.0112628307059239
0.0123407546721242
0.0135338494068758
0.014787014826079
0.0160168261276499
0.0171226194837924
0.0179032197742538
0.0183132513572781
0.0188768618158222
0.0198350024140544
0.0205671329782105
0.0212438622138101
0.0213463888513138
0.0201379034497794
0.0188429967951714
0.0174004566528616
0.0165088197613856
0.0146010611613422
0.00893505514513797
0.00360856557456422
0.00161833717026154
0.00112158351024065
0.00080411800987392
0.000576476248557751
0.000441553227689469
0.000367342692157289
0.000325423133341854
0.000302274105951819
0.000291680049236609
0.000292919742260531
0.000306458043251399
0.000332253782750177
0.000368935074044024
0.00041512875018038
0.000469550088580556
0.000530344074921699
0.000596165817138158
0.000666857907625909
0.000742890518699138
0.000824576330998358
0.00091345824842639
0.00101190025250714
0.001124235455149
0.00125635465256335
0.00141276378431054
0.00158586642149641
0.00173679435315076
0.00189324366678555
0.00204604120900167
0.0021857687026361
0.00231772984243932
0.00244174241557784
0.00255908566258958
0.00266915735174981
0.00277164149376335
0.00286721151543404
0.0029562440935674
0.00303887528711827
0.00311519210029157
0.00318528731376392
0.00324925373807828
0.00330719160198379
0.0033592109194239
0.00340543732389225
0.0034460150988188
0.00348110753564838
0.0035108973177373
0.0035355821823448
0.00355537343116169
0.00357049249907796
0.00358116657426609
0.00358762488938684
0.00359009652134852
0.00358880740558492
0.00358397833695048
0.00357582141152961
0.00356454012048447
0.00355032313633541
0.00353332958856043
0.0035136916142196
0.0034915636332483
0.0034670938760043
0.00344045924793837
0.00341185087824817
0.00338138919182012
0.00334927379616191
0.00331556643231549
0.00328026863871061
0.00324336014192611
0.00320484933277893
0.0031647317300059
0.0031229321609751
0.00307936690169113
0.00303383535513687
0.00298621668270138
0.00293609372460416
0.00288331482351764
0.00282703074947869
0.0027663791762391
0.00270298801322713
0.00265807567030904
0.00264792147196162
0.00270123749616326
0.00280456920904702
0.00294997283481284
0.00313410699950262
0.00335699476017224
0.00362167592387591
0.00392776894493966
0.00427238407177503
0.00464967750857577
0.00505087834799771
0.00546900819740761
0.00589495510308221
0.00632959562637227
0.0067837235168084
0.0072652965212866
0.00778860315845086
0.00837961452097643
0.00905340886957174
0.00985335126221266
0.0107229795028795
0.0116668956345989
0.0126563823238672
0.0136164018754432
0.0144912153747339
0.0150994445691993
0.0154732016524829
0.0159876792662132
0.0171314690924151
0.0181823289777052
0.0197209031908499
0.020270454748313
0.0183499316847975
0.0172879419264004
0.0162376300418077
0.0157273000849199
0.0158333408517525
0.011494750154733
0.00530329535681646
0.00212012389640925
0.00128691646803265
0.000896194155509712
0.000643487475501215
0.000494204910073108
0.0004107860055137
0.000363333789773771
0.000336530152250954
0.000323773841779908
0.000323688309464569
0.000336208495431107
0.000360634543736927
0.000395281409817072
0.000438459375886607
0.00048856252788165
0.000544034452167777
0.000604199824077695
0.000669403907589081
0.000740138616368436
0.000816927859301285
0.000901998901928174
0.00099786029427141
0.00110850548229293
0.00123829610733115
0.00138863255076894
0.001548850066067
0.00168556498370654
0.00183045042127162
0.00197130586310631
0.00210072641438259
0.00222329324957033
0.0023385665834392
0.00244765920939334
0.00254956738171927
0.00264469704463151
0.00273350228509157
0.00281624933835261
0.0028930400655852
0.00296394880704795
0.00302905677132453
0.00308844760717654
0.00314221303145581
0.00319045444904805
0.00323328795105188
0.00327084716352044
0.0033032835005375
0.00333076666785726
0.00335348068327664
0.00337162238061203
0.00338539842348208
0.00339502107576558
0.00340070463740134
0.00340266322219507
0.0034011078730329
0.00339624449221815
0.0033882709035571
0.00337737782289746
0.00336374517676825
0.00334752890970942
0.00332885895583109
0.00330788412582955
0.00328474273163682
0.00325959858558933
0.00323263075306121
0.00320403066253036
0.00317392587049591
0.00314235851968362
0.00310934678127113
0.00307489568844516
0.00303902443994381
0.00300174887802519
0.00296302773692138
0.00292281979962405
0.00288099221118928
0.00283749914391808
0.00279207055066688
0.00274471618627269
0.00269496277407429
0.0026422982164015
0.00259010642227472
0.00255460031982077
0.00253991002238307
0.00257802039923185
0.00266149822437274
0.00278400336175627
0.00294206999541577
0.00313501701230515
0.00336473936488279
0.00362959422113059
0.00392679151001354
0.004251765483661
0.0045971244686553
0.00495700206763985
0.0053237946071894
0.00569940587272922
0.00609425991286369
0.00651397882873983
0.00696809035075758
0.00747767723733199
0.00805203589173377
0.00872709653105624
0.00944777374424128
0.0102167452356379
0.0110226883137069
0.0117966320738552
0.0125141957276379
0.0130004895692362
0.013332333475822
0.0137050861417982
0.0147656425928179
0.0156937692194536
0.01746565590354
0.0181890011509503
0.0163031012520786
0.0154825847673548
0.0148180910111742
0.0143586674224203
0.0159473911540689
0.0136647963821409
0.00737366830874438
0.00285076965475622
0.00147846649715567
0.000975881230699419
0.000693888821074915
0.000531447764991302
0.00044019169095175
0.000388399627446339
0.000358790880438952
0.000344426764629433
0.000343150299122097
0.000354339988891049
0.000376811324495018
0.000408855318323142
0.00044875027279302
0.00049488899095337
0.000546142725105913
0.000602312021574439
0.00066394316864621
0.000731477512382179
0.000805610148864129
0.000888810490616579
0.0009834311087443
0.00109288821838539
0.00122010618257167
0.00136435925064755
0.00151419140379675
0.00164253051345067
0.00177987112691505
0.0019123693759235
0.00203470402264323
0.00215065490560417
0.00225974961083264
0.00236281182170181
0.00245899186071803
0.00254888544325888
0.0026328347005323
0.0027110446889695
0.00278359881286784
0.00285056372398585
0.00291201345844819
0.0029680261997003
0.00301868835912963
0.00306409589135884
0.00310435867204348
0.00313960342631541
0.00316997386570612
0.00319563134125395
0.00321675113135436
0.00323352078413642
0.00324613760772403
0.00325480442663373
0.00325972607238763
0.00326110714604727
0.00325914922445711
0.0032540486844554
0.00324599429573101
0.00323516870739775
0.00322174693158337
0.00320588355960387
0.00318770708572585
0.00316736316937209
0.00314498333635964
0.00312072245149312
0.00309479706438728
0.00306737621879509
0.00303854698259449
0.00300836044703175
0.00297684581293395
0.00294402422493315
0.00290992421468648
0.0028745759430077
0.00283796341539605
0.00280007466305466
0.00276082716644951
0.00272022468131236
0.00267810515798637
0.00263457872175354
0.00258943672003408
0.00254241389437995
0.00249788091814537
0.00246887113792752
0.00245275061787723
0.00248056178298833
0.00254938119963416
0.00265438253012171
0.00279228831521493
0.00296201690858556
0.00316465276788378
0.00339787612853714
0.00365883123706163
0.00394365322795805
0.00424597617244484
0.00456071938602532
0.00488145596465153
0.0052103951953229
0.00555734546012996
0.00592691279274362
0.00632568640558335
0.00677099712091996
0.00726884648426378
0.00784928782368991
0.0084633305419508
0.00910964243457236
0.00978745214692756
0.0104320900340853
0.0110395568149394
0.0114381126542076
0.0117333434067385
0.0119768966045582
0.0128908272100372
0.0135914715793284
0.0152671708652336
0.0159836122007909
0.0143933369041515
0.0137673141627153
0.0133905648237609
0.0128929657299343
0.0151696518579474
0.0151782815240477
0.00963660145948795
0.00387611350053457
0.00174134000891983
0.00106251897436427
0.000737357452956172
0.000558762393631592
0.000459862379373706
0.000404248679023779
0.000372500084464979
0.000357091666130435
0.000355012199842103
0.000365102020065344
0.00038585576093023
0.000415669758035215
0.000452907583299216
0.000496087346657947
0.000544441128941061
0.000598036773953081
0.000657468096169732
0.000723150336489566
0.000795917231216351
0.000878236211674913
0.000972197763219863
0.00108059701086691
0.00120517553875366
0.0013438956886262
0.00148574701494899
0.00160926050366237
0.00174143248647973
0.00186804866491596
0.00198548172954526
0.00209675878390268
0.00220149919409374
0.00230017921687391
0.00239230709120707
0.00247846389782959
0.00255892519514283
0.00263385903009456
0.00270333801037891
0.00276742339457427
0.00282618442870188
0.00287969583627916
0.00292804056765002
0.00297131104302848
0.0030096130383006
0.00304306886328453
0.00307181733602385
0.00309601462793366
0.00311583072145101
0.00313144749554576
0.00314305671027228
0.00315085562622827
0.0031550434840801
0.00315581925630289
0.00315337891928159
0.00314791314935656
0.00313960534199246
0.00312863342253229
0.00311517024512569
0.00309937056560823
0.0030813622329634
0.003061289754508
0.00303928005256359
0.00301550426584879
0.00299019330363822
0.00296346322894018
0.00293540403908875
0.00290607335799162
0.00287550863318978
0.00284374241964885
0.0028108115163901
0.00277675705360708
0.00274158261872287
0.0027052975938664
0.00266785807481394
0.00262930266404445
0.00258955085785128
0.00254877907604663
0.00250696798932299
0.00246404726677706
0.00242489474003194
0.0024003733094696
0.00238431971236775
0.00240503938127302
0.00246280443310181
0.00255415024516143
0.002676142790884
0.002827496429175
0.0030087076034432
0.00321710277459646
0.00344972035552053
0.00370308281721456
0.00397160539587965
0.00425080424546912
0.00453522222249832
0.00482710756299545
0.00513557440430926
0.00546479033124859
0.00581954082227723
0.00621425289569498
0.00665308172298281
0.00716124025765153
0.00769694821687753
0.00825518740031277
0.00884109707151383
0.0093932429377594
0.00992009299995499
0.010253375833084
0.0105158349193564
0.0106615529046704
0.0114296581533503
0.0119275945624537
0.013386202834603
0.0140282969148429
0.0127501570792358
0.0122810521175729
0.0120576249404851
0.0116000923343894
0.0138109885856207
0.0158936604947796
0.0118029356431638
0.00521812443429529
0.00212514078150985
0.00117627637604272
0.000784986934877492
0.00058413582334645
0.000475885881955845
0.000415968829857289
0.000382154990609041
0.00036588210357951
0.000363217349033304
0.000372460939926901
0.00039186712932384
0.000419942541871429
0.000455164664735989
0.000496216173892868
0.000542597812568389
0.00059451729553223
0.00065256489239739
0.000717169014535599
0.000789262369745808
0.000871181270060729
0.000964728763097244
0.00107211645154337
0.00119418165917719
0.00132817063439916
0.00146410174121909
0.00158501772498129
0.0017136184696833
0.00183618397989766
0.00195030788832974
0.0020583681646962
0.00216013411889549
0.00225571257359398
0.00234503929682023
0.0024285953847684
0.00250661359404924
0.00257923808166961
0.00264653452218015
0.00270855988867079
0.00276538004129294
0.00281706744972915
0.00286370279626037
0.00290537627630031
0.0029421910654993
0.00297426688288345
0.00300173973183653
0.00302476299125488
0.0030435039489469
0.0030581415552896
0.0030688649274161
0.00307586872728431
0.00307934957707471
0.00307950380413399
0.00307652475024132
0.00307060031823316
0.0030619113201638
0.00305063349954613
0.00303693969709763
0.00302098616770079
0.00300290087520679
0.00298282891844138
0.00296090013005122
0.00293732503712261
0.00291227905385209
0.00288587595087463
0.00285820888402981
0.00282934076210544
0.00279931575858277
0.00276817523182636
0.00273596351105621
0.00270273073565075
0.00266849619085666
0.0026332856371181
0.00259708559308812
0.00255996048135721
0.00252189276744268
0.00248310502857322
0.00244371492980003
0.0024038163599755
0.00236849904466854
0.00234703049728022
0.00233170791221682
0.00234748262861866
0.00239676276779259
0.00247726035898584
0.00258645128334897
0.00272297265118337
0.00288688700530213
0.0030753515889944
0.00328530349946506
0.00351347548975003
0.00375489029892126
0.00400554425791936
0.004260804596736
0.00452286700683184
0.0048001461908497
0.0050966150352817
0.00541595539898399
0.00577031642091959
0.00616284841123902
0.00661474045817561
0.00709116862124776
0.00758434651760626
0.0081022444165178
0.00858603594278771
0.00905114608730236
0.00933415767610827
0.00956587755796618
0.00964146195237311
0.0102795232549694
0.0106266229111264
0.0118462045817247
0.0124053857369048
0.0113777028988698
0.0110461500770489
0.0108539089107889
0.0105666172562742
0.0121837327510725
0.0158453816346218
0.0135135289872636
0.00686386158318096
0.00268555154304522
0.00133934637891986
0.000847027779671046
0.000614401042069587
0.00049341139078609
0.000427746730706467
0.000391284032199413
0.000373859556255583
0.000370518439094132
0.000378982076003145
0.000397270965541807
0.000423948497875704
0.000457597623338944
0.000497065970964272
0.000542046149133641