/*--------------------------------*- C++ -*----------------------------------*\
  =========                 |
  \\      /  F ield         | OpenFOAM: The Open Source CFD Toolbox
   \\    /   O peration     | Website:  https://openfoam.org
    \\  /    A nd           | Version:  7
     \\/     M anipulation  |
\*---------------------------------------------------------------------------*/
FoamFile
{
    version     2.0;
    format      ascii;
    class       volTensorField;
    location    "20000";
    object      gradU;
}
// * * * * * * * * * * * * * * * * * * * * * * * * * * * * * * * * * * * * * //

dimensions      [0 0 -1 0 0 0 0];

internalField   nonuniform List<tensor> 
15600
(
(0.0375822468126294 -0.000657186241382561 8.53557685780017e-21 14.4329359376532 -0.0278804942594009 -5.81891835646593e-23 -6.5109378714208e-22 1.98871126366007e-24 -1.80698428017064e-41)
(0.076880499339482 -0.00724033323991769 -1.06673154940555e-19 16.3587225636835 -0.0972717384654119 -8.92852271140447e-20 -7.32693666292352e-19 4.38148902093251e-21 4.39425417061758e-39)
(0.636097389100086 -0.0374486255363786 3.70891188244098e-19 16.0170186471905 -0.626029271973631 -2.62783130660761e-18 1.14805722981089e-17 -4.4861651891688e-19 -1.88725274623143e-36)
(0.970558264065731 -0.102434267234759 -4.52323849908534e-19 10.4303422208007 -0.980768116808906 -5.23468400208085e-18 9.54507964561727e-22 -1.26885426067432e-22 4.14064076127579e-39)
(0.430347259768174 -0.0663602804624792 -1.36469613131271e-17 2.94351124318548 -0.458351576082869 -6.72574210778293e-17 -9.55339500643225e-22 1.2699596449551e-22 -4.14424795191365e-39)
(-1.02316751464229 0.32371321765328 7.13364393875522e-18 -3.12284894171985 0.979391275302145 -6.12910372289015e-19 1.86897848434589e-17 -5.86128274544112e-18 4.17181773604683e-36)
(-1.87818943174343 0.74075661627433 1.53691530567458e-16 -4.7246545630936 1.84037149687446 3.88215188873017e-16 -8.44142750889168e-22 1.98539714156133e-22 5.95453529826128e-38)
(-1.8962781094202 0.875255365521665 -1.66442703061357e-17 -4.08985629656543 1.87173449770965 -1.56563812247645e-19 -9.20555272306473e-22 3.73993791265895e-22 5.70906398435669e-38)
(-1.7879207897025 0.911033748772298 1.74963556522537e-16 -3.47935575893288 1.76431768557005 3.39139373375407e-16 -2.24487982240038e-17 1.13832338188826e-17 2.1873475996631e-33)
(-1.56256081137257 0.847319430604023 -1.58007224212055e-16 -2.85831496169288 1.54528911504122 -2.64319473295809e-16 4.11166514446533e-23 -2.10790690173187e-23 4.09181166582013e-39)
(-1.36919239067963 0.766760937250681 -5.5532773893194e-17 -2.42423111482982 1.35577085872195 -9.59737914595128e-17 -1.59720873844774e-17 8.9325535364749e-18 -6.3296844717954e-34)
(-1.20390050233456 0.67776015474013 -3.38168209652847e-18 -2.12093559165022 1.19418371568061 1.07625366639657e-19 -9.37713069181828e-22 5.18522228664717e-22 -2.80963938778707e-37)
(-1.07420131109201 0.593960744578384 -5.72998943744091e-17 -1.92688052230867 1.06652964467389 -1.00301939510265e-16 -1.2644358113139e-17 6.99857258294741e-18 -6.58608981027733e-34)
(-0.977944786830505 0.529788865932902 2.3583321299817e-17 -1.79268253519392 0.972271749472046 -7.24368675510949e-19 -1.50860101288083e-21 8.17179905343356e-22 -5.86543050243729e-37)
(-0.910448042890656 0.484281714788852 -2.79403600397884e-17 -1.70099182254023 0.905691709503782 8.74108996925266e-19 -2.76259072329987e-21 1.44731979040596e-21 -1.29751801865748e-36)
(-0.858289734938813 0.450031242427236 -5.73549603081105e-17 -1.62884930401346 0.854742964625648 -1.0662234396919e-16 -1.05449028061865e-17 5.53337843426001e-18 -6.9003827814675e-34)
(-0.827556864762648 0.429390447895068 2.72165262663453e-17 -1.58871347163138 0.824804113829324 -9.57039795430475e-19 1.02594605067562e-17 -5.32628297948586e-18 -6.18439690346627e-37)
(-0.818690500160468 0.422150743871357 8.81989602252849e-22 -1.58343137056024 0.816795226820875 -3.72927201642238e-23 0 0 0)
(-0.83141564769702 0.427105200181884 -1.60474797394725e-17 -1.6147822229211 0.829950457536045 7.78849819689274e-19 0 0 0)
(-0.852273360604596 0.433850101493374 1.58811563026683e-17 -1.67000423547702 0.85116621995144 9.97783597441092e-17 -1.0729589668226e-17 5.46847382445829e-18 6.29479029498587e-34)
(-0.876099709995629 0.436377401586668 1.11579794370877e-16 -1.75321725835778 0.875359125187391 1.95456538800537e-16 -1.12197947910051e-17 5.6014790681625e-18 1.25136776052987e-33)
(-0.900266491271539 0.432513108555015 3.22642597514585e-17 -1.86564424507086 0.899750918379802 -2.05086450718709e-18 -5.25219869331416e-22 1.27922784022147e-22 2.55824090914987e-36)
(-0.917144536215832 0.418024127017523 3.79201785124821e-19 -2.00010887272547 0.916797652442098 8.34753767882868e-19 5.9572046998204e-21 -2.77579496465766e-21 -1.26996728818669e-39)
(-0.917646500421936 0.389090170487744 -1.58341201100434e-19 -2.14633527959738 0.917485863345631 -3.33905998233472e-19 1.33555706273158e-17 -5.70793895532776e-18 2.08306328605486e-36)
(-0.896338055563813 0.345275462630701 -1.44883869227112e-16 -2.30077121877235 0.896518684042345 -3.25878900567141e-16 0 0 0)
(-0.858527885446211 0.293201572835688 -1.53816223176019e-15 -2.47711006530356 0.85934339303222 1.91676751744904e-16 0 0 0)
(-0.807703589713307 0.239219704688517 8.42509853256341e-16 -2.6738477518993 0.808849832855242 8.46588987477548e-15 -1.30165703858158e-15 3.93701467207036e-16 4.17472559999872e-30)
(-0.736884345568422 0.18383184238642 3.50462983078472e-15 -2.87312285181105 0.738481387691809 7.87176120349098e-15 -1.39726084191777e-15 3.5904797736334e-16 3.77350615140991e-30)
(-0.643727399199661 0.129606843513482 1.5838765891311e-15 -3.06515409209403 0.645752070414347 -2.14202990534342e-16 -8.56860369438344e-21 1.97593076024701e-21 -1.11843785341948e-34)
(-0.52907056931509 0.080146034658674 -8.14872270587445e-18 -3.24849911127735 0.53164914558843 -4.92732456796632e-17 9.43306723879571e-18 -1.54255507340933e-18 1.42973486521023e-34)
(-0.393011041665619 0.0387603790000468 -1.9806052003286e-15 -3.42541578167036 0.397281542246466 1.52472715633731e-16 -9.89242037896942e-18 1.14624615435253e-18 6.19949030541072e-36)
(-0.24275596657768 0.00931688317514439 -1.36630763859569e-15 -3.57773625422204 0.244557165000836 9.70839594028853e-15 -1.95395773792694e-15 1.33472063817222e-16 5.37010476346663e-30)
(-0.0928741953750247 -0.00288246198352919 2.1186017287155e-15 -3.98508771284138 0.0992400055650065 8.70324418756271e-15 -2.18374965705232e-15 5.4317419442356e-17 4.70590620558166e-30)
(-0.0310864420544551 -0.00137756980561728 1.9879094411356e-15 -4.69410230477293 0.0365876200637645 -9.65356659027831e-17 -1.2322561371694e-20 1.41988922757101e-22 -1.34539290556227e-34)
(-0.0242099860728697 -5.78533323171323e-05 2.02661172917895e-20 -5.27718464036512 0.0281259483418195 -3.47138159065406e-19 0 0 0)
(-0.0178366069097591 -3.13014588318338e-05 -1.56440129685858e-31 -5.68762595490194 0.0218742222691881 6.95541695376116e-19 0 0 0)
(-0.0138596081490601 -2.39728615895304e-05 -1.64960387139345e-33 -6.00380176843018 0.0176433012294188 -7.08697379927043e-19 -2.44337393698414e-31 7.17931430713685e-34 -2.88413889691576e-50)
(-0.0107396432234525 -2.05940022390131e-05 2.22666005809354e-15 -6.24405869437341 0.0144491301865179 -8.78879492681592e-17 0 0 0)
(-0.00830643587168168 -2.05280718683746e-05 2.30769924843892e-15 -6.42730867749219 0.0119106013372535 -9.36445828318267e-15 3.53390302369596e-15 -6.54727740053724e-18 5.20632506264611e-30)
(-0.0062785121870502 -2.14884694594199e-05 -2.22663633783531e-15 -6.56334178366783 0.00979398670647339 -8.98761168867543e-15 3.62073399508921e-15 -5.40503410029517e-18 4.90448522433576e-30)
(-0.0045358612478168 -2.33258962346749e-05 -2.30769924843908e-15 -6.65950682966962 0.00795032637790355 8.27012803180898e-17 1.99239775522942e-20 -3.6864000164762e-23 -1.56182288476337e-34)
(-0.00298226278737368 -2.55331137603342e-05 -1.06755279202813e-20 -6.72047229361712 0.00628852185197384 3.87270790023439e-22 0 0 0)
(-0.00156556419484817 -2.79932436001145e-05 4.27041998960881e-22 -6.74965467153249 0.00474908490461747 5.86324491269616e-19 1.02693721221575e-20 -1.58313931196143e-23 -4.55871926144756e-40)
(-0.000254897261134105 -3.03991860319849e-05 -2.6515626470736e-20 -6.74960353835991 0.00329894558230425 -4.19426432371805e-19 8.62548020500683e-24 1.02867946168018e-24 8.97263510125918e-40)
(0.000963199379922838 -3.24739197017962e-05 -4.27041998961111e-22 -6.72248984392322 0.00192754899796308 -1.65936560912012e-19 -1.02779976026367e-20 1.48027136580135e-23 -4.41391583987856e-40)
(0.00209574368982811 -3.41502044482027e-05 -2.98010788909236e-15 -6.67029549633721 0.000630455957184412 7.50790821242471e-17 0 0 0)
(0.00314738492339121 -3.54740767982538e-05 -3.08659783895229e-15 -6.59487975756367 -0.000595298205742035 1.21615725075565e-14 -3.77096632512013e-15 -3.46123417256299e-19 7.00499604852808e-30)
(0.00412150044173657 -3.64559692468621e-05 2.98012135998849e-15 -6.49800285913165 -0.00175181924731996 1.20959674395745e-14 -3.72346172737181e-15 -9.99152541709847e-19 6.88625357032659e-30)
(0.00501981516529709 -3.70887249294238e-05 3.08659783895257e-15 -6.38136255037286 -0.00283913560659846 -6.61954282637449e-17 0 0 0)
(0.00584281171874337 -3.73737144556842e-05 -4.79358288020371e-31 -6.24662825278194 -0.00385619168657441 8.59929908302405e-33 0 0 0)
(0.00659029028547229 -3.73158541332256e-05 -1.3464902570164e-44 -6.09545727964887 -0.00480111482894625 1.95320449660674e-30 -4.96075679409761e-31 -3.908574015001e-34 1.59046537470509e-61)
(0.00726200075807039 -3.69389553769583e-05 -3.42859873595741e-15 -5.92950485826064 -0.00567193367272206 4.9205025475918e-17 0 0 0)
(0.00785812722744334 -3.6269614469069e-05 -3.52976065999166e-15 -5.75041543057052 -0.00646744942946336 1.43740705533846e-14 -3.16506125342839e-15 -3.56329381814512e-18 7.94392957840329e-30)
(0.00837942903513644 -3.53438471413244e-05 3.42859873595726e-15 -5.55981431309803 -0.00718677570730617 1.46074308728992e-14 -3.06369996688235e-15 -3.9578292848637e-18 8.02452378572705e-30)
(0.00882746337810061 -3.42019168329099e-05 3.52976065999156e-15 -5.35929346537629 -0.00783039028422102 -3.81428021865143e-17 0 0 0)
(0.009204339739899 -3.287719811001e-05 5.62149448718469e-31 -5.15039613335005 -0.008399159977145 7.91303741286003e-20 0 0 0)
(0.00951266735690721 -3.14086649809419e-05 -7.45377109497796e-34 -4.93461172521228 -0.00889476358478151 -1.60746087520032e-19 4.01602870297742e-31 7.23984066480208e-34 1.30835546080692e-50)
(0.00975562077301384 -2.98325999459941e-05 -5.62339477259388e-31 -4.71336229125955 -0.00931953966401237 8.1639435625785e-20 0 0 0)
(0.00993662093220718 -2.81779929878539e-05 0 -4.4879959725171 -0.00967633007849648 2.14041013950974e-20 0 0 0)
(0.0100593289269737 -2.64769123840676e-05 -5.00471250331883e-35 -4.25978508909373 -0.00996812394656973 -2.1501080955731e-20 0 0 0)
(0.0101275926660736 -2.47528738116906e-05 2.71780154056391e-21 -4.02991974723263 -0.0101986162002346 4.87551563724831e-24 0 0 0)
(0.0101455748942861 -2.30382462986917e-05 -2.72089939020264e-21 -3.79950721728474 -0.010371327711266 3.34710062013811e-20 7.39731629027551e-22 6.43815434258114e-25 1.31035346447159e-44)
(0.0101177703540095 -2.13549016793511e-05 -8.35953705001075e-21 -3.56956068212435 -0.0104911008942287 -3.35590444317358e-20 -7.39731629027554e-22 -6.43815434258116e-25 -1.3103534644716e-44)
(0.0100487966636743 -1.97271680412577e-05 8.3690274489686e-21 -3.34099873423487 -0.0105620113897744 2.67694907638612e-20 -1.30885890989257e-21 -1.63517538356489e-24 5.40794451761736e-44)
(0.00994355968704478 -1.81826296919785e-05 5.64173550944734e-21 -3.11464222680447 -0.0105894590629816 -2.23610421961278e-19 1.30885890962076e-21 1.63517538270539e-24 -5.40794430010044e-44)
(0.00980457999202766 -1.66659653807829e-05 -5.64812805876667e-21 -2.89121634018703 -0.0105766934125575 1.9744886123481e-19 0 0 0)
(0.00963154549418503 -1.51624579751784e-05 0 -2.67144879999496 -0.0105225530310477 0 0 0 0)
(0.00942516319539812 -1.3713055587327e-05 0 -2.45607384520495 -0.0104283039629635 0 0 0 0)
(0.00918821651084244 -1.23558525582719e-05 0 -2.24578052958811 -0.0102965190028773 0 0 0 0)
(0.00892496595677714 -1.11237677003006e-05 0 -2.0411806015506 -0.0101321672493549 0 0 0 0)
(0.00864015956027456 -1.00256989743668e-05 0 -1.84278418523225 -0.00994027667571892 0 0 0 0)
(0.00833810675412015 -9.05494353813545e-06 5.06513790150225e-15 -1.65101044439437 -0.00972575293634913 1.09484912585842e-16 0 0 0)
(0.00801898104569428 -8.12481614122099e-06 1.02376338434072e-14 -1.46620531891875 -0.00949016645562855 -2.62412433037223e-14 8.08507558711966e-16 5.23049770873748e-18 1.43928489477687e-29)
(0.00768163698569956 -7.26265178866549e-06 1.03973157775366e-16 -1.288792487588 -0.0092303382171922 -5.47883758909039e-14 1.41970155272597e-15 1.01672627765571e-17 6.03689726840595e-29)
(0.00732470713659714 -6.43884061092274e-06 -1.0237633843408e-14 -1.11916849603314 -0.00894844842113706 -2.86225465577447e-14 6.15554003966725e-16 4.92381981406353e-18 1.58409817151743e-29)
(0.00694872400377169 -5.72424222709332e-06 -5.16911105927761e-15 -0.957815490382002 -0.00864052416638122 -1.39094492899882e-16 -7.79669630906185e-32 -7.03215103791639e-34 3.44744433433528e-61)
(0.00655262253197465 -5.05663656963077e-06 -5.46407127105433e-20 -0.805110618601283 -0.00831309578515545 -9.66303354577609e-19 0 0 0)
(0.00613751204083208 -4.52096146774737e-06 5.46794490837656e-20 -0.661588209173561 -0.00795845477269137 1.27445345545986e-18 -2.58228027230227e-21 -2.27872888662336e-23 2.62160379641477e-42)
(0.00569241131683716 -3.89106426262648e-06 5.48039151298972e-15 -0.527603210470032 -0.00758042351746841 1.85498294166226e-16 2.58228027230228e-21 2.27872888662337e-23 -2.62160379641478e-42)
(0.00521725835023306 -3.48317322590101e-06 5.50046805541407e-15 -0.404165807823384 -0.00715627458381709 -3.02834840920223e-14 2.23213739856445e-16 3.94788909071583e-18 1.65764883245052e-29)
(0.00468410920484619 -2.5952414826059e-06 -5.48028008147867e-15 -0.291672554776741 -0.00669781345684487 -3.22330403175886e-14 1.60177721370459e-16 3.68179298222305e-18 1.78672805067363e-29)
(0.00409708773167138 -2.17481896039576e-06 -5.50057955285793e-15 -0.192322596227187 -0.00614058587200346 -2.05493404689834e-16 1.24963998144165e-21 2.36091917846566e-23 1.84058771509047e-42)
(0.00338153909521511 -3.74077377214454e-07 -5.67907980140907e-20 -0.106434579493464 -0.00552153563794301 -1.73082179760812e-18 -1.24963998144163e-21 -2.36091917846562e-23 -1.84058771509044e-42)
(0.00255107740507659 1.85382899161703e-07 5.68179942255669e-20 -0.0393695302033203 -0.00466516214012183 -1.04411039407441e-18 0 0 0)
(0.0013971045776045 4.33900745915797e-06 -5.87635161679741e-20 0.0088563612215602 -0.00367646181174464 1.04385244747843e-18 0 0 0)
(6.07306037926378e-05 8.34961273072103e-06 5.8747589266105e-20 0.0240759186109587 -0.00212476089723406 -7.21171357912219e-19 -7.49468309114964e-22 -2.27632206564316e-23 -1.07790233738804e-42)
(-0.00314269739211969 -6.69211427116012e-05 3.86210923578104e-18 0.0102316735679903 0.000389766518771431 9.10674228837374e-19 7.49468309114995e-22 2.27632206564325e-23 1.07790233738808e-42)
(-0.00135658736815686 -0.000452811392757316 -1.62370113177838e-17 -0.109824931039502 0.00101201972314138 4.60681493464083e-17 0 0 0)
(0.0100262663818909 0.000389479109133627 -4.02025569527271e-17 -0.116719123418021 -0.0110516907835789 8.78592720954071e-17 -1.6865389883482e-19 -1.59121952729649e-20 1.25559915114324e-34)
(0.0053335023677491 0.000744426082347311 -3.51012862252067e-17 0.00935777449338464 -0.00282895026876477 1.77032384872947e-16 1.02678351405948e-21 7.96880404066405e-23 3.14177959899459e-36)
(-0.0189823758970091 -0.00211122200897773 -8.5093149343823e-17 0.174333131891515 0.0223914184231928 7.27991952031552e-16 5.04304524109618e-19 6.47191398154993e-20 2.10695453812956e-33)
(-0.0740805982195269 -0.0135434221141747 9.17448410076393e-17 0.414740550138916 0.0794498909925128 6.26058713496147e-18 0 0 0)
(-0.16391269122836 -0.0385044018545845 -4.69063910657414e-16 0.704063777215874 0.170312221135013 1.84896110280044e-15 0 0 0)
(-0.298879076191785 -0.0845823694765452 -2.1771354096087e-18 1.05898454598773 0.305855058067284 -8.89300917106525e-20 0 0 0)
(-0.486177396127018 -0.159786171212916 4.83399158030869e-17 1.47807837769859 0.493114545764374 -3.22406189227314e-16 -8.94801731977033e-18 -2.98459454636024e-18 1.93070821413471e-33)
(-0.743814550593434 -0.276646010786949 -1.20409448795501e-16 1.99235522726792 0.748956296069816 3.09484891724922e-16 1.22290900269636e-17 4.59607805073395e-18 1.90060017289067e-33)
(-1.08259720079531 -0.444151694869059 -3.07749247065799e-16 2.62359962164743 1.08419628173437 7.3109728095279e-16 -8.89276526880556e-21 -3.89841928490795e-21 -6.41148927739089e-38)
(-1.49406153984179 -0.660031894512447 7.31108997966179e-16 3.35750827247276 1.49045246326106 -1.73940682026312e-15 9.17678491344394e-21 4.02292809926235e-21 6.6162612297728e-38)
(-1.96979067334781 -0.91878145758344 1.10852652412862e-16 4.18697982237936 1.95911169924779 6.78177407101793e-18 -1.47111956743812e-20 -7.01110553436034e-21 -4.2092149642352e-36)
(-2.49667663224519 -1.21003427605773 8.40616974700496e-17 5.10308415791309 2.47786989955682 -2.8071959457264e-16 -3.25906748815435e-17 -1.5824181647905e-17 1.7810656124603e-33)
(-3.05830163141759 -1.51893292614609 2.48655888248776e-16 6.09593469628284 3.03028608638342 -6.97427689748175e-16 -4.02203592044716e-20 -1.97472208307732e-20 8.24415216733724e-36)
(-3.61598397128505 -1.81847425874632 -8.03041897981901e-17 7.1162622719061 3.58021832265035 2.66272965956701e-16 4.58238083651319e-17 2.30536645918813e-17 1.6872711772416e-33)
(-4.14659058376709 -2.10108868706699 5.06810316177353e-17 8.09767750480069 4.10500028156114 2.30594899095378e-18 0 0 0)
(-4.69415814795124 -2.40173352254043 -5.14648729489253e-16 9.074069788816 4.64586546950162 9.06978138676533e-16 1.58554382405704e-20 8.01941699445127e-21 -1.93231588445063e-36)
(-5.30760132667225 -2.7506255142068 3.78374770343933e-16 10.1236554773546 5.25113065104619 -6.37513103357886e-16 -1.64001508480831e-20 -8.29492357304599e-21 1.99870047805108e-36)
(-6.01475902829104 -3.16742614008202 1.69796545418505e-16 11.2840378774924 5.94836483946602 -2.37639428917949e-16 -7.33295296270027e-17 -3.8654766980693e-17 1.5525431707566e-33)
(-6.87537966774954 -3.68871354304954 -4.13204532656876e-17 12.6492450300428 6.79395755529887 -1.40393226359809e-18 1.13232549192708e-20 6.00818009502308e-21 -5.36416095952085e-42)
(-7.96127437792582 -4.36240645101259 -4.33633975616164e-16 14.3308761291024 7.85954637686354 7.77121524841232e-16 -1.18027444065257e-20 -6.26259980151534e-21 5.59130931980869e-42)
(-9.44952546709683 -5.26712951097412 2.70634936031328e-17 16.698464496625 9.3068542450971 2.74689219549371e-19 0 0 0)
(-11.1950730822608 -6.21671306156437 4.4337445400748e-16 19.8533319733177 11.0088863103411 -8.23935893397079e-16 -1.30804947878222e-16 -7.25329049990361e-17 5.42543992015633e-33)
(-12.9465339623504 -6.9736325741176 1.79793266803304e-16 23.6764079965449 12.7158948345452 -4.06900760329721e-16 -4.50389241712434e-21 -2.38830977649641e-21 -4.93164298933902e-38)
(-14.5034731027711 -7.35078595716687 -3.57521107033291e-17 28.2196544559422 14.2331986036731 1.14662939481018e-16 -3.57916849897579e-22 -1.79956904772752e-22 1.81296826262501e-38)
(-15.5200049332479 -7.11537426944021 1.58117300938882e-16 33.4601847968783 15.2208045051365 -3.02224920556735e-16 7.56014039821196e-21 3.05985372600151e-21 -3.89071504398691e-40)
(-15.3559990106311 -6.0066779722367 5.62416063572939e-17 38.9829205942594 15.0528288422426 -1.42310992927035e-16 -2.40216408714535e-16 -9.2750713454154e-17 8.76817879382116e-34)
(-12.9365973117371 -3.93209645706695 2.93130539070948e-18 42.7208318383017 12.6940878216205 -5.03256524233133e-20 0 0 0)
(-8.06068226008821 -1.66387580520065 -1.15279922447803e-17 40.3978644655125 7.95324070629091 6.74136416095387e-17 1.17916285539058e-16 2.32112817090209e-17 1.96842513296285e-34)
(-3.65710212616595 -0.462841301078803 -1.27717962544248e-17 32.2276978468583 3.62973482539191 9.29412879069026e-17 0 0 0)
(-1.23383609777174 -0.0888583539131919 -1.62359065159546e-18 24.0615035806071 1.22435172066191 2.17776400905541e-20 0 0 0)
(-0.165577913970399 -0.0117864328752327 3.26530749118455e-21 16.7006632147963 0.18548488351454 -9.87987910799875e-19 0 0 0)
(-0.0149400579128365 -0.00104395217153049 8.32484701567765e-24 13.7751509025136 -0.0029435359607468 0 0 0 0)
(0.0698543734701554 -0.00328667276966515 -1.25763929894372e-20 15.9249694522622 -0.0506279919106787 -2.5335597927221e-22 1.99264998910199e-21 -8.75314972585082e-24 -2.56836164257147e-41)
(0.103676826886178 -0.0184869445620783 -1.51409088286779e-21 16.931864869628 -0.123174717758426 -2.13392171857124e-19 7.00028193092878e-19 -4.097221710797e-21 -3.74280762684402e-39)
(0.55266305555271 -0.0509919739131941 -4.58621463620294e-19 16.5876620110669 -0.539191355100688 6.05183685013096e-18 1.18948408001259e-17 -3.86390413097049e-19 4.34324590311464e-36)
(0.937398684833262 -0.0952853372157455 -7.68714267861314e-19 12.527972957968 -0.931297630964664 2.03160760559118e-17 3.25512138202899e-17 -2.70467026602954e-18 2.20490225980026e-35)
(0.674507679537811 -0.0636637751559688 2.52218878693769e-17 5.71961104420623 -0.648842061488477 1.25702438832611e-16 2.50128185793722e-17 -3.18884441777621e-18 1.77569524308479e-34)
(-0.542378631643602 0.253518607047227 -1.00745171922686e-16 -0.899833142465123 0.579574412003356 -3.81816575136251e-16 5.36278955192057e-18 -3.46263224572464e-18 2.28686312440791e-33)
(-1.45383462356229 0.621506622210405 -2.36645917155884e-16 -3.55395839644936 1.48453731636408 -5.99728368553502e-16 4.99779424582773e-17 -2.00831363882809e-17 1.38763376498897e-33)
(-1.57543146712701 0.749053185379877 1.29511574016626e-16 -3.45259587436318 1.60308845453914 2.42321204734197e-16 -2.35717605118159e-21 1.0090718554946e-21 8.39213236003995e-38)
(-1.52235491201107 0.788242591946743 -1.80459620895081e-16 -3.02265131065075 1.54221247764417 -3.21329664488442e-16 6.27921147538171e-17 -3.19013829192541e-17 -2.14689128303224e-33)
(-1.36282345494811 0.745179145510373 -1.63497144329213e-17 -2.54406565614454 1.37891140631024 -9.25087571627093e-18 -3.46601587616445e-17 1.87614258352467e-17 -1.72750562812917e-33)
(-1.2186828109473 0.685921208503549 2.21810679388019e-16 -2.1941779179431 1.23041481806961 3.64143182329629e-16 1.54024318116109e-17 -8.61396189660289e-18 6.10637819108739e-34)
(-1.08978482526383 0.615162108199375 2.57387052563645e-18 -1.94525536815445 1.09905202090366 -1.33003552113772e-19 -4.79217379939574e-21 2.68869246459684e-21 4.63472434276986e-37)
(-0.984967698190789 0.5454348980716 2.13171805953405e-16 -1.78435689343838 0.991704761059424 3.81508708735211e-16 1.22037039850813e-17 -6.75467635108574e-18 6.34804110991742e-34)
(-0.906076109498606 0.491653817268668 -1.80975359517908e-17 -1.67351749857755 0.911669266607517 5.0818488404223e-19 -4.20739666578399e-21 2.31556824990161e-21 4.3329660076805e-37)
(-0.850691541955314 0.453312460256323 2.13567247189409e-17 -1.5987220118372 0.85490524902996 -6.48077510689608e-19 0 0 0)
(-0.810062185411389 0.425692820245418 2.11803239410326e-16 -1.54363626627763 0.813464634731304 4.02117247758737e-16 1.01646066621926e-17 -5.33382820645525e-18 6.6761691577013e-34)
(-0.789366054522693 0.411073389587926 -1.7542602750238e-16 -1.51740626658945 0.79175431052938 -2.98378348752986e-16 9.80353291022043e-18 -5.11511033508138e-18 1.93009926251715e-33)
(-0.788510241978918 0.408934109127914 6.71951549783016e-20 -1.52218292885071 0.790364038043369 1.46605286690868e-19 0 0 0)
(-0.806007302119807 0.417047145778585 2.43531056970108e-17 -1.55814753096105 0.807436221639306 -1.1819558142174e-18 0 0 0)
(-0.831007443491505 0.426085158976668 1.5898988791386e-16 -1.61690759215231 0.832085497041924 2.11700877428122e-16 1.03482520257541e-17 -5.27412017435429e-18 -6.07106873944e-34)
(-0.858177216946667 0.430321575235841 4.16174283396489e-17 -1.70108231461968 0.859072590882735 1.30677803179163e-16 3.25125020462387e-17 -1.62937191098243e-17 -3.24748457179239e-33)
(-0.883922150384707 0.427015216814036 -4.89527270026714e-17 -1.81060763612346 0.884753739417765 2.61984948007446e-18 -1.76731888988495e-20 8.32678444643649e-21 1.94680404047487e-39)
(-0.900991870364977 0.411908012630375 -2.2233631052538e-19 -1.93945518609969 0.901920302260242 -4.86124406208168e-19 3.5882090023669e-20 -1.63892904571242e-20 -3.64987146954797e-39)
(-0.902158508126496 0.382036611145833 -1.5864476520776e-16 -2.08057807915852 0.903099667504335 -3.0939669273985e-16 1.29316049405809e-17 -5.60958535281655e-18 1.9343166193984e-33)
(-0.883948171046599 0.338106771698411 2.33422441849744e-17 -2.23326925786522 0.88458392566661 -1.28431822571171e-17 -2.73482665006829e-17 1.07392147048444e-17 -2.00538292662135e-33)
(-0.848865460683969 0.28596206036494 2.23165726193483e-15 -2.40453751110549 0.849526735318917 -5.35522932492171e-16 2.90414809403459e-17 -1.01615442263882e-17 1.82139521557887e-33)
(-0.798731328235774 0.231014447121297 8.26883453083573e-15 -2.59023399515482 0.799241779068803 1.96895179358993e-14 1.2687606228911e-15 -3.83444764311852e-16 -4.07313322546175e-30)
(-0.728458224795139 0.174290281557486 2.90240387408252e-15 -2.77762431718832 0.728916369670617 2.05938455701803e-14 1.33525289566947e-15 -3.42833685172079e-16 -3.59562063288012e-30)
(-0.637161887798122 0.11893195153317 -2.31267164244643e-15 -2.96038894775031 0.637282045601242 2.51590390361571e-16 0 0 0)
(-0.525797753342461 0.0685492615994885 -5.53164928159308e-18 -3.13780872425947 0.525555457782722 -1.27405371616394e-16 -9.06407211186886e-18 1.48311460793392e-18 -1.37937685329932e-34)
(-0.395290191440829 0.0267072201728107 2.88870883448084e-15 -3.31372896712629 0.396139328005836 -2.1893108431885e-17 9.49816377589202e-18 -1.09995927972653e-18 -1.36182137476499e-34)
(-0.264167040412155 -0.00164480587221169 4.38072613726639e-15 -3.529026908381 0.25886636259466 2.43965962214934e-14 1.90241277189247e-15 -1.29557767670362e-16 -5.23107311155176e-30)
(-0.133424191184016 -0.0105383467240741 -2.43359038907958e-15 -3.9044750474208 0.13243476777943 2.49371399767114e-14 2.08973630827979e-15 -5.16256764128014e-17 -4.49018039524051e-30)
(-0.0763469749925035 -0.00454059059254701 -2.80230616490807e-15 -4.3896934769416 0.073828430926713 1.36279828793401e-16 0 0 0)
(-0.0584591523573231 -0.00117292790673046 5.85433341599784e-20 -4.76523516921563 0.0545441101790676 -3.17399005877805e-19 -4.41921892938824e-20 2.29875038384282e-22 1.91971443932375e-39)
(-0.0426174547913199 -0.000849718239990479 -3.05117874550958e-20 -5.02507880759582 0.0393775844703283 3.37313676415371e-19 9.11667212735685e-20 -4.04274982312209e-22 -1.84742233878326e-39)
(-0.0324320957358369 -0.000600058693832633 -5.93935556511333e-20 -5.21475112605276 0.0291523509583784 -3.30847125400485e-19 -9.60664406264265e-20 3.09624180956291e-22 -4.02217909645126e-39)
(-0.0244866302536988 -0.000461142506519818 -3.08962157932272e-15 -5.34974378435691 0.0213831928961644 1.21612632002572e-16 -1.59864536538247e-21 -3.0106361030095e-23 -2.01710450453723e-34)
(-0.0182426865608716 -0.000370528736101004 -3.15636773407661e-15 -5.44277312682467 0.0152648565587772 -2.76370170792342e-14 -3.43170728912362e-15 6.35376266136463e-18 -5.06114574683204e-30)
(-0.0130192859560363 -0.00031105159295531 3.08964861949502e-15 -5.50094556952325 0.0102073442078108 -2.88643097530022e-14 -3.47105432217651e-15 5.17778419791174e-18 -4.69327905410622e-30)
(-0.00851059819767091 -0.000270867819699752 3.15636858429814e-15 -5.52939004725026 0.00587373779684927 -1.13540946421203e-16 -5.2731537477094e-20 6.06199102525818e-23 -2.06070255033818e-34)
(-0.00448573832847141 -0.000242973034610791 6.84362232072262e-20 -5.53152170757014 0.00204164016422152 3.54681515219072e-19 0 0 0)
(-0.000820704627405748 -0.000222605195074941 -3.58116986954905e-20 -5.50990781204354 -0.00142264913018713 -4.94575489316348e-19 5.36336031584276e-20 -1.25399559466628e-23 -9.17681788509855e-43)
(0.00255718404808819 -0.000205963921373051 -3.58257549300382e-20 -5.46661830298235 -0.00458606808487764 -1.89971074337017e-20 -5.36336031584309e-20 1.25399559466636e-23 9.17681788509912e-43)
(0.0056816654673945 -0.000190927530336067 5.55156570648876e-20 -5.40354806722213 -0.0074803362127668 1.58527208891444e-19 2.63930262848452e-31 -7.56184002839214e-35 6.51488611848462e-51)
(0.00857166470027929 -0.000176927793606056 4.10762653011212e-15 -5.32239079432718 -0.0101299685458997 -1.03154224708067e-16 2.62680521113971e-20 1.24613351470472e-23 -1.34086837320789e-34)
(0.0112410043158932 -0.000163720753156281 4.22439752310927e-15 -5.22469207077968 -0.0125517544667844 3.70388289500269e-14 3.65267508029353e-15 3.36893647994277e-19 -6.79142313770263e-30)
(0.0136997661920325 -0.000151048316405987 -4.10760550060921e-15 -5.11190304866252 -0.014758320115876 3.85474502519939e-14 3.57795186797505e-15 9.6100317974706e-19 -6.61068349908742e-30)
(0.0159537969939008 -0.000138651795072601 -4.22441722706763e-15 -4.9854077923626 -0.0167576531262432 9.09479615573366e-17 2.54539048243173e-20 2.27364140167734e-23 -1.37899306075152e-34)
(0.0180059953745298 -0.00012636977601383 -2.1029503129613e-20 -4.84654482234897 -0.0185549884073633 2.25800246691081e-19 0 0 0)
(0.0198577620077397 -0.000114120105891924 -4.06784688569378e-44 -4.69661773524419 -0.0201538277687308 -2.25717343474931e-19 4.78617422010344e-31 3.77102062536547e-34 -1.534492556345e-61)
(0.0215104402997522 -0.000101934821834032 4.76120004100904e-15 -4.53689961362915 -0.0215574187478869 -6.83296551560565e-17 0 0 0)
(0.0229663579983371 -8.98776451153025e-05 4.89309010286655e-15 -4.3686295209696 -0.0227700823814646 4.26795366904514e-14 3.06012757101103e-15 3.44590119922343e-18 -7.68476429846264e-30)
(0.0242291456913658 -7.80523169604173e-05 -4.7612126811786e-15 -4.19300826952965 -0.0237968177275117 4.4058381485311e-14 2.94943726518278e-15 3.8105550108565e-18 -7.72179546229934e-30)