/*--------------------------------*- C++ -*----------------------------------*\
  =========                 |
  \\      /  F ield         | OpenFOAM: The Open Source CFD Toolbox
   \\    /   O peration     | Website:  https://openfoam.org
    \\  /    A nd           | Version:  7
     \\/     M anipulation  |
\*---------------------------------------------------------------------------*/
FoamFile
{
    version     2.0;
    format      ascii;
    class       volScalarField;
    location    "20000";
    object      k;
}
// * * * * * * * * * * * * * * * * * * * * * * * * * * * * * * * * * * * * * //

dimensions      [0 2 -2 0 0 0 0];

internalField   nonuniform List<scalar> 
15600
(
1.32183034852377e-06
1.40124889094502e-06
1.13006363079097e-06
7.7065191195145e-07
4.18291373980491e-07
1.80977339568146e-07
8.12893858335231e-08
6.2737630258746e-08
5.36538776744833e-08
4.00549022502918e-08
2.97702332581322e-08
2.43677944761589e-08
2.20946901457565e-08
2.14102180033163e-08
2.1706950296562e-08
2.27397469046886e-08
2.47396374546674e-08
2.80465533772196e-08
3.30770690557682e-08
4.01763766197721e-08
4.98407717433702e-08
6.27893393860952e-08
7.96760987346739e-08
1.0102703473845e-07
1.27299705137031e-07
1.59251769426734e-07
1.9783574943447e-07
2.42704961758173e-07
2.92884963737767e-07
3.47020737452151e-07
4.04321172038076e-07
4.66215588976786e-07
5.42625129194494e-07
6.7154144292379e-07
8.25538771522015e-07
9.70981762226578e-07
1.10916760465502e-06
1.24168890587732e-06
1.36956968659344e-06
1.49346446915785e-06
1.61386316828337e-06
1.73116927475043e-06
1.8462382419065e-06
1.95913362647582e-06
2.06778955899153e-06
2.17036472181657e-06
2.26630857382929e-06
2.35525731251176e-06
2.43688669315492e-06
2.51092890081876e-06
2.57718405436423e-06
2.63553386060868e-06
2.68594846674658e-06
2.72848039913191e-06
2.76326514444654e-06
2.79050264878204e-06
2.81045380922782e-06
2.82342706332486e-06
2.82976617729873e-06
2.82984137717344e-06
2.82404778764538e-06
2.81279183413826e-06
2.79649505622574e-06
2.77555721643831e-06
2.750348321584e-06
2.72112558146565e-06
2.68806714076455e-06
2.6514495373488e-06
2.61160443239449e-06
2.56893579349753e-06
2.52383619679058e-06
2.4765862347394e-06
2.42730258176187e-06
2.37600753545382e-06
2.32283850526409e-06
2.26780970607858e-06
2.21092433590697e-06
2.15221556808813e-06
2.09153914594157e-06
2.02817675067451e-06
1.96204259525881e-06
1.89196659376507e-06
1.81711464636964e-06
1.73494664368375e-06
1.64357799854163e-06
1.53758217707039e-06
1.4158333304647e-06
1.33117696495039e-06
1.42852001725951e-06
1.55372266197782e-06
1.69721797499635e-06
1.8368387626051e-06
1.97732751262937e-06
2.11742299481888e-06
2.26053060258644e-06
2.42204644244656e-06
2.57852279532888e-06
2.70717875991945e-06
2.80302039754587e-06
2.85918778740277e-06
2.87012114528132e-06
2.81418008711719e-06
2.71336338480447e-06
2.61615427194041e-06
2.53332415465755e-06
2.47025757523387e-06
2.44318133783264e-06
2.47427565571052e-06
2.60309404482298e-06
2.73971980076539e-06
2.89118750200229e-06
3.06314365870232e-06
3.23727130628956e-06
3.29072771325542e-06
2.9332309119432e-06
2.418589245968e-06
1.90171930339372e-06
1.50574657697079e-06
1.23823630307319e-06
1.23913802683706e-06
4.26792473891653e-05
4.51821251858324e-05
3.65412285080052e-05
2.49535673155929e-05
1.35971151149588e-05
5.92257882477348e-06
2.66320959140779e-06
2.04030833812807e-06
1.74659612960926e-06
1.30816777988306e-06
9.72565482578826e-07
7.94499119663903e-07
7.18808651211095e-07
6.95420095646746e-07
7.04163724577734e-07
7.36811109039694e-07
8.00576389530897e-07
9.06375450617921e-07
1.06775675505762e-06
1.29596913214369e-06
1.60696911130769e-06
2.02407073545885e-06
2.56876203919783e-06
3.25846773913969e-06
4.10812758236749e-06
5.14202023235884e-06
6.39156397819024e-06
7.84646874354773e-06
9.47536005401058e-06
1.12340548660441e-05
1.30963907090063e-05
1.5108149518406e-05
1.75789671762621e-05
2.17364977415059e-05
2.67071321036381e-05
3.14054538526359e-05
3.58688073104107e-05
4.01488193015792e-05
4.42786168080801e-05
4.82794035485976e-05
5.21670628734335e-05
5.59546529867341e-05
5.96699286211589e-05
6.33150747942324e-05
6.680157376864e-05
7.00857145406438e-05
7.3155604223723e-05
7.59999493902569e-05
7.86087365276061e-05
8.09737575807699e-05
8.30889730284657e-05
8.49509311381449e-05
8.65589642704023e-05
8.79150010822183e-05
8.90235586508159e-05
8.98911724149889e-05
9.05262754989142e-05
9.09387753088488e-05
9.11396702064752e-05
9.11407783681575e-05
9.09546791318834e-05
9.05943030129799e-05
9.0073022294877e-05
8.94035248435221e-05
8.85975105362298e-05
8.76631137990435e-05
8.66060317092612e-05
8.54350570446003e-05
8.41607194346246e-05
8.27958234037353e-05
8.13528252309288e-05
7.9840599247147e-05
7.8262836249483e-05
7.66202880905628e-05
7.49172888697247e-05
7.3154346914395e-05
7.13313786541163e-05
6.94495924526248e-05
6.75042414269117e-05
6.54725839662295e-05
6.33515455735656e-05
6.11045049906707e-05
5.87037151704317e-05
5.60700757593671e-05
5.31404560736616e-05
4.97439279243451e-05
4.58238270321267e-05
4.31165023788659e-05
4.62496012946052e-05
5.02804080144408e-05
5.48819143023608e-05
5.93725593277058e-05
6.38896502489685e-05
6.83964685253607e-05
7.300445254517e-05
7.8175907262954e-05
8.31712263305658e-05
8.72806352348084e-05
9.03416959641598e-05
9.21395538574836e-05
9.24905718223673e-05
9.07404610138995e-05
8.75759341398738e-05
8.44984871986957e-05
8.18681195978587e-05
7.98689330016336e-05
7.90165194259996e-05
8.00216461273237e-05
8.40661332989952e-05
8.84041443909973e-05
9.32041072767944e-05
9.86281548513367e-05
0.000104074856797052
0.000105750846426695
9.44399043782618e-05
7.7837095834258e-05
6.12853762557843e-05
4.86068366213524e-05
4.00304423976863e-05
4.00820363878134e-05
0.000308844474458982
0.000325683182607467
0.00026573923967981
0.000182244491694326
9.99104422066011e-05
4.39924416165308e-05
1.97468280057944e-05
1.49890720743087e-05
1.28387927214039e-05
9.65191622503797e-06
7.1839509238366e-06
5.86184072353475e-06
5.29432167082038e-06
5.11416351500662e-06
5.17102379815465e-06
5.4034501757516e-06
5.86216317373442e-06
6.62633659793845e-06
7.79548010745519e-06
9.45245885386391e-06
1.17126559270753e-05
1.4745696575803e-05
1.8709637510171e-05
2.37327556423743e-05
2.99223190811608e-05
3.74499296080626e-05
4.65442781259406e-05
5.71345121671336e-05
6.89909878622694e-05
8.17886141076204e-05
9.53201549651015e-05
0.00010989021952396
0.000127662822191725
0.000157364880575785
0.000192800188230867
0.000226232162697954
0.000257913676375027
0.000288223859827458
0.000317410409766316
0.000345632627014077
0.000373009944256854
0.000399636179199036
0.000425719607156085
0.000450981692753217
0.000474815658614665
0.000497215241147819
0.000518108514387828
0.000537431478911724
0.000555128299162514
0.000571154550577781
0.000585479487474197
0.000598088549701572
0.000608984340031688
0.000618185445059898
0.000625726090661066
0.00063165269053625
0.000636023037899726
0.000638903640912686
0.000640367374646023
0.000640491931725095
0.00063935941090725
0.00063705397451485
0.000633662143019791
0.000629266080243087
0.000623941061538399
0.000617739312886679
0.000610697980945646
0.000602874279832363
0.000594336532889888
0.000585168050740902
0.000575450450715929
0.000565241388548337
0.000554564865827148
0.000543426185049198
0.000531853544650248
0.000519850638709308
0.000507412973553213
0.000494550909782907
0.000481230118392629
0.000467297932883698
0.000452729073355116
0.000437284435499742
0.000420761094081022
0.000402647772043269
0.000382460393897604
0.000359064128145044
0.000331434031972001
0.000312525236731747
0.000333680362310216
0.000361289910078412
0.000392675209378063
0.00042355950016628
0.000454625788029273
0.000485660020622369
0.000517377292672004
0.000552529916480253
0.000586541331623982
0.000614867418681747
0.000636263149712931
0.00064930551842918
0.000652735224330897
0.000642525690347121
0.000622633645236751
0.000602452176649208
0.000584843064833037
0.000571277191916116
0.00056519873084117
0.000571301655375211
0.00059697413821834
0.000625589733544511
0.000657248958368169
0.000692748614118639
0.000728096202547042
0.000740622909821224
0.000669384894498968
0.000554089952301889
0.000439573726124923
0.000351297064463532
0.000291122581869509
0.000291820051667612
0.00110883343052494
0.00115971611183822
0.000963687612372003
0.000673278215380593
0.000376726040838442
0.000169825128808038
7.58006773102207e-05
5.67387437836097e-05
4.85598441783735e-05
3.66552984709954e-05
2.73321080744888e-05
2.22873049206313e-05
2.01005709459447e-05
1.9383002051812e-05
1.95637179902341e-05
2.04067857461462e-05
2.20938786425403e-05
2.49186018678598e-05
2.92518844034523e-05
3.54005704403243e-05
4.37826324527493e-05
5.50124232134953e-05
6.96565419938117e-05
8.81574498383834e-05
0.000110858475318426
0.000138312900143255
0.000171268715784106
0.000209388969668898
0.000251764166862683
0.0002971644549981
0.000344731523471908
0.00039542188903557
0.000456637545171959
0.000556709070282589
0.00067370594776283
0.00078242550680253
0.000884198443671147
0.000980438735045162
0.00107217197560186
0.00116004677153942
0.00124455692613585
0.00132603942778103
0.00140482906993831
0.00147861927202398
0.00154794066736311
0.00161271200977374
0.00167283662058524
0.00172823167059395
0.0017788284112815
0.00182458055984779
0.00186547011027373
0.00190151349222962
0.00193276351926835
0.00195930675938985
0.00198126226191384
0.00199877375141635
0.00201200805506047
0.00202114889838261
0.00202639172809837
0.00202794075462484
0.00202600824402354
0.00202080972386612
0.00201256443540116
0.00200148027309075
0.00198774638468945
0.00197149265857047
0.00195281075750818
0.00193184393630545
0.00190876262919012
0.00188377798954463
0.00185710064566095
0.00182887661424414
0.00179916518398219
0.00176797705455098
0.00173538215815881
0.0017013855659449
0.00166595076637138
0.00162911022944336
0.00159075307148627
0.00155053616904784
0.001508182552783
0.00146311227701808
0.00141467183176318
0.0013614681866052
0.00130189199383587
0.00123271490409486
0.00114751292954497
0.00108909351645031
0.00114801683346052
0.00122877511286653
0.00132102222996902
0.00141333658886724
0.00150680884883124
0.00160094105526625
0.00169755271793972
0.001803180835649
0.00190654057300673
0.00199550919182414
0.0020657537567733
0.0021129924728546
0.00213341772704821
0.00211644275414555
0.00207038380055266
0.00201931342313994
0.00197295917701236
0.00193659819670972
0.00192051418026088
0.00193799288354228
0.0020097378077961
0.0020926633474518
0.00218314779168095
0.00228197850195716
0.00237686102191283
0.00241253909981665
0.00222359752162801
0.00186638673564849
0.00151144473559749
0.0012382155185559
0.00104917737418881
0.00105641629866933
0.00257506378440438
0.00266408378333595
0.00228163851881673
0.00166418795150863
0.000980676477527817
0.000466604721196368
0.00020865524349708
0.000152719187580256
0.000130155901981813
9.86782738166193e-05
7.3768754462991e-05
6.01389600207542e-05
5.4169431383599e-05
5.21199905536361e-05
5.24822378766454e-05
5.46042661215294e-05
5.89373826316229e-05
6.62370679908206e-05
7.74496530668909e-05
9.33299188953749e-05
0.000114871099254685
0.000143511298576084
0.000180482517692249
0.000226591000633092
0.000282283047892185
0.000348412194278008
0.000426177105213178
0.000514198627248815
0.000609970769849159
0.000710586499681987
0.00081422349129506
0.000923501770670265
0.00105450208384029
0.00125885534431455
0.0014873249953084
0.00169423806364272
0.00188427645837525
0.00206084192586014
0.00222666620494496
0.00238339515874635
0.00253230569726902
0.00267425979782018
0.0028065161739794
0.00293009516342607
0.00304538947037537
0.00315245072189784
0.00325131119340092
0.00334200334960667
0.00342456302737852
0.0034990436554844
0.00356552631151071
0.0036241296170653
0.00367501281732036
0.00371837324723864
0.00375444435490622
0.0037834860193884
0.00380578299423864
0.00382163663210993
0.00383135831145099
0.00383526623868302
0.00383368463485848
0.00382693816195111
0.00381535215035362
0.00379923429650053
0.00377886367452496
0.00375443387524951
0.00372608166398873
0.00369401607792473
0.0036584796170977
0.00361977514900548
0.00357821050363482
0.00353399410686077
0.00348721144634608
0.00343787716175857
0.0033860904588071
0.00333185370853476
0.00327524148277425
0.00321607797954647
0.00315414585771221
0.00308902178692881
0.0030202019564347
0.00294683518406076
0.00286780525595977
0.00278106182404499
0.00268381431587759
0.00257126453640024
0.00242840123172322
0.00232862007433569
0.00241286109735745
0.00254185757174096
0.00269342625654048
0.00285010244562809
0.00301190374541733
0.00317802027081844
0.00335082624939553
0.00353858112091486
0.00372586748309696
0.00389447727909184
0.00403607184717495
0.0041431020995398
0.00420889493116249
0.00421779569175253
0.00417858499074979
0.00412489384069426
0.00407404384515556
0.00403609628849827
0.00402858351236488
0.0040725998397513
0.00420205063958961
0.00435358377675783
0.00451374477765461
0.00468072243162458
0.00483089039641823
0.00488715411258027
0.00460467429964798
0.0039510346501539
0.00328026779033383
0.00277517055095991
0.00243213568466962
0.00246833426847936
0.00435503513051941
0.0044627693640126
0.00395842916477367
0.00306392711921142
0.00195287473092944
0.00102011595936167
0.000473654424802513
0.000334341265511974
0.000282822825939412
0.000215459304323444
0.000161673054713606
0.000131836076914931
0.000118600516767232
0.000113751518600526
0.000114155256109783
0.000118303503469179
0.000127064739874893
0.000141945926078084
0.00016477811058305
0.000196877228938421
0.000239870014648095
0.000296035515063299
0.000366939042112515
0.000453049059228749
0.000554049061124713
0.000670376406063172
0.00080297873865663
0.000948690038183939
0.00110334547083762
0.00126309570152026
0.00142669206666746
0.00160056349056326
0.00180912523339152
0.00211273973764467
0.00243552424215981
0.00272293068321785
0.00298358541578382
0.00322301991107815
0.00344576588195656
0.00365446306769948
0.00385118149790197
0.00403490898500007
0.0042053383549212
0.00436406697396906
0.00451150524255124
0.00464787241776713
0.00477335198488676
0.00488810954833509
0.00499229996683542
0.00508608569187875
0.00516965033468421
0.00524321142842857
0.00530702456924889
0.00536138202333289
0.00540661025939715
0.00544306023040546
0.00547110603563837
0.00549113565928301
0.00550354380632515
0.00550872878376441
0.00550709133683334
0.00549902906127243
0.00548493601269869
0.00546518512349687
0.00544011587595692
0.0054099704806141
0.00537492304760029
0.005335228356985
0.00529117147151233
0.00524310805759038
0.00519140573449556
0.00513630972634517
0.0050779291155351
0.00501629174256997
0.00495171002673007
0.0048839740814907
0.00481311488787541
0.0047389912612743
0.00466134048247098
0.00457971543882366
0.00449350730791324
0.00440178842153623
0.00430322707467417
0.00419562318250709
0.0040756484247945
0.00393820135522506
0.00376401486797263
0.0036390129801705
0.00372194918232724
0.00387298174423418
0.00405914291752353
0.00425935812454994
0.00447116913426166
0.00469305366005662
0.00492702722825874
0.00518071111785696
0.00543764827587205
0.00567678061094314
0.00588657958331999
0.00605720676794724
0.00618011768980066
0.00623833746096046
0.00623917079705532
0.00621794933117114
0.00619655613487236
0.00618859442465851
0.00621574931496024
0.00630264524318893
0.00648886664079484
0.00670754137724651
0.00693423531446055
0.00716277803780136
0.00735903766964997
0.00744044215545415
0.00712985565352892
0.00628362281253606
0.00532807000315284
0.00460556894935803
0.0041309252573815
0.00419415118744935
0.00600444351857916
0.00611904354231248
0.00558968215220673
0.00458071415826888
0.00316539203318859
0.00184356869361978
0.0009397203893958
0.000633863899021224
0.000530175942283183
0.000406143652267294
0.000306474690459083
0.000250158937530698
0.000224597804269668
0.000214537975347222
0.000214243080973975
0.000220706606720854
0.000235263871567427
0.000260340162820972
0.000298714566350685
0.000351980867972565
0.000421933613283997
0.000511036008049397
0.000620223568172164
0.000748682301189994
0.000894832434547016
0.00105862086596697
0.00124066997197881
0.00143664914711086
0.00164203698380294
0.00185368056544138
0.00207250258558254
0.00230894069961642
0.00259096530184526
0.00297202480241129
0.00336112201565895
0.00370565010053019
0.00401647450894915
0.00430072541665293
0.00456407614714244
0.0048098209768383
0.00503986608026211
0.00525272060511107
0.00545045739728027
0.00563424117695383
0.00580455960717336
0.00596175052767331
0.00610610511802264
0.00623788449739886
0.00635732970376535
0.00646468221927805
0.00656019991168763
0.00664417185199591
0.00671692314247429
0.00677881474680354
0.00683024046202465
0.00687161744595257
0.00690338505547321
0.00692599477610247
0.00693990252383156
0.00694556547945778
0.00694344039589654
0.00693397798808905
0.00691762190463718
0.0068947930140493
0.00686587722968157
0.00683115805905855
0.00679084248318901
0.00674522235415817
0.00669461272085058
0.00663940579424932
0.006580013298775
0.00651670695201774
0.00644961915099653
0.00637907460308906
0.00630501207045622
0.00622732603044389
0.00614604548199912
0.00606105686866017
0.00597208876578437
0.00587870331475056
0.00578026141612642
0.00567585127993418
0.00556408612349401
0.00544284749215932
0.00530869854439821
0.00515681670876496
0.00496755799830931
0.00482810024803415
0.0048978419567644
0.00505507677977592
0.00525952541167202
0.00548762425002778
0.00573412355472784
0.00599645889233438
0.00627583655011184
0.00657834364365218
0.00688753917213207
0.0071812043328597
0.00744558298778185
0.00766940275502714
0.0078430724250764
0.00795027710125618
0.0079972656000603
0.00801795098121349
0.00803625835097191
0.00806812343345675
0.0081370205977153
0.00826900852323736
0.00850346713033806
0.00877931887489793
0.00906487625819821
0.00934982021150972
0.00959203739119419
0.00970996696808861
0.00941710785902928
0.00851231917496559
0.00735479362020078
0.00642407425383939
0.00579966215082463
0.00582943624199359
0.00739260038275845
0.00750074221808455
0.00699571973382644
0.00599830792889815
0.00444003732392682
0.00285590465298646
0.00163837893516638
0.00107451087591015
0.000883687522108168
0.000681151889127549
0.000518222149471488
0.000423869630068795
0.00037947714679928
0.000360638759065146
0.000357784765237167
0.000365631038795859
0.000385826008065758
0.000421617240270347
0.00047643544959763
0.000551570425362852
0.000648344657859188
0.000768718891590818
0.000912468383110807
0.00107750108048327
0.0012615335098152
0.00146453300374739
0.00168699265212981
0.00192425853134923
0.00217237053445688
0.00242956925676145
0.00269897872783402
0.00299325661624123
0.00333937433388607
0.00377795450010678
0.00421421312855507
0.00460100112525886
0.00494968129492132
0.00526835164604126
0.0055631962549893
0.00583798256959419
0.00609320754533285
0.00632946178883954
0.0065489457826838
0.00675269275413488
0.00694125909426151
0.00711506452206071
0.00727447677566987
0.00741982648812742
0.00755141866076681
0.00766955418103024
0.00777454729427421
0.0078667420710093
0.00794651757772438
0.00801428885760362
0.00807050327545475
0.00811563113529348
0.00815016478564195
0.00817460767611032
0.00818946606140155
0.00819524569468782
0.00819244957388471
0.00818157217786353
0.00816309794498915
0.00813748764977345
0.00810516746193308
0.00806645865023548
0.00802159809442989
0.00797091093836189
0.00791473636124624
0.0078534960237869
0.00778763898994691
0.00771745884374891
0.0076433634159804
0.00756539497564984
0.00748350715512228
0.00739765355163281
0.00730786856249175
0.00721406345681789
0.00711597495320762
0.00701318716366034
0.00690506597802369
0.00679074750584786
0.00666886613733959
0.00653745758283733
0.00639317766478379
0.00623165048843581
0.00603461479892972
0.00588620659533966
0.00594019611112888
0.00609630812141404
0.00631036240528988
0.00655697926743474
0.0068283434588739
0.00712071682176333
0.00743432901500134
0.00777352183810556
0.00812202987267385
0.00845716656639291
0.00876361374026232
0.00902916156944488
0.00924362925687148
0.00939198881735413
0.00948009003252209
0.00953981833454359
0.00959575611060971
0.00966537321380346
0.00977272693824067
0.00994467627839207
0.0102177915502594
0.0105388240083831
0.010872689906841
0.0112057013790649
0.0114902911967877
0.0116463164498899
0.01138822321782
0.010507303982873
0.00925481563561898
0.00815107433374525
0.00734357691335998
0.00725971221695514
0.00858048154776231
0.00865616841662391
0.00818002607966746
0.00724335961620717
0.00566416930801918
0.00394316971029602
0.00253336774817293
0.00166168411722791
0.00133477331034691
0.00103413327603136
0.000794947655845467
0.000652365826548
0.000582033380309572
0.00055004522727485
0.000541617247485429
0.000548528410303453
0.000572403826954543
0.00061702645975606
0.000686061920524758
0.000780101219308425
0.000899730212606585
0.00104618599942087
0.00121818327604459
0.0014128491063592
0.00162777444636368
0.00186313614557818
0.00211931129168028
0.00239179793728341
0.00267748469876944
0.00297594991132382
0.00329178774623296
0.00363804715646515
0.00403849582586693
0.00452142229440857
0.0049945029221925
0.00541555943956048
0.00579559672461491
0.00614321700715434
0.00646475100998151
0.00676405566664353
0.0070407720300432
0.00729732572603433
0.0075356038069855
0.00775660998052021
0.00796095975545835
0.00814913650724659
0.00832156907360276
0.00847864483675837
0.00862072176187512
0.00874815038063516
0.00886129230274063
0.00896053828538727
0.00904631350231052
0.00911907970623632
0.00917933092427414
0.00922758395097496
0.00926437794151635
0.00929026247351018
0.00930578859537791
0.00931150535201483
0.00930795699545598
0.00929567694139922
0.00927518590420906
0.00924698034788853
0.0092115236672525
0.0091691729979721
0.00912019296299446
0.00906494037818306
0.00900377521112386
0.00893714488714721
0.00886553230340624
0.00878944723044222
0.00870914480580706
0.00862462253986067
0.00853586877914935
0.00844287706303805
0.00834569157306075
0.00824424717381524
0.00813829732446605
0.008027453576665
0.00791110520843936
0.00778844799862949
0.00765817660194662
0.00751850142083714
0.00736626893017924
0.00719759029057706
0.00699626022137915
0.00684196356239792
0.00688080360013436
0.00703233280118318
0.00725102385365345
0.00751025863237776
0.00780002418880243
0.00811539330990771
0.00845555949535084
0.00882313044561584
0.00920193673692434
0.00956910606562624
0.00990820138468444
0.0102063785710976
0.0104531475269714
0.0106348835555304
0.0107574497805823
0.0108508188267784
0.0109395182321367
0.011042014621253
0.0111823656587389
0.011387958272037
0.0116918519563103
0.0120478191241157
0.0124198446811631
0.0127914080411108
0.0131114158156943
0.0132995745941936
0.0130753190536432
0.0122448961010984
0.0109808374810284
0.00977286247999197
0.00879276179570648
0.00854208629670601
0.00965775460119494
0.00966492708051224
0.00920474055909542
0.00832284677207907
0.00679719802956768
0.00502190262614349
0.00354257974606706
0.00238980406483026
0.00185791432261579
0.00144492930010756
0.00112229592390045
0.000924497113380056
0.000822096027666721
0.000772815380088779
0.000755532030390398
0.000758764501635095
0.00078368621486136
0.000834279857121744
0.00091413318507791
0.00102307844129623
0.00116100568752588
0.00132844444380803
0.00152330277723588
0.00174231796865828
0.00198320334039121
0.00224630914611021
0.00253189308784692
0.0028358172244572
0.00315577667706536
0.00349234971275067
0.00385081681378321
0.00424345298734066
0.00469032806114218
0.00520981153817463
0.00571431510364219
0.00616530055453857
0.00657316664366042
0.00694671127810801
0.00729226070986129
0.00761324182497472
0.0079097164465712
0.00818474916296175
0.00844009696194371
0.008676776339915
0.00889545675071202
0.00909667636037297
0.00928091759739595
0.00944861843694552
0.00960018438235134
0.00973601072759224
0.00985650178449627
0.00996209070871742
0.0100532446345842
0.0101304681481016
0.0101942983071504
0.0102452947795488
0.0102840402324558
0.0103111272353213
0.0103271486010937
0.0103326937597076
0.010328345471737
0.010314673390067
0.010292231961736
0.0102615508774852
0.0102231291794736
0.0101773588199642
0.0101245304741871
0.0100650322448111
0.00999924264586565
0.00992763262386789
0.009850852346432
0.00976938189666253
0.00968337703615679
0.00959286629819312
0.0094978658292423
0.00939839988057376
0.00929452539922032
0.00918620048018921
0.00907320035912251
0.0089551669783186
0.00883152389745017
0.00870153166919321
0.00856396747001072
0.00841722075508277
0.00825837950092325
0.00808404775764438
0.00788028516881074
0.00772195894100246
0.00774710196595944
0.00789236956528494
0.00811260343955152
0.00838046449910255
0.00868411951256143
0.00901749503516256
0.00937873257156059
0.00976878389843236
0.010171456658476
0.010563809658214
0.0109285968028454
0.0112525522317307
0.0115250810101827
0.0117339263130765
0.0118851761905386
0.0120071389800376
0.0121239172698861
0.0122545905249871
0.0124229270856622
0.0126566025352862
0.0129852711024317
0.0133683521679538
0.013770270137593
0.0141719398628474
0.0145200610905795
0.0147324530594818
0.0145351695493592
0.0137536191916266
0.0125198070403522
0.0112705118790848
0.0101697094581356
0.00974552749728334
0.0106805405111372
0.0105941659467888
0.0101310667067889
0.00927231423936776
0.00783864145676235
0.00605121490806257
0.00459811595337839
0.00323865514134802
0.00243946829090942
0.00189418902922368
0.00148255506409695
0.00122440741732218
0.00108614028651868
0.0010164807054423
0.000987795982367486
0.000985265767998418
0.00100913532802737
0.00106324784295672
0.00115091884505944
0.00127134166089522
0.00142384481147443
0.00160833841364836
0.00182216169031501
0.00206189098743311
0.00232542389212509
0.00261321440026419
0.00292541993461789
0.00325831417137739
0.00361022881850695
0.00398236905436829
0.00438010885441228
0.00481438060128701
0.00530184849980084
0.00585335160215032
0.00638632511383948
0.00686476271543377
0.00729843673146289
0.00769613173320113
0.00806416750587605
0.00840516025530312
0.00872028601130839
0.00901266702038285
0.00928401362833755
0.00953537518719313
0.00976747273886594
0.00998089475670802
0.010176173622444
0.0103537949761081
0.0105142091967749
0.010657853922403
0.0107851737189474
0.0108966419511261
0.0109927655018186
0.0110740897704912
0.0111411929664458
0.011194675634694
0.0112351622319651
0.0112632866575195
0.0112796818355522
0.0112849759818158
0.0112797888593089
0.0112647248329921
0.0112403706048172
0.0112072875699953
0.0111660096458169
0.0111169630718761
0.0110604631307524
0.0109969297199027
0.0109267581152106
0.0108505172794997
0.0107689569678817
0.0106824065275646
0.0105910477149181
0.0104949367375264
0.0103941139830312
0.0102886296544582
0.0101785557280149
0.0100638736711982
0.00994438376732287
0.00981976031607474
0.00968946821524395
0.00955283552064061
0.00940873547994871
0.00925573581919912
0.00909119260500174
0.0089121986809885
0.00870709527153853
0.0085459217156837
0.00855891263937709
0.00869713081286448
0.00891685856955078
0.00919048304962042
0.00950470012957027
0.00985236125233098
0.0102305613268227
0.0106386909284803
0.011060428753939
0.0114728137857336
0.0118580210515498
0.0122025308739347
0.0124958095855291
0.0127268968326261
0.0129021933062834
0.0130485667878131
0.0131894971720997
0.0133443905312524
0.0135365738434338
0.0137937614570699
0.0141425800944026
0.0145468800283177
0.0149722529009564
0.0153971647280636
0.0157669642678833
0.0159962044162411
0.0158182025202732
0.0150754060447544
0.0138856392472213
0.0126332295343513
0.0114695016607172
0.010898773415731
0.0116685055249134
0.0114795725586498
0.0109999925237567
0.0101305537612574
0.00880191406410164
0.00701753359817315
0.00564831112882773
0.00417317441213212
0.00308298849879721
0.00237172679891641
0.0018632297967515
0.00154069378612574
0.00136366013023372
0.00127144846337978
0.00122971657457385
0.00122021570702195
0.00124175993647441
0.00129771331734836
0.00139099358943533
0.00152032367810702
0.00168462279362346
0.00188330754176142
0.00211334696726339
0.00237127893088031
0.00265517515807598
0.00296554286884465
0.00330246100165182
0.00366257457561479
0.00404465807149149
0.00445022741749497
0.00488436864119025
0.00535648220731429
0.00588036474550029
0.00646119113714683
0.00702092897519999
0.0075253604713001
0.00798365372153565
0.00840443104675696
0.00879405914673124
0.0091540638339998
0.00948713838929345
0.0097961570087742
0.010082825973702
0.010348238448946
0.0105931662782159
0.0108182459900723
0.0110240583810969
0.0112111355981825
0.011379971781165
0.0115310459163946
0.011664841658451
0.0117818716591161
0.0118826814971031
0.0119678565088099
0.0120380152674713
0.0120937981919075
0.0121358707994783
0.0121649075890601
0.0121815808094747
0.0121865566912276
0.0121804912817847
0.0121640228765422
0.0121377696134429
0.0121023236335511
0.0120582534737606
0.0120060194994121
0.0119459602402631
0.0118785286583819
0.011804157693524
0.0117236031077021
0.0116374473107068
0.0115460318522749
0.0114495641434775
0.0113481260687122
0.0112417803590805
0.0111306006601646
0.0110146758356014
0.0108940111734822
0.0107684342854182
0.0106376533452891
0.0105011794314828
0.010358409894508
0.0102083225345783
0.010049660910574
0.00988006188161867
0.00969709812924601
0.00949134030282006
0.00932808035512304
0.00933031373219044
0.00946116778652651
0.00967896986790855
0.00995620561186754
0.0102784121281356
0.010637449804622
0.0110293847791658
0.0114521411204869
0.0118891862714505
0.0123175619705281
0.0127190462352201
0.0130800100335601
0.0133901227810625
0.0136396455545898
0.0138353038768595
0.0140026905012637
0.0141645513951947
0.014340398764395
0.014553030612343
0.0148299542161515
0.0151952039795075
0.0156161480991798
0.0160599258936512
0.0165026000288342
0.0168887068684461
0.0171285562951418
0.016962809477815
0.0162480265519041
0.0151027746786792
0.013865485618392
0.0126813706038278
0.0120019416796659
0.0126215929818547
0.0123345414033402
0.0118321961204326
0.0109294192553942
0.00970017759135866
0.00791894924235093
0.0066264611888086
0.00516402486260461
0.00380402616560913
0.0028811854814175
0.00226074485018549
0.00186853519390236
0.00164951380788071
0.00153275651357462
0.00147674649835514
0.00145953467545592
0.00147799163895709
0.00153466081814481
0.00163195805343359