/*--------------------------------*- C++ -*----------------------------------*\
  =========                 |
  \\      /  F ield         | OpenFOAM: The Open Source CFD Toolbox
   \\    /   O peration     | Website:  https://openfoam.org
    \\  /    A nd           | Version:  7
     \\/     M anipulation  |
\*---------------------------------------------------------------------------*/
FoamFile
{
    version     2.0;
    format      ascii;
    class       volScalarField;
    location    "20000";
    object      k_conv;
}
// * * * * * * * * * * * * * * * * * * * * * * * * * * * * * * * * * * * * * //

dimensions      [0 2 -3 0 0 0 0];

internalField   nonuniform List<scalar> 
15600
(
-1.00704485298373e-06
-1.56757912470912e-06
-9.17775504088397e-08
-9.2754756774382e-08
-3.14719303797977e-08
1.10160849493387e-08
2.18615358258587e-09
-1.76891599473527e-08
-1.77171093823105e-08
-1.0682927968812e-08
-5.11765196569571e-09
-1.957337101011e-09
-6.82112307269145e-10
-1.8389568469208e-11
-6.24228721884954e-11
-1.19668954867645e-10
-1.99505723944624e-10
-3.13715930846762e-10
-4.66162286108364e-10
-6.76265624073843e-10
-9.76460507360879e-10
-1.38159260196805e-09
-1.89493315193041e-09
-2.51534853927792e-09
-3.28734913101847e-09
-4.27729507929e-09
-5.34648701440898e-09
-6.3836404283043e-09
-7.2891921438758e-09
-8.11351011975269e-09
-9.15777879169936e-09
-1.18745613995238e-08
-2.34389975104442e-08
-3.29015436048134e-08
-3.45410870529204e-08
-3.52874924128381e-08
-3.56704640679583e-08
-3.57933451847982e-08
-3.57046986435225e-08
-3.54520877142827e-08
-3.50727021048457e-08
-3.47464879319199e-08
-3.42664994544277e-08
-3.30070657303184e-08
-9.36130125108499e-08
-1.71387768980235e-07
-2.49783822431806e-07
-3.27684011194594e-07
-4.03929835354835e-07
-4.77376745643445e-07
-5.46916189608455e-07
-6.11536951758976e-07
-6.7039724853828e-07
-7.22804746052841e-07
-7.68297519871254e-07
-8.06570938092017e-07
-8.37504997810992e-07
-8.61142268135776e-07
-8.77661955842248e-07
-8.87340755597746e-07
-8.90580486664146e-07
-8.87827328092376e-07
-8.79669140222126e-07
-8.66651156327435e-07
-8.49413710654548e-07
-8.28392795135277e-07
-8.03693082389788e-07
-7.75653850470056e-07
-7.44740935178888e-07
-7.11603128860921e-07
-6.76854893166712e-07
-6.41036347740901e-07
-6.04381833485495e-07
-5.66792460550614e-07
-5.2856980657547e-07
-4.89584096915268e-07
-4.50369881434155e-07
-4.1055539913915e-07
-3.70497489300102e-07
-3.28843789490878e-07
-2.8656091087675e-07
-2.4033908604817e-07
-1.92711933018128e-07
-1.35256345074552e-07
-7.49102622424922e-08
1.36039689045932e-09
1.16357008841078e-09
-1.76512374841004e-09
-1.54095119128188e-07
-2.84093587124704e-07
-4.91391181918209e-07
-6.69472945375836e-07
-8.77608948118558e-07
-1.11066508552381e-06
-1.38964704861253e-06
-1.80533613162945e-06
-2.21427484543369e-06
-2.52158796926891e-06
-2.74283069653151e-06
-2.8215540853328e-06
-2.71811624344898e-06
-2.25340750218018e-06
-1.73624111182559e-06
-1.52663672939304e-06
-1.45899830620928e-06
-1.51250065977848e-06
-1.84819337289507e-06
-2.6544676690302e-06
-4.38485107078023e-06
-5.35529058719714e-06
-6.36537144022032e-06
-7.44239134970986e-06
-8.09850920630987e-06
-5.59187017351305e-06
-3.72141656629876e-07
-5.07203184580684e-07
-4.07191276569875e-07
-2.25321079160497e-07
-1.06776399970979e-07
-1.22216528208721e-07
-1.74059051086218e-05
-2.69550091163084e-05
-6.22637920492739e-06
-6.38876093288258e-06
-3.28568736234558e-06
1.1499842770474e-06
2.14356102641274e-07
-2.49932786285548e-07
-2.98710924409986e-07
-1.85571484549978e-07
-8.68707429499714e-08
-3.18790333324578e-08
-8.19229593689534e-09
-1.32004557291178e-09
-5.22896056786649e-09
-1.01480329514578e-08
-1.69953642877737e-08
-2.65031391177668e-08
-3.93852696006412e-08
-5.72433275328311e-08
-8.24160516284754e-08
-1.16325744393556e-07
-1.59635508197407e-07
-2.12916839875875e-07
-2.79069232723875e-07
-3.61045474457047e-07
-4.50624608088169e-07
-5.3931402571823e-07
-6.19542542618151e-07
-6.93209875148719e-07
-7.96351262460014e-07
-1.05229559769717e-06
-1.81558984001396e-06
-2.43213095407524e-06
-2.58635081599216e-06
-2.68795327424705e-06
-2.75619180433793e-06
-2.80443863427078e-06
-2.8366263012904e-06
-2.85738380983136e-06
-2.87085608648171e-06
-2.8935426452565e-06
-2.90757789337432e-06
-3.74103904411328e-06
-5.37257649084808e-06
-6.99915105970992e-06
-8.61326953465341e-06
-1.01938288341471e-05
-1.17195150240992e-05
-1.31696881007409e-05
-1.45249499297806e-05
-1.57681242423467e-05
-1.68852502264861e-05
-1.78654177071665e-05
-1.87016669973198e-05
-1.93900217459677e-05
-1.99296941262204e-05
-2.03227181440152e-05
-2.05734757671407e-05
-2.06881564905825e-05
-2.06750052534482e-05
-2.05433051822879e-05
-2.03043602379608e-05
-1.99688970505178e-05
-1.95481316912746e-05
-1.90493823981702e-05
-1.84756521183157e-05
-1.78339838368728e-05
-1.71343880885976e-05
-1.63896736624197e-05
-1.56115410851927e-05
-1.48097139952677e-05
-1.39878141564071e-05
-1.31448123476712e-05
-1.22852662055755e-05
-1.1408083007549e-05
-1.05219089606181e-05
-9.62121455026712e-06
-8.70742792121334e-06
-7.75944192070611e-06
-6.78355178340416e-06
-5.72778892311143e-06
-4.60178166784404e-06
-3.27692185400937e-06
-1.8292655588908e-06
-4.46319838789982e-08
5.42309920121901e-08
1.51290792261378e-07
-3.54174241642478e-06
-7.02268335840451e-06
-1.14186346201829e-05
-1.53695490845398e-05
-1.97926964793072e-05
-2.4718949097867e-05
-3.06116361992025e-05
-3.89661629712443e-05
-4.72829053561019e-05
-5.38119262073553e-05
-5.86407109627378e-05
-6.08894697783814e-05
-5.9595476021171e-05
-5.18671351996393e-05
-4.24266121402304e-05
-3.74434708710182e-05
-3.53299617546462e-05
-3.58712205222561e-05
-4.14838220937463e-05
-5.642359639601e-05
-8.70638554103628e-05
-0.000109430845947501
-0.000131515092929616
-0.000154290075068075
-0.000170275875968754
-0.000133308472726225
-2.69510969795987e-05
-3.05991648616351e-05
-2.55633407444646e-05
-1.48374338179785e-05
-6.58784291519029e-06
5.00555132654822e-08
-6.14231804946886e-05
-0.00011771756514876
-4.78053684737539e-05
-4.49647849309779e-05
-2.70994380084454e-05
1.0391283993314e-05
3.33335342330125e-06
-4.45652579566559e-07
-1.20847085189838e-06
-7.75111854244615e-07
-3.46843240927502e-07
-1.11063802417945e-07
-4.12553403390317e-09
-7.30010902538529e-09
-4.95646189545546e-08
-1.02096145956664e-07
-1.73579219026075e-07
-2.70793319773616e-07
-4.03611847285356e-07
-5.88002752699122e-07
-8.44474312184596e-07
-1.1890913188841e-06
-1.6325529662982e-06
-2.18306189453284e-06
-2.85893759478429e-06
-3.6769164499011e-06
-4.57811356065419e-06
-5.48846768881592e-06
-6.32829804444402e-06
-7.10972354220953e-06
-8.17426378342065e-06
-1.04015644072171e-05
-1.64597268113895e-05
-2.12793453032544e-05
-2.30330425645034e-05
-2.46263937953139e-05
-2.58011532908949e-05
-2.68069749999077e-05
-2.76645196863118e-05
-2.8440141773023e-05
-2.91789954572577e-05
-3.00791116801004e-05
-3.24049707040934e-05
-4.09075434503105e-05
-4.85694462707799e-05
-5.6045958285823e-05
-6.32648681079667e-05
-7.01563638122378e-05
-7.66527806406819e-05
-8.26910873831389e-05
-8.82150549003099e-05
-9.31777804173753e-05
-9.75439252959341e-05
-0.000101289031675601
-0.000104400975077635
-0.000106877312676146
-0.000108725073041265
-0.000109959652942379
-0.000110603417271823
-0.000110684390930685
-0.000110236812423574
-0.000109298682613372
-0.000107913415592628
-0.000106121509784697
-0.000103960157659823
-0.000101451214342478
-9.86069886362731e-05
-9.54552915349341e-05
-9.20387555682114e-05
-8.84094549730779e-05
-8.46123200569536e-05
-8.06832593775917e-05
-7.66316028435326e-05
-7.24517836472274e-05
-6.81574366124538e-05
-6.37442961335133e-05
-5.92449206315603e-05
-5.46344138496603e-05
-4.99041354025981e-05
-4.46534543440616e-05
-3.94629839076093e-05
-3.38403186570986e-05
-2.77484490157606e-05
-2.06123058403177e-05
-1.24164163487837e-05
-2.05642919115309e-06
1.17623089408743e-07
1.96133888387542e-06
-1.97689114289754e-05
-4.01733231814054e-05
-6.26781584838188e-05
-8.31863522442419e-05
-0.000105309683937279
-0.000129715078416784
-0.000158749174225906
-0.000198142422925759
-0.000238291716236341
-0.000271992322173823
-0.000298750824104746
-0.000315195385401602
-0.000316310780968558
-0.000290633602400494
-0.000253312825652529
-0.0002286240281814
-0.0002160780722675
-0.000216573148199764
-0.000239394621498459
-0.000306216764432541
-0.000438916303200155
-0.000556450194271368
-0.000668539580440802
-0.000777194157446968
-0.000856900114943425
-0.00073417584968703
-0.000239363257349048
-0.000211825357511473
-0.000158026481548757
-8.34604771302102e-05
-2.88619046794937e-05
1.32078014537256e-05
-2.07796255629744e-05
-0.000210619389756408
-0.000150601779960642
-0.000121251211432018
-9.66646654485997e-05
3.21381648228189e-05
2.26336149733521e-05
3.41982049417062e-06
-1.92977060700091e-06
-1.37200576459281e-06
-5.17743342781376e-07
-5.17846752138303e-08
1.7725776748381e-07
1.14203720023553e-08
-1.88794273984025e-07
-4.3678513509944e-07
-7.67029855322138e-07
-1.21252955631027e-06
-1.82097884366211e-06
-2.66061918854218e-06
-3.81281456981517e-06
-5.34774239105859e-06
-7.3134064356444e-06
-9.72858375076346e-06
-1.26241427056446e-05
-1.60457721746127e-05
-1.97632428188365e-05
-2.34851456832638e-05
-2.68504797560367e-05
-2.98406684069159e-05
-3.3394504877156e-05
-4.006900682194e-05
-6.00939149398486e-05
-7.41329920094757e-05
-8.0242601287145e-05
-8.73196129971668e-05
-9.24730611709463e-05
-9.7189075336088e-05
-0.000101423552191031
-0.000105499018885658
-0.000109515616484555
-0.000113718385772796
-0.000133470248956216
-0.000147019334212983
-0.000159779168421743
-0.000171682555322212
-0.000182698040801187
-0.000192791580772031
-0.000201931857248119
-0.000210092736799203
-0.000217256567785437
-0.000223415093106396
-0.000228570420072744
-0.000232733660481646
-0.000235924509442475
-0.000238169838020556
-0.000239501740859848
-0.000239957247789626
-0.000239577802820109
-0.000238408809329839
-0.000236500314538353
-0.000233905712555793
-0.000230681353444315
-0.000226876081180117
-0.000222523559079649
-0.000217635444111029
-0.000212223510112024
-0.000206320169919934
-0.000199986168066239
-0.000193293059634202
-0.000186294983888513
-0.00017903399672998
-0.00017150673186485
-0.000163689017612882
-0.000155585759503228
-0.000147181430328954
-0.000137697504095992
-0.000128227559170558
-0.000118844950305526
-0.000108913624536024
-9.83244234395315e-05
-8.66599942718199e-05
-7.3687869030002e-05
-5.83060406123914e-05
-3.99454411281351e-05
-1.55439392989288e-05
-2.62310475098335e-06
6.09084135984434e-06
-4.32641915765252e-05
-8.97392376048095e-05
-0.000136129153091098
-0.000178358359056314
-0.000222215496818301
-0.00026998203514703
-0.000326251229066687
-0.000399387254519179
-0.000476947451255328
-0.000548433616629434
-0.000611586055958924
-0.000661427439606661
-0.000687987974855358
-0.000673298349905888
-0.000630879835458752
-0.000593241089219662
-0.000571014615459883
-0.000572335231586258
-0.000612581829496184
-0.000739193824187429
-0.000981665650072961
-0.00124395074438808
-0.00149600629568512
-0.001726851751559
-0.00190857836364895
-0.00177196530379984
-0.000828373723867284
-0.000620964746906082
-0.000307358845132623
-4.32243465869467e-05
6.66572408335987e-05
0.000161936771215994
0.000309186585172165
-0.000125689022967843
-0.000231981600754853
-8.79044419325738e-05
-0.000149502088159073
4.23984986389509e-05
9.83384254065728e-05
1.59135175392456e-05
1.53268886277845e-06
1.53903350846475e-07
6.10935859507138e-07
8.54489838570425e-07
1.05339179314408e-06
2.25530116342699e-07
-4.00188468615867e-07
-1.16822733389679e-06
-2.17343286672894e-06
-3.52005410708841e-06
-5.33668357553128e-06
-7.79464833005977e-06
-1.1082814914954e-05
-1.53397477994168e-05
-2.06107053156674e-05
-2.68000839671099e-05
-3.38255173497166e-05
-4.171259177848e-05
-4.98291486117423e-05
-5.75868985673325e-05
-6.42304984681193e-05
-6.96852802110169e-05
-7.5418114330639e-05
-8.686032494427e-05
-0.000122347076492993
-0.000140619871555446
-0.000153028861079578
-0.00016948505305033
-0.00018073073736546
-0.000191153443259495
-0.000200375744047952
-0.000209240133982574
-0.000217886555174055
-0.000242031793653006
-0.000255619461240677
-0.000267409152494957
-0.000277965054562619
-0.000287329416116428
-0.00029555217535051
-0.000302669305440436
-0.000308715134834832
-0.000313724425028818
-0.000317736205787627
-0.00032079188272333
-0.000322935256448349
-0.000324210582583664
-0.000324661308041813
-0.00032433130319913
-0.000323261435440813
-0.000321491113234598
-0.000319059499489364
-0.000316006133776589
-0.000312371805958291
-0.000308198913432713
-0.00030352972713883
-0.000298396754574531
-0.000292809502004416
-0.000286756198324552
-0.000280237257652726
-0.000273269544427463
-0.000265904391576253
-0.000258201101412804
-0.000250196303537864
-0.000241919914769343
-0.000233349984263484
-0.000224439400175519
-0.000213816097979545
-0.000203097882933239
-0.000193012394262087
-0.00018250445050553
-0.000171476865622039
-0.000159728706154703
-0.000147068596866179
-0.000133023227237027
-0.00011716358005523
-9.82383068750172e-05
-7.51376139521478e-05
-4.41556656746647e-05
-1.15197764380548e-05
6.15315774438779e-06
-5.21199722397474e-05
-0.000108580291788511
-0.00016284540396689
-0.000212746693027937
-0.000262769005643075
-0.000316237252124708
-0.000378167178801454
-0.000455716510416581
-0.000541248104616268
-0.000626901439012065
-0.000709532403926695
-0.000785293597551624
-0.000843435748684558
-0.000868735290445742
-0.00086298352554781
-0.000843471485134139
-0.000828189133482393
-0.000833903197615726
-0.000873278960622036
-0.00100840837012942
-0.00125385422031349
-0.00158980957916477
-0.00194253050466012
-0.00227044349149807
-0.00258116685318512
-0.00260299060631602
-0.00194775532363384
-0.0012553723245851
-0.000404015961648299
0.000410629614757883
0.000623148937678058
0.000726349304431136
0.000677512870407428
0.000112435532013241
-0.000203161166158399
0.00024991298658801
7.77052506975642e-05
7.52586776845141e-05
0.000296793670918134
4.9366429680726e-05
1.90227455991386e-05
8.97869596743968e-06
5.9252867787355e-06
4.23189464273368e-06
2.98368632912492e-06
1.15616774952572e-06
-3.50549564234154e-07
-2.16020151258348e-06
-4.48015641533607e-06
-7.53518102007389e-06
-1.15280307828744e-05
-1.6708099276375e-05
-2.32990944005948e-05
-3.1332426897297e-05
-4.06159761209376e-05
-5.07169224643949e-05
-6.14255480324882e-05
-7.28745601931438e-05
-8.42416645456683e-05
-9.52498918298266e-05
-0.000105220098359103
-0.000114477301743344
-0.000125510134533119
-0.000146277234410838
-0.000190818630872104
-0.000206907322463703
-0.000229097035765271
-0.000254196506892333
-0.000269834057584373
-0.00028363320826655
-0.000295065880456287
-0.000305630230660003
-0.00032186063047901
-0.000339231943025952
-0.000347503330423186
-0.000354711011167536
-0.000360746372119106
-0.00036569497595846
-0.000369636948929586
-0.000372633885592772
-0.000374743810767047
-0.000376023333802752
-0.000376531320704467
-0.000376324768695588
-0.000375458855714264
-0.000373983735335106
-0.000371943834743438
-0.000369380332287053
-0.000366326846480606
-0.000362812288433794
-0.000358863176271583
-0.000354504661182706
-0.000349761755861796
-0.000344660454967978
-0.000339226554382181
-0.000333476501213013
-0.0003274022391571
-0.000320974885817418
-0.000314182512467362
-0.000307025513167392
-0.000299541474434303
-0.000291774765921926
-0.000283747894185207
-0.000275483120274122
-0.000266948333633133
-0.000255104940976107
-0.000245553074532795
-0.000235799217974894
-0.000225678221462317
-0.000215120291267687
-0.000204012589557628
-0.000192157540326115
-0.000179332388549298
-0.000165083221148812
-0.000148904156258477
-0.000129603824491226
-0.00010586709024074
-7.3910621620194e-05
-2.96847407202179e-05
-6.15362608477273e-06
-5.48970886369906e-05
-0.000105539385042636
-0.000155762936081712
-0.000202899197501501
-0.00024901825605862
-0.000297214427259425
-0.000351898773108471
-0.000418587641751124
-0.000494116187645706
-0.000574315000746623
-0.000656521924070148
-0.00073828502232468
-0.000810212459882044
-0.000861058519046113
-0.000885774116940175
-0.000886457728522792
-0.000878540440990435
-0.000882156452570487
-0.000903947795486986
-0.00100854496056292
-0.00119390823951736
-0.00151087496280516
-0.00189256552377257
-0.00227059806667251
-0.0027028572518092
-0.00293002833615991
-0.00283561013923384
-0.00202530073920076
-0.00099259725427831
0.000608445458694048
0.00123097460587579
0.001554564491145
0.00103636937400329
0.000379996326649799
-0.000201794851114721
0.000657348891507144
0.000601955821113035
0.000445616089354079
0.000523055443622326
0.000141044522272221
6.74238360579292e-05
3.39150165383721e-05
2.04666234431407e-05
1.29772534151421e-05
7.79672328267901e-06
3.96056742755701e-06
9.61684575492077e-07
-2.50208575994222e-06
-6.80713453535055e-06
-1.22926066815597e-05
-1.90970262874188e-05
-2.74027691007173e-05
-3.7292452532548e-05
-4.85140856974471e-05
-6.06901663847822e-05
-7.34174729853813e-05
-8.68745195492985e-05
-0.000101498802396886
-0.000116611403398334
-0.000132526242148042
-0.000148752423020748
-0.000166289542172293
-0.000188584798356744
-0.00022281261228782
-0.000269341379449742
-0.000282320761832705
-0.000311303883874522
-0.000338096836192203
-0.000353280735655629
-0.000365949981994218
-0.000375672189464328
-0.000383111869912145
-0.000403810100548378
-0.000408280417339506
-0.00041252028758176
-0.00041578831875801
-0.000418072144861939
-0.000419465854332242
-0.000420052462944645
-0.000419896653058481
-0.000419059505123753
-0.0004176010919179
-0.000415583832136218
-0.000413066497237832
-0.000410104663340361
-0.000406745828960822
-0.000403029550024461
-0.000398990385322407
-0.000394652823840282
-0.000390034990420002
-0.000385151616784681
-0.000380015184381494
-0.000374637512688693
-0.000369031316151062
-0.000363210229548775
-0.000357179879497962
-0.000350922163455504
-0.000344396989785275
-0.000337581604157327
-0.000330463094865795
-0.000323067372864496
-0.000315427209771888
-0.000307557507019038
-0.000299468802033823
-0.000287462009861257
-0.000278593109326034
-0.000269381710775659
-0.000259823113600117
-0.000249899197529467
-0.000239539591061387
-0.000228628184240401
-0.000216975920093049
-0.000204350188861563
-0.000190321846031962
-0.000174362402990978
-0.000155356567744401
-0.000131936283192615
-0.000100476941937633
-5.33583147422478e-05
-2.6123410738856e-05
-6.0614309271148e-05
-9.99648319539453e-05
-0.000142395392605911
-0.000183452451757749
-0.000223156428644783
-0.000263798417832453
-0.000309016460230001
-0.000363350881199312
-0.000426106076117131
-0.000495893142471901
-0.000571042814251257
-0.000649879994450453
-0.000724379109120656
-0.000785077190022083
-0.000823999814608778
-0.000835226092111841
-0.000828843715800301
-0.000824179055043077
-0.000823606005006643
-0.000887709859406106
-0.00101004428126475
-0.00126730022613916
-0.00162429532797211
-0.00200009940218085
-0.00249616652874176
-0.00286351553468738
-0.00318059899296911
-0.00264909946744556
-0.00200030188898399
-6.1596975189452e-05
0.000997781461576389
0.00194526537560227
0.00113239058010069
0.000564081007403929
-0.000286108609189505
0.000854078682531663
0.00109163237273912
0.00110937277970031
0.000871622180318095
0.000342031840103501
0.000164640645441074
8.40239165920489e-05
5.00806778026118e-05
3.07427545010289e-05
1.75362078935173e-05
1.04624301772314e-05
5.28404255737453e-06
-3.74399362065056e-07
-7.13178822041988e-06
-1.5390386001579e-05
-2.5070978002941e-05
-3.62604160069996e-05
-4.89287603880382e-05
-6.27147637503785e-05
-7.74703474756617e-05
-9.32185781529253e-05
-0.000110491059365918
-0.000129593116765944
-0.000149979745822767
-0.000172437728272467
-0.00019676046385071
-0.000224585898571052
-0.000259362975388791
-0.00030487704999578
-0.000348419317837213
-0.00035928461663425
-0.000389583100303294
-0.000413042859101763
-0.000425049931088058
-0.00043446871456627
-0.000441201080372098
-0.00045020606398171
-0.000459342359008722
-0.000460960786911012
-0.000462137632283672
-0.000462489764855821
-0.000462033231948188
-0.000460861692784377
-0.000459054785817813
-0.000456674674592707
-0.000453779921471348
-0.000450428779417656
-0.000446682618575355
-0.000442598218021054
-0.000438228950776921
-0.000433618135986699
-0.000428799938138665
-0.000423802712942545
-0.0004186430561275
-0.000413330178871711
-0.000407869345579447
-0.0004022630524098
-0.00039651290618691
-0.000390621577814427
-0.00038459408575415
-0.000378429102421856
-0.00037210299327185
-0.000365567968134495
-0.00035879174942645
-0.000351750800813625
-0.000344461364351433
-0.000336947141009145
-0.000329220009740434
-0.000317668965479386
-0.000308808689544266
-0.000300065564287098
-0.000291002049117146
-0.000281599979003255
-0.000271831611254542
-0.00026162583568357
-0.00025086631553265
-0.000239370148490031
-0.00022690066809373
-0.000213044311396655
-0.000197264673314768
-0.000178498340434688
-0.000155361798193275
-0.000124414724197577
-7.69379101472737e-05
-4.70024771861331e-05
-6.97620675990859e-05
-9.73399814506643e-05
-0.000131342355223186
-0.000165716769994911
-0.000198941090868281
-0.000232404771414992
-0.000269041874182225
-0.000312950815240368
-0.00036465239644258
-0.000424639954057649
-0.000492284425144706
-0.000566255751137449
-0.00063951173999606
-0.000702794492285048
-0.000746601156165955
-0.000761624658200533
-0.000753437099409675
-0.000738736725396187
-0.000717806261513385
-0.000744313088869792
-0.000817044502022784
-0.00101205720713274
-0.00132341741832752
-0.00166934211730305
-0.00218186099135133
-0.00262800034626608
-0.00324435974745804
-0.00304162876559534
-0.00284051893875777
-0.00106912115883821
9.16161376811859e-06
0.00159625092716151
0.000820586934838682
0.000428121881581473
-0.000425177255721401
0.000807826025079158
0.00139265070308198
0.00179307318433498
0.00133894531455122
0.000709602628608641
0.000248881227294194
0.000161184352349553
9.73075658060274e-05
5.81741921375279e-05
3.40174010105011e-05
2.22760293401083e-05
1.41358899445305e-05
5.79179803659466e-06
-3.76572488503877e-06
-1.50074029352086e-05
-2.76460770838971e-05
-4.18000287568543e-05
-5.74017561898423e-05
-7.41115293691773e-05
-9.21268884681475e-05
-0.000111812439453985
-0.000133712993523243
-0.00015780071278986
-0.000183860414108816
-0.000213091714267928
-0.000245615206436488
-0.000283302612987044
-0.000328648199680009
-0.000381581973331926
-0.000420422483927296
-0.000429814910291868
-0.000457919415274072
-0.000476509935932315
-0.000484833440280285
-0.00049076154882214
-0.000494130906483883
-0.000505436295232062
-0.000504463126724377
-0.000503838487876949
-0.000502758244717729
-0.000500993229281954
-0.000498565813636726
-0.000495566686252943
-0.000492070850951779
-0.000488136259051734
-0.00048381705957264
-0.000479167615305894
-0.000474246545723767
-0.000469107218907556
-0.000463800026204905
-0.000458363914230161
-0.00045282789000497
-0.000447214976131658
-0.00044153513821807
-0.000435790277425971
-0.000429978050790911
-0.000424093051186382
-0.000418128890723685
-0.000412080569183169
-0.000405946894107488
-0.000399722116902143
-0.000393379817156088
-0.000386866791931049
-0.00038014214671574
-0.000373173844955801
-0.000365969831396348
-0.000358546230389201
-0.000347928706407092
-0.000338474473050699
-0.000330095159576932
-0.000321422449639796
-0.000312438249370416
-0.000303115063839558
-0.000293419108755491
-0.000283277801022739
-0.000272574776848995
-0.000261130306624364
-0.000248704145471787
-0.000234889661057215
-0.00021914359988547
-0.000200431904200066
-0.000177355665237593
-0.000146633690672833
-9.88894152857662e-05
-6.680899264161e-05
-8.12534188331099e-05
-9.81170961769943e-05
-0.000123968408247603
-0.000151800672813364
-0.000178978264437991
-0.000206063895522542
-0.000235398828089698
-0.000270949353113492
-0.000313796806320571
-0.000365690289788976
-0.000426924306096393
-0.000496277010975442
-0.000567335540641049
-0.000630286956136732
-0.000674592621016507
-0.000689869349211557
-0.000678596144686898
-0.000654345428008121
-0.000616721720207877
-0.00061182928536758
-0.000647792429913623
-0.000790953305798073
-0.00105512618054373
-0.00136535177662991
-0.00187195823996889
-0.00236756740082268
-0.00319880506984404
-0.00330929872392749
-0.00341829411193786
-0.00191318789244467
-0.00110090452590932
0.000738469276840006
0.000216289996865798
0.000168507815378791
-0.000584161944265262
0.000559242817196124
0.0015810381222571
0.00227547291015705
0.00201653213894195
0.00106966562650938
0.000395293143094831
0.000259460357815294
0.000159150006560537
8.8989873445141e-05
5.73534851145066e-05
3.94223812286417e-05
2.73954414320386e-05
1.58412154972932e-05
3.1421366590964e-06
-1.13192878492215e-05
-2.71668165864108e-05
-4.4608282573171e-05
-6.34893720581476e-05
-8.35157099743649e-05
-0.000105195749257482
-0.000129112607931004
-0.000155688961973346
-0.000184647187265472
-0.000216228001015994
-0.000251907837509995
-0.000292021558267351
-0.000338224863877081
-0.000391596820607159
-0.000448910558983105
-0.000483078278448478
-0.000491260760205618
-0.000515859886484367
-0.000529801999720432
-0.000534812508940429
-0.000537697718645755
-0.000537434074549158
-0.00054514413368641
-0.000542654042823247
-0.000540323196452068
-0.000537594048056629
-0.00053430483693832
-0.000530474890055817
-0.000526190771554602
-0.000521522403238678
-0.000516522555258533
-0.000511239918163452
-0.000505723686139208
-0.000500028803430451
-0.000494204373504708
-0.000488297434053078
-0.000482342561230272
-0.000476363813041737
-0.000470379615462639
-0.000464394256525182
-0.000458403509726457
-0.000452398799894874
-0.000446368356066369
-0.000440299417777382
-0.000434181033852679
-0.00042800746124965
-0.000421770224808057
-0.000415441946834331
-0.000408965728837194
-0.000402292618200829
-0.000395383934084096
-0.000388240174917426
-0.000378924349562579
-0.000368485232427746
-0.000360340075950757
-0.000351967463060073
-0.000343307937392049
-0.000334336570642233
-0.000325018778893516
-0.000315316276134439
-0.00030515429252464
-0.000294415816798051
-0.000282921884411181
-0.000270427476479154
-0.000256526538963474
-0.000240665919014199
-0.000221824753338324
-0.00019857939871553
-0.000167772280782955
-0.000119316524204671
-8.54616005233636e-05
-9.42527383345988e-05
-0.000101762527898019
-0.000119983589259829
-0.000141584163860314
-0.000163163994027207
-0.000184587400733013
-0.000207713933185111
-0.00023654111676477
-0.000272369911554847
-0.000317787707631657
-0.0003738473895384
-0.000439295859873867
-0.000508063220828919
-0.000569473762236942
-0.000612206563263567
-0.000625903883805289
-0.000611133650293816
-0.00057842879886368
-0.00052746470055632
-0.000497284829689837
-0.000505869679283676
-0.000608638876128822
-0.000830616383231669
-0.00110854215701862
-0.00160149499843514
-0.00213690816386582
-0.00312857375193801
-0.00351545596467944
-0.00383562071539115
-0.00256531955753124
-0.00197212764984923
-0.000256427937258783
-0.000490463503590954
-0.000303322624270178
-0.00077088759487709
0.000149263087213033
0.00176361441288514
0.00250259270954894
0.00296648363913404
0.00131097612276072
0.000599102676577714
0.000336662161600159
0.000218748472374475
0.000130901285363529
8.58750558263536e-05
6.03442336023377e-05
4.35065049353412e-05
2.83120525734904e-05
1.23111611073155e-05
-5.39081840794869e-06
-2.44961112867407e-05
-4.52985335363358e-05
-6.75149430716639e-05
-9.09314224586729e-05
-0.000116309945031383
-0.000144370364209548
-0.000175397197873442
-0.000208973812528074
-0.000245781425652297
-0.000287422646070165
-0.000334290625965582
-0.000387527464893202
-0.000446751657177329
-0.000506551645553232
-0.000536777877419172
-0.000543944594336301
-0.000564906018355501
-0.000574930255127788
-0.000577177504262662
-0.000577664825369641
-0.000575032468726183
-0.000579584098099802
-0.000575879263336472
-0.000572283856271528
-0.000568374479133351
-0.000564016379109969
-0.000559220544502238
-0.00055406863903724
-0.000548625039948937
-0.000542936470579088
-0.000537045348643686
-0.000530994647897046
-0.000524834984567897
-0.000518610488043157
-0.00051236456826134
-0.000506127415142169
-0.000499918218865856
-0.000493751374804489
-0.000487626184284289
-0.000481533162725391
-0.000475458538193966
-0.000469385345513836
-0.000463295683402511
-0.000457173942945052
-0.000451011028637867
-0.000444796903401958
-0.000438504567062717
-0.000432074887900265
-0.00042545106820055
-0.000418589593406908
-0.000410820871428836
-0.000399248747531751
-0.000391243795656987
-0.000383065384405077
-0.000374657817829831
-0.000365960984081702
-0.000356944881448464
-0.000347569192077908
-0.000337791807735341
-0.000327535167815167
-0.000316680802297452
-0.000305048676031623
-0.00029238734445252
-0.000278286761100285
-0.000262179914754798
-0.000243047811015923
-0.000219432201020371
-0.000188263063367111
-0.00013861161394285
-0.000103271016339761
-0.000108273916916519
-0.000107703195937249
-0.000118858370094057
-0.000134555209142328
-0.000150912211834134
-0.000167235819113278
-0.000185007195180641
-0.00020833502975983
-0.000238558315301227
-0.000278820774396059
-0.000330761780774366
-0.000393001034960892
-0.000459583089442757
-0.000518885093032388
-0.000559012273819749
-0.000570155487056939
-0.000551808358839002
-0.000511771884602246
-0.000450131395952627
-0.000399856161956219
-0.000387599640688276
-0.000459264531068017
-0.000644987419265743
-0.000896341406143403
-0.00137437613652156
-0.00194847261335685
-0.00306645952712945
-0.00368926369173635
-0.0041503815656305
-0.00310212709446971
-0.00259029108328822
-0.00115702973483953
-0.00116051983284671
-0.000883469275277494
-0.000979074234196397
-0.000367844883479862
0.00196627078724246
0.00248888776100326
0.00397714392323901
0.00152589065204597
0.000877458638111393
0.000434549595403295
0.000280075777241845
0.000177759294764245
0.000117710634353318
8.33903222958031e-05
6.09644882703481e-05
4.18831091314754e-05
2.26770570799954e-05
2.00257556170749e-06
-2.01179868279556e-05
-4.40692765349316e-05
-6.94435233407737e-05
-9.61299598725774e-05
-0.000125067693558431
-0.00015705532190801
-0.000192262804857647
-0.000230204031609718
-0.000271912661088818
-0.000318994339993308
-0.000371766528954867