/*--------------------------------*- C++ -*----------------------------------*\
  =========                 |
  \\      /  F ield         | OpenFOAM: The Open Source CFD Toolbox
   \\    /   O peration     | Website:  https://openfoam.org
    \\  /    A nd           | Version:  7
     \\/     M anipulation  |
\*---------------------------------------------------------------------------*/
FoamFile
{
    version     2.0;
    format      ascii;
    class       volScalarField;
    location    "20000";
    object      k_diff;
}
// * * * * * * * * * * * * * * * * * * * * * * * * * * * * * * * * * * * * * //

dimensions      [0 2 -3 0 0 0 0];

internalField   nonuniform List<scalar> 
15600
(
0.000443414043354279
0.000469403593366923
0.000379046787893202
0.000257749113468976
0.0001401223149694
6.12105540846052e-05
2.75102480293488e-05
2.08160721418771e-05
1.71244909558157e-05
1.21002576191028e-05
8.39974164258411e-06
6.35178389843867e-06
5.28371931161152e-06
4.71294578105952e-06
4.42306691497696e-06
4.31109542046552e-06
4.38387997424184e-06
4.66428356604955e-06
5.18090693949132e-06
5.92961000196246e-06
6.91828361308155e-06
8.18623955330034e-06
9.75120320436862e-06
1.16097514244894e-05
1.37553091212202e-05
1.62422552098555e-05
1.91728443270317e-05
2.25120307186325e-05
2.61978308981331e-05
3.01706124499088e-05
3.44501905479049e-05
3.92637802436699e-05
4.55581690904813e-05
5.64064251235687e-05
6.93422794168987e-05
8.15596284229561e-05
9.31670854367728e-05
0.000104298744925469
0.000115040779583829
0.000125448320583786
0.000135562634674203
0.000145417575408673
0.000155085338511468
0.000164571988153615
0.000173641383899244
0.000182183564662341
0.000190168838369943
0.000197567741843793
0.000204354148089582
0.000210506630916836
0.000216009413016618
0.000220853456245952
0.000225036970742688
0.000228564931141112
0.000231449050055909
0.000233706301683867
0.000235358603838655
0.000236431716740876
0.000236954245332905
0.000236956934791781
0.000236472512844497
0.000235534627995473
0.000234178072750379
0.000232435866328522
0.000230338445029126
0.000227906979724124
0.000225156334683407
0.000222109417911754
0.00021879365238023
0.000215242363567419
0.000211487959844215
0.000207553514457249
0.00020344862918397
0.000199175305372543
0.000194744821590568
0.000190158530877596
0.000185416196004317
0.000180521004601322
0.000175460499200176
0.000170175668475661
0.000164658357827
0.000158813530597042
0.000152568553332753
0.000145718324267407
0.000138097489188571
0.000129262896903095
0.000119027512573116
0.00011184215056181
0.000120213341157756
0.000132165707222344
0.000147143718803627
0.000163720237282684
0.000182631953989124
0.000204211634499949
0.000229293295905748
0.000260047282646456
0.000294246700113198
0.000328939392730096
0.000362833513921137
0.000394162020623852
0.000420956093259826
0.000438574740065247
0.000449523834546971
0.000462051493330377
0.000478795389301111
0.000501794273845145
0.000535901913899836
0.000589038540993269
0.000674197044855226
0.000767822020971393
0.00086727458316461
0.000970372917673868
0.00106566670817343
0.00110630194963184
0.000989823646873438
0.000808720809983161
0.000635383658694593
0.000504833045431975
0.000416073990140159
0.000416502538686873
0.00239258786198162
0.00252023262291832
0.00205793788168186
0.00140540059209045
0.00076861905806583
0.000339773744566338
0.00015216500326741
0.000113933246236197
9.37694331811122e-05
6.65206487387396e-05
4.62433678836714e-05
3.49391531083732e-05
2.90209618195392e-05
2.58483751686732e-05
2.42228932460948e-05
2.35768917149486e-05
2.39374130221426e-05
2.54270239456421e-05
2.82038838841819e-05
3.224846674366e-05
3.76001984450349e-05
4.44718960867754e-05
5.29649534057027e-05
6.30647082350203e-05
7.47320470827319e-05
8.82523076933414e-05
0.000104185954245759
0.000122359670451116
0.000142440029057216
0.000164100431899979
0.000187409266903948
0.000213535175918198
0.000247482361181315
0.000305625980598691
0.000374985233938078
0.00044055320265738
0.000502847695475355
0.000562592877563296
0.000620264705059329
0.000676167434047058
0.000730528246177884
0.000783521787944955
0.000835562678019683
0.000885860440109602
0.000933198479177012
0.000977769193666603
0.00101941426278661
0.0010579949517556
0.00109338864698593
0.00112549551106782
0.00115424331294881
0.0011795926114025
0.00120153882312216
0.00122011021786965
0.00123536717066069
0.0012473956134152
0.00125630537212259
0.00126222485720641
0.0012652963541975
0.00126567291618405
0.00126351729211983
0.00125899731112697
0.00125228596892697
0.00124354838329928
0.00123293607235965
0.00122055535140865
0.00120648369585596
0.00119083846023973
0.00117375894617217
0.00115541402686844
0.00113596924782829
0.00111554188199954
0.00109418270691697
0.00107190618723502
0.00104877120732628
0.00102478885203169
0.000999950871914485
0.00097428301913145
0.000947718434100568
0.000919960707645759
0.000890960603255658
0.000860259193885839
0.000827451502736717
0.000791562430127422
0.00075161143781344
0.000705423584064655
0.000650331034993494
0.000612168239747868
0.000654345202749271
0.000716253144964044
0.000793716581365783
0.000880386472214216
0.000979315006789852
0.00109227906513369
0.00122339760677125
0.00138251520938966
0.00155956562738578
0.00174036465679468
0.00191787864571865
0.00208340587235403
0.00222715227056335
0.00232779562763901
0.00239527765421129
0.00246757169379838
0.00255997241687558
0.00268379453159666
0.00286281417685252
0.0031353287156035
0.00356055235953672
0.00403447398027017
0.00453495084311506
0.00504754519258151
0.00551547714868998
0.00573730557566262
0.00521675336616768
0.00428278418793488
0.00339434603454049
0.00272139209362127
0.00225988098924018
0.00226533177143004
0.00541628511647463
0.00563106530492141
0.00472504670409537
0.00331174520608463
0.00186203178249391
0.000850170277334467
0.000374988562190661
0.000274942485673071
0.000225702917539999
0.000160821968420877
0.000112103834589735
8.47290804783835e-05
7.0327294448926e-05
6.25361540334353e-05
5.84857355420664e-05
5.68085144026597e-05
5.75389788864997e-05
6.09619435108002e-05
6.7445833582313e-05
7.69353273165123e-05
8.94974347129373e-05
0.000105603096962212
0.000125461874189083
0.000149001215086054
0.00017608530817537
0.000207328673559707
0.000243977111475994
0.000285625151990438
0.000331511643421317
0.00038088305822898
0.00043366698827865
0.000492211920488337
0.000567910260873629
0.000695458207274155
0.00084602331640327
0.000987959771547007
0.00112305571076813
0.00125277239787131
0.00137832125721609
0.00150040202235305
0.00161954517638388
0.00173600340233268
0.00184946890071256
0.00195397327651786
0.0020538269255325
0.00214831715187857
0.00223714636156813
0.00232003103276217
0.00239670767673272
0.00246694743063347
0.00253056746269011
0.00258744255514152
0.00263751010880309
0.00268076941425839
0.00271728064076949
0.00274715569553103
0.00277055622285155
0.0027876844433952
0.00279877516780696
0.00280409087720893
0.00280391881537556
0.00279856344655721
0.00278834412715345
0.00277357455192598
0.00275454876738903
0.00273148333403095
0.00270454722333269
0.00267398705555349
0.00264008818689632
0.0026031965567622
0.00256366141433504
0.00252173513611515
0.00247754975218363
0.00243117170489295
0.00238274741946849
0.00233233396912358
0.00227990375898032
0.00222556801231314
0.00216920802896096
0.00211057294766162
0.0020489932783996
0.00198394077201052
0.00191453218062459
0.00183914975091238
0.00175555968860671
0.00165993079668789
0.00153822568243843
0.00145470626462265
0.00152879067781829
0.00165114867959417
0.00180696811337933
0.00198568047137413
0.00219046516732573
0.00242452540188144
0.00269466230664395
0.00301582158928175
0.0033732925369651
0.00374209201794295
0.00410663389967427
0.00445066046407654
0.00475718189006858
0.00499294308574543
0.00516789792017756
0.00534179910055691
0.00554860598269695
0.00581200547723453
0.00617327356339979
0.00669199666515773
0.00745903839845439
0.00831858281600524
0.0091989002923135
0.0100570980853343
0.0107870740742768
0.0111525255640605
0.0104578763957072
0.00871234857766607
0.00710465602920632
0.00593505674452307
0.00512324821131639
0.00518850875855729
0.00721324004873876
0.00738329005691903
0.00657131873981223
0.00499142821214069
0.00309372719911231
0.00155951950197221
0.000684144534484
0.000478767761256044
0.000388159232280216
0.000277612782111948
0.000194173862862053
0.00014688327072924
0.000121875490100678
0.000108077384919576
0.000100761788078939
9.75257697718221e-05
9.83572726189369e-05
0.000103695336955356
0.00011408038535985
0.000129323558980802
0.000149397081650683
0.000174874316942572
0.000205850968163403
0.000241938669895408
0.000282677985606524
0.000328810573831599
0.000381967302705258
0.000441402761044367
0.000506097268095925
0.000575145587203024
0.000648452097353557
0.00072996586790862
0.000838077944010711
0.00101687181757322
0.00122165720614107
0.00141412949901623
0.00159917381191242
0.00177736140208307
0.0019505354395494
0.00211928344275747
0.00228417439322097
0.00244535528874751
0.00258788018483876
0.00272861460591284
0.00286290162509727
0.00299036591303834
0.00311056273192287
0.00322308386859497
0.00332756084637056
0.00342368064640946
0.00351119700508961
0.00358994217381493
0.00365982991590797
0.00372085396566546
0.0037730838305949
0.0038166538348095
0.00385175979649117
0.0038786468662446
0.00389759939019298
0.00390893475895773
0.00391299837689853
0.00391015580249652
0.00390078874037404
0.00388528001207738
0.00386400072988212
0.00383724900834716
0.00380526931925287
0.00376838537345131
0.003726946523871
0.00368137056819325
0.003632096802075
0.00357945257947752
0.0035236558567134
0.00346486151636005
0.00340330087602448
0.00333910881103711
0.00327306405814284
0.00320426931912032
0.00313253798760242
0.00305796545023795
0.00298022773196055
0.00289881468169858
0.00281278421127814
0.00272090545502133
0.00262069211199833
0.00250948919440565
0.00236082742448068
0.00225481522313927
0.00230508695545569
0.00243162622361073
0.00260480503744801
0.0028141798807173
0.00305834962700298
0.00333998064551993
0.00366396303378888
0.00404124476293029
0.0044618546136049
0.00490115202054898
0.00533911342384087
0.00575721175515392
0.00613909878700339
0.00645664408144526
0.00670948832058489
0.00694744267358589
0.00721118249291555
0.00752634024720676
0.00793138136639101
0.00846264002480562
0.00919505214698935
0.0100052366203227
0.0107751457094123
0.0114426563317793
0.0118926598771121
0.0120554082577599
0.0116823793350296
0.00975732975352047
0.00801308428443239
0.00706169458590611
0.00658352211397344
0.00688270314537223
0.00526801973049095
0.00541678272287403
0.00551175233499035
0.00494322317653785
0.00371112437211054
0.002336898892987
0.00113324429063761
0.000719691686134898
0.000570476949970769
0.000408027795536227
0.000286100694543647
0.000216409191939261
0.000179393150016031
0.000158222083844536
0.000146739959588827
0.00014112991412747
0.000141214373043744
0.000147458996092647
0.000160355926579509
0.000179315043179857
0.000203902473816111
0.00023435719285963
0.000270222050038715
0.000310522652219913
0.000354521466154339
0.000403261546088545
0.00045871949754115
0.000520356449175148
0.00058793901070862
0.000661792040205173
0.000744181271759282
0.000844248187543617
0.000987877241221567
0.00121094222029442
0.00144618131870849
0.00166272479068512
0.00186943946577282
0.002064913363595
0.00225162152677953
0.00242985633315485
0.00260032105825239
0.00274783648250704
0.0028948377435019
0.00303339481353683
0.00316324847862769
0.00328424361924615
0.00339624302042922
0.00349915873992772
0.00359294446356002
0.0036776006708581
0.00375317759222219
0.00381978087668044
0.00387756932895536
0.00392675231746625
0.00396758284775255
0.00400034801856047
0.0040253664429817
0.00404297746820343
0.00405353279571618
0.00405739217557315
0.0040549191226987
0.00404647646009934
0.00403242344606452
0.00401311406448444
0.00398889363744752
0.003960056345073
0.00392684146978339
0.00388953408424748
0.00384841040923599
0.00380379504850914
0.00375604459120595
0.00370541831527508
0.00365212169377918
0.00359632416292326
0.00353960248641826
0.0034804522696207
0.00341830174887922
0.0033541415698408
0.00328797335295301
0.00321970109377341
0.00314916459705732
0.00307617870716958
0.00300026757175781
0.00292097772251249
0.00283699403227373
0.00274741271557406
0.00263784180344927
0.00254329445998897
0.00252998640244923
0.00260691322909385
0.00273466011624271
0.0029060034959908
0.00311491060326548
0.00336256566677668
0.00365050630478027
0.00398443425689675
0.0043622265150623
0.00476652417109248
0.00517902554593756
0.00558310506131155
0.00596536610202147
0.00630386610131958
0.00658425687777341
0.00683287424656793
0.00708409536561441
0.00735813213301642
0.00768666048135892
0.0080837156534413
0.00862682493296734
0.00925581684614601
0.0098527549943664
0.0103722758341644
0.0107112721948631
0.0108812240302217
0.0105938611761904
0.00882447540262173
0.00649676519954155
0.00523263402282044
0.00478552192236273
0.00491233909888346
0.00164992925332472
0.00192127357843808
0.00273998757275921
0.00329756423677635
0.00314015977921255
0.0026961947924115
0.00178965984202381
0.00101289592026428
0.000774568818079832
0.000549296579147941
0.000384600454457473
0.000289869556188201
0.000238721314872553
0.000209078612187239
0.000192247601495777
0.000182971538674378
0.000180705906785153
0.000185705179335323
0.000198099996645355
0.000216661304081765
0.000240460492823833
0.000269387432380973
0.000302751797192491
0.000339810682438263
0.000380760427248397
0.000427903704897085
0.000483677370167328
0.000547776870002491
0.000620821266625631
0.000704723261214873
0.000804948302166373
0.000934079769539876
0.00111789205790948
0.00136663693999127
0.00159529370110314
0.00179749095298949
0.00198563362435182
0.00215889503970014
0.00232075482221321
0.0024718948230236
0.00260723768878164
0.00273047419219896
0.00285140430590545
0.00296328655350172
0.00306664882058831
0.00316162979610045
0.00324836446437514
0.00332699760003393
0.00339767979878273
0.00346057203581119
0.00351585009544998
0.0035637128445105
0.00360438213407371
0.00363810538992915
0.00366515077319275
0.0036858019805101
0.00370035865122581
0.00370912828304696
0.00371241989694053
0.00371054136688746
0.00370379573705035
0.00369247865292496
0.00367687552740697
0.00365726740017832
0.00363393355304511
0.00360712429561379
0.00357703969846205
0.0035439039962741
0.00350791105087894
0.00346928816594918
0.00342829819875135
0.00338511985339873
0.00333992008404811
0.00329582895762051
0.00324755674443124
0.00319749436222135
0.00314587092042045
0.00309272506653053
0.00303809694675693
0.00298196673924064
0.00292430444725064
0.00286505605670697
0.00280410334018949
0.0027413439895197
0.00267643603644292
0.00260918068291947
0.00253965043295773
0.0024609877366179
0.00240823475885189
0.00244490657537949
0.0025316391800877
0.00266293154473175
0.00283145832938749
0.00303712407283812
0.00327978557120763
0.00356223063214074
0.0038868061888985
0.00424263422928878
0.00461558524476134
0.00499331796881305
0.00536662125201956
0.005721025762406
0.00603877767281644
0.00632886209439495
0.00661422678234363
0.00690830109588935
0.0072380863559702
0.00761528217056247
0.0081302261492086
0.00877502089994523
0.00945921298325407
0.0101627888381797
0.0107728942075224
0.0113098421661201
0.0112558700690556
0.00991278965010364
0.00674184551692462
0.00421861206959307
0.00261627920972799
0.00182987902159933
8.57482929837032e-05
0.000139321954406602
0.00088035641905882
0.00174894447653729
0.00201148969158996
0.00237155207057063
0.00235906819892935
0.00138950928479025
0.00101281916050928
0.00070540946617893
0.000490370035501987
0.000366021427111715
0.000297496411145461
0.000257696964630048
0.000234108766548612
0.000219690667197378
0.000213327743755783
0.000214926311132617
0.000224232949642844
0.000239678928471223
0.000260486369516376
0.000286920857057505
0.000318771616472278
0.000355960936077605
0.000399383301837285
0.000451437513012316
0.000513402467059247
0.000584055655562629
0.00066426030183215
0.00075691743287961
0.000868413491245362
0.00100878415201776
0.00119708689019452
0.0014176950584787
0.00160053497178821
0.00176416082040806
0.00191685975837695
0.0020577483349149
0.00218937605558206
0.00231326782586851
0.00241473788491736
0.00252222472546659
0.00262069951970255
0.00271167274633928
0.00279550302996818
0.00287233075290359
0.00294229672653315
0.00300554649831481
0.0030622269126565
0.00311248806994873
0.00315648693691456
0.00319439652398119
0.0032264055340565
0.003252723581382
0.0032735764504676
0.00328920213506036
0.00329985273691904
0.00330578694002039
0.0033072640360885
0.00330454159952636
0.00329787169106229
0.00328749854577782
0.00327365510555775
0.00325657203091199
0.00323648377869394
0.00321361210777183
0.00318813483952426
0.00316024355974698
0.00313008698646495
0.00309783800447588
0.00306370393301594
0.00302782420067587
0.00299401128802302
0.00295544947165858
0.00291565076502366
0.00287457504484944
0.00283227656100312
0.00278880210419879
0.0027442196300586
0.00269854450914167
0.0026518308760755
0.00260409010630976
0.00255541571515276
0.00250586673310986
0.0024556767380032
0.00240474646763054
0.00236035641486461
0.00229721292478091
0.00223013885740057
0.00224292197681116
0.00230185717741147
0.00240276508568557
0.00253881139032686
0.00270902341004962
0.00291241702034486
0.00314955813770347
0.00342447317586049
0.00373047463821012
0.00405700486788001
0.00439573287449955
0.00474134168454283
0.00508733876763264
0.00542051624120897
0.00574300455206038
0.00607065631201003
0.00641285235798555
0.00679088502290352
0.00721433708614767
0.0077574696664646
0.00843978414064277
0.00919139816933564
0.0100073773403159
0.010757398300421
0.0114809449058815
0.0117177232353866
0.0113162178970101
0.00860385954839923
0.00548556621429587
0.00263057614014237
0.000924464144895898
0.00063350434778243
0.000214260002624408
0.000437836962055432
0.00103047456766894
0.00117745306170971
0.00160467381682511
0.00247567472455791
0.0018227285105934
0.00128516709618933
0.000879805682190817
0.000607500966273367
0.000447400380193574
0.0003566213669964
0.000304938853809718
0.000273477860580483
0.000253159440331171
0.000242161483559256
0.000240107463335276
0.000246626258828476
0.00026023720810157
0.000280609892591237
0.000308177245968161
0.000342426040171384
0.000382761095780366
0.000429459723002007
0.000484006661251136
0.00054649099279123
0.000615664311390392
0.000693160065017471
0.000782344599636924
0.000888554730752859
0.00101749532325688
0.0011831888231699
0.00135733126455544
0.00149827868625039
0.00163169363829672
0.00175851521467055
0.00187728877865961
0.00198889035379372
0.00209018760397204
0.00218301820674067
0.0022748846708178
0.00235951823400195
0.00243781124933812
0.00251000087628037
0.00257618924411639
0.00263648918586826
0.00269102272036743
0.00273991605812944
0.00278329858702731
0.00282130446299302
0.00285408222726396
0.00288179306731996
0.00290461775584152
0.00292275151474884
0.00293640008483398
0.00294578309328154
0.00295112646324676
0.00295265652625
0.00295059793055766
0.00294516983642862
0.00293658346961545
0.00292503801591496
0.00291073102890363
0.00289386672956495
0.00287464855162303
0.00285324320248228
0.00282982556965121
0.00280451888741108
0.0027774636041094
0.00274883026408927
0.00272235123174267
0.00269172772251316
0.00265961448166653
0.00262646894265229
0.00259228958645244
0.0025571289715529
0.00252103823520278
0.00248410792632221
0.00244637875853596
0.00240796484588448
0.00236892177776512
0.00232948041553585
0.00228978884303948
0.00225045080134794
0.00221127043659996
0.00218327164225474
0.00213378073702391
0.00206270268985669
0.00206086568197828
0.00209987785369678
0.00217702904162757
0.00228643773387831
0.00242659180979665
0.00259594619531516
0.00279330701440861
0.00302327902589839
0.00328177569586971
0.00356076165490026
0.00385484095792531
0.00416135419668693
0.00447931077807955
0.00479958978630684
0.00512113421902354
0.005455952010175
0.00581139783313016
0.00620302659437211
0.00663717516213971
0.00716106154525938
0.00780466595849162
0.00850820917003922
0.0092715636418564
0.00995783073081155
0.0106158469002798
0.0108760748882148
0.0111243970126768
0.00969284169759917
0.0073483548294015
0.00414773632555977
0.00197369913144224
0.00204619703512285
0.00110543166562099
0.000879304878982083
0.000968899213142801
0.000890697268537297
0.000896940492174188
0.00192999174751573
0.00221979108065105
0.0014874207786603
0.001057238117706
0.000733437242844801
0.000534320682156532
0.00041925585623893
0.000354775117161893
0.000315195102371433
0.000289334533698529
0.000274454610636163
0.000269833209652663
0.000274944483915947
0.000288199772388389
0.000309134795129118
0.000337538447677755
0.000371987710022105
0.000411238904887044
0.000455227078358508
0.000505119463378097
0.000560818006673044
0.000621853364344451
0.000690329945698859
0.000769224687381213
0.000862208746716072
0.000971950095144206
0.00111072097716347
0.00124680149177849
0.00136075096856616
0.00147494904151587
0.00158527282731207
0.00169002963791582
0.00178922003586017
0.00187376557524674
0.00196296698953554
0.00204466808184231
0.00212019983962796
0.00219014973097207
0.00225469014606486
0.00231390138761531
0.00236788068045028
0.00241673800070275
0.00246058967899349
0.00249955538136816
0.00253375748116789
0.00256333154393859
0.00258842278896285
0.00260919468823373
0.00262582348199911
0.00263849374542782
0.00264740356935877
0.00265275668876745
0.0026547566813737
0.00265360519577706
0.00264949828805217
0.00264262374151547
0.00263315632745522
0.00262126878127244
0.00260714134483357
0.00259096266423385
0.00257289310052476
0.00255309790857993
0.00253168382090497
0.00250876902669391
0.00248748425873528
0.00246364515117011
0.00243747275202253
0.00241038174256855
0.00238241666284814
0.0023535971154482
0.00232397545542259
0.00229360494662717
0.00226259282490422
0.00223099842117475
0.00219897850707165
0.00216661796391537
0.00213423888468597
0.00210203218715066
0.00207084969758892
0.00204031238700089
0.00202385509638849
0.00198542829890983
0.00191405603468878
0.00190286049111727
0.00192698089405411
0.00198509292827671
0.00207232615217828
0.00218686086848591
0.00232675182328178
0.00248947347911276
0.00267987160853475
0.0028956471574772
0.00313068293026048
0.00338183812925176
0.0036483268897289
0.00393259663936588
0.00422767248247264
0.00452982368456721
0.0048481974865846
0.00518857403232992
0.00556097488072837
0.00596837271038281
0.00643422517812285
0.00699303801290594
0.0075929294268094
0.00823334286485578
0.00878468153624322
0.0092903141686334
0.00945001074982946
0.00985822083875975
0.00937221203691815
0.00828209839761215
0.00570753180823055
0.00360029607505041
0.00340451626064976
0.00229460068163485
0.00169909127777826
0.00126339945253654
0.00104699351755439
0.000510662696049691
0.0012448160785636
0.00229728651121971
0.0016617305965355
0.00121196192781047
0.000852941606791683
0.000614927495381977
0.000483684768509042
0.000407274285062154
0.000360269124584156
0.000329706649181057
0.000311637450445966
0.000304738085553882
0.000308069711688583
0.000319699852772941
0.000338743908037517
0.000364330797932737
0.000394603973501473
0.000428318388108068
0.000465561378840876
0.000507514601043293
0.000554172284680065
0.000605667746457303
0.000663961830445175
0.000731280971342614
0.000809998419864135
0.000901324739147236
0.00101729790404953
0.00112619750860559
0.0012228271438157
0.00132400711895519
0.00142298642175379
0.00151796346620109
0.00160922267380535
0.00168659192745767
0.00176732016352886
0.00184164630587224
0.00191048630690837
0.00197426513833659
0.00203312360598577
0.00208713348389724
0.0021363866710412
0.00218099008685661
0.00222105822524756
0.00225670899246877
0.00228806057616633
0.00231524329335352
0.00233839381523972
0.00235766552456798
0.00237322276323967
0.00238523545655384
0.00239388648976988
0.00239936340073515
0.00240185266912552
0.00240153835863241
0.00239859870054756
0.0023932031622328
0.00238550704164185
0.00237566254908466
0.00236382863999562
0.00235017994219015
0.00233487279389584
0.00231806628989551
0.00229985543750495
0.0022822897925299
0.00226450049078202
0.00224320380711169
0.00222099803892017
0.00219799050129022
0.00217423688568937
0.00214976982173696
0.00212464108093956
0.00209890395889349
0.00207267727956397
0.00204603386693807
0.00201916059042873
0.00199216064843051
0.001965416771603
0.0019391316971895
0.00191432763998135
0.00189041212621444
0.00188263407559399
0.00185296979356033
0.00178260051928366
0.00176513219716937
0.00177769318818181
0.00182012271962183
0.0018885024946511
0.00198084635517109
0.00209492060704153
0.00222721518822066
0.00238273792770547
0.00256057606168537
0.00275624000759709
0.00296847911127259
0.00319796896380112
0.00344929785219918
0.00371620862023714
0.00399228519723993
0.00428411671179129
0.00459590991367253
0.00493254675926791
0.00529361120908581
0.0056847507485755
0.00614366131365264
0.00662821146371374
0.00713571198198283
0.00755437254504049
0.00791197331191459
0.00796857325550348
0.0083245611169271
0.00828335078533839
0.00808388626164584
0.0065218670131642
0.00484893855643185
0.00427890205660603
0.00320406971542259
0.00252160452623278
0.00168445151243115
0.00147278918394665
0.000454026058137304
0.000862417032907773
0.00190897937613623
0.00181048564812246
0.00130319088832451
0.00094189079030701
0.000689410903755683
0.000542871201204379
0.000456675231966372
0.000403455391416413
0.000369005375168803
0.000347981971689407
0.000338287974746032
0.000338494551764825
0.000346477262724791
0.000361139752374281
0.000381345047224278
0.000405314670506486
0.000432074547574175
0.000461881711464003
0.000495864178642377
0.000534018793074574
0.000576749216470703
0.000625605788574211
0.000682161439978498
0.000748032884307517
0.000823901374795087
0.000921824786672278
0.00101109983920469
0.0010954550333266
0.00118677588578828
0.00127711311362625
0.00136443117020206
0.00144900026867573
0.00152098401570517
0.0015951317042336
0.0016636030869531
0.00172706253461897
0.00178584179792931
0.00184006829947243
0.00188981322021659
0.00193516943433553
0.00197624624353276
0.00201316120279509
0.00204603552882273
0.00207498800953163
0.00210014874595865
0.00212165059267235
0.00213964143436849
0.00215427824376793
0.00216572031071884
0.00217413921840173
0.00217970996055015
0.00218260530788172
0.00218299495530945
0.00218104243339362
0.00217690194896423
0.0021707122644986
0.00216260760812423
0.00215272677604988
0.0021412299257067
0.00212827082655187
0.00211400426698752
0.00209918023700835
0.0020868138621941
0.00206971177881124
0.00205167751813963
0.00203283187208632
0.00201328518083371
0.00199310115766433
0.00197232092887632
0.0019509947433781
0.00192917397482766
0.00190698501689064
0.0018845103097081
0.00186195768007824
0.00183944051853007
0.00181738113141679
0.0017959728677979
0.00177635688458334
0.00175772863505033
0.00175684024844626
0.00173410034678635
0.00166513448074901
0.00164329448613245
0.00164656425678365
0.0016757138472183
0.00172768556533465
0.00180041064862186
0.00189144682292233
0.00199657420135916
0.00212096434588386
0.0022648789152251
0.00242531517598617
0.0026026916013232
0.00279888894679776
0.00301978533133453
0.00325893512751917
0.00350727513759545
0.00376899790746599
0.00404664301834286
0.00434044995644594
0.00464652573095872
0.00495792544500707
0.00531541338225836
0.00568926612611972
0.00607490757438217
0.0063849592409063
0.00662507123235739
0.00661224857819088
0.00687570167544874
0.00701074497476711
0.00723058560964344
0.00654322577407974
0.00540395151955743
0.0046156572116621
0.00369154951697987
0.00314016505597927
0.00207623057335256
0.00201092000482413
0.000572688073376772
0.000226703342476859
0.001095736602961
0.00195305617213427
0.00138898955688253
0.00100963296736556
0.000751429280508785
0.000592690526884001
0.000498395001930618
0.000439928955004987
0.000402159706685189
0.000378304412341499
0.000365440939581873
0.000361705441540579
0.000365031750788308
0.000374362354593417
0.0003885665064612
0.000406126769124726
0.000426304370206772
0.000449402446663565
0.000476395591326634
0.000507196132982726
0.000542291759796463
0.000582820249636259
0.000629918121773136
0.000684814744227901
0.00074805517092168
0.000831562273943992
0.000905978340736284
0.000980669057592644
0.0010638172373986
0.00114701239720487
0.00122779536448373
0.00129902037709228
0.00137401257006021
0.00144267138006975
0.00150617392947228
0.00156501544431373
0.00161947043242196
0.00166966353652713
0.00171567031261991
0.00175758865335546
0.00179553363710269
0.00182962894924154
0.00186000254299358
0.00188677697238642
0.00191008565051231
0.00193006084095095
0.00194684806710266
0.0019606000745106
0.00197146816637595
0.00197961521439829
0.00198520606945939
0.00198840197610547
0.00198936031449377
0.00198823190930315
0.00198515769272556
0.00198026182240497
0.00197366225643728
0.00196547796948549
0.00195585351166523
0.0019449413043627
0.00193289280294096
0.00192393692551267
0.00191119277920947
0.0018968488581313
0.00188167110881375
0.00186577004301096
0.00184925825710293
0.00183220544865831
0.00181465840536218
0.00179666475520067
0.00177827210567116
0.00175961127729717
0.00174077132700749
0.00172197422037596
0.00170333727858345
0.0016853072925892
0.00166805320597194
0.00165279950155122
0.00163854775962482
0.00163999942872299
0.00162611818527986
0.00155860468272344
0.00153365495466769
0.00152923784791761
0.00154687276831579
0.0015842671010943
0.00163932254025309
0.00170944835381735
0.00178993781371572
0.00188615252986089
0.00199940304607496
0.00212809386667224
0.00227414228996094
0.0024404204080086
0.00263347414002337
0.00284609950737857
0.00306673989078146
0.00329734321102727
0.00353868102042225
0.00378687209695715
0.00403444168077902
0.00426590058852681
0.00452518714618778
0.00479748665600799
0.00507770423310427
0.0053064237714673
0.00546244480723635
0.00541465200959376
0.00560169251026689
0.00580941354726785
0.00616297078896429
0.00605376371463783
0.00536387660268748
0.00454053247036589
0.00380079966537786
0.00348192870791216
0.00235897903513132
0.00251600071216893
0.000753341189913319
1.64476529734045e-05
0.000495693884291445
0.00205081909620671
0.00149508185991218
0.00108036756205457
0.000805703230022511
0.000634961908669767