/*--------------------------------*- C++ -*----------------------------------*\
  =========                 |
  \\      /  F ield         | OpenFOAM: The Open Source CFD Toolbox
   \\    /   O peration     | Website:  https://openfoam.org
    \\  /    A nd           | Version:  7
     \\/     M anipulation  |
\*---------------------------------------------------------------------------*/
FoamFile
{
    version     2.0;
    format      ascii;
    class       volScalarField;
    location    "20000";
    object      nut;
}
// * * * * * * * * * * * * * * * * * * * * * * * * * * * * * * * * * * * * * //

dimensions      [0 2 -1 0 0 0 0];

internalField   nonuniform List<scalar> 
15600
(
3.53775094854774e-10
3.75133853114996e-10
3.03082701653097e-10
2.07284592512992e-10
1.12354981671603e-10
4.81657931755395e-11
2.16192221991596e-11
1.70028746027774e-11
1.51136938246198e-11
1.19225768807234e-11
9.49011661378232e-12
8.41087015814702e-12
8.31415648372161e-12
8.75358989008305e-12
9.58751366140927e-12
1.07946699984799e-11
1.25645136198549e-11
1.5176850878102e-11
1.90040007907723e-11
2.44962969338428e-11
3.23104222750445e-11
4.33355616465712e-11
5.85788357447265e-11
7.91009354981687e-11
1.05998476438473e-10
1.40482221597855e-10
1.83657598112848e-10
2.35406959166371e-10
2.9457800904164e-10
3.59082947226215e-10
4.26897245688811e-10
4.97990704992658e-10
5.81251917608264e-10
7.18926261406929e-10
8.83789837411616e-10
1.03949547055886e-09
1.18743188181577e-09
1.32930405463321e-09
1.46620826591427e-09
1.59884522194344e-09
1.72773940643892e-09
1.85332278100392e-09
1.97651116086223e-09
2.09737258738142e-09
2.21369542071693e-09
2.3235084175172e-09
2.42622218977832e-09
2.5214472646143e-09
2.60883651819677e-09
2.68810323822262e-09
2.75903343968585e-09
2.82150048248596e-09
2.87547240736549e-09
2.92100544700493e-09
2.95824464819887e-09
2.98740406548923e-09
3.00876300519581e-09
3.02265166860529e-09
3.02943807852515e-09
3.02951858459871e-09
3.02331619202345e-09
3.01126600411822e-09
2.99381930482495e-09
2.97140406442699e-09
2.9444163978836e-09
2.91313166404834e-09
2.87774057771737e-09
2.8385391896232e-09
2.79588256337633e-09
2.75020317103973e-09
2.70192128941758e-09
2.65133730993739e-09
2.59857613971174e-09
2.54366164968368e-09
2.48674094508715e-09
2.42782924382884e-09
2.36692996957389e-09
2.30407863641417e-09
2.23912080873421e-09
2.17128748225341e-09
2.10048681670218e-09
2.0254661633991e-09
1.94533256737581e-09
1.85736668589425e-09
1.75955095292055e-09
1.64607593144858e-09
1.51573633134928e-09
1.4259413615005e-09
1.52582976583267e-09
1.64035633293614e-09
1.75601386611571e-09
1.84717928875583e-09
1.91751385194174e-09
1.96524261609997e-09
1.99359844289818e-09
2.01619821596766e-09
2.01831525299179e-09
1.98976495001941e-09
1.93400208559503e-09
1.85299587167315e-09
1.74947162057035e-09
1.61640364800353e-09
1.46785973143614e-09
1.32825772281763e-09
1.20218812086582e-09
1.0906805396128e-09
9.98522904778562e-10
9.30686548261413e-10
8.98137251342492e-10
8.73057526122288e-10
8.6032343212187e-10
8.62655513036599e-10
8.7722341680085e-10
8.75136583602977e-10
7.80682529557047e-10
6.49656456209767e-10
5.11505287381308e-10
4.03834199666712e-10
3.31490580751472e-10
3.31643295580268e-10
6.75437640023197e-08
7.15547105702979e-08
5.77748348433496e-08
3.95203250688417e-08
2.1535933813105e-08
9.32237848582706e-09
4.19898064966045e-09
3.27955444571694e-09
2.91736805632844e-09
2.3080303755927e-09
1.83684813950962e-09
1.62400968151978e-09
1.60141670406602e-09
1.6832500340796e-09
1.84132628605534e-09
2.07077672294739e-09
2.4071332353974e-09
2.90352755490194e-09
3.63123364100229e-09
4.67616253983681e-09
6.16300471877481e-09
8.26167574343428e-09
1.11656826317951e-08
1.50793903492893e-08
2.02124569133274e-08
2.67943838131943e-08
3.50424079540941e-08
4.49398303976931e-08
5.62682731201709e-08
6.8623951507578e-08
8.16141992528909e-08
9.51948070281819e-08
1.10802212099323e-07
1.36859517047556e-07
1.68313547391809e-07
1.98032926629981e-07
2.26261603980399e-07
2.53337301422726e-07
2.79472156384292e-07
3.04803808916507e-07
3.29435538051736e-07
3.53452187361813e-07
3.77030757005512e-07
4.00185542351265e-07
4.22356493118871e-07
4.43265912344985e-07
4.6283657634321e-07
4.80994638167464e-07
4.97673919327654e-07
5.12819353704414e-07
5.26389388301447e-07
5.3835878313634e-07
5.48720011833571e-07
5.57482146449547e-07
5.64670958869912e-07
5.70325312926302e-07
5.74496477414615e-07
5.77245462621918e-07
5.78640589848597e-07
5.78755750721728e-07
5.77670061111194e-07
5.75465184680343e-07
5.72225976766898e-07
5.68033154840874e-07
5.62961453902924e-07
5.57062941321605e-07
5.50374042654092e-07
5.42951193226245e-07
5.34862100751815e-07
5.26189190940904e-07
5.17012726748724e-07
5.07390183493563e-07
4.9734583421968e-07
4.86884999695707e-07
4.76036106775681e-07
4.64802924969419e-07
4.53185982082323e-07
4.41193264427928e-07
4.28795433689063e-07
4.15847497070446e-07
4.02331121572744e-07
3.88011633778641e-07
3.72715078492656e-07
3.55933081832557e-07
3.37270152806722e-07
3.1562816556813e-07
2.90576686745317e-07
2.73348537479853e-07
2.92587181778004e-07
3.14528939079448e-07
3.36603144059365e-07
3.5403658062451e-07
3.67473989828081e-07
3.76590771869243e-07
3.82022414216933e-07
3.86256166697253e-07
3.86500018864735e-07
3.80874806032996e-07
3.70040632775519e-07
3.54390759181606e-07
3.34429332514711e-07
3.08928607974636e-07
2.80578375448273e-07
2.53926851689618e-07
2.29852017865476e-07
2.08565511060411e-07
1.90967897928806e-07
1.7800738320382e-07
1.71600002551451e-07
1.66615449138721e-07
1.63927771208633e-07
1.64018948385423e-07
1.6629617819517e-07
1.65396678913449e-07
1.47081874099683e-07
1.21749376435065e-07
9.60964169574573e-08
7.63074482576664e-08
6.29613954167478e-08
6.33539927827998e-08
1.45196430671026e-06
1.53665673427551e-06
1.23936342190832e-06
8.46922711786302e-07
4.67212640226414e-07
2.07284263570168e-07
9.42388609781532e-08
7.3204685158912e-08
6.51877343466505e-08
5.1750007172846e-08
4.12068818343778e-08
3.63673528869405e-08
3.57853851744321e-08
3.75457767582238e-08
4.10072135746779e-08
4.60448153493501e-08
5.34239613337165e-08
6.43051177282565e-08
8.02649401400939e-08
1.03191867895809e-07
1.35792473124535e-07
1.81780144901034e-07
2.45404613945067e-07
3.31135485769065e-07
4.43421775743009e-07
5.8701785315208e-07
7.66750199712103e-07
9.8231765373361e-07
1.22883360414851e-06
1.49708623762182e-06
1.77728657079695e-06
2.06415536542242e-06
2.38040318086599e-06
2.92889212925291e-06
3.60564100630659e-06
4.24501308578179e-06
4.85191393127087e-06
5.43430857162687e-06
5.9969696473933e-06
6.54313678633445e-06
7.07520667994287e-06
7.59503676346051e-06
8.10656402114307e-06
8.6043241525338e-06
9.07660058341209e-06
9.52299323111936e-06
9.94182760661752e-06
1.03315583774952e-05
1.06907762950958e-05
1.10182821264672e-05
1.13131398906255e-05
1.15747375051065e-05
1.18028173358713e-05
1.19974585220092e-05
1.21590801692861e-05
1.22883730058271e-05
1.23862881828213e-05
1.24539851260592e-05
1.2492784100477e-05
1.25041333717607e-05
1.24896018161601e-05
1.2450826908988e-05
1.23895241456175e-05
1.23073413102065e-05
1.22058127730475e-05
1.20860158668222e-05
1.19487212462168e-05
1.1795123932543e-05
1.16266578384984e-05
1.14450715151553e-05
1.12520823968979e-05
1.1048932241822e-05
1.08361768223311e-05
1.06139855774799e-05
1.03830024963187e-05
1.01433679389397e-05
9.89509962289374e-06
9.63844680437555e-06
9.372810842933e-06
9.09520160321806e-06
8.80520296742085e-06
8.49803093701324e-06
8.16986225145668e-06
7.81032500939465e-06
7.41027549567135e-06
6.94678233619812e-06
6.39593832051303e-06
6.02290888635398e-06
6.43932764772401e-06
6.90666731031892e-06
7.37231937814768e-06
7.74031600533421e-06
8.02123630335495e-06
8.20889768009636e-06
8.31661292820523e-06
8.39316326112283e-06
8.38317603896753e-06
8.24920175919679e-06
8.00437939645233e-06
7.65775628334361e-06
7.22037625718205e-06
6.67015484389759e-06
6.06138240156358e-06
5.48625118173515e-06
4.96522180341984e-06
4.50345854852451e-06
4.11927906947658e-06
3.8315997515725e-06
3.67640088794486e-06
3.55222115530301e-06
3.47341423719625e-06
3.44875255659724e-06
3.46506340943138e-06
3.42108097471026e-06
3.02780760450537e-06
2.46348789530293e-06
1.94502433911243e-06
1.56889147339743e-06
1.32146718254441e-06
1.35768426358755e-06
1.04657323320104e-05
1.11448894743774e-05
9.06467358737459e-06
6.22672316516265e-06
3.54360448018308e-06
1.67040361612252e-06
7.7981971692407e-07
6.0462312067673e-07
5.3910700445527e-07
4.29628991542057e-07
3.42359234375933e-07
3.01617677264805e-07
2.96102306157478e-07
3.09890541144719e-07
3.37668349770724e-07
3.78189062926511e-07
4.37424858616994e-07
5.2459088245114e-07
6.52366160688195e-07
8.35663983688288e-07
1.0953886304131e-06
1.460369592948e-06
1.9633794667335e-06
2.63785549638135e-06
3.51461016377425e-06
4.62537609924936e-06
6.00570138180802e-06
7.64952327691665e-06
9.51293339046016e-06
1.15148465586019e-05
1.35557002085318e-05
1.55530141638842e-05
1.76884239159238e-05
2.16602495249592e-05
2.66233522221609e-05
3.12480416187652e-05
3.56110713418508e-05
3.97707321305682e-05
4.37678973675055e-05
4.76294860153756e-05
5.13753472671954e-05
5.50178096134618e-05
5.85666458173639e-05
6.19245956465606e-05
6.51093220652991e-05
6.81130754245311e-05
7.09275151756614e-05
7.35449632283889e-05
7.595839762022e-05
7.81619204800341e-05
8.01510737962035e-05
8.19232078266612e-05
8.34776479129148e-05
8.48155867138667e-05
8.59401008123873e-05
8.68557436824953e-05
8.75685076265579e-05
8.80855201141989e-05
8.84147798557272e-05
8.8564990544091e-05
8.85455377074698e-05
8.83662059520517e-05
8.8037251539499e-05
8.75685634197001e-05
8.69693904265549e-05
8.62461917583196e-05
8.5403552884684e-05
8.44487350571184e-05
8.33904601905023e-05
8.22394922586139e-05
8.10065746009082e-05
7.96995208914755e-05
7.83219407331154e-05
7.68750758013342e-05
7.53631173492794e-05
7.37871170602593e-05
7.21469949900485e-05
7.04445342956134e-05
6.86757051616647e-05
6.68254512116935e-05
6.48825309145627e-05
6.28198997086894e-05
6.06104022085551e-05
5.81873282329557e-05
5.54831599632248e-05
5.23457129246508e-05
4.84358138763376e-05
4.58229311207383e-05
4.86566451039393e-05
5.17882957307131e-05
5.48571529695888e-05
5.72702896539479e-05
5.90789145591355e-05
6.02530908317111e-05
6.08775474008659e-05
6.12553911964584e-05
6.10518179161366e-05
6.00243432228682e-05
5.82456965331975e-05
5.57717680993268e-05
5.26772210564568e-05
4.88208764493979e-05
4.45347020542058e-05
4.04313738947566e-05
3.66761457374557e-05
3.33136521694255e-05
3.04750852295484e-05
2.8281594499946e-05
2.69893014013214e-05
2.59139721638456e-05
2.51146328555531e-05
2.46460258771775e-05
2.44173512326846e-05
2.38430674920336e-05
2.10276618097223e-05
1.65915907039054e-05
1.28609258257194e-05
1.04781643352438e-05
9.08623803084377e-06
9.63930277376122e-06
3.78534614703549e-05
4.10013969313667e-05
3.43900226011384e-05
2.4041875163318e-05
1.43407137030483e-05
7.53128409151509e-06
3.7750059131311e-06
2.95011862191322e-06
2.63439176216136e-06
2.10777024790976e-06
1.68068673196596e-06
1.47745377055216e-06
1.44624919283772e-06
1.50795106597408e-06
1.63721246970664e-06
1.82600565674306e-06
2.10088852587116e-06
2.50371950156368e-06
3.09258503132994e-06
3.93304618334909e-06
5.11383615771216e-06
6.75730325674702e-06
8.9975742798816e-06
1.19597223479682e-05
1.57399109318741e-05
2.04331617943373e-05
2.61618882626398e-05
3.28496838195103e-05
4.02550604369969e-05
4.79779511487192e-05
5.55296017734145e-05
6.26069073239901e-05
7.03460279273375e-05
8.55926657862943e-05
0.00010405949480653
0.00012063243757885
0.000135997920929823
0.000150345303868312
0.000163897936319771
0.000176779966701242
0.000189090174154647
0.000200885018985543
0.000211958340773244
0.000222386355632533
0.000232184210019083
0.00024134596707272
0.000249864322743607
0.000257732636934646
0.000264944796963818
0.000271496658481517
0.000277386904931751
0.000282618098656596
0.000287197089421674
0.000291134716247318
0.000294445862491583
0.000297148342948572
0.000299262923394476
0.000300812530008235
0.000301821612010156
0.000302315804840527
0.00030232196304768
0.000301867505919781
0.00030098071829134
0.000299688634288627
0.000298016429575463
0.000295981359274493
0.000293595183867517
0.000290876979876537
0.000287849517005076
0.000284541275139399
0.000280981079566133
0.00027718965860148
0.000273176283728216
0.000268943755007846
0.000264502928292649
0.00025985549593326
0.000255012002555093
0.000249959002920949
0.000244681031762785
0.000239142253076639
0.000233304200005336
0.000227087989624867
0.000220406764039899
0.000213062340764227
0.000204833128451759
0.000195272130480063
0.000182816463032192
0.000174392174413102
0.000182937434843408
0.000192483450963415
0.00020170915534957
0.000208969687334895
0.000214369283715361
0.00021785916694516
0.000219672254491534
0.000220706491387696
0.000220008766057904
0.000216790443767531
0.000211196225582618
0.000203338579962082
0.000193425489856098
0.000180932523862551
0.000166737124234597
0.00015282236627998
0.000139843585304525
0.000127985941192227
0.000117767611809248
0.00010957704612691
0.000104565542806187
0.000100336149343129
9.69034093255616e-05
9.44736628776569e-05
9.27345171959293e-05
9.004159891221e-05
7.99936166442207e-05
6.14543108459079e-05
4.57335053346563e-05
3.64995313196579e-05
3.17667521585289e-05
3.42266645588506e-05
8.71083574308071e-05
9.59463776344928e-05
8.42850572188133e-05
6.06104562805238e-05
3.75668897829883e-05
2.23804326768048e-05
1.29082498262568e-05
1.03893765684976e-05
9.34833201667137e-06
7.51607824551347e-06
5.99793418657023e-06
5.25800605520696e-06
5.12719003517303e-06
5.31576003124142e-06
5.7394641932682e-06
6.35821423967299e-06
7.25354503824426e-06
8.55733527651617e-06
1.04525972271842e-05
1.31300123891117e-05
1.68351545915213e-05
2.19046185412298e-05
2.86760984007932e-05
3.74065355235524e-05
4.82202761894144e-05
6.12535755360087e-05
7.67383379615815e-05
9.42723954249743e-05
0.000113053672920783
0.000131946507601945
0.000149779226574763
0.000166409259115589
0.000185806016276633
0.000223790782662036
0.000266645201409931
0.000303512227964194
0.000337050083459198
0.000367631699750544
0.000396009064653763
0.00042252804089133
0.000447489851733612
0.000470806265924334
0.000492499688407065
0.00051275755965506
0.000531620355393475
0.000549113825753917
0.00056525685262213
0.00058006576803805
0.000593554287445837
0.000605736693607031
0.000616629643954388
0.000626254380876083
0.000634637574084658
0.000641810986346743
0.000647811686019927
0.000652680168201304
0.000656460656430653
0.000659199776186888
0.000660945558285375
0.000661747032494477
0.00066165441336096
0.000660718116944267
0.000658989392512762
0.000656516839544893
0.000653345490872469
0.000649505673949513
0.000645017207062285
0.000639912990928211
0.000634231867741165
0.000628022977867191
0.000621336659119568
0.000614208419407921
0.000606653521705392
0.000598675884791328
0.00059031218668343
0.000581539354233382
0.000572367645307898
0.000562778294756188
0.00055273898936633
0.000542184753530397
0.000531038717205387
0.000519152344064589
0.000506354801397157
0.0004922734177321
0.000476464697777514
0.000458124911141623
0.000433698092446354
0.000416530472322953
0.000432138142034617
0.000450653436179449
0.000468595521196148
0.000482984734509609
0.000493871926782994
0.000501203102648963
0.000505355043798187
0.000508053243300596
0.000507539916933141
0.000502120275170547
0.000491897853085793
0.000476961841401738
0.000457678734834178
0.000432811431614414
0.000403718411711656
0.000374461584253282
0.000346654691464764
0.000320735851734384
0.000298028195966223
0.000279278678316622
0.000267882652173708
0.000258507381404222
0.000250639238594023
0.00024482133704859
0.000240193519668997
0.000233887876867485
0.000211173285840999
0.000162542049964531
0.000116504076657168
8.89159707886572e-05
7.45053102818373e-05
7.86013107206182e-05
0.000155326375997776
0.000172187033577871
0.000157857196196164
0.000117507989498038
7.36552769606246e-05
4.80541859848463e-05
3.34160967921542e-05
2.87468041186835e-05
2.65331201387598e-05
2.15327493866633e-05
1.72321102179432e-05
1.50641291560597e-05
1.46089727515739e-05
1.50322595375894e-05
1.60993219764664e-05
1.76565433883916e-05
1.98939845030813e-05
2.31291790942105e-05
2.7797544286442e-05
3.42962123424504e-05
4.31091698561382e-05
5.48992200315973e-05
7.023379047378e-05
8.93937753671072e-05
0.000112345315696382
0.000139186739233489
0.000170198356659508
0.000204221294835893
0.00023953853845415
0.000274074439820794
0.000306206004343292
0.000336990837993058
0.000374933028799074
0.000445129530591828
0.000518389722204114
0.000579761054661716
0.000634897760413574
0.000684354574612957
0.000729738329079504
0.000771683056052028
0.000810684320009915
0.000846648414684597
0.000880021285438366
0.000911001861748429
0.000939686998025819
0.000966152793340992
0.000990459939265379
0.0010126606804837
0.0010327992573599
0.00105091734618611
0.00106705713883269
0.00108126505994556
0.00109359317309906
0.00110409904217552
0.0011128461387103
0.00111990128227394
0.00112533537684508
0.00112922153832085
0.0011316337628146
0.00113264653509866
0.00113233517647854
0.00113077460909478
0.00112804025741398
0.00112420336582858
0.0011193297559291
0.00111346325343251
0.00110663155801225
0.00109888166965172
0.00109026828160175
0.00108086133492187
0.0010707333658452
0.00105993446430739
0.00104848583581917
0.00103643207866433
0.00102375658250789
0.0010104446643835
0.000996507169558678
0.000981918141900434
0.000966625696297786
0.000950532176745539
0.000933517271531351
0.000915357766267362
0.000895788567334048
0.000874254577523679
0.000850058687431363
0.000822081517555589
0.000784505869310471
0.000756759588284855
0.000778590404757259
0.000807209493200873
0.000835466496395371
0.0008588141139186
0.000877020398250785
0.000889994875643414
0.000898192845368755
0.000904227101069674
0.000905548610745532
0.000899322015908693
0.000885435346415206
0.000863860501423858
0.000835134102632483
0.000797156653863423
0.000751489813221258
0.00070450848423498
0.000659195641896067
0.00061631249912155
0.000578374878499539
0.000546388855239271
0.000527342611064677
0.000512557764099126
0.000500133287811218
0.000491216072159138
0.000483608616433028
0.000473965653883457
0.000435825003592341
0.000345468545561834
0.000245443329221255
0.000180588403139646
0.000142499855500182
0.000143275260385033
0.000244243331982919
0.000268720633932898
0.000253131777019083
0.000196148051023221
0.000121515402873951
8.2154750351475e-05
6.69478476075348e-05
6.42088854720146e-05
6.26625896903483e-05
5.19290827127847e-05
4.192692711751e-05
3.66204812523552e-05
3.52811195691724e-05
3.59698715589096e-05
3.81140634092544e-05
4.12498047750411e-05
4.57379678870539e-05
5.22045321005405e-05
6.14866329523699e-05
7.42154812553249e-05
9.1132140492006e-05
0.000113264989996592
0.000141292932379757
0.000175271323943787
0.000214786403575422
0.00025984599056925
0.000310626159303507
0.000364821688529731
0.000419732513610458
0.000472545681754559
0.000521830164961318
0.00057076963206131
0.000632857768573296
0.000739618145411731
0.000844245954390815
0.00093117822531376
0.00100877144057248
0.00107777773329357
0.00114075248628478
0.00119862484023132
0.00125187300589625
0.00130088534046966
0.00134624953793252
0.00138821329327539
0.001426941415336
0.00146256562584099
0.00149519357070199
0.00152491761483146
0.00155181609013444
0.00157596103585129
0.00159742264778023
0.00161627462832941
0.00163259614561688
0.00164647205749251
0.00165799344447246
0.00166725445299742
0.00167435353652877
0.00167939101254498
0.00168246739262864
0.00168368305523899
0.00168313871969216
0.00168093401542968
0.00167716852581526
0.00167193614634063
0.00166532350315606
0.00165738797280506
0.00164816491451164
0.00163771550728891
0.00162610960411042
0.00161343750399997
0.00159979409656945
0.00158524354529001
0.00156985982866272
0.00155363139528032
0.00153653852650622
0.00151857173140623
0.0014997412871298
0.00148001298053179
0.00145931410713003
0.00143751349502935
0.00141444533145532
0.00138981296165746
0.0013632534161482
0.00133403803736322
0.00130120440306228
0.0012633886680905
0.00121254397111384
0.00117313008139804
0.00119933076532203
0.0012382648873935
0.00127786492848448
0.00131169273647454
0.001338934725578
0.00135937499192961
0.00137346146255206
0.0013846251740653
0.00138963705813741
0.00138442503979722
0.00136849134838229
0.00134161771447346
0.00130450889463829
0.0012542429759652
0.00119233774964205
0.00112737753002241
0.00106399928350382
0.00100335755559435
0.000949427711338298
0.000903316296001257
0.000876276390557913
0.000856784302032044
0.000840633954527851
0.000829962056723014
0.00081997340827226
0.000808460321877594
0.000754352382102353
0.000621497914957759
0.000449969881675223
0.00032886882416514
0.000246110988043944
0.000234001061715966
0.00036110323662533
0.000390077238680907
0.00037087643851092
0.000300239916716584
0.000182365382172139
0.00012174017216037
0.000108916372634427
0.000117213654311034
0.000124596883390906
0.000107397316018915
8.83851853585468e-05
7.75028832526632e-05
7.42202913738161e-05
7.4943422414029e-05
7.84519059378207e-05
8.3637107225947e-05
9.1100456327498e-05
0.000101915772947921
0.000117463196543846
0.000138560050517758
0.00016616431304637
0.000201623042012024
0.00024549427693586
0.000297340096109492
0.000356240030327845
0.000422103184210665
0.000494821209720595
0.000570801984848075
0.000646586693344784
0.000719044715119516
0.000787556372977961
0.000857811405529972
0.000947703331883074
0.00109155884144427
0.0012265043201888
0.00133898326652762
0.00143902828316723
0.00152769787268753
0.0016084085578455
0.00168230953056218
0.00174991349595354
0.00181214958340666
0.00186964512673004
0.00192271677842949
0.00197160049332697
0.00201648500440508
0.00205752699163889
0.00209486074138871
0.00212860040540002
0.00215884986524529
0.00218570854860478
0.00220927845646342
0.00222966660814588
0.00224698577483872
0.00226135504444014
0.00227289614209854
0.00228173523810759
0.00228799990958889
0.00229181712479551
0.00229331302079907
0.00229261346588221
0.00228984247150543
0.00228512325034549
0.00227857186948638
0.0022702953830316
0.00226036464989439
0.00224882245560141
0.00223574426554212
0.00222121417742955
0.0022053421908538
0.00218824549180196
0.00217004615992488
0.00215078378352291
0.00213042853449789
0.00210896226269632
0.00208637828048914
0.00206268532182487
0.00203784036581062
0.00201174947721564
0.00198424856162602
0.00195512597494475
0.00192401573482893
0.00189045731553364
0.00185356422307201
0.00181211134440722
0.00176455386838983
0.00170081395103597
0.00164922937350993
0.00167765440467376
0.00172645391701318
0.00177793138467257
0.00182340247680809
0.0018611501322753
0.00189069620625318
0.00191238698643506
0.00193032233097655
0.00194072121081517
0.0019382774549156
0.0019219668689406
0.00189132757871822
0.00184720619698142
0.00178598744656482
0.00170899263721484
0.0016267514076479
0.0015456997228002
0.00146748080618575
0.00139766852838675
0.00133740968522281
0.0013022058453341
0.00127863569140384
0.00125946850498494
0.00124830635375279
0.00123634235543509
0.0012244986244562
0.00115409333105975
0.000984625204671062
0.000734955569485801
0.000547720281505098
0.000398389813590275
0.000361045193880283
0.000514902043759982
0.000542995469992318
0.000514604234963383
0.000434182356330724
0.000260743030293286
0.000166102404697992
0.000149264403612061
0.000180303838750201
0.000210127255040241
0.000192547879287694
0.000163368149521005
0.000144741491460754
0.000138180184528184
0.000138393348640853
0.000143188083103653
0.000150438718839076
0.000161080341891434
0.000176785181362011
0.00019958941867326
0.000230404376590762
0.000270337615233104
0.000320938272075169
0.000382392023186998
0.000453602886154731
0.00053314592386313
0.000620841273318024
0.000716157108446678
0.0008143100777821
0.000911404338571638
0.00100438962373954
0.0010938319394345
0.00118782526834494
0.00130757971148023
0.00148721271458446
0.00165113400340836
0.00178887187097389
0.00191113141371202
0.00201943685665613
0.00211790542656155
0.00220776388106177
0.00228985112712822
0.00236539100389924
0.00243508310800326
0.00249932445463942
0.00255842312456074
0.00261262599036714
0.00266214045404858
0.00270714427448118
0.0027477889828132
0.00278421163774934
0.00281654196315676
0.00284491109326715
0.00286945441092005
0.00289031294747186
0.0029076338938994
0.00292156645695089
0.00293226432933723
0.00293988202773987
0.00294457252771114
0.00294648718963979
0.00294577638374899
0.00294258776418419
0.00293706723404118
0.00292935214022657
0.00291956926461498
0.00290780271841165
0.00289410234721933
0.00287855802459977
0.00286126692950841
0.00284235788160519
0.00282200612638151
0.00280033273558779
0.00277734760151293
0.0027530203541675
0.00272733338846465
0.00270028105103167
0.00267186965779634
0.00264204713466504
0.00261069849876
0.00257762819688077
0.00254257976628013
0.00250512351127183
0.00246470474648171
0.00242029756747506
0.00237042860743608
0.00231341739687243
0.00223745673789355
0.00217369728510515
0.00220225527985491
0.00225999400635756
0.002323422684657
0.00238130585856998
0.00243071384024973
0.00247073859795117
0.00250152443223349
0.00252764437901449
0.00254487489219391
0.00254674184670849
0.00253159228657078
0.00249868340736391
0.00244895670324215
0.00237825576378298
0.00228763305582155
0.0021892383501273
0.00209132139167653
0.00199612387404516
0.00191084246914288
0.00183673515611787
0.00179309479041454
0.00176561875916639
0.00174364383226772
0.00173272557021598
0.0017188095486765
0.00170780496520983
0.00162054439092404
0.00142145200382425
0.0010943518922125
0.000841130362872614
0.000609678716759287
0.000534783843016694
0.000713292211060707
0.000733714039669795
0.000689848879203008
0.000600158503784515
0.000364542775383038
0.000217122614473777
0.00018930001071565
0.00024354287899
0.000307573762773624
0.00030391521925717
0.00026827864265029
0.000241472258443328
0.000230880084438519
0.000230034078114608
0.000235749426410069
0.000244663724499085
0.000258165409429101
0.000278674540835135
0.000308963319932708
0.000349960185636552
0.000402863787167139
0.000469287762169118
0.000548864834825874
0.000639802628584221
0.000740239211394854
0.000849892510789422
0.000967722938062647
0.00108797041028818
0.00120658340859888
0.0013208751100672
0.00143272226025325
0.00155223613656864
0.00170275541588249
0.00191613181398415
0.00210784132595877
0.00227041571356476
0.00241455059180171
0.00254237157361926
0.00265853914294244
0.00276422143801501
0.002860796992103
0.00294962336156222
0.00303149221764225
0.00310688768948832
0.00317619073176889
0.00323970789239591
0.00329769910584075
0.00335038729268076
0.00339796301422294
0.00344059789526292
0.00347845299714013
0.00351168935147249
0.00354047106788423
0.00356496758201923
0.00358535403977269
0.00360180671941154
0.00361450631703291
0.00362363361704338
0.00362936677918863
0.00363188146438455
0.00363135151121063
0.00362794707439976
0.00362183541604342
0.0036131738667363
0.00360210792475969
0.00358873451214711
0.00357310993891735
0.00355533862084625
0.00353552936087123
0.00351385185918891
0.0034905231923129
0.0034656218202805
0.00343916071468799
0.00341110891573364
0.00338144854864025
0.0033501736828085
0.00331728742727031
0.00328272859969659
0.00324636182957986
0.00320796217005494
0.00316723050834304
0.00312367993837712
0.0030766676297136
0.00302504762864408
0.0029671222368979
0.00290110330918987
0.00281381934376191
0.00273830324284262
0.00276512779178295
0.00283055971842073
0.00290560342967662
0.00297627287043248
0.00303815597488692
0.00308973405307818
0.00313084416870188
0.00316631383395368
0.00319155654523339
0.00319903486887213
0.00318640409403182
0.00315261715237154
0.00309865150115196
0.00301995575584434
0.00291729651070229
0.00280410731987598
0.00269035920305269
0.0025789984005406
0.00247877532763757
0.00239122084248085
0.00233873620403488
0.00230704086372679
0.00228197382751541
0.00227147764526687
0.00225539665810848
0.00224599881933995
0.00214147501935988
0.00191849238569358
0.00151824207903111
0.00120425488030084
0.000884451871628812
0.000762066389239224
0.000961075367973319
0.000965735886314387
0.000903161713089848
0.000796246313358471
0.000504861195419729
0.000278860870570991
0.000241460957853532
0.000299273910255311
0.000402530333508854
0.00043039028164964
0.000398027356778871
0.000365730626844083
0.00035168348529941
0.000349767331371169
0.000356133663526015
0.000366247411771962
0.000382077279497569
0.00040692961493316
0.000444379413060209
0.000495364358257484
0.000561150449276995
0.000643300790082485
0.000740808711448797
0.000851222904575501
0.000972310904551935
0.00110364501196209
0.00124364522837308
0.0013858203435554
0.00152616295760522
0.00166251265289538
0.00179799707655304
0.00194423147182657
0.00212559139231659
0.0023704650886547
0.00258891346540643
0.00277575372395669
0.0029413229784954
0.00308841810653954
0.00322211144390309
0.003343386790148
0.00345432229838043
0.00355630351058815
0.00365022522304911
0.00373666300065766
0.00381607168815398
0.00388881937269015
0.00395522044845998
0.00401554479185891
0.00407002368116913
0.00411886470298386
0.00416226122297327
0.00420040483023425
0.00423348854191594
0.00426171011899473
0.00428527225887168
0.00430437757232795
0.00431923291479211
0.00433004431573793
0.00433701392366297
0.00434034039543074
0.0043402196282866
0.0043368427501357
0.00433039667729579
0.00432105704004435
0.00430898675000944
0.00429429486256049
0.00427704325894234
0.00425735106677039
0.00423534464048455
0.00421126641692349
0.00418528443410354
0.0041574817636915
0.00412787420217169
0.00409643017541653
0.00406313088221286
0.00402796913535298
0.00399094413890377
0.00395198567486754
0.00391093903828772
0.00386755239877984
0.00382148716126701
0.00377220627785552
0.00371898699594937
0.00366058281586243
0.00359510266254101
0.0035206658180938
0.00342313782443974
0.0033366321780317
0.00336016696158579
0.00343186038159234
0.00351783718716336
0.00360129393923403
0.00367612492453797
0.00374002303941643
0.0037924101478557
0.00383814270347505
0.00387232032590708
0.00388646797185242
0.00387752269253057
0.00384412170520396
0.00378721543359088
0.00370198676008922
0.0035889338194936
0.00346245117445896
0.00333405745250923