/*--------------------------------*- C++ -*----------------------------------*\
  =========                 |
  \\      /  F ield         | OpenFOAM: The Open Source CFD Toolbox
   \\    /   O peration     | Website:  https://openfoam.org
    \\  /    A nd           | Version:  7
     \\/     M anipulation  |
\*---------------------------------------------------------------------------*/
FoamFile
{
    version     2.0;
    format      ascii;
    class       volScalarField;
    location    "20000";
    object      p;
}
// * * * * * * * * * * * * * * * * * * * * * * * * * * * * * * * * * * * * * //

dimensions      [0 2 -2 0 0 0 0];

internalField   nonuniform List<scalar> 
15600
(
2.44782359572352e-09
0.00708625279335722
0.00551191135083478
0.0127556907427823
0.0247814705618726
0.0367045410894052
0.044320356090194
0.0481729367958033
0.0514032460171667
0.0536839663252003
0.0554423713846927
0.0567582579482029
0.0578507556028738
0.0587332900700327
0.0595246807846996
0.0602012856237548
0.0608029341873697
0.0613248105599306
0.0618088278286337
0.0622670344233924
0.0627032303356198
0.0631343360090354
0.0635742639620018
0.0640332376955348
0.0645017970312162
0.0649632237563475
0.0654479508627397
0.0659589274158621
0.066498323387165
0.0670483422163721
0.0676079345550808
0.0681969436473729
0.0683869250672499
0.0689692767632801
0.0700946470921452
0.0715562851810127
0.073315027909423
0.0753131547895875
0.0775168143901298
0.0798963224013824
0.0824289104618985
0.0850948203901561
0.0878767375921497
0.0907585554869389
0.0937249537998904
0.0967613181020962
0.0998536938350487
0.102988774429284
0.106153871319298
0.109336943915403
0.112526627676
0.115712289615307
0.118884091676122
0.122033020154554
0.125150941671854
0.12823059621962
0.131265610415969
0.134250481422842
0.137180552514003
0.140051970961201
0.142861661633154
0.145607257445663
0.148287084967319
0.150900053158675
0.153445643433097
0.155923779110141
0.158334710773327
0.160679124476985
0.162958100194212
0.165173129543196
0.167326019653197
0.169418833682095
0.171453788583109
0.173433127223679
0.175359369840267
0.177234980335132
0.179062855532793
0.180845619911819
0.182586551522404
0.18428813565933
0.185954545855879
0.187587734641435
0.189194255901469
0.19077433606312
0.192340971257622
0.193889219562673
0.195450293791851
0.196986916212485
0.198719719758205
0.200358517953003
0.202047385769859
0.203671901511066
0.205246206791803
0.206720374369509
0.208046304511366
0.209172501127069
0.209956997746153
0.210266589991709
0.209997528559102
0.209025977095969
0.207278737870315
0.204687308816356
0.201387345779423
0.197504981372761
0.192863288065024
0.18726606001724
0.180494549918929
0.171942971153454
0.1608947218761
0.145069053315002
0.124441921755938
0.0984951299333989
0.0669918875484125
0.0305078481619022
-0.00784701389800174
-0.0370793710726299
-0.0424230862888361
-0.0336125547802728
-0.0236462286246312
-0.00591454760046329
-3.40050812104242e-06
0.00708146405604438
0.0055304575735756
0.0127500044094358
0.0247167095748863
0.0365986163466833
0.044226880586597
0.0480996580932213
0.0513388996908219
0.0536342639755683
0.0554043657242693
0.0567295077021757
0.0578287217082993
0.0587162223298572
0.0595110128743365
0.0601908107744175
0.0607952088767461
0.0613193571986938
0.061804717515772
0.0622639362675436
0.0627008679399543
0.0631322044032562
0.0635719181695822
0.0640306402846833
0.0644994614859629
0.0649612198117261
0.0654458694469232
0.0659567481454677
0.066496304789767
0.0670467145484491
0.0676073433196371
0.0681983042626446
0.0683930097698292
0.0689795916844952
0.070105183787955
0.0715665630924018
0.0733251588380572
0.0753230994603583
0.0775265277470017
0.079905742704306
0.0824379755229578
0.0851034680170454
0.0878849083295128
0.090766196514183
0.0937320207978741
0.0967677733442853
0.0998595066172855
0.102993921223011
0.10615833577665
0.109340716735882
0.112529706344017
0.11571467797771
0.118885799400674
0.122034062111287
0.125151337244457
0.128230368647022
0.131264786096119
0.134249089244361
0.137178623239796
0.140049536641677
0.14285875503359
0.14560391152123
0.14828333234218
0.150895925772932
0.153441172289981
0.155918994654091
0.15832964302178
0.160673802267671
0.162952550599354
0.165167377373812
0.167320087418814
0.169412741844228
0.171447556425694
0.173426773068993
0.175352910458354
0.177228431099982
0.179056229343255
0.180838928774165
0.182579807822456
0.184281352519239
0.185947737237564
0.187580918167577
0.189187453121705
0.190767579951339
0.192334308046836
0.193882730707302
0.19544418343676
0.196982276985975
0.198719013550692
0.20036265576011
0.202056093383922
0.203684310851247
0.205261194396888
0.206735984833263
0.20806004477319
0.209180178255286
0.209953060844183
0.210246136376932
0.209956222067342
0.20896073473436
0.207188312049833
0.204574582997842
0.201256936069492
0.197355214358998
0.19268814414231
0.18705886869444
0.180242339990709
0.171625488151389
0.160472254934992
0.144527685491393
0.123800970905618
0.0977823831478829
0.0662652966745245
0.0298767004893013
-0.00820880917810284
-0.0370896007876723
-0.0423040844646916
-0.0335248716576272
-0.0236007005735044
-0.00590497308628169
-3.08290730670612e-06
0.00708545108478725
0.00556548440778078
0.0127627637737165
0.0246638636575711
0.0365021436251803
0.0441406601659233
0.0480293972291269
0.0512760199676351
0.053585108036986
0.0553665003338223
0.0567005768993738
0.0578064919750716
0.0586989679648831
0.0594972396347224
0.0601802779804086
0.0607875085408088
0.0613139970497658
0.0618007258416148
0.0622608718876577
0.0626983572048308
0.0631296285422254
0.0635686824500641
0.0640265250611573
0.0644948268782291
0.0649560846632414
0.0654397539748981
0.0659495387796009
0.0664882353904818
0.0670380432376264
0.0675989765858419
0.0681907175338333
0.0683924102934139
0.0689869117502193
0.0701138937440932
0.0715754560529102
0.0733341582792502
0.0753320328271179
0.0775352763379435
0.0799141929545811
0.0824460303020631
0.0851110383534198
0.0878919199412778
0.0907725940938681
0.0937377578558181
0.0967728102697097
0.0998638126293309
0.10299747475668
0.106161124197865
0.109342736005049
0.112530960469621
0.115715178258585
0.118885563743261
0.122033114075483
0.125149705288431
0.128228085257435
0.131261886942361
0.134245612383515
0.137174608424211
0.140045024546185
0.142853786672888
0.145598527466463
0.148277572345454
0.150889828215627
0.15343477433819
0.155912333104153
0.158322753825063
0.160666719535791
0.162945305741334
0.165159998715387
0.16731260030891
0.169405169335674
0.171439920665035
0.173419094759516
0.175345208621059
0.177220722257562
0.179048528707446
0.180831250100454
0.182572167437864
0.184273768360052
0.185940232611819
0.187573511158319
0.189180180445489
0.19076047284363
0.192327452289073
0.193876209343974
0.195438231924108
0.196977373767658
0.198717930828327
0.20036572889256
0.202063355772244
0.203694693545049
0.205273505566306
0.206748110009492
0.208069277237414
0.209182195300864
0.209942354168907
0.210218104618127
0.209906992782251
0.208887785200809
0.207091163050136
0.204456519160312
0.201121755982479
0.197200070548423
0.192506668244041
0.186844044159709
0.179981003927895
0.1712974135751
0.160043004468608
0.143994124774569
0.123192354212881
0.0971386925169721
0.0656644318030804
0.0294508120256376
-0.00829012393981335
-0.0368261025686429
-0.0420290315349566
-0.0333742533733824
-0.0235340084027555
-0.00588727433066048
8.25415222799088e-06
0.00710319465029904
0.00563202286972248
0.0128069523112191
0.0246265519851705
0.0364117743798132
0.0440636651516469
0.0479657503896676
0.0512174636646824
0.0535387814787999
0.0553303461969288
0.0566724803029597
0.0577847151948989
0.0586819976012139
0.0594837140513104
0.0601699760374938
0.0607800343257597
0.0613088608915105
0.061796884113953
0.0622577017750518
0.0626953075711712
0.063125876418799
0.0635633893458038
0.0640191368964552
0.0644853865295648
0.0649445491028025
0.0654255254759432
0.0659323943332605
0.0664683848130063
0.0670159193272263
0.0675757436327539
0.0681658563831662
0.0683798166595384
0.0689882372432142
0.0701184230645182
0.0715811507384605
0.0733404073690392
0.0753383441915025
0.0775413455137033
0.0799197854221563
0.0824509667370283
0.0851151774772739
0.0878951741099704
0.0907749020222232
0.0937390634401182
0.0967730751725616
0.0998630140715954
0.102995604687218
0.106158188384125
0.109338753031186
0.112525960426147
0.11570920110536
0.11887865801623
0.122025335121006
0.125141114028523
0.128218746770413
0.131251869118633
0.13423498473523
0.13716344110496
0.14003338717867
0.14284174757981
0.145586152460985
0.148264924385187
0.150876966694726
0.153421755845616
0.155899213418997
0.158309587015687
0.160653556071252
0.162932190986189
0.165146972411936
0.167299697008473
0.169392419883093
0.171427354962966
0.173406740699463
0.175333092162092
0.177208866121964
0.179036960435048
0.180819997679197
0.182561256446706
0.184263217486281
0.185930074476099
0.187563778038225
0.18917093979247
0.190751779866725
0.192319458668718
0.193869054993681
0.195432278920141
0.196972233461646
0.198715431549247
0.200365370799789
0.202065508491051
0.203698072037945
0.205276820916899
0.206749043780133
0.208064881029475
0.209167953896225
0.209913088847349
0.210170033543848
0.209837216654449
0.208794894577704
0.206975951488454
0.204323125939014
0.200973013794234
0.197031410695541
0.192311206395573
0.186614338433734
0.179703793866378
0.170953342973786
0.15960518502698
0.143475258561235
0.122634825109707
0.0965986465465584
0.0652454085493634
0.0293130833770448
-0.00797664808350952
-0.0361511131197377
-0.0414871891432099
-0.0330999886886903
-0.023417388495815
-0.00585550634707546
3.99644775892219e-05
0.00713938469172228
0.00574652819184798
0.0129042925369077
0.0246179740066079
0.0363229910758891
0.0439897604450857
0.0479052459638243
0.0511605073682425
0.053493281200295
0.0552943498814201
0.0566439279882386
0.0577623254094216
0.0586644523766642
0.0594697372334753
0.0601593838335271
0.0607724321474644
0.0613037491895133
0.0617930585259886
0.0622542616631779
0.0626914381155383
0.0631204316974172
0.0635551538203086
0.0640070811307662
0.0644691900796708
0.0649241692080927
0.0654002341062008
0.0659018968163875
0.0664329978627036
0.0669765201865594
0.0675338879707829
0.0681209246777852
0.0683555865648885
0.0689846874804529
0.070119531285961
0.0715842803270184
0.0733442310892453
0.0753419346744057
0.0775441614388688
0.0799214405311571
0.0824511876871133
0.0851137909071617
0.0878920684592027
0.0907699838560486
0.093732277911443
0.0967644009088487
0.0998524555927903
0.102983190943268
0.106143970884232
0.109322803768381
0.112508369307485
0.115690072835054
0.118858109526128
0.122003492355934
0.125118109586705
0.128194717412867
0.131226953440199
0.134209321154564
0.137137166270595
0.140006634129873
0.142814644523469
0.145558820925959
0.148237478657297
0.15084951291454
0.153394393414276
0.155872038990556
0.158282694066907
0.160627031521866
0.162906112325675
0.165121406508711
0.167274700749058
0.16936804272821
0.171403644365143
0.173383742059657
0.175310854363029
0.177187437424031
0.179016372501267
0.18080027367783
0.182542437747627
0.184245350258706
0.185913229135014
0.187548021176027
0.189156400718805
0.190738571204987
0.19230786059835
0.193859275664247
0.195425238462507
0.19696635302538
0.19870969942845
0.200357915136068
0.20205726088645
0.203687386934236
0.205262309400711
0.206728006416567
0.208033920696784
0.209121954007702
0.209847065495222
0.210081196099264
0.209723854750008
0.208657028085231
0.206816083237165
0.204147070555822
0.200783348854363
0.196821613592897
0.192073152295537
0.186339408588533
0.179377538202922
0.170555762259769
0.15911402851755
0.142918215363077
0.122068244299343
0.096095211566913
0.0649351439605743
0.0293875674562937
-0.00732934836853089
-0.0350677970152276
-0.0406191343542037
-0.0326338406038043
-0.0232038868720191
-0.00579343240755899
0.000105409898818295
0.00720236341935993
0.00591892767608062
0.013070647481902
0.0246570235242737
0.0362440166971716
0.0439179963668131
0.047847194668168
0.0511043550227137
0.0534480778877846
0.0552581668383157
0.0566145787119522
0.0577390040622378
0.0586460534559966
0.0594550882870825
0.0601483626475347
0.0607646690170355
0.0612987393418774
0.0617893844662437
0.0622506637722235
0.0626867687942031
0.0631131364814705
0.0635435579239731
0.0639896246287836
0.0644452455680963
0.0648938433803016
0.0653627991929179
0.0658571626331301
0.0663816144959644
0.0669200909902236
0.0674746569942551
0.0680590196027046
0.0683236053051612
0.0689789348265029
0.0701193382184509
0.0715864861071581
0.0733466567792879
0.0753432397846514
0.0775435962670448
0.0799185094013892
0.0824455767500916
0.0851053098056079
0.0878805860091683
0.0907554240376869
0.0937146276494172
0.0967436888922544
0.0998287454030564
0.102956578655927
0.106114582183964
0.109290790797406
0.112473906839615
0.11565335372024
0.118819340848977
0.121962890844483
0.125075898193954
0.128151121859444
0.131182199049111
0.134163630149859
0.13709075569911
0.13995971351804
0.142767414306422
0.145511470089756
0.148190183982536
0.150802437910827
0.153347690347097
0.155825854981581
0.158237171761016
0.16058230435659
0.16286230003634
0.165078613068561
0.167233014935232
0.169327541550496
0.171364401769475
0.173345837579765
0.175274356617997
0.177152398379285
0.178982852412429
0.180768336144801
0.182512159926273
0.184216811652253
0.185886547589879
0.187523313763701
0.189133879773615
0.190718430500904
0.192290546728465
0.193845042849291
0.195415743980987
0.196958633582364
0.198698736714795
0.200340060585059
0.202034089954632
0.203656866130617
0.20522298365876
0.206676738303415
0.207966792777057
0.209033134645787
0.2097316626343
0.20993736008323
0.209551087497163
0.208456870473877
0.206592871595792
0.203908577532797
0.20053250786476
0.196550323421341
0.191771800073938
0.185997786295014
0.1789793782723
0.170079615844101
0.158540020697097
0.142285841606543
0.121445892984934
0.0955693068547619
0.0646577111523182
0.0295760333245805
-0.0064642269132114
-0.033674428182399
-0.0394500788713932
-0.0319481828701068
-0.0228575935691796
-0.00568271350126929
0.000214418965832104
0.00730182008084876
0.00615210549367282
0.0133074671247802
0.0247539187924535
0.0361893486940921
0.0438522794733536
0.0477943701473801
0.0510494070022567
0.0534032333387111
0.0552219250478233
0.056584488396193
0.0577147530841849
0.0586267825644691
0.0594397744528479
0.0601369835616291
0.0607569155360858
0.0612941093841828
0.0617862119579181
0.0622472733875244
0.0626816417005022
0.0631042853966621
0.0635288737350366
0.0639671127319326
0.0644141424074892
0.0648545847526655
0.0653148378552998
0.0658005886942095
0.0663175279983585
0.0668508475130146
0.0674032385417571
0.067986422769948
0.0682881391970917
0.068972784983986
0.0701190262988415
0.0715883519039644
0.0733478094213989
0.0753421264544051
0.077539377798602
0.0799106804530929
0.0824338423360274
0.0850894974452179
0.0878606002252015
0.0907312527219471
0.0936863214799926
0.0967113426694075
0.0997924912149699
0.102916583152426
0.106071043248039
0.10924393394864
0.112423980791633
0.115600625111505
0.118764089820811
0.121905405757786
0.125016471801156
0.128090047413211
0.131119766838727
0.134100124561411
0.137026453001358
0.13989487936678
0.142702302124773
0.145446318495309
0.148125216060536
0.150737860010522
0.153283694580465
0.155762626528245
0.158174890480742
0.160521139628776
0.162802405215107
0.165020122937966
0.1671760459117
0.169272195699991
0.171310781876643
0.173294037399334
0.175224466558648
0.177104512002033
0.178937061595682
0.180724728481256
0.182470841474867
0.184177894133367
0.185850190533656
0.18748968050414
0.189103248554282
0.190691059677079
0.192267001634286
0.193825571299048
0.195402401107494
0.196947567517776
0.198681907810254
0.200311893417488
0.201996429944006
0.203607282122169
0.205159907625942
0.206596604419607
0.20786520920891
0.208903714070802
0.209569422891022
0.209740944052978
0.209320802684953
0.208195383576536
0.206305876096476
0.203605208533183
0.20021613292158
0.196211984381973
0.191400712309504
0.18558224469794
0.178501256275496
0.169516061240611
0.157872371447646
0.141561381549597
0.120741999265751
0.0949827335483795
0.0643572891787329
0.0297968171623961
-0.00549252773924527
-0.0320946483915134
-0.0380594189205937
-0.0310651337607144
-0.0223721768307893
-0.00551453028410194
0.000368517385754293
0.00744287594144195
0.00644444808202677
0.013605257328196
0.0249051152428132
0.036168854430705
0.0438001179958433
0.0477537376111635
0.0509976530711737
0.0533590409034861
0.0551858242298614
0.0565538125039783
0.0576896826689858
0.0586067333513127
0.0594239274805398
0.0601254653796058
0.0607495132029246
0.0612903242477619
0.0617841084419442
0.0622447449608144
0.0626768060262338
0.0630947673931938
0.0635122366301404
0.0639410840306834
0.06437795336507
0.0648090337859725
0.0652596032017907
0.0657360507068398
0.0662451513862533
0.0667735045629839
0.0673244734012223
0.0679078848365736
0.0682508158423738
0.0689656422670606
0.0701178025415401
0.0715890552153522
0.0733470362862429
0.0753382458804358
0.0775315144777425
0.0798983454821766
0.0824167610162526
0.0850675218685254
0.0878336830340794
0.0906994332246125
0.0936496994257081
0.0966700619355248
0.0997467326014641
0.102866561751568
0.106017004987868
0.109186151931061
0.112362750623214
0.11553625937998
0.118696913528667
0.121835750742081
0.124944672867362
0.128016438255429
0.131044676525553
0.134023874555754
0.136949354919451
0.13981723245629
0.142624391705046
0.145368413301076
0.148047567644808
0.150660701336477
0.15320724282066
0.155687090560446
0.158100473016902
0.160448032436859
0.162730783177615
0.164950141446328
0.167107840606841
0.169205889002423
0.171246487854881
0.17323187042536
0.175164545072059
0.177046946396572
0.17888196012088
0.180672195560464
0.182421002586654
0.184130883585106
0.185806192141527
0.187448884759721
0.189065961028399
0.190657561579227
0.192237883822394
0.193801003276145
0.195384349784068
0.1969320757179
0.198659755922262
0.200275648140271
0.201947661556361
0.203543092196305
0.20507851934833
0.206494056097567
0.207736724644065
0.208742576440777
0.209370480172881
0.209502948102138
0.209044448502182
0.207883998531431
0.205965923955526
0.203246367073676
0.199841818966327
0.195812800337435
0.19096510065229
0.185097301919122
0.17794732042028
0.168869386659998
0.157115567921787
0.140746721767429
0.119953341131532
0.0943246085381566
0.0640116238060542
0.0300092311893833
-0.00448159488003016
-0.0304202859971155
-0.0365276459939125
-0.0300301812554634
-0.0217640841103412
-0.00528992978948734
0.00056459365012826
0.00762455996872245
0.00679258545022306
0.0139518835513651
0.0251001174410531
0.0361821323823525
0.0437647675939447
0.0477354888787003
0.050954041782933
0.0533165269535742
0.0551503123895479
0.0565229276785339
0.0576641204484149
0.0585862080563449
0.0594078856078131
0.060114232211383
0.0607429996788799
0.0612880281622492
0.0617838229600095
0.0622439526866136
0.0626732892964155
0.0630858200791281
0.0634951788363265
0.0639134513275768
0.0643389750985622
0.0647597641304236
0.0651998946050955
0.0656665071972223
0.0661674787011171
0.0666908680215647
0.0672408834222818
0.0678254941073761
0.0682114571270599
0.0689562229569735
0.0701145813016675
0.0715878365693887
0.0733439745260726
0.0753316434800401
0.0775204383879408
0.0798822892129605
0.0823954445350409
0.085040810163138
0.0878015546297615
0.0906619539066874
0.093606996083819
0.0966223062828274
0.0996941335003047
0.102809362594059
0.105955480013179
0.109120602489258
0.112293500309609
0.115463648352939
0.118621293906953
0.121757480811852
0.124864113277941
0.127933947775774
0.130960608517183
0.133938573983689
0.136863156066556
0.139730456378053
0.14253734472963
0.145281384311194
0.147960827630593
0.150574501702627
0.153121818422427
0.155602666752207
0.158017267961191
0.160366253130981
0.162650619482248
0.164871763817278
0.167031400301274
0.169131519530578
0.17117431819313
0.173162031490761
0.175097165478427
0.176982147001413
0.178819861306295
0.180612914827013
0.182364677528176
0.184077662213703
0.185756268511189
0.187402460721955
0.18902334092711
0.190619018770408
0.192203967213935
0.19377177040453
0.195361374680008
0.19691168281404
0.198632783705199
0.200233071772344
0.201890460980935
0.203467834624917
0.204983144560099
0.206374239261396
0.207587376012425
0.208556812747153
0.209143022496682
0.209232517879557
0.208731926163659
0.207533111731891
0.205583564249992
0.202842257935754
0.199419051125437
0.195361639221037
0.190473466980678
0.184551353327864
0.17732626131191
0.168149117794664
0.156280629270236
0.139853341693763
0.119090464769905
0.0936031352234737
0.063624241809955
0.0302073694366191
-0.00345489911718578
-0.028698440019611
-0.0349096517967711
-0.028886126686346
-0.0210553287077816
-0.00501254916969926
0.000799161896587134
0.00784275410006007
0.00719249767386114
0.0143363001603647
0.0253296871160526
0.0362236127522279
0.0437437113198145
0.0477474747290567
0.0509266182079475
0.0532780934091623
0.0551163358758198
0.0564925501436039
0.057638684301534
0.0585657606715429
0.05939219742442
0.0601038633259279
0.0607379996935171
0.0612878809110705
0.061786063697688
0.0622456880522302
0.0626719877918651
0.0630784791830791
0.0634789127645674
0.0638856303059021
0.0642987846804464
0.0647084030257206
0.0651373470117631
0.0655935565944665
0.0660860069069867
0.0666042300739825
0.0671535846473865
0.0677401155221238
0.0681697619391725
0.0689438170707674
0.0701088318040652
0.0715844136918852
0.0733386124277509
0.0753225674141197
0.0775066274539411
0.0798631955583869
0.082370762708468
0.0850104099117287
0.0877654214491607
0.0906201656061107
0.093559693587229
0.0965696766862997
0.0996364019393935
0.102746789472183
0.105888356947848
0.109049248433444
0.112218256462221
0.115384872344796
0.118539355217159
0.121672754796404
0.124776977496612
0.127844777598089
0.130869773606869
0.133846435332166
0.136770063656939
0.139636746623843
0.142443339038063
0.145187386315117
0.14786712291503
0.150481355771275
0.153029479994884
0.155511373965444
0.157927250618789
0.160277729751661
0.162563791620123
0.164786814975527
0.166948492444414
0.169050798819356
0.171095926337581
0.173086107197222
0.17502384584777
0.176911562536203
0.178752142702337
0.180548189810904
0.182303091281876
0.184019371057321
0.185701468613383
0.187351356327723
0.188976219498969
0.190576130722161
0.192165782464994
0.193738237666915
0.195333540833597
0.196886203097959
0.198601156314878
0.20018500033945
0.201826245144344
0.203383474514492
0.204876248279178
0.206240141468789
0.207420714630502
0.208350632924336
0.208891985899607
0.208935289609927
0.208389491128892
0.207149467925056
0.205165855862846
0.202400021727204
0.198954844900861
0.194865408192853
0.189932762988294
0.183951592608969
0.176645879925581
0.167364101353284
0.155378057537722
0.138893293817067
0.118166334413355
0.0928315699687566
0.0632070743785055
0.030398944467875
-0.0024149842509444
-0.0269473899933521
-0.0332358741175717
-0.0276644315969494
-0.0202654053702376
-0.00468591230200243
0.0010693752790745
0.00809282150768751
0.00763941682117569
0.0147484685210238
0.0255884385808143
0.036288969060022
0.0437490985924537
0.0477871144184065
0.0509238943740293
0.0532476801233494
0.0550854269896979
0.0564637104875484
0.0576142024746151
0.0585460866906618
0.0593774728733148
0.0600949012290511
0.0607349975568814
0.0612903092897544
0.0617912322874345
0.0622503758730568
0.0626733742577489
0.0630732940458833
0.0634640876966102
0.0638583880249988
0.0642582401099814
0.0646558284721443
0.0650728357858497
0.0655180510189842
0.0660015444634807
0.0665143268224774
0.0670632981345334
0.0676523818014196
0.0681257353420296
0.0689281976134963
0.0701003800733748
0.0715787201056436
0.0733310288245238
0.0753112478392026
0.0774904443241452
0.0798415554619326
0.0823433296139771
0.0849770493858753
0.0877261177501406
0.0905750017989507
0.0935088176339852
0.0965132840837895
0.0995747271934322
0.102680103105928
0.105816961000773
0.108973472418641
0.112138452061478
0.115301407512722
0.118452609697522
0.121583114024699
0.124684829150576
0.127750507090175
0.130773760623239
0.133749050940862
0.136671667936751
0.13953768610996
0.142343945365875
0.145087973420563
0.147767986971091
0.150382772774181
0.152931709387882
0.155414663665879
0.157831839000846
0.160183843919566
0.162471642788712
0.164696596272887
0.166860375941898
0.16896494255275
0.17101248029401
0.173005216808175
0.174945656459624
0.176836212840601
0.178679771833237
0.180478933435095
0.182237099068493
0.183956804180625
0.185642520110427
0.187296227305496
0.18892517059022
0.190529381839695
0.192123700603753
0.193700679307267
0.195300969879691
0.196855548046499
0.198564884725937
0.200131832121099
0.201755810429755
0.20329120305826
0.204759381978035
0.206093690269967
0.207239069585473
0.208126825057757
0.208620667976049
0.2086150656671
0.208021401284172
0.206737688270027
0.204717657661078
0.201924617991609
0.198454153855763
0.194329069520546
0.189348065055656
0.183303368330641
0.175912105325093
0.166521210472907
0.154416067545173
0.137876255992066
0.117191759918092
0.0920216073460051
0.0627714047989196
0.0305929748559058
-0.00135960606773616
-0.0251737260191546
-0.0315219403389298
-0.026385590561046
-0.0194100626862651
-0.00431407605199118
0.00137273979799176
0.00837082031705155
0.00812770994770792
0.0151802987050353
0.0258733803297573
0.0363792119479142
0.043791751406937
0.0478255345544397
0.0509511780168129
0.0532299854061404
0.0550594839127594
0.0564375688753335
0.0575915366893511
0.0585278420280721
0.0593641998666493
0.0600876776709742
0.0607341867705296
0.0612953942724064
0.0617993531197576
0.0622580492981713
0.0626775277291439
0.0630704211164538
0.0634509594098234
0.0638320976763496
0.0642178169014391
0.0646025677247467
0.0650069193758998
0.0654405662903111
0.0659146812979462
0.066421756493667
0.0669706595383832
0.0675628797804979
0.0680795224997415
0.0689093163955335
0.0700891711559154
0.0715707360507059
0.0733212956209046
0.0752978635222794
0.0774721647100947
0.0798177415851426
0.0823136188400498
0.0849412943461288
0.0876842976113109
0.0905272007353148
0.0934551858502321
0.0964540204172776
0.0995100703040483
0.102610328259762
0.105742375078612
0.108894409709813
0.112055268767486
0.115214475826745
0.118362313511052
0.121489842758392
0.124588974626592
0.127652458953426
0.130673902979304
0.133647759594781
0.136569308005599
0.139434609500978
0.14224048951905
0.144984458495531
0.147664716032728
0.150280028967127
0.152829759973134
0.155313763552148
0.157732232300667
0.160085763976659
0.162375307994803
0.164602206696777
0.16676811340834
0.168874974284996
0.17092496295247
0.172920301885504
0.17486349618865
0.176756952292713
0.17860355686558
0.180405905838076
0.182167410489274
0.183890617943618
0.185580021947848
0.187237610999165
0.188870662079048
0.190479166042367
0.19207802263283
0.193659322462489
0.195263794850521
0.196819683363585
0.198523945887722
0.200073798653142
0.201679692040055
0.203191877768166
0.204633700340037
0.205936351859537
0.207044238274529
0.207887556384025
0.208331640654236
0.208274821157961
0.207630995708053
0.206301396416783
0.204242767807641
0.201419914738951
0.197920852452252
0.193756520383143
0.188723367816215
0.182610905496846
0.175129651432097
0.165625970788205
0.153401249841321
0.136810009974846
0.116175487228263
0.0911828502268045
0.0623265854852166
0.0307971878085037
-0.000286331935980301
-0.0233804813075212
-0.0297763106836495
-0.0250619639968902
-0.0185011429562646
-0.00390150019934891
0.00170704094761121
0.00867391182047301
0.00865110261376407
0.0156279034151515
0.0261805257792134
0.0364915955737235
0.0438478138147424
0.047833445149002
0.0510128692846794
0.0532291915863749
0.0550404649425274
0.0564151930539096
0.0575714229086694
0.0585115254148531
0.0593526672271617
0.0600822868128847
0.0607354962905228
0.0613029470198274
0.0618101907974938
0.0622685006726262
0.0626843111835483
0.0630698228246031
0.0634396062547279
0.0638069656290935
0.0641778346679811
0.0645490094101681
0.0649400337303527
0.0653615738791172
0.0658259260124361
0.0663270612255093
0.0668762391510345
0.067472122220854
0.0680312863246757
0.0688871906152909
0.0700751985760749
0.0715604575871515
0.0733094774480099
0.0752825615059141
0.0774520181549366
0.0797920651426989
0.0822820257625015
0.0849036195469488
0.0876405127067777
0.0904773879267397
0.0933994937631446
0.0963926470542156
0.0994432541036875
0.102538344675957
0.105665531059902
0.108813039332729
0.111969727572891
0.115125134926608
0.118269555574389
0.121394055817355
0.124490549365208
0.127551784097826
0.13057136207376
0.133543728424441
0.136464152209846
0.139328682108246
0.142134129803627
0.144877989166675
0.147558443707996
0.15017424091156
0.15272472864785
0.155209748300983
0.157629480546404
0.159984513445841
0.162275780639269
0.164504609467404
0.166672635333556
0.168781789998474
0.170834234965536
0.172832186398151
0.174778150801382
0.176674526885209
0.178524202598692
0.180329769086577
0.182094642666846
0.183821382196595
0.185514493121356
0.187175972132708
0.188813097809906
0.190425823635823
0.192029009806622
0.193614367177465
0.195222159815273
0.196778623581497
0.198478311847645
0.200011037393919
0.201598260820505
0.203086139845603
0.204500099163459
0.205769292496044
0.206837675107608
0.207634596758812
0.208027014004254
0.207917007600631
0.207221036335111
0.205843596348269
0.203744336278014
0.200889126432903
0.197358183585204
0.193151049798645
0.188062060393695
0.18187781112035
0.17430256377575
0.164683160405415
0.152339290586812
0.135701272290595
0.115125068204806
0.0903236021931953
0.061880707833162
0.0310183110085628
0.000807169511613697
-0.0215694356927728
-0.0280041477620153
-0.0237008964694035
-0.0175468172042506
-0.00345206885021408
0.00207054169552838
0.00900040680116266
0.00920309619554581
0.0160922523581772
0.0265010180649208
0.036614547330039
0.0438996327731721
0.0478351278148305
0.05110217290399
0.0532477946371522
0.0550302735961336
0.0563974778663255
0.0575544227070842
0.0584974755902272
0.0593430064771908
0.0600786707925536
0.0607387112309286
0.0613126507928603
0.061823400663533
0.0622814308458881
0.0626935123789409
0.0630713970818868
0.0634300467374072
0.0637831367677366
0.0641385489723919
0.0644954808152434