/*--------------------------------*- C++ -*----------------------------------*\
  =========                 |
  \\      /  F ield         | OpenFOAM: The Open Source CFD Toolbox
   \\    /   O peration     | Website:  https://openfoam.org
    \\  /    A nd           | Version:  7
     \\/     M anipulation  |
\*---------------------------------------------------------------------------*/
FoamFile
{
    version     2.0;
    format      ascii;
    class       volSymmTensorField;
    location    "20000";
    object      tauij_B;
}
// * * * * * * * * * * * * * * * * * * * * * * * * * * * * * * * * * * * * * //

dimensions      [0 2 -2 0 0 0 0];

internalField   nonuniform List<symmTensor> 
15600
(
(8.81193641023319e-07 -5.10578078425125e-09 -2.78933374620292e-30 8.81239959198183e-07 1.98823274191691e-32 8.8122023234918e-07)
(9.34108246340786e-07 -6.13399453324767e-09 3.14874909825986e-28 9.34238907140779e-07 3.18502664147357e-29 9.34165927296679e-07)
(7.52990173630238e-07 -4.84313125341776e-09 -3.59197357198688e-27 7.53755231146771e-07 9.32418118454758e-28 7.53375753860644e-07)
(5.13365577752413e-07 -2.1408161916666e-09 9.35619101177137e-29 5.14174537539852e-07 1.08509564169945e-27 5.13767941300967e-07)
(2.78764212670026e-07 -3.23262243683179e-10 1.53341142536156e-27 2.78963912152854e-07 7.55669204384954e-27 2.78860915986994e-07)
(1.20750123061886e-07 1.34822592355654e-10 -1.2438059298074e-27 1.20557213396889e-07 3.11834646687091e-28 1.20651559712097e-07)
(5.42741338783293e-08 8.61287749310615e-11 -3.32267309975711e-27 5.41133490883755e-08 -8.39291472160866e-27 5.41929238890154e-08)
(4.18895711969769e-08 5.46574565285087e-11 2.83016092955817e-28 4.17614371052555e-08 2.65567589744439e-30 4.1825086839164e-08)
(3.58232959577854e-08 3.88168325045992e-11 -2.30506136065993e-27 3.57159210683708e-08 -5.29769136374198e-27 3.57692517829889e-08)
(2.674052766967e-08 2.39762488261982e-11 1.88385278816149e-27 2.66664205103071e-08 3.15136949275843e-27 2.67032681668612e-08)
(1.98728097629966e-08 1.57295852690925e-11 6.78589471977429e-28 1.98210893249865e-08 8.26031498097602e-28 1.98468221720881e-08)
(1.62654480190562e-08 1.21383612152779e-11 2.84507760129018e-29 1.62251080690842e-08 -9.09584207668538e-31 1.62451963174393e-08)
(1.47476555860952e-08 1.1082103612297e-11 5.8152746031841e-28 1.47120588417836e-08 7.7573879309181e-28 1.47297934305043e-08)
(1.42905997240756e-08 1.10548532554931e-11 -2.06425517230084e-28 1.42564569325643e-08 6.33367305688769e-30 1.42734786688775e-08)
(1.44887580638065e-08 1.16652247800411e-11 2.67905069962466e-28 1.44539335344322e-08 -8.39440814784469e-30 1.4471300197708e-08)
(1.51783611786959e-08 1.2724951963071e-11 7.32956615260794e-28 1.51413779333191e-08 1.09122202343728e-27 1.51598312697924e-08)
(1.65138873354419e-08 1.45663299215462e-11 -4.70867546228134e-28 1.64723651114011e-08 7.89468945833805e-29 1.64930916364449e-08)
(1.87225525387522e-08 1.7624582898886e-11 -1.3385824669428e-32 1.86729094927689e-08 5.65986052771212e-34 1.86977022514797e-08)
(2.20829798177647e-08 2.25706150793181e-11 3.04966317658837e-28 2.20198346122095e-08 -1.48012625892678e-29 2.20513793705121e-08)
(2.68260061624684e-08 3.02811987220606e-11 -1.26194305951775e-28 2.67425502389201e-08 -2.57815768644237e-27 2.67842510798481e-08)
(3.32837954654168e-08 4.25476518408836e-11 -3.24267396594893e-27 3.31706147162926e-08 -6.49626945912113e-27 3.32271811622468e-08)
(4.19375866987918e-08 6.21055427141029e-11 -1.39816705674229e-27 4.17815771679501e-08 8.88698216742782e-29 4.18595595907301e-08)
(5.32248496747316e-08 9.26766824530631e-11 -2.25621652005425e-29 5.30099892782621e-08 -4.87363010188064e-29 5.31173991564492e-08)
(6.74965298855802e-08 1.38999732030153e-10 -1.04391319359759e-27 6.72062085121063e-08 4.77915587961583e-28 6.73513564923002e-08)
(8.50564910278812e-08 2.07279570832915e-10 1.53574693985848e-26 8.46764108621398e-08 3.45426669635616e-26 8.4866470091354e-08)
(1.06409062093792e-07 3.0680031678831e-10 2.16084447495586e-25 1.05926401346552e-07 -2.69271759137846e-26 1.0616784628449e-07)
(1.32187181425528e-07 4.47137939448907e-10 8.43258692371086e-26 1.31593396787908e-07 -1.62713126612989e-24 1.3189049962298e-07)
(1.62150243244877e-07 6.33077818842112e-10 -4.96089325510679e-25 1.61455620523027e-07 -1.93758976074356e-24 1.61803307838782e-07)
(1.95635898363088e-07 8.64747663934519e-10 -4.66572688071685e-25 1.9487619377337e-07 6.30989084166224e-26 1.95256642491845e-07)
(2.31727118740074e-07 1.13770156060548e-09 -4.61186220135243e-28 2.30965346017257e-07 1.82470875000734e-26 2.31347158301434e-07)
(2.69882998687809e-07 1.44575386349709e-09 8.49737951830193e-25 2.69208251233088e-07 -6.55795116729075e-26 2.69547448025384e-07)
(3.11052173081065e-07 1.7770396782971e-09 1.65346129561722e-24 3.10566818261171e-07 -4.9011587858093e-24 3.10810392651191e-07)
(3.61858052737979e-07 2.31801531148154e-09 3.78673582739844e-26 3.61634719242587e-07 -5.0903494776442e-24 3.61750086129663e-07)
(4.4773899300166e-07 3.37570379174223e-09 -1.42915144351818e-24 4.47641687680714e-07 6.94019233003508e-26 4.47694295282527e-07)
(5.50401974093987e-07 4.66397328548652e-09 -1.79109885062754e-29 5.50309466160052e-07 3.06797177159783e-28 5.50359181014676e-07)
(6.47358256961905e-07 5.91229395607825e-09 1.6261880622209e-40 6.47275698507777e-07 -7.23012441928303e-28 6.47321174817719e-07)
(7.39477984451184e-07 7.12913409807606e-09 2.92092803426528e-40 7.39403169333252e-07 8.41529863484677e-28 7.39445069770012e-07)
(8.27821156420776e-07 8.30027991548897e-09 -2.95990824351355e-24 8.27754189343526e-07 1.16829807315561e-25 8.27792603918211e-07)
(9.13070815658828e-07 9.42380320895023e-09 -8.56500553758774e-24 9.13011530884692e-07 1.37398458128557e-23 9.13046457728958e-07)
(9.95663056176989e-07 1.04938020075358e-08 -2.22894637822295e-24 9.95611661300868e-07 1.43784418180675e-23 9.95642979438567e-07)
(1.07592445242802e-06 1.15059326781394e-08 3.98706850629652e-24 1.07588130667122e-06 -1.42886197277129e-25 1.07590877885558e-06)
(1.15412390402475e-06 1.24552517219677e-08 1.97851990939008e-29 1.15408954051201e-06 -7.17737777567827e-31 1.15411284983362e-06)
(1.23083168331454e-06 1.33408231192083e-08 -2.11415818915948e-29 1.2308067213657e-06 -1.15884560995607e-27 1.23082549460434e-06)
(1.30609015354627e-06 1.41564971954682e-08 5.55950572512318e-29 1.30607524608115e-06 8.79691344155705e-28 1.30608908431722e-06)
(1.37852210820091e-06 1.48816168706762e-08 2.36976971446504e-29 1.37851783864824e-06 3.67300236320998e-28 1.37852637266102e-06)
(1.44690007558817e-06 1.54985670813541e-08 6.92430576541551e-24 1.44690688480493e-06 -1.74446879295153e-25 1.44690981454438e-06)
(1.51085711004258e-06 1.60007296747131e-08 1.66379743427012e-23 1.51087527120429e-06 -2.95058373081163e-23 1.51087238255286e-06)
(1.57015075738248e-06 1.63844634564174e-08 1.87429353601608e-24 1.5701803759142e-06 -3.04968247029356e-23 1.57017154167451e-06)
(1.62456493701571e-06 1.6648028415686e-08 -8.0524291592467e-24 1.62460594245125e-06 1.72693050592132e-25 1.62459112876995e-06)
(1.67392118838364e-06 1.67916820986789e-08 1.28856456629641e-39 1.67397333222856e-06 -2.31158037115218e-41 1.67395260054584e-06)
(1.71808633724694e-06 1.68176734204172e-08 1.36868938810644e-39 1.71814919578221e-06 -5.38787813204187e-39 1.71812270290949e-06)
(1.75698159426183e-06 1.67302050417657e-08 9.67379298775458e-24 1.75705458046631e-06 -1.38832003121037e-25 1.75702257373912e-06)
(1.79058711950836e-06 1.65352651937699e-08 1.92507756842652e-23 1.79066950510915e-06 -4.13219971047287e-23 1.79063231116439e-06)
(1.8189379800389e-06 1.62403511324653e-08 -1.0658712920732e-24 1.81902891797658e-06 -4.26568243055872e-23 1.8189869327546e-06)
(1.84212453537177e-06 1.5854202389714e-08 -1.0441895581843e-23 1.84222309138466e-06 1.12835740435564e-25 1.84217676296436e-06)
(1.86028010502411e-06 1.53864125651253e-08 -1.67936754851409e-39 1.86038528255735e-06 -2.36394401375465e-28 1.86033509918803e-06)
(1.8735786300953e-06 1.48471717050534e-08 -1.20608519586032e-39 1.87368939728977e-06 4.83646881360237e-28 1.87363587281854e-06)
(1.88222573319643e-06 1.42469425679749e-08 1.69975635926071e-39 1.88234104832747e-06 -2.46767576318273e-28 1.88228470888324e-06)
(1.88645058011017e-06 1.35961912588957e-08 0 1.88656941255142e-06 -6.48423998029212e-29 1.88651078486582e-06)
(1.88649996826776e-06 1.29051783061041e-08 1.51618695393779e-43 1.88662131534913e-06 6.51379243443483e-29 1.88656091811563e-06)
(1.88263728726713e-06 1.21837964601276e-08 -8.21677340429315e-30 1.88276019237991e-06 -1.47402253705563e-32 1.88269852509692e-06)
(1.87513345404263e-06 1.14413962900993e-08 5.96582312768155e-30 1.87525701774529e-06 -1.00792041797379e-28 1.87519455609218e-06)
(1.86426945593141e-06 1.06866836126049e-08 2.72415662310939e-29 1.8643928544046e-06 1.00471642538285e-28 1.86433003748383e-06)
(1.85031175955504e-06 9.92751583553821e-09 -2.097861349255e-29 1.85043424563268e-06 -7.95381148915969e-29 1.85037147762554e-06)
(1.83350699176228e-06 9.1708571833768e-09 -2.04654441825423e-29 1.83362790727649e-06 6.58397378523249e-28 1.83356554772267e-06)
(1.81402659691225e-06 8.42254241836426e-09 1.64537406905931e-29 1.81414534357806e-06 -5.75194529693413e-28 1.8140837209771e-06)
(1.79198932633111e-06 7.68778024666044e-09 0 1.79210532286538e-06 0 1.7920447605097e-06)
(1.767579517509e-06 6.97170078726847e-09 0 1.76769222719816e-06 0 1.7676330248992e-06)
(1.74101824324767e-06 6.27897316935817e-09 0 1.74112719731221e-06 0 1.74106962159633e-06)
(1.71257477139234e-06 5.61369195567045e-09 0 1.71267959336869e-06 0 1.71262386233169e-06)
(1.68251077446493e-06 4.97908491053056e-09 0 1.6826111802174e-06 0 1.68255746452705e-06)
(1.65101327555921e-06 4.37740959802875e-09 -1.34293890982309e-23 1.65110906232952e-06 -2.90281433614076e-25 1.65105748982627e-06)
(1.61816004530896e-06 3.81006727061408e-09 -2.8704239483429e-23 1.61825104301481e-06 6.81762768788786e-23 1.61820172117458e-06)
(1.58396594466507e-06 3.27827049880685e-09 -3.87571292769514e-24 1.58405198135055e-06 1.39337228525739e-22 1.58400502363588e-06)
(1.5485225742111e-06 2.7830981352658e-09 2.39276199136363e-23 1.54860350845556e-06 7.11646142134693e-23 1.54855900350939e-06)
(1.51183939675503e-06 2.32542635522437e-09 1.25497189943133e-23 1.51191509282023e-06 3.37697677517876e-25 1.51187313738572e-06)
(1.47391853807402e-06 1.90565242069419e-09 1.29330740473462e-28 1.47398891030242e-06 2.28717236964953e-27 1.47394955727132e-06)
(1.43478209610467e-06 1.52436167551105e-09 -1.20035973676155e-28 1.43484705253666e-06 -2.93638847612382e-27 1.43481037872542e-06)
(1.39433393863445e-06 1.18137603988139e-09 -1.22712644587832e-23 1.39439337759579e-06 -4.15353141475791e-25 1.39435943062771e-06)
(1.35209517744751e-06 8.77567722252174e-10 -1.24277586344726e-23 1.35214891044185e-06 6.57455779258643e-23 1.352117833783e-06)
(1.30800871901994e-06 6.1265980737291e-10 1.11748048709135e-23 1.30805653417694e-06 6.76973426917039e-23 1.30802839683921e-06)
(1.26129446548491e-06 3.8954731613745e-10 1.11412352322952e-23 1.26133593760786e-06 4.16219890181317e-25 1.26131106251004e-06)
(1.21139660781016e-06 2.0705138148849e-10 1.12907954257466e-28 1.21143124669262e-06 3.36706993894068e-27 1.21140976424642e-06)
(1.15662161921679e-06 7.31233095149334e-11 -1.055318496339e-28 1.15664842562265e-06 1.93929586234972e-27 1.15663109578916e-06)
(1.09571374914104e-06 -1.55908535315143e-11 1.03397400870321e-28 1.09573160353819e-06 -1.83671156866913e-27 1.09571866569442e-06)
(1.02505458477922e-06 -3.9644534249567e-11 -9.54693109765448e-29 1.02506177974914e-06 1.18714028469904e-27 1.02505478471359e-06)
(9.43898413977697e-07 -1.54070845501656e-11 -5.85507528065824e-27 9.43887705409919e-07 -1.38037651771286e-27 9.43888886976465e-07)
(8.87455178795004e-07 1.57249594187057e-10 2.31530260251796e-26 8.87448423805362e-07 -6.56904796008257e-26 8.87451309966926e-07)
(9.52316081421638e-07 1.77499233935227e-10 6.159959520002e-26 9.5238040417053e-07 -1.34034013266377e-25 9.5234667817301e-07)
(1.03579761029644e-06 -1.65712086909931e-11 5.75769328628822e-26 1.03582438895819e-06 -2.90396324377909e-25 1.03581510798521e-06)
(1.13154531662814e-06 -3.02424061802666e-10 1.48539184422127e-25 1.1314000107151e-06 -1.27847760989496e-24 1.13147864999757e-06)
(1.22483285536352e-06 -7.41083025595623e-10 -1.69469170159508e-25 1.22426565868379e-06 -1.1564426891152e-26 1.22455917507006e-06)
(1.31884695146479e-06 -1.27621932154497e-09 8.99436546131556e-25 1.31756518966655e-06 -3.54540852632132e-24 1.31821834175292e-06)
(1.41279006967444e-06 -1.91493668250035e-09 4.27859928798327e-27 1.41041317109033e-06 1.74769206083453e-28 1.41161532987926e-06)
(1.50895888672408e-06 -2.62814529013463e-09 -7.85316274791429e-26 1.50505425694308e-06 6.48698559864614e-25 1.50702040172429e-06)
(1.61769698343754e-06 -3.4592098613882e-09 2.18113046351867e-25 1.61167753960176e-06 -6.33249490931071e-25 1.61469762829771e-06)
(1.72338524177234e-06 -4.39881299371812e-09 6.21152947853425e-25 1.7146386971006e-06 -1.47557692532874e-24 1.71901519688592e-06)
(1.8107315025166e-06 -5.36734395037075e-09 -1.45475331844189e-24 1.79885453980417e-06 3.46100272010294e-24 1.8047858399463e-06)
(1.87629942357146e-06 -6.32070245365357e-09 -2.143608094771e-25 1.86110241280607e-06 -1.31024057046572e-26 1.86868026503058e-06)
(1.91537785458675e-06 -7.21380535929563e-09 -9.53755923672973e-26 1.896942226213e-06 5.49494393107036e-25 1.90612519160184e-06)
(1.92411492067683e-06 -8.0073347041545e-09 -4.34946055401947e-25 1.90281129783354e-06 1.2201644978168e-24 1.91341409685421e-06)
(1.88780983744274e-06 -8.56336387082086e-09 5.57342143329484e-26 1.86454590216336e-06 -4.67668621083299e-25 1.87612005807813e-06)
(1.82108214988431e-06 -8.80215125153154e-09 -7.43926454593153e-26 1.7968577939813e-06 -3.38480966656684e-27 1.80890892320298e-06)
(1.75657295158456e-06 -8.86258217491668e-09 6.83565089374092e-25 1.7317610345822e-06 -1.20471136897642e-24 1.74410284796027e-06)
(1.70164424030213e-06 -8.86376903648403e-09 -4.54857938076281e-25 1.6762570759921e-06 7.6642065181174e-25 1.6888827697717e-06)
(1.65995874473448e-06 -8.85263046958632e-09 -1.05214696838312e-25 1.6338628519434e-06 3.01348702674616e-25 1.64683838348924e-06)
(1.64251800670969e-06 -8.94729592875224e-09 4.12481124922276e-26 1.61521971408898e-06 1.3958592165194e-27 1.62878755855509e-06)
(1.66433600574812e-06 -9.27752063614992e-09 4.03588292630533e-25 1.63488755563024e-06 -7.23250721016739e-25 1.64951710380701e-06)
(1.75236997154101e-06 -1.02669077831878e-08 -2.43067317564429e-26 1.71867836490131e-06 -2.46708620619487e-28 1.73539602988199e-06)
(1.84602775279684e-06 -1.19055527717678e-08 -2.72891159762475e-25 1.80725708508199e-06 7.82668831373532e-25 1.82647986717693e-06)
(1.94973474773334e-06 -1.43697890773834e-08 -1.54676485564439e-25 1.90557877009508e-06 3.50068313378728e-25 1.9274583346682e-06)
(2.06711877452878e-06 -1.80026444613044e-08 3.08420641598654e-26 2.017539077981e-06 -9.89144616434663e-26 2.04209577246821e-06)
(2.18540989437233e-06 -2.31102847058502e-08 -1.38710830917126e-25 2.1314767785908e-06 2.65116093277804e-25 2.15818087085971e-06)
(2.22069566852756e-06 -2.88587163082999e-08 1.61003080003949e-25 2.16747191309049e-06 2.0571109865832e-25 2.19381847550361e-06)
(1.97568602565518e-06 -3.02816880557412e-08 -2.28841890732329e-27 1.9356671694468e-06 3.92883576354409e-29 1.9554872746288e-06)
(1.62286617918877e-06 -2.51637858079275e-08 -6.91158416037659e-26 1.60205908230007e-06 -5.88750665274173e-26 1.61239283064533e-06)
(1.2715541230772e-06 -1.6247892076075e-08 6.53284131349509e-27 1.26409961181919e-06 -4.75399601804091e-26 1.26781286892915e-06)
(1.00482758173999e-06 -9.68097399901597e-09 6.55661431373408e-28 1.00284218111941e-06 -8.79455585659861e-30 1.00383105131386e-06)
(8.25600643753181e-07 -5.53220545652879e-09 -1.0824186765849e-30 8.25367895731944e-07 3.27508686326485e-28 8.25490868715457e-07)
(8.26101927431457e-07 -4.56809022268653e-09 -2.76087969948089e-33 8.26093970299306e-07 0 8.26092017891372e-07)
(2.84433951381445e-05 -1.07541038417784e-06 7.14865839475843e-28 2.84596708030519e-05 1.77038371518986e-29 2.84528315927769e-05)
(3.01065796598736e-05 -1.21023186219416e-06 -4.99819744129088e-26 3.01390442531125e-05 1.55623906088622e-26 3.01214167905549e-05)
(2.42969589718196e-05 -9.55403380255525e-07 -6.60725683398934e-25 2.44231223883166e-05 -3.27320232213478e-25 2.43608190053368e-05)
(1.65616189422412e-05 -4.91343856251491e-07 -1.25605471381229e-24 1.67093219139517e-05 -6.96008481735428e-25 1.66357115437286e-05)
(9.03569110448662e-06 -1.21806106036678e-07 -1.08185131320102e-24 9.09269024935529e-06 -2.63844466052347e-24 9.06474340997254e-06)
(3.95849840095593e-06 6.0251887200571e-09 8.89190669340154e-25 3.93757985912353e-06 3.59171859393423e-24 3.94838588318232e-06)
(1.78768230784281e-06 1.23133082560918e-08 7.83815213666555e-25 1.7630059740083e-06 2.60257651568747e-24 1.77547306093852e-06)
(1.37053898529593e-06 8.86641544484071e-09 -4.24732527850827e-25 1.34969072701613e-06 -7.94708893583612e-25 1.36020555875205e-06)
(1.1732799589209e-06 6.51859262072881e-09 3.43279423684354e-25 1.15539901690281e-06 1.03050497421065e-24 1.16439741973951e-06)
(8.78402729116554e-07 4.15188470878761e-09 1.1773233678819e-25 8.65746714433342e-07 -2.19506385631928e-26 8.72111853255373e-07)
(6.52854058893766e-07 2.77043853063693e-09 -4.35724461974328e-25 6.43856818047091e-07 -6.53053187093709e-25 6.48376988385884e-07)
(5.33205721989939e-07 2.16008433149124e-09 -4.17220811596625e-27 5.26096337531052e-07 2.11632593716152e-28 5.29666079775935e-07)
(4.82360454923759e-07 1.98403037841516e-09 -3.6092010630289e-25 4.76029502334338e-07 -6.00137367376037e-25 4.79205767474063e-07)
(4.66663702382215e-07 1.98937208184061e-09 3.04697601081896e-26 4.60544262449658e-07 -8.59299903718378e-28 4.6361339709783e-07)
(4.72575284446877e-07 2.10907271562474e-09 -3.93246986090337e-26 4.66294164037572e-07 1.19332215583409e-27 4.69442483051823e-07)
(4.94562321861842e-07 2.31501126561511e-09 -4.59645848889742e-25 4.87838398765378e-07 -8.21649869260335e-25 4.91207406026463e-07)
(5.3751781155007e-07 2.66309063764318e-09 3.98675411262215e-25 5.29905876790309e-07 7.30549192096608e-25 5.33717593020598e-07)
(6.08829222841764e-07 3.23234862352719e-09 -1.95102984035405e-28 5.99660612886223e-07 -4.25672489601234e-28 6.04250300411948e-07)
(7.17691438365782e-07 4.14360210643524e-09 -8.84318166698704e-26 7.05973857563119e-07 4.29195771476449e-27 7.1183783670508e-07)
(8.71751273184288e-07 5.56847925361326e-09 -7.91852666551265e-25 8.56197487366709e-07 -9.65285069490056e-25 8.63979421429127e-07)
(1.08189064134697e-06 7.83170443325637e-09 -4.56863110770673e-25 1.06072380400904e-06 -7.0494964987207e-25 1.0713127408718e-06)
(1.36398584668374e-06 1.14307919294082e-08 4.04577567408965e-25 1.33476139329018e-06 -2.1713140094062e-26 1.3493804903059e-06)
(1.73262840468853e-06 1.70561069440541e-08 2.08188865148086e-27 1.69236691442346e-06 5.61090845509481e-27 1.71250802613188e-06)
(2.19951982669507e-06 2.56129698206182e-08 2.19726562269735e-24 2.1450754412719e-06 4.7501026298361e-24 2.17231182609313e-06)
(2.77448525022011e-06 3.83058900954009e-08 8.09715534500855e-26 2.70299249261081e-06 4.25263534973505e-26 2.73875172157833e-06)
(3.47350314215789e-06 5.67659237643533e-08 -6.05740298026031e-23 3.38248839742782e-06 1.46212793100991e-23 3.42801348823923e-06)
(4.31702159022633e-06 8.26727338554642e-08 -3.34220300277887e-22 4.20502793917466e-06 -6.76531292070359e-22 4.26104265212683e-06)
(5.29645274051335e-06 1.16993390029792e-07 -1.9043957651629e-22 5.16546440631095e-06 -9.10077039493936e-22 5.23097916236515e-06)
(6.3886107009225e-06 1.59883878322366e-07 1.3013003961445e-22 6.24518918228078e-06 -1.41565567992753e-23 6.31690670267372e-06)
(7.56153454975243e-06 2.10624712529754e-07 1.00161607712305e-24 7.41723852619725e-06 8.64128285867335e-24 7.4893699106961e-06)
(8.79544972423147e-06 2.68267647804447e-07 -2.36534843431848e-22 8.66626595124199e-06 1.87656080965067e-24 8.73092713933754e-06)
(1.01223943398078e-05 3.36101612518195e-07 -5.98122195988639e-22 1.00228142120707e-05 -2.31009604275715e-21 1.00720996789373e-05)
(1.17488788419029e-05 4.3379214446973e-07 3.80997927919959e-23 1.16899633203838e-05 -2.75737003370242e-21 1.17193114508414e-05)
(1.45118961145883e-05 6.01392752276639e-07 3.83522268348706e-22 1.44707902475353e-05 -1.86511915519884e-23 1.44909984943373e-05)
(1.78244336703803e-05 8.02251055143708e-07 -2.41549210154638e-27 1.77863937104116e-05 5.33838615347599e-26 1.78047547357587e-05)
(2.09538485536863e-05 9.95299335004373e-07 -1.201167405862e-26 2.0921373118498e-05 -6.67191547749439e-26 2.09369692350906e-05)
(2.39272144829437e-05 1.18003372438184e-06 3.51746281125475e-26 2.38993460915652e-05 7.47879452016037e-26 2.39125382069405e-05)
(2.67782862880449e-05 1.35540647823016e-06 7.82716798319543e-22 2.67550452136179e-05 -3.08090083833824e-23 2.67658795343861e-05)
(2.95292745179562e-05 1.52120709492905e-06 1.84118353315526e-21 2.95105456672946e-05 7.72200105941095e-21 2.95190778720534e-05)
(3.2194205688296e-05 1.67680397194338e-06 1.16253910919797e-22 3.21800465576115e-05 8.79637334611568e-21 3.21862690323984e-05)
(3.47836493026151e-05 1.82166681879973e-06 -1.03980261121543e-21 3.47741718796794e-05 3.74044028048196e-23 3.47780419156223e-05)
(3.73062729792043e-05 1.95521432633057e-06 -2.41889327873754e-26 3.73016587467924e-05 -1.25362957370983e-25 3.73031019911561e-05)
(3.97805712758798e-05 2.07748864241057e-06 -6.71940613094108e-27 3.9781025179063e-05 1.86474899082398e-25 3.97799524141059e-05)
(4.22080031666513e-05 2.18774403418992e-06 3.58003417350301e-26 4.22137204191092e-05 7.59734943238957e-27 4.22100498628216e-05)
(4.45295831358229e-05 2.28230425155335e-06 -2.34473982312273e-26 4.4540701249567e-05 -6.69549960113128e-26 4.45343825124267e-05)
(4.67162106402152e-05 2.35931283736384e-06 -1.8207824651747e-21 4.67327902332616e-05 4.57247460037758e-23 4.67238096937625e-05)
(4.87599973199109e-05 2.41825436644005e-06 -3.64579731536585e-21 4.87820216379444e-05 -1.71430807096949e-20 4.87704028158154e-05)
(5.06534538986729e-05 2.45887061066888e-06 2.54760557382949e-22 5.06808302725261e-05 -1.85415791236128e-20 5.0666632926838e-05)
(5.23899447743812e-05 2.481176438854e-06 2.10236961052543e-21 5.24225040455576e-05 -4.52624397984208e-23 5.24058243517374e-05)
(5.39640374080251e-05 2.48546678836334e-06 1.07843362036531e-26 5.40015357681727e-05 -1.15794736574418e-25 5.39825050538466e-05)
(5.53717428552512e-05 2.47230980835365e-06 -2.51939132002419e-37 5.5413866207786e-05 1.18815214360796e-25 5.53926486856438e-05)
(5.66107934231676e-05 2.44253463271176e-06 -2.56323386034632e-21 5.66571653435459e-05 3.67858700019403e-23 5.66339540920966e-05)
(5.76807719798029e-05 2.39720376010542e-06 -4.36408969612507e-21 5.77309649800158e-05 -2.34210067127826e-20 5.77059761802682e-05)
(5.85829860891855e-05 2.33757076295128e-06 1.01003244779387e-21 5.86365333235297e-05 -2.45638853959108e-20 5.86100007214789e-05)
(5.93204621242478e-05 2.26504130110115e-06 2.76298817663439e-21 5.93768712034613e-05 -2.97381989729573e-23 5.93490391005439e-05)
(5.98975659091913e-05 2.18111966841428e-06 -2.31184548147002e-27 5.99563303299024e-05 1.49738359171603e-25 5.99274482766593e-05)
(6.03199225392315e-05 2.08737220012279e-06 5.43228142913544e-27 6.03805331452692e-05 -7.42489613637393e-26 6.03508503326094e-05)
(6.05941344344513e-05 1.98538403559546e-06 -1.15767135822383e-26 6.06560898536685e-05 -1.62442689953645e-27 6.06258502058992e-05)
(6.07275270111406e-05 1.87672353474956e-06 4.40535187279268e-27 6.07903418894388e-05 -2.15466887060182e-26 6.07597801376501e-05)
(6.07279684436463e-05 1.76291431077397e-06 1.66077937166406e-27 6.07911801918901e-05 2.16680786744527e-26 6.0760518912105e-05)
(6.06038310882112e-05 1.64541455578582e-06 -1.04542874561678e-27 6.0667006407224e-05 2.21943516061871e-26 6.06364527545889e-05)
(6.03637184488688e-05 1.52559364437186e-06 -2.1801525511184e-41 6.0426457942717e-05 -3.67714885058303e-27 6.03962020086533e-05)
(6.00165260305812e-05 1.40471999521557e-06 -4.63410212107788e-27 6.00784699268851e-05 -1.85276370916252e-26 6.0048681529918e-05)
(5.95706919457733e-05 1.28393591020398e-06 1.22445218852403e-26 5.96315205416328e-05 -1.34024900809349e-25 5.96023498956814e-05)
(5.90339954730493e-05 1.16425399782051e-06 2.25489175263435e-28 5.90934303734672e-05 2.33089741569174e-25 5.90650070241532e-05)
(5.84118463988588e-05 1.04653867586043e-06 -1.69801587209974e-26 5.84696359128004e-05 -9.92864783263715e-26 5.8442075866029e-05)
(5.77080361932737e-05 9.31566432793472e-07 9.14909793554351e-27 5.7763940430938e-05 9.84764400172189e-29 5.77373544728408e-05)
(5.69284151522044e-05 8.20084270594786e-07 0 5.69822174586537e-05 0 5.69567046964002e-05)
(5.60799852952976e-05 7.12761250289667e-07 0 5.61315028308276e-05 0 5.61071462897497e-05)
(5.51712612992717e-05 6.1017203292712e-07 0 5.52203535615321e-05 1.99767530722779e-25 5.51972156024902e-05)
(5.42105258103068e-05 5.12766631480795e-07 -1.94759343372298e-26 5.42570934611853e-05 -1.98281525382183e-25 5.42352168206192e-05)
(5.32036774647687e-05 4.20866529680574e-07 3.79567521819123e-21 5.32476548391934e-05 8.19023710590093e-23 5.32270661647647e-05)
(5.21531713595362e-05 3.34692319440238e-07 7.95999847047051e-21 5.21945040126269e-05 3.16755921474841e-20 5.2175224166322e-05)
(5.10595064342617e-05 2.54441301414132e-07 7.96749234129746e-22 5.10981408360562e-05 6.23584672488349e-20 5.10801920603752e-05)
(4.99255688098657e-05 1.80278995379489e-07 -6.96495427015803e-21 4.99614617347782e-05 3.0608728564648e-20 4.99448592464831e-05)
(4.87516904459666e-05 1.12347516253475e-07 -3.60092627990005e-21 4.87848058022194e-05 -9.68964797193695e-23 4.87695646095967e-05)
(4.75378126657009e-05 5.07221291321863e-08 -7.19272840126766e-26 4.75681295754385e-05 1.31940871312163e-26 4.75542524360776e-05)
(4.62847337131155e-05 -4.50001969090494e-09 3.34077564175372e-26 4.63122337868056e-05 -3.15565072329429e-25 4.62997283017498e-05)
(4.49893079585885e-05 -5.32975499299384e-08 3.53679962534906e-21 4.50139503127968e-05 1.20858191693721e-22 4.50028276179411e-05)
(4.36363721092744e-05 -9.54583584999505e-08 3.58210399951078e-21 4.36580898030768e-05 2.8647941209863e-20 4.36483893108197e-05)
(4.22239230798681e-05 -1.30954860090057e-07 -3.25585575254168e-21 4.22426039777348e-05 2.75985241835987e-20 4.22343637157104e-05)
(4.07275322490982e-05 -1.59259419144063e-07 -3.25923082521071e-21 4.07430185680392e-05 -1.22895159883284e-22 4.07363366604471e-05)
(3.91288243613296e-05 -1.8031726829878e-07 6.51794499901701e-26 3.91408389357221e-05 1.11074843482091e-25 3.91358101136211e-05)
(3.73750213516346e-05 -1.92792007419322e-07 -6.24099552812757e-26 3.73831800830733e-05 -3.26820482066298e-25 3.73800505062448e-05)
(3.54243399102839e-05 -1.96626430066663e-07 -2.94772790879621e-26 3.54279786640274e-05 3.07147018479012e-25 3.54269707157744e-05)
(3.31625740094826e-05 -1.88714772054522e-07 2.78012442923829e-26 3.31609900037774e-05 -2.19166838187422e-25 3.31626186162301e-05)
(3.05538669709189e-05 -1.69637422870385e-07 2.34240227695912e-40 3.05438265300965e-05 -8.33066941795266e-26 3.05492180214178e-05)
(2.87530544436601e-05 -1.37549244892995e-07 -6.6315139349953e-24 2.87338601392444e-05 1.20273224508553e-23 2.87443349192439e-05)
(3.08482586428657e-05 -1.50986961551558e-07 -5.24822802234524e-24 3.08184845080275e-05 -1.31354108686952e-22 3.08330675297368e-05)
(3.35533275823611e-05 -1.96156670769477e-07 -2.53859710983748e-23 3.34872225697414e-05 3.71444040532682e-23 3.35202720096272e-05)
(3.66548264378541e-05 -2.58459847038907e-07 1.20713848202626e-23 3.65227674360087e-05 3.30507379631235e-23 3.65879428682405e-05)
(3.97021496012329e-05 -3.38246280319245e-07 8.82648269876836e-25 3.94632980774364e-05 -8.67722388834212e-27 3.95817062184705e-05)
(4.27913817195076e-05 -4.30118144198642e-07 -2.402227456805e-22 4.2397576015463e-05 9.71820778564264e-22 4.2593100165979e-05)
(4.59020620516198e-05 -5.32892804513007e-07 6.80548290221226e-23 4.529608510837e-05 4.32069887776893e-24 4.55976456835738e-05)
(4.91118565681507e-05 -6.43646456460307e-07 -1.36044738062658e-22 4.82296121235777e-05 2.86595407639675e-22 4.86696350301134e-05)
(5.273875085366e-05 -7.6870398231086e-07 -5.53357842156289e-23 5.14967020836455e-05 6.76254224694688e-23 5.2117271508636e-05)
(5.62873596408986e-05 -9.03734861000412e-07 -4.92944744492024e-23 5.46056521569437e-05 2.76341491788234e-22 5.54474842203772e-05)
(5.92689626796433e-05 -1.03833903349956e-06 9.80804448426595e-23 5.70991452107962e-05 -2.58705717810666e-22 5.81870901565389e-05)
(6.15603083476283e-05 -1.16770685682022e-06 -2.77339528855947e-24 5.88845202849777e-05 4.26094151852377e-26 6.02277973094398e-05)
(6.29992425892327e-05 -1.28656264054139e-06 1.43498780550666e-23 5.98375683305494e-05 -5.89744420491387e-23 6.14263692383224e-05)
(6.34440768421407e-05 -1.38995697369974e-06 6.29503148879395e-23 5.98563245983002e-05 -2.25859201212714e-22 6.16603812149115e-05)
(6.24227404683704e-05 -1.45997765385941e-06 1.23409451335958e-22 5.85408194926026e-05 -2.07175049595527e-22 6.0493640675933e-05)
(6.03900129423565e-05 -1.48906613040628e-06 -1.16902312842192e-22 5.6352930291247e-05 2.32715936011167e-22 5.83839560932492e-05)
(5.83876442517458e-05 -1.4941511724151e-06 -7.52345208814886e-23 5.42517836170821e-05 2.12951308352811e-22 5.63323247991305e-05)
(5.66781993532641e-05 -1.4887045193583e-06 1.03087859312287e-22 5.24529310443526e-05 -1.40630178258528e-22 5.45787463985725e-05)
(5.53979017524771e-05 -1.48117280413342e-06 -8.47666450644664e-23 5.10658053231288e-05 1.2285002681178e-22 5.32459553344224e-05)
(5.49163970191774e-05 -1.48858780695923e-06 -2.08108523122628e-23 5.04080607521861e-05 -5.77482720141964e-25 5.26776796173331e-05)
(5.57399491016843e-05 -1.5315762379591e-06 -1.06200558272833e-22 5.0918981425182e-05 2.63245720445982e-22 5.33477640848825e-05)
(5.87302998499122e-05 -1.66468013746769e-06 2.19777482787415e-23 5.33125341727983e-05 3.57621309590749e-25 5.60440888659968e-05)
(6.19673253054995e-05 -1.88898221731226e-06 2.68702806509912e-24 5.58454838039585e-05 -1.4532041727077e-22 5.89360962606649e-05)