/*--------------------------------*- C++ -*----------------------------------*\
  =========                 |
  \\      /  F ield         | OpenFOAM: The Open Source CFD Toolbox
   \\    /   O peration     | Website:  https://openfoam.org
    \\  /    A nd           | Version:  7
     \\/     M anipulation  |
\*---------------------------------------------------------------------------*/
FoamFile
{
    version     2.0;
    format      ascii;
    class       volVectorField;
    location    "20000";
    object      U;
}
// * * * * * * * * * * * * * * * * * * * * * * * * * * * * * * * * * * * * * //

dimensions      [0 1 -1 0 0 0 0];

internalField   nonuniform List<vector> 
15600
(
(0.0268157849774581 -1.66951539136598e-05 1.57599046818217e-24)
(0.0314646714689026 -0.000161318353085854 1.61589336263211e-21)
(0.0308109705641229 -0.0013240441302865 -2.01254773851617e-20)
(0.0183986235615283 -0.00202829911564111 9.3296936176979e-20)
(0.00308528086982196 -0.000823475125127107 3.36738204768949e-23)
(-0.00860868859236448 0.00227050713781699 -1.37618470867387e-21)
(-0.011143939651263 0.00413550961674861 1.29506019363151e-18)
(-0.00959669918709382 0.0042851444067886 -8.3273541317784e-23)
(-0.00840377332009196 0.00417423135992537 -1.54502011530281e-18)
(-0.00712223776868445 0.00378542854945866 6.19708994244591e-24)
(-0.00625133018326466 0.00344328017276113 -3.54742612818373e-18)
(-0.00566060334032514 0.0031437716020184 -2.27999333560897e-22)
(-0.0053192967362284 0.00290794737391282 -4.02081714677835e-18)
(-0.00511061084095933 0.00274127091276046 -5.15477997090174e-22)
(-0.00500089536943738 0.00263685477026481 -1.1000934172774e-21)
(-0.00492622464314692 0.0025637159738529 -4.69506541171719e-18)
(-0.00493657167060345 0.00254435560900509 -1.52969642877625e-22)
(-0.0050521130262822 0.00258850208308452 0)
(-0.00529229003001564 0.00270167086680238 0)
(-0.00561634560801764 0.00284296524028429 -2.74648888859189e-18)
(-0.00604491289466961 0.00299617661849595 -5.70176517807e-18)
(-0.00658931771613097 0.00315246505355744 -1.9914912037266e-23)
(-0.00722568701058632 0.00328340479383566 2.9878097942194e-21)
(-0.00791081075495395 0.0033510891736743 -6.34819325746619e-23)
(-0.00862153895442852 0.00332843536311816 0)
(-0.00941891274417318 0.00323505069457118 -3.42292556098657e-18)
(-0.0103031972055384 0.00308352789744223 -2.86943424034987e-16)
(-0.0111937417753233 0.00284570748367133 -2.99703880673655e-16)
(-0.012040754582066 0.00250926307169572 -1.86605022881599e-18)
(-0.012831898485768 0.0020779011706866 1.90597708532083e-18)
(-0.0135782012866845 0.00155802018537646 -1.94295448108395e-18)
(-0.0140376432810184 0.000935756732709441 -3.7347562734943e-16)
(-0.0156351864397124 0.000325242873903717 -3.76420556023546e-16)
(-0.018833202365742 7.19917134721398e-05 -3.83661196641493e-21)
(-0.0215209438195192 6.43949069722447e-05 0)
(-0.0234164346117883 6.10394040648052e-05 0)
(-0.0248976211832666 5.84691763652735e-05 -2.96159380180561e-32)
(-0.0260402198050194 5.65010622443443e-05 0)
(-0.0269307606896125 5.45704919607153e-05 4.21532674513879e-16)
(-0.0276127248292767 5.26148592265819e-05 4.36874336804275e-16)
(-0.0281193561487893 5.05024744968432e-05 4.49052106397889e-21)
(-0.0284714161755658 4.81989954805637e-05 0)
(-0.0286839332176134 4.56687587740776e-05 2.4695193310352e-21)
(-0.0287677957058757 4.28995485352682e-05 8.0844022551816e-23)
(-0.0287321882369738 3.99138389134863e-05 -2.55019748743175e-21)
(-0.0285854508485024 3.67518574343802e-05 0)
(-0.0283354395552627 3.34488075927312e-05 -5.64171671686388e-16)
(-0.0279896142367736 3.00362016636136e-05 -5.84328908884468e-16)
(-0.0275551915340627 2.65472681490369e-05 0)
(-0.0270393047791168 2.30148742018925e-05 0)
(-0.0264490792464977 1.94719888517981e-05 -9.07481052013988e-32)
(-0.0257916860958097 1.59505485373681e-05 0)
(-0.0250742979498436 1.24790145101636e-05 -6.49073660682848e-16)
(-0.0243040511176664 9.08428822288422e-06 -6.68224790754131e-16)
(-0.0234879744698679 5.78801272974068e-06 0)
(-0.0226329095200006 2.60946714560619e-06 0)
(-0.0217454857888525 -4.36023669287163e-07 1.06421435878133e-31)
(-0.0208320508311554 -3.33655883361116e-06 0)
(-0.0198986331895785 -6.08368218691164e-06 0)
(-0.0189509327943186 -8.67098098908517e-06 0)
(-0.0179942851006141 -1.10960699780113e-05 0)
(-0.0170336615847333 -1.33569882050608e-05 5.14511475619103e-22)
(-0.0160736096458569 -1.54574782419724e-05 -5.15097934624695e-22)
(-0.0151182498531841 -1.73997197330053e-05 -1.06804621996645e-21)
(-0.0141712554369666 -1.91920608401587e-05 1.06925640398257e-21)
(-0.013235818229267 -2.08419032382492e-05 0)
(-0.0123151342874889 -2.23471221324208e-05 0)
(-0.0114124545249112 -2.37123330729452e-05 0)
(-0.0105308411552507 -2.49431632193734e-05 0)
(-0.00967301815888402 -2.60514398242681e-05 0)
(-0.00884124118419433 -2.7049021961628e-05 0)
(-0.00803733535475321 -2.79494213716448e-05 0)
(-0.00726274049313877 -2.87632282021938e-05 9.5888957932355e-16)
(-0.00651924887595684 -2.94875436662868e-05 1.93810328568983e-15)
(-0.00580851717267418 -3.01381327465185e-05 9.78572908673919e-16)
(-0.00513259653174377 -3.0706491162839e-05 -1.46584096299038e-31)
(-0.00449304281316373 -3.12217984487843e-05 0)
(-0.00389210879274503 -3.16637713410563e-05 -1.03441231106771e-20)
(-0.00333114032336553 -3.20776690932263e-05 1.03514563569977e-20)
(-0.00281446905240946 -3.24003951105296e-05 1.03749157874865e-15)
(-0.00234345257192371 -3.27370743402782e-05 1.04131299756488e-15)
(-0.00192771264176792 -3.28917045401834e-05 1.07511592924306e-20)
(-0.00156782616098065 -3.31487928913991e-05 -1.0756307851915e-20)
(-0.00128754791900389 -3.29625217431587e-05 0)
(-0.0010848775054168 -3.31136977501321e-05 0)
(-0.00102305975565243 -3.21410971110752e-05 -1.11246178077738e-20)
(-0.00107338049501838 -3.15330188437388e-05 1.11216026598093e-20)
(-0.00161813463723407 -4.48131123057184e-05 7.20181207122629e-19)
(-0.00168773684949799 -0.000114042408378043 -2.913311085237e-18)
(-0.00116506912816144 -0.00010730977070098 -5.80882592424716e-18)
(-0.00049869101297761 -3.52155551818026e-05 -5.81460399910531e-18)
(0.000499619929707469 0.000167986140856008 0)
(0.00168620092250925 0.000504709318267081 1.14193859077811e-17)
(0.00313133527248394 0.00101700022645069 0)
(0.00480526363769202 0.00172406727126952 1.10159710349824e-17)
(0.00682570337976588 0.00268509767844382 -1.07410217903681e-17)
(0.0092576564016445 0.00392588585354864 1.04346145428047e-17)
(0.0119898054748053 0.00538637584148527 -1.01075682162888e-17)
(0.0149506818418912 0.00700887739124383 9.50375620310404e-21)
(0.0180634667024666 0.00872343891002648 9.3755339458723e-18)
(0.0212530671922279 0.0104497961319198 -9.00626334448234e-18)
(0.0242918868276571 0.0120403228722751 -8.64910885589684e-18)
(0.0269200451623957 0.0134153163307464 0)
(0.0293128510197322 0.0147349686010832 -3.7808643510242e-21)
(0.031760178535258 0.0161535839522899 -7.39334445914395e-18)
(0.0343375732848081 0.0177271245884884 6.9238896525043e-18)
(0.0373108966373664 0.0195967264584436 -1.53077945903061e-21)
(0.0409413534153956 0.0219209239158544 1.46795248235568e-21)
(0.0462719461649922 0.0251034104851002 0)
(0.0532552387476667 0.0286473267034056 4.53885298589996e-18)
(0.0612136086589974 0.0318304279647015 -3.764068946589e-18)
(0.0702328358361938 0.0342595907979801 -2.8941954637439e-18)
(0.080200594413883 0.0352685142335367 -8.58380198856175e-23)
(0.0900995363194025 0.0336167772926112 -8.73760776216663e-21)
(0.0949204182693312 0.0272133301363394 0)
(0.085076765968409 0.0161107366249435 5.31336907796326e-19)
(0.063567001080254 0.00682867756918574 3.05746448801885e-19)
(0.045221670256234 0.00207734877571011 0)
(0.0296441417980914 0.000180938377725548 0)
(0.0243498878390313 -3.69045142883239e-05 0)
(0.0871661153572676 -0.00020476109042411 -2.34136033072252e-24)
(0.0977053110942661 -0.000607329052963753 -2.38051206860372e-21)
(0.0959061493179151 -0.0036234156717915 -1.52110164733158e-22)
(0.0647098224588535 -0.00577444225169539 -1.38774046122138e-19)
(0.0207544527377716 -0.002876303027455 -5.46911198142364e-19)
(-0.0169852659839275 0.00577168787554883 -4.51972241956869e-21)
(-0.0288086057170595 0.011433491878344 1.9738478135733e-18)
(-0.026248673633583 0.0121228642223148 -1.27077905397697e-22)
(-0.0233188260288407 0.0119147202793779 4.72286579685781e-18)
(-0.0200406706978264 0.0109020422188294 -2.53705015116558e-18)
(-0.0177675276384362 0.0099914458633414 2.71651533746318e-18)
(-0.0162242938157314 0.00917995759960312 -7.13331124844136e-22)
(-0.0153432015286197 0.00852991701568954 3.08129454367074e-18)
(-0.0148211223086769 0.00806973442345941 -7.88942474228814e-22)
(-0.0145688480503978 0.00778379486246753 0)
(-0.0144322302122108 0.00759530213817056 3.58687944559272e-18)
(-0.0145404522398481 0.00756798045588351 1.34358714174021e-21)
(-0.0149484484281309 0.00772911121984576 0)
(-0.0157008448527254 0.00808871618557495 0)
(-0.0167042435676327 0.00853372598795097 4.1688891102452e-18)
(-0.0180096979997018 0.00901403566357939 8.62572400014582e-18)
(-0.0196401049160651 0.00949695320432144 -4.3717569017333e-21)
(-0.0215296964251845 0.00989645623775958 9.01115811540725e-21)
(-0.0235720829689009 0.0101052473466897 -4.88979953713293e-21)
(-0.0257243405658778 0.0100524780664374 -4.92487850296518e-18)
(-0.0281174208540478 0.00978393807823563 5.07141456725071e-18)
(-0.0307270994624342 0.00932499381477826 4.27059810886481e-16)
(-0.0333494405618291 0.00859949619385086 4.3519427737687e-16)
(-0.035862838169603 0.00757858631527418 0)
(-0.0382348831340772 0.00627496585986486 -2.75757052930757e-18)
(-0.0404676227968621 0.00470514511313893 2.79384208923139e-18)
(-0.042508745268667 0.00292445025405727 5.40424322086038e-16)
(-0.0473252899981742 0.00124090976468355 5.30544408991527e-16)
(-0.0552814659096434 0.000507199402216876 0)
(-0.0617782913146823 0.000381285768062842 -5.51549136591327e-21)
(-0.0663467933972531 0.00028518401396768 1.1081261677165e-20)
(-0.0698450537451728 0.000220448495907072 -1.12908559890498e-20)
(-0.0724856398559399 0.000171603065710675 -1.60932529079283e-22)
(-0.0744799581510595 0.00013316202924896 -5.84824330549539e-16)
(-0.0759386714670716 0.00010146825117441 -5.97447117320168e-16)
(-0.0769442884902641 7.42852306160364e-05 -6.17260935982786e-21)
(-0.0775495835719389 5.01975602736509e-05 0)
(-0.0777933627861914 2.82945501115803e-05 6.78120866980218e-21)
(-0.0777049290586017 8.06216684728455e-06 -6.77854806260485e-21)
(-0.0773093311538938 -1.06909320366186e-05 5.17338099846643e-32)
(-0.0766294860092823 -2.80771811312133e-05 3.72962561665165e-21)
(-0.075686860194296 -4.41803669491387e-05 7.77504136130252e-16)
(-0.0745017542678963 -5.90667469586255e-05 7.99610637117789e-16)
(-0.0730937264709079 -7.27712551178274e-05 3.98052879069962e-21)
(-0.0714819706875712 -8.53111835841449e-05 0)
(-0.0696854964927892 -9.66909135415723e-05 1.25199589280707e-31)
(-0.0677232326469742 -0.00010691218691202 0)
(-0.0656139344409724 -0.000115985448965054 9.01214532940241e-16)
(-0.0633760900319741 -0.000123924502980805 9.26179087983672e-16)
(-0.061027767502026 -0.000130759430685733 -2.39257000419127e-21)
(-0.0585864532059801 -0.000136524054959084 1.26069276387065e-21)
(-0.0560689957702551 -0.000141261031853304 -2.56098156488444e-21)
(-0.0534914633069272 -0.000145019973631111 1.30066673983667e-21)
(-0.0508690775454738 -0.000147854935035594 3.4100680103066e-22)
(-0.0482161933705985 -0.000149820194535346 -3.42551864246633e-22)
(-0.0455462341847849 -0.000150977096367754 0)
(-0.0428716815234866 -0.000151383767968094 0)
(-0.0402039581486492 -0.000151113475499962 0)
(-0.0375534229229889 -0.00015022888569894 1.53288575635912e-21)
(-0.0349293419460375 -0.000148807364528702 -4.67170334069769e-21)
(-0.0323399563727913 -0.000146893010037097 3.14653155403088e-21)
(-0.0297935433224866 -0.000144469521141168 0)
(-0.0272984270101331 -0.000141552273007089 0)
(-0.0248624080045652 -0.000138176406006739 0)
(-0.0224924066837089 -0.000134408807191322 0)
(-0.0201942105895861 -0.000130317271457598 0)
(-0.017972604899491 -0.000125965935893038 7.13031679571772e-21)
(-0.0158316066740386 -0.000121368860362987 -1.41598639311867e-15)
(-0.013776105647859 -0.000116478386519848 -2.88235939077946e-15)
(-0.0118106995833401 -0.000111312912217742 -1.4664311836944e-15)
(-0.00994094178070265 -0.00010581792040234 2.19426703071141e-31)
(-0.00817122543223531 -0.000100067222109198 -1.53684460083352e-20)
(-0.00650772646254257 -9.39589828162217e-05 3.10003443772545e-20)
(-0.00495469663219122 -8.75072930730087e-05 -3.14078958765782e-20)
(-0.00352373648983004 -8.04152976525479e-05 -1.56121629766266e-15)
(-0.00221973640351471 -7.27625051829486e-05 -1.58996141776572e-15)
(-0.00106775503790013 -6.3724671628426e-05 1.63549555150138e-20)
(-7.22157967278243e-05 -5.35966265324391e-05 -1.63880686074389e-20)
(0.000706099409702377 -4.01464651506185e-05 -1.66719530639392e-20)
(0.00126502123383119 -2.42409181774971e-05 1.66724813618292e-20)
(0.00144433094362332 -5.30868894570544e-07 0)
(0.00127839662736333 3.89574740500545e-05 0)
(-7.01527554606961e-05 6.29430601170708e-05 0)
(-0.00011338830700789 -5.77335486998187e-05 4.44990355383467e-18)
(0.00135166125014796 6.58629319117256e-05 8.85425272719594e-18)
(0.00327477531984747 0.000390426965860865 1.75494273440819e-17)
(0.00601201115680981 0.00107618188316144 1.68990204726575e-20)
(0.00925268055324042 0.00213681397984102 1.70855897680544e-17)
(0.0131339697101925 0.00367505222428394 0)
(0.01759767330094 0.00574341910191758 -1.62939104197194e-17)
(0.0229090668902742 0.00848573873862765 1.57964827314605e-17)
(0.0292044937057477 0.0119621598502175 0)
(0.0362443127893019 0.0160206475607019 -1.4702737455887e-17)
(0.0438637480876999 0.0205080557707894 0)
(0.0518887089013897 0.0252428867328966 -1.35650943185146e-17)
(0.0601501732963828 0.0300189996327627 0)
(0.0681471546112367 0.0344722236945576 1.24223625125462e-17)
(0.0752872963589398 0.0384050813959787 0)
(0.0818591607159313 0.0421934780261147 1.12433703580264e-17)
(0.0884855784530627 0.0462283358134413 1.38732093577165e-22)
(0.0954121730570278 0.050682591664675 -9.95201454397423e-18)
(0.103251716351856 0.055914735093845 0)
(0.112648950264314 0.0623315463324325 8.40771285422611e-18)
(0.125932363670457 0.0708989681398619 -1.02516868275426e-21)
(0.143333386940733 0.0803957078521559 -1.29406052635366e-17)
(0.163661487936109 0.0889814387334394 3.52265022184509e-22)
(0.186932035633876 0.0954879374542418 4.05469468332987e-18)
(0.212944624040256 0.0981207504231747 -2.67300164211483e-18)
(0.239579175452665 0.0937193034549131 -1.20641149167345e-18)
(0.256129118572415 0.0771232607344874 -5.38268171355598e-23)
(0.240263331362875 0.0479542668757438 -2.48619444657178e-21)
(0.192897564762735 0.022063346422427 4.29150259208803e-19)
(0.145152779411015 0.00761591309185223 3.63100892005952e-23)
(0.102311699006217 0.0012895464210443 -7.87132993124774e-21)
(0.0844829997828762 1.47847872301798e-05 0)
(0.156101360961676 -0.0004277961519744 0)
(0.168869151520111 -0.00116121726699278 0)
(0.1656878311697 -0.00569911614962405 2.92800911373051e-20)
(0.121044706528319 -0.00964529173231595 2.71278845902004e-19)
(0.0507056143512869 -0.00622559411054599 1.07963246865272e-18)
(-0.0160094740863461 0.00711892782724904 -3.28809535247905e-18)
(-0.0419631656124064 0.0170105921552228 -4.04080703642409e-18)
(-0.040664131472093 0.0187049012296945 2.22248235902681e-18)
(-0.0367027331619659 0.0186077427454126 -4.84088506085701e-18)
(-0.0319501880867968 0.017238443358001 2.32138652624174e-21)
(-0.0285773439077228 0.0159598216093732 0)
(-0.0262750188031047 0.0147881244150825 0)
(-0.0249712508082281 0.0138276956925691 0)
(-0.0242218059692086 0.0131503056089118 0)
(-0.0238934338394043 0.0127377834532654 0)
(-0.0237711689065556 0.0124932773413768 1.8056539799272e-21)
(-0.0240472087735354 0.0125150694882014 -3.83673370825099e-18)
(-0.0248057693345793 0.0128448557894164 1.93247920626193e-21)
(-0.0261058227937105 0.0134871460564863 0)
(-0.0278228696218215 0.0142702622227557 -4.1551901526419e-21)
(-0.0300292572604691 0.0151072619300899 -4.36782265265331e-18)
(-0.0327499339901507 0.0159331815383912 0)
(-0.0358819657352359 0.0166051957208256 -4.54488259534243e-21)
(-0.0392753525278565 0.0169585654295329 -4.77058497181179e-18)
(-0.0428846212276407 0.0168909308080609 5.29735037562015e-21)
(-0.046866675947791 0.0164548049861315 -1.00245478935658e-17)
(-0.0511524655293404 0.0156760040764733 5.11095445939934e-18)
(-0.0554482542686661 0.0144459145818433 5.19626618900933e-18)
(-0.0595852998955971 0.0127297818996602 5.16688952692771e-21)
(-0.0635194026042032 0.0105523454808984 -5.17935621277958e-21)
(-0.0673046814681137 0.00796536629618481 -5.25884011863746e-21)
(-0.0713616714233273 0.00512661769434028 -1.33447919195924e-18)
(-0.0790378330060163 0.00246928986555073 0)
(-0.0900521790476163 0.00127170376915142 5.07142402816016e-21)
(-0.0987864988239671 0.000952687572454045 -4.99687109545181e-21)
(-0.104861935814132 0.000702525916573016 5.14469147455177e-21)
(-0.109393179896593 0.000533564918565761 -5.09326516238846e-21)
(-0.11270394146662 0.000405118290908078 -5.32754988311337e-21)
(-0.115085645491236 0.000303553347203731 1.07372365969601e-20)
(-0.116696100281798 0.000219210182368407 -5.41492484099609e-21)
(-0.117651179485501 0.000146479721321541 0)
(-0.118026680078768 8.17109385644902e-05 5.8952066055337e-21)
(-0.117879048766707 2.26957580870485e-05 -5.8740272727239e-21)
(-0.117252615663805 -3.16625817340974e-05 0)
(-0.116187236359599 -8.18562904002108e-05 0)
(-0.114718656778032 -0.000128244019119887 0)
(-0.112879732640693 -0.000171063287327596 0)
(-0.110701395199332 -0.000210487352879601 0)
(-0.108213245457271 -0.000246612266099407 0)
(-0.105444060878968 -0.000279489699082494 3.72235118361144e-21)
(-0.102422041333022 -0.000309143110627803 -3.7278355570487e-21)
(-0.099174933468914 -0.000335592966005798 0)
(-0.095729929923933 -0.000358880747523621 0)
(-0.0921135637935134 -0.000379060627813399 2.0940646505373e-21)
(-0.0883515369807277 -0.00039622313556585 5.26927551270652e-23)
(-0.0844685561697812 -0.000410470198314105 -4.38217760235438e-21)
(-0.0804882776163119 -0.000421924582702118 2.22840390269914e-21)
(-0.0764331599871105 -0.000430725426255926 0)
(-0.0723244118150332 -0.000437021599102398 6.01994797609851e-22)
(-0.0681819818597447 -0.000440964155943791 -6.05794083723165e-22)
(-0.0640244968622206 -0.00044271915313816 -6.34533299228266e-22)
(-0.059869253970542 -0.000442449548320223 6.38946127035233e-22)
(-0.0557320878026103 -0.00044034829957469 0)
(-0.0516273897950399 -0.000436587708849086 2.7361094803382e-21)
(-0.0475681015354442 -0.000431357953596437 -5.55953947892959e-21)
(-0.0435659630166602 -0.000424757415833328 2.82440669034743e-21)
(-0.0396328251472752 -0.000416758721224766 0)
(-0.0357804956850318 -0.000407414351401248 0)
(-0.032020008152206 -0.000396833962401399 0)
(-0.0283611401481177 -0.000385197829513979 -6.27010473158488e-21)
(-0.0248121678257968 -0.000372683670646164 6.32164701230629e-21)
(-0.0213801160986794 -0.000359444229080399 -6.53403950330124e-21)
(-0.0180711819737226 -0.000345495212102974 6.58747629656126e-21)
(-0.0148928444963161 -0.000330730796218825 0)
(-0.0118521934017136 -0.000315181801527391 0)
(-0.00895770776853561 -0.000298751358914269 0)
(-0.00621627462735083 -0.000281586143092841 0)
(-0.00363745874363797 -0.000263472919629656 0)
(-0.00122849449408162 -0.000244281599459835 0)
(0.000993120757393757 -0.000223310343632083 0)
(0.00301831259822779 -0.000200449681037926 0)
(0.00481059647815967 -0.000174029387167222 1.53361996225547e-20)
(0.00635903821791904 -0.000143897770514834 -1.535683438724e-20)
(0.0075774062644733 -0.000105413860826257 1.56533019550658e-20)
(0.00845096857738112 -5.82708992866042e-05 -1.5713347706283e-20)
(0.00875540556177819 9.05333045393287e-06 0)
(0.00848273268126154 0.000118833236707459 1.62651020689989e-20)
(0.00665895512132637 0.000268232307731771 1.36732924538399e-22)
(0.00680516389440945 0.000295829066916748 4.19796371197001e-18)
(0.00907842641154547 0.000751384654754142 -8.35489889754457e-18)
(0.0121320066953192 0.00153626506351754 -8.23577557354359e-18)
(0.0162957989617298 0.00285968321044491 0)
(0.0212106747376701 0.00474563640082865 -3.16269015473217e-17)
(0.0270226861530895 0.00732674968296314 -1.50040777017392e-20)
(0.0336775503151648 0.0106788230610371 0)
(0.0415174161604604 0.0149818082606005 -1.44571920235079e-17)
(0.0507177019062918 0.0202993175113086 0)
(0.0609978727878472 0.0264281663347126 2.41523829718858e-21)
(0.0721471284642569 0.0331569155795159 0)
(0.0839397558610235 0.040239546950024 1.23818054002096e-17)
(0.0961539011751522 0.0473966068959098 0)
(0.108154835067571 0.0541615869484454 0)
(0.119164079300376 0.060289272622317 -1.09483332728602e-17)
(0.12943181798542 0.0662392285894639 -1.04592702386397e-17)
(0.139716053767884 0.0725186801388108 0)
(0.150408212167491 0.079400351500411 4.46916203743696e-21)
(0.16233540040924 0.0873623518141311 -2.24807940540913e-21)
(0.17640946635027 0.0969525707925182 -1.58350439311378e-17)
(0.195658070866502 0.109329148870912 0)
(0.22073888314232 0.122886040795103 1.21363229317994e-17)
(0.250421479931883 0.135162922462923 0)
(0.284548034153551 0.144338830421767 -2.3127590708659e-20)
(0.322814532495384 0.147785507454513 2.49936495221119e-18)
(0.36261260006715 0.141186403944608 0)
(0.390978422479422 0.117916236424813 1.0300416488736e-22)
(0.379024528524439 0.0769170030571973 -6.89702983869212e-19)
(0.321543257851075 0.0383971441300914 -4.00419261021616e-19)
(0.253900749447668 0.0147794623406471 0)
(0.188854780088743 0.00336366593191056 1.50206750022545e-20)
(0.157443389383558 0.000378900403524525 -1.90682942974197e-23)
(0.232819265021633 -0.000545120650718799 0)
(0.244020683043604 -0.00171901771414358 -2.20148466538328e-21)
(0.238911990783867 -0.00756100344867662 0)
(0.18582940287518 -0.0134480212140647 -1.27305680369774e-19)
(0.093072065481266 -0.0105703139794042 -5.13653195431324e-19)
(-0.00428811181504788 0.00639547701061576 1.61779591549242e-18)
(-0.049728789898721 0.0208989335812262 2.05153244499382e-18)
(-0.0524078397669766 0.0240234393066023 -2.27744174000662e-18)
(-0.0482911167588892 0.0242501708863702 2.64223022457335e-21)
(-0.0426548775617721 0.0227851288783231 2.28397426272155e-21)
(-0.0385329746265706 0.0213391513784539 0)
(-0.0356957589993024 0.0199584805686487 7.51720679480567e-22)
(-0.0341064994582406 0.0187924061358626 -3.24589336642067e-18)
(-0.0332289778247793 0.0179738018592965 0)
(-0.0329007396444639 0.0174909363409626 -3.59798006133766e-18)
(-0.0328745404857324 0.0172483028374308 -3.75811919931553e-18)
(-0.0333899505460432 0.0173735311147363 3.91026369926173e-18)
(-0.0345541138049294 0.0179186059206944 -4.04400958738041e-18)
(-0.0364312932038682 0.0188756059926112 0)
(-0.0388836084053082 0.0200247072682497 -4.27701336242528e-18)
(-0.0419947416354267 0.0212385478112646 -4.29878505183998e-21)
(-0.0457816840912785 0.0224128178824373 4.50000281234187e-18)
(-0.0501093187769215 0.0233502752564459 -4.46679660472263e-21)
(-0.0548002295106702 0.0238400542773648 -4.68575904081861e-18)
(-0.0598093091252866 0.0237539897679826 4.75592670230529e-18)
(-0.0652764930979827 0.0231352701801922 4.81748847390676e-18)
(-0.0710731125155907 0.0220062885288835 -4.84561299191458e-18)
(-0.0768476558012251 0.0202434289639407 -4.87636517446692e-18)
(-0.0824081066895534 0.0178193571032144 0)
(-0.0877234837733168 0.0147829939780635 2.42751259759735e-18)
(-0.0929593471631037 0.0112464434375755 9.43051959819824e-21)
(-0.0988653178976344 0.00745485466857515 2.39170480995212e-18)
(-0.108332290885463 0.00390506176838992 0)
(-0.120372555212902 0.0022459980427481 4.38999571426823e-21)
(-0.129508181224549 0.00166633192319349 -4.26026891343972e-21)
(-0.135673490470418 0.00121089461089793 0)
(-0.140056297481427 0.000901377475704272 0)
(-0.143045023216964 0.000664590716342129 0)
(-0.144966693787567 0.000476258036264769 0)
(-0.146003164539492 0.000318838889161374 0)
(-0.146287279558352 0.000182405990186066 0)
(-0.145907849493881 6.04924909556367e-05 0)
(-0.144931726851338 -5.03498034787339e-05 0)
(-0.143419271940704 -0.000151975557706179 0)
(-0.141419165337913 -0.000245529728654628 0)
(-0.138974922201398 -0.000331694975671398 2.5218224605493e-21)
(-0.136126347234713 -0.000410952697610547 -2.50079360279185e-21)
(-0.132910495360413 -0.000483646098578543 2.64143659324546e-21)
(-0.129362416938621 -0.000549983826987733 7.96546183297654e-23)
(-0.125515739033858 -0.000610096409698448 -2.69419197857328e-21)
(-0.12140297122098 -0.000664068179665741 0)
(-0.117055666617079 -0.000711979745432691 -7.66218978115552e-16)
(-0.112504367605981 -0.000753944873889935 -7.88572417024328e-16)
(-0.107778555041501 -0.00079009965971251 0)
(-0.102906521564626 -0.000820635492407242 -1.57623627595182e-21)
(-0.0979152741888512 -0.00084576160058378 1.57965252327285e-21)
(-0.0928305160200237 -0.000865718633042987 0)
(-0.0876765473258551 -0.000880771323469789 0)
(-0.082476253318995 -0.000891197301228383 0)
(-0.0772511234602318 -0.000897277415959729 0)
(-0.0720212071035054 -0.000899314384172791 0)
(-0.0668051286554594 -0.000897608840087158 0)
(-0.0616199575058624 -0.000892504438564987 0)
(-0.0564812737684397 -0.00088431200655715 0)
(-0.05140318399903 -0.000873351864507755 0)
(-0.0463987054812103 -0.000859774302658237 0)
(-0.0414810993576763 -0.000843539509748118 0)
(-0.0366635222177652 -0.000824751362742573 1.16301724623365e-15)
(-0.0319582938747101 -0.000803622281073072 1.18882723459036e-15)
(-0.0273763680311543 -0.000780478216459098 0)
(-0.0229271697261695 -0.00075563172026181 0)
(-0.0186189464595764 -0.000729334117162654 -4.82974325695911e-21)
(-0.0144592641443786 -0.000701581174737468 4.88675429172182e-21)
(-0.0104572650199037 -0.000672198923343513 0)
(-0.00662172155561468 -0.000641226958087437 0)
(-0.00296308000324744 -0.000608535738215004 -1.05974581967419e-20)
(0.000509967259313821 -0.000574209211941836 1.07001844035599e-20)
(0.00378545300168521 -0.00053785217826759 0)
(0.00685352235556475 -0.000499172073827676 -1.11227203498427e-20)
(0.00969323485794554 -0.000457072728749176 -1.02656843595979e-22)
(0.0122913021517784 -0.000410957575189483 1.13470099236766e-20)
(0.0146057911269628 -0.000358223444021064 0)
(0.0166181853443464 -0.000297535967186642 0)
(0.0182320519869333 -0.000221642772988604 1.20447927274562e-20)
(0.0194166101354367 -0.000127071003662323 -1.21988334253606e-20)
(0.019924168423884 5.53833882513134e-06 0)
(0.0196800638144887 0.000214132119555643 0)
(0.0178067584864713 0.000548525191705163 0)
(0.0181956942033083 0.000879510323495613 -3.34283109832831e-18)
(0.0209947068624269 0.00179992719186798 6.55022860810691e-18)
(0.0248397529619158 0.00315636660039178 0)
(0.0299350917303481 0.00516412198864576 2.44208193002117e-20)
(0.0359507156291051 0.00785461403661225 1.21191946632089e-17)
(0.0430108451585657 0.0113684741321581 1.55086019651229e-22)
(0.0510825818862736 0.015794371447834 1.29575662654165e-22)
(0.0605170510171632 0.0213102460343358 1.099174998967e-17)
(0.0715136346710395 0.0279664457433324 1.03690521406328e-20)
(0.0838262779924396 0.035549027049583 2.05465553609559e-17)
(0.097247124143595 0.04382937911868 1.94088775689977e-20)
(0.111546599896265 0.0525424943154057 -9.64599225490293e-18)
(0.126493450081935 0.061385453794325 -9.33242462820854e-18)
(0.141453789901783 0.0698877285559769 -8.93668946802823e-21)
(0.155594277441454 0.0778158730455221 7.43514473522748e-21)
(0.169033076939395 0.085624033769043 8.57106052049897e-18)
(0.182493381227007 0.0938315517407652 -1.0907809445457e-22)
(0.196431547820956 0.102762821276986 -3.88932093799482e-21)
(0.211756658824079 0.112934422140883 0)
(0.229502834908836 0.124928723308427 6.78996502799869e-18)
(0.252892731006981 0.139821352334423 1.53288723325144e-21)
(0.283056926355993 0.155834556130685 -5.24372937277559e-18)
(0.319008895511924 0.17023908910401 4.29667645720994e-18)
(0.360471228534523 0.180771368053925 -3.28586165877947e-18)
(0.407020517339865 0.184221389052901 0)
(0.456011200619919 0.175710078398595 -9.55912678813008e-19)
(0.494875110059774 0.148437203276417 -8.95436391521524e-23)
(0.493340364994409 0.100855261628342 -5.92336174047177e-19)
(0.439444902709779 0.054110756941751 0)
(0.364209860670051 0.0229625054402966 0)
(0.284950313034475 0.00634236232216407 -6.87519851183589e-21)
(0.241188033195766 0.0012127690303861 0)
(0.311924238497172 -0.000387188172591105 0)
(0.318385624634973 -0.00214360668517798 1.93815668871105e-21)
(0.311184708296927 -0.00912845634598171 2.52997137126712e-20)
(0.254889909491805 -0.0169132511846991 0)
(0.146224276129199 -0.0155261866605227 0)
(0.0192996668532479 0.00362354656132743 -1.5273446453056e-18)
(-0.0509479130053832 0.02298485751756 -2.03743683234597e-18)
(-0.0609344446019104 0.0279946241530756 -1.453845805526e-22)
(-0.0577865039632374 0.0287807910774711 4.99912324387261e-18)
(-0.0519417199826679 0.027490100368597 5.39783272799619e-18)
(-0.0474766224047079 0.0260863592155797 5.33190864095844e-22)
(-0.0443600647951718 0.0246529200050694 -3.74586017084001e-22)
(-0.0426406821565667 0.0233893096646181 3.30783418604712e-18)
(-0.041743635141454 0.0225068364724291 0)
(-0.0414971419345448 0.0220112358087584 7.30485848438529e-18)
(-0.0416464516709454 0.0218259518999295 3.80364779363196e-18)
(-0.0424639627514756 0.022102599472084 -7.88140088476488e-18)
(-0.044071789615956 0.0228987750785385 4.05802319609759e-18)
(-0.0465320332261633 0.0241892925738479 -4.16022615706308e-18)
(-0.0497038930541397 0.0257129657927695 2.09717166079642e-22)
(-0.0536689828728078 0.0272969643656921 4.19378592865134e-21)
(-0.0584231827785414 0.0287914350915948 -4.36752926867683e-18)
(-0.0637994470801279 0.0299483972805538 4.39944268149497e-18)
(-0.0695977902088866 0.0305205500230684 4.42360406650899e-18)
(-0.0757585720645658 0.0303562444299831 -4.41405609187863e-18)
(-0.0823651469185486 0.0294826474297912 8.59006451617662e-21)
(-0.0892223291949415 0.027926721682554 4.31715804127744e-18)
(-0.0959554564098807 0.0255757185871444 0)
(-0.102382782556482 0.0224317905265641 2.07902582454836e-18)
(-0.108520200653309 0.0185868485065312 -2.03772929787523e-18)
(-0.114627161455919 0.0142194104110226 0)