2 	0.0118766634903468 	6.93889390390723e-18 	-0.0629961701724882 	0.00146609857543078 	-2.64509154328424e-23
2 	0.0201339998195326 	1.04083408558608e-17 	-0.108165292095106 	0.00352950084347213 	-5.68107988987382e-21
2 	0.0286938265600376 	1.38777878078145e-17 	-0.14193414721919 	0.0058223956245481 	-1.45984495572772e-20
2 	0.0375672248214896 	1.38777878078145e-17 	-0.161085079014677 	0.00787253237862194 	-9.51850780231705e-21
2 	0.0467656816470147 	1.56125112837913e-17 	-0.170749437046788 	0.00964811041524421 	2.31495265076761e-20
2 	0.0563011048837711 	2.25514051876985e-17 	-0.175467622210653 	0.0112356948279982 	-4.00333180984615e-20
2 	0.0661858385982333 	2.77555756156289e-17 	-0.17756557542641 	0.0126945846776518 	3.51359357340366e-17
2 	0.0764326790561829 	2.60208521396521e-17 	-0.178136312517196 	0.0140605864153937 	3.82131439294143e-17
2 	0.0870548912880936 	2.08166817117217e-17 	-0.177721993078682 	0.0153565658187012 	-2.29820150347934e-17
2 	0.0980662262613554 	2.42861286636753e-17 	-0.1766133287683 	0.0165972550720383 	-2.59360318153085e-17
2 	0.109480938681567 	2.42861286636753e-17 	-0.17497684955244 	0.0177921877541227 	-1.38040406010686e-21
2 	0.121313805445942 	1.38777878078145e-17 	-0.172912575286865 	0.0189475519749525 	7.81919439341095e-23
2 	0.133580144772717 	1.90819582357449e-17 	-0.17048226508131 	0.0200672923094362 	1.51515276919982e-20
2 	0.146295836031327 	2.42861286636753e-17 	-0.167724261344152 	0.0211537650664441 	6.13729273495842e-23
2 	0.159477340299017 	2.08166817117217e-17 	-0.164661763628842 	0.0222081376136416 	-1.08257665832726e-21
2 	0.173141721670501 	1.73472347597681e-17 	-0.161307668084853 	0.0232306336682365 	-4.30802133961099e-20
2 	0.187306669348262 	1.21430643318376e-17 	-0.157667508238134 	0.0242206804078753 	-1.5566412364217e-21
2 	0.20199052054208 	1.12757025938492e-17 	-0.153741292669186 	0.0251769894519542 	5.32942758529211e-22
2 	0.217212284207436 	5.20417042793042e-18 	-0.149524671557628 	0.0260975902594776 	9.06675199560331e-22
2 	0.232991665653523 	4.77048955893622e-18 	-0.145009675459645 	0.0269798264096308 	2.62510957810933e-20
2 	0.249349092052728 	4.98732999343332e-18 	-0.140185166602124 	0.027820320149786 	-3.85358111153553e-22
2 	0.266305738884589 	4.49943901581484e-18 	-0.135037083315646 	0.0286149071326014 	-2.65160158563805e-20
2 	0.283883557348484 	1.68051336735253e-18 	-0.129546044617106 	0.0293612260793744 	2.4169323524703e-22
2 	0.302105302780517 	-1.04083408558608e-17 	-0.123685319405846 	0.0300595646682813 	1.39975061385312e-21
2 	0.320994564111403 	-1.73472347597681e-17 	-0.117441019773976 	0.0306918534862364 	2.12077482357625e-20
2 	0.340575794403482 	-2.08166817117217e-17 	-0.110786172393126 	0.0312494089186036 	-3.37708475624358e-21
2 	0.360874342506392 	-2.08166817117217e-17 	-0.103689598664363 	0.0317218720356043 	-4.94169157130852e-17
2 	0.381916485872381 	-1.73472347597681e-17 	-0.0961149243127275 	0.0320968730590266 	-1.01559357724252e-15
2 	0.403729464573739 	-2.08166817117217e-17 	-0.0880190962519716 	0.0323596165199575 	9.39628420436072e-16
2 	0.426341516566396 	-2.77555756156289e-17 	-0.0793501573569066 	0.0324923751658616 	8.99653847272789e-17
2 	0.449781914245319 	-3.12250225675825e-17 	-0.070043883964847 	0.032473888751554 	4.82402974723249e-21
2 	0.474081002339048 	-3.64291929955129e-17 	-0.0600186583011302 	0.0322786831463462 	-3.42094790178412e-20
2 	0.499270237192413 	-3.98986399474666e-17 	-0.0491675738360501 	0.0318763597586322 	-9.86099400723764e-21
2 	0.525382227488298 	-3.98986399474666e-17 	-0.0373461707307701 	0.0312310626461422 	1.39733454362336e-20
2 	0.552450776461161 	-4.68375338513738e-17 	-0.0243532958509827 	0.0303020627080549 	-8.47728511985119e-20
2 	0.580510925656957 	-5.89805981832114e-17 	-0.00990259003678028 	0.0290467467291587 	1.1031444161092e-16
2 	0.609599000296117 	-6.41847686111419e-17 	0.00640627289147604 	0.0274233631748464 	6.16466828401624e-16
2 	0.639752656298308 	-6.59194920871187e-17 	0.0250759895031771 	0.0253965516315672 	-5.79528157975424e-16
2 	0.671010929029843 	-6.50521303491303e-17 	0.0467057551466224 	0.0229474872436457 	-1.64906243643331e-16
2 	0.703414283836855 	-6.33174068731535e-17 	0.0723702262715566 	0.020007402328561 	5.36629944414343e-20
2 	0.737004668429647 	-7.43762690325056e-17 	0.104068028060783 	0.0164614774324351 	-4.18443824321655e-21
2 	0.761419519668137 	-9.17235037922737e-17 	0.130816546174776 	0.0135753087396903 	-3.45135337094272e-20
2 	0.779162313841248 	-1.00613961606655e-16 	0.15271201251372 	0.0113050349968016 	-1.1440971244963e-20
2 	0.807992742715647 	-1.04083408558608e-16 	0.191346237132508 	0.00749463200868723 	-2.39455818915374e-20
2 	0.845475280399478 	-9.71445146547012e-17 	0.246032778795866 	0.00246762164186422 	-6.19862155458053e-20
2 	0.884326557652536 	-8.67361737988404e-17 	0.305920848061639 	-0.0025704317439171 	2.41532738624678e-19
2 	0.924596372923088 	-8.32667268468867e-17 	0.369854854666141 	-0.00730609331780811 	4.326510765087e-20
2 	0.966336321272197 	-8.84708972748172e-17 	0.437586301940769 	-0.0113381748843236 	3.86239563990554e-20
2 	1.00959985787075 	-9.54097911787244e-17 	0.508440155301118 	-0.0142551153174644 	1.43324327875379e-19
2 	1.05444236361788 	-9.71445146547012e-17 	0.579972419321917 	-0.015771115164639 	9.66213034414222e-20
2 	1.10092121293913 	-9.19403442267708e-17 	0.648421504591415 	-0.0160211025681373 	1.56634120471389e-19
2 	1.14909584382294 	-8.5868812060852e-17 	0.709931182090931 	-0.0154419902259119 	8.43676016329946e-20
2 	1.19902783015393 	-8.66277535815918e-17 	0.762100935684661 	-0.0145766414178325 	8.9584094396051e-20
2 	1.25078095640108 	-8.9229838795557e-17 	0.804825773309893 	-0.0138434856856747 	8.36882245063456e-20
2 	1.30442129471847 	-8.67361737988404e-17 	0.839735936526923 	-0.0134378509612355 	2.09624288251525e-19
2 	1.36001728451516 	-8.67361737988404e-17 	0.869498192939753 	-0.0133194245506306 	-3.04765905073821e-20
2 	1.41763981454947 	-8.84708972748172e-17 	0.896020507918115 	-0.0133886779338463 	2.21578471693306e-19
2 	1.47736230760124 	-8.32667268468867e-17 	0.920620251633218 	-0.0135314741158442 	-3.83659666119814e-16
2 	1.53926080777324 	-8.41340885848751e-17 	0.94408690187753 	-0.0136492891599203 	-2.63096226334472e-15
2 	1.60341407047001 	-8.71698546678346e-17 	0.966799707770835 	-0.0136707873276674 	2.14667028484927e-15
2 	1.66893489902563 	-8.10983225019157e-17 	0.988542224196343 	-0.0135565350191192 	8.03016984873101e-16
2 	1.70277529794134 	-7.28583859910259e-17 	0.999403961217659 	-0.0134606798125607 	2.22079070227141e-17
2 	1.73884798288128 	-6.93889390390723e-17 	1.01021673019895 	-0.0132871737523908 	1.89187781855607e-20
2 	1.81031024575141 	-7.63278329429795e-17 	1.03075898360303 	-0.0128694405960868 	1.42042994682881e-19
2 	1.88432958821742 	-7.80625564189563e-17 	1.05025444227096 	-0.0123079460060662 	3.43784825105693e-20
2 	1.9609947218388 	-7.11236625150491e-17 	1.06807658978285 	-0.0116530815477614 	2.2799983050032e-19
2 	2.02024009608346 	-6.59194920871187e-17 	1.08076532825297 	-0.0110837736983973 	2.16520003963195e-22
2 	2.06000503604194 	-6.24500451351651e-17 	1.08889093731023 	-0.0106642541344835 	0
2 	2.09836474743796 	-6.24500451351651e-17 	1.09594905434681 	-0.0102774579597193 	0
2 	2.13536888877258 	-6.24500451351651e-17 	1.10230346811871 	-0.00990289221474003 	0
2 	2.17106536369585 	-6.24500451351651e-17 	1.10801996317586 	-0.00954195569798995 	0
2 	2.20550038302044 	-6.24500451351651e-17 	1.11315748040798 	-0.00919596912721047 	0
2 	2.23871852454378 	-6.59194920871187e-17 	1.11776841437864 	-0.00886528065156685 	0
2 	2.27076279075613 	-6.24500451351651e-17 	1.12189904269622 	-0.00854978801822998 	0
2 	2.30167466450941 	-5.55111512312578e-17 	1.12559000730253 	-0.00824910810620228 	0
2 	2.33149416271872 	-6.07153216591882e-17 	1.12887679910424 	-0.00796266293760915 	0
2 	2.36025988816627 	-6.07153216591882e-17 	1.13179022090541 	-0.00768975358154726 	0
2 	2.38800907947441 	-5.89805981832114e-17 	1.13435681612032 	-0.00742961695086639 	0
2 	2.41477765931296 	-6.76542155630955e-17 	1.13659925714789 	-0.007181466967375 	0
2 	2.44060028090272 	-6.93889390390723e-17 	1.13853669091389 	-0.00694452375023849 	0
2 	2.46551037287587 	-6.59194920871187e-17 	1.14018504136669 	-0.00671803360477564 	0
2 	2.48954018255081 	-6.93889390390723e-17 	1.14155727027902 	-0.00650128199235814 	0
2 	2.51272081767801 	-7.28583859910259e-17 	1.1426635988641 	-0.00629360126467864 	0
2 	2.53508228671038 	-6.93889390390723e-17 	1.14351169361726 	-0.00609437459370899 	0
2 	2.55665353765073 	-6.59194920871187e-17 	1.14410682054925 	-0.00590303722000665 	0
2 	2.57746249552636 	-6.59194920871187e-17 	1.14445197266111 	-0.00571907588080595 	0
2 	2.59753609853934 	-6.59194920871187e-17 	1.14454797618038 	-0.0055420270617788 	0
2 	2.6169003329393 	-6.93889390390723e-17 	1.1443935817636 	-0.00537147453660831 	0
2 	2.6355802666639 	-6.59194920871187e-17 	1.14398554756254 	-0.00520704651014354 	0
2 	2.6536000817905 	-5.89805981832114e-17 	1.14331872169219 	-0.00504841255746852 	0
2 	2.67098310584103 	-5.89805981832114e-17 	1.14238613210266 	-0.00489528044712544 	0
2 	2.68775184198057 	-5.89805981832114e-17 	1.1411790919454 	-0.00474739284776929 	0
2 	2.7039279981488 	-5.89805981832114e-17 	1.13968732795883 	-0.0046045238415256 	0
2 	2.71953251516198 	-5.72458747072346e-17 	1.13789913784279 	-0.00446647510454257 	0
2 	2.73458559382185 	-5.3776427755281e-17 	1.13580157969426 	-0.00433307156864074 	0
2 	2.74910672106653 	-4.85722573273506e-17 	1.13338069205765 	-0.00420415635310207 	0
2 	2.76311469519732 	-4.16333634234434e-17 	1.13062173691004 	-0.00407958475972648 	0
2 	2.776627650214 	-4.16333634234434e-17 	1.12750945018577 	-0.00395921716455899 	0
2 	2.78966307929018 	-4.5102810375397e-17 	1.1240282759078 	-0.00384291072075232 	0
2 	2.80223785741905 	-4.85722573273506e-17 	1.12016255174464 	-0.00373050990790743 	0
2 	2.81436826325886 	-5.20417042793042e-17 	1.11589660727651 	-0.00362183611488702 	0
2 	2.82607000020648 	-5.20417042793042e-17 	1.11121473287414 	-0.00351667660785105 	0
2 	2.83735821672614 	-4.85722573273506e-17 	1.10610097789459 	-0.00341477338904387 	0
2 	2.8482475259599 	-4.16333634234434e-17 	1.10053874207699 	-0.00331581256957318 	0
2 	2.85875202464506 	-3.81639164714898e-17 	1.09451013269503 	-0.00321941494193492 	0
2 	2.86888531136304 	-4.16333634234434e-17 	1.08799507029625 	-0.00312512843878889 	0
2 	2.87866050414343 	-4.5102810375397e-17 	1.08097013521346 	-0.00303242311267969 	0
2 	2.88809025744591 	-4.5102810375397e-17 	1.07340715291393 	-0.00294068919056979 	0
2 	2.89718677854204 	-4.85722573273506e-17 	1.06527151661776 	-0.00284923867923285 	0
2 	2.90596184331819 	-5.20417042793042e-17 	1.05652023923896 	-0.00275731095840007 	0
2 	2.91442681151997 	-4.85722573273506e-17 	1.04709971305926 	-0.00266408284122826 	0
2 	2.92259264145801 	-4.16333634234434e-17 	1.03694313430871 	-0.00256868372582407 	0
2 	2.93046990419395 	-4.16333634234434e-17 	1.02596752002363 	-0.00247021645413719 	0
2 	2.93806879722526 	-4.16333634234434e-17 	1.01407020361779 	-0.00236778404904919 	0
2 	2.94539915768639 	-3.81639164714898e-17 	1.00112463837115 	-0.00226052619314477 	0
2 	2.95247047508335 	-3.81639164714898e-17 	0.986975252158254 	-0.00214769853310859 	0
2 	2.9592919035784 	-3.81639164714898e-17 	0.971430033257899 	-0.00202874306373058 	0
2 	2.96587227384056 	-3.81639164714898e-17 	0.954241357951475 	-0.00190289685314564 	0
2 	2.97222010447726 	-3.81639164714898e-17 	0.935013810846023 	-0.00176816276394223 	0
2 	2.97834361306218 	-3.81639164714898e-17 	0.913211471199493 	-0.00162224582587655 	0
2 	2.98425072677325 	-3.81639164714898e-17 	0.888253305299268 	-0.00146416074603331 	0
2 	2.98994909265478 	-3.81639164714898e-17 	0.859451289696707 	-0.00129537181905574 	0
2 	2.99544608751689 	-3.81639164714898e-17 	0.825919319660233 	-0.00111884569210241 	0
2 	3.00074882748522 	-3.81639164714898e-17 	0.78643220149303 	-0.000938519120507564 	0
2 	3.00586417721304 	-3.81639164714898e-17 	0.739192835405718 	-0.000759018999034114 	0
2 	3.01079875876789 	-3.81639164714898e-17 	0.681442254341964 	-0.000585537206185723 	-4.35398584977407e-15
2 	3.01555896020418 	-3.81639164714898e-17 	0.608811903944498 	-0.000423629935737519 	-3.15272297809972e-15
2 	3.02015094383282 	-3.12250225675825e-17 	0.514513317798598 	-0.000278134078725496 	6.75634742688985e-15
2 	3.02458065419862 	-2.08166817117217e-17 	0.390022996025705 	-0.000152469031109502 	5.55508455522156e-15
2 	3.02885382577583 	-1.73472347597681e-17 	0.23810278054009 	-5.75682252676479e-05 	0
2 	3.03297599039166 	-1.73472347597681e-17 	0.0789449262793248 	-7.15259675837689e-06 	0
