2 	0.205103589444483 	7.80625564189563e-18 	-0.00690211311663107 	0.00301594453969896 	-2.88969442005928e-20
2 	0.212392745632536 	1.04083408558608e-17 	-0.0205329280939313 	0.00907621297002917 	-1.08050903692075e-19
2 	0.219947817922572 	1.38777878078145e-17 	-0.0341207966764561 	0.0151864462931044 	-3.14590742457735e-21
2 	0.22777846551644 	1.38777878078145e-17 	-0.0475176312982586 	0.0212981858929311 	2.01785282482739e-18
2 	0.235894695394528 	1.64798730217797e-17 	-0.0603565947052666 	0.0272571782033433 	-1.90302419947329e-18
2 	0.244306874609847 	2.42861286636753e-17 	-0.0719635181313911 	0.0327624449255364 	-1.96926750044108e-20
2 	0.253025742999944 	2.94902990916057e-17 	-0.0815290622481767 	0.0374406258859608 	1.40910505830403e-18
2 	0.262062426329599 	3.03576608295941e-17 	-0.0885901248690947 	0.0410633116252976 	3.18334985070953e-17
2 	0.271428449877574 	3.12250225675825e-17 	-0.0932707112766945 	0.0436657375452723 	4.47097323345859e-17
2 	0.281135752481013 	2.77555756156289e-17 	-0.0960433182092732 	0.045447688796162 	-2.25844727499885e-17
2 	0.291196701051347 	2.60208521396521e-17 	-0.0974117562943023 	0.0466299689934768 	-3.13566966110972e-17
2 	0.30162410557593 	2.94902990916057e-17 	-0.0977688527362524 	0.0473868244084407 	5.2278823700629e-19
2 	0.312431234619887 	3.12250225675825e-17 	-0.0973847398835342 	0.0478386309958494 	-1.75174626829993e-20
2 	0.323631831342975 	2.77555756156289e-17 	-0.0964369598269465 	0.0480646862868723 	-6.32863607842475e-20
2 	0.33524013004656 	2.42861286636753e-17 	-0.0950412450863248 	0.0481167753022998 	2.15399073332917e-20
2 	0.347270873266086 	1.73472347597681e-17 	-0.0932735068651096 	0.0480289206605424 	2.53697491528228e-20
2 	0.359739329424725 	1.90819582357449e-17 	-0.0911839233902534 	0.0478236384663505 	1.55627972533125e-21
2 	0.37266131106414 	2.60208521396521e-17 	-0.0888056661541858 	0.0475158192156537 	-1.89411220479545e-19
2 	0.386053193668572 	2.60208521396521e-17 	-0.0861602651450552 	0.0471151240858366 	9.21910475726381e-22
2 	0.399931935098741 	2.77555756156289e-17 	-0.0832608900230171 	0.0466274693025199 	1.71760288842782e-19
2 	0.41431509565225 	3.46944695195361e-17 	-0.0801143026967741 	0.046055943879505 	2.0408340185273e-20
2 	0.429220858767458 	3.98986399474666e-17 	-0.0767219075806466 	0.0454013649048687 	-1.3442130301736e-21
2 	0.44466805238794 	2.94902990916057e-17 	-0.073080120569126 	0.0446625904296575 	-1.03538603783667e-17
2 	0.460676171004924 	1.56125112837913e-17 	-0.0691801412238707 	0.0438366599012135 	-1.17020745923411e-17
2 	0.477265398395191 	6.93889390390723e-18 	-0.0650071071416725 	0.04291880143106 	1.00974873170896e-17
2 	0.494456631072122 	-1.73472347597681e-18 	-0.0605385071411382 	0.0419023246141967 	1.12784019323063e-17
2 	0.512271502467693 	3.46944695195361e-18 	-0.0557416039509885 	0.0407783993387899 	1.04753203329801e-19
2 	0.530732407863299 	1.38777878078145e-17 	-0.0505694294312595 	0.0395357041310778 	-1.00299938852979e-19
2 	0.549862530087378 	1.04083408558608e-17 	-0.0449545974949835 	0.0381599449633013 	2.09187568961103e-21
2 	0.56968586599782 	1.04083408558608e-17 	-0.0387996738228849 	0.0366333287110081 	9.01664279966104e-20
2 	0.59022725376716 	1.38777878078145e-17 	-0.0319633673270473 	0.03493405536444 	-8.66355032056037e-20
2 	0.611512400988492 	1.73472347597681e-17 	-0.0242477167933083 	0.0330361703754409 	-4.48642239324414e-20
2 	0.633567913619973 	1.73472347597681e-17 	-0.0154011456255699 	0.0309120834579629 	5.09233402620383e-21
2 	0.656421325785642 	1.38777878078145e-17 	-0.00513741548050735 	0.0285387412708519 	8.93837268380717e-20
2 	0.680101130450095 	1.04083408558608e-17 	0.00685940685980653 	0.0259005402042428 	1.03137303402112e-19
2 	0.70463681098433 	1.04083408558608e-17 	0.0209497651631419 	0.0229868019859783 	-3.43936645730144e-20
2 	0.730058873639762 	1.38777878078145e-17 	0.0375760206333668 	0.0197916374298903 	-9.49338067770194e-20
2 	0.756398880947067 	1.04083408558608e-17 	0.0574588812253013 	0.0162952881376285 	-7.14755865110629e-20
2 	0.783689486056083 	6.93889390390723e-18 	0.0819120433296944 	0.0124394648419741 	-2.34542638630252e-17
2 	0.803411842888115 	6.93889390390723e-18 	0.102414393831891 	0.00951397269069384 	-3.91700825799271e-17
2 	0.817804294144514 	3.46944695195361e-18 	0.119439613943715 	0.00730346007255558 	-1.19860177580351e-17
2 	0.84127552640284 	-3.46944695195361e-18 	0.15034866928847 	0.00368931446060566 	4.78447498149764e-17
2 	0.871640314975974 	-6.93889390390723e-18 	0.195539359173987 	-0.000846281676042967 	4.47480217677489e-17
2 	0.903097506790349 	0 	0.24718444527166 	-0.00507322623219404 	-1.98309436929149e-17
2 	0.935685678853751 	1.04083408558608e-17 	0.303514882651843 	-0.00865089525373512 	-1.90498821833262e-17
2 	0.969444719096807 	1.38777878078145e-17 	0.362152319724549 	-0.0113117917130579 	7.57727415162488e-20
2 	1.00441586733931 	6.93889390390723e-18 	0.420240229763244 	-0.0129363887052659 	1.16333230372615e-20
2 	1.04064175729259 	-6.93889390390723e-18 	0.474670692830731 	-0.0136253168622997 	9.75098568411893e-20
2 	1.07816645960769 	-1.38777878078145e-17 	0.522790651081308 	-0.0136866889110454 	-2.42253441815971e-20
2 	1.1170355259781 	-1.04083408558608e-17 	0.563488705036402 	-0.0134449697634324 	-5.53840089483093e-20
2 	1.15729603430464 	-3.46944695195361e-18 	0.597348237300316 	-0.0131878787756653 	3.79852149834228e-20
2 	1.19899663492878 	6.93889390390723e-18 	0.625693289072106 	-0.0130343707030014 	-4.61796478721311e-20
2 	1.24218759793939 	6.93889390390723e-18 	0.649937028462099 	-0.0130382026112547 	-4.59708066606395e-21
2 	1.28692086155669 	0 	0.671376267275454 	-0.0131821086567951 	-2.25140864864919e-24
2 	1.33325008159531 	0 	0.691043720757381 	-0.0134158575697496 	8.46823345284609e-24
2 	1.38123068200727 	3.46944695195361e-18 	0.709660298600953 	-0.0136840298092233 	-3.02220376194681e-21
2 	1.43091990650368 	-3.46944695195361e-18 	0.72767298695202 	-0.0139380963852994 	3.67072360662955e-20
2 	1.48237687125258 	-1.73472347597681e-17 	0.745322149067546 	-0.0141420900206434 	-4.78397455012221e-20
2 	1.53566261864833 	-1.04083408558608e-17 	0.762708484619408 	-0.0142729813904477 	1.55394405812947e-20
2 	1.59084017214646 	-3.46944695195361e-18 	0.77984711617652 	-0.0143177815177544 	-3.903727670436e-20
2 	1.64797459215572 	-4.77048955893622e-18 	0.79669956037186 	-0.0142691829973984 	-1.07782980748176e-20
2 	1.70713303297749 	8.67361737988404e-19 	0.813204407045613 	-0.0141268385539163 	9.88056190550486e-21
2 	1.76838480078078 	5.63785129692462e-18 	0.829296991905077 	-0.0138958521013225 	8.99544415825943e-21
2 	1.83180141259896 	3.46944695195361e-18 	0.844907417572609 	-0.0135824826526107 	7.65799640001612e-21
2 	1.89745665633294 	3.46944695195361e-18 	0.859975767111136 	-0.0131955184245041 	-3.38652885519111e-21
2 	1.9654266517432 	1.04083408558608e-17 	0.874539790244045 	-0.0127424504846544 	-1.56614211030403e-20
2 	2.04004996790234 	1.56125112837913e-17 	0.88915451146759 	-0.0122138884217455 	-1.40265158750033e-21
2 	2.11873460271874 	1.90819582357449e-17 	0.903121084492929 	-0.0116239388567044 	0
2 	2.19463865000285 	2.08166817117217e-17 	0.915495851935255 	-0.011051138793438 	0
2 	2.26786037121375 	2.25514051876985e-17 	0.926360782137054 	-0.0105050225865365 	0
2 	2.33849455540975 	2.42861286636753e-17 	0.935910281676439 	-0.00999083110158986 	0
2 	2.40663264195736 	2.08166817117217e-17 	0.944309905821356 	-0.0095092816893109 	0
2 	2.47236283890404 	2.08166817117217e-17 	0.951704422503817 	-0.00905887797885602 	0
2 	2.5357702371677 	2.25514051876985e-17 	0.958220375807474 	-0.00863775437685583 	0
2 	2.59693692069108 	1.73472347597681e-17 	0.963964634813265 	-0.00824408881775299 	0
2 	2.65594207270333 	1.73472347597681e-17 	0.969025731154971 	-0.00787606449843599 	0
2 	2.71286207822658 	2.08166817117217e-17 	0.973477254036008 	-0.00753180348687652 	0
2 	2.76777062296 	2.08166817117217e-17 	0.977380663653115 	-0.00720941095879321 	0
2 	2.8207387886695 	2.08166817117217e-17 	0.980787224200127 	-0.00690705286747583 	0
2 	2.87183514520655 	1.73472347597681e-17 	0.983739461740134 	-0.00662300480852409 	0
2 	2.92112583927514 	1.21430643318376e-17 	0.986272340773833 	-0.00635567489873737 	0
2 	2.9686746800619 	1.38777878078145e-17 	0.988414229602001 	-0.00610360990840741 	0
