8 	0.447826862407422 	5.20417042793042e-17 	0.636065677423482 	0.057044540240752 	2.31371801831667 	0.00955552377259752 	0
8 	0.46970765335962 	5.55111512312578e-17 	0.635970711508927 	0.0584459086578137 	2.33348923820954 	0.0101886046656493 	0
8 	0.492390001760931 	6.59194920871187e-17 	0.635878729540299 	0.0598291958118033 	2.35666765513841 	0.0108523046652511 	0
8 	0.515903271008024 	7.28583859910259e-17 	0.635789253495753 	0.0611846840583783 	2.38294573115507 	0.0115444357967423 	0
8 	0.540277900164783 	6.59194920871187e-17 	0.635701673161456 	0.0625006856755262 	2.41196822234773 	0.0122616236959682 	0
8 	0.565545443367138 	6.93889390390723e-17 	0.635615243499966 	0.0637632973861676 	2.44331886640439 	0.0129990573270015 	0
8 	0.59173861067142 	7.63278329429795e-17 	0.635529125174116 	0.0649561508431047 	2.47650593760484 	0.0137502116016047 	0
8 	0.618891310399116 	7.28583859910259e-17 	0.635442391074916 	0.0660601694903653 	2.51094664690878 	0.0145065850457341 	0
8 	0.647038693032828 	6.93889390390723e-17 	0.635353405027457 	0.0670533449022622 	2.54595039344029 	0.0152576415746732 	0
8 	0.676217196720269 	6.24500451351651e-17 	0.635258302567897 	0.0679105419012371 	2.5807006746758 	0.0159912923923193 	0
8 	0.706464594445211 	5.31259064517897e-17 	0.63515486398933 	0.0686015801038644 	2.61421953255286 	0.0167028700324567 	0
8 	0.737820042926438 	4.48859699408999e-17 	0.635075569974784 	0.0690927301288758 	2.64533385250591 	0.0175805395675707 	0
8 	0.77032413330801 	3.94649590784724e-17 	0.63504829683594 	0.0693432028624719 	2.6726592344849 	0.0183703113923761 	0
8 	0.804018943706461 	4.0766001685455e-17 	0.63503123672113 	0.0692943724715772 	2.69340028900088 	0.0191453681585321 	0
8 	0.838948093682961 	4.16333634234434e-17 	0.634970849577327 	0.0688682266537968 	2.70327334615214 	0.0196363094729 	0
8 	0.87515680071094 	4.25007251614318e-17 	0.634853671267299 	0.0679961012552636 	2.69824006294214 	0.0197106180620685 	0
8 	0.912691938712296 	4.42354486374086e-17 	0.634687752115273 	0.0666349987049445 	2.67575367285546 	0.0193402040605583 	0
8 	0.951602098737956 	4.68375338513738e-17 	0.634484915084937 	0.064772904057364 	2.63514324421949 	0.0185494686947627 	0
8 	0.991937651871333 	4.85722573273506e-17 	0.63425420266944 	0.0624284552620782 	2.57723232069613 	0.0173800789719526 	0
8 	1.03375081443614 	4.5102810375397e-17 	0.634001931943655 	0.0596409643675883 	2.50274499066032 	0.0158827720554588 	0
8 	1.07709571559294 	4.33680868994202e-17 	0.633732423488251 	0.0564720252400114 	2.41185109472036 	0.0141398949326643 	0
8 	1.12202846741195 	3.98986399474666e-17 	0.633441140711121 	0.0530224244771715 	2.30760089667817 	0.0122951787722803 	0
8 	1.16860723751286 	3.81639164714898e-17 	0.633101933898851 	0.0494005671071544 	2.19590345779897 	0.0105106421607342 	0
8 	1.2168923243656 	4.16333634234434e-17 	0.632685761331713 	0.0456614058781424 	2.0814553513968 	0.00879638396955686 	0
8 	1.26694623534962 	4.16333634234434e-17 	0.632197079433972 	0.0418402551758887 	1.96746990578899 	0.0072067697357098 	0
8 	1.31883376767273 	3.81639164714898e-17 	0.631648882880509 	0.0379927203939021 	1.85780270596589 	0.00571805472154324 	0
8 	1.37262209225426 	3.81639164714898e-17 	0.631110054570831 	0.0344210666711588 	1.76347380121355 	0.00442202298229081 	0
8 	1.4 	3.81651409283771e-17 	0.630865773726221 	0.0327913093867332 	1.72287965402732 	0.00385500109697683 	0
8 	1.41220272459524 	3.46969184333108e-17 	0.630665695175632 	0.0317266102087113 	1.69961438569033 	0.00350662270543572 	0
8 	1.43617694926586 	3.12274714813572e-17 	0.630327968169387 	0.0298956126720001 	1.66152772702842 	0.00291612128437229 	0
8 	1.45930396367274 	2.77580245294035e-17 	0.63005491308614 	0.0284151762286888 	1.63485326031997 	0.00246213451175901 	0
8 	1.48161370685419 	2.42885775774499e-17 	0.629786117113757 	0.0270363255497616 	1.6141324364981 	0.00206196465485834 	0
8 	1.50313505985141 	2.08191306254963e-17 	0.629522856268154 	0.0257535512260877 	1.59940602063944 	0.00170718401407381 	0
8 	1.52389588309638 	2.08191306254963e-17 	0.629267032922463 	0.0245613496966137 	1.59073368834265 	0.00139442292457075 	0
8 	1.54392305247857 	1.73496836735427e-17 	0.629019162957934 	0.0234543745681589 	1.5882046874676 	0.00112051746419796 	0
8 	1.56324249413703 	1.73496836735427e-17 	0.628779487703357 	0.0224275514616181 	1.59194803658466 	0.000882628978452793 	0
8 	1.58187921802306 	2.08191306254963e-17 	0.628548259290056 	0.0214761609141776 	1.60214215728021 	0.00067834807342768 	0
8 	1.59985735027679 	2.08191306254963e-17 	0.628325703307792 	0.0205958935645004 	1.61902387621393 	0.00050573109349332 	0
8 	1.61720016445966 	2.08191306254963e-17 	0.628111996721801 	0.0197828827849738 	1.64289681875335 	0.000363320056397715 	0
8 	1.63393011168312 	2.08191306254963e-17 	0.627907270323463 	0.0190337190354752 	1.6741391621324 	0.00025015813110842 	0
8 	1.65006884967273 	2.08191306254963e-17 	0.627711612894425 	0.0183454489693839 	1.7132105978686 	0.000165800426885414 	0
8 	1.66563727080512 	2.08191306254963e-17 	0.627525073322388 	0.0177155611497022 	1.76065819451045 	0.000110319469158532 	0
8 	1.68065552915414 	2.08191306254963e-17 	0.627347661782519 	0.0171419591579962 	1.81712065611788 	8.43040116426715e-05 	0
8 	1.69514306658136 	2.08191306254963e-17 	0.627179350443443 	0.0166229219453662 	1.88333024914933 	8.88481546068814e-05 	0
8 	1.70911863790442 	2.08191306254963e-17 	0.627020073765395 	0.01615705057202 	1.96011144359827 	0.000125526031212454 	0
8 	1.72260033517611 	1.73496836735427e-17 	0.626869728502381 	0.0157432001291089 	2.0483751234678 	0.000196345979097097 	0
8 	1.73560561110537 	1.38802367215891e-17 	0.626728173607679 	0.0153803957756235 	2.14910712839876 	0.000303677460333224 	0
8 	1.74815130165068 	1.38802367215891e-17 	0.6265952302998 	0.0150677326006697 	2.26334997476717 	0.000450144482724854 	0
8 	1.76025364781503 	1.04107897696355e-17 	0.626470682581325 	0.0148042605432613 	2.39217696440514 	0.000638481397570336 	0
8 	1.77192831667065 	-3.46699803817899e-18 	0.62635427850908 	0.0145888578648105 	2.53665860405992 	0.000871351042132923 	0
8 	1.78319042164084 	-1.38753388940398e-17 	0.626245732477154 	0.014420099483885 	2.69782236164366 	0.00115113121443754 	0
8 	1.79405454206499 	-1.73447858459934e-17 	0.626144728686136 	0.0142961294163851 	2.87660821590126 	0.00147968276769668 	0
8 	1.80453474207227 	-1.73447858459934e-17 	0.626050925836584 	0.0142145489538172 	3.07382402664971 	0.00185811986261096 	0
8 	1.81464458878829 	-1.38753388940398e-17 	0.625963962920246 	0.0141723332788325 	3.29010614872286 	0.00228660828500116 	0
8 	1.82439716989841 	-1.04058919420862e-17 	0.625883465819711 	0.014165788286727 	3.52589154884321 	0.00276421936761503 	0
8 	1.83380511059041 	-6.9364449901326e-18 	0.625809054301246 	0.0141905561525437 	3.78140761617023 	0.00328886373393272 	0
8 	1.84288058989839 	-6.9364449901326e-18 	0.625740348925307 	0.0142416729292178 	4.05668471542 	0.00385732081329239 	0
8 	1.8516353564691 	-1.04058919420862e-17 	0.625676977416581 	0.0143136750543022 	4.35159442420042 	0.00446536827399416 	0
8 	1.86008074377114 	-1.04058919420862e-17 	0.62561858012196 	0.0144007453457207 	4.66591371922266 	0.00510800265357849 	0
8 	1.8682276847667 	-6.9364449901326e-18 	0.625564814315481 	0.0144968841666737 	4.99941271444605 	0.00577973128223743 	0
8 	1.87608672606481 	-6.9364449901326e-18 	0.625515357252297 	0.0145960888560273 	5.35196151025657 	0.00647490826500818 	0
8 	1.88366804157439 	-6.9364449901326e-18 	0.625469908001246 	0.0146925245623557 	5.7236507327392 	0.00718808482604735 	0
8 	1.89098144567491 	-3.46699803817899e-18 	0.625428188180447 	0.0147806719682298 	6.11492061350011 	0.00791434649168883 	0
8 	1.89803640592159 	2.44891377462499e-21 	0.62538994177722 	0.0148554412815689 	6.52669491204874 	0.00864961524312723 	0
8 	1.90484205530156 	-6.9364449901326e-18 	0.62535493425661 	0.0149122463695299 	6.96051837007389 	0.00939090233661161 	0
8 	1.91140720405699 	-1.04058919420862e-17 	0.625322951160003 	0.0149470371697068 	7.41869941668627 	0.0101365054413674 	0
8 	1.91774035109036 	-1.04058919420862e-17 	0.625293796375993 	0.0149562919278103 	7.90446328953456 	0.0108861508572337 	0
8 	1.92384969496671 	-1.38753388940398e-17 	0.625267290237036 	0.014936973061199 	8.42212452243142 	0.0116410869847714 	0
8 	1.92974314452706 	-3.46699803817899e-18 	0.625243267562914 	0.014886451460059 	8.97729200050768 	0.0124041383692667 	0
8 	1.93542832912681 	6.94134281768185e-18 	0.625221575739477 	0.0148024039028145 	9.57712486098997 	0.0131797301369195 	0
8 	1.9409126085123 	6.94134281768185e-18 	0.625202072891055 	0.0146826871454871 	10.2306640681581 	0.0139738900477435 	0
8 	1.94620308234836 	6.94134281768185e-18 	0.625184626178225 	0.0145251903146228 	10.9492735333591 	0.0147942287929959 	0
8 	1.95130659940914 	1.04107897696355e-17 	0.625169110227141 	0.0143276646074178 	11.74723777668 	0.0156498879299445 	0
8 	1.95622976644424 	1.04107897696355e-17 	0.625155405672584 	0.0140875257726125 	12.6425853765254 	0.0165514173586961 	0
8 	1.96097895673142 	6.94134281768185e-18 	0.625143397802513 	0.013801621338261 	13.6582311719184 	0.0175105040516194 	0
8 	1.96556031832711 	6.94134281768185e-18 	0.625132975304302 	0.0134659504309051 	14.8235757164835 	0.0185394019069222 	0
8 	1.96997978202541 	2.44891377462268e-21 	0.625124029064674 	0.0130753176431707 	16.1767910889106 	0.0196497573444665 	0
8 	1.97424306903576 	-1.38753388940398e-17 	0.625116450955932 	0.0126228987410117 	17.7681333237936 	0.0208502542793147 	0
8 	1.9783556983893 	-2.08142327979471e-17 	0.625110132603541 	0.0120996987490324 	19.6648123254125 	0.0221419823010436 	0
8 	1.98232299408358 	-2.08142327979471e-17 	0.625104964150046 	0.0114939002946748 	21.9583176946745 	0.0235094362435022 	0
8 	1.9861500919747 	-2.08142327979471e-17 	0.625100833019235 	0.0107901668146753 	24.7757588981993 	0.0249032768132828 	0
8 	1.9898419464259 	-2.08142327979471e-17 	0.625097622730297 	0.00996916299044229 	28.2981110461144 	0.0262081479275739 	0
8 	1.99340333672127 	-1.04058919420862e-17 	0.625095211828737 	0.00900807779002752 	32.7913043512985 	0.0271862378924666 	0
8 	1.99683887325274 	3.47189586572823e-18 	0.625093472702968 	0.00788418296855027 	38.6639963650567 	0.0273943935122748 	0
8 	2.00015300348845 	6.94134281768185e-18 	0.62509226960942 	0.0065858430174286 	46.5888165931819 	0.0261269328690034 	0
8 	2.00335001773022 	6.94134281768185e-18 	0.625091457303641 	0.005137235012244 	57.7941302304383 	0.0226026724461955 	0
8 	2.00643405466757 	6.94134281768185e-18 	0.625090889443912 	0.0036339104833282 	74.8418351612403 	0.0167117945640715 	0
8 	2.00940910673542 	6.94134281768185e-18 	0.625090448262926 	0.00225214525656079 	103.804359940534 	0.00985810197562295 	0
8 	2.01227902528252 	6.94134281768185e-18 	0.625090080559751 	0.00117935802795671 	160.844919288634 	0.00433068655656124 	0
8 	2.01504752555717 	6.94134281768185e-18 	0.625089798241329 	0.000500653083002285 	297.037549432251 	0.0013234946516585 	0
8 	2.01771819151684 	6.94134281768185e-18 	0.625089635888178 	0.000161611876445165 	736.93363876856 	0.000259169034684258 	0
8 	2.02029448046774 	6.94134281768185e-18 	0.625089599127988 	3.51258333427259e-05 	3343.65078925773 	2.80596028027483e-05 	0
8 	2.02277972754047 	6.94134281768185e-18 	0.62508962560793 	3.87508400782099e-06 	7601.72329082083 	1.14662655259536e-06 	6.0406804257489e-38
