/*--------------------------------*- C++ -*----------------------------------*\
  =========                 |
  \\      /  F ield         | OpenFOAM: The Open Source CFD Toolbox
   \\    /   O peration     | Website:  https://openfoam.org
    \\  /    A nd           | Version:  7
     \\/     M anipulation  |
\*---------------------------------------------------------------------------*/
FoamFile
{
    version     2.0;
    format      ascii;
    class       volScalarField;
    location    "20000";
    object      Dk;
}
// * * * * * * * * * * * * * * * * * * * * * * * * * * * * * * * * * * * * * //

dimensions      [0 2 -3 0 0 0 0];

internalField   nonuniform List<scalar> 
15600
(
0.00204286021003335
0.000546470786389007
0.000102880646866595
0.000256591735542715
4.32701148653037e-05
2.20990713707793e-06
5.3793413362484e-06
7.03554649814142e-06
9.19471903529003e-06
1.23731643628516e-05
1.61683093021365e-05
1.97642912026624e-05
2.09540948164014e-05
1.74824221608034e-05
9.67286357925943e-06
3.95102645287459e-06
4.66403797432257e-06
8.95235634587268e-06
1.53539903663784e-05
2.51335572839329e-05
3.86774667042436e-05
5.58742864337363e-05
7.62069473890675e-05
9.90411575510857e-05
0.000123802166974009
0.000150058177484643
0.000177491081636539
0.000205872652299626
0.000235023564032917
0.000264796908532205
0.00029506085827048
0.000325691182273147
0.000356564303985847
0.000387555251593912
0.000418537985319167
0.000449388679464466
0.000479993762955367
0.000510256850023728
0.000540099683855371
0.000569503628152884
0.000598489812157779
0.000627018586625124
0.000654769579132135
0.000681321665567592
0.000706471955473354
0.000730114966129375
0.000752166750733185
0.000772564772266571
0.000791263858180573
0.000808235308871674
0.000823461138431861
0.000836935582395147
0.000848662816401547
0.000858658315478065
0.00086694843290022
0.000873569776474006
0.000878568987471298
0.000881999487733832
0.000883921230937889
0.000884393208059224
0.000883475372900836
0.000881223158160179
0.00087769720980348
0.00087297139120604
0.000867127426660962
0.000860254198154622
0.000852439027258988
0.000843765712191563
0.000834307313697925
0.000824124406271052
0.000813258914097047
0.000801736311739455
0.000789592478780333
0.000776869538636859
0.000763621463201533
0.000749902664387206
0.000735743199392595
0.000721180530168633
0.000706215646869401
0.000690833682768205
0.000675076166593698
0.00065891513275266
0.000642388615788118
0.000625374262339344
0.000607959577765154
0.00059003833205249
0.000571543878478056
0.00055242358948839
0.000532599948476825
0.000511969589421105
0.000490400492787286
0.000467756494001138
0.000443842964006364
0.000418529009894259
0.000393280818782807
0.000367084029942354
0.000339177891503787
0.00030945372702233
0.00027766942177562
0.000244228458580571
0.000209291752742992
0.000174441117323696
0.000139787257921415
0.000106363554072731
0.000101868090044719
0.000176703770512894
0.000303000753355141
0.000499041622889112
0.000721348870137406
0.000917724526501616
0.00107152588269584
0.00115558753488776
0.00126354310454276
0.00142798564638565
0.00184613807194124
0.00280472397343125
0.00601325095190952
0.0170956457049696
0.0074749541775608
0.00246427762742191
0.0107601042534327
0.00306627719264873
0.000602233737475508
0.00140056377024461
0.000266964103452732
1.6833876694921e-05
2.90734906940988e-05
3.81463806167624e-05
4.97601707902616e-05
6.69232940258794e-05
8.75633528341303e-05
0.000107456350857628
0.000114821204141091
9.70899649063875e-05
5.44874877222436e-05
2.20497109234851e-05
2.58638346054967e-05
4.94997935182368e-05
8.49332861661928e-05
0.000139067155284157
0.000213995410183799
0.00030902316103905
0.000421250611617466
0.000547165520684917
0.000683615730810342
0.000828236681466526
0.0009792837326168
0.00113549426170163
0.00129586678924658
0.00145957167268403
0.00162585863710481
0.0017940169739897
0.00196333936149717
0.00213311232106738
0.00230261957099123
0.00247116207284689
0.0026381018144321
0.00280289837024298
0.00296511414973282
0.00312464251475354
0.00328160058407328
0.00343578083031799
0.00358435728740167
0.00372554391909511
0.00385881350807057
0.00398364977865685
0.00409965554672121
0.0042065487182764
0.00430414068420119
0.00439232810791244
0.00447106496130047
0.00454036779122422
0.00460030467124699
0.004651000706095
0.00469263518015734
0.00472543785705615
0.00474968637121375
0.00476569029580633
0.00477378713065259
0.00477430699147323
0.00476757949924728
0.00475391070526294
0.00473363248445756
0.00470714032025574
0.00467486758629626
0.00463727975879452
0.00459483200134321
0.00454795769531885
0.00449703339269302
0.00444236914936623
0.00438417737605471
0.00432258719133437
0.00425777997922552
0.00418996849532486
0.00411942513874444
0.00404642579468602
0.00397111531458063
0.00389368446568343
0.00381413059607783
0.0037323628325405
0.00364859482783851
0.0035626647970894
0.00347477023171709
0.00338424223579442
0.00329154676934263
0.0031961086751355
0.00309756323126739
0.00299561971928029
0.00288985920074934
0.0027797156920585
0.00266447887865182
0.00254339687632836
0.00241542374046948
0.0022797463955141
0.00214349728269628
0.00200191027939177
0.00185099897788675
0.00169008140064143
0.00151784407914324
0.0013363082943756
0.00114639569295052
0.000956443128188003
0.000767354595221297
0.000585980424991204
0.000567887074167846
0.000994165881133492
0.00169868715492982
0.00276913103794298
0.0039668032847407
0.00502188778577986
0.00585093309880139
0.00632534279880032
0.00694026643417406
0.00788653585931289
0.0102557935786776
0.0157200802332458
0.0335486891646109
0.0865890208438818
0.0415386756779561
0.0141819295292139
0.02727172168896
0.0078019959145346
0.00155262371427987
0.00328092957142182
0.000711728717956015
5.36564689810484e-05
6.99261756995884e-05
9.16618014690402e-05
0.000119275076525043
0.000160115953935938
0.000209018287489755
0.000255732069302569
0.000272837055415366
0.000232347055588791
0.000133269298611614
5.43914143072841e-05
6.40016197228415e-05
0.00012253487176256
0.000211122834547502
0.000346895248818967
0.000534246553076597
0.000770041636064458
0.00104574425015947
0.00135174322880587
0.00167979933627276
0.00202383862490896
0.0023794278282581
0.00274334501726401
0.00311304595778818
0.00348643846595241
0.0038616704686045
0.00423703841548852
0.00461091158285513
0.004981715573799
0.00534794209514767
0.00570819262026272
0.00606125741249242
0.00640617906986648
0.00674223362621368
0.00706947684688671
0.00738863674526601
0.0076927407483067
0.00797960896112706
0.00824922190318855
0.00850089960594056
0.00873412818667061
0.0089486077726189
0.00914422776222017
0.0093210243427445
0.00947915357433504
0.00961885026245646
0.00974042923070181
0.00984427055042948
0.00993082520655202
0.0100006098642308
0.0100542008961295
0.0100922272472022
0.0101153483665109
0.0101242407889259
0.0101195519849716
0.010101904166271
0.0100718749293355
0.0100300774305121
0.00997721397687315
0.00991404123344831
0.00984135398121651
0.00975992260080603
0.00967046884674208
0.00957361355778555
0.00946985761517883
0.00935952863853907
0.00924281303663919
0.00911998349007263
0.00899136169504109
0.00885737094748885
0.00871845223186093
0.00857478366307754
0.00842667794960076
0.00827406870491135
0.00811668794273138
0.00795489900737471
0.00778828293989112
0.00761718010308515
0.00744011500272454
0.00725802174017465
0.00706963321770283
0.00687422810946951
0.00667099136861494
0.00645889519337331
0.00623672223477688
0.00600288729499839
0.00575559435855689
0.00549248108824961
0.00521123124940316
0.00492079488948749
0.0046161474577793
0.00428898778734724
0.00393682163793475
0.00355629255504938
0.00315082762613088
0.00272125064552307
0.00228436708670616
0.00184443023911544
0.00141791224150092
0.00138514706632
0.00239200702319702
0.00402372291013066
0.00643971400095135
0.00913842521413656
0.0115733887931138
0.0135598079657408
0.0148525159979999
0.0164703132529891
0.0188973946743628
0.024641496773643
0.0375003611984902
0.0758637987748563
0.161013949141077
0.0973052601570889
0.0394539551234775
0.0539031007924137
0.0148341465983829
0.00287092824332654
0.00528736100193522
0.00132460110367951
0.000118124905625857
0.000120985964893182
0.000157814058183245
0.000204678073432354
0.000273467254072361
0.000353933483092137
0.000427181416856656
0.000448856192133293
0.000380820745221396
0.000225551181700101
9.60100977629924e-05
0.000116697680337996
0.000224254221416591
0.00038941732656834
0.000638882536275851
0.000970861852183374
0.00136841527570834
0.00180911060241347
0.00227387992262293
0.00274957061200241
0.00322811991240436
0.00370465040841187
0.00417622602211234
0.00464092381861551
0.00509741288213012
0.00554465946875233
0.00598179450656142
0.00640802940747243
0.00682263644214761
0.00722495609318369
0.00761443395673064
0.00799067408397495
0.00835351029682946
0.00870292415576828
0.00903990940942072
0.00935688021680559
0.00965442291665364
0.00993349744001514
0.0101940050011086
0.0104358161989455
0.0106589178596387
0.0108634244011997
0.011049557088584
0.0112176156521196
0.0113679537363678
0.0115009609695979
0.0116170604298101
0.0117167065996333
0.0118003888503995
0.0118686304914255
0.0119219862891251
0.0119610360908743
0.0119863732261709
0.0119985887207845
0.0119982486784599
0.0119858888855971
0.011962017629837
0.0119271696830666
0.0118819397358847
0.0118269650175431
0.0117629041758642
0.0116903959728775
0.0116100329056519
0.0115223263179654
0.0114276881740308
0.0113263859047558
0.011218569405494
0.0111044542086357
0.0109842842824659
0.010858385446419
0.0107271178194934
0.0105905616855326
0.0104490039952493
0.0103023450764959
0.0101502231284035
0.00999297399158033
0.00983007504895687
0.00966186787383569
0.00948729927087934
0.00930605587623295
0.0091173376269414
0.00892030099011358
0.00871394797906637
0.00849704900951204
0.00826809756718427
0.00802518850552389
0.00776598973438071
0.00748754763624114
0.00718629948194816
0.00686290821824064
0.00651808385538006
0.00614165642947114
0.00572739021215815
0.00526862171756833
0.00476285357210758
0.0042080057886079
0.00361851463900301
0.00299392200836003
0.00235154037408253
0.00227891039493967
0.00369050935661131
0.00601605993301594
0.00940084623749486
0.0132539503350829
0.0169591131046274
0.0202299427398864
0.0228106840414351
0.0259149753070171
0.0303281219960375
0.0396491416828368
0.0587844221741384
0.106409048811101
0.16757544943251
0.126209201847569
0.0717645191906827
0.0793549639567114
0.0243550505210987
0.00452746313421881
0.00687762677861515
0.00203615293659536
0.000215154365821368
0.000179402053355759
0.000231741981391508
0.000298916463157739
0.000395324599388771
0.000502322403434175
0.000589376581396406
0.000599520355803476
0.000500397875249654
0.00031043769569377
0.000145394043030372
0.000189137641768617
0.000362626662065515
0.000625346178693965
0.000991110689811705
0.00142825559842697
0.00189836313736686
0.00237513336663757
0.00284560506814171
0.00330480168818062
0.00375142865253687
0.00418556939607897
0.00460768661314465
0.00501824702351372
0.00541758102563995
0.0058058668364779
0.00618313342187409
0.00654929656505893
0.00690419577771551
0.00724763945224193
0.0075794517961754
0.0078995165641719
0.00820790898536478
0.00850468785642896
0.00878512856535843
0.00904949490217372
0.00929854212876783
0.00953238373875226
0.00975092200589203
0.00995409551235689
0.0101419314856554
0.0103145388715376
0.0104720994594747
0.01061485088826
0.0107430673851717
0.0108570544045912
0.0109571416243453
0.0110436859112125
0.0111170704739026
0.0111777048223955
0.0112260224906019
0.0112624750530819
0.0112875262476506
0.011301637840513
0.0113052615014171
0.0112988293327581
0.0112827646759907
0.0112575085770273
0.0112235379402354
0.0111813602928744
0.0111314931706942
0.0110744402579241
0.0110106682877584
0.0109405877548639
0.0108645398258426
0.010782763981226
0.0106954134892913
0.0106026843255885
0.0105047806941098
0.0104019627502449
0.0102945318803388
0.0101825392880307
0.0100662680152094
0.00994567388639441
0.00982043589135589
0.00969127069728416
0.00955742036671132
0.00941887880347165
0.00927514821154923
0.00912590033915568
0.0089705795623199
0.00880855126780638
0.00863904731965971
0.00846113190797298
0.00827363182198166
0.00807509179840046
0.00786365127761173
0.0076370150366749
0.00739210368369748
0.00712600085788709
0.00684123763439552
0.0065298400981869
0.00618453217791273
0.00579811834732092
0.00536231802996328
0.00487109591296281
0.00432265317272967
0.00371775423152118
0.00303930937176716
0.00289542807216108
0.00423758545993316
0.00661931313512113
0.010041384300057
0.0140317417752122
0.018136782674167
0.0220825767841598
0.0257852228594538
0.0302754389473051
0.0364964903025708
0.0479645416224111
0.0684957719745113
0.107670551380685
0.132522807938578
0.109864456968858
0.0922327745500779
0.0916633397460491
0.0355142132343011
0.00657229764241646
0.00758886476891269
0.00273768209544852
0.000347423390383055
0.000243770408800761
0.000309886296476516
0.000395733788301063
0.000513397373632121
0.000631825655723267
0.000708465258445794
0.000687722595827472
0.000562691855053982
0.00037356760510847
0.000205829505786851
0.000288572385539263
0.000539313727981079
0.000886910102491818
0.00130546942698769
0.00174284058343978
0.00217253285348227
0.0025888015613148
0.00299195108305587
0.00338330716820265
0.00376395225107136
0.00413476566263736
0.00449626415161171
0.00484879412293659
0.00519247709905713
0.00552731555743847
0.005853191948518
0.00616992646622668
0.00647729842888571
0.00677508273057894
0.00706307593079794
0.00734111476792113
0.007609280570744
0.00786483709325625
0.00810672090741335
0.00833554352113713
0.00855148146284569
0.00875446391721039
0.00894438150139368
0.00912117332336699
0.00928485275172903
0.00943549540413892
0.00957323723505741
0.00969826198804133
0.00981078563717935
0.00991105446626201
0.00999933646360391
0.010075925140297
0.0101411367112383
0.0101953101862188
0.0102388050347156
0.0102719960434875
0.0102952698699042
0.0103090137130329
0.0103136127050839
0.0103094402431496
0.0102968686923055
0.0102762815019186
0.010248085292283
0.0102127100055547
0.01017059068054
0.010122151873219
0.0100677881821211
0.0100078526221466
0.00994264774356962
0.00987240031874013
0.0097972674901204
0.00971743684599437
0.00963309296126208
0.00954446201005905
0.00945181463676459
0.00935519395561794
0.0092548822275035
0.00915092320492957
0.00904338591302999
0.00893231359907855
0.00881734586653099
0.00869844250772458
0.00857530544160561
0.00844768976171268
0.0083152059066378
0.0081773990554302
0.00803371178554653
0.00788347107680076
0.00772582347383011
0.00755972683018513
0.00738381888291654
0.00719645813278435
0.00699532083993673
0.00677737137318632
0.00654507909488013
0.00629304261063435
0.00601500370004503
0.00570515724399961
0.00535444437246981
0.00495649199935744
0.00450098442790824
0.00398494887350226
0.00338587550055925
0.00318670367242257
0.0042662871955041
0.00637652936749013
0.00935368440531011
0.0128666482790837
0.0166062577089536
0.0203854333919141
0.0242948861589559
0.0291324116622677
0.0358729240743825
0.0471705139219113
0.0651918634657346
0.0916282973613597
0.102070146955068
0.0831651209263562
0.0959308921824936
0.0929996348129479
0.0464367644335427
0.00930463807504092
0.00730467340303005
0.00327599538463672
0.000511996402880711
0.000312356861508719
0.000387556721074742
0.000486369572692685
0.000611419168912541
0.000718219200216982
0.000760875253320956
0.000706091796387862
0.000576644674829035
0.000416545030466381
0.000283844179859219
0.000414419233867897
0.000729844071253246
0.00111125106402292
0.00150763336764304
0.00188816821300183
0.00225406455941587
0.00261074236651738
0.00295983995203235
0.00330195052015864
0.00363706645269775
0.00396531424666293
0.00428659149606872
0.00460084444119406
0.00490788713076731
0.0052075221365683
0.00549949300097452
0.00578353689796551
0.00605938310899709
0.00632677812370049
0.00658549508347258
0.0068353151463477
0.00707548292458889
0.00730369366628732
0.00752027085562712
0.00772540627272145
0.00791909840681112
0.0081012310027253
0.00827170094052027
0.00843045323457069
0.00857749582979018
0.00871288786062165
0.00883674164397306
0.00894921238022046
0.00905048523631952
0.00914077401354145
0.00922031246147867
0.00928935778302553
0.00934818723989689
0.00939709821058199
0.00943640597025481
0.00946643940473716
0.009487538814021
0.00950004709282775
0.00950430918047398
0.00950066320096665
0.00948944883150747
0.00947101201028374
0.00944571459563674
0.00941393702772385
0.00937606260831733
0.00933246604456046
0.00928349699973109
0.00922947236342101
0.00917067056560503
0.00910730996125322
0.00903954781691474
0.00896756508829973
0.00889153281520341
0.0088116551342601
0.00872818280321705
0.00864115213889807
0.00855091555844575
0.00845765450469327
0.00836121349661178
0.00826162682903688
0.00815869029541287
0.00805236991241447
0.00794247039215503
0.0078288110407096
0.00771110796372827
0.00758902474926495
0.00746214551833977
0.00732997125402832
0.00719186530392466
0.007047058949841
0.00689453477358812
0.00673308786421631
0.00656096471708569
0.0063755942574259
0.00617904488283403
0.00596775907814343
0.00573666485895939
0.00548125024709391
0.00519332897196018
0.00486721220439917
0.0044901267298517
0.00405624065480756
0.00354611840707054
0.00332352594719329
0.00416714462750082
0.0059731663321872
0.00849478447133608
0.0114691424919086
0.0146767442982753
0.0179968222234336
0.0215953499729621
0.026078064673894
0.0323495079523888
0.0422175288447076
0.0570807863410812
0.0749412162267187
0.0824190623697769
0.0637733979623056
0.0897506663655142
0.0883333436047496
0.0557489777726645
0.0130309853232758
0.00646484740040005
0.00350658508180409
0.000696676190323473
0.000382127787533647
0.000458093312695639
0.000559718099205091
0.000673692914223318
0.000749363301862832
0.000753839335894117
0.000683825951511266
0.000573288844743672
0.000454427693314974
0.000377600794553686
0.000553743727563455
0.000900372345531091
0.00126606388600995
0.0016096672364551
0.00193593917465995
0.00225644042745501
0.00257466894495969
0.00288940913097284
0.00319998537105084
0.00350551767713938
0.00380571628506444
0.00410014689258788
0.00438856618653813
0.00467064255018432
0.00494609264238248
0.00521460486616828
0.00547588980828719
0.00572966499226447
0.00597567338639286
0.00621368651114604
0.00644351725072575
0.00666321711229426
0.00687233952975605
0.00707099602651683
0.00725921966076941
0.00743694141107003
0.00760403802192885
0.00776041734067583
0.00790603205466276
0.00804088895366353
0.00816503905683402
0.00827858184643151
0.00838165642544072
0.00847443040911945
0.00855709829714131
0.00862987321804063
0.00869298979514028
0.00874670076510459
0.00879127691949919
0.00882700509152295
0.00885418457184154
0.008873125683682
0.00888414294426474
0.00888755525158063
0.00888367793589918
0.00887282839673535
0.00885532674726094
0.00883150445247198
0.00880170829509845
0.00876628683963158
0.00872558122330737
0.00867991110782969
0.00862956910352779
0.00857481762402102
0.00851586926341213
0.00845288000327976
0.00838602565365883
0.00831546721498578
0.00824139312606706
0.00816404057314521
0.00808347358256549
0.00800018689718202
0.00791412803767333
0.00782520935472665
0.00773346328815488
0.0076387673317485
0.00754109933984326
0.00744032727053989
0.00733631685229889
0.00722885580081352
0.00711768886101521
0.00700249821487713
0.00688290410112471
0.00675842040549521
0.00662846492380322
0.00649226139919809
0.00634890202780836
0.00619704839360321
0.00603462412337625
0.00586325685419618
0.00568069793877258
0.00548287716091064
0.0052662608305668
0.00502384317977628
0.0047507241526525
0.00443419724647042
0.00406664545653543
0.00363448486529794
0.0034101054560343
0.00407143542912428
0.00562269211529565
0.00777847145376079
0.0103111780706196
0.0130551125232514
0.0159327420301659
0.019128956919577
0.0231097663050872
0.0286738351287621
0.0370231765485172
0.0493923635493167
0.062255457715299
0.0696916904256969
0.0516249688351257
0.0801792171024788
0.0805811847667152
0.0631637561188859
0.0175772663350405
0.0056981363003668
0.003398367042042
0.000878614472667652
0.000448452819963821
0.000513941500352882
0.000606523825490903
0.000695026815504305
0.000735889125495866
0.000717324614709474
0.000653597380336792
0.000573353504856135
0.000497551403690024
0.000478389884591158
0.0006888869531075
0.00103230567945018
0.00135830634554749
0.00165358175897227
0.00194438146544288
0.00223695745709328
0.00253093417044832
0.00282309870148055
0.00311237474910656
0.00339749898030373
0.00367805629431084
0.0039534708789343
0.00422342608813084
0.00448752927058768
0.0047454649619432
0.00499690429882388
0.00524155419857329
0.0054791346235645
0.00570939249646559
0.00593209815685096
0.00614669861181527
0.00635150788718019
0.00654659116513497
0.00673196675983541
0.00690759526948434
0.0070733793787343
0.00722919985273033
0.0073749746000498
0.00751066288415209
0.00763627134018711
0.00775184629710975
0.00785747936488531
0.00795329967497436
0.00803946395796691
0.00811615434087483
0.00818357064144792
0.00824193252977613
0.00829147640251275
0.00833245515902513
0.00836513642834077
0.00838979951834276
0.00840673453512675
0.00841623706480418
0.00841860855353743
0.00841414915391538
0.00840316073866114
0.00838594520081363
0.00836281269569528
0.00833408636421824
0.00830009060886981
0.00826114318414657
0.00821754303633228
0.0081695659830624
0.00811746370881798
0.00806144518862333
0.00800166489725816
0.00793829506728413
0.00787148916253933
0.00780142397278564
0.0077283268504559
0.00765243113673963
0.00757401605910738
0.00749304484346869
0.00740947171138742
0.00732333041144696
0.0072345486197383
0.00714311625996344
0.00704894453852315
0.00695193410317325
0.00685192445295509
0.00674871943409948
0.0066420731176902
0.00653169249634304
0.00641720180447491
0.00629815383614365
0.0061739495798668
0.00604389536690741
0.00590696398849481
0.0057615256235925
0.00560877702671444
0.00544745608106671
0.00527429692725199
0.00508651038210313
0.00487823384822651
0.00464530186446353
0.00437605716192075
0.00406197675129704
0.00369604648910531
0.003480118525651
0.00400654275611254
0.00535326117959922
0.00722439549696191
0.00941394165078455
0.011790546930209
0.0143063230278225
0.0171436024795841
0.0206730879139181
0.0255927088653181
0.0327103938140759
0.0432882421422423
0.0531451870692144
0.0609982039662996
0.0438647860985716
0.0708309496823888
0.071008576262017
0.0684555229689691
0.0226781234783536
0.00534307449074509
0.00307102421875806
0.00102945528021783
0.000506032115682123
0.0005497232993866
0.000624764733715993
0.000684279918641237
0.00070033663692089
0.000676466419185673
0.000630513516038282
0.000582364850071663
0.00054701542355952
0.000577893627742151
0.000807108408096064
0.00112435398707382
0.00140877394373194
0.00167088698373703
0.0019409299241882
0.00221578086649506
0.00249343785838558
0.00276976961600429
0.00304380289672398
0.0033141233451467
0.00358030443508761
0.00384170902188971
0.00409799024657079
0.00434872851442923
0.00459359537782365
0.00483225794739433
0.00506442571929919
0.00528982389712632
0.00550820368958991
0.0057193648353308
0.00592224304911571
0.0061158816992811
0.00630037243558809
0.00647568025004188
0.0066417280418038
0.0067984061809589
0.00694560182416184
0.00708324066567783
0.00721128679756243
0.00732974658323682
0.00743866309388043
0.00753812258938676
0.0076282476216423
0.00770918783905639
0.00778111713283967
0.00784422645951728
0.00789872532066638
0.00794483899137221
0.00798280810040833
0.00801288710494226
0.0080353416245853
0.00805044798585937
0.00805848906503389
0.00805975463304349
0.00805453484628554
0.00804312086413729
0.00802580173969276
0.00800287258673498
0.00797463980241022
0.00794141081987738
0.00790348696417848
0.00786115278403321
0.00781467246576288
0.00776429074403899
0.00771021479967516
0.00765259782775188
0.00759161000934541
0.00752739915782893
0.00746013291382673
0.00739012334520723
0.007317566841031
0.00724263441509182
0.00716532892777154
0.00708563308517068
0.00700358349016678
0.00691914191785891
0.00683230968156184
0.00674302972840346
0.00665123012400936
0.00655678974786359
0.00645955765433411
0.00635934312896101
0.00625591943336017
0.00614899542669655
0.00603822651162549
0.00592314960738584
0.00580323308876876
0.00567768997195082
0.00554529009884214
0.00540680515564047
0.00526177222200663
0.00510756115613492
0.00494196772048656
0.00476015195207356
0.00455861012196566
0.00432707865388662
0.0040567940110994
0.00374714351761467
0.00354543377978659
0.00397159136364548
0.00515325110962058
0.00680008516571996
0.00872143651668122
0.0108097814535979
0.0130388081359554
0.0155810426913017
0.0187429378382001
0.0231365955475868
0.0293229831683093
0.0386126932326341
0.0465532860023615
0.0547530219880464
0.0386308956268604
0.0632365142532741
0.0603574963237777
0.0717620748260433
0.027934503586615
0.00546454248657995
0.00269390460505158
0.00112777515009999
0.000551012840362072
0.000565073804878657
0.00062032332554545
0.000656373713700318
0.000660466334742269
0.000642246740218499
0.000617300691518475
0.000599082421762069
0.000599839824766006
0.000669741714023751
0.000902955452165605
0.00118414063536244
0.00143586584091904
0.00167819255978285
0.00193596567738582
0.00219870027895068
0.00246469295092636
0.00272941453836889
0.00299216154854719
0.00325145588263435
0.003506887418986
0.00375778824462474
0.00400379326941964
0.00424446833755292
0.00447947701329962
0.00470848560927686
0.00493120612225133
0.00514736763225562
0.00535672047807072
0.00555903301404412
0.0057529601831434
0.00593813082321872
0.00611456067593464
0.00628218023925208
0.00644089083166261
0.0065905773055764
0.00673113266020061
0.00686248803287328
0.00698461065647426
0.00709750618475028
0.00720121503934538
0.0072958195643043
0.00738143784297828
0.00745821488216591
0.00752631910054089
0.00758593561013923
0.00763726706260574
0.0076805312702763
0.00771596056652415
0.00774380052684493
0.00776430755922915
0.00777774880992643
0.0077843988906432
0.00778454010192774
0.00777845643317432
0.00776643201298912
0.00774874711459911
0.00772568643607298
0.00769754470467456
0.00766461761533578
0.00762719513450524
0.00758555200917865
0.00753994458299637
0.00749061352400022
0.00743776582754826
0.00738155377305732
0.00732214695031213
0.00725968883609083
0.0071943846215294
0.00712657646172642
0.00705636785320005
0.00698391288449646
0.00690924042096402
0.00683235416358998
0.00675329447250768
0.00667204798545601
0.00658862666201141
0.00650299798746265
0.00641511233850604
0.00632487971978634
0.00623218509942764
0.00613688172136885
0.00603879540431407
0.00593770219664487
0.00583333846009065
0.00572534881603515
0.00561332892218555
0.00549668127171215
0.00537450865412309
0.00524724679927103
0.00511503212935908
0.0049757592434581
0.00482769786938343
0.00466689831048359
0.00449045069778457
0.00428955153936511
0.0040556817654558
0.00379403866917146
0.00360997043994545
0.00396088482013684
0.00500737109448589
0.00647355550317491
0.00818116982027287
0.0100405881824402
0.0120418399695769
0.0143456432230868
0.0172145752345807
0.0211895390516799
0.0266813891647682
0.0350216614094162
0.0416800472782634
0.050082285148844
0.0345582171366636
0.0576284600983081
0.0495427393449948
0.0737041377364364
0.0330404659373434
0.00604966204315213
0.00238147956725122
0.00116974573572853
0.000582762957713646
0.000564434628227695
0.000602401207588485
0.000623366793995655
0.000624806174996593
0.000616900471778638
0.000612336902825007
0.000620657034402814
0.000652221798975399
0.000750034055903253
0.000976501062843927
0.00122132472420506
0.00145162733577047
0.00168288293869323
0.00193286773791028
0.0021868130166093
0.00244416660360618
0.00270020214234028
0.00295449157867317
0.00320552445001389
0.00345290125051584
0.00369593385387927
0.00393423889662465
0.00416737093796401
0.00439498499466581
0.00461674577738754
0.00483236543101735
0.00504157438467093
0.00524411864844338
0.00543964044540688
0.00562684644440808
0.00580562959724809
0.00597595970012028
0.00613774339086012
0.00629086839461264
0.00643521674645124
0.00657068577273235
0.00669720996898994
0.00681475824340187
0.00692333504574821
0.00702297839565555
0.00711376762814748
0.00719581781690505
0.00726927106301381
0.0073342923389198
0.00739106314893873
0.00743978179101246
0.00748066138707158
0.00751392899765744
0.00753982458834178
0.00755859876063192
0.00757051298885646
0.00757583701489872
0.0075748489334009
0.00756782959237723
0.0075550590721542
0.00753681210201427
0.00751336657053184
0.00748500947371345
0.00745202879163561
0.00741470703232633
0.00737331267040609
0.00732809712801951
0.00727929932543258
0.00722712754313224
0.00717173351061077
0.00711328761826047
0.00705194125596396
0.00698797998703148
0.00692163643107551
0.00685301728706963
0.0067822666185128
0.00670943170415225
0.00663453259233743
0.00655761399338712
0.00647868167911734
0.00639775761711775
0.00631482905763029
0.00622986506704196
0.00614280100800354
0.0060535512354894
0.00596200498749487
0.00586803099970489
0.0057714601209209
0.00567209445300973
0.00556966611159647
0.0054638736156324
0.0053542715623034
0.00524020786490191
0.00512195424592751
0.00500000541832344
0.00487272081506605
0.004738763988676
0.00459495161972787
0.00443890763755368
0.00426323017122564
0.00405998789654454
0.00383939730339503
0.003674913931109
0.00396901347477223
0.00490316068212286
0.00622067894955646
0.00775438508937954
0.00942908839431319
0.0112474623699626
0.013358352417111
0.0159937415888258
0.0196359678011082
0.0246090765249624
0.032230634063907
0.0379982625748201
0.0463090185064323
0.0309543777116304
0.0536092576707458
0.0396423174097684
0.074572544783487
0.037982930986868
0.00710558581507343
0.0021821359726482
0.00116780093119258
0.000603632285162439
0.000554227008469767
0.000578932002562129
0.000591914142253055
0.000595861984576052
0.000599424035143372
0.000613239733216442
0.000644376607564225
0.000701040881439331
0.000817272380845298
0.00103077189791776
0.00124431119967055
0.0014627972957904
0.0016878575519925
0.00193247307228616
0.00217985112067152
0.00243073157944138
0.00268027822479343
0.00292827949350725
0.00317320522597174
0.00341464913984395
0.00365190508499625
0.0038845669073689
0.00411217706959891
0.00433437925829538
0.00455083406260274