/*--------------------------------*- C++ -*----------------------------------*\
  =========                 |
  \\      /  F ield         | OpenFOAM: The Open Source CFD Toolbox
   \\    /   O peration     | Website:  https://openfoam.org
    \\  /    A nd           | Version:  7
     \\/     M anipulation  |
\*---------------------------------------------------------------------------*/
FoamFile
{
    version     2.0;
    format      ascii;
    class       volTensorField;
    location    "20000";
    object      gradU;
}
// * * * * * * * * * * * * * * * * * * * * * * * * * * * * * * * * * * * * * //

dimensions      [0 0 -1 0 0 0 0];

internalField   nonuniform List<tensor> 
15600
(
(-0.711042930887456 -0.00119726110404 -2.48020103117312e-22 -11.0308840420697 0.166961189687725 -2.63380527093962e-21 -1.88492784908022e-21 4.99245660575999e-23 8.71493676911119e-43)
(0.225576023430173 0.267340374742677 1.18503048094655e-16 0.341316591444845 0.11590405020255 2.29038595071192e-16 1.295065905461e-21 8.11632014188686e-22 -1.8740779740177e-42)
(-13.2634453474438 15.1975773411199 2.49737761009972e-21 -11.1710671913904 12.782643253609 1.98093118011813e-21 1.03256323505243e-21 -1.10573330367483e-21 1.14833916457075e-42)
(-6.30420594741603 9.01777994828638 -5.94064805977268e-20 -4.2491139083932 6.015431686399 -3.88351523097402e-20 0 0 0)
(-1.74599204244444 2.85979389078106 5.69277537966545e-20 -1.08362375021925 1.75663241482307 3.38551147696283e-20 0 0 0)
(-1.45061268943197 2.41346171341894 -6.57130577871371e-18 -0.857068779532055 1.4267647347023 6.22240547663562e-19 0 0 0)
(-1.20600716645327 1.96335799969836 -9.14213328650601e-17 -0.737185421752878 1.20133174810454 -5.55303554573305e-17 -4.38877502284813e-21 6.9459519431216e-21 -6.16729013598136e-37)
(-1.20177258955076 1.89713416505656 -1.59996486965272e-15 -0.75532751549478 1.19386469348239 3.17783171670895e-16 3.97968537727996e-21 -6.29850088815704e-21 5.5924202639305e-37)
(-1.20007212363369 1.85811420617227 9.69803483022682e-15 -0.770814307392347 1.19486768551474 7.99234152049378e-15 -1.90966332584717e-15 2.96035823018598e-15 2.04835285151636e-29)
(-1.18092536427355 1.78931351038652 1.15936520749404e-14 -0.771797229773039 1.17108883059939 6.43574608212012e-15 -1.94650797570189e-15 2.95255803880184e-15 1.52685585733462e-29)
(-0.986039178856784 1.42584159779683 2.08380574479785e-15 -0.675439002299664 0.978797064623243 -1.62084936921508e-16 -7.44531394338546e-21 1.09281917942778e-20 -2.99397303419934e-34)
(-0.629041097248091 0.819196163164358 4.98149372653898e-16 -0.481673831796755 0.62889550493828 3.819435820638e-16 0 0 0)
(-0.136892141022478 0.135436735458859 -1.8636551096074e-17 -0.14791004203653 0.147632946711709 2.77299220961667e-18 0 0 0)
(0.301369442019097 -0.262587471682044 2.26424117211388e-17 0.310685478987033 -0.282399940931313 -4.26322789691119e-18 0 0 0)
(0.443776889211807 -0.220503882259267 -4.2619668267944e-17 0.811169814604011 -0.428698969056819 -1.08727265631823e-16 -5.43348548527647e-18 2.85570975306618e-18 7.09652712657027e-34)
(0.130937901857943 -0.00570335630580445 -2.25075412329377e-18 0.978568715308413 -0.120828448294537 1.3430636961495e-16 -2.92060383244741e-18 3.54992401340889e-19 -3.89838599666192e-34)
(-0.0139529590702713 0.00291440597301386 -1.09060869437886e-17 0.598775441083412 0.0155506586171725 1.98412095183732e-18 0 0 0)
(-0.0167025801951495 -0.00012801289507563 -4.32608813870831e-20 0.265870210103464 0.01833543530916 -2.34484801814814e-19 -2.68401491546424e-21 -3.24992408861459e-23 -3.40865333425821e-42)
(-0.0288887084945758 3.92321023116475e-05 -6.42703292872351e-22 -0.324311658393462 0.0310221325411973 2.32283200873847e-19 2.68401491546441e-21 3.2499240886148e-23 3.40865333425844e-42)
(-0.0387043847888252 0.000134764447297462 4.30266857724719e-20 -1.17617260570903 0.0409411044641618 -2.29630001512809e-19 1.56142715554474e-20 -7.96022591825858e-23 -1.14772769957623e-38)
(-0.0439796297734224 0.000214476312484743 -8.45966303564731e-20 -2.15897071398057 0.0475214885712172 -6.96350122155318e-19 1.19058298028438e-20 -5.80613908380292e-23 2.29013542884995e-38)
(-0.0453205364663189 0.000244689618189179 4.24436591725876e-20 -3.18481305278299 0.049930620857575 -5.10504793312092e-19 -2.75201013583149e-20 1.37663650021466e-22 -1.14240772927416e-38)
(-0.0435727047319335 0.000245955192674417 -5.17424127669158e-23 -4.16884975643426 0.0494715203478633 4.99174304836727e-19 5.15846013502878e-20 -2.70487269544528e-22 -5.19389574835697e-41)
(-0.0403556367444513 0.000230311230582063 1.83313094987602e-21 -5.07528250502472 0.0474480198128939 1.68540166618392e-19 -5.15846013502853e-20 2.70487269544515e-22 5.19389574835673e-41)
(-0.0366218120880857 0.000208945451634894 4.38115410861437e-20 -5.89059818034816 0.0449056226254938 -1.75009236988562e-19 7.24233489518187e-20 -3.89399486977436e-22 -1.24085162972004e-38)
(-0.0329522696406449 0.000185620897679334 -1.1022381412638e-15 -6.61762039300365 0.0423364736101777 1.55664031478496e-16 8.920587007671e-21 -5.02498731118726e-23 2.9838949940452e-34)
(-0.0295577609423237 0.000162633458022391 -1.18396427513802e-15 -7.26372884512883 0.0399610749440261 4.43937504089434e-15 -3.97752603232922e-15 2.18844157803896e-17 2.53026291739251e-30)
(-0.0264989721056421 0.000140424668335389 1.10224728789021e-15 -7.83789582109843 0.0378130490637364 3.4335498785727e-15 -4.34285215126032e-15 2.09666644643126e-17 1.80471592929385e-30)
(-0.0237523412351981 0.0001193554936423 1.18390941862825e-15 -8.34813651632153 0.0358714160416922 -1.55286171854158e-16 1.029492395974e-19 -5.54001952233274e-22 -3.42854344172183e-41)
(-0.0212742138205799 9.93898266351357e-05 -5.31892209646017e-20 -8.8013198824258 0.0340888898463681 -6.29563512187002e-19 -1.02949239597033e-19 5.54001952231858e-22 3.42854344438166e-41)
(-0.0190135475891894 8.04521700166613e-05 -1.52906749214e-15 -9.20295012654328 0.032418538583945 1.82502219878181e-16 0 0 0)
(-0.0169241438349246 6.23680778475249e-05 -1.66408835589507e-15 -9.55738567995842 0.03081644628999 5.23709722970195e-15 -5.442454269829e-15 1.74889339104582e-17 3.10263474371921e-30)
(-0.0149665118746889 4.50071527786576e-05 1.52912055471193e-15 -9.86799593250904 0.0292465308124886 4.20190795877904e-15 -5.67782221625584e-15 1.68909826177446e-17 2.29942594328352e-30)
(-0.0131099849287906 2.82516360999971e-05 1.66412734600847e-15 -10.1373979629309 0.0276811964019201 -1.84381511234281e-16 0 0 0)
(-0.011332934453387 1.20989147519697e-05 -3.8947229854625e-20 -10.3676509918229 0.0261008419872939 -6.84526910425595e-20 6.45529152918303e-20 -3.21339300875192e-22 -5.80453812475301e-42)
(-0.00962322204105833 -3.32091067565528e-06 -3.89901132893712e-20 -10.5604659743928 0.0244967755233864 -4.63060555617076e-19 -6.45529152918305e-20 3.21339300875193e-22 5.80453812475303e-42)
(-0.00797393093356068 -1.79339497377862e-05 3.89472298546246e-20 -10.7173697960556 0.0228667804163572 -3.84708545141005e-21 0 0 0)
(-0.00637888177997003 -3.17010176464204e-05 2.30970500426288e-15 -10.8397377463834 0.0212090756629852 -2.08441936813265e-16 0 0 0)
(-0.00483289504542649 -4.46276563872373e-05 2.48852318677024e-15 -10.9287982046009 0.0195240288929946 -6.84661369561284e-15 5.99431562418549e-15 -1.06375411727722e-17 3.88622785184712e-30)
(-0.00333276652339976 -5.68362785746802e-05 -2.30970500426285e-15 -10.9856831061894 0.0178100745405857 -5.79971819673043e-15 6.07372567870836e-15 -9.91001563464363e-18 3.08141625168502e-30)
(-0.00187881277959494 -6.8372638555774e-05 -2.48852318677032e-15 -11.0114751989381 0.016067616100855 2.04019174723859e-16 0 0 0)
(-0.000472035434061454 -7.91562815326004e-05 5.57916645187515e-35 -11.0073349072018 0.0143025349391075 -4.70297097090876e-20 0 0 0)
(0.000886897944485964 -8.89565754763574e-05 0 -10.9743756921902 0.0125215734277783 8.66279240532102e-19 0 0 0)
(0.00219463197229149 -9.76358914857297e-05 -2.46732474182899e-31 -10.9137749767613 0.0107351926633016 1.62476409904068e-32 0 0 0)
(0.00344635470089047 -0.000105241330140953 1.9782725957312e-44 -10.826789567137 0.00895303611915366 6.31467991866926e-31 -4.52588930244489e-31 3.73744569485421e-34 2.64451403232719e-62)
(0.00463662589767552 -0.000111771461457354 -3.70687816787194e-15 -10.7147552128441 0.007186376483804 2.14121038155607e-16 0 0 0)
(0.00576088518346092 -0.000117242128546991 -3.91768893229026e-15 -10.579100200544 0.00544560847945292 1.02458143740585e-14 -6.03960755287995e-15 3.06238143435019e-18 5.9874309236373e-30)
(0.00681635172012186 -0.000121680287561713 3.70679629397768e-15 -10.421302341415 0.00373905702636412 9.40458830076984e-15 -5.97951077738406e-15 2.18074682744258e-18 5.27338391402555e-30)
(0.00780156705349948 -0.000125139894214199 3.91773078365597e-15 -10.2428653655728 0.00207419912071043 -1.95082613051758e-16 -6.54801069983875e-20 1.85029348215089e-22 -2.65149963555292e-34)
(0.00871622405827636 -0.000127678142234158 1.27297946429924e-19 -10.0452947529958 0.000456255547592669 1.10810421796629e-18 3.2476055910954e-20 -8.82800594412294e-23 2.7086483948871e-39)
(0.00956037347602179 -0.0001293423594511 -8.73213212533481e-20 -9.83008357425591 -0.00110935826971556 5.48152005113934e-19 3.12391306529439e-20 -7.08854021608458e-23 3.10665945009958e-42)
(0.0103342189545025 -0.000130188059297652 -4.60543783233745e-15 -9.59871565244442 -0.00261826499418644 1.51091802291926e-16 -3.12391306529474e-20 7.08854021608537e-23 -3.10665945009993e-42)
(0.0110380650081407 -0.000130262842110783 -4.80218873739302e-15 -9.35265830826882 -0.00406602598533601 1.30062848947296e-14 -5.14301632107051e-15 -2.25611175140898e-18 7.24722253218346e-30)
(0.0116723386466053 -0.00012962681762665 4.6053669486963e-15 -9.09336638404347 -0.00544879258892645 1.27747450656114e-14 -5.01421826839715e-15 -2.99212489372011e-18 6.97068158772924e-30)
(0.0122378118898119 -0.000128338147969647 4.80223420734909e-15 -8.82227343987305 -0.00676335199309805 -1.19282347534928e-16 -1.45013668141388e-20 2.22428431102712e-23 -1.62503886907897e-34)
(0.012735671417162 -0.000126466963371202 2.54595884820506e-20 -8.54078765305344 -0.0080070513886021 3.90870848902433e-19 0 0 0)
(0.0131675975825589 -0.000124077489607964 0 -8.25028066864224 -0.00917846144251895 0 0 0 0)
(0.0135358268258299 -0.00012124844032436 0 -7.95208050447203 -0.0102764298408681 0 0 0 0)
(0.0138430885496192 -0.000118047059958759 0 -7.64745929709468 -0.0113016377251793 0 0 0 0)
(0.014092170197544 -0.000114539895456998 7.90485437171992e-21 -7.33763026144047 -0.0122541022438231 0 0 0 0)
(0.014285636484297 -0.00011078404130981 -7.91729731265888e-21 -7.02375209634103 -0.0131351989292395 9.47659129087371e-20 2.83098867968545e-21 1.57511533848074e-24 1.05264313428968e-43)
(0.014424702685859 -0.000106789986032638 -7.904854371721e-21 -6.70693921371728 -0.0139444882502213 1.51822713290184e-19 -2.83098867968529e-21 -1.57511533848065e-24 -1.05264313428962e-43)
(0.0145099711659486 -0.000102613121269638 7.91729731265816e-21 -6.38829962351001 -0.0146808973336108 -2.48253306758773e-19 0 0 0)
(0.0145431962696154 -9.831969627835e-05 0 -6.06891243715961 -0.015345421291115 0 0 0 0)
(0.0145272470654282 -9.39782175238745e-05 -3.57666305437607e-20 -5.74980544686438 -0.0159397669454707 -7.36024126961551e-22 0 0 0)
(0.0144659924572132 -8.96508129968367e-05 3.58244837655088e-20 -5.43193592641278 -0.0164677102943891 -4.28044542121533e-19 -8.87160148870434e-21 -2.29273387863364e-23 1.95769784565829e-42)
(0.0143638294962757 -8.53843618291108e-05 3.57666305437578e-20 -5.11617440494245 -0.0169331551423598 4.30506230003755e-19 8.871601488704e-21 2.29273387863356e-23 -1.95769784565821e-42)
(0.014225237638053 -8.12162929547917e-05 4.03911760464198e-20 -4.80330367087457 -0.0173409529811402 1.16972864958055e-18 0 0 0)
(0.014054261057978 -7.71653918682724e-05 -7.63363781553572e-20 -4.49401994470236 -0.017695272168388 -2.64836159358749e-19 1.48571838686762e-20 6.23522986196468e-23 8.16998720982406e-42)
(0.0138542589307717 -7.32527722165287e-05 2.99004573617571e-21 -4.18895122394273 -0.0179999762033727 3.13158396750052e-19 -1.48571838686766e-20 -6.23522986196481e-23 -8.16998720982423e-42)
(0.0136267988393397 -6.94546491031207e-05 7.7669108723562e-20 -3.88867091470176 -0.0182577607816811 9.74668382804869e-19 1.29973182996695e-20 7.2010464676226e-23 -5.45068772706742e-39)
(0.0133714496285483 -6.57704489992982e-05 7.84114260762773e-15 -3.59375529126215 -0.01846826426502 3.84724083815252e-16 -9.04954204451835e-22 4.45121852933023e-24 -5.30673574488836e-34)
(0.0130880229589399 -6.22364095876071e-05 1.58855108337834e-14 -3.30479472131461 -0.0186324538600203 -2.97711422571776e-14 1.82504875526174e-15 1.02929632842064e-17 1.61839648057549e-29)
(0.0127776831243505 -5.88928076413898e-05 1.93725345145679e-16 -3.02236735892345 -0.0187519851566416 -6.55539064255477e-14 3.32930914828208e-15 2.06516049307568e-17 7.2272004822228e-29)
(0.0124427690262952 -5.57730230315608e-05 -1.58855121665145e-14 -2.74701255871694 -0.0188305833033754 -3.61000288931575e-14 1.50821699475909e-15 1.03270173782663e-17 2.01554460395833e-29)
(0.0120861077703988 -5.28922351962527e-05 -8.03512223294323e-15 -2.47921472260102 -0.0188718785459405 -4.93244364776779e-16 -2.07338070282307e-31 -1.57738556408805e-33 2.34897108686145e-49)
(0.0117100283888568 -5.02385431572082e-05 -2.35876637169106e-21 -2.2194071721296 -0.018879876582476 -4.92669566590367e-18 -1.57784849415964e-20 -1.90827567469315e-22 -2.40166851893692e-38)
(0.0113146748287132 -4.7785904594899e-05 3.5297523197503e-19 -1.96799191552466 -0.0188556877110892 -2.85857918353818e-21 1.53151121870707e-21 -6.468117740108e-24 4.77773807801923e-38)
(0.0108988028690667 -4.5534260703103e-05 8.76285328537257e-15 -1.72540792138807 -0.0187994209397896 6.87374169230584e-16 1.42469737228902e-20 1.97295685209435e-22 -2.37606955908248e-38)
(0.010461679191092 -4.34884596244094e-05 8.75824962921405e-15 -1.49211457471016 -0.0187114389804062 -3.77125880050843e-14 8.25888878018085e-16 1.03706376473779e-17 2.03924643461262e-29)
(0.010002502597943 -4.16771984895555e-05 -8.76285092660598e-15 -1.2685811465355 -0.0185925915187214 -4.39745536962912e-14 6.95178872820223e-16 1.01646098242418e-17 2.46382563836917e-29)
(0.00952087746497149 -4.01222813355332e-05 -8.75842752998189e-15 -1.05530578333252 -0.0184447829999741 -7.60133805685917e-16 0 0 0)
(0.00901593253879207 -3.89048711010482e-05 1.92215332644071e-19 -0.852782429518554 -0.0182680560804951 -1.79315912816769e-20 0 0 0)
(0.00848514747781913 -3.79855028019517e-05 -1.92406866584962e-19 -0.661557625202319 -0.0180665911376871 5.50246948533848e-18 6.34421069663081e-21 2.30825114196475e-22 2.59253035275049e-41)
(0.00792496846820742 -3.72142407480192e-05 -1.92215332644076e-19 -0.482244676392835 -0.0178366118748334 -2.32641438755281e-18 -6.34421069663143e-21 -2.30825114196497e-22 -2.59253035275075e-41)
(0.00733015553040547 -3.66422456709522e-05 -6.47554503484165e-21 -0.315550544956685 -0.0175700957483105 -1.48482640867229e-21 0 0 0)
(0.00669520817268358 -3.63783965396777e-05 1.99041204004954e-19 -0.16232108504991 -0.0172625738228123 -2.3629672987069e-18 -3.37309747565031e-21 -2.45746087401618e-22 2.14935314524394e-41)
(0.00601231341968104 -3.63480409259683e-05 4.02007114178432e-19 -0.0235109660828094 -0.0169104291084 -1.00272002028501e-18 3.37309747565048e-21 2.4574608740163e-22 -2.14935314524406e-41)
(0.00527333022735491 -3.65966594551846e-05 -4.02295965918389e-19 0.0996872388820181 -0.0165043360361322 1.27505330491371e-17 1.84551580693926e-21 2.55619603757142e-22 1.76043380852491e-41)
(0.00446499922947634 -3.71205155634922e-05 -2.03124702558615e-19 0.205945994783331 -0.016038830723672 -9.38789074728998e-18 -1.84551580693936e-21 -2.55619603757157e-22 -1.76043380852501e-41)
(0.00357545083646902 -3.808006598528e-05 2.03254761913406e-19 0.293485350093569 -0.0154962739034875 2.50960864505843e-20 0 0 0)
(0.00258180728169988 -3.93135975477609e-05 0 0.360417833661674 -0.0148714727354051 0 0 0 0)
(0.00147135190652148 -4.12593491553152e-05 8.53860667702966e-33 0.403952858053544 -0.0141309731672338 7.19763779777206e-18 0 0 0)
(0.000212915720265468 -4.31018869871227e-05 1.71098418355352e-32 0.421539347337472 -0.0132922354183515 -7.2113899238771e-18 0 0 0)
(-0.00119948302541348 -4.56514007000826e-05 0 0.409029538924647 -0.0122800929510302 0 0 0 0)
(-0.00284034891388377 -4.78447579804558e-05 0 0.363412396631649 -0.0111278146386971 7.43200230049144e-18 0 0 0)
(-0.00465715344677343 -5.18897462210161e-05 2.17175355803152e-14 0.277238173227512 -0.00970437554887519 3.29219277467157e-15 0 0 0)
(-0.0067385493437841 -5.28379315221671e-05 2.13084752071533e-14 0.148984437920352 -0.00823173901054359 -1.01718428157009e-13 -1.65627105222754e-16 9.6284061809657e-18 1.10532515289448e-28)
(-0.00883465353724387 -5.6559731796813e-05 -2.17175355803148e-14 -0.0327163286936066 -0.00640798553777526 -1.28846899123052e-13 3.21304487802123e-17 6.77505491195452e-18 1.48573217977183e-28)
(-0.0110903091105671 -4.92943406822576e-05 -2.13084752071534e-14 -0.260141653743197 -0.00495602691418418 -3.42027478300506e-15 0 0 0)
(-0.012756643762548 -4.95384380773234e-05 0 -0.55068178926818 -0.00307202251427954 0 0 0 0)
(-0.0141031196677935 -3.89417673216477e-05 0 -0.866927210450606 -0.0029601408076726 0 0 0 0)
(-0.0120035210263524 7.64591332022857e-06 0 -1.23380279446439 -0.00276100382031361 0 0 0 0)
(-0.0157144770332215 -0.00617297788211336 5.96209849818239e-17 -1.51158631698302 -0.00417262235486566 1.07968195001425e-17 0 0 0)
(0.265015093401423 0.0116909207320683 6.34837687311958e-17 -1.98821637187877 -0.265389857306233 -1.31521417533388e-15 5.93351112284631e-18 7.79251088943216e-19 3.86615639397185e-33)
(0.984776668782869 0.480754633328187 -1.2749093475444e-15 -1.85266397121805 -0.969202289575287 2.32698291247111e-15 -2.47434738926759e-17 -1.2866265062076e-17 3.11716925020025e-32)
(1.21728375441626 1.00817244779251 3.03837594655309e-15 -1.37207662885123 -1.1687220856401 -3.07043119254362e-15 0 0 0)
(0.983748785575895 1.09678078282036 -2.44147623475234e-15 -0.81110101275353 -0.920734729639561 1.87844134946962e-15 0 0 0)
(0.165985077365158 0.236293161747232 -1.0952794954834e-15 -0.069305863395288 -0.113247577118253 8.02137673590134e-16 0 0 0)
(-1.04954399824793 -1.46376018299393 -2.37434413665967e-15 0.766931068412185 1.06602110192311 1.70787711413477e-15 -1.17130888310438e-20 -1.72721975213275e-20 -1.72515530476567e-35)
(-2.5871772907631 -3.78093408122125 8.58486663822363e-16 1.74385947283785 2.54519666865888 -8.83309522859408e-16 1.26805103705395e-20 1.86987636609328e-20 1.86764140940292e-35)
(-4.21224795311614 -6.28275347020653 -9.97927586028148e-16 2.76384908455695 4.12137103017121 7.44425673546735e-16 2.98996417450519e-17 4.45879426870582e-17 7.88686208480664e-33)
(-5.98179682149802 -9.12249151495276 2.82220598610492e-16 3.82113985151117 5.82955011491504 3.30934124368204e-17 6.45132306274761e-20 9.38350557833659e-20 -2.83839896920223e-35)
(-8.21053909552112 -12.8945291682149 5.42309965625592e-16 5.07365769746086 7.97169067182692 -3.40578853332373e-16 -5.71621342325853e-17 -8.98012267251271e-17 3.80835726059346e-33)
(-11.5060855569752 -18.6242184967395 -9.0632705863721e-17 6.8693270050081 11.1059282836939 -6.62461686828896e-18 -3.89446894198932e-20 -5.82935332404313e-20 -8.78875695925872e-36)
(-17.6382876014886 -28.0904614150724 -1.53404738963553e-15 10.6300795977099 16.8554340979414 9.12063794632108e-16 0 0 0)
(-28.6793971402825 -41.306286686417 -1.20389985842074e-15 19.1410911654788 27.261498988848 7.52541430443663e-16 0 0 0)
(-52.7147615566598 -58.3897759383486 7.50102779575517e-16 45.5419046057373 49.507183566211 -6.66143301465725e-16 0 0 0)
(-48.2516872176624 -24.9035147113158 -4.53146218032362e-16 91.9865853981297 46.4237547040553 9.38808435206167e-16 -6.18839846651208e-16 -3.1229501399051e-16 -6.31585701227937e-33)
(-2.91356110252831 -0.72134674489281 3.32918139817702e-17 32.0388072391725 2.93633479604398 -1.34194351542998e-16 0 0 0)
(-0.638145195071399 -0.118554439502394 1.66147744337522e-17 10.7126365898205 -0.117928283442625 8.00185509590209e-20 1.64199101629167e-21 -4.95178785807196e-23 -8.78262222273154e-38)
(0.614006381335376 0.460115975934188 -1.0846635671602e-16 1.68752296592564 -0.230413954406379 -2.05911485514345e-16 1.3540876580918e-17 -8.20194249256995e-19 1.01160655707469e-34)
(-10.1005302305556 12.5158089803008 -1.29063153402204e-17 -8.46757506941681 10.4589324612434 -5.63783274599396e-20 1.20626677268007e-20 -1.52647991558481e-20 4.6319652856595e-41)
(-5.33311151386484 7.69672554557735 1.46061085890266e-21 -3.85862821602975 5.45305793285 -1.56589072181488e-21 -3.33262000720462e-20 4.65831535774781e-20 -4.93140522228472e-41)
(-1.77546633800663 2.75206348062459 5.52267449211371e-21 -1.19238832928026 1.82271566712482 1.06607499718838e-21 1.95949614841429e-20 -2.90109132833223e-20 8.16797470002593e-44)
(-1.36406771250377 2.28790616994522 1.68384717566068e-20 -0.820657789852782 1.37466925294431 -1.67287767560891e-21 0 0 0)
(-1.15846032595513 1.89421962939053 9.89564558037184e-17 -0.711642833712189 1.16804865941153 5.2715965580827e-17 2.47446956902258e-20 -3.98815753897249e-20 -2.01440058803386e-36)
(-1.14457626468871 1.82408038795617 2.65573762605655e-15 -0.718287888868414 1.14862393104638 -4.53263042666036e-16 1.59229863899654e-17 -2.53039641837055e-17 3.99613686333249e-36)
(-1.13358714303854 1.77314851265903 2.51902770809972e-14 -0.727754574528114 1.14180233865632 1.39045884345776e-14 1.91192529332146e-15 -2.96265415603384e-15 -2.05108414369975e-29)
(-1.09998809551737 1.67608157921226 2.14394541114219e-14 -0.724045226327037 1.10909294382558 1.60508092658793e-14 1.80767460918061e-15 -2.74084450686299e-15 -1.398195622458e-29)
(-0.933507508275501 1.32582537743171 -2.91098280462349e-15 -0.654139909765545 0.940787455709873 2.99099011356659e-16 -3.53389850210361e-20 4.8892354902643e-20 9.17610364474016e-36)
(-0.647191549413387 0.777986029616187 -7.87276559319602e-16 -0.52157014036915 0.645776680114678 -5.87367933914241e-16 1.93398884646415e-17 -2.44964978681036e-17 4.35458220038325e-33)
(-0.261175537537593 0.186140196886201 -2.83351751275554e-17 -0.29886366325989 0.247134508950943 4.51479328624664e-18 1.68455410136603e-21 -2.25245376629271e-21 -1.79297845569668e-38)
(0.109382497317964 -0.163231391774665 -3.42834630720119e-17 0.027451221580461 -0.126763296428224 6.45985267532681e-18 2.00868648497637e-20 -1.27609608049323e-20 -9.20938505665635e-36)
(0.28220253919293 -0.143969782015952 -1.24853105346575e-16 0.44347017095364 -0.297549687614019 -2.32385409051148e-16 1.35137162349466e-17 -7.48036440627656e-18 -2.9243171494223e-33)
(0.0740436710294209 0.020169164123525 1.41926978220304e-17 0.652083422246113 -0.0766690655736469 -1.3021876095346e-16 -1.99418631653833e-18 2.23729705266414e-19 3.79877467352618e-34)
(-0.0490690104679621 0.00901577574240187 -1.99040009683574e-19 0.271017824680538 0.0429059712547811 3.60887093470214e-20 1.28141676262905e-20 -2.35443226880665e-21 5.19784691824805e-38)
(-0.0627170544811752 0.00142584354600683 6.41632079033027e-20 -0.213376253563497 0.0604465740371649 2.02216044644621e-19 1.21949330223824e-20 7.09579615449374e-22 -1.69844687194105e-38)
(-0.0950543910347457 0.0019183660802963 2.36135999690583e-21 -0.914085793682015 0.0940607907175751 -1.8653578745275e-19 2.90064225827629e-20 -1.582906024933e-21 -3.88144997680837e-40)
(-0.118714103045538 0.00128964982008693 -1.26111777052256e-19 -1.80106609755954 0.116997313642892 1.74777429552938e-19 -2.90064225824898e-20 1.58290602491898e-21 3.88144997690388e-40)
(-0.128159719939689 0.000556390480007431 6.3399675575302e-20 -2.73826769455864 0.126329777666068 -3.61297070629395e-20 -9.34764927986923e-20 2.06499175736184e-21 -1.59888589985638e-38)
(-0.126775522937388 -8.49553828931638e-05 6.05816010977481e-20 -3.64007884323491 0.123580657448683 -1.39054853414245e-19 -3.31068995754655e-20 -2.21857442562336e-23 1.58206326993786e-38)
(-0.118200916078093 -0.000470280821310664 5.8219010921731e-20 -4.45227514703613 0.113636888703251 1.02498087566073e-19 -3.08676767215404e-20 -1.22811876964541e-22 1.52036521191422e-38)
(-0.106923858107328 -0.000634518388151507 -5.96654626268907e-20 -5.16248433015092 0.100823625350731 -6.2652019750406e-20 1.57451069095988e-19 -1.91999413613994e-21 -1.50354258200652e-38)
(-0.0952797980098436 -0.000659613665676907 6.30797758380657e-20 -5.77507403316344 0.0878067489645521 5.2054342551949e-20 -2.10255711363514e-19 1.58203694259529e-21 1.59270594886274e-38)
(-0.0844617292055493 -0.00062095712703081 1.51335110893445e-15 -6.30189039890507 0.0757405411885248 -2.12320699770036e-16 4.42568251377716e-19 -3.00191351880629e-21 -3.95237190488665e-34)
(-0.0747754626633384 -0.000560636405353848 1.53784421618677e-15 -6.75486842473093 0.0649833072508023 1.31584839933745e-14 3.93425304092965e-15 -2.1611864077909e-17 -2.50494524047765e-30)
(-0.0662099163024931 -0.000500022165546331 -1.51329085054785e-15 -7.1445309523671 0.0554956826029316 1.45295331827145e-14 4.09464245997351e-15 -1.97377972459115e-17 -1.67822361142075e-30)
(-0.0586063918578732 -0.000446493074252665 -1.53796546371233e-15 -7.47928743123731 0.0471185358536739 2.01311296552401e-16 0 0 0)
(-0.0517928053804072 -0.00040226152206048 1.4564761446532e-33 -7.76579026081848 0.0396637132633502 6.13869929063157e-19 -3.55161950983396e-31 1.37558724708278e-33 -2.56668785810562e-50)
(-0.0456050853663237 -0.000366958942106077 2.02243122734542e-15 -8.00920475533749 0.0329595684886554 -2.40658043581967e-16 0 0 0)
(-0.0399067782132682 -0.000339466171093001 2.10471750317711e-15 -8.21356956451543 0.0268599079631227 1.82712267246597e-14 5.36067745137028e-15 -1.72085918206047e-17 -3.06257996258721e-30)
(-0.0345885187915064 -0.000318235372685382 -2.02238428192743e-15 -8.38206410452079 0.0212487455201523 2.03409525184443e-14 5.37044464058017e-15 -1.59681985439937e-17 -2.1504354559496e-30)
(-0.0295690743250629 -0.000301717401403676 -2.10476421220565e-15 -8.51725154388117 0.0160390573987249 2.33908699701875e-16 1.68523064811202e-19 -2.87431612506675e-22 -3.0866045875375e-41)
(-0.0247927543047952 -0.000288272180026661 -4.6945418035509e-20 -8.62126665589579 0.0111695454476173 -4.65067491112298e-19 -1.68523064811211e-19 2.87431612506689e-22 3.08660458753765e-41)
(-0.0202262866630332 -0.000276530564441474 4.67090286934784e-20 -8.69596319606009 0.00660271500436967 9.21655871007578e-19 0 0 0)
(-0.0158478937189439 -0.000265972524154274 5.97974821836324e-20 -8.74299923974429 0.00231252489239213 -4.76790400616574e-19 7.98059013405112e-31 -1.01790044920642e-33 1.97058296235788e-50)
(-0.0116382012530659 -0.000256415985080892 -2.96927247493902e-15 -8.76386152334783 -0.00172629775745633 2.68348623916486e-16 1.77990271881815e-19 -1.45473879571687e-22 3.87698759402124e-34)
(-0.007581573699189 -0.0002478377937941 -3.10013052063594e-15 -8.75987554518067 -0.0055380223962471 -2.76612810353465e-14 -5.87316418623403e-15 1.04112513134209e-17 -3.81879516811022e-30)
(-0.0036687904607556 -0.000240108007050829 2.96920144290415e-15 -8.73224239507561 -0.00914291412630476 -3.0308356834307e-14 -5.77273365588756e-15 9.41738862888179e-18 -2.90540372921296e-30)
(9.79793375501693e-05 -0.000232533466222406 3.10006665552013e-15 -8.68206396321438 -0.0125336477233148 -2.5582668512492e-16 -1.79446471295495e-19 5.1398800296392e-23 -9.80598278498905e-39)
(0.00371711780694423 -0.000224647683399421 1.45957152026948e-19 -8.61069602988829 -0.015703461823175 6.01564168913287e-19 4.85354913524064e-22 -2.93329032365315e-23 1.90580510437482e-38)
(0.00718783660630945 -0.000216293866405484 4.06763354088709e-21 -8.51945318994474 -0.0186605833269229 3.02122737363337e-20 1.78961116381974e-19 -2.20658970598624e-23 -9.25206825875818e-39)
(0.0105012009230135 -0.000207365972943943 -7.49251168324092e-20 -8.40955497641523 -0.0214067469010704 5.24228186310234e-21 0 0 0)
(0.0136485100051132 -0.000197745875880159 4.59532554221848e-20 -8.28219888939737 -0.0239404872967201 7.44255514066749e-19 4.36750567667683e-31 -3.60665367571612e-34 -2.55196918802262e-62)
(0.0166205924358901 -0.000187369838680216 4.71294160439177e-15 -8.13858606593537 -0.0262577652369217 -2.72284674659304e-16 8.63495410864004e-20 4.1769142959824e-23 -3.07694265730818e-34)
(0.019409919234111 -0.000176476490307134 4.8940808596822e-15 -7.97991686439604 -0.0283572202644185 4.45412140599327e-14 5.88263843452888e-15 -2.9761055705945e-18 -5.84626901538761e-30)
(0.0220128744793476 -0.00016529031374162 -4.71299439189744e-15 -7.80737225660136 -0.0302414740511221 4.7568662154703e-14 5.71581600505183e-15 -2.08367440019229e-18 -5.01990972181746e-30)
(0.0244285941389896 -0.000154023815572714 -4.89407389961175e-15 -7.62210440342795 -0.0319151212756391 2.43080793689507e-16 -8.20503371967099e-20 -7.41375565800752e-23 8.21436798275998e-42)
(0.0266583270038521 -0.00014279578184593 5.27875054069102e-20 -7.42523043849602 -0.0333854214199327 -9.09130438370968e-19 8.2050337196705e-20 7.41375565800707e-23 -8.21436798275949e-42)
(0.0287038956192541 -0.000131629895436891 -5.29133258020512e-20 -7.21783211215121 -0.0346590287087806 -1.00510086968603e-18 0 0 0)
(0.0305673161852896 -0.000120552898839218 5.88983049549134e-15 -7.00095879828736 -0.0357431880808458 -1.92917952757998e-16 0 0 0)
(0.0322507791343669 -0.000109560985896349 6.09741727853244e-15 -6.77562787657176 -0.0366445217006231 5.55018286926247e-14 4.98784997167852e-15 2.19111751256369e-18 -7.03957760940008e-30)
(0.0337567612617321 -9.86976844381307e-05 -5.88986419306627e-15 -6.54282643208698 -0.0373698757010362 5.82089439872171e-14 4.81394589630119e-15 2.87343547639647e-18 -6.68061373155242e-30)
(0.0350884972377304 -8.80059199503261e-05 -6.09738342651642e-15 -6.30350902835123 -0.037926470128007 1.50851064803826e-16 -3.49200498480514e-20 -5.96331873753008e-23 5.04147358693207e-42)
(0.0362501093280848 -7.75670126516566e-05 3.36975745008417e-20 -6.0585961148028 -0.0383218975770581 1.30929506414185e-20 3.49200498480527e-20 5.96331873753031e-23 -5.04147358693227e-42)
(0.0372467840793761 -6.74439119841504e-05 -3.38520161328988e-20 -5.80897068553655 -0.0385647991481027 -1.50015384922651e-19 0 0 0)