/*--------------------------------*- C++ -*----------------------------------*\
  =========                 |
  \\      /  F ield         | OpenFOAM: The Open Source CFD Toolbox
   \\    /   O peration     | Website:  https://openfoam.org
    \\  /    A nd           | Version:  7
     \\/     M anipulation  |
\*---------------------------------------------------------------------------*/
FoamFile
{
    version     2.0;
    format      ascii;
    class       volScalarField;
    location    "20000";
    object      k;
}
// * * * * * * * * * * * * * * * * * * * * * * * * * * * * * * * * * * * * * //

dimensions      [0 2 -2 0 0 0 0];

internalField   nonuniform List<scalar> 
15600
(
6.08533880818729e-06
1.33610935010647e-06
1.51175947518406e-07
3.32228067982738e-07
6.13080057738141e-08
3.79651164052956e-09
1.15553786230139e-08
1.83791700059428e-08
2.84057084874916e-08
4.42527253016694e-08
6.77715092313705e-08
1.00301829214673e-07
1.34481002430333e-07
1.46963956865309e-07
1.04919425113182e-07
4.81827603243876e-08
5.54755958383441e-08
1.06482259616809e-07
1.82625392151681e-07
2.98946765343558e-07
4.60042461649782e-07
6.64587070049346e-07
9.06430401447063e-07
1.17802797874165e-06
1.47254353776107e-06
1.78484112955491e-06
2.11113707992684e-06
2.44871678061337e-06
2.79544727606382e-06
3.14958119077252e-06
3.50955052494088e-06
3.87387763465224e-06
4.24109265987941e-06
4.60970914491197e-06
4.97822793133083e-06
5.34517619572332e-06
5.70920308651716e-06
6.06916215980717e-06
6.42412260340356e-06
6.77386275107842e-06
7.1186339209541e-06
7.45796451192019e-06
7.78804390940936e-06
8.10386312526247e-06
8.4030089138923e-06
8.68422662926586e-06
8.94651778060915e-06
9.18913853213762e-06
9.41155158675335e-06
9.61341558196756e-06
9.79451658749918e-06
9.95478603889933e-06
1.00942736025986e-05
1.02131633436397e-05
1.03117687165153e-05
1.03905251464647e-05
1.0449987400057e-05
1.04907908941832e-05
1.05136487375109e-05
1.05192625880354e-05
1.05083455559328e-05
1.04815569758692e-05
1.04396181908385e-05
1.03834077560259e-05
1.03138977269535e-05
1.02321452950855e-05
1.01391890918127e-05
1.00360258405897e-05
9.92352454986242e-06
9.80240571249835e-06
9.67316798850195e-06
9.53611438068179e-06
9.39167165253919e-06
9.24034083380283e-06
9.08276388384307e-06
8.91958799578217e-06
8.75117067978954e-06
8.57795752058148e-06
8.39996029537748e-06
8.21700217445806e-06
8.02957711412941e-06
7.83735248246233e-06
7.64078067477344e-06
7.43840638010187e-06
7.23127041585634e-06
7.01810924745498e-06
6.79813015693384e-06
6.57070717492942e-06
6.33491829352329e-06
6.08953404337848e-06
5.83298414090293e-06
5.56364900003593e-06
5.27921363901099e-06
4.97812117468654e-06
4.67781091703816e-06
4.36621772719353e-06
4.03429297316068e-06
3.68074402169795e-06
3.30269108096785e-06
2.90493330779647e-06
2.48938468155482e-06
2.0748598050692e-06
1.66267544700366e-06
1.26512296215293e-06
1.24220748780162e-06
1.91864923326492e-06
2.55043468674791e-06
3.20677392888742e-06
3.66452905978623e-06
3.85007594958004e-06
3.83513826123464e-06
3.57281147891414e-06
3.30379976576917e-06
3.07070488558028e-06
3.17516590917022e-06
3.97709169099546e-06
7.78706712713988e-06
2.50857974082947e-05
1.82348148750746e-05
7.34065492158286e-06
0.000191277897589058
4.45905515428094e-05
5.28849423082008e-06
1.08361394941507e-05
2.24408341379226e-06
1.70920232560791e-07
3.68670752943341e-07
5.8854761267647e-07
9.08386251807644e-07
1.41464712264461e-06
2.16764824613253e-06
3.2164857878889e-06
4.33964860990886e-06
4.79849034299659e-06
3.47017802980692e-06
1.5797692782835e-06
1.81543149429631e-06
3.47837532636167e-06
5.95660880113457e-06
9.73682836303958e-06
1.49632601742557e-05
2.15895136379311e-05
2.94146980108974e-05
3.81942380520361e-05
4.77072345774983e-05
5.77880143415124e-05
6.8314574464957e-05
7.91994126245666e-05
9.03737724913393e-05
0.000101781370177162
0.000113371748538546
0.000125097430517537
0.000136911262888743
0.000148765640346782
0.000160612630403301
0.000172405221581907
0.00018410038928633
0.000195661727074896
0.000207059749671257
0.000218287819869108
0.00022935449890803
0.000240244930788518
0.000250761194357478
0.000260777480211839
0.000270255461535472
0.000279157177910507
0.000287452756581711
0.000295120233834149
0.000302144071497677
0.000308514684507784
0.0003142264485866
0.000319278162157675
0.000323672276699016
0.000327415352030995
0.000330517896495791
0.000332994139563217
0.000334861898815694
0.000336141443380645
0.000336855275279528
0.0003370255422156
0.000336674591396584
0.000335823207944336
0.000334494169391648
0.000332715029670959
0.000330516239605015
0.000327930773576168
0.000324991030503603
0.000321728026509519
0.000318168824367681
0.000314335837778761
0.000310244566114181
0.000305904542537216
0.00030132911498133
0.000296533934947373
0.000291538994618214
0.000286364548452641
0.000281021569207912
0.000275524181877781
0.000269872755287303
0.000264061427681797
0.000258105927035521
0.000251995376189868
0.000245744330450923
0.000239305922721207
0.000232713597215529
0.000225927073955203
0.000218920935826491
0.000211675034504322
0.000204160045435399
0.00019633637099891
0.000188153982294812
0.000179560257960142
0.000170481338264934
0.000160860911747176
0.000151201941870541
0.000141169539758175
0.0001304813540571
0.000119094097048198
0.000106912800919628
9.40904518767097e-05
8.06842944829732e-05
6.73014152128314e-05
5.39849691059444e-05
4.11516453855952e-05
4.06347423633885e-05
6.33078772320784e-05
8.39684274311275e-05
0.000104917069302689
0.000119244426948509
0.000124926665617754
0.000124252166307846
0.000115902980004299
0.000107419694750657
0.00010030345315852
0.000104455735069641
0.000132519060185573
0.00026020469352094
0.000769704537358998
0.000574134520122247
0.000233161863516503
0.00136536490156817
0.000335007789574814
4.12366909869849e-05
7.81576019134878e-05
1.82156807248097e-05
1.64900306604862e-06
2.67988709334812e-06
4.27463893813019e-06
6.58331872044638e-06
1.02435729090791e-05
1.56815107095934e-05
2.3246564492381e-05
3.139045677678e-05
3.497540037567e-05
2.57355406739296e-05
1.16984212295427e-05
1.34829577111324e-05
2.57659767422365e-05
4.39315969293465e-05
7.15314959817902e-05
0.000109437934224126
0.00015713993899922
0.000213034176293548
0.000275248017850793
0.000342132000034069
0.000412466349746707
0.000485365274187007
0.000560201458683912
0.000636490217704877
0.000713843032967062
0.000791919930309893
0.000870409202131324
0.000949008752007379
0.00102742049795644
0.00110535055090038
0.00118251661853136
0.00125866684007144
0.00133359575757596
0.00140713825635999
0.00147928182639206
0.00155012407215308
0.00161818508968651
0.00168296689948579
0.00174441042307379
0.00180231584650431
0.00185651452040429
0.00190688334825992
0.00195334120604669
0.00199584008032976
0.00203436079030332
0.00206890297531579
0.00209948687945165
0.00212614978777989
0.0021489482913497
0.00216795749627842
0.00218327000151654
0.00219499492919275
0.00220325248747331
0.00220817189719804
0.00220987903410995
0.00220849836135282
0.00220414591474603
0.00219694879153263
0.00218705917803702
0.00217464519484408
0.00215988794818455
0.00214296562744607
0.00212404825879596
0.00210328431719033
0.00208079634897963
0.00205666791428602
0.00203094972606815
0.00200371414274286
0.00197504628001192
0.0019450561855947
0.00191385802484298
0.00188150779145809
0.00184808856692188
0.00181359876224875
0.00177799347491651
0.00174136713864002
0.00170364186242263
0.0016649062324235
0.00162485197547474
0.00158369012565829
0.001541157023126
0.00149710515046196
0.00145136750028786
0.00140372861995054
0.00135393412962949
0.00130164490231393
0.00124648329535555
0.0011879397589429
0.00112554042780242
0.0010611960981169
0.000993878375935478
0.000921783221155475
0.000844495682469916
0.00076127574363367
0.00067312506501782
0.000580113628183603
0.000486323107350456
0.000392199279239107
0.000300313293963292
0.000297424764824248
0.00046224318241876
0.000607178240253669
0.000750110578578772
0.000847564879063485
0.00088826416497062
0.000886363254810801
0.000833798924547847
0.000778302385843437
0.000732081656058473
0.000765191617435522
0.00096843286788526
0.0018262626796407
0.00462055593299581
0.00382118181230697
0.0016117022843483
0.00454067894810103
0.0012668909203808
0.000163820545550233
0.000283515819672515
7.48351621797039e-05
7.92422102045087e-06
1.0089935373592e-05
1.60018330072829e-05
2.45609967893797e-05
3.8120936109745e-05
5.8104219169373e-05
8.55072312908085e-05
0.000114532773348567
0.000127490323835138
9.58854233663926e-05
4.42047298933967e-05
5.1999577661357e-05
9.83675058134377e-05
0.000165685066649753
0.000265652667667613
0.00039883610244896
0.000560821912185236
0.000744119394732469
0.000941332521711445
0.00114668634145579
0.00135633629570346
0.00156778211712948
0.00177946317280177
0.00199031765913643
0.00219960358312838
0.00240673742242551
0.00261122707506602
0.00281261462847397
0.00301045877966789
0.00320433158984022
0.00339383284751312
0.00357862864611487
0.00375848977599435
0.00393322317377508
0.00410301406225112
0.0042643845744206
0.00441747485602442
0.00456255884926285
0.00469941962430904
0.00482783830079434
0.00494764990649307
0.00505876442153018
0.00516115700758277
0.00525485140083634
0.00533991046831561
0.00541642002765442
0.00548449210069649
0.00554426026700525
0.00559588437148074
0.00563954991164208
0.0056754671113688
0.0057038693369417
0.00572500480004643
0.00573913191029873
0.00574649963176121
0.00574734938931125
0.00574190604949811
0.00573041341865406
0.00571315891251752
0.00569045925963567
0.00566265358608857
0.00563007593148881
0.00559304393933855
0.00555183545750886
0.00550667979209163
0.00545773109145003
0.00540507888600602
0.00534885382229518
0.00528920785196978
0.00522634165305058
0.00516047272704608
0.0050916858283836
0.00502014977018408
0.00494584706987562
0.00486864598127444
0.00478874048064798
0.0047059197156506
0.00462036760547214
0.00453164184079893
0.00443959595408118
0.00434388809871851
0.00424413806769687
0.00413989535706387
0.00403058810952312
0.00391552040738586
0.00379378174395219
0.00366428746671668
0.00352560991338937
0.00337615472929957
0.00321596615936328
0.00304561302064028
0.00286028687203955
0.00265772129502483
0.00243478977775348
0.00219197420211551
0.00192813872989783
0.0016533043807952
0.00136522922815986
0.00106683479690639
0.00104891207427684
0.00156911121716547
0.0020263698586594
0.00247668944170258
0.00279883429699889
0.00296430193356189
0.00300038446796597
0.00288337433111692
0.00274118133232918
0.00261881487883821
0.00274807441274971
0.00341601325611352
0.00591645429087509
0.0120637886755641
0.0113765935738958
0.00506488708768487
0.00889823124576007
0.00313981051453789
0.000455869238422537
0.000707859615723066
0.000213300325280498
2.62520157022136e-05
2.70718743000803e-05
4.24413427273424e-05
6.47849098234349e-05
9.99692158998537e-05
0.000150864633549846
0.000218371645438861
0.000286585299250162
0.000314728150311325
0.000243134781654397
0.000117324093501778
0.000143081613659388
0.000262098442170272
0.000427809592520729
0.000659004205249753
0.00094733061757179
0.0012766423199746
0.00162919536340997
0.00199127238581554
0.00235415027015179
0.00271320222537334
0.00306608024696326
0.00341178096789914
0.00374984796165905
0.00408011409003402
0.00440247910149839
0.00471684713436435
0.0050230712680593
0.00532095427641744
0.00561026157731063
0.00589075256387628
0.00616223419071797
0.0064246554129494
0.00667786309179158
0.00691822294141947
0.00714613960102352
0.00736206955646253
0.00756598831151165
0.00775771852748337
0.00793711639289353
0.00810410023899995
0.00825867246689154
0.0084009070637784
0.00853093000846203
0.00864890642102989
0.00875502313173812
0.00884949172910066
0.00893254456495189
0.00900444026018701
0.00906546340620317
0.00911592386394302
0.0091561546399318
0.00918650327029553
0.00920732525026779
0.00921896332529702
0.0092217476159504
0.00921598782408799
0.00920201363700544
0.00918020326703949
0.00915096922969711
0.00911474804282954
0.00907196906418464
0.00902303899881556
0.00896831567070807
0.00890809784311851
0.00884259093333364
0.00877191672360284
0.00869624645141864
0.00861577109389808
0.00853074085192702
0.00844143810293598
0.00834795256136063
0.0082505226070089
0.00814912941473491
0.00804357134506361
0.00793438288930323
0.00782102767656263
0.00770348708898647
0.0075814371918985
0.00745458401173174
0.00732250112314277
0.00718466618408847
0.00704044800104375
0.00688905029427729
0.00672948619906119
0.00656047721988713
0.00638044767982622
0.00618734612591196
0.00597868580869786
0.0057513900952744
0.00550737025793911
0.00523994624979865
0.00494432499823185
0.00461437672133255
0.00424697291050356
0.00383725496402964
0.00339308500312383
0.00291285165109561
0.00237228981593512
0.0023062952936108
0.00321058576824334
0.00406560457704604
0.00492315008714324
0.00559214667713468
0.0060228530693039
0.00623275402283394
0.0061834218863664
0.0060637669373711
0.00595973889565055
0.00631940510616861
0.00765879919662112
0.0119403572511463
0.0199540979605487
0.020843465044458
0.0100041011869582
0.0130567724108903
0.00578608208400133
0.00102463691869431
0.00138440386273408
0.000481162583738375
6.89668489889815e-05
5.93710638391218e-05
9.13555227399772e-05
0.000138149397235997
0.000210687985592
0.000311966491219559
0.000438256647965528
0.000554848331663897
0.000592885126897218
0.000472439460527962
0.000250706956079002
0.000314043121199156
0.000542529914931978
0.000838863055953803
0.00122174780964634
0.00166925630230659
0.00215507536413712
0.00265547582881933
0.00315474690780132
0.00364424737352298
0.00412043428496906
0.00458214713202908
0.00502948348978432
0.00546287313854477
0.0058828606234306
0.00628989849285516
0.00668432503559388
0.00706633417989562
0.00743600220325214
0.00779331875083667
0.00813823028965273
0.00847068822228929
0.00879085491271133
0.00909581164693976
0.00938487964555969
0.00965892559075495
0.00991809245064376
0.0101623155952211
0.0103914791878047
0.0106055105696472
0.0108044021900989
0.0109882324778589
0.0111571535645457
0.0113113708237456
0.0114511278186521
0.0115766890101071
0.0116883418052292
0.0117863934929687
0.0118711767664234
0.0119430497077641
0.0120023952659534
0.0120496187531554
0.0120851397521424
0.0121093843794449
0.0121227654056163
0.0121256803367655
0.0121185047806106
0.0121016328820931
0.0120755075432015
0.0120406080959764
0.0119974374563907
0.0119464901145285
0.0118882337213118
0.0118230825816475
0.0117513877163177
0.0116733976539578
0.011589263988641
0.0114991920256618
0.0114034011650778
0.0113021748463188
0.011195844677866
0.0110844994353523
0.0109684407011476
0.0108477049062893
0.0107224024249923
0.0105924688395373
0.0104575928251455
0.0103176864887235
0.0101724615869221
0.0100215715977667
0.00986454864794795
0.00970080909123215
0.00952964132172918
0.00935015222382425
0.00916122599627698
0.00896142850263751
0.00874896509347048
0.00852152166108251
0.00827619393409376
0.0080084541053269
0.00772020186408662
0.00740443398478428
0.00705478194974377
0.00666342132533386
0.00622410038882507
0.00572917537944465
0.00518107661376536
0.00457692003137999
0.00387626227084255
0.00374126422798926
0.00487511130282553
0.00606562639709607
0.00726940124991988
0.00827992765919639
0.00901786917155852
0.00948902447311087
0.00965933122812337
0.00974019008869834
0.00985026705407225
0.0105863411989009
0.0125780775931155
0.0180031720255344
0.0264241273945173
0.0287756985713038
0.0153611411649466
0.016878108598598
0.00876493317968351
0.00201501443801835
0.00225801831226213
0.000912373860297928
0.000153750872647114
0.000113787342745887
0.000170345925830297
0.000253632482585474
0.000378856988570123
0.000543727729818675
0.000730816954451843
0.00088273269786218
0.000914478474130218
0.000749430207521078
0.00045820300867166
0.000572472930422981
0.000920318560035679
0.00134449976587699
0.00186427006411071
0.00244806427245699
0.0030630055933381
0.00368155054389291
0.00428787716492839
0.00487468617168433
0.00544018295589838
0.00598461975938388
0.00650917540729802
0.00701505456743242
0.00750336815091221
0.00797498390171164
0.008430552952237
0.00887051084061409
0.00929512640762873
0.00970454740769815
0.0100988518517259
0.0104780551667217
0.0108412890785041
0.0111858479451163
0.011512756827426
0.0118224427106483
0.012114951420371
0.0123902263187652
0.0126481987393669
0.0128888476123913
0.0131122189965233
0.0133184459139086
0.0135077375172583
0.0136803582774493
0.0138366111501965
0.0139768203084655
0.0141013319279276
0.0142105117945117
0.0143047505994149
0.0143844640835911
0.0144500926436369
0.0145020985453366
0.0145409585528698
0.014567155536914
0.0145811596840404
0.0145834247241037
0.0145743816071551
0.0145544773914067
0.0145242067607385
0.0144841020467277
0.0144347185211854
0.0143766022675103
0.0143102695934596
0.0142361808501459
0.0141547317126364
0.014066209907808
0.0139707944004582
0.0138687213739522
0.0137602336619058
0.013645640952059
0.0135253178985081
0.0133993484450424
0.0132681959267621
0.0131320658299506
0.0129907183620282
0.0128440842996762
0.0126919520059038
0.0125342093521877
0.0123705840935108
0.0122007100496599
0.0120240996429885
0.0118401415020608
0.0116480864333345
0.0114469978522421
0.0112357009418294
0.0110126946826395
0.0107760854288711
0.0105234495801198
0.0102516942940367
0.00995580461029406
0.00963710725847463
0.00928893753593689
0.00890403332406196
0.00847369546877937
0.00798956696551407
0.00744227424638999
0.00682937801185899
0.00614668658671083
0.00534622387272082
0.00514641685732234
0.00638682110829677
0.00781799363395591
0.00928431801119613
0.0105661673139472
0.011565878697158
0.0122838493282468
0.0127027939032236
0.0130405405790374
0.0134480195533853
0.014594094994928
0.0171307386289415
0.023171003922414
0.0315118625368729
0.0344913702101404
0.0206295603221428
0.0206507300732171
0.0117799412535831
0.00353938360232896
0.00321026864383986
0.00149995702184267
0.000301281272976326
0.000197419442235037
0.000284621142746353
0.000413915013568387
0.000599239138942276
0.000824458466505852
0.00105323665939948
0.0012161779553128
0.00123125826289807
0.00103617656170636
0.000729157582944092
0.000897472915464074
0.00135192162188527
0.0018896235645189
0.00252933715422821
0.00322922672781824
0.00395021412948086
0.00466293669817055
0.00535358485218336
0.00601711697939381
0.00665355977449418
0.00726432934707493
0.00785136056445975
0.00841634820259075
0.00896073553344307
0.00948562679995159
0.00999184941972694
0.0104799778189693
0.010950394415298
0.0114033434204766
0.0118389914088909
0.0122574815717278
0.0126557873254817
0.0130340765836192
0.0133929760173212
0.0137327232325313
0.014053334276861
0.0143547704898737
0.0146370005395049
0.0149000435442272
0.015143987295445
0.0153690075033731
0.015575358947393
0.0157633544807734
0.015933346575463
0.0160857097539572
0.0162208400838167
0.0163391531808929
0.0164410892726287
0.0165271133928185
0.01659771512916
0.0166534056147169
0.0166947109651292
0.0167221635740071
0.016736284353146
0.0167375773481924
0.0167265229305575
0.0167036145941804
0.0166693917646312
0.016624432283293
0.0165693363475635
0.0165046944497594
0.016431065115569
0.0163489491431206
0.0162587828874722
0.0161608911865355
0.0160554783219783
0.0159428097439623
0.0158231487728354
0.0156968274373777
0.0155642607300011
0.0154255854535387
0.0152815813065681
0.0151320391313631
0.0149767845676492
0.014815752291426
0.0146487853302929
0.0144757648251815
0.0142964301175441
0.0141104093948698
0.0139172073560737
0.0137162013720829
0.013506625929844
0.013287526803684
0.0130577044766205
0.0128156329763047
0.0125593780511735
0.0122864775480216
0.0119937651984804
0.0116761735991229
0.0113342395487842
0.0109619410689188
0.0105514900700746
0.0100937083906429
0.00957883011347306
0.00899630449491676
0.00833981705793823
0.00760375899369722
0.00673747826817484
0.00648479713578324
0.00775696765392597
0.00936118503185438
0.0110248486907634
0.0125132530485891
0.013719232001198
0.0146424169856739
0.0152844240508899
0.0158628941728488
0.0165598654385999
0.0180736919261195
0.0210579492795966
0.0274422619744211
0.0356196990902955
0.0387267642020196
0.0255895920489454
0.024585401516657
0.014793348918565
0.00551334525793392
0.00415568211560693
0.00218782385889046
0.000529062982874028
0.000316138670890102
0.000434331262133523
0.000612058270171403
0.000852018465772393
0.00111950230157731
0.00136572933396863
0.00152460900414426
0.00152484859451522
0.00131839690680831
0.00103605362160971
0.00125943752264976
0.00180635421288938
0.00244808097713307
0.00319538841715482
0.00399422731852331
0.00480218819658952
0.00559121177433764
0.0063507303167542
0.00707788555700921
0.00777405370759669
0.00844137648235178
0.00908219903095906
0.00969846313713706
0.01029177021472
0.0108633392158604
0.0114140864936714
0.0119446623461243
0.0124555155480819
0.0129469497276123
0.0134191842316835
0.0138716123339824
0.0143015072832143
0.0147099219945824
0.0150972830963775
0.0154637423337874
0.0158093108392804
0.0161339705878817
0.0164377221986553
0.0167206187964219
0.0169827832898038
0.0172244274869113
0.0174458455242437
0.0176473928141757
0.0178294660093302
0.0179924848412359
0.0181368903711948
0.0182631431577656
0.0183717281763459
0.0184631549598067
0.0185379575380214
0.0185966912251821
0.018639926940656
0.0186682424141819
0.0186822053647297
0.0186823667170408
0.0186692526614989
0.0186433991659407
0.0186053861281554
0.0185558323524868
0.0184953785076253
0.0184246551623177
0.0183442592028853
0.018254728420614
0.0181565375581985
0.0180500474696755
0.0179354860155175
0.0178131473070625
0.0176833131825528
0.0175463354444911
0.0174026670199238
0.0172528051433858
0.0170971527242258
0.0169355123817102
0.016767755784449
0.0165938261936522
0.0164136023037088
0.0162269670629792
0.0160336713127573
0.0158333453253816
0.015625493957324
0.0154094934289396
0.0151845749849655
0.0149497823494373
0.014703912036017
0.0144454377604642
0.0141724193267349
0.0138823966308342
0.0135721981685086
0.0132369318201809
0.0128762117161596
0.0124848677639694
0.0120547876970626
0.0115765332134759
0.0110393992395357
0.0104319869555967
0.00974498616566618
0.00897132008806952
0.00806033459825543
0.00776168969701564
0.00902987521296762
0.0107589347161479
0.0125723042579513
0.0142191284473533
0.0155873950380401
0.0166787965952014
0.0175121333333164
0.0183017276591789
0.019257599454463
0.0210858412570365
0.0244458368188412
0.0310332615545831
0.0390495200668602
0.0420419013206666
0.0300866933750139
0.028708200912289
0.0178188157616801
0.0077997653494303
0.00509193518208575
0.00290345722905246
0.000843162155923667
0.000472689114919695
0.000613408337107573
0.000833329004702615
0.00111299585217079
0.00140236522380145
0.00165099613374039
0.00180290944442862
0.00179609395648409
0.00159470927792985
0.00135828421330052
0.00163846718427151
0.00227072811435493
0.00301092218513872
0.00385420017002366
0.00473661909866464
0.00561674204840697
0.00646971223421551
0.00728811459994752
0.00807070859491028
0.00881968334079933
0.00953754580338144
0.0102268065608095
0.0108894968101948
0.0115272694472323
0.012141386258318
0.0127328023807056
0.0133022082833297
0.013850092451699
0.0143767972497321
0.0148826532160166
0.0153657413746414
0.0158248605000174
0.0162610199710931
0.0166745363678389
0.0170655220120762
0.0174339939888633
0.0177799557276304
0.0181034366801939
0.0184045203698765
0.0186833608662718
0.0189402021360395
0.0191753739503524
0.0193892709071454
0.019582330776164
0.0197550155030015
0.0199078082811259
0.0200412116858375
0.0201557525803331
0.0202519820884368
0.0203304757991247
0.0203918303228613
0.0204366585842579
0.0204655810736601
0.0204792098982062
0.0204781407788095
0.0204629434535879
0.0204341938443846
0.0203925095963634
0.020338547563756
0.0202729860502604
0.0201964929168498
0.0201097009374692
0.0200131825799596
0.0199074496262418
0.0197928984978148
0.0196697790411481
0.0195384141739927
0.0193991028037816
0.0192522139403078
0.019098458940737
0.0189382614162526
0.0187718168990771
0.0185990063615665
0.018419736947143
0.018233963073516
0.0180415903382607
0.0178425085614468
0.0176364813316496
0.0174231461053288
0.0172020136788756
0.0169724662856479
0.0167337411553961
0.0164848908518633
0.0162247222788029
0.015951725643663
0.0156639783139977
0.015359049196631
0.0150338056155224
0.0146836846830258
0.0143072361000819
0.0139003476765429
0.0134546845821787
0.0129606889078322
0.0124070485573405
0.0117817488542956
0.011073202743022
0.0102729320859961
0.00933184964269001
0.00899300332005998
0.0102389131972224
0.0120578027261842
0.0139858967090056
0.0157558931000963
0.017253844221189
0.0184852891114747
0.0194836030833073
0.0204583965713511
0.0216440508629801
0.0237430029020981
0.0274255312052461
0.034128884649136
0.0419901941757011
0.0447589078127975
0.0340774343508298
0.0328649837196826
0.0208313915954693
0.0102715837764259
0.00606813852114245
0.00360024150165717
0.00123390677350433
0.000665721045875242
0.000811638522769481
0.0010617761267213
0.0013648111244423
0.0016621935501755
0.00190796987230635
0.00205603623786601
0.00205069268561071
0.00186704232131396
0.00168575626109359
0.00202585502513709
0.00274151495368452
0.00357434627251318
0.00450162652512867
0.00545480647663507
0.00639634225891912
0.00730499394524993
0.00817582357366415
0.00900862674370705
0.0098059865725955
0.0105705285213618
0.0113047708778658
0.0120107363566994
0.0126900647763245
0.0133440176762226
0.0139735592677539
0.014579398992943
0.0151620490506941
0.0157218699910154
0.0162591339796244
0.0167710089557138
0.0172577106602255
0.0177199841977327
0.018158083858882
0.018572105857154
0.0189620786686428
0.0193280274467733
0.0196700085643128
0.0199881337299098
0.0202825857099755
0.0205536381731623
0.0208016542394343
0.0210270657267207
0.0212303497721317
0.0214120087999582
0.0215725664832329
0.0217125656633686
0.0218325734043794
0.0219331806630756
0.0220150028532143
0.0220786760970433
0.0221248536010717
0.0221541970246239
0.0221673613746787
0.0221649859407597
0.0221476826048783
0.0221160656590728
0.0220707887532816
0.0220125449152578
0.0219420482569622
0.0218600021086928
0.0217670735093526
0.0216638679568031
0.0215509335276882
0.0214287022505602
0.0212974443506918
0.021157512348168
0.021009220680348
0.0208530765685725
0.0206899259448671
0.0205199503410777
0.0203433419410213
0.020160039621079
0.0199699804473587
0.0197731317352077
0.0195694218008624
0.01935875083885
0.0191408968332515
0.0189155082150665
0.0186821062556001
0.0184400847386243
0.0181886939587973
0.0179270036358215
0.0176538418788601
0.0173677279448019
0.0170667740597391
0.016748597761843
0.0164101341991088
0.0160471892753841
0.015657341920434
0.0152375011793027
0.0147792282295717
0.0142729478030724
0.0137069843149198
0.0130688888538096
0.0123453767350737
0.0115267263836847
0.0105663639798882
0.0101928160713195
0.0114067600294375
0.0132891861035706
0.0153053308118178
0.0171718981248057
0.018775179907242
0.0201256767742848
0.0212686809607116
0.0224085515502355
0.0238005336171753
0.0261371950044785
0.0300999805448628
0.0368548235302214
0.0445639761745943
0.0472472427265779
0.037622520810778
0.0368015717164557
0.0237868098291486
0.0128140853816002
0.0071471321773473
0.00426845370593899
0.00168075252848164
0.000890885056855281
0.00101880442453508
0.0012858688004652
0.00159974607379797
0.00189843862964815
0.00214139610392593
0.00229031187301589
0.00229388909240449
0.00213733465646899
0.00201517928768995
0.00241945983363656
0.00321776059821533
0.00413552884695515
0.00513553493279502
0.00614953469165459
0.00714492206943445
0.00810372495600249
0.00902272945047884
0.00990231053334387
0.0107451492776334
0.0115538253457741
0.0123307623281339
0.0130779112363655
0.0137968576116155
0.0144888350339673
0.0151547977524897
0.0157954604649962
0.0164113492565241
0.0170028326378329
0.017569803987136
0.0181094200538399
0.0186225635808776
0.0191098240969729
0.0195714217447875
0.0200074494557481
0.0204179501533885
0.0208029708364855
0.0211625936217765
0.0214969570557682
0.0218062710940652
0.0220908375981498
0.0223510516762265
0.0225873813301289
0.0228003421865412
0.022990476255434
0.0231583468548407
0.0233045361360089
0.0234296504844272
0.0235343197193577
0.0236191981402118
0.0236849603462369
0.0237322988400695
0.023761915526742
0.0237745074641704
0.0237707568827228
0.0237513170231767
0.0237168396309173
0.0236680133048455
0.0236055660937703
0.0235302467851813
0.0234427930102661
0.023343905023969
0.0232342201195857
0.0231143223469768
0.0229846798019791
0.0228455813157148
0.0226974103544245
0.0225405297634053
0.0223757250365083
0.0222035549982446
0.0220242186412485
0.0218379133931231
0.0216446240120925
0.0214443142582792
0.021236965724562
0.0210225275292878
0.0208009129574465
0.0205719161253559
0.0203351994771498
0.0200902984806167
0.0198366229969413
0.0195734421246997
0.0192998494676066
0.0190147029437234
0.0187165608112792
0.018403583562353
0.0180734525063375
0.0177231904195285
0.017348882435707
0.0169475551121216
0.0165167756244283
0.0160481837323064
0.0155322678745456
0.014957171912263
0.0143101625470958
0.0135767237884194
0.0127461033042912
0.0117747947856984
0.0113718987560452
0.0125488268583448
0.014474407106155
0.0165574141901523
0.0184997139703124
0.0201897022953005
0.0216434443498401
0.0229156245205145
0.0242051726835652
0.0257849662375382
0.0283340283052116
0.0325404739084168
0.0392953554447592
0.0469273566108005
0.0497489428831609
0.0408167774793867
0.0402940669650736
0.0266629194582745
0.0153400178152411
0.00839206938875568
0.00492338339178628
0.00216252150318225
0.00114327820680768
0.00122785318310123
0.00149985108404822
0.00181666084064146
0.00211457052311625
0.00235670889700229
0.00251097661631744
0.0025296142151349
0.00240726788718177
0.00234674753907779
0.00281963085613633
0.0036983145337989
0.00469209514530399
0.00575515607661038
0.00682256633906789
0.00786652360185328
0.00887173880507635
0.00983607511925269
0.0107601538810714
0.0116465480714535
0.0124976787718705
0.0133158051171376
0.0141027625831817
0.0148600539784927
0.0155888653879719
0.0162901276568321
0.016964550892099
0.0176126690308204
0.0182348798140041
0.0188304338614605
0.0193970648104668
0.0199358753249097
0.0204473576721498
0.0209317146845571
0.021389043634732
0.0218194038104594
0.0222228641851463
0.0225995319520178