/*--------------------------------*- C++ -*----------------------------------*\
  =========                 |
  \\      /  F ield         | OpenFOAM: The Open Source CFD Toolbox
   \\    /   O peration     | Website:  https://openfoam.org
    \\  /    A nd           | Version:  7
     \\/     M anipulation  |
\*---------------------------------------------------------------------------*/
FoamFile
{
    version     2.0;
    format      ascii;
    class       volScalarField;
    location    "20000";
    object      k_conv;
}
// * * * * * * * * * * * * * * * * * * * * * * * * * * * * * * * * * * * * * //

dimensions      [0 2 -3 0 0 0 0];

internalField   nonuniform List<scalar> 
15600
(
-5.72452709313616e-05
2.94442375680792e-07
-6.32696781409106e-08
-2.62990765520509e-06
-1.06211953697527e-07
-8.81795853534348e-10
-3.78047533030821e-10
-5.83403358496665e-10
-1.00312551724081e-09
-1.4483395459868e-09
-1.89113796485353e-08
-7.03397610972492e-08
-1.40744862372756e-07
-1.44547293010734e-07
-5.1479706475278e-08
-2.84709515658644e-09
2.84985700341822e-10
1.3555241438991e-09
-1.3962221856742e-09
-9.22390167515071e-09
-2.07539620313421e-08
-3.55297549447147e-08
-5.17777746495181e-08
-6.80567589771148e-08
-8.36218428900654e-08
-9.81324387755823e-08
-1.1151102150896e-07
-1.23725319451752e-07
-1.34780571295789e-07
-1.4466002110199e-07
-1.53337974483639e-07
-1.60766991451291e-07
-1.66895549336018e-07
-1.71680158173526e-07
-1.75104036027323e-07
-1.77209399999628e-07
-1.78095348741722e-07
-1.77881990720731e-07
-1.7695154262963e-07
-1.75581749251387e-07
-1.7344372417655e-07
-1.68866085316114e-07
-3.80409776526587e-07
-7.10386753289264e-07
-1.04836974605779e-06
-1.38931768126694e-06
-1.7284298110766e-06
-2.06144518107799e-06
-2.38445349059089e-06
-2.69427519157688e-06
-2.98788263841419e-06
-3.26274211027723e-06
-3.51653400385634e-06
-3.74734950894901e-06
-3.95370167960211e-06
-4.13451415646219e-06
-4.28928275657695e-06
-4.4178002064553e-06
-4.52054046806964e-06
-4.59790408928362e-06
-4.65076201969685e-06
-4.67951302848634e-06
-4.68453110155247e-06
-4.66694931402416e-06
-4.62820950813052e-06
-4.57039401871651e-06
-4.49559405605224e-06
-4.40609442122523e-06
-4.3038564037997e-06
-4.19060209300461e-06
-4.06754994053485e-06
-3.93500899503698e-06
-3.79371785092795e-06
-3.64465336268855e-06
-3.48935811849848e-06
-3.32924724432825e-06
-3.16569986002763e-06
-2.99925484017784e-06
-2.83005845691739e-06
-2.65841797842642e-06
-2.48475096699028e-06
-2.30951748892348e-06
-2.13307688483086e-06
-1.95532487025552e-06
-1.77622142735462e-06
-1.59535768916776e-06
-1.41214099603069e-06
-1.22647964570952e-06
-1.03742901066e-06
-8.45090519670065e-07
-6.47786508295509e-07
-4.46778453047079e-07
-2.39441562218072e-07
-3.21326595349984e-08
8.80956657393593e-10
1.87805628093557e-09
3.67066050198337e-09
6.45350308518165e-09
1.03696984232296e-08
1.5370897567845e-08
2.07920325952301e-08
2.62511113529785e-08
3.0766767938915e-08
2.05077417646575e-09
-7.39742555840069e-08
-7.0136628759321e-07
-2.12362725416374e-06
-5.28408235868896e-06
-8.25327051006331e-06
-9.48454617173122e-06
-9.05876612795714e-06
-6.28453088767172e-06
-5.15968561454048e-06
-5.09466823673468e-06
-9.85031416123966e-06
-3.03902480408902e-05
-0.000160201850409784
-0.00111017988566135
-1.58683697908861e-05
-1.62111428574881e-05
-3.80072562438874e-05
1.08686079077523e-05
-4.7097495944167e-06
-5.16150623932676e-05
-2.96753332292747e-06
-4.88953434851616e-08
-3.31275317679454e-08
-5.01797053890428e-08
-8.41579337622016e-08
-1.31008769974479e-07
-5.10035359622256e-07
-1.57179989832212e-06
-3.07936339697961e-06
-3.42178507919958e-06
-1.44476194322651e-06
-2.09767880294256e-07
4.33155404647336e-08
8.99567400921247e-08
-2.60330482866344e-07
-8.52907886973383e-07
-1.75893164389436e-06
-2.88292844570115e-06
-4.09957538093058e-06
-5.31776792475925e-06
-6.48895895240855e-06
-7.59047134736543e-06
-8.61526095972892e-06
-9.55979145999626e-06
-1.04235090825763e-05
-1.1205023923334e-05
-1.19028579039094e-05
-1.2514524314718e-05
-1.30376636414941e-05
-1.34707702033277e-05
-1.38144671026829e-05
-1.40734747244172e-05
-1.42565706140206e-05
-1.43741024445983e-05
-1.44588624868749e-05
-1.45336747364716e-05
-1.45676944530548e-05
-1.88503589026292e-05
-2.5220794899882e-05
-3.15869272892116e-05
-3.79680206522993e-05
-4.42849595908866e-05
-5.04641335233492e-05
-5.64416764616697e-05
-6.21611814177711e-05
-6.75763832868463e-05
-7.26451123051119e-05
-7.73321799490084e-05
-8.16068322346962e-05
-8.54447143157376e-05
-8.88281507575924e-05
-9.17460403083759e-05
-9.41951881818082e-05
-9.61773250370966e-05
-9.77019259797343e-05
-9.87779984351372e-05
-9.94186436891463e-05
-9.96319445197973e-05
-9.94279103636777e-05
-9.88276266710677e-05
-9.78578934999476e-05
-9.65537366287724e-05
-9.4950557653093e-05
-9.30850668205459e-05
-9.09885978684934e-05
-8.86868303500794e-05
-8.61964488744546e-05
-8.35236214755412e-05
-8.06811140430989e-05
-7.76876343705127e-05
-7.45699664932942e-05
-7.13509415091263e-05
-6.80544049030475e-05
-6.46863537242336e-05
-6.12473550887516e-05
-5.77454413680165e-05
-5.41846033482444e-05
-5.05743500154946e-05
-4.69170575347648e-05
-4.32116427235703e-05
-3.94539133728039e-05
-3.56337883381849e-05
-3.16688130112125e-05
-2.76321757763497e-05
-2.35545763219203e-05
-1.93672731391167e-05
-1.50375676539006e-05
-1.05700941677342e-05
-5.92199026629601e-06
-1.18050539493111e-06
-5.33698447641296e-07
-3.23752201415921e-07
-7.761255633617e-08
2.03903384551007e-07
5.59830863223156e-07
1.35977070061579e-06
1.94447646745111e-06
2.37710147021752e-06
2.75038872746268e-06
5.73574820214004e-07
-5.02183171948699e-06
-2.27308315273468e-05
-5.94364056222334e-05
-0.000121676226237153
-0.000177654439642021
-0.000199481797544934
-0.000190306614020692
-0.000141252359706914
-0.000117467389355747
-0.000116230549392757
-0.000208495045874938
-0.000610083370736
-0.00296494068613176
-0.0158340792754466
-0.000675137694446934
-0.000974408682428413
-0.000477809843360003
-0.0002424407513302
-4.21964508846261e-05
-0.000285069002778156
-2.2184838524891e-05
-4.74484158762044e-07
-3.70798315723891e-07
-5.38662394208154e-07
-9.04535846980234e-07
-1.50345977770022e-06
-3.98239649405295e-06
-1.01976635416664e-05
-1.87304253488899e-05
-2.15262931278734e-05
-1.01016089666063e-05
-1.83392617979827e-06
8.82442487992497e-07
3.02540853932321e-07
-2.7852406182603e-06
-8.34193915740429e-06
-1.64151233071459e-05
-2.61311616551327e-05
-3.65105582686408e-05
-4.68709198288174e-05
-5.68433715527061e-05
-6.62335886466417e-05
-7.49786512431495e-05
-8.30493040944686e-05
-9.04568215274959e-05
-9.72123744778748e-05
-0.000103334715669985
-0.000108837568449305
-0.00011373792586126
-0.000118058103347328
-0.000121834028967742
-0.000125129220172179
-0.000128036820478851
-0.00013064588025522
-0.000133275350062191
-0.000136151373467639
-0.000156227377572549
-0.000178854272303919
-0.000199239532349882
-0.000219049425496369
-0.000238142492153844
-0.000256390916379272
-0.000273686452016875
-0.000289943400213841
-0.000305092532587874
-0.00031907975866001
-0.00033185972065428
-0.000343397150296601
-0.000353665531496045
-0.000362648973097696
-0.000370343053653997
-0.000376754451111148
-0.000381901125283031
-0.000385807403051477
-0.000388503602415302
-0.000390015236228144
-0.000390368117820005
-0.000389583176114688
-0.000387693013429282
-0.000384754089436202
-0.000380836201102319
-0.000376022739186523
-0.000370396083554063
-0.000364036461779747
-0.000357008149901018
-0.000349354161819298
-0.000341093142405423
-0.000332232450607135
-0.000322796445188795
-0.000312833581602428
-0.000302412262018234
-0.000291577536543436
-0.000280395277981766
-0.000268854864045115
-0.000256938049129529
-0.000244668634739992
-0.000232034068940093
-0.000219054445159129
-0.000205712285227936
-0.000190587840350843
-0.000176464576379926
-0.00016187055374934
-0.000146727117004174
-0.000130962169744369
-0.000114462147302595
-9.71267615058696e-05
-7.87720178075731e-05
-5.92849483487669e-05
-3.84128578789602e-05
-1.62387904748058e-05
-1.01515997383399e-05
-5.65743518440614e-06
-9.35958005455714e-07
3.94385653709452e-06
9.3010862105146e-06
1.43931966018778e-05
2.05925989882343e-05
3.06909230318663e-05
3.4501277580615e-05
1.5666087042741e-05
-3.55400701308658e-05
-0.000152011642834496
-0.000351303520613967
-0.000653683042009639
-0.000940270776689778
-0.00106114928289206
-0.00104122764979592
-0.000839673771176015
-0.000729821677987803
-0.000742933916525608
-0.0012409553668735
-0.0033039027016404
-0.0132264814310339
-0.0467843058479972
-0.0017664428502957
-0.00616359418067807
0.00205369120065415
-0.00240786181927712
-0.000134066793042446
-0.000848156830205993
-8.85181661768837e-05
-2.0843837565044e-06
-1.83407498234152e-06
-2.55935542897196e-06
-4.32651785304459e-06
-7.42852890221312e-06
-1.64463976340872e-05
-3.62535109418072e-05
-6.09568745625607e-05
-6.96871619343163e-05
-3.52990000635884e-05
-5.77103643402348e-06
4.72473158800153e-06
-1.56112908677695e-06
-1.36357535714008e-05
-3.43412964233899e-05
-6.08676470334799e-05
-8.97719064034394e-05
-0.000118621018559875
-0.000146071969214055
-0.000171607624792403
-0.000194976652876314
-0.000216279025353463
-0.000235641749977729
-0.000253311640640146
-0.000269495447924133
-0.000284405134070524
-0.000298207565521749
-0.000311053166933402
-0.000323072190016209
-0.000334395963366715
-0.000345190609286389
-0.000355692532938398
-0.000365992017089988
-0.000377003755672965
-0.00041747504504895
-0.000446549751243879
-0.00046834004488313
-0.00048875285787811
-0.000507660267223173
-0.000525048379762634
-0.000540927780997428
-0.000555317047171516
-0.00056824086505878
-0.000579725201917402
-0.000589792806678728
-0.000598469455206348
-0.00060578106126598
-0.000611758897150999
-0.00061643805726013
-0.000619858925627207
-0.000622066028036415
-0.000623105410737412
-0.000623020593279986
-0.00062184591539206
-0.000619604778242228
-0.000616311950782971
-0.000611988217822005
-0.000606674748166557
-0.000600432353643115
-0.000593330875027018
-0.00058544385869644
-0.000576838616701845
-0.000567573168020945
-0.000557685506533968
-0.000547181948542369
-0.000536042353859217
-0.00052425689101888
-0.000511830208479388
-0.000498803226440321
-0.000485236919463655
-0.000471145848145114
-0.000456597255170561
-0.000441535085905682
-0.000425907653274348
-0.000409717938427495
-0.000390962695324833
-0.000371428478662588
-0.000353300942810031
-0.000334493060964487
-0.000314873765806259
-0.000294346918910875
-0.000272749726951129
-0.00024991062621255
-0.000225592736314374
-0.000199533500857847
-0.000171344871182816
-0.000140635695444705
-0.000106809753183432
-6.94432742598597e-05
-4.27249205560842e-05
-2.10569637069937e-05
1.66310516507979e-06
2.51554988500973e-05
4.99643215554474e-05
7.33141246905323e-05
9.63907799542946e-05
0.000111861454011531
0.000150706124509508
0.000111708180051359
-5.48963761263075e-05
-0.000387348866604286
-0.000807185076639348
-0.00144642750322687
-0.00205243281938339
-0.00238523710643618
-0.00246677452681047
-0.00220438292158933
-0.00206350833189434
-0.00221461617221942
-0.00349331195033256
-0.00827139186996819
-0.0248496117484993
-0.0546805701989318
0.00433599027739544
-0.0157985814307467
0.0088588358190424
-0.00571450876799173
-0.000129240032652279
-0.00167459339780583
-0.000240097750496491
-5.96322290890875e-06
-5.92558411905129e-06
-8.04220744858341e-06
-1.35887307408572e-05
-2.34240733015138e-05
-4.58641081807329e-05
-8.76997680349244e-05
-0.000130690525798526
-0.000143198538759103
-7.66246296286943e-05
-6.20273903704831e-06
9.15824522823854e-06
-7.99829720823544e-06
-3.48622340008712e-05
-7.06440207268541e-05
-0.000110627618948228
-0.000152873187844181
-0.000196699046659088
-0.000240288599176514
-0.000282201434443224
-0.000321198694965254
-0.000357036557249428
-0.000389672456147003
-0.000419432395526796
-0.000446605314320064
-0.000471523418804806
-0.000494445698830121
-0.000515606246331464
-0.000535197738763764
-0.000553403149964393
-0.000570436884692925
-0.000586719625056929
-0.00060206805368088
-0.000646973076540416
-0.00066949844241717
-0.000684539649950924
-0.000698233133886789
-0.000710190187342262
-0.00072045654216902
-0.00072912519181578
-0.000736311129208537
-0.00074212375979766
-0.00074666203382811
-0.000750009572583577
-0.000752233338963335
-0.000753395820338803
-0.000753552930710243
-0.000752761699666724
-0.000751077374820899
-0.000748555264945098
-0.000745248850999879
-0.000741207059378791
-0.000736469790301524
-0.000731060765941596
-0.000724988634267567
-0.000718250398168642
-0.000710853578293405
-0.000702829102889841
-0.000694224412209203
-0.000685090764201296
-0.000675476981297968
-0.000665422555355658
-0.000654955789874516
-0.000644086270539886
-0.000632789593727205
-0.000621016142719092
-0.000608740016807065
-0.000595944197408191
-0.000582652308448212
-0.000568907143131483
-0.000554697852198222
-0.000540076682182446
-0.000524967023033016
-0.000508748710293616
-0.000486950322156495
-0.000469864118603079
-0.000452153549234789
-0.000433747167668341
-0.000414591213823061
-0.000394540429786972
-0.000373465067563273
-0.000351177430824128
-0.000327465892140061
-0.000302050898535937
-0.000274602151807834
-0.000244661213355214
-0.000211704251488544
-0.000174995982593892
-0.000133790982459187
-8.73673688127673e-05
-4.62044518764327e-05
-1.08353758402432e-06
4.81329438755365e-05
0.000102329382491584
0.000157606696715737
0.000214132792415813
0.000258920617955187
0.000296182638625566
0.000326256786020905
6.55678225465394e-05
-0.000518320412110658
-0.00103027805930729
-0.00188473365935843
-0.00254615017653605
-0.00301641863587885
-0.00325107558796095
-0.00315821011076478
-0.00316511313113687
-0.00359784357030086
-0.00543800003109859
-0.0116007008446322
-0.0259620083623325
-0.0416420151631574
0.0138107340308748
-0.0282027918021252
0.0098978647774347
-0.00650789463794599
0.000597890451313287
-0.00232577177935305
-0.000480317926994893
-1.28626291827041e-05
-1.4622870228123e-05
-1.94852739902039e-05
-3.24614933857064e-05
-5.4672965811121e-05
-9.54094474689698e-05
-0.000156049871428161
-0.000199682060812518
-0.000197925978163063
-0.000120386528166147
1.16049382831366e-05
1.02584571740052e-05
-1.40317360588823e-05
-4.87570094579428e-05
-9.32388928987256e-05
-0.000150738841127713
-0.000218109882961088
-0.000289581198897996
-0.000358151472076764
-0.000420816846474184
-0.00047615199844513
-0.000524659689934311
-0.000566968408651862
-0.000604047364583089
-0.000636639465032649
-0.000665432991728721
-0.00069093979619509
-0.000713586736662
-0.000733711041338856
-0.000751606073894481
-0.000767542668804268
-0.000782278048298093
-0.000813615411230383
-0.000834866100546696
-0.000843506375236392
-0.000851020511650495
-0.000856937708055793
-0.000861171145073896
-0.000863838618555299
-0.000865084876352565
-0.00086507141287749
-0.000863949629700243
-0.000861851833457788
-0.000858884551400651
-0.000855131166103677
-0.000850664769061276
-0.0008455491805313
-0.000839846439709736
-0.000833614033308082
-0.000826906852419616
-0.000819774784369711
-0.000812260978551037
-0.000804396342552162
-0.00079619385242725
-0.000787648456638501
-0.000778742384353781
-0.00076946749860769
-0.000759840123418224
-0.000749893307240222
-0.000739660859053887
-0.000729172092334011
-0.000718445670190214
-0.000707489695902885
-0.000696295920579613
-0.000684822078552284
-0.00067300035185764
-0.000660792349172892
-0.000648164411932688
-0.000635125646498334
-0.000621704487841159
-0.000607879030459956
-0.00059368335905533
-0.000577233515800315
-0.000556277712292478
-0.000540257630886642
-0.000523604037832311
-0.000506348812921509
-0.000488406025253106
-0.000469703494540076
-0.000450099578095165
-0.000429451903852267
-0.000407567732777351
-0.000384223292027414
-0.000359129242585588
-0.000331935698118613
-0.000302170820812711
-0.000269269917656104
-0.000232464846377997
-0.000190902408471792
-0.00013825784055069
-8.89170393717484e-05
-3.31539031509229e-05
3.00110480019411e-05
0.000102324551025634
0.000181544522018411
0.000268074723577006
0.000349358278542754
0.000426008264854761
0.000483247149550432
0.000277841908613177
-0.00049724749131809
-0.0011423651011268
-0.00187113287586235
-0.00248726909237912
-0.00294476485480054
-0.00321866457280213
-0.0032458923401752
-0.00333469771351123
-0.00387407835217588
-0.00559645832153356
-0.0112861609189243
-0.0200179036717421
-0.0290679393065833
0.0113318578860222
-0.0364673428098768
0.00572273933960122
-0.00553177308049485
0.00195947699815676
-0.00229303012591975
-0.00071317007755331
-2.16487697585355e-05
-2.95613041121955e-05
-3.8833952761759e-05
-6.25504718795348e-05
-9.99867196779436e-05
-0.000154358340149433
-0.000213876681206692
-0.000234438665431147
-0.000208385707625827
-0.000130222819983583
3.21451440530791e-05
1.32230632887956e-05
-1.42880291195991e-05
-6.42741242689732e-05
-0.000134662924050752
-0.000226253322064795
-0.000324571916460933
-0.000420492990056133
-0.0005063048798526
-0.000580790361623083
-0.0006438128314554
-0.000697089127554814
-0.000742004930975738
-0.000780089557523
-0.000812453759624092
-0.000840053446741551
-0.000863590680339214
-0.000883634314582241
-0.000900630070228277
-0.000914953377662159
-0.000926820778713171
-0.000934748727185572
-0.000967965050109629
-0.000971612925929869
-0.000974708072206743
-0.000976371650515219
-0.000976435094523976
-0.000974936727767617
-0.000972029583447627
-0.000967884757573151
-0.000962686008175267
-0.000956607902182429
-0.00094980156412594
-0.000942385405880187
-0.000934450753735587
-0.00092607383616434
-0.000917320180940307
-0.000908251346934368
-0.000898922696020665
-0.000889385503551422
-0.000879684204339101
-0.000869855924929727
-0.000859923996439466
-0.000849893765398384
-0.000839750157487343
-0.000829464106674557
-0.000819012929755646
-0.000808398911269327
-0.000797642846276204
-0.00078676476610365
-0.00077577991161302
-0.00076469243742805
-0.000753497216112549
-0.00074217512156756
-0.00073067335165672
-0.000718911820005898
-0.000706841697057745
-0.000694416106599236
-0.000681632215222687
-0.000668506723149016
-0.000655016038595813
-0.000639698079776894
-0.000618224826192663
-0.000603082806575341
-0.000587389123006195
-0.000571094433706905
-0.000554203223510496
-0.000536627945488338
-0.000518285514933435
-0.000499037478464437
-0.000478735306959323
-0.000457183701064315
-0.000434152442351069
-0.00040934728251659
-0.000382408877639713
-0.000352860238495138
-0.000320118559218014
-0.000283402096936847
-0.000241814988407479
-0.000187802828217758
-0.000135972975618454
-7.63042138770084e-05
-7.54628698896698e-06
7.26337280216696e-05
0.000163743878049628
0.000267003245765708
0.000373067406475402
0.000480648920814053
0.000572275689931809
0.000471704087471149
-0.000477117440278321
-0.00110403861999433
-0.0017195137708619
-0.00225230988858393
-0.00264465274602844
-0.00288775666475691
-0.00293215558477486
-0.00298429488194164
-0.00340731152432598
-0.00460883573727028
-0.00913710525930591
-0.0133648203707491
-0.0201971986934136
0.0131754599280426
-0.0358075862054743
0.00338562607887433
-0.0040080953600972
0.00269256311950752
-0.00162103880228981
-0.00075277842674017
-2.59691450873288e-05
-5.04288163656697e-05
-6.54622108509975e-05
-9.98146628647888e-05
-0.00014794388995886
-0.000202498382411265
-0.00024220289687678
-0.000234344445865589
-0.000188729480465944
-0.000103967386572443
3.94933681486521e-05
1.37232829297026e-05
-2.66553565017869e-05
-0.000108811540902417
-0.000211167259049692
-0.000331624033350767
-0.000450591892868437
-0.000560840090495812
-0.000655222728318565
-0.000734431519810289
-0.000799476929909173
-0.000853013408296733
-0.000896975214053573
-0.000933250865367433
-0.000963183321155726
-0.000987886353931387
-0.00100817503882306
-0.00102469814716093
-0.00103796191837596
-0.00104840075182113
-0.00105640127927997
-0.0010822015325108
-0.00108234999554639
-0.00108223239669856
-0.00108102776908035
-0.00107830617857803
-0.00107404111601967
-0.00106833449621142
-0.00106135916746212
-0.00105330034732683
-0.00104435318466127
-0.00103470712593737
-0.00102452607431059
-0.00101393608969371
-0.00100303308572957
-0.000991893756931166
-0.000980583006738744
-0.000969160105309264
-0.000957676950769832
-0.000946180518645556
-0.000934709808588832
-0.000923296741235729
-0.000911958821764255
-0.000900696135252208
-0.000889486380694727
-0.000878291507890169
-0.000867075633543165
-0.000855828140614875
-0.000844559446505565
-0.000833278701457448
-0.000821990792434091
-0.000810689616506338
-0.000799361187923638
-0.000787979750242837
-0.000776486254520673
-0.000764791861256088
-0.000752838525728641
-0.000740568513857985
-0.000727968756354909
-0.000715045291223262
-0.000701779327103224
-0.000678754316647351
-0.000664188211949244
-0.000649210766667196
-0.000633704210160937
-0.00061760913652296
-0.000600910217337886
-0.000583519772723282
-0.000565347300442784
-0.000546255480687376
-0.000526091104177517
-0.000504655352232768
-0.00048171162889651
-0.000456959513291018
-0.000430030427922642
-0.000400439906601767
-0.000367589929197417
-0.000330683930358358
-0.000288795463103397
-0.000234015662960623
-0.000181109805828373
-0.000119246751041688
-4.73999884649959e-05
3.71181241659642e-05
0.000135013867739263
0.000248229661491558
0.000370363783670251
0.000499407753420752
0.00061949951972922
0.0005263028036504
-0.000365204404301526
-0.000979434929619643
-0.0015330646135199
-0.00198941842395374
-0.00231570372481635
-0.00251158845978771
-0.00252648635933635
-0.00249659354837241
-0.00271743332377554
-0.00334219569910549
-0.00667506033751259
-0.00788171600239301
-0.0135690492768658
0.0126933038498907
-0.0308672209664826
0.00738323224197786
-0.00349478348358837
0.00474443794303642
-0.000748435150772316
-0.000487316274293974
-1.06915355340187e-05
-7.31667566264056e-05
-9.49541668792108e-05
-0.000135436528527561
-0.000185292153568752
-0.000229677733194409
-0.00024676788012217
-0.000218309318164276
-0.000159660636122601
-7.31773864313216e-05
3.75539775552344e-05
7.88640053497453e-08
-6.49927945116377e-05
-0.000179822012892576
-0.000304808938783423
-0.000444860417161008
-0.000576563939361732
-0.000694375116748946
-0.000791985902796973
-0.000871964594039972
-0.000936286292736232
-0.000988213724977907
-0.00103000211312934
-0.001063714002578
-0.00109080993400021
-0.00111247935141331
-0.00112959645763196
-0.00114284942922716
-0.00115277300607978
-0.00115981943887672
-0.00116228521934435
-0.00118143292061878
-0.00117908674810689
-0.00117591421122135
-0.00117141870490334
-0.00116540156353632
-0.00115791328096493
-0.00114909227146937
-0.00113912270666127
-0.00112819659775607
-0.00111651423598928
-0.00110427508557558
-0.00109165243997276
-0.00107877764424273
-0.00106574922659309
-0.00105264293347992
-0.00103952171121324
-0.00102644168520549
-0.00101345065593756
-0.00100059113103997
-0.000987896910625402
-0.0009753954405845
-0.000963099704128484
-0.000951006117111065
-0.000939087116877714
-0.000927297241822113
-0.000915588602843839
-0.000903938722299034
-0.000892349051831803
-0.000880819971114555
-0.000869348555396597
-0.000857921345581831
-0.000846518365083189
-0.000835109981275905
-0.000823633691073968
-0.000811994377658851
-0.000800125537703593
-0.000787960460709173
-0.000775477005308323
-0.000762670281378997
-0.000741992716982182
-0.000725401840340829
-0.000710970216645264
-0.000696048340248496
-0.000680602360924204
-0.000664566243439607
-0.000647909685978915
-0.000630544357061929
-0.000612373834454881
-0.000593260277153311
-0.000573045804267692
-0.000551526685425241
-0.000528458793744148
-0.000503533348655629
-0.00047637059052466
-0.000446474804960389
-0.000413230742463441
-0.000375822461683417
-0.000333289696076985
-0.000277408565867518
-0.000223648139646097
-0.000159765767067299
-8.53276127100449e-05
2.61375814499344e-06
0.000105575753598659
0.000226087840417945
0.000360063509215232
0.000505460385490696
0.000649224349638243
0.000566847992398733
-0.000256614178137773
-0.000841321692165211
-0.00134155011196298
-0.00173523485172458
-0.00200599506686391
-0.00215569352859495
-0.00212517123818894
-0.00200541276428058
-0.00201245900922138
-0.00213210925289579
-0.00439677758796661
-0.00357963986261095
-0.00817341400095728
0.0110877491746193
-0.0266410386310329
0.0172644549401874
-0.00404317902356947
0.00737234223634176
0.000175701887306036
-1.82917686063215e-06
4.52400876806438e-05
-8.97756553349874e-05
-0.000121152492158395
-0.000162571803094379
-0.000208241489224011
-0.000240421769242058
-0.000241314382470177
-0.000200190466041361
-0.00013234385763519
-4.87293601808583e-05
2.41586688458248e-05
-3.37644281562732e-05
-0.000124600109536655
-0.000261826265251848
-0.000402034069688261
-0.00055609950726159
-0.00069508882074849
-0.000815869827538611
-0.000913639314068722
-0.00099249592834592
-0.00105504606741024
-0.00110483671454167
-0.00114426853964611
-0.00117545990486346
-0.00119992428167123
-0.00121888522253182
-0.00123325043818906
-0.00124372882984151
-0.00125086949649235
-0.00125532793138492
-0.00126228076941103
-0.00126772099586609
-0.00126327250618435
-0.00125769608794074
-0.00125069702966184
-0.00124220680045204
-0.0012323216913527
-0.00122120205286938
-0.00120903780487529
-0.00119602269971237
-0.00118235786557761
-0.00116824933017092
-0.00115387745985061
-0.00113937718147412
-0.00112484816966831
-0.00111036423363014
-0.00109598537416686
-0.00108176403788308
-0.00106774349216797
-0.00105396171974024
-0.00104044749472532
-0.00102722432371254
-0.00101430156762208
-0.00100167305615004
-0.000989307386722652
-0.000977152854802015
-0.000965150607434754
-0.000953267182240636
-0.00094149613846258
-0.00092983065139276
-0.000918261801058488
-0.000906770848192854
-0.00089533381984259
-0.000883919095483299
-0.000872462705753311
-0.000860865274329515
-0.000849052222054825
-0.000836949575994734
-0.000824526766528948
-0.000806942668599647
-0.000787492798732467
-0.000773476881602105
-0.000759003815123495
-0.000744045301890877
-0.000728555670689069
-0.000712463834117891
-0.000695727556684018
-0.000678257065575761
-0.000659950621495362
-0.000640668653881194
-0.000620248183373433
-0.000598479273389862
-0.000575108918089944
-0.00054981788313113
-0.000522212945102469
-0.000491783648358465
-0.000457894433378855
-0.000419705554171812
-0.000376216483416101
-0.000321654780293875
-0.000264105576841865
-0.000197978124119596
-0.000120890024483112
-2.96490722734936e-05
7.78381987529529e-05
0.000204571190817157
0.000348295764439468
0.000507348071907612
0.000672059890573393
0.00060089328531729
-0.000156389656479717
-0.000699621138064614
-0.001152891154729
-0.00149567700913837
-0.00172123945127909
-0.00182886211267572
-0.00174795923250403
-0.00154098243019477
-0.00134478565355599
-0.00104481972313218
-0.0023694147090731
-0.000143924863948924
-0.0036276412902974
0.00781893013661955
-0.023790362069143
0.0284589941094733
-0.00616837782426402
0.00946933618452173
0.00139278301854693
0.000525470182255853
0.000156042294701608
-9.09185715376731e-05
-0.000139884051642429
-0.000180247904116517
-0.000220718943951468
-0.00024297571807354
-0.000234635700838664
-0.000185757423741095
-0.000111035141940306
-3.35346656134877e-05
-1.07063729542529e-06
-8.51840024663839e-05
-0.000194021606663107
-0.000345515185280518
-0.000498029078268659
-0.000661574076069706
-0.000803717163069618
-0.00092459204018475
-0.00102099828354658
-0.00109798998154629
-0.00115850502158492
-0.0012061558350646
-0.00124339019423713
-0.00127232374292203
-0.00129449325559612
-0.00131113911663297
-0.00132319181785225
-0.00133137280946332
-0.00133621826962393
-0.00133818416049377
-0.00134995031790987
-0.00134414157310835
-0.00133800805179331
-0.00133058596857644
-0.00132171209831056
-0.00131139559681557
-0.00129976119713079
-0.00128698211686325
-0.00127324995210414
-0.00125875638980862
-0.00124370003209146
-0.00122829069979085
-0.00121271403866336
-0.0011971071276609
-0.00118156954479987
-0.00116617234597692
-0.00115097173976247
-0.00113601609507329
-0.00112134376590016
-0.00110698816714721
-0.00109297311652891
-0.00107931855122727
-0.00106603080986678
-0.00105310189142041
-0.00104049762713229
-0.00102816101488334
-0.00101602316602154
-0.00100404036648371
-0.000992199127198394
-0.000980486619798901
-0.000968889288962671
-0.000957384672423168
-0.00094594626561862
-0.000934541800170208
-0.000923107356827076
-0.000911541163746521
-0.000899760551867485
-0.000887685963171082
-0.000873716858430198
-0.000850959622104703
-0.000837196902692376
-0.00082307587119371
-0.000808497436089165
-0.000793425035438008
-0.000777805324940431
-0.000761563055318762
-0.000744646021296289
-0.000726962269918608
-0.000708404932481553
-0.000688831805078172
-0.000668074260505898
-0.000645915006714414
-0.000622090845224238
-0.000596270222415589
-0.000568044261767122
-0.000536884751033198
-0.000502132693863146
-0.000462920759296573
-0.000418203096798674
-0.000366897188338574
-0.000303006634006618
-0.000234384808954119
-0.000154443163564729
-5.97860730647357e-05
5.21061958562229e-05
0.000184604796397989
0.000336951330667792
0.000508112779944766
0.000692135606871327
0.000631333395537306
-6.53385154649033e-05
-0.000558732503328425
-0.000968979267084152
-0.00126955786485172
-0.00145774917133452
-0.00152660066823716
-0.00139375766088615
-0.00110360416210705
-0.000718386911141862
-6.7528328712401e-05
-0.000550418633442724
0.00266004751362904
-0.00178542092928679
0.0046638922603008
-0.0225005420778041
0.035489404086674
-0.00941374979886185
0.00972635365343504
0.00331787828873451
0.000969441388865976
0.000318475709009036
-6.93784569648034e-05
-0.000149897611461908
-0.000190679294929105
-0.000227505214473352
-0.000242827802237318
-0.000230327321172703
-0.000176715132830931
-9.71887017588901e-05
-2.81994482489305e-05
-3.77656924321054e-05
-0.00014707114453691
-0.000264830538348641
-0.000428046413754101
-0.000590831570044292
-0.000759653826354768
-0.00090213754733557
-0.00102151209352246
-0.00111590888885017
-0.00119082620413245
-0.00124934070331904
-0.00129500899287908
-0.00133027883101864
-0.00135723874779834
-0.00137743636149173
-0.00139212268570473
-0.00140224648032828
-0.00140853957231879
-0.00141151572362591
-0.00141063653687634
-0.00141942025979688
-0.00141271837235423
-0.0014052926987288