/*--------------------------------*- C++ -*----------------------------------*\
  =========                 |
  \\      /  F ield         | OpenFOAM: The Open Source CFD Toolbox
   \\    /   O peration     | Website:  https://openfoam.org
    \\  /    A nd           | Version:  7
     \\/     M anipulation  |
\*---------------------------------------------------------------------------*/
FoamFile
{
    version     2.0;
    format      ascii;
    class       volScalarField;
    location    "20000";
    object      k_diff;
}
// * * * * * * * * * * * * * * * * * * * * * * * * * * * * * * * * * * * * * //

dimensions      [0 2 -3 0 0 0 0];

internalField   nonuniform List<scalar> 
15600
(
0.00198541497401029
0.00054676510612129
0.000102803488433465
0.000253955071156375
4.31637824069149e-05
2.20901904134164e-06
5.37894697462718e-06
7.03493265007792e-06
9.19366125637737e-06
1.23716224600865e-05
1.61492848160775e-05
1.96938737333497e-05
2.08133436693386e-05
1.73378367310778e-05
9.62127018044435e-06
3.94812595664159e-06
4.66430140262335e-06
8.95370367453022e-06
1.53525728808394e-05
2.51238887413871e-05
3.86544135906846e-05
5.5831535235968e-05
7.61382996351297e-05
9.89406108348637e-05
0.000123663840780838
0.000149876365815964
0.000177260326052152
0.000205587886968763
0.00023468022744622
0.00026439106942302
0.000294589324655391
0.000325151613579612
0.000355955305819744
0.000386876447882209
0.000417790055145838
0.000448573330515548
0.000479113663526238
0.000509315564265706
0.00053910134691263
0.000568452902938889
0.000597392358105399
0.000625882391330717
0.000653385066520549
0.000679577963802226
0.000704369137255357
0.000727658346509322
0.000749366447163472
0.000769434982231179
0.000787822350196572
0.000804502556677995
0.000819460063627695
0.00083269097207747
0.000844201045086836
0.00085400688785455
0.000862135537351027
0.000868623869711446
0.000873518236645903
0.000876871506426683
0.000878742444657838
0.000879188989019774
0.000878269633658018
0.000876038892929633
0.00087255657860228
0.000867895022797629
0.000862134179910558
0.000855360593331054
0.000847659310510179
0.000839111729287383
0.000829788895047548
0.000819749657446118
0.000809034762703976
0.000797669447391406
0.000785688944648701
0.000773134515315567
0.000760058723136374
0.000746514717769067
0.000732531345049179
0.000718145702229086
0.000703358810585615
0.000688155673426286
0.000672577576054462
0.000656596265712859
0.000640249585103247
0.000623415447661682
0.000606181551834466
0.000588442222624815
0.000570131542643387
0.000551197103420722
0.000531562450081574
0.000511124220934913
0.000489752167451321
0.000467308941334143
0.000443602600140365
0.000418495930521265
0.000393280862495425
0.000367085291464645
0.000339181231090378
0.00030946009389009
0.000277679788350872
0.000244243619431562
0.000209311736782812
0.000174465699108218
0.000139815315483553
0.0001063624850943
0.000101788406640108
0.000175991717068789
0.000300865870014557
0.000493750661101536
0.000713095421995166
0.000908232769769523
0.00106242944961802
0.00114922164857198
0.00125825310274095
0.00142269899711068
0.00183596852398566
0.00277357499179777
0.00584976247287817
0.0159502896862914
0.0074051803134226
0.00244606897095685
0.0106876094593794
0.00307683216312089
0.000595688602792938
0.00134795966635271
0.000263970459276592
1.67834734848644e-05
2.90374973151305e-05
3.8090903816411e-05
4.96666546469808e-05
6.67767121234564e-05
8.70341726921155e-05
0.000105869495190779
0.000111737838215649
9.36665940508117e-05
5.30342546225585e-05
2.1835108125094e-05
2.59061535969365e-05
4.95884282668063e-05
8.46403277423555e-05
0.000138012096232329
0.00021152460558655
0.000304332939461076
0.000413475993652452
0.000535440874190918
0.00066712102096074
0.000806222676847633
0.00095108666629829
0.00110054602901197
0.00125370185833022
0.00140983384993288
0.00156830689639746
0.00172853103374492
0.00188992351156499
0.00205189665253082
0.00221385731426688
0.00237522145973772
0.00253545386671534
0.00269410421335046
0.00285079029797802
0.00300544971181374
0.00315827976044978
0.00330482489989634
0.00344453200106835
0.00357776747615791
0.0037039873653412
0.00382274049589646
0.00393367072135312
0.00403651122642385
0.00413106830150369
0.00421721309376964
0.00429486273055699
0.00436398459406227
0.00442459017080452
0.00447674035344924
0.00452054426097875
0.00455615739564
0.00458377924630121
0.00460364182245158
0.00461600377181781
0.00462112427728815
0.00461926539068501
0.00461067823338207
0.00459564478310458
0.00457450659188195
0.00454764484456928
0.00451547194661533
0.00447839676652627
0.00443681152237343
0.00439106269231814
0.00434144066245024
0.00428815106899194
0.00423132971217413
0.00417116036383105
0.00410785443287967
0.00404167680491133
0.00397290134438747
0.00390167092211606
0.00382819264641008
0.00375248576051196
0.00367447374725178
0.00359438840992093
0.00351208018143849
0.00342776530099894
0.00334079635509033
0.00325166304214091
0.00315981899391775
0.00306499976353624
0.00296685818546863
0.00286496031407173
0.002758823228611
0.00264778240658068
0.00253109217850423
0.00240775869911043
0.00227688626437218
0.0021414152069916
0.00200023353752584
0.00184982189117535
0.00168947293450433
0.0015178871298137
0.00133740715579819
0.00114826239987355
0.000958814466409455
0.000770064343787698
0.000586410550457567
0.000562458358780791
0.000970753728525937
0.00163870672092004
0.00264728227489146
0.00378894434089167
0.00482033888838222
0.00565402152315927
0.00617144966308616
0.00680325027708643
0.0077420766516486
0.0100013621765648
0.0150067362494823
0.0301813369208273
0.0678262662212411
0.0368964053606255
0.0125989321794345
0.0223466293552794
0.00752251388123003
0.00148532126430769
0.00297994600898551
0.000688915540870378
5.31425740520515e-05
6.94972193617535e-05
9.10169389850187e-05
0.000118186337837549
0.000158314704363815
0.000204662679265903
0.000245197215514737
0.000253931840108397
0.000210783181477742
0.000123141461110662
5.25313795663423e-05
6.48741303860401e-05
0.000122562270117842
0.000206404904442885
0.000330921976408172
0.00049707011102446
0.000700081966819871
0.000931855058980389
0.00118444796188874
0.00145173287312886
0.00172970160617169
0.00201576590743754
0.00230833698720333
0.00260630993826758
0.00290888771961929
0.00321538692305738
0.00352516622842962
0.00383754819132693
0.00415179531893756
0.0044671023175227
0.0047826165590263
0.00509750500613645
0.00541104816086894
0.00572240530599486
0.0060314240306131
0.00632161126685001
0.00660127719639916
0.00687292637867507
0.0071344327779313
0.00738482852263641
0.00762321915712204
0.00784883994010029
0.00806104790759408
0.00825930479716565
0.00844316604104679
0.00861226041356202
0.00876629893186262
0.00890507107138736
0.00902845566661815
0.00913642175938208
0.00922902877432469
0.00930642360138007
0.00936882717540234
0.00941652291914668
0.00944982253752644
0.00946906281227506
0.00947458983831439
0.00946681986575797
0.00944627988717805
0.00941358277615201
0.00936940831672075
0.00931445207630624
0.00924939789745392
0.00917487484573515
0.00909143876338933
0.00899951787753647
0.00889942825005789
0.00879157091673771
0.0086763856617019
0.00855440527528203
0.00842621194622626
0.00829210981658051
0.00815261770030619
0.00800788573235897
0.00785782218049024
0.00770300214682095
0.00754318603024117
0.00737892665320371
0.00721036723054676
0.00703584595149678
0.00685576164315482
0.00666966154600524
0.00647698970214636
0.00627701688812408
0.0060688069215149
0.00585113744112643
0.00562249414576686
0.00538093001419367
0.00512417402524255
0.0048437624026606
0.00454918466831351
0.00423399109328427
0.00389539194416941
0.00353001570211859
0.00313977245186083
0.00272607012019401
0.00230715195867491
0.00187641040055625
0.00143332199720212
0.00134887950873938
0.00223940684406878
0.00367213195834045
0.00578249561821862
0.00817961790458282
0.0104566365299876
0.0123964756555699
0.0138045232349062
0.0154281132646749
0.0177099016217748
0.0226973742464611
0.0327479562256299
0.0579641282379326
0.0956352955535633
0.07395523666534
0.0235152730526645
0.0189238941595795
0.0115365694029701
0.00262705474239869
0.00434877109400463
0.00123065062867027
0.000115673815698938
0.000118716782716976
0.000154473264360042
0.000199026097969777
0.000263957906963769
0.000334821929544796
0.000388165285953544
0.000385650478377191
0.000309802585084393
0.000189972808503498
9.02182399600598e-05
0.000120776730543118
0.000216480890310646
0.000349133464772595
0.000528342413995193
0.000748571864316567
0.0010022131439065
0.0012819549440648
0.00158219788895604
0.00189880333698241
0.00222910833114054
0.00257107834964487
0.00292324077856504
0.0032842301730852
0.00365280411477172
0.00402767574077018
0.00440751679936239
0.00479089995628111
0.00517631490772204
0.00556218263794723
0.0059468898784529
0.00632883407387195
0.0067067286323898
0.00707857960039288
0.00741525147724817
0.0077497398349173
0.00807744853739562
0.0083923758031193
0.00869361081307543
0.00898014371007814
0.00925111253083767
0.00950583632592279
0.00974379982759865
0.0099646304362549
0.0101680762470489
0.0103539797829995
0.0105222758507969
0.0106729819250923
0.0108062009250541
0.0109221162743831
0.0110209880409091
0.0111031464448288
0.0111689814245292
0.011218930787431
0.0112534565096878
0.0112730346540357
0.0112781411067305
0.0112692889456762
0.0112470603538133
0.0112120974864227
0.0111650839974294
0.0111067112350181
0.0110376528504469
0.0109585390247936
0.0108699486506189
0.0107723584931888
0.0106661328776615
0.0105517000520841
0.0104294915748765
0.0103000095227528
0.0101638448556514
0.0100212665396803
0.0098728815401953
0.00971891969598506
0.00955930388653844
0.00939666654825718
0.00922900231741597
0.0090547708002224
0.00887533737586626
0.00869086008899721
0.00850099532523455
0.00830544008672781
0.00810377077296492
0.00789542067350306
0.00767961138079884
0.00745532152270188
0.00722117076797221
0.00697538968085496
0.00671553460286238
0.00642866683592836
0.00612158231913466
0.00579094568010716
0.00543102101865497
0.00503577088512807
0.00459989441773649
0.00412063046797568
0.00360174549481454
0.00306873151900973
0.00243209991408292
0.00221353989679858
0.00328190520391382
0.0051583247465428
0.007845053611164
0.0109928580619503
0.0142002676986959
0.0171347507552847
0.0196236094947846
0.0223865514802394
0.0260011790219921
0.0328760163581516
0.0444968312763
0.0671492438113934
0.0878933385840305
0.112472254471213
0.0247762755102874
0.00753431343067737
0.0122366277239554
0.00418074544020747
0.00491789318393887
0.00176940588910896
0.00020725113968382
0.000171575972537159
0.000220367320187175
0.000279837863519661
0.00036355909856758
0.000445573567945178
0.00048896849284617
0.000454985074530544
0.000344298151121261
0.000226856456768779
0.000137303961509663
0.000189193565880779
0.000305930429916247
0.000447669051909918
0.000623330467859578
0.000840759800923706
0.00110621806609701
0.00141581287385934
0.00176021163141698
0.00212874090112431
0.00251318681728777
0.00290724228612946
0.0033065484775588
0.00370774392406638
0.00410830293933625
0.00450612956065855
0.00489947136366512
0.0052867751839166
0.00566665922842948
0.0060378788923212
0.0063993040625343
0.00674976589898246
0.00708896746168212
0.00738590788077446
0.00768749450828466
0.0079790412481495
0.00825490869521966
0.0085153727416904
0.00876011743979018
0.00898885165194188
0.00920138301453467
0.00939763369847583
0.00957763254754615
0.00974149886768031
0.00988942106976155
0.0100216367532558
0.0101384258806216
0.0102401046049128
0.0103270260179845
0.010399577042711
0.0104581770421383
0.0105032737330779
0.0105353412410416
0.0105548729031921
0.0105623723464197
0.0105583404563985
0.010543264187332
0.0105176282233184
0.0104819382285847
0.0104367284566826
0.0103825476439301
0.0103199433831809
0.0102494417750254
0.0101715370396643
0.0100866941900177
0.00999530936343492
0.00989767555288195
0.00979412139692766
0.00968494540868597
0.00957048447839766
0.00945117498601115
0.00932715027958547
0.0091989126881879
0.00906719392435261
0.00893631105327625
0.00879684539539825
0.00865355331843209
0.0085066845443471
0.00835599517975583
0.00820151637339678
0.00804305851503837
0.00788042422759614
0.00771333525080351
0.00754142856363287
0.00736420556453128
0.00718102417643164
0.00699100436272776
0.00679302311765632
0.00658543101757242
0.00636649296977518
0.00612913977960652
0.00587535193500713
0.0056000296744953
0.00529769320353164
0.00496035819214525
0.00458274269853541
0.00415637847460359
0.00368239207217202
0.00315581795496254
0.00282610776566942
0.00352520122426796
0.00528318518923288
0.00768458386482113
0.0108258011292393
0.0142085016698392
0.0175639990782403
0.0207884483134035
0.0243480502008775
0.0287579323653669
0.0361020651934495
0.0465515974787781
0.064629023921301
0.0786365730950394
0.123398435592252
0.0255451773324239
0.00748548984741236
0.00973520693791923
0.00698255426273483
0.00467495194963253
0.00216817023928502
0.000327387970731144
0.000223222197713295
0.000280380080504327
0.000347436805083548
0.000435702241395339
0.000506304184823548
0.000514398031929561
0.000439549859039504
0.000310280181654942
0.000211655867125515
0.000198144214982519
0.000246193446536483
0.000345984184350441
0.000468222275464904
0.000648824393254558
0.000908241456766183
0.00123806560357684
0.00160914483007876
0.00199754479892404
0.00238839655280297
0.00277534606582475
0.00315540667930232
0.00352757052120238
0.0038912563246632
0.00424618199289087
0.0045920423924057
0.00492854718139751
0.00525536639392858
0.00557216261851065
0.00587859519039421
0.00617433682799155
0.00645859006935805
0.00671373367822211
0.00696382935223699
0.00721054738208381
0.00744311295544529
0.00766224968574388
0.00786806603457511
0.00806043219331898
0.00823924060035455
0.00840444093435912
0.00855605237396456
0.00869416972738954
0.00881895730058007
0.00893063044666314
0.00902944139791835
0.00911566949142188
0.00918961761881676
0.0092516119518771
0.00930199994873583
0.0093411505137435
0.00936945075231643
0.00938730868385635
0.00939514800028253
0.00939340684131787
0.00938252267557001
0.00936292161502113
0.0093350140713896
0.00929921227923086
0.00925594742990185
0.0092056584419581
0.00914878526422201
0.00908575103246375
0.00901695801327416
0.0089427964225918
0.00886361245158601
0.0087796579021078
0.00869120801396629
0.00859849064128273
0.00850175432136763
0.00840134555021826
0.0082973362503316
0.00819196700040625
0.00808761831933048
0.00797499716388377
0.00785980127846726
0.00774172183923897
0.00762089426918159
0.00749719974900259
0.00737064608547359
0.00724111053703464
0.00710845557168525
0.00697248727902608
0.00683295492298786
0.00668951818316967
0.00654174105496095
0.00638902963472248
0.00623061547726555
0.00606533854922799
0.00589635960323888
0.0057121439832953
0.00551687205591285
0.00530661553938107
0.00507690468190737
0.00482076049269434
0.00453223752150809
0.00420075356904634
0.00382349002385879
0.00340735070227849
0.00309086750282837
0.00331888098478803
0.00460874061780716
0.00662154016853602
0.00931230574931451
0.0123819821964376
0.015633993951441
0.0190487867409354
0.0229038763051516
0.0276280336448644
0.0348722740474855
0.0443832674033195
0.0598889733474639
0.0643427298002824
0.0860834197949364
0.032559909445738
0.0153028156006084
0.00701439228697982
0.0108243887627866
0.00418925465112659
0.00234526164180276
0.000469976224274693
0.000268310435401942
0.000325531859174171
0.000389359186468624
0.000464519322937152
0.000503947606099731
0.000468680654981975
0.000364703465098547
0.000239191361226324
0.00017083881630816
0.000235095919296251
0.00026711633036685
0.00034081118458255
0.00047821790800742
0.000716268910715556
0.00103973564124665
0.00140373657003848
0.00176946276091345
0.00212430346063882
0.00246591857714245
0.00279653027417889
0.00311773083679933
0.00343080164326714
0.00373624735936108
0.00403427802978629
0.00432481669587073
0.00460768031340672
0.00488260508505261
0.00514930127897466
0.00540747179460157
0.00565694200197308
0.00589920463230035
0.00610448082271954
0.00632550128315348
0.00653371718314863
0.00673033856311012
0.00691567310504083
0.00708970166322383
0.00725229797459544
0.00740336119137229
0.00754283618824845
0.00767072142427755
0.00778708294397427
0.0078920537625541
0.00798581555485242
0.00806858665759943
0.00814060928625163
0.0082021464739392
0.00825348081388804
0.00829491226424234
0.00832675894701431
0.00834935360851619
0.00836304883864706
0.00836821266834278
0.00836523197130082
0.00835449678533561
0.0083363902685285
0.00831127395764535
0.00827949999385174
0.00824143406353835
0.00819744647731836
0.00814791057708758
0.00809318678625802
0.00803362154816162
0.0079695608365625
0.00790132489905715
0.00782914757791327
0.00775328086119102
0.00767391875171701
0.00759126482475121
0.00750561176730322
0.00741848584984454
0.00733461350578266
0.00724173321759694
0.00714662336393037
0.00704940268478623
0.00694990803671029
0.00684823704472122
0.0067443372812774
0.00663822841435207
0.00652984399585968
0.00641910437838881
0.00630589131446052
0.00619004795695302
0.00607135982144025
0.0059495471136766
0.00582422831182566
0.00569489158248832
0.0055607364757688
0.00542633714040694
0.00527905643369019
0.00512457768315679
0.0049596263733973
0.00478049964865045
0.00458149300198045
0.00435647767880556
0.00409502095976615
0.00378884049647077
0.00346350100761476
0.00319682101964933
0.00301630128163385
0.00397836359064625
0.00560294099412349
0.00782682823226826
0.0104774795857601
0.0134156732535527
0.0166825285564463
0.0204669877924864
0.025182441868195
0.0320911118826997
0.0406883213403209
0.0523293886458911
0.0476858142947835
0.0560726362229457
0.0407118708477323
0.0267777374643624
0.00708271139253184
0.0127239669725512
0.00407806123825725
0.00235734476728345
0.000624679324007016
0.00030276445057878
0.000349831027249404
0.000401556675525338
0.000453036419842487
0.000457438628316807
0.00039201706936904
0.000279532624055102
0.000171595737225998
0.000141324799141917
0.000225278294493819
0.000257423989349534
0.000338579234568722
0.000527912999264283
0.000821557765338049
0.00115627345530875
0.00148580573849446
0.00179373927955635
0.00208608482265636
0.00236799929858265
0.00264366336380104
0.00291452828264897
0.00318118687834098
0.0034434802095644
0.00370105877001268
0.00395343677486752
0.00420012989979941
0.00444066641423821
0.004674608751916
0.00490154278593689
0.0051210872513775
0.00531302785414753
0.00551905164964984
0.00571345118092346
0.00589729556640974
0.00607120002599046
0.00623527199162858
0.00638942672308487
0.00653353318157862
0.00666748761634708
0.00679122675519448
0.00690473106051782
0.00700804362839519
0.00710127401561218
0.00718457969238109
0.00725815528962285
0.00732221769706732
0.00737700279411363
0.00742276382583044
0.00745976855965459
0.00748830063530402
0.00750865534147859
0.00752114654188292
0.00752610272890302
0.00752387390458045
0.00751481643146774
0.00749928440049475
0.0074776075152491
0.00745009746617277
0.00741707473282503
0.00737886177784664
0.00733578494138016
0.00728816021723207
0.00723629375981391
0.00718049930851658
0.00712107936562014
0.00705825821388893
0.00699227608375459
0.00692330762971737
0.00685152934733997
0.00677719235087272
0.00670978875540964
0.00663161402130602
0.00655151454618432
0.00646954519762207
0.00638581232782384
0.00630023072611127
0.0062128840498474
0.00612376284306495
0.00603290537908466
0.00594029078941472
0.0058458887116987
0.00574964349060506
0.00565147381170842
0.00555126410695517
0.00544885449143265
0.0053440247455569
0.00523645555547945
0.00512562132340344
0.00501678443557698
0.00489638213306222
0.00477179784427893
0.00463994661819476
0.0044977526199178
0.00434069839977289
0.00416294765198981
0.00395509792111905
0.00370461679341304
0.00345166727730066
0.00315553617450647
0.00283815906925301
0.00351488428272829
0.00478540853997018
0.00660853510270964
0.00886992205987581
0.0114653309946981
0.0144599868919402
0.0179765182097279
0.0224175638015251
0.0286680475877964
0.0359794147747053
0.0431378890264987
0.0327531871819986
0.034784440256549
0.0432519748727663
0.0401348221151986
0.00858345738885067
0.0132520718815535
0.00451389961308118
0.00234841254363714
0.000785138209140598
0.000327462963388205
0.00035520121293497
0.000392810051088038
0.000420830625556505
0.000398634788417656
0.000319642652164715
0.000211201105894991
0.000123720076569012
0.000120327173944974
0.000198422388211063
0.000245776713577712
0.000364742997319581
0.000603946664492221
0.000908345729168948
0.00120178716688199
0.00146945746467656
0.00171659597123101
0.00195592723889243
0.00219226335433648
0.00242805979447574
0.00266330678128069
0.00289748999749352
0.00312973382293212
0.00335918161086171
0.00358501637586852
0.00380652197018633
0.00402307342080819
0.00423412744750742
0.0044391991080865
0.00463995986246852
0.00481478396953558
0.00500030105421018
0.00517603255444584
0.00534263091286537
0.00550041127989565
0.0056493787563509
0.00578941958407068
0.00592040525895137
0.00604223532282545
0.0061548465684592
0.00625821151021761
0.00635236025033234
0.00643738872584218
0.00651343996679685
0.00658069429944971
0.0066393531178526
0.00668963494772828
0.00673177400648428
0.00676601636865928
0.00679262192206094
0.00681185916733213
0.00682401346819438
0.00682938326332349
0.00682828985172075
0.00682106342066067
0.00680803664741648
0.00678951722811259
0.00676578751631739
0.00673713389231832
0.00670384198988683
0.00666620124297494
0.00662449233067604
0.00657898847583774
0.00652997620117075
0.0064777428455231
0.00642250656815514
0.0063645009466006
0.00630388810322089
0.0062408269770544
0.0061830743271657
0.00611889624029143
0.00605050378795028
0.0059805190204114
0.00590894342411723
0.00583587813950597
0.00576128610719475
0.00568524538683691
0.00560777628972294
0.0055289351069572
0.00544873721072928
0.00536719251032942
0.00528429568914804
0.00520002517166942
0.0051143424874571
0.00502717969804114
0.00493843930628133
0.00484794705961646
0.00475538910796418
0.00466666517181622
0.00456683499816344
0.00446537079258866
0.00435894806575007
0.00424500873656248
0.00412006190776027
0.00397876303878602
0.00381317588269664
0.00360797653823133
0.00341523959890503
0.0031109715365154
0.00270007590519707
0.00315119477436497
0.00413116940426516
0.00561759500671357
0.00754249759013052
0.00982287573496162
0.012525044122613
0.0157064886870798
0.0197379515021148
0.0251307391997549
0.0309610032598283
0.0337324619986637
0.0201484210718877
0.0199143486660689
0.0399015293710071
0.0524667452222077
0.00999456645244472
0.0127535073499345
0.0054252432445413
0.00239332273391805
0.000957250974023628
0.000350885371838156
0.000351053576211643
0.000376559309107114
0.000384948543478192
0.000345861669093641
0.000262588241928266
0.00016203790041928
9.31074521784146e-05
0.000105977123104774
0.000177016470082152
0.000250385716117704
0.000414301086451841
0.000674368540165943
0.000947264413350973
0.00118120293489458
0.00139166722558758
0.00159155659484001
0.00179217655755281
0.00199582263878839
0.00220294724027134
0.00241237988057625
0.00262281027477022
0.00283289762765734
0.00304145823856293
0.00324746793552081
0.00345006358123349
0.00364852400849058
0.00384223917606886
0.0040304834425054
0.00420805232443015
0.00437805921750464
0.00454804785090065
0.00470947910633854
0.00486275351719018
0.00500802118392026
0.00514523300914217
0.00527426531802737
0.00539499754841063
0.00550733774471307
0.00561122941779309
0.0057066448856202
0.00579360841574822
0.00587220919642825
0.00594258244401839
0.00600490044995895
0.00605935568620515
0.00610615577717795
0.00614552273951453
0.00617768780984361
0.00620289412382671
0.00622139024555129
0.00623343955581394
0.00623931630873697
0.00623931796662383
0.006233752763686
0.00622293638826017
0.0062071607953671
0.00618668607414074
0.00616177136895534
0.0061326721168847
0.00609964674907313
0.00606294580605053
0.00602281352828896
0.00597951141847257
0.00593331204578074
0.0058844292073858
0.00583309249224492
0.00577945550028706
0.00572849291126806
0.00567718864108671
0.00561841206143813
0.00555820816781267
0.00549660928751658
0.00543364865993337
0.00536942564996426
0.00530393535223592
0.00523725338092091
0.0051694213367758
0.00510051137669499
0.00503056795496304
0.0049596338947202
0.00488774453304078
0.00481492588589647
0.00474120015071655
0.00466657076069777
0.00459103476000265
0.00451452867259811
0.0044369039986126
0.00436189485173585
0.00428132486918236
0.00419855937087847
0.00411249059053024
0.00402102048798431
0.00392153145713229
0.00380921411544705
0.00367779366492747
0.00351024456948169
0.00336929828370754
0.00306938423429291
0.00258867857456524
0.00285843573369975
0.0035933555559369
0.00479279409341969
0.00642784287195276
0.00842781511054372
0.0108477135832845
0.0136809054900812
0.0172482276139495
0.0216943908144921
0.0259624659800083
0.0245440183142749
0.00976143178325456
0.00551293512914003
0.0345990823884078
0.0591970570951765
0.00978857704026351
0.0115731357593745
0.00679957034644586
0.00246781604374053
0.00115094940625976
0.000386222807073732
0.000346902637450103
0.000360264374858003
0.000351851751163119
0.00030335714045553
0.000219817605065806
0.000127900133633571
7.50346349732682e-05
9.79692232102996e-05
0.000170175614084376
0.000273700283995169
0.000471039448970947
0.000718451478432438
0.000939909041000163
0.00111890656063886
0.00128503644409914
0.00145037647499903
0.00162262212535902
0.0018019450214174
0.001987335969578
0.00217691499865097
0.00236886653090599
0.00256156906237711
0.00275363181271675
0.00294389852903345
0.00313140823242444
0.00331537485038916
0.00349516260622085
0.00367021259368444
0.00382777118084516
0.00399402260749177
0.00415147666315177
0.00430124512756511
0.00444356796300437
0.00457849955935993
0.0047059625508196
0.00482583392219754
0.00493800457811554
0.00504239473976539
0.00513895970163712
0.0052276775679627
0.00530857198933804
0.00538173033282349
0.00544728463938289
0.00550540348066575
0.0055562750009026
0.00560010036237865
0.00563709416382314
0.00566747755970664
0.00569148183982222
0.00570934037357557
0.00572129907600205
0.00572761195771454
0.0057285557516899
0.00572441916241734
0.00571550352928799
0.00570208944429029
0.0056844196997293
0.00566273087358831
0.00563725259693633
0.00560821609772266
0.00557584500856291
0.00554035690281835
0.00550198910998073
0.00546099871359465
0.00541759634746093
0.00537200916497089
0.00532594772179158
0.0052864698661981
0.00523608331511401
0.00518419670195196
0.00513102871884485
0.00507664061738263
0.00502108736759072
0.00496446811923308
0.00490680042269883
0.00484815849712151
0.00478859936857478
0.00472820875981621
0.00466705480360147
0.00460520747942444
0.0045427353018124
0.00447970260314677
0.00441617985782259
0.00435222656530507
0.00428791349533045
0.00422326272019485
0.00415825521535003
0.00409215512629111
0.00403036867669273
0.00396319163669942
0.00389393632983125
0.00382088170090994
0.0037421526153623
0.00365344875038854
0.00355023215449245
0.00341453488168303
0.00331898041814113
0.00303027383141377
0.00249439053506366
0.0026151627159174
0.00313811179396803
0.00408805821395325
0.0054695153815114
0.00721711600914423
0.00936743087789027
0.0118517626250457
0.0149263172551125
0.0183781331898035
0.0210190279909374
0.0158065136348872
-0.00139252517913213
-0.00521519047655514
0.0289871379818378
0.0569489113223589
0.00839383926619127
0.00925027399892016
0.00873509995000331
0.0025530087607547
0.0013608576123342
0.000443896037545191
0.000346958420950373
0.000345283995343936
0.000322800756702205
0.000270506369418288
0.000188578094876278
0.000105448962189853
6.67167308041766e-05
9.78264820889187e-05
0.000178190703239997
0.000309718730129314
0.000519866726308805
0.000731083527667796
0.000899809323540582
0.00103528714120507
0.00116836207438574
0.0013079892200815
0.00145848728984922
0.00161871536923706
0.0017867061252382
0.00196018161611849
0.00213700665364589
0.00231538549488138
0.00249378910546925
0.00267096949480371
0.00284589373155769
0.00301772461330837
0.00318581619685298
0.00335057301781598
0.00349827052716967
0.00365290839100839
0.00379976139413695
0.00393957178525529
0.00407247650469331
0.00419847307565775
0.00431747110846351
0.00442935465616516
0.00453402853348996
0.00463142775581653
0.0047215234781463
0.00480430455665569
0.00487979808433384
0.00494809337410899
0.00500932272810514
0.00506365410979158
0.00511127472614423
0.00515238247028409
0.00518718806432226
0.00521590605578714
0.00523875954621394
0.00525597019833686
0.00526776981735904
0.00527439499697323
0.00527610382248806
0.00527316678120393
0.00526587239132558
0.00525449316108953
0.00523925833856604
0.00522038533277601
0.00519808107893902
0.00517255221504078
0.00514399761575587
0.00511260963820351
0.00507860154460915
0.00504221345501012
0.00500365397040938
0.00496314890658649
0.00493061744498962
0.00488956982345811
0.00484510476187918
0.00479930064839489
0.00475235249219427
0.00470434301807876
0.00465534290422999
0.00460545177205869
0.0045547032499567
0.0045031702160203
0.00445092080769349
0.0043980522152493
0.00434465209972368
0.00429081306027099
0.00423663093402257
0.00418220113207954
0.00412763283380634
0.00407302989983224
0.00401852105424542
0.0039641947956817
0.00391013310198395
0.00385593355106009
0.00380623381214363
0.003752282940247
0.00369725936278523
0.00363966087276357
0.00357824471753026
0.00350916389413463
0.00342963221700286
0.00332126287436414
0.0032659249242197
0.00299205155821838
0.00241094873341248
0.00240685033086394
0.0027430373119792
0.00347268591897886
0.00462812182807091
0.00614301613438003
0.00803112638260659
0.0101641401644341
0.0127198729707081
0.0151333268618072
0.0160395785102602
0.00675589780458458
-0.0101411401543218
-0.014270903725499
0.0229360556177612
0.0464995665877464
0.00751761936226632
0.00549281937423197
0.0114597702136628
0.00269790756786803
0.00156508363025692
0.000527000863054333
0.000351911792388661
0.000331730939166575
0.000298153331631371
0.000242214497221291
0.000166799205100524
9.25101390111971e-05
6.6616664766366e-05
0.000106422442287908
0.000197097204444872
0.000349930047668066
0.000551502384457084
0.000716816551093961
0.000840285655171721
0.000942991119126601
0.00105108019804617
0.00117077279762207
0.00130377795129309
0.00144828260302526
0.0016017105746815