/*--------------------------------*- C++ -*----------------------------------*\
  =========                 |
  \\      /  F ield         | OpenFOAM: The Open Source CFD Toolbox
   \\    /   O peration     | Website:  https://openfoam.org
    \\  /    A nd           | Version:  7
     \\/     M anipulation  |
\*---------------------------------------------------------------------------*/
FoamFile
{
    version     2.0;
    format      ascii;
    class       volScalarField;
    location    "20000";
    object      nut;
}
// * * * * * * * * * * * * * * * * * * * * * * * * * * * * * * * * * * * * * //

dimensions      [0 2 -1 0 0 0 0];

internalField   nonuniform List<scalar> 
15600
(
1.63144856440487e-09
2.94008282952205e-10
1.99928276344825e-11
3.87143958591962e-11
7.81787713135547e-12
5.86999804442524e-13
2.23399279014515e-12
4.3211213397129e-12
7.8979666961168e-12
1.42443216244185e-11
2.55665551660479e-11
4.58119704703031e-11
7.76775430092079e-11
1.11189193219117e-10
1.02423414827391e-10
5.28829806165806e-11
5.93860422129103e-11
1.13988139630925e-10
1.95498562630529e-10
3.20019369919659e-10
4.92470619457125e-10
7.1143347267713e-10
9.7032421680076e-10
1.26106656839517e-09
1.57634237852348e-09
1.91065366782106e-09
2.25995005283244e-09
2.62132557394636e-09
2.9924969246668e-09
3.37159355788153e-09
3.75693694628914e-09
4.14694528760859e-09
4.54004511213139e-09
4.93464518464468e-09
5.32914067181867e-09
5.72195493167241e-09
6.11164189179583e-09
6.49697429604133e-09
6.87695571974276e-09
7.25134887153287e-09
7.6204227848208e-09
7.98367261557492e-09
8.33701914095544e-09
8.67510029179106e-09
8.99533271404642e-09
9.2963733223321e-09
9.57715324276989e-09
9.83687620697159e-09
1.00749670440419e-08
1.02910603290237e-08
1.04849270518017e-08
1.06564938148525e-08
1.0805813785568e-08
1.09330840036426e-08
1.10386400188149e-08
1.11229479492272e-08
1.11866016666592e-08
1.12302813782157e-08
1.1254750459227e-08
1.12607600272036e-08
1.12490734590921e-08
1.12203965657222e-08
1.11755015371873e-08
1.11153288575762e-08
1.10409191021106e-08
1.09534039831363e-08
1.08538953446427e-08
1.07434601686096e-08
1.06230287194437e-08
1.0493372277187e-08
1.03550246521309e-08
1.02083102056002e-08
1.00536857834334e-08
9.89168773269154e-09
9.72300326412965e-09
9.54832519118502e-09
9.36803622473565e-09
9.18261335853387e-09
8.99206919997199e-09
8.79621445469283e-09
8.59557789773073e-09
8.38980345010135e-09
8.17937539623565e-09
7.96273584104826e-09
7.7409989686345e-09
7.51281217850578e-09
7.27732687441404e-09
7.03387296273645e-09
6.78146344368752e-09
6.51878218326519e-09
6.24414820939112e-09
5.9558277722111e-09
5.65134270807728e-09
5.32902638995353e-09
5.00754741585333e-09
4.67399018143815e-09
4.31866822127489e-09
3.94019778506621e-09
3.53549608592015e-09
3.10970057077327e-09
2.66486013442331e-09
2.22111561142603e-09
1.77987658879513e-09
1.3543008326376e-09
1.36330375671687e-09
1.87494210375975e-09
1.93208938176091e-09
1.85456657388863e-09
1.67545779959617e-09
1.45367982989803e-09
1.23538377824372e-09
9.94168189828251e-10
7.77463275114913e-10
5.94285080271884e-10
4.91486028785495e-10
5.0755556060339e-10
9.07571851479008e-10
3.31293428878424e-09
4.00347104566562e-09
1.96798821164965e-09
3.06024086011773e-07
5.83602018269243e-08
4.17966522632739e-09
7.54551341882603e-09
1.69772612595995e-09
1.56187156323321e-10
4.20748622706864e-10
8.17245196288597e-10
1.49245674287591e-09
2.69129584797411e-09
4.82945078071176e-09
8.66510231085255e-09
1.4761467778119e-08
2.13440787980809e-08
1.98906619771988e-08
1.01865456791782e-08
1.14685714809059e-08
2.19984461469029e-08
3.75978264944248e-08
6.13554248232212e-08
9.41652156768903e-08
1.35749174204183e-07
1.84854808916503e-07
2.39949300294834e-07
2.99639419575834e-07
3.62880467460053e-07
4.28904599964278e-07
4.97166075996615e-07
5.67240162328601e-07
6.38783470391787e-07
7.11491009490075e-07
7.85077879088223e-07
8.59261768293937e-07
9.33757401159385e-07
1.00827664426418e-06
1.08253540630854e-06
1.15627296243708e-06
1.22926898326147e-06
1.30134504076371e-06
1.37246468581286e-06
1.4426843346564e-06
1.51190854882947e-06
1.57889000449101e-06
1.64283138505957e-06
1.70348250578307e-06
1.76059294561557e-06
1.81396162902657e-06
1.86343633287597e-06
1.90890451719337e-06
1.95029099367436e-06
1.98754515224858e-06
2.0206444624383e-06
2.04958965049621e-06
2.07440801599077e-06
2.09515268370608e-06
2.111901379384e-06
2.12475591572203e-06
2.13383490428882e-06
2.13927278364674e-06
2.14120278980222e-06
2.13976090926135e-06
2.13507384945735e-06
2.12728205562935e-06
2.11655814557574e-06
2.10309456607024e-06
2.08710144883726e-06
2.0687862557157e-06
2.04834866501561e-06
2.02596362454407e-06
2.00177684543741e-06
1.97588998556882e-06
1.94836625619146e-06
1.91929391327433e-06
1.88877642412201e-06
1.85694567247347e-06
1.82393531709787e-06
1.78981984892513e-06
1.75469321979295e-06
1.7185613337186e-06
1.68139049299498e-06
1.6432847559919e-06
1.60417849879273e-06
1.56416812420535e-06
1.52295812750545e-06
1.48076451320867e-06
1.4373334307669e-06
1.39250550540605e-06
1.3461551194106e-06
1.29809755877514e-06
1.24808352229819e-06
1.1957958910216e-06
1.14090324970169e-06
1.08293619826136e-06
1.02154387352668e-06
9.59918385200762e-07
8.95942003226579e-07
8.27814902329697e-07
7.5529282505022e-07
6.77758173042296e-07
5.96248025583801e-07
5.11076574573846e-07
4.26217965349179e-07
3.41815793736971e-07
2.60096081907597e-07
2.61683022178779e-07
3.62826632468629e-07
3.73560670445703e-07
3.5775960589131e-07
3.22610149882615e-07
2.79695708134026e-07
2.37479057004083e-07
1.91138268407876e-07
1.49635346665589e-07
1.14812188843075e-07
9.57497872272045e-08
1.00541288254974e-07
1.8163402444222e-07
6.15783112167622e-07
7.14195620429564e-07
3.45002483885223e-07
6.1521571763107e-06
1.294632787234e-06
9.85698080690658e-08
1.67566829567695e-07
4.1958391492057e-08
4.56103438621421e-09
9.2434846967078e-09
1.79412623172102e-08
3.27026215148074e-08
5.89808229772291e-08
1.05884897909917e-07
1.90184393359422e-07
3.25038216542583e-07
4.7383891545544e-07
4.4727949693703e-07
2.26447050340699e-07
2.55635926847919e-07
4.87613846686121e-07
8.22737479633211e-07
1.32751297151862e-06
2.01760689712381e-06
2.88603412399774e-06
3.90585023402565e-06
5.04425121167032e-06
6.27151544995458e-06
7.56560522274465e-06
8.91060875770203e-06
1.02955736556283e-05
1.17122529655699e-05
1.31542458764942e-05
1.46160440930577e-05
1.60926310874806e-05
1.75790803116211e-05
1.90704101345245e-05
2.05615512803683e-05
2.20474514704555e-05
2.352346874309e-05
2.49857186741972e-05
2.64309183581557e-05
2.78584581625975e-05
2.926921771526e-05
3.06349942516144e-05
3.19456735124057e-05
3.31991427052903e-05
3.43905739983273e-05
3.55156402760243e-05
3.65708697558224e-05
3.75536105378262e-05
3.84618656898609e-05
3.92942409193164e-05
4.00497301031865e-05
4.07277805457127e-05
4.13282183502295e-05
4.18513144331974e-05
4.22977777608583e-05
4.26687426866647e-05
4.29657632458267e-05
4.31906960877966e-05
4.33456780247446e-05
4.34328398864503e-05
4.34543670048367e-05
4.34123072696945e-05
4.33089936089678e-05
4.3147366322813e-05
4.29307630550597e-05
4.2662873034088e-05
4.23473800092682e-05
4.19878598387985e-05
4.15874779466852e-05
4.11488985334726e-05
4.06739993616009e-05
4.01639749296983e-05
3.96205029666802e-05
3.90455544604134e-05
3.84416462717248e-05
3.78113820854948e-05
3.71562075216512e-05
3.64780549874256e-05
3.5777155459563e-05
3.50529025784339e-05
3.43074570507018e-05
3.35395626483941e-05
3.27512472164855e-05
3.19367314498985e-05
3.11003060269492e-05
3.02370491807797e-05
2.93442611484917e-05
2.84188774058668e-05
2.74568417899227e-05
2.6453380518349e-05
2.54019679466307e-05
2.4295467295423e-05
2.31239901127149e-05
2.18788434937802e-05
2.05967423059617e-05
1.92588042662877e-05
1.78297517745176e-05
1.63039050526051e-05
1.46665853268997e-05
1.29422382379093e-05
1.11301265079054e-05
9.31807980895161e-06
7.50574590657872e-06
5.72456212043515e-06
5.74778979023518e-06
8.03935280534173e-06
8.24606667269277e-06
7.86369226974041e-06
7.0748469966091e-06
6.135730137368e-06
5.21449742737773e-06
4.21274470940607e-06
3.31007149077559e-06
2.55246400011936e-06
2.13853239149776e-06
2.25084764696721e-06
3.95671174660245e-06
1.19334899363986e-05
1.35052178856722e-05
5.92545366039872e-06
3.44247149161532e-05
9.73774483182229e-06
8.41311658906241e-07
1.36822694681982e-06
3.80512392343274e-07
4.78425363418779e-08
7.57328474751867e-08
1.46028051167712e-07
2.65254747543128e-07
4.78260257277043e-07
8.58491892377217e-07
1.54040828628225e-06
2.63023675750401e-06
3.84128348783233e-06
3.66861876331877e-06
1.83173683959233e-06
2.0853546207732e-06
3.88333808164234e-06
6.34444989835958e-06
9.94145280997379e-06
1.47459921958051e-05
2.06859058425717e-05
2.75462597803857e-05
3.50720465427458e-05
4.30394696520021e-05
5.12893999375984e-05
5.97126974542306e-05
6.82396079602155e-05
7.68215141033469e-05
8.54243207546582e-05
9.40210403872848e-05
0.000102588882768721
0.000111106246409744
0.000119551670777639
0.000127903432556517
0.000136140011405707
0.000144242207440664
0.000152194950444415
0.000159983240483842
0.000167604024214423
0.000174913837085415
0.000181913262396575
0.000188606772597704
0.000194978228111967
0.000201011784731076
0.000206693736902909
0.000212014065498003
0.000216966049399369
0.000221545448614908
0.000225750209965789
0.000229579470743142
0.000233033893607666
0.00023611532372356
0.000238827127363096
0.000241174168375967
0.000243162787944571
0.000244800806963145
0.000246097058784166
0.000247061319170627
0.000247703085779544
0.000248031854677532
0.000248056285246764
0.000247786146580777
0.000247233759274098
0.000246413123601766
0.00024533976168617
0.000244029197651504
0.000242496525939465
0.000240755108708168
0.000238816195224735
0.000236687554400436
0.000234373822875105
0.000231881846755053
0.000229219738707934
0.000226398137073664
0.000223428429641873
0.000220316342138304
0.000217070577768787
0.000213691763877759
0.000210176092210075
0.000206533429080136
0.000202756461510933
0.000198854066104087
0.000194809918695002
0.000190617929312555
0.000186265202931468
0.00018173643649327
0.000177013453003741
0.00017207240350619
0.000166884460935173
0.000161410562751944
0.000155605438433237
0.000149407166120768
0.000142751894856651
0.000135630467556202
0.000128077253830566
0.000119888127508944
0.000110995304987787
0.000101267113519967
9.07917018022541e-05
7.95138417969175e-05
6.79857367850455e-05
5.60290400416486e-05
4.35596533570433e-05
4.34503650431406e-05
6.00431755221381e-05
6.1428199931884e-05
5.87244104637975e-05
5.31926399421462e-05
4.66320220237757e-05
4.00499218619923e-05
3.28024480389006e-05
2.60955972634395e-05
2.03519764048311e-05
1.71421659883014e-05
1.78656717560954e-05
2.96064936115904e-05
7.8162700999083e-05
9.22945328120614e-05
3.21715707849329e-05
8.97998862573888e-05
3.64300991812609e-05
4.13112334084685e-06
6.55689420973857e-06
2.01101425891698e-06
2.88282086779177e-07
3.67664543392609e-07
6.99545591832578e-07
1.26368954283866e-06
2.27520870919117e-06
4.07788379544185e-06
7.28185668267035e-06
1.23295263715624e-05
1.78155088476489e-05
1.71380829658006e-05
8.5206026094375e-06
9.74164274141546e-06
1.70495003586099e-05
2.63404412339245e-05
3.94363507831229e-05
5.65509261773325e-05
7.72683594072368e-05
0.000100577500720422
0.000125409150518236
0.000150926488655847
0.000176607908555411
0.000202141273315464
0.000227364083437027
0.000252184153205389
0.000276555123366242
0.000300448503324599
0.000323845222702568
0.000346726098627941
0.000369069762662262
0.000390851830529463
0.000412046544153662
0.000432631755646061
0.000452594899917437
0.000471909970159599
0.00049032438717312
0.000507880059322924
0.000524599024914426
0.00054047091083307
0.000555475441642995
0.000569595046586814
0.000582815972470194
0.000595131828852203
0.000606542325066917
0.000617051438761064
0.000626666683154972
0.000635396899221305
0.000643253102802621
0.000650247731977395
0.000656395496733163
0.00066171334158059
0.000666220481622027
0.00066993845185622
0.00067289020140657
0.000675099976786497
0.000676590774165345
0.000677384921295872
0.00067750228433841
0.000676964613942981
0.000675798658369886
0.000674034393709737
0.000671704752895928
0.00066884247606439
0.000665479220531936
0.000661642856804832
0.00065735675517924
0.000652636681052952
0.000647491289369774
0.000641933967091418
0.000635980534326295
0.000629652183025949
0.000622972372776009
0.000615951276945031
0.000608606991859571
0.000600939462513941
0.000592938405474138
0.000584639418508235
0.000576009262055153
0.000567045644301923
0.000557730935671928
0.000548041712603197
0.000537948747829896
0.000527413463879122
0.000516389314691449
0.000504815585266139
0.000492617836156716
0.000479695787793584
0.000465929884757397
0.000451156986181021
0.000435197028826324
0.000417774847616923
0.000399021579150876
0.000378437031521836
0.000355753904845102
0.000330507659999605
0.000302725443019036
0.000272055269078302
0.000239707486132602
0.0002053991144013
0.000166649144728745
0.000165333003061797
0.00021892360556354
0.000224739730777757
0.000217237638264286
0.00020058018785985
0.000180005923715908
0.000158326180771243
0.00013345331855334
0.000109304253461947
8.75882548400698e-05
7.49332560899311e-05
7.70726179133988e-05
0.000119173642663746
0.000270405848209421
0.000355897660027049
9.7659250675695e-05
0.000167385757093168
8.48417254684371e-05
1.43769011241679e-05
2.27295742138368e-05
7.61102573367538e-06
1.23215182167276e-06
1.30140114825958e-06
2.42387239028953e-06
4.34047606466568e-06
7.78159114116545e-06
1.38631253235818e-05
2.43995027951831e-05
4.02881926108325e-05
5.62228675401721e-05
5.3773168960737e-05
2.74832220130476e-05
3.0758581979141e-05
4.91188753396211e-05
7.14076998559818e-05
0.000102905584119108
0.000143890093353331
0.000192398233973761
0.000245148055553402
0.000299376059247106
0.000353278151620974
0.0004059610698495
0.000457014173169683
0.000506334436522177
0.000553925036907613
0.000599853280217549
0.000644192291454418
0.000687012854131701
0.000728368014007282
0.000768294319560241
0.000806812811158947
0.000843934195337822
0.000879666169305708
0.000914031444104136
0.000946750831352768
0.0009778105139032
0.00100731714732277
0.00103527912044499
0.00106169142177244
0.0010865430519078
0.00110982617487682
0.00113153755720368
0.00115168439000097
0.00117028195735398
0.00118735087857028
0.00120291585048969
0.00121700224737593
0.00122963759833286
0.00124085046954109
0.00125067196754334
0.00125913572363336
0.00126627807120622
0.00127213815439116
0.00127675664850886
0.00128017553102472
0.00128243420374365
0.00128357028262916
0.00128361685727508
0.00128260953679649
0.00128059135380291
0.0012776101438094
0.00127371810583107
0.00126896696532204
0.0012634065060801
0.00125708039785489
0.00125002519589092
0.00124226517917717
0.00123381275381596
0.00122468792341879
0.00121491407577151
0.00120452300517224
0.00119355117066099
0.00118201199765279
0.00116993409112608
0.00115731964074935
0.00114418342180937
0.00113050617160742
0.0011162670084258
0.00110145223063263
0.00108603801809569
0.00106998138082574
0.00105323174204318
0.00103572207676275
0.0010173710425581
0.000998073198738084
0.000977698439981675
0.000956072651177073
0.000932985387080318
0.000908150885788347
0.000881244032143848
0.000851684233651154
0.000819567867132158
0.000784089373368341
0.000744687048525875
0.000700437580840591
0.00065115034651248
0.000596008335722543
0.0005367536763766
0.000473114659052401
0.000399390593980437
0.000395309809640762
0.000501373635042309
0.000519289402148041
0.000508460335181966
0.000479545880939921
0.000440736072139535
0.000397526142065298
0.000345638218873417
0.000293089956497385
0.000243428678275066
0.000213827557928596
0.000218412582145977
0.000318354472453506
0.000615665869455581
0.000896092901854609
0.000221376229563755
0.000275682259822987
0.000148894198644775
3.92734767049401e-05
6.28198110370896e-05
2.28688800470495e-05
4.15538031831275e-06
3.73060587687064e-06
6.738616461059e-06
1.19038064572361e-05
2.1127789669947e-05
3.70466091237896e-05
6.31751495037882e-05
9.93206999252986e-05
0.000130521242029318
0.000121350882948866
6.65699742492176e-05
7.1172548558494e-05
0.000104445272185684
0.000146403608605714
0.000207474353637816
0.000285658702266644
0.000374603420432935
0.000467240012762598
0.000559060685426615
0.000647687135667372
0.000732349322749535
0.000812901684276202
0.000889574573869417
0.00096264701168976
0.00103242961578437
0.00109918556096671
0.00116313996146717
0.00122446467560393
0.00128328966895918
0.0013397090065782
0.00139379236773186
0.00144559064144942
0.00149502436968244
0.0015418345835879
0.00158623559019074
0.00162830448058223
0.00166805406803055
0.00170549312025196
0.00174062431960232
0.001773453328521
0.00180399106431619
0.00183226163310389
0.00185829893152564
0.00188214308905794
0.00190383855462361
0.00192342962511883
0.00194096248554607
0.00195648380825489
0.00197004291863484
0.00198169181700377
0.00199148553232121
0.00199948225414162
0.00200574176088139
0.00201032496499061
0.00201328883904001
0.00201468723778949
0.00201456736531572
0.00201297950753586
0.00200998370111157
0.00200564641906971
0.00200003985405258
0.00199323547060518
0.00198530181308923
0.0019762988987449
0.00196627700865565
0.001955269292591
0.00194329174555816
0.00193037114968192
0.00191653824969124
0.00190183527089806
0.00188631248384772
0.00186998541721198
0.00185290709226289
0.00183509550525875
0.00181651727069198
0.00179714545839366
0.00177696512428792
0.00175595216332562
0.00173407276241405
0.00171126359350912
0.00168744978820336
0.00166253319600994
0.00163639432523096
0.00160887921329159
0.00157979708027625
0.00154889437611694
0.00151586174971025
0.00148028206327873
0.0014416707967081
0.00139918315521122
0.00135274066243508
0.00130125769949886
0.00124381727443894
0.00117898582430374
0.00110622420757425
0.00102417357758876
0.000934859217823528
0.000838302834804041
0.000725410033580227
0.000717221595412207
0.000880994992114404
0.000920934039926107
0.00091325100832743
0.000876085571406762
0.000820294968604068
0.000754597990696003
0.000672482158588873
0.000586892204801467
0.000503143068379778
0.000454050374558849
0.000462705583272096
0.000644779875247068
0.00108433377763858
0.00167889620325471
0.000426761046671856
0.0004344988784966
0.000224022608725427
8.65207992817952e-05
0.00014347194472812
5.77451826606138e-05
1.17261600204366e-05
9.17938807369906e-06
1.59155947899324e-05
2.75483452885605e-05
4.7971232033639e-05
8.16371158252747e-05
0.000132438925258328
0.000194666484088242
0.000237994726649417
0.000212640139353676
0.000126722112238657
0.000130911075739338
0.000182693623667277
0.000253826803650045
0.00035770075114801
0.000484783553973933
0.000622386141065328
0.00076004648381454
0.000892735591372949
0.00101828987607646
0.00113657598035573
0.00124794990532754
0.00135310948351954
0.00145267093284554
0.00154722401455077
0.00163723993997324
0.0017231094522004
0.00180513021697195
0.00188353113508785
0.00195848416540448
0.00203012407522547
0.00209856300171917
0.00216340027820895
0.00222483822993408
0.00228305355193374
0.00233811520486743
0.00239004953841503
0.00243888170601507
0.00248462934207773
0.00252731289825771
0.00256695891801985
0.00260360974387419
0.00263731916596602
0.00266814814025388
0.0026961620870538
0.00272142546892904
0.0027440042482576
0.00276396429380527
0.00278137415874637
0.0027963051515749
0.00280883187657814
0.00281903234212277
0.00282698617973587
0.00283277386141936
0.00283647060882789
0.00283814708004193
0.00283786523477075
0.00283569058067219
0.00283170054398241
0.00282598065657472
0.00281862344706488
0.00280972050706553
0.00279935943732971
0.00278761687159522
0.00277455718961633
0.00276022278264232
0.00274463313856041
0.00272782213800116
0.00270982769281402
0.00269070227626378
0.00267051086910897
0.00264927961647418
0.00262711430629648
0.00260396024002638
0.00257978616591594
0.00255455876628257
0.00252826420939696
0.00250086866712044
0.00247232569222579
0.00244255109981511
0.00241144379326449
0.0023788727686451
0.00234467820725808
0.0023086553200239
0.00227054951263623
0.00223002468028753
0.00218666764321295
0.00213992556333609
0.00208914559076689
0.00203326212895129
0.00197191578689847
0.00190377552132213
0.0018275176606793
0.00174117190769552
0.00164373338803497
0.00153324299134615
0.00141169393747011
0.00127956656922681
0.00112407269769622
0.00110985818447533
0.00133008353953672
0.00140268407131885
0.00140635034066898
0.00136670466465675
0.00129754219835891
0.0012110930893049
0.00109913079732801
0.000979967808394701
0.000860736723573181
0.000794076935756676
0.000808006494115986
0.00108869164715646
0.00163848323950805
0.00261459923261891
0.000735033990610126
0.000675092793108719
0.000311822581660683
0.00015564011956357
0.000272768562246874
0.000126764291804948
2.86720608070496e-05
2.00576937650211e-05
3.30347482394934e-05
5.55878894293735e-05
9.40024046325995e-05
0.00015327809908227
0.000234021657402076
0.00032007309345212
0.000364983713337659
0.000314410400994092
0.000201941225615831
0.000207227699649813
0.00028447232700928
0.000397096755177615
0.000555730393914714
0.000738459347613851
0.000927818732631887
0.00111166400625738
0.00128577148158123
0.00144863074651439
0.00160095176655139
0.00174361532541845
0.00187778556077717
0.0020043956431029
0.00212429769232133
0.0022381563425025
0.00234651749212223
0.00244979748070865
0.00254831995204424
0.00264233290350558
0.00273203596121055
0.00281743870664125
0.00289820626510114
0.00297473325683099
0.00304718024495958
0.00311562252669818
0.00318010481620653
0.00324066993595546
0.00329735155929223
0.00335018609572621
0.00339921702461708
0.00344450601563442
0.00348612781185707
0.0035241652808077
0.00355870582735253
0.00358983512941043
0.0036176398551951
0.00364220596463789
0.00366362203569595
0.00368197939391907
0.00369737284457754
0.00370990071207054
0.00371966293703098
0.00372675989205269
0.00373128546794056
0.00373332749145312
0.00373296316946302
0.00373027359139178
0.00372535371789861
0.00371830827425442
0.00370925015200788
0.00369829113543988
0.00368553787662978
0.00367108362134693
0.00365500704573212
0.00363736011882332
0.00361816567513026
0.00359746510887128
0.00357530325951987
0.00355174260166002
0.0035268634820955
0.00350076141813168
0.00347347254210807
0.0034449336292569
0.00341511352629012
0.00338397350723464
0.00335149736729054
0.00331764184470833
0.00328234607216043
0.00324550460958076
0.00320698887995711
0.00316663392291987
0.00312423820168361
0.00307954474554047
0.00303223324083317
0.00298188341803497
0.00292797536288638
0.00286981875205707
0.00280658739642979
0.00273703074347482
0.00266042213182502
0.00257523380983281
0.00247968814769155
0.00237126241878559
0.00224838549002216
0.00210844676008748
0.00195308874335199
0.001783272779373
0.00158201728859759
0.001557976944114
0.00183162357655192
0.00194608865714821
0.00196911355391429
0.00193293371865051
0.00185462300399706
0.00175002360697987
0.00160997277453299
0.00145821423986072
0.00130415902759706
0.00122331584767731
0.00124245988605581
0.00163092283279541
0.00224986708865251
0.00362652929941634
0.00115018676167835
0.00104458469484211
0.000417437721954684
0.000241434021680929
0.000436734010523823
0.000247053000966289
6.2152304365108e-05
3.97388808329172e-05
6.16024115418864e-05
0.000100036617520556
0.000162928029872373
0.000252730659160825
0.000362650582598957
0.000463976448389299
0.000498546254999682
0.000418413780384925
0.000287326650438884
0.000299354735783347
0.000412733499035035
0.000579162270907031
0.000800136286037014
0.00104032629852397
0.00128139982359451
0.00151082404670767
0.00172595412642065
0.00192596910807391
0.00211241784079334
0.00228662962719358
0.00245018075686257
0.00260427722566263
0.002750002590904
0.00288819374224385
0.00301953729308205
0.00314455931468996
0.00326367301040656
0.00337720025850685
0.00348542252178004
0.00358808994211843
0.00368521825539893
0.0037772162817871
0.00386424494588852
0.00394639521131322
0.00402373327633046
0.00409632095694141
0.00416420945711554
0.00422745262528908
0.0042861123828195
0.00434027092212631
0.00439002504401021
0.00443548060395505
0.00447674797876804
0.0045139350529641
0.00454715005160891
0.00457649980949582
0.00460209358891605
0.00462404326919055
0.00464246427941649
0.00465747552511863
0.00466919745759269
0.0046777504414559
0.00468324721328114
0.00468579293508325
0.00468548037101622
0.0046824063495653
0.00467668326363659
0.00466843487012828
0.00465779413059454
0.00464489275670597
0.00462985613705721
0.00461279382930259
0.0045937988068396
0.00457293288204079
0.00455022195877139
0.00452571543016678
0.00449946473584117
0.00447154187862761
0.00444209122345452
0.00441119265372928
0.00437883483477205
0.00434496081076153
0.00430953782973644
0.00427252232874551
0.00423389326621747
0.00419359797700616
0.00415156002065771
0.00410765246567924
0.00406171857552969
0.00401355889225258
0.00396292948248876
0.00390952067659054
0.00385294564854042
0.00379269965226886
0.003728154944523
0.00365848398219555
0.00358268558448411
0.00349935770400887
0.00340732279114863
0.00330492639435421
0.00318989197593116
0.00305913595190702
0.00291044004285271
0.00274049857558901
0.00255031733685132
0.00234125321668477
0.00209159525409072
0.00205297016850587
0.00237566759707186
0.00253920375975723
0.00258886134201582
0.00256177236646922
0.00247854804020091
0.00235861528887197
0.00219272687307253
0.00200977773332774
0.00182230113810896
0.00173023721773458
0.0017531638666655
0.00225183393198377
0.00289821220565363
0.0046673104945602
0.00165275456922816
0.00161056455057521
0.000544232018332997
0.000339919732792461
0.00060645652736679
0.000433035563373479
0.000121502352043171
7.23877976358966e-05
0.000104921052322784
0.000163564974451927
0.000255409141144663
0.000376491355822224
0.000510133243985201
0.000616321439867123
0.000631767233397261
0.00052301667830133
0.000381878073454437
0.000409065554200614
0.000571242436509903
0.000800795995041319
0.00108677500256155
0.00138325914764908
0.00167471097431634
0.00194858523322645
0.00220412404020042
0.00244103866190495
0.00266162723775339
0.00286757040885871
0.00306079141914036
0.00324272509369462
0.00341465545501369
0.00357757225884191
0.00373228968571652
0.00387943603964674
0.00401951003028364
0.00415290432501852
0.00427994389293171
0.00440017068074084
0.00451397464098916
0.00462172298139656
0.00472358953710789
0.00481968740793372
0.00491010680382142
0.00499493023622685
0.00507422834925264
0.00514807422617011
0.00521654994214391
0.0052797595386418
0.00533782303351706
0.00539087034576576
0.00543903578418409
0.00548245036188916
0.00552124462599369
0.00555554694420652
0.00558548777702482
0.00561119991304258
0.00563281962199574
0.00565048642176523
0.00566434122454179
0.00567452423020386
0.00568116694747988
0.00568439182474444
0.00568430727973213
0.00568102581878558
0.00567467691318352
0.00566540289161016
0.00565335617882343
0.00563868781889693
0.00562154131603636
0.0056020419343316
0.00558029674050155
0.00555637756970193
0.00553031292373357
0.00550216075449591
0.00547197858207261
0.00543987766467334
0.00540604221554011
0.00537048994162637
0.00533320520110179
0.00529413445595647
0.00525324212661292
0.00521048010254213
0.00516582080059044
0.00511920204223017
0.00507053114669221
0.00501965965580914
0.00496640250324936
0.00491052572682714
0.00485174299672992
0.00478969221603781
0.00472392030597139
0.0046538389367513
0.00457871315004184
0.00449758027347015
0.004409265191285
0.00431222778101224
0.00420481690403231
0.0040852783068737
0.00395081471463977
0.00379777981246624
0.00362324751599289
0.00342318133816152
0.00319771176075231
0.00294842854857132
0.00264845068123341
0.00259016385515853
0.00295647973243036
0.00317416499729424
0.00325675490122644
0.00324387199530083
0.00315974160805858
0.00302726643089158
0.00283794253416598
0.00262526875141112
0.00240599316093025
0.00230436902154928
0.00232829601196982
0.00293293864936883
0.00356883311120655
0.00482747162874292
0.00221055475500911
0.00246034056420103
0.000690912485109407
0.000447271857577591
0.000759932508568227
0.000688552090106598
0.000217349469901185
0.000122572747052709
0.000165504765864609
0.000247030167945049
0.000369488521485933
0.000519146967058064
0.000668992768739385
0.000770976827679277
0.000763019540410705
0.000630365237228778
0.000487291580510918
0.000539518849327116
0.000762989953122393
0.00106035058587738
0.00141045741183837
0.00176086022669476
0.00210099902879218
0.00241813803768865
0.00271345174177894
0.00298698358614134
0.00324166642055443
0.00347944477388798
0.00370252648028328
0.00391253785345089
0.00411093599561767
0.00429884759121307
0.004477203541061
0.00464672875792547
0.00480800495009407
0.00496149502674526
0.0051074738067722
0.00524549564545342
0.0053761591514449
0.00549981686303718
0.00561666515277361
0.00572684417719512
0.00583047058712579
0.00592764970861384
0.00601847386877134
0.00610303743048366
0.00618144449600048
0.00625382238795925
0.00632031552662761
0.00638107894753346
0.00643627179926701
0.0064860490504605
0.00653056422895681
0.00656996774627943
0.00660441161651861
0.00663404970080316
0.00665903911722629
0.0066795397921125
0.00669571280251507
0.00670771778155544
0.00671570468427958
0.00671981297004887
0.00672016657253132
0.00671689338965329
0.00671013937208738
0.00670006467336935
0.00668684027299648
0.00667063563743775
0.0066516114739003
0.00662990784130247
0.0066056454928838
0.00657890638018946
0.00654972087839947
0.00651815613257613
0.00648428450005512
0.0064482978579608
0.00641030590847028
0.006370326642915
0.0063283418268671
0.00628429936176902
0.00623815991325533
0.00618987092373734
0.00613939713429304
0.00608666669138946
0.00603157039225924
0.0059739384399643
0.00591355772819191
0.00585016029358628
0.00578341805602805
0.00571291751086365
0.00563814058169942
0.00555841737746078
0.00547290794520329
0.00538051824822321
0.00527990273733075
0.00516936267749093
0.00504685613027667
0.0049104644652018
0.00475688613799917
0.00458191653589064
0.00438188057491703
0.00415198269395496
0.00389129085884278
0.00360141060084792
0.00325002085380536
0.00316709657335687
0.00357080546260372
0.00384563401429467
0.00396633824376075
0.00397214571800018
0.00389074378724497
0.00374835497221195
0.00353796072817562