/*--------------------------------*- C++ -*----------------------------------*\
  =========                 |
  \\      /  F ield         | OpenFOAM: The Open Source CFD Toolbox
   \\    /   O peration     | Website:  https://openfoam.org
    \\  /    A nd           | Version:  7
     \\/     M anipulation  |
\*---------------------------------------------------------------------------*/
FoamFile
{
    version     2.0;
    format      ascii;
    class       volScalarField;
    location    "20000";
    object      omega;
}
// * * * * * * * * * * * * * * * * * * * * * * * * * * * * * * * * * * * * * //

dimensions      [0 0 -1 0 0 0 0];

internalField   nonuniform List<scalar> 
15600
(
3730.02185968833
4544.46159370166
7561.50907126646
8581.51239634599
7842.0272848653
6467.65401248323
5172.52279147381
4253.33346625344
3596.58499211675
3106.69236966741
2650.78767128434
2189.42403448225
1731.27260750757
1321.74676882214
1024.36952810055
911.120359756739
934.152096539005
934.152096538999
934.152096539057
934.152096539057
934.152096539099
934.152096538977
934.152096539073
934.152096539051
934.152096539058
934.152096538966
934.152096538997
934.152096539033
934.152096538939
934.152096539031
934.152096539012
934.152096539036
934.152096539053
934.152096539012
934.15209653903
934.152096538978
934.152096539084
934.152096539026
934.152096538999
934.152096539038
934.152096539025
934.152096538985
934.152096539008
934.152096538972
934.152096538998
934.152096539011
934.152096539039
934.15209653905
934.152096539023
934.152096539072
934.152096539009
934.152096538999
934.152096539026
934.152096538999
934.152096538999
934.152096538997
934.152096539058
934.152096539016
934.152096539058
934.152096539052
934.152096539062
934.152096539075
934.152096539015
934.152096539058
934.15209653894
934.152096539003
934.152096538986
934.152096538983
934.152096539006
934.152096538993
934.152096539084
934.152096538989
934.152096539058
934.152096538992
934.152096539084
934.152096539056
934.15209653894
934.152096539004
934.152096538986
934.152096539011
934.152096538996
934.152096539001
934.152096539048
934.15209653905
934.152096539024
934.15209653901
934.152096539048
934.152096539025
934.152096539001
934.152096539035
934.152096538995
934.152096538954
934.152096539038
934.152096538961
934.152096539064
934.152096539081
934.15209653909
934.152096539006
934.152096539033
934.152096539028
934.152096539028
934.152096539029
934.152096539002
934.152096539002
911.174403856355
1023.31118887219
1320.03969941776
1729.12311374376
2187.18075780213
2648.50338457961
3104.41040976502
3593.7696613803
4249.46087039398
5167.0570026349
6460.33808329473
7835.77602079156
8580.1108908896
7572.078170467
4554.75128134539
3730.02992504189
625.041970002647
764.057528023107
1265.29134379191
1436.10366752705
1321.81709374554
1094.32962725162
876.225691652933
720.160381913868
608.651645110476
525.637909228557
448.839494294021
371.199978084555
293.984898733548
224.815996435885
174.462671668991
155.083904597084
158.29621826213
158.119137285129
158.429605020329
158.695476253218
158.904326472306
159.039741968949
159.123250205429
159.176284344674
159.215481878293
159.24807071043
159.276851940144
159.301723203467
159.321886025034
159.336261651756
159.343894759541
159.343975737571
159.335918273869
159.319369423011
159.294208902868
159.26058452888
159.218796311124
159.169172686495
159.11210569469
159.048041181347
158.977604038831
158.901760939521
158.821193144684
158.736607167012
158.648803623163
158.558614360972
158.466834128111
158.374197512115
158.281395835301
158.189052561095
158.097766096586
158.008085090043
157.920526492049
157.835560558522
157.753608634929
157.675042411472
157.600172489414
157.529264661024
157.462516166499
157.400104194115
157.342154415189
157.288801991411
157.240159341582
157.196262416148
157.15709837176
157.122584414313
157.092609062782
157.067022819119
157.045674716535
157.028411281316
157.01510123544
157.005666447528
156.999984680439
156.997901477522
156.99920516785
157.003675387067
157.011092136831
157.021283703537
157.034113355359
157.049435441637
157.067073186428
157.08686806332
157.108642381885
157.132306134497
157.157735169693
157.184873821976
157.213695009884
157.24416261701
157.27634957425
157.310282117482
157.346235848049
157.384298806311
157.425099039666
157.468431768707
157.515414020243
157.565488893006
157.621412334919
157.679370302874
157.744760848432
157.804215426262
157.871243756869
157.90375039141
157.935853448265
158.21709071425
155.28230308968
174.485199174436
224.778554259856
293.261362029127
369.623916023403
446.652065028796
523.213153510667
606.382913111726
717.876471999111
873.63070218629
1090.92393930629
1318.05611889022
1432.57682210149
1249.96045222734
803.889723906351
675.826622726789
221.932707900507
258.766650187009
418.35011952231
466.426452747995
434.13677400522
361.541467661975
289.921732039282
238.257423728192
201.308592874291
173.676330576701
148.09959700707
122.23171460998
96.5746646984434
73.8128491241643
57.5379395884823
51.660735752318
52.742812316649
52.8409455911578
53.3968586783379
53.8838395680316
54.2414552508391
54.4483995156473
54.5423309981805
54.5666752706492
54.553321723308
54.518619145855
54.4704954942022
54.4118742113672
54.3439609420957
54.2671195041787
54.1815504433266
54.0874389899156
53.9851195389336
53.8751128428239
53.7581302027412
53.635070707196
53.5068553799563
53.374320545487
53.238341448919
53.0999173665013
52.9608986216567
52.8214588974905
52.6821542464029
52.5438394165466
52.4072627165797
52.2731536296581
52.1421382918115
52.0147378127376
51.8914005998386
51.7724924240301
51.6583500059886
51.5492583028236
51.4454741252616
51.3472114425421
51.2546429397671
51.1679009983784
51.0870694099902
51.0122014008437
50.9433004124994
50.8803716240383
50.8233927583619
50.7723743189461
50.7273110838972
50.6881268644355
50.6547063245778
50.6268751862721
50.6044441705025
50.587199894224
50.5749427721183
50.5674859628868
50.5646837430905
50.5664523898109
50.5726579096668
50.5831280233024
50.5976297645025
50.6159235469251
50.6377780983626
50.6630237702897
50.6915303621207
50.7231454210703
50.7576861807772
50.7949933719307
50.8348955817922
50.8772157233361
50.9220110016276
50.9691608434346
51.0186691321384
51.0705429901406
51.1249119869913
51.1818944535407
51.2418921655469
51.3051788713848
51.3726114374049
51.4442378145988
51.5225214916504
51.6064425492527
51.6991617613485
51.7971418347396
51.905452200754
52.0099423796852
52.121027355041
52.1913438521164
52.2532049606619
52.4604830282572
51.7459363822835
57.4975615091334
73.6324679819007
95.389106395377
119.799746831234
144.769105727269
169.980571887354
197.922965207497
235.131593988948
286.81370472776
357.811562956783
430.252518063639
461.56070914412
387.192343364914
282.941145019282
271.996437187536
131.901715356556
130.101059563677
194.720403332113
207.214030049249
196.669448053593
165.631290193839
133.230635186375
109.580542089855
92.593995081601
79.7075139104913
67.6817331477399
55.5094594415478
43.5446630505056
33.1895118490934
26.1366551153032
24.1326859502563
24.9356043060325
25.3306572194806
26.1149617861419
26.7217148987617
27.0470848724862
27.1113054682412
27.0134457695894
26.8399655709897
26.642668943818
26.4447682631042
26.2554227822513
26.0766910302184
25.9083367773627
25.749149231701
25.5978599312648
25.4533142831163
25.3146399897396
25.1812355284203
25.0527411641147
24.9289890052915
24.8098577358987
24.6952330876907
24.5852200635498
24.4804030301919
24.3799155371464
24.2834128629623
24.1908537345832
24.1022788534645
24.0176878547358
23.9371060808541
23.8605132619271
23.7878553896819
23.719067278021
23.6540664530272
23.5927890682979
23.5351691369417
23.4811539529572
23.4306899440831
23.3837228490017
23.3401959211889
23.3000430337651
23.2631987896589
23.2295849854794
23.1991443048699
23.1718195906063
23.1475934737397
23.1264479379842
23.1083284471016
23.0931663722268
23.0808636446466
23.0713209143484
23.0644291404602
23.0600940819019
23.0582343333526
23.0588004733719
23.0617857391281
23.0671520739845
23.074835883611
23.08473788965
23.0967595991148
23.1107950457315
23.1268089014408
23.1447716099383
23.1646041663394
23.1862730502089
23.2097151458566
23.2349667069603
23.2618640321582
23.2905475895796
23.320985510733
23.35325898092
23.3874617257276
23.4237915400428
23.4624625051631
23.5039248935801
23.5485822578679
23.5973280594825
23.6505072853138
23.7112369905431
23.7794997124886
23.8579660177457
23.9444478783788
24.0432425999129
24.1428914603855
24.2490953313814
24.3184005789706
24.3664575931523
24.491351851722
24.1404663283129
26.1330484858672
32.9876158003391
42.1747859559938
52.6169466310185
63.5679476229985
74.9161129029158
87.9011934626803
105.043824238108
128.676194721637
160.310804050382
191.205419127217
199.836372671936
154.34201379128
123.264003048391
157.433627395556
99.0895603169867
86.187262321618
110.349946203515
107.956540563324
106.066043209146
91.0636383811202
73.6319963036843
60.6698737335477
51.2664761614681
43.9384815538055
36.9958147700231
29.9884569217835
23.2438206151341
17.6659646941748
14.1868132007283
13.769459612144
14.6876268671908
15.3727931409974
16.241549969548
16.7105777325568
16.7518143664199
16.5221874745154
16.198407712861
15.8782064752603
15.5979927123322
15.3628580258176
15.1680069917156
15.0058044187269
14.8694829314078
14.7533484115957
14.6530239052049
14.5651280417265
14.4871450056298
14.41720459036
14.3539345068712
14.2963280422016
14.243601192695
14.1951564503299
14.1507141489999
14.1094816460288
14.0705260422123
14.0337080452322
13.9988816416588
13.9659073037279
13.9346654091448
13.9050757388335
13.8770471793108
13.8504877839342
13.8253141838397
13.8014460534055
13.7788257110912
13.757402320399
13.7371406706612
13.7180104144552
13.6999858345747
13.6830435500103
13.6671579524396
13.6523064997716
13.6384618084199
13.6256119316284
13.6137479976801
13.6028881926022
13.5930496919304
13.5842283102238
13.5764128879718
13.5695750305965
13.5636856043683
13.5587088528522
13.5546172356751
13.5513901286213
13.5490253460274
13.5475439864849
13.5469485916457
13.5472245279094
13.5483384031648
13.5502607689011
13.5529430229684
13.5564045720208
13.5606494881269
13.5656103075861
13.5714128026957
13.5779547166618
13.585303346206
13.5933596417146
13.6022201235787
13.611893610092
13.6224550113782
13.633992417621
13.646667209463
13.6606629016176
13.6763285958019
13.6940082372017
13.7143972396104
13.7378828730097
13.7667217834715
13.802186512466
13.8462830361154
13.8981608659634
13.9614819255265
14.0291244374742
14.1046890105452
14.1551065336643
14.1814226394599
14.2352354690839
13.9493945606781
14.66532473727
18.0902796447081
22.6625097127683
27.8798556168571
33.4591937030328
39.3665405965885
46.3339687120253
55.4760381715806
68.0426720058829
84.3337849697119
99.3712086596928
100.192936829468
73.7931449807063
58.565895158945
102.438848524239
78.0040825314831
68.1985432527993
71.2696644321962
60.9076021270697
63.2191508181934
55.972687598962
45.6208786341716
37.6899060800246
31.8281670438466
27.0751806115124
22.5033305216458
17.9617040414466
13.7719836931755
10.5452665941237
8.78578424256376
9.12218210659505
10.2099349512317
11.0452430187129
11.7475154310482
11.8725122655368
11.6009119419196
11.2011182204043
10.8321309048314
10.5377394429438
10.3155186835127
10.1498261557361
10.0262692079088
9.93312547400484
9.86211630556051
9.80716588112524
9.76400769815828
9.72954872007751
9.70159870285705
9.67858542479969
9.65938894753289
9.64320480744952
9.62943502644296
9.61767231249627
9.60739758099095
9.59785102749342
9.58876319779351
9.58011443945737
9.57181661904701
9.56379884769301
9.55601049040344
9.54842561019307
9.54101017019924
9.53373116148194
9.52656121109372
9.51947537642841
9.51246313231424
9.50551757776128
9.4986412805466
9.49183884703328
9.48511703988609
9.47848307482752
9.47194195187259
9.46549976164746
9.45915937773933
9.4529336243745
9.44683785599043
9.44090498027295
9.43516521194653
9.4296338229533
9.42432099049828
9.41922502433351
9.41434287967985
9.40966637744863
9.40519206394648
9.40092068139655
9.39686457418844
9.39304927169664
9.38948756313461
9.38617914837823
9.3831124833541
9.38028042121207
9.37765391329667
9.37526377284236
9.37312780699508
9.37122686853503
9.36966918497783
9.36836146388776
9.36734812620739
9.36657963849092
9.36611774499547
9.36598115511746
9.36622797647896
9.36692801651566
9.36820288897261
9.3701959844067
9.37316687346365
9.37738705731445
9.38337647899243
9.39148934031341
9.40307896859241
9.4198444981759
9.44335459231624
9.47348549126626
9.51322645672027
9.55862255493061
9.61257592563559
9.65261504819241
9.67401864179623
9.7054420641474
9.46413202189223
9.72350949888727
11.6806281276021
14.2968895446256
17.2661845055734
20.4609283006532
23.8701898290558
27.9463632801004
33.232766503158
40.464694315687
49.5087784823133
57.5886126592692
56.5507118112301
42.9195911377766
32.1124054344676
69.3892980073666
61.2230493519433
58.8668548503659
51.3072589207487
35.9443665140758
39.8958697767818
37.000433382604
30.5010356230221
25.2790653414821
21.3068385727403
17.9316906542772
14.6768555254769
11.568108032859
8.88770113909894
7.00635743203244
6.17572933389258
6.88302817958571
8.04345133085247
8.81149084852328
9.18351520622638
8.9855446296034
8.56989215813168
8.17666210788501
7.87935631224178
7.66978840884928
7.52629765706476
7.42839897150958
7.36204620453273
7.31717789435551
7.28725533061045
7.26768007832833
7.25535722530582
7.24809845033852
7.24439913812866
7.24320208637508
7.2437726103558
7.24559273355757
7.24828652474943
7.251580173778
7.25489495707541
7.25791105597473
7.26058476877796
7.26292489707783
7.26489375514731
7.26647249318946
7.26765537333884
7.26845008042962
7.2688559719208
7.26887224014525
7.26850065597118
7.2677439568567
7.26661382664416
7.26512337715805
7.26329128539374
7.26113652860289
7.25867865031597
7.2559365403947
7.25292685908953
7.24966635110595
7.24616954502283
7.24245791328835
7.23855517152356
7.23449702307227
7.23031572697091
7.22603210797496
7.22166275621304
7.21721544295084
7.21269638210145
7.20810785499264
7.2034553372402
7.19874750623973
7.19400133838772
7.18924187909082
7.18448438075621
7.17973338863581
7.17498574185945
7.170242478022
7.16548285441709
7.16074539417848
7.15606669643005
7.15144225250304
7.14693640388827
7.14248796018992
7.1381268886329
7.13383219069158
7.12964974883919
7.12560440437796
7.12174742163163
7.11814154677571
7.11488951915957
7.11211653832442
7.11003594076454
7.10888405946707
7.1090840328167
7.11098145113668
7.11544058632633
7.12413511775923
7.13843041198853
7.1586345575385
7.18727510891287
7.22237581749703
7.26661418459119
7.30524755134646
7.33229846246155
7.36993372746002
7.17549065761824
7.24955438505761
8.48920041502995
10.1662280430436
12.0606566970173
14.0996582203109
16.2786668924426
18.8894140030108
22.2196520457257
26.7280230982623
32.1420173017311
37.0229779977989
35.9363013827553
29.0610356208752
20.5440754129263
48.3398390809674
47.5276947656809
52.5837160838581
40.907893035076
22.3755846477395
25.9754485609367
25.6930889951396
21.5068194796869
17.8831609187734
15.0250408593603
12.4916353726765
10.0990641103786
7.95262161290647
6.24749535601368
5.17346867400051
4.87291141200265
5.75398855071845
6.85559193823346
7.39993873211141
7.44453910046536
7.07109824653853
6.66117218983025
6.34688639229553
6.13506778528608
5.9968314290573
5.90904134545478
5.85403870000114
5.82101037554731
5.8024577169009
5.79370593318374
5.79149202001288
5.79366931404485
5.79873170968182
5.80566305989223
5.81375811172201
5.82253541892766
5.83165903669018
5.84089282127168
5.8499517879138
5.85843788921469
5.86625574594051
5.87341599077021
5.87993430721125
5.88580022330323
5.89101975559258
5.89560697232982
5.89958303934487
5.90296127886812
5.90575427820392
5.90797573903579
5.90963972528594
5.91076622807066
5.9113757182106
5.91149213378515
5.91113900333316
5.91033971507375
5.90911662159722
5.90749008653683
5.90548021946432
5.90310571618605
5.90039054205533
5.89736080483368
5.89405117819441
5.89049267505795
5.88670712376527
5.88271269465903
5.8785207242981
5.87414100735481
5.8695803391516
5.86484796734814
5.85995594119308
5.85492275774382
5.84977208662559
5.84451952415218
5.8391715513114
5.8337288282871
5.82819598678293
5.82255846367324
5.81686958574367
5.81116366477616
5.80543642163915
5.79973046107923
5.79400889980044
5.78829468956051
5.78258364684682
5.77691471672299
5.77131733069894
5.76584067583197
5.76054568513218
5.75552646964488
5.75090056567838
5.74685701444896
5.74361544615877
5.74154435954645
5.74099059993119
5.74258155545598
5.74783143585014
5.75800084944151
5.77367338061866
5.79707744308957
5.8274840574506
5.86750081082594
5.90766655333517
5.94244893276001
5.99381008184191
5.84290608159894
5.8319401927399
6.67376583456364
7.83933303953196
9.15578425404132
10.5732453391879
12.0902489783654
13.9059191936449
16.1871584321061
19.2391761441929
22.7606307553777
26.0616089510956
25.2066432640474
21.7394345156624
14.8117400628276
34.8141614889189
36.4178106589529
47.4415574387833
35.4236765776964
15.2351945597226
17.2589916903166
18.4522133387757
15.7614666269071
13.1477091632342
11.010640563158
9.06379436890403
7.30373294215001
5.83591001418367
4.76331511562165
4.17785380221755
4.19323566472306
5.13047109846051
6.0775539408006
6.34984158874072
6.16494832862103
5.74988960860256
5.40886554070941
5.17578275550381
5.02958784566706
4.93923718773428
4.88591421522676
4.8558950182133
4.8413066570896
4.83665399322816
4.83859719537375
4.8447871745667
4.85369990003201
4.86426652773352
4.87577542232962
4.88773614870855
4.89981777482906
4.91178901823002
4.92348326914241
4.93460643413358
4.94495496724067
4.95450937677557
4.96329134908884
4.97131753604867
4.97859112675257
4.98512879293453
4.99095223926581
4.99608679493387
5.00055085075497
5.00436199295581
5.00753835533251
5.01009829817664
5.01206439644789
5.01345935393469
5.01430817891194
5.01463524275804
5.0144644998012
5.01381881603004
5.0127193875232
5.0111871038332
5.00924206412973
5.00690861775343
5.0042132011754
5.00118855021666
4.99786375159274
4.99426028695344
4.99039643403626
4.9862850305778
4.98193746451123
4.97736282109795
4.9725722166787
4.96757935922436
4.96240319353221
4.95706599031615
4.95158306417916
4.94596175456387
4.94020468608572
4.93431829960824
4.92830075595197
4.9222075363951
4.9160634730032
4.9098677556011
4.90365133124595
4.89739376312805
4.8911147804762
4.88482047909224
4.8785465528662
4.87232558085233
4.86620613687197
4.86024880458305
4.85454298759136
4.84920217812032
4.84440058021571
4.84034787531948
4.83737748973986
4.83583664124394
4.83623790187166
4.83991302061776
4.84805213270325
4.86141279833311
4.88201268731979
4.90992282619066
4.94771181946458
4.98952553939835
5.03081760224246
5.09497251158404
4.98190279794518
4.92998415644256
5.52849156004742
6.38475329823388
7.35624212571576
8.40461646622863
9.53061234641575
10.8772853866403
12.5507810573342
14.76629693692
17.2366288698637
19.6753529777484
19.0280379491604
17.3563675222467
11.5928751292408
26.1580939525954
27.4828848766813
42.6861656829722
32.3059910741917
11.6591221644919
11.7523657583445
13.566064276082
11.8948773848746
9.95753772870542
8.33023971978442
6.83121162787421
5.5488527923676
4.55258094970764
3.88577793266758
3.60266261850715
3.8113211196409
4.72731718838394
5.47332976037274
5.50168115663947
5.19875402177577
4.8169296122203
4.55301293967578
4.38328611022531
4.28224070719158
4.22265834785651
4.1904662754334
4.17516041120302
4.17100596001943
4.17389881630808
4.18138925567884
4.19173039522226
4.20379910140144
4.21680580328559
4.23022972446021
4.24371326647508
4.25701650754003
4.26997103594082
4.28242926529576
4.29414471634986
4.30502750120509
4.31508266202956
4.32433172510298
4.33279066766639
4.3404693905885
4.34738858999032
4.35357223396866
4.35904595996185
4.36382946499586
4.3679418131146
4.37140247887822
4.37423122075164
4.37645098372189
4.37808474652865
4.37915711134825
4.37969202296915
4.37971292859073
4.37924226778973
4.37830112319097
4.37691032985236
4.37509040505598
4.37286544262057
4.37026156778856
4.36730961038041
4.36403684748156
4.36046412527543
4.35660946967374
4.35248649507674
4.34810747518153
4.3434828949677
4.33862498965955
4.33354843416348
4.32827225073589
4.32281748437149
4.31719900985305
4.31142456773916
4.3054978490365
4.29942970101467
4.29322926992135
4.28694335534451
4.280592431467
4.27417919853126
4.26772797671248
4.26122937066359
4.25470172851064
4.24815761879689
4.2416310169628
4.23515646369771
4.22878217095806
4.22256848862402
4.21660152626169
4.21099173432388
4.20590268309814
4.20153629532202
4.19820047631139
4.19623917896418
4.1961085219165
4.19896704158715
4.20594773314432
4.21791229411495
4.23671556661374
4.26294593761139
4.29912606386352
4.3418921179014
4.38779197943513
4.46159438564364
4.38048416777774
4.30990985853511
4.74865503796237
5.40233518188945
6.15038764033977
6.96127084944073
7.83734812484639
8.88555858122273
10.179432397968
11.8773184137066
13.7223975179456
15.6434499516632
15.1560397791279
14.4883090664616
9.58987148272318
20.6185691362173
20.4058779934929
38.2766740907245
30.2176743081204
10.0058920092592
8.31396265380652
10.1554147121853
9.19659207237872
7.73570703687299
6.49146389854611
5.34362677203192
4.41495807133583
3.74014023748215
3.33598039086435
3.24596240071415
3.56975675685487
4.41438348592362
4.95239700418181
4.79921444638155
4.46349169407217
4.14218813877596
3.94344507745044
3.8193708389176
3.74887062710332
3.70933006697786
3.69048916934272
3.68420732757171
3.68623155292249
3.69341432649496
3.70390212233961
3.71635292154932
3.72990863936936
3.74396428048731
3.75812330553865
3.77211374930296
3.78575299611442
3.7989128797871
3.81144509441851
3.82317403902024
3.83406454022872
3.84412822414701
3.85338389925088
3.86184647834646
3.86952900895241
3.87645316892566
3.88264287804955
3.8881225972965
3.89291179318549
3.89702957719231
3.90049553746665
3.90332967359148
3.90555452153331
3.90719266117472
3.90826787738894
3.90880336256125
3.90882182117491
3.90834507947802
3.90739388594899
3.90598883859817
3.90415057295966
3.90190282729007
3.89927130713869
3.89628524901314
3.89297045367073
3.88934719825305
3.88543327569094
3.88124285166282
3.87678885776108
3.87208281245901
3.86713777061148
3.86196909050956
3.85659577336997
3.85103784259529
3.84530974142837
3.83941939195062
3.83337233923342
3.82718541956483
3.820871198739
3.81446825575332
3.80799539354291
3.80145821685828
3.79487712189144
3.7882502232028
3.78159538911585
3.77492934753753
3.76828500577245
3.76169797824019
3.75521599202355
3.74889889490366
3.74282998306126
3.7371167876275
3.73191427138769
3.72741718043271
3.72391302510772
3.721738994412
3.72132227013696
3.7236679450701
3.72985633651073
3.7408052002052
3.75823468127914
3.78306595241357
3.81776118843545
3.86069091235706
3.90944742048101
3.9896396994515
3.93520126188915
3.85822365170103
4.18667149152572
4.69956483555275
5.29364233535769
5.9419985037251
6.64813528433222
7.49440156192664
8.535717167315
9.89218672923124
11.3424519944752
12.9279010873696
12.5658351354034
12.4869879834555
8.12703912965856
17.0194928334281
14.9579177175444
34.4281082507605
28.6494335928061
9.40495648858747
6.19917326120986
7.73294974791415
7.26821482162083
6.155740707603
5.20531079730813
4.32962319739849
3.65684237819272
3.20092563625324
2.97066239968582
3.00633073062555
3.3906290040123
4.1354691283134
4.48447693098045
4.21730402221844
3.90015236661866
3.64104218226725
3.49234686457631
3.4007260220115
3.35122512846634
3.32518515496559
3.31515398319813
3.31469925761072
3.32059454786623
3.33036438599367
3.34256478179006
3.35613534881671
3.37039979355928
3.38488023014882
3.39926457683923
3.41333867724138
3.4269575090125
3.4400184223832
3.45237538602027
3.46391597724048
3.47462916909197
3.48452706587338
3.49362560542851
3.50193862541271
3.50948046175121
3.51627241111487
3.52233740995827
3.52769827637767
3.53237367928489
3.53638225529424
3.53974328101046
3.54247659167188
3.54460413058419
3.54614793499092
3.54713098084937
3.5475757485839
3.54750428181274
3.54693788764676
3.54589703533245
3.54440214806631
3.54247395322465
3.54013593239483
3.53741346502831
3.53433456847041
3.53092393389045
3.52720144730509
3.5231848115728
3.51888871642467
3.5143267125396
3.50951120875989
3.50445597069133
3.4991769346202
3.4936930963467
3.48802364861959
3.48218267448189
3.47617840691809
3.47002038823069
3.46372783378494
3.45731386721646
3.45081128525798
3.44423821432969
3.43760252325572
3.43092222539263
3.42420062905877
3.41745556510801
3.41070646406737
3.40398544134836
3.39732854637396
3.39078281644502
3.38440727180327
3.37828253793375
3.37251309508712
3.36724638332744
3.3626700369559
3.35905421607033
3.35672668631173
3.35609697327866
3.35804205125865
3.36358724138522
3.37367413613489
3.38990633130911
3.41341386569994
3.44658530680549
3.48900256519426
3.53919747481453
3.62299053309508
3.5906384578579
3.51428465923613
3.76385455619332
4.17448366038826
4.65736034971704
5.18916263812808
5.77411811589126
6.47707147736802
7.34174641920658
8.46141965059806
9.65038153647922
11.0053147127954
10.744346570208
10.9647056052811
6.91346408981975
14.5934700225823
10.9313908130362
31.0762605056924
27.5118693865821
9.40780513643039
4.92465309366245
6.00020202483332
5.86648582187312
5.01532101446577
4.28881098574388
3.62028159339277
3.13098506062345
2.82608813741077
2.71359548680665
2.8303683783913
3.23576082603038
3.86952753988311
4.06188670515149
3.73837321568692
3.46397564056792
3.25863843660731
3.14719153443003
3.07894175792662
3.04428807631329
3.02771876010582
3.02378935992572
3.02732068144293
3.03580742398837
3.04726021518609
3.06052479234061
3.07474363114739
3.08936977374727
3.10401637009893
3.11843119172934
3.13244089569329
3.14592635460554
3.15880039756861
3.17092873108376
3.18224419347163
3.19274586821504
3.20244451191272
3.21135364892003
3.21948614464454
3.22685665394348
3.23348553410059
3.23939443667841
3.2446045102893
3.2491334904003
3.25299942034391
3.25622119379081
3.25881841026971
3.26081248646146
3.26222499441559
3.26307827157913
3.26339426533787
3.26319455540059
3.26250012359397
3.26133131661053
3.2597085338818
3.25765267896748
3.25518714514878
3.25233715468418
3.24912986977219
3.2455892150201
3.24173489103131
3.23758468789695
3.23315387231509
3.22845665218054
3.2235062849868
3.2183172234764
3.21290595978909
3.2072915508442
3.2014925254067
3.19552269034416
3.18939193449452
3.18311321832171
3.17670503262455
3.17018118536184
3.16357040438894
3.15689051273376
3.15015110366708
3.1433687276612
3.13655034377253
3.12971395703622
3.12288075733385
3.11608218131419
3.10935426157286
3.10274315341004
3.09630676604805
3.09012308330768
3.08429336581516
3.07895818468
3.07429800290722
3.07056761787257
3.06808356089971
3.06724132477914
3.06881449772098
3.07376946631519
3.08304977010081
3.09815513853475
3.12033947753633
3.15190795293485
3.19328497474271
3.24382191221281
3.32898517983711
3.31477660166121
3.24311607875475
3.4348810439946
3.7687179472161
4.16837068967441
4.61356355475204
5.10890716593034
5.70635386968534
6.44260670566533
7.39174192829596
8.40162879296887
9.59020468072053
9.37508152245877
9.71106634618851
5.89426600028205
12.8701550782671
8.07761545347696
28.0421881267148
26.6961828170221
9.77655156901644
4.19406029531089
4.75814311566489
4.8311530689444
4.18035768073594
3.62236206907872
3.11003459704067
2.75284126604979
2.55401996731105
2.52235001695246
2.68902582889784
3.08803000450701
3.61170953814477
3.68406983366446
3.34632455209711
3.12145651608163
2.95934891355454
2.87555609235553
2.82454213787198
2.80072990472248
2.79109542573099
2.79161366232865
2.79804748413526
2.80840704050277
2.82106481119902
2.83507744687684
2.84973823388364
2.86459536894066
2.87932952445497
2.89373252807022
2.90766108764423
2.92101528815869
2.93371614272586
2.94564911477923
2.95677582480166
2.96709911568205
2.97662810990183
2.98537446069224
2.99335019534079
3.0005697986901
3.00705252471436
3.01281873496387
3.01788806899469
3.02227738663271
3.02600420112701
3.02908710963798
3.03154555554729
3.03340059749151
3.0346735102213
3.03538621982393
3.0355603662059
3.03521729717655
3.03437789199761
3.03306256457509
3.03129186949575
3.02908701520801
3.02647149435514
3.02347056411311
3.02011086596008
3.01641586646808
3.01240528419307
3.00809717624476
3.00350747189472
2.99865110573984
2.9935421909417
2.98819588349404
2.98262925027722
2.97686150007249
2.97091063555024
2.9647907792813
2.95851434651091
2.95209528675667
2.94555109993044
2.93889640872115
2.93215709128512
2.92535080409811
2.91848844058749
2.91158565688205
2.90465201765644
2.89770579548265
2.89076931600924
2.8838733786719
2.87705368227281
2.87035534592371
2.86383494784105
2.85756783008905
2.85165189657532
2.84622129420167
2.84144926446431
2.83757665016869
2.8349076219259
2.83382434962737
2.83501718346358
2.83939171820053
2.84787798482129
2.86188125442263
2.88272011298086
2.91260969206309
2.95255277371724
3.00260090833316
3.0874091365981
3.08795488659193
3.02327825745701
3.17197678122904
3.44668389137638
3.78233992528954
4.16141933522641
4.5886321448707
5.10619662666431
5.74631345795953
6.56930904963117
7.45338046463524
8.51582181993805
8.26227966593086
8.65467468481997
5.05835382171492
11.5694450188168
6.08289462683639
25.2455581189759
26.0229510825481
10.3717752272317
3.83385694511231
3.87005883075639
4.0526161643012
3.55906577369334
3.12720421024512
2.73267401505251
2.47164872255459
2.34855739718039
2.37231220080838
2.56645575759186
2.94156411324951
3.36505164339849
3.35090833651084
3.02599541189845
2.8480825370663
2.71975389519244
2.65672170007918
2.61877812415644
2.60315281499926
2.59882144945033
2.60275631168094
2.6114467475834
2.62327779923694
2.6368982790646
2.65152246728881
2.66655886645547
2.68162780338774
2.69646158523773
2.71088558742471
2.72477946243572
2.73805849047689
2.75064766215016
2.76245602140423
2.77346190988796
2.78366920240718
2.79308562281236
2.80172143933822
2.80958798131401
2.81669934297872
2.82307370624409
2.82873027606965
2.83368741766623
2.837961258659
2.8415689260005
2.84452887631502
2.84686054420667
2.84858483741051
2.84972293516771
2.85029659302372
2.85032737878641
2.8498366443425