/*--------------------------------*- C++ -*----------------------------------*\
  =========                 |
  \\      /  F ield         | OpenFOAM: The Open Source CFD Toolbox
   \\    /   O peration     | Website:  https://openfoam.org
    \\  /    A nd           | Version:  7
     \\/     M anipulation  |
\*---------------------------------------------------------------------------*/
FoamFile
{
    version     2.0;
    format      ascii;
    class       volScalarField;
    location    "20000";
    object      p;
}
// * * * * * * * * * * * * * * * * * * * * * * * * * * * * * * * * * * * * * //

dimensions      [0 2 -2 0 0 0 0];

internalField   nonuniform List<scalar> 
15600
(
2.76059986702921e-10
-0.0452265094993331
-0.00669049822635746
0.0231930810653406
0.0239550080265395
0.0262600275581683
0.0272132957155948
0.0283890062442596
0.0293316768300976
0.0305863753970048
0.0318292364286777
0.0328653218890603
0.033381372547043
0.0333097895263767
0.0331772660967136
0.0332516074005961
0.0338177804497743
0.0340620168994819
0.033988040999597
0.0337687585531926
0.0335064896628338
0.0333973126281255
0.033557910487186
0.0340675640818973
0.0349542364624225
0.0362232280603853
0.0378641773849747
0.0398617050266939
0.0421979653255231
0.0448552664204377
0.047816501987168
0.0510655076022467
0.0545868477362853
0.0583655853868995
0.0623870009744972
0.066636282087907
0.0710984777400498
0.0757585818913893
0.0806015060524015
0.0856121034940279
0.0907751219714777
0.0960751744426638
0.101496737070719
0.107024242757065
0.112642191439829
0.118335179158872
0.124088098584541
0.129886285961827
0.135715609846345
0.141562588545277
0.147414389470162
0.153258901802493
0.159084737427221
0.164881275524139
0.170638683276809
0.176347933042493
0.182000826442264
0.187589972464944
0.193108814335873
0.198551547704053
0.203913143761177
0.209189240089856
0.214376145869648
0.219470890729743
0.224471187237734
0.229375442578075
0.234182669580887
0.238892452185317
0.243504840396184
0.248020296003392
0.252439618665392
0.256763854305078
0.260994369753055
0.26513283141102
0.269181239117065
0.273141854831139
0.277017179685996
0.28080985004004
0.284522638189
0.288158452176202
0.291720352749475
0.295211555674627
0.298635404944458
0.301995375428643
0.305295029679277
0.308538094809264
0.311728406146853
0.31487006233779
0.317967260404106
0.321024646676554
0.324046857856993
0.327039396742622
0.330007312688644
0.332957532589298
0.335894956780662
0.338828952176541
0.341762628092861
0.344709662715635
0.347662853234645
0.350643250390122
0.353610869606258
0.356604269110545
0.359498044959085
0.362412297800709
0.364774424232915
0.367902872215038
0.371240962875694
0.375604763643384
0.379918313135197
0.382897520607571
0.383514758849031
0.380882540937334
0.375707029405354
0.366603939106976
0.35126133875757
0.322832014235915
0.261655852048844
0.136814627757074
-0.178686141105865
-0.237542765853348
-0.000127567792016568
-0.0450609001555575
-0.00792484706528206
0.0225401294032457
0.0238923800274644
0.0262059037523344
0.0271917555379001
0.0283704109682425
0.0293124063332663
0.0305576109429119
0.0318056380732037
0.0328639728142855
0.0334152702890714
0.0333628577096988
0.0332190119845608
0.0332667567693498
0.0338298688242603
0.0340714715643567
0.0339968072975879
0.0337781580995127
0.0335173630874703
0.0334108101100065
0.0335747304845599
0.0340880998396966
0.0349785242732834
0.0362510946580319
0.0378953153887855
0.0398957492452175
0.0422345274862531
0.0448939586715167
0.0478569455823247
0.0511073370238619
0.054629711011283
0.0584091438550985
0.0624309289019438
0.0666802670062072
0.0711422215028238
0.0758018015316123
0.0806439334533663
0.0856534848357459
0.0908152220903416
0.0961137798591288
0.101533653003904
0.10705929270983
0.112675218504983
0.118366047145052
0.124116692384488
0.129912511267476
0.135739392518427
0.141583873842602
0.147433141083658
0.153275100854072
0.159098381334686
0.164892376784331
0.170647268154503
0.176354040162815
0.182004505369317
0.187591282205412
0.193107821982768
0.198548327157523
0.20390777469349
0.209181807089977
0.214366737153499
0.219459596712276
0.224458099195108
0.229360651457012
0.234166265096057
0.238874522131064
0.243485470280876
0.247999568853132
0.252417615252957
0.256740652994552
0.260970045634499
0.265107455509684
0.269154877756916
0.273114569552943
0.276989027453545
0.280780883897075
0.28449290729275
0.288128001139332
0.291689220810205
0.295179776683858
0.298603008741802
0.301962387505536
0.305261471372902
0.308503984185802
0.311693757359972
0.314834884725476
0.317931556567034
0.320988413730365
0.324010087073299
0.327002075212456
0.329969419709418
0.332919043175013
0.335855831439416
0.338789165355377
0.341722136076828
0.344668471059218
0.347620928705349
0.350600719989121
0.353567749741045
0.356560985964415
0.359455462281887
0.362371066056722
0.364741338782322
0.367943310315066
0.371361014409675
0.375779879957374
0.380062592170402
0.382932158501602
0.383385226399354
0.380593681373546
0.375246427479739
0.365879053940211
0.3500574370681
0.320592805098403
0.257604613144812
0.129564782815568
-0.181472531630948
-0.235542541076272
-0.00027452581202746
-0.0448768587220418
-0.00912088623962673
0.0218665000435033
0.0238116295429323
0.0261505787247034
0.0271689219298788
0.0283518406162732
0.0292932464124606
0.0305286650514604
0.0317804270438938
0.0328600479844897
0.0334473181748871
0.033414990364191
0.0332586990572668
0.0332771491261184
0.0338432316954165
0.034083514176876
0.0340078252489568
0.0337892021864797
0.0335289611895026
0.0334243202064806
0.0335911512548521
0.0341081011469071
0.0350022830115646
0.0362784887923846
0.0379260261590028
0.0399293760952417
0.0422706366148439
0.0449321162529227
0.0478967289117282
0.0511483405391585
0.0546715472315758
0.0584514433409867
0.0624733405018513
0.0667224570266327
0.0711838726948392
0.0758426128696296
0.0806836179269294
0.0856917773371655
0.0908518919565145
0.0961486210314967
0.101566475455078
0.107089925175883
0.11270351314526
0.118391879679629
0.124139961384374
0.129933137781741
0.135757318966882
0.1415990635297
0.147445576915177
0.153284784328312
0.159105331114624
0.164896627216454
0.17064886772765
0.176353049729647
0.182000996654264
0.187585335864152
0.193099526531777
0.198537777430109
0.203895071311162
0.209167055560851
0.214350045855055
0.219441075164916
0.224437856289595
0.229338794321965
0.234142898091992
0.238849746426341
0.243459383682704
0.247972266013585
0.25238918859391
0.256711192307492
0.260939636884043
0.265076179542027
0.269122809607251
0.273081778465316
0.276955577611723
0.28074683547207
0.284458316730538
0.288092919676744
0.291653694165051
0.295143846101969
0.298566711002215
0.301925765790783
0.30522456241829
0.308466811358868
0.311656339880321
0.314797238711139
0.317893695484045
0.320950349645656
0.323971827164885
0.32696362761446
0.329930784183903
0.332880231741892
0.335816827370943
0.338749976696937
0.341682729842514
0.344628909376494
0.347581136949278
0.350560913630783
0.353527751007835
0.356521340344956
0.35941702411471
0.362332376923229
0.364694233480098
0.367973520262398
0.371475027577217
0.375948266264888
0.380194905245663
0.382949950233343
0.383238270355737
0.380288308024304
0.374766892073068
0.365125871080049
0.348807695511961
0.318304747594709
0.253604977810518
0.123281717982991
-0.181210561100147
-0.23112277922337
-0.000486796616540361
-0.0446472278232242
-0.0102659040090968
0.0211946718346678
0.0237216377900729
0.0260948632934124
0.0271455067147681
0.0283333472070333
0.0292744189714652
0.0304999988288505
0.0317543198169454
0.0328539716554138
0.0334772733010513
0.033465791364086
0.0332959320395557
0.0332829545929945
0.0338569933477261
0.034097639209455
0.0340199511856424
0.0337997842872161
0.0335386205527297
0.0334350654013991
0.0336046759200921
0.0341255023572992
0.0350238607619833
0.0363040622693013
0.0379551310765525
0.0399614482856071
0.0423050857891245
0.0449683689039778
0.0479342396990331
0.0511865975451284
0.0547100717317471
0.0584897884644878
0.062511091257008
0.0667592267002566
0.0712192972274184
0.0758763489333361
0.0807153491188727
0.0857212519106685
0.0908788891776012
0.0961729164602379
0.101587875851794
0.107108274083532
0.112718688160168
0.118403789418611
0.12414854301715
0.129938356007611
0.135759163893086
0.141597550113399
0.147440743040904
0.15327668938529
0.159094053891124
0.164882263668442
0.170631528745229
0.176332858491088
0.181978086630331
0.187559848029116
0.193071608349625
0.198507581026161
0.203862753546226
0.209132777314236
0.214313968841883
0.219403359221874
0.224398656735471
0.229298260554296
0.234101172451487
0.238806964123684
0.243415673187118
0.24792775015001
0.252343986944929
0.256665421122313
0.260893407134048
0.26502959467698
0.269075964401253
0.273034759154996
0.276908463681768
0.280699701763571
0.28441123416651
0.288045954188243
0.291606914227006
0.295097323760294
0.298520502452129
0.301879904786404
0.305179085215632
0.308421765981464
0.311611773235938
0.314753198125779
0.317850227654876
0.320907504928775
0.323929655930269
0.326922190545828
0.329890138468608
0.33284047584924
0.335778032965398
0.338712240191448
0.341646082779755
0.344593524875365
0.347546953112176
0.350528230675644
0.35349616840963
0.356491494558711
0.359388953136379
0.362303469617471
0.36464378835593
0.367995018605482
0.37157493622856
0.376092403088647
0.380293036042968
0.382929250051827
0.383056321518797
0.379954070759789
0.374260198033245
0.364342208619456
0.34752428192898
0.316020454030705
0.249802063977817
0.118097961500687
-0.177692512909701
-0.223636530234789
-0.000582727863411338
-0.0441915177586511
-0.0114385972831614
0.0204849053898545
0.0236199821294424
0.0260364762019804
0.0271204993596291
0.0283139632311689
0.0292549033239396
0.0304698795198635
0.0317251616397639
0.0328432635810444
0.0335027621973861
0.0335146465527185
0.0333331699283871
0.0332897881009459
0.0338723237330418
0.0341152826371325
0.0340341849638089
0.0338102746888592
0.0335466715315898
0.0334440579914949
0.0336174274542728
0.0341435857236709
0.0350474905506544
0.0363327091696643
0.0379879043463707
0.0399973806298907
0.042343233783063
0.0450078586627765
0.0479742706838491
0.0512264409809542
0.0547490650423437
0.0585273299705984
0.0625466382180773
0.0667922874659038
0.0712494196583621
0.0759031234503242
0.0807384457196225
0.0857403929207111
0.0908938025355753
0.0961833696622965
0.101593692999885
0.107109330473202
0.112714907627736
0.118395139791747
0.124135030942577
0.129920024213612
0.135736087300854
0.141569834519671
0.147408522178897
0.153240122733395
0.159053323594753
0.16483757125661
0.170583091851368
0.176280907020871
0.18192285987623
0.187501590775046
0.19301056960069
0.1984440119171
0.203796908090368
0.209064912187901
0.21424433907069
0.21933221386997
0.224326234905447
0.229224789249179
0.234026865114467
0.238732020855303
0.243340281888313
0.247852088899203
0.252268228532772
0.256589734067698
0.260817952791244
0.264954523512427
0.269001413882304
0.272960853680332
0.276835317968244
0.280627424655245
0.284339931372743
0.287975739329187
0.291537879827662
0.295029535231655
0.298454036337282
0.301814851435776
0.305115536798433
0.308359815216499
0.311551517017078
0.314694740665546
0.317793679928697
0.320852992242316
0.323877314160812
0.326872182566007
0.32984263595559
0.332795711288913
0.33573623914009
0.338673704453668
0.341610983249852
0.344562236203276
0.347519496932021
0.350505075761896
0.353476719553686
0.356476357658188
0.359376246930387
0.362293129051374
0.364609649465186
0.368017528340644
0.371655366857917
0.37619420695222
0.380326581265685
0.382829968274849
0.38279105140775
0.379536511010798
0.373663772056118
0.363451564025811
0.346104036808488
0.313580348468576
0.245873979381153
0.113156628222508
-0.172288291088409
-0.213831498705185
-0.000377186163579543
-0.0432459369085125
-0.0126699691378011
0.0197082865689229
0.0235018578415571
0.0259752321501198
0.027093584701928
0.0282934207431797
0.0292343309964714
0.0304373474761367
0.0316907423377698
0.0328235436574493
0.0335171501266987
0.0335562205185784
0.0333714624920787
0.0333046534402594
0.033891214393827
0.0341378014706328
0.0340505213529372
0.0338198877300237
0.0335530538445436
0.0334529853534162
0.033632871103138
0.0341669959629284
0.0350783054911935
0.0363695329529125
0.0380290990424335
0.040041402032967
0.0423887060280216
0.0450535857334346
0.0480192096602566
0.0512696797139734
0.0547898028585754
0.0585648633133335
0.0625803531388406
0.0668216455025646
0.0712739421129985
0.0759224076217765
0.0807521651457088
0.0857482559944249
0.090895559147428
0.0961788347629438
0.101582744796767
0.107091905895655
0.11269100168623
0.118364799354477
0.124098347357874
0.129877129072337
0.135687147162373
0.141515049131202
0.147348120844317
0.153174361752268
0.158982482580375
0.164761949253523
0.17050300341963
0.176196677676576
0.181834822686864
0.187410081762045
0.192915926423198
0.198346571649871
0.203697008727583
0.208962892926048
0.214140535423286
0.219226952273059
0.224219827648416
0.229117531837157
0.233919034513291
0.238623875968822
0.243232065246164
0.247744030096396
0.252160550449134
0.256482654956915
0.260711682944749
0.264849260363867
0.268897339207853
0.272858132987408
0.276734105511603
0.280527870190227
0.28424218499432
0.287879930636778
0.291444135297692
0.294937993927962
0.298364832333437
0.301728118777756
0.305031415853577
0.308278453708565
0.31147307364492
0.314619390296056
0.317721614350233
0.320784431347072
0.323812503193571
0.326811415357629
0.329786235341399
0.332744079213847
0.335689820332785
0.338633051533798
0.341576520458309
0.344534652555936
0.347499056887699
0.350492596552719
0.353471680465411
0.356479647562993
0.359384161173567
0.362308984795114
0.364605340638376
0.368045462665608
0.371705546840227
0.376232561529172
0.38026458678979
0.382614018623703
0.382399074433936
0.378988009461687
0.372924405035525
0.362391825628938
0.344466181565283
0.31086318707375
0.241576843725182
0.107955175418648
-0.16621497861746
-0.2028490999878
0.000194688064988307
-0.0416517354509189
-0.0139520982269766
0.0188444971162425
0.0233588571434584
0.0259118254195693
0.0270648131514017
0.0282716569485384
0.0292124665268286
0.0304014897427816
0.0316485207694127
0.0327896980517723
0.0335131738368386
0.033584727548972
0.0334146915933297
0.0333328887806224
0.0339155757991609
0.0341642235287118
0.0340662578523794
0.033826039017313
0.0335569470374529
0.0334627980042742
0.0336526708796017
0.0341971348655256
0.0351169904162553
0.0364144299426067
0.038077934580648
0.040092225216711
0.0424398833795282
0.0451037587614575
0.0480672331446429
0.051314579177372
0.054830743421671
0.0586011282238253
0.0626113321375961
0.0668468164698933
0.0712928551448066
0.0759346908064068
0.0807575080026193
0.0857463951927453
0.0908862942003864
0.0961620318316241
0.101558334589559
0.107059880690678
0.112651415562934
0.118317760679584
0.124044010343394
0.129815688874894
0.135618833925319
0.141440126261018
0.147266881013738
0.153087124344848
0.158889589718035
0.164663761709794
0.170399896453344
0.176089036159767
0.181723037541762
0.18729454499797
0.192797029933217
0.198224704777722
0.203572560360772
0.208836251917124
0.21401208555458
0.219097066547488
0.224088862628155
0.228985824902857
0.233786901890244
0.23849161339072
0.243099949806683
0.247612324246568
0.25202950895681
0.256352527570761
0.26058271123619
0.26472167235823
0.268771346476543
0.272733929221002
0.276611873986431
0.280407788527944
0.284124422761886
0.287764658353892
0.29133152827472
0.294828219407031
0.298258054865777
0.301624504864539
0.304931142076727
0.308181710897232
0.311380068640339
0.314530352580974
0.317636797807794
0.320704127719379
0.32373704071362
0.326741185932296
0.329721676627919
0.332685722214406
0.335638270319849
0.3385890654956
0.341540740114028
0.344508040004974
0.347482168545974
0.350486652051427
0.353476559713468
0.356496903645862
0.359410087309305
0.362348719944634
0.364628869616221
0.368079499454349
0.371723939991119
0.376205854550313
0.380103976193189
0.382274603074109
0.381868298468612
0.378289009646006
0.372014397339258
0.361125751747514
0.342557836246531
0.307791995506309
0.236799927614131
0.102455469746271
-0.159999877762688
-0.191315049795891
0.00114282254035611
-0.0393788003614269
-0.015239606760773
0.0178929819474562
0.0231763234157923
0.0258467291389682
0.0270343731925127
0.0282485657065629
0.029188948636783
0.0303612019892106
0.0315960853222989
0.0327380719195579
0.0334874701867697
0.0335993106295232
0.0334699745587978
0.0333760104798656
0.0339457018835208
0.0341902300947889
0.0340764760624217
0.0338252708087337
0.0335566785371883
0.0334723726338158
0.0336751297919433
0.0342314469997984
0.0351603523176232
0.0364638949641563
0.0381308730567836
0.0401464819740181
0.0424937058684138
0.0451557184178351
0.0481161435828698
0.051359443425928
0.0548707172731323
0.0586354956901796
0.0626394923033515
0.0668682626541262
0.0713071529197417
0.075941478535918
0.0807564825567957
0.0857373196964434
0.0908689975150434
0.0961364087798387
0.101524345818665
0.107017550384775
0.112600832096071
0.118259068078705
0.123977399402149
0.129741392016113
0.135537118812687
0.14135129430222
0.147171263008768
0.152985078003462
0.158781495429996
0.164550018341847
0.17028091702986
0.175965242788614
0.181594857785942
0.187162406618682
0.192661359797416
0.198085926051733
0.203431095024693
0.208692520990326
0.213866504043694
0.21895003783986
0.223940772452251
0.228837038668778
0.233637762493881
0.238342441983673
0.242951047553023
0.24746397656297
0.251881992603916
0.256206113537351
0.260437662061891
0.264578236689921
0.268629756410443
0.272594398326088
0.27647460608454
0.280272978261345
0.283992263551492
0.287635346502118
0.291205254838544
0.294705168831808
0.298138411908918
0.301508459603014
0.304818896298088
0.3080734834862
0.311276097015959
0.314430900017629
0.317542155583043
0.320614629269008
0.323653061044858
0.326663169476685
0.329650121162214
0.33262122311605
0.335581506374228
0.338540885468314
0.341501891606576
0.344479603696704
0.347464863372939
0.350481909343378
0.353484624176747
0.35651990572142
0.359445116788325
0.362402387510791
0.364668866601311
0.368121433922385
0.371717827640989
0.376126882874049
0.379861776479377
0.381829450084033
0.381213726139464
0.377447905166565
0.370934573347902
0.359645672488576
0.340361429746362
0.30434502963522
0.23155610839936
0.0968086946616143
-0.153614312561259
-0.17946689566039
0.00248005026755285
-0.0364769256911257
-0.0164431898742471
0.0168893486700805
0.0229336223556689
0.0257791468995777
0.0270026236665232
0.0282240453317232
0.029163413046212
0.0303156245549731
0.0315322933398147
0.0326684552391493
0.0334425606421177
0.0336047015306132
0.0335410916138421
0.0334316172209557
0.0339790244567388
0.0342098871394672
0.0340764328645694
0.0338148769111495
0.0335505842797343
0.0334796848728441
0.0336975077570139
0.0342667704304622
0.0352051779882795
0.0365149108413375
0.0381852294274051
0.0402018824651072
0.0425483011955789
0.0452080105480956
0.0481648947424794
0.051403618768301
0.0549094455479373
0.0586680430575116
0.0626652485045197
0.0668867159814549
0.071317856911291
0.0759440625507635
0.0807506483320763
0.0857228388687074
0.0908457094388565
0.0961042204637579
0.101483232199113
0.106967552099615
0.112542056508999
0.118191679725235
0.123901610890437
0.129657458806301
0.135445332424156
0.141251981086437
0.147064779367068
0.152871807972568
0.158661846165126
0.164424415806963
0.170149801546832
0.175829063787024
0.181454070135036
0.187017465083901
0.192512718059469
0.19793403341636
0.203276399309526
0.208535468337071
0.21370753387563
0.21878957758482
0.223779231199373
0.228674804679715
0.233475200760569
0.238179895062052
0.242788837085487
0.247302407628104
0.25172136062826
0.256046707214663
0.260279761272805
0.264422107128582
0.268475647584042
0.272442542282233
0.276325220163211
0.280126275348001
0.283848455235579
0.287494641294867
0.291067856719428
0.294571278746062
0.298008231724129
0.301382197515648
0.304696772717541
0.307955736856784
0.311162985334127
0.314322708437323
0.31743919857399
0.32051726459281
0.323561689404767
0.326578261296601
0.329572201655155
0.332550913362907
0.335519504895793
0.338488060723727
0.341459017995487
0.344447767709669
0.347444823469126
0.350475121132253
0.353491524675176
0.356542920786916
0.359482125907499
0.362460856195202
0.364715148166426
0.368172666537398
0.371693382759306
0.376006561208081
0.379553329749326
0.381296412686743
0.380453325070944
0.376479999669924
0.369696909376633
0.3579598069854
0.337883907955174
0.30053820600039
0.225911252300157
0.0911266611860599
-0.146882945313421
-0.167448369105991
0.00423932723297163
-0.0330760833773008
-0.0174537599828506
0.0159013613790555
0.0226097605224704
0.0257058357272692
0.0269700711603694
0.0281981199515561
0.0291357100621912
0.0302646079480225
0.0314579038020123
0.0325839843104494
0.0333842832684805
0.0336062346081523
0.0336249208206482
0.0334943982952926
0.0340109887354133
0.0342183401029584
0.0340631711076738
0.033793507782591
0.0335376049221612
0.0334831082431056
0.0337177791253296
0.034301006136593
0.035249508524613
0.036565755601492
0.0382395528449642
0.0402572502336347
0.0426027574124277
0.0452599729416221
0.0482130585348636
0.0514468964075388
0.0549469252066359
0.058698960913796
0.0626889743180593
0.0669027152698856
0.0713256638912264
0.0759432932624635
0.0807410040391596
0.0857040900549858
0.0908176976621796
0.0960668574558304
0.101436499755331
0.106911499734224
0.112476802858704
0.118117401890407
0.123818535290909
0.129565856018273
0.135345510001124
0.141144282678011
0.146949579455071
0.152749509550381
0.158532875927745
0.164289219761128
0.170008840466741
0.175682807825072
0.181302995156347
0.186862046857223
0.192353431426563
0.197771348447358
0.20311078458403
0.208367390167324
0.213537451277994
0.218617937531194
0.223606462022251
0.22850131384089
0.233301372147585
0.238006089869744
0.242615395009463
0.247129651255024
0.251549601939735
0.255876250412195
0.260110901344323
0.264255124779896
0.268310808869203
0.272280092941469
0.276165393317158
0.279969299880222
0.28369455455492
0.287344036386162
0.29092076522348
0.294427916486774
0.297868815361332
0.301246949921108
0.304565928990325
0.307829550461565
0.311041729480297
0.314206683770226
0.317328735148541
0.320412735221488
0.323463509280234
0.326486912868306
0.329488220431795
0.332474926738611
0.335452203128643
0.338430295294904
0.341411551158942
0.344411633546577
0.347420755491967
0.350464496303678
0.353494859062896
0.356562731344911
0.35951696702709
0.362518501032571
0.364762704593548
0.368230936163357
0.371653230612711
0.375850510784754
0.379187012254676
0.380685838808963
0.379598121172224
0.375395447483889
0.368310470394508
0.356076118809628
0.335136737785228
0.296394407425281
0.219917550954112
0.0854951339711812
-0.139463394722656
-0.155356216789096
0.00646082163025983
-0.0293306588211608
-0.0181801441770293
0.0149841589581517
0.0221946047886932
0.0256205238470877
0.0269371535338781
0.0281710294735045
0.0291060379880336
0.0302088470262151
0.0313752072787516
0.0324891726861587
0.033317884004828
0.0336060768760081
0.0337140390145667
0.0335576891600951
0.0340372642355253
0.0342126079838772
0.0340353397199545
0.0337608574926231
0.0335172717745843
0.0334816647128627
0.0337347322676588
0.0343329161296076
0.0352921904944109
0.0366154078805457
0.0382929724777326
0.0403118692745759
0.0426565114653448
0.0453111910309077
0.0482603638528991
0.0514891438998525
0.0549831581706897
0.0587283817836111
0.0627109294497578
0.0669166378084427
0.0713310665548
0.0759397846931929
0.0807282774857042
0.0856819109213875
0.090785905951629
0.0960253655911282
0.101385292022353
0.106850629776732
0.112406395461912
0.118037641100199
0.123729655406422
0.129468136658743
0.135239268572536
0.14102987394827
0.14682738976991
0.152619954650435
0.158396395850833
0.164146274406895
0.169859905005928
0.175528367213711
0.181143540523603
0.186698069457793
0.192185422017157
0.197599792828476
0.202936167328049
0.208190193075294
0.213358148353226
0.218436990960285
0.223424315374182
0.228318390185365
0.233118071081491
0.237822788440965
0.242432448504002
0.246947397581947
0.251368367505854
0.255696352732317
0.259932648349131
0.264078810935753
0.268136713190789
0.272108475025044
0.275996501464428
0.279803374211783
0.283531829923216
0.287184746026389
0.2907651390339
0.294276182859944
0.297721203506061
0.301103694823374
0.304427277520027
0.307695767763178
0.310913100024771
0.314083519000664
0.31721137513445
0.320301561050796
0.323358942524602
0.326389437978753
0.329398371122967
0.332393323047896
0.335379508695413
0.338367320675677
0.341359022907592
0.344370497545436
0.347391685269173
0.350448730662247
0.35349293500694
0.356577124140523
0.359546853649653
0.362571606969156
0.364808066502114
0.368293164058168
0.37159814997429
0.375661558170571
0.378767315471711
0.380003407878872
0.37865407944774
0.37419941767799
0.366779481732228
0.353998040557508
0.332128246158689
0.291929350676799
0.213629780772082
0.0803123175317161
-0.131015215212163
-0.143280605549475
0.00915884167983724
-0.0253885569512934
-0.0185663071026973
0.0141467006219158
0.0217017139320621
0.0255142577543139
0.0269038914971476
0.028143232150699
0.0290749531535348
0.0301496853679161
0.0312870745789644
0.032388021550232
0.0332463127860915
0.0336031800141507
0.0337996934168388
0.0336153697780407
0.0340546713774079
0.0341909580685235
0.0339926834901073
0.0337172437753681
0.0334894762066321
0.0334747981590159
0.0337476102517349
0.034361684426267
0.0353324307803615
0.0366631401600951
0.0383448494003651
0.0403652006841496
0.0427091297831583
0.0453613384011431
0.0483065917443407
0.0515302493918049
0.0550181391073313
0.0587564061491534
0.062731316773757
0.0669287881600343
0.0713344698956255
0.0759340440553962
0.0807130738952615
0.0856570026492586
0.0907511288653765
0.0959806298046095
0.10133058093015
0.106785997364016
0.112331968477298
0.117953605801515
0.123636248877773
0.129365642296465
0.135128008224656
0.140910208071705
0.146699711082553
0.152484686132933
0.15825398536464
0.163997190244523
0.169704631299291
0.175367398390096
0.180977377796099
0.186527214563905
0.192010376866601
0.197421054374418
0.202754231817971
0.208005553552119
0.213171289600884
0.218248386417912
0.223234420162928
0.228127639667698
0.232926877610019
0.237631542323265
0.242241518320997
0.24675713454086
0.25117911044486
0.255508430435549
0.25974638017527
0.263894503080094
0.267954655137312
0.271928940502499
0.275819750730905
0.279629657396679
0.283361392456454
0.287017831895515
0.290601988536288
0.294117035034309
0.297566298225165
0.300953277053498
0.304281603431316
0.307555111297372
0.310777753503373
0.313953800620441
0.317087630190422
0.32018417308358
0.323248332549258
0.326286083888609
0.32930279462355
0.332306123811532
0.335301311308367
0.33829887554068
0.341301000375038
0.344323728263905
0.347356758350549
0.350426701651921
0.353484326539392
0.356584259474484
0.35956950703749
0.362617182473333
0.364848017548701
0.368356266138878
0.371528085022181
0.375441298937794
0.378297010816294
0.379252657756136
0.377624717678621
0.372894488029486
0.365105429583599
0.351726541286467
0.328863703407147
0.287149978407195
0.207339312206074
0.0761277382458432
-0.121849966669107
-0.131353140925647
0.0122500444664454
-0.0213532479736089
-0.0185939532265216
0.0133677185501308
0.0211750203884522
0.0253765510211362
0.0268695855678993
0.0281153320403614
0.0290432890197557
0.0300887575777204
0.0311961566874163
0.032283305620816
0.0331705178259732
0.0335947771273507
0.0338736928149975
0.0336626909831162
0.0340608972191212
0.0341524138161573
0.0339357456379893
0.0336632753864208
0.0334542827048452
0.0334621789200156
0.0337558945689388
0.0343867165724692
0.0353696301205303
0.0367083890824608
0.0383946804173997
0.040416814999972
0.0427602642653363
0.0454101521740185
0.048351566643323
0.0515701257807527
0.0550518701469219
0.0587831261133935
0.0627503133631923
0.0669394317808392
0.0713362299399079
0.0759265140996076
0.0806959216731251
0.0856299778968061
0.0907140613346622
0.0959334249351957
0.101273218476335
0.106718528505705
0.112254518406418
0.117866358898544
0.12353944054683
0.129259555073822
0.135012963606951
0.140786567392573
0.146567868547478
0.15234506705374
0.158107040493551
0.163843391336625
0.169544466563636
0.175201366921298
0.180805986214578
0.186350970562914
0.191829789201512
0.197236627006743
0.202566468788264
0.207814955318856
0.212978347912018
0.218053582370834
0.223038217079609
0.227930482184773
0.232729188141965
0.237433722069001
0.242043947067057
0.246560174969448
0.250983111978135
0.255313731449482
0.259553310456541
0.263703376866784
0.267765773546666
0.271742588271163
0.275636198416221
0.279449164543922
0.283184213665744
0.286844220388125
0.29043219348245
0.293951304562731
0.297404881273959
0.30079642667875
0.304129582901436
0.307408200796219
0.310636250181231
0.313818025855016
0.316957930283153
0.320060928902431
0.323131958476063
0.326177043765327
0.329201589309872
0.332213320410479
0.335217486266659
0.338224703485484
0.341237077244714
0.344270747686147
0.347315206825702
0.350397413750055
0.353467787354457
0.356582536363803
0.359582956243612
0.362652616429759
0.364879557764691
0.368417093934505
0.371442407444079
0.37519050729101
0.377777764059961
0.378435792104168
0.376512103322749
0.371481861884011
0.363288773554477
0.34926182124346
0.325340412737634
0.282067970798553
0.201601284030914
0.0728170368591283
-0.112472177949435
-0.11968681452085
0.0153710201365686
-0.0172722511182832
-0.0182612910657925
0.0126260428541817
0.0206809951137188
0.0251975129324564
0.026832638427625
0.0280879802783027
0.0290120265999445
0.0300276742040875
0.0311045571508664
0.0321766961559579
0.0330902617156886
0.0335776492299831
0.0339293242457959
0.0336962420840559
0.034054081794275
0.0340966696148541
0.0338655690243693
0.0335996340368568
0.0334118330903367
0.0334436095886113
0.0337592155457022
0.0344075632277087
0.0354033211102304
0.0367507060913925
0.0384420593057457
0.0404663622982694
0.0428096299001757
0.0454574171512304
0.0483951462999003
0.0516087058790885
0.0550843608973909
0.0588086304134528
0.0627680815422026
0.0669488074045262
0.0713366676799061
0.0759175930755043
0.0806772960245498
0.0856013878377861