/*--------------------------------*- C++ -*----------------------------------*\
  =========                 |
  \\      /  F ield         | OpenFOAM: The Open Source CFD Toolbox
   \\    /   O peration     | Website:  https://openfoam.org
    \\  /    A nd           | Version:  7
     \\/     M anipulation  |
\*---------------------------------------------------------------------------*/
FoamFile
{
    version     2.0;
    format      ascii;
    class       volScalarField;
    location    "20000";
    object      Pk;
}
// * * * * * * * * * * * * * * * * * * * * * * * * * * * * * * * * * * * * * //

dimensions      [0 2 -3 0 0 0 0];

internalField   nonuniform List<scalar> 
15600
(
1.99978898231773e-07
1.23883588200406e-10
1.38887889108827e-08
6.75726655313387e-09
1.20576651207727e-10
6.28198376077136e-12
1.63054392003122e-11
3.0432887939785e-11
5.46378754610386e-11
9.35473438885805e-11
1.1309885532946e-10
7.77120369440668e-11
6.30342683266581e-12
3.81623666014689e-11
1.13708036194256e-10
5.34058550319677e-11
2.15513140344971e-11
8.18976190088558e-12
2.12591880187566e-11
4.44638140165618e-10
2.29915086756216e-09
7.22144498348111e-09
1.68699855098001e-08
3.24899690261192e-08
5.47043690336225e-08
8.36792568400565e-08
1.1924459904587e-07
1.61040057620882e-07
2.08556071751194e-07
2.61179153226636e-07
3.18195711336027e-07
3.78801773743503e-07
4.42102684428124e-07
5.07123613380174e-07
5.72826187812658e-07
6.38139591382718e-07
7.02004119218875e-07
7.63403810199966e-07
8.2138545416437e-07
8.75143534170963e-07
9.24010410257114e-07
9.67329289512049e-07
1.00410282909647e-06
1.03331500122716e-06
1.05444848799063e-06
1.06730200397424e-06
1.07187387740977e-06
1.06834501008269e-06
1.05705465993605e-06
1.03847715604307e-06
1.01319230062214e-06
9.81868336744308e-07
9.45237462432822e-07
9.04078316595049e-07
8.59194136599385e-07
8.11392932436558e-07
7.61468430069487e-07
7.10181468455362e-07
6.58246163525517e-07
6.0631528620407e-07
5.54977561558421e-07
5.04752579120099e-07
4.56100549499552e-07
4.09419633630179e-07
3.65037872931047e-07
3.23211511550836e-07
2.84123458956519e-07
2.47889292384144e-07
2.14563097334669e-07
1.84147628081893e-07
1.56602407283971e-07
1.31856375994407e-07
1.09817374170595e-07
9.03711163712438e-08
7.3383161754687e-08
5.87006363918437e-08
4.61557905650952e-08
3.55744494840673e-08
2.67792133109677e-08
1.9592771424864e-08
1.38409965074989e-08
9.35096988280943e-09
5.95521678361797e-09
3.49121661869784e-09
1.80591484666398e-09
7.5316111012827e-10
1.96277581632533e-10
7.8742472700359e-12
7.08426622545666e-11
2.79417640332774e-10
5.40258348366633e-10
7.75613044453856e-10
9.23663198666953e-10
9.48025428799373e-10
8.38519318278927e-10
6.17749371794224e-10
3.32219615374302e-10
8.76989781286316e-11
4.09184178516963e-12
2.10908473947221e-10
8.08737828438568e-10
1.66994910999411e-09
2.70969929883537e-09
3.12011720982241e-09
5.70949198440318e-09
1.06876383741538e-08
1.12568090473464e-08
6.88043080777766e-09
1.7890992953288e-10
7.21210836535801e-09
3.76687328236637e-08
8.13574021795618e-08
1.3031837232995e-07
1.91983560902268e-07
3.19236894342222e-07
7.58737728336494e-07
3.28663522824173e-06
3.51761511475582e-05
5.39055023799043e-05
1.9975174546962e-06
3.44876142764588e-05
3.13653779893469e-07
1.83538513295224e-06
9.89045059348473e-07
2.61114428188061e-08
1.50775824869309e-09
2.865787287281e-09
5.29701535265121e-09
9.35810424158411e-09
1.55730217783149e-08
1.91447189138233e-08
1.50557594789215e-08
4.00259286698532e-09
1.58590343413143e-09
8.47126679258681e-09
4.83494379151491e-09
9.96514290627415e-10
1.32197419128876e-09
3.26279315590511e-08
2.02151161437755e-07
7.11872947948276e-07
1.80729311542464e-06
3.67504254838613e-06
6.40687850855968e-06
1.00057508054934e-05
1.44235331430385e-05
1.95818051886846e-05
2.53884410125002e-05
3.17414215597656e-05
3.85327984803535e-05
4.5648882360463e-05
5.29714153704968e-05
6.03781856044535e-05
6.77448975305349e-05
7.49477887337584e-05
8.18671374539039e-05
8.83913761716544e-05
9.44200535551151e-05
9.98649884169216e-05
0.000104659127353115
0.000108753128164714
0.000112105569571122
0.000114604489065463
0.00011618951326359
0.000116858120171569
0.000116624322115838
0.000115520691768842
0.000113595816099532
0.000110911202383086
0.000107538631928157
0.000103557119231561
9.90510177560716e-05
9.41076687905666e-05
8.88156393505695e-05
8.32627701802509e-05
7.75344236648955e-05
7.17119398607737e-05
6.58711516657298e-05
6.00814360794924e-05
5.44047187951174e-05
4.88954679457638e-05
4.36005309469749e-05
3.85597955525576e-05
3.38061074324209e-05
2.93648550373224e-05
2.52540830565675e-05
2.14846849414119e-05
1.80611138085613e-05
1.49821100163888e-05
1.22416640195955e-05
9.82986589391434e-06
7.73386590077873e-06
5.93851017422464e-06
4.42643741013754e-06
3.17837700492975e-06
2.17351857268347e-06
1.3899973766635e-06
8.05475399928793e-07
3.97490399319279e-07
1.43653908800741e-07
2.18246703820781e-08
1.02757180831823e-08
8.78832458793325e-08
2.34247940839336e-07
4.29823685699672e-07
6.55902644763089e-07
8.94664620049997e-07
1.12936765936962e-06
1.34431988397639e-06
1.52519969030904e-06
1.65891359887929e-06
1.73461260346587e-06
1.74305979750221e-06
1.67963420374321e-06
1.5483856695051e-06
1.35299766234024e-06
1.09948168440153e-06
8.1237650182238e-07
5.1678653295202e-07
2.60914742762683e-07
7.77744621961106e-08
5.76738322400829e-09
4.06434668487241e-08
1.43451836072453e-07
4.06885946205206e-07
6.81322220817037e-07
5.44029218106245e-07
1.72537926166456e-07
2.04506975537668e-07
2.06710618559195e-06
6.60497112989543e-06
1.26407880039811e-05
1.95487811660841e-05
2.82286737803152e-05
4.59363738789089e-05
0.000103260635238646
0.000402411576355688
0.00292867542027231
0.0039671326396908
0.000608588707134356
0.00444728287924956
3.70413943500984e-05
2.51059986606887e-05
1.5914571493146e-05
6.28341027303185e-07
3.94104503252799e-08
5.81578034601816e-08
1.06199805467338e-07
1.84202459972993e-07
2.9778938032296e-07
3.73211446738178e-07
3.37190088812716e-07
1.74789983839713e-07
3.75812543891e-08
2.6228911890288e-08
2.61086160097322e-08
9.93173516332519e-09
2.75142568109707e-07
1.9326895574413e-06
7.63133326815734e-06
2.07613185261311e-05
4.38285069294498e-05
7.73786316313622e-05
0.000120424345064237
0.000171223088751184
0.000227903426414162
0.000288683265085231
0.000351958720701822
0.000416279192006656
0.000480338365202603
0.000542948822632813
0.000603034610888995
0.00065962545764802
0.000711862143448463
0.000759005740834209
0.000800446833736627
0.000835715579214436
0.000864485022838126
0.000886552964877128
0.000901901437737389
0.000910798094240175
0.000912609272811142
0.000907443043589928
0.000895739694645153
0.00087792858851125
0.000854518113748679
0.000826081384516859
0.00079323646142458
0.000756627022196494
0.00071690778516802
0.000674730139620733
0.000630733160808493
0.000585533961234529
0.000539720582665051
0.000493845069654294
0.000448417691780983
0.000403902543684769
0.000360713812488555
0.000319214292387479
0.000279714236830345
0.00024247326292451
0.000207701943921212
0.000175564583523277
0.000146180035730451
0.0001196222943032
9.59229646905564e-05
7.50744802473333e-05
5.70345256645766e-05
4.17305989794809e-05
2.90647258950771e-05
1.89176545636596e-05
1.11523727300008e-05
5.61616588759284e-06
2.14249004809121e-06
5.53448409817637e-07
6.62786496131787e-07
2.27860487102566e-06
5.20542061868428e-06
9.24495802474738e-06
1.41971614052954e-05
1.98628251191064e-05
2.60424972045916e-05
3.25411984978995e-05
3.9159962999279e-05
4.5711242779926e-05
5.2001050596394e-05
5.78394756136171e-05
6.30395253014326e-05
6.7416185955905e-05
7.07885791789266e-05
7.29778628763739e-05
7.38152906744622e-05
7.31382419438286e-05
7.08184591145346e-05
6.68809115878079e-05
6.1305378008691e-05
5.40607589040701e-05
4.53735720153115e-05
3.55779593523495e-05
2.54483892726116e-05
1.57731387702158e-05
7.90606550365226e-06
2.52112828365325e-06
2.56341278462075e-07
7.27496710617883e-07
5.88537094246218e-07
2.87427566159067e-07
3.53533478578661e-06
1.8536530641696e-05
5.56029938477599e-05
0.000122104686874845
0.000208319028073877
0.000312378351213808
0.000444559182954997
0.000703167209889048
0.00144850232801275
0.00467318911770133
0.0185943479425351
0.0215835806110273
0.00977508801321104
0.0370328984826514
0.000889715808449023
0.000109806705018892
9.04331052514214e-05
5.43231630654558e-06
3.66705591266716e-07
4.35106614520104e-07
7.81437644034576e-07
1.32545658738802e-06
2.08081704340937e-06
2.66515497824031e-06
2.76261923570266e-06
2.2488388604109e-06
1.33099859150069e-06
2.79374040438938e-07
2.08214249297795e-08
6.45681490829356e-07
6.21220227301737e-06
2.66481083352946e-05
7.61988250310802e-05
0.00016142233813416
0.000276430220165501
0.000408534631804258
0.000545610053849775
0.000679159637340441
0.000804034913639537
0.000917293017241021
0.00101734347637389
0.00110338198702525
0.00117511330124121
0.00123257857577065
0.00127607012405147
0.001306076267683
0.00132324932944329
0.00132837747894439
0.0013223534582395
0.00130614746840575
0.00128078964027949
0.00124734079354816
0.00120718287955888
0.0011605906237551
0.00110863432827836
0.00105236877430599
0.000992733918455369
0.000930624109951111
0.000866877552397044
0.000802271036626987
0.000737516408067583
0.000673260029160457
0.000610084700314283
0.000548511751162681
0.000489003539589524
0.000431965801607714
0.000377749895092889
0.000326655321468058
0.000278932253203318
0.000234784270834817
0.000194371245840203
0.00015781205692634
0.000125187431145735
9.65423236160729e-05
7.18883514414805e-05
5.12060394552968e-05
3.44470825352689e-05
2.15367131711131e-05
1.2376378166119e-05
6.8461794296976e-06
4.80694415153347e-06
6.10184217302079e-06
1.05576295080723e-05
1.79851125562952e-05
2.81796926922322e-05
4.09240051409228e-05
5.59895388024121e-05
7.31390616351605e-05
9.212717200029e-05
0.000112697945704282
0.000134587422932149
0.000157517780072144
0.000181201355274383
0.000205344804383087
0.000229644304183224
0.000253796182008618
0.000277468884871827
0.000300322071673312
0.000321995432453994
0.000342111225556687
0.000360266628576232
0.000376035647959245
0.000388952733316221
0.000398522158852422
0.000404183317563931
0.000405348248272737
0.000401321650517242
0.000391516503953258
0.000375444614174162
0.000352373895511967
0.000321524732295557
0.000282815192198296
0.000236273315029711
0.000183766133583885
0.000128630628172753
7.58966357141764e-05
3.11486682432375e-05
1.04741506982395e-05
2.12552968221609e-05
5.0550115687848e-05
0.00010936511798238
0.000208659473537434
0.000373608348092806
0.00062841753356642
0.000982691719287948
0.00146491559868294
0.00211232691695776
0.00327981349753961
0.00601619917881023
0.0144101934311803
0.0250015416291856
0.0180729385609293
0.0311896621744015
0.0806794858478666
0.00640391497590925
0.000217477650331887
0.000285140246532161
2.66493149977102e-05
1.94000266973402e-06
1.9004954503114e-06
3.33245211142328e-06
5.48986661215765e-06
8.34142479886365e-06
1.08847248303209e-05
1.27083183367568e-05
1.38447541831133e-05
1.29011857687058e-05
6.9566109312627e-06
1.88734250647562e-06
9.10232166770843e-06
4.86979351724943e-05
0.000142814891216818
0.000297136195847833
0.000476868168371943
0.000639271868771086
0.000762621427960209
0.000845104816875577
0.000893859330192344
0.000917043116643497
0.000921290528178206
0.000911465654232482
0.000891070678132487
0.000862672745691648
0.000828213830339307
0.000789216332528948
0.000746915108045991
0.000702338784067866
0.000656357383818151
0.000609710822746277
0.000563031013238269
0.000516873442159605
0.000471806867845139
0.00042813558324642
0.000385913972146055
0.000345400267291051
0.000306820777513612
0.000270347992691241
0.000236118638984286
0.00020423731443491
0.000174781388328938
0.000147804855897794
0.000123342428653962
0.000101412960040209
8.20218176817577e-05
6.51628030282326e-05
5.08196003032127e-05
3.89670787614968e-05
2.95725166672662e-05
2.25966038172869e-05
1.79942714171738e-05
1.57152315856605e-05
1.57041912072128e-05
1.79005455464614e-05
2.22385085351382e-05
2.86469471184326e-05
3.70512945157501e-05
4.737534985307e-05
5.95411284843259e-05
7.34686069238205e-05
8.90743848347069e-05
0.000106270791514044
0.000124964516487293
0.00014505611746862
0.000166438554730381
0.000188998004005326
0.000212618820387075
0.000237183070176113
0.000262571225313505
0.000288659141263358
0.000315312427878451
0.000342388407706268
0.000369731364401424
0.000397174624306895
0.000424561295101109
0.000451713613610426
0.000478447208424076
0.000504561936852292
0.000529843656339895
0.000554056101293732
0.000576949731870751
0.000598246299800788
0.000617652569019934
0.000634824228396794
0.000649406530221553
0.000660942783179798
0.000668996053785416
0.000672881798029605
0.000672140626160773
0.000665893505772051
0.000653404723781977
0.000632635539631301
0.000602754611230729
0.000559566610988084
0.000502486073606022
0.000425195373609301
0.000331544846692538
0.000209748244143544
0.000134888184595375
0.000194063859594619
0.00030584991175336
0.000472066835430846
0.000659790570162351
0.000911862521154512
0.00126750231950127
0.00183856467005164
0.00276227587432637
0.00414071465303164
0.00642447673333546
0.0103434741157096
0.0170795199718559
0.0122442220383605
0.000276760089328238
0.0384848051246368
0.0940757129631483
0.0192711129166007
0.000187633812766742
0.000588141111814525
8.91939653701014e-05
7.17279085493555e-06
5.92533853832256e-06
1.00209388157208e-05
1.58354853591854e-05
2.30221609016184e-05
3.01120179584894e-05
3.80173500812823e-05
4.84906728410889e-05
5.44856946854563e-05
4.15252121991303e-05
1.92902293574692e-05
5.26373965387154e-05
0.000179297805721118
0.000369930810650581
0.00056340612761353
0.000683860266954107
0.000716357344431466
0.000690075506744721
0.000636254783658249
0.000574093737722746
0.000512454152711953
0.000454699256339393
0.000401725181645838
0.000353490390443232
0.000309655594668161
0.000269840123562774
0.000233704917914407
0.000200973279413721
0.000171424709662471
0.000144881403649046
0.000121196367646693
0.000100246579743035
8.1931404861631e-05
6.61415633531911e-05
5.26670715457352e-05
4.14099739135964e-05
3.22939878096918e-05
2.52266559588132e-05
2.01106084509622e-05
1.68477669363042e-05
1.5340326873017e-05
1.54933257401065e-05
1.7215603063602e-05
2.04200692254682e-05
2.50239625808576e-05
3.09482431611214e-05
3.81177419139805e-05
4.64610390619386e-05
5.59106909625635e-05
6.64033581152535e-05
7.78797182875343e-05
9.02843033678703e-05
0.00010356484379526
0.000117671870622778
0.000132557428083965
0.000148175215396834
0.000164479622835498
0.000181427363694916
0.000198979774657232
0.000217101797354642
0.000235760238232652
0.000254921041454501
0.000274547566520519
0.000294598811125773
0.000315029375469241
0.000335787658845757
0.000356817392904506
0.000378064584432515
0.000399476847316261
0.00042100338358083
0.000442590246815228
0.000464174544900074
0.00048568192523892
0.000507027386743136
0.00052813133967149
0.000548908511627117
0.000569275449524419
0.000589142454069419
0.000608402443727144
0.000626944347937626
0.000644643718994948
0.000661376006879763
0.000677001472218809
0.00069138716971015
0.000704369850565296
0.000715815210628693
0.000725519583554394
0.000733378057559385
0.000739080124591432
0.000742754160559652
0.000744018294526236
0.00074301686352673
0.000738399407790561
0.000730577296430195
0.000715228566637791
0.000692329345097345
0.000649589259088173
0.000587467213631667
0.000461772024615948
0.000373678170486176
0.000450158808124584
0.000625423741802394
0.000861011536996521
0.0010670736890877
0.00127951099257111
0.00153277528128494
0.00200020755226875
0.00289383817828294
0.00437081268403485
0.00670178230427929
0.00952243620810766
0.0117214222980047
0.00865948159949245
0.00841356282684743
0.0269036401062262
0.0834195566531605
0.0338905999786067
0.00043972674034629
0.000822388713128044
0.000217563728063129
2.03714119420804e-05
1.44851181537786e-05
2.31909036208771e-05
3.44599064910639e-05
4.69131164061235e-05
5.99132437214928e-05
7.83179078047809e-05
0.000106949659926121
0.00012906760422772
0.00011548339430868
8.08934057417436e-05
0.000160525965382617
0.000374744850779082
0.000568759017997747
0.000656701512966674
0.0006221792246241
0.000525756042489435
0.000420786579084064
0.000329231568565588
0.000255241531709601
0.000196723290665752
0.000150494219291967
0.000113784852318903
8.45074484291466e-05
6.11552591882926e-05
4.2651905558383e-05
2.82219126727211e-05
1.7297397719599e-05
9.45165323785663e-06
4.3528388548729e-06
1.73218375682545e-06
1.3616579386845e-06
3.03692139966884e-06
6.5793242665731e-06
1.18454648742931e-05
1.86959216259927e-05
2.69900685337313e-05
3.65924728049429e-05
4.73732445501717e-05
5.92071498791485e-05
7.19735009544154e-05
8.55584062668786e-05
9.98570136198071e-05
0.000114773096344432
0.000130218820269378
0.000146113421489886
0.000162382906329125
0.000178959885622324
0.000195783665900287
0.000212800392062856
0.000229962782403073
0.000247229849811938
0.000264565973296233
0.000281940670022173
0.000299327080042647
0.000316702355368639
0.000334045698453609
0.000351339225849663
0.000368571859150807
0.000385738320726994
0.000402836360605834
0.000419863189477052
0.000436813174537451
0.000453675888490327
0.000470436589769933
0.000487073472062714
0.000503558788905131
0.000519868384079767
0.000535982127518614
0.000551883880590371
0.000567555305481445
0.00058296854055918
0.000598077561901703
0.000612838829891968
0.000627201371757534
0.000641130084227178
0.000654579419035098
0.000667505315134877
0.000679847996842755
0.000691545555536485
0.000702529074090593
0.000712737087199158
0.000722102181707597
0.000730576435933646
0.000738097025653321
0.000744652015997883
0.000750188316365425
0.000754794591986119
0.000758413651200321
0.000761454672704557
0.000764015843776037
0.000766877535618368
0.000769492533684451
0.000773384637877663
0.000775580131588116
0.000777738022817225
0.000768173393357192
0.00074804925895232
0.00065489323278471
0.000598409137320412
0.000673726069405824
0.000890764358386944
0.00117233004249086
0.00139000482430129
0.00155461254182204
0.0016933929972898
0.00198066662273549
0.00262678290253855
0.00375975560551955
0.00551758254657189
0.00725536159322434
0.00924701040425616
0.014536054572499
0.0208762263260336
0.013231210519639
0.0649412310556623
0.0446581717938978
0.00299958215985492
0.000765747461210597
0.000396461985137005
4.60277295159442e-05
2.89345148324997e-05
4.28000657846219e-05
5.83467483269772e-05
7.27125886588343e-05
8.94262745281857e-05
0.000119619354823554
0.000169948872188344
0.000212963623799181
0.000209135506542967
0.000191815866860528
0.000310043015920964
0.000535137742127061
0.000629339326772059
0.000576942186418869
0.000448041651898564
0.000320042751444933
0.000220089518798623
0.000148101512400479
9.75544739290321e-05
6.23772940352652e-05
3.81744945395707e-05
2.19846908803531e-05
1.1834992966898e-05
6.40033140480687e-06
4.76937729590624e-06
6.29978284179438e-06
1.05250940135301e-05
1.70941611307718e-05
2.5729679743866e-05
3.61978031587831e-05
4.82876785437148e-05
6.18152772242178e-05
7.66557584968186e-05
9.26724941931152e-05
0.000109713257000432
0.00012762810304708
0.000146276602480182
0.000165524793341311
0.000185243896192894
0.000205308824110428
0.000225600687367658
0.000246011968903209
0.000266446155045452
0.000286817477227492
0.000307049109754164
0.000327072387982918
0.000346826785632528
0.000366259896075147
0.000385327767788597
0.000403994594500211
0.000422232457420289
0.000440020310880761
0.000457344094509562
0.000474195005317628
0.000490570060922079
0.00050646845325811
0.000521891208608094
0.00053684768364006
0.000551355031272341
0.000565434466141825
0.000579106888282691
0.000592389951148738
0.000605295867357008
0.000617832360115203
0.000629998360482347
0.000641783611665797
0.000653181427368301
0.00066419122250611
0.000674818902338423
0.000685069330010399
0.000694930976092673
0.000704385139577504
0.000713403219682974
0.00072196045936911
0.000730042352154132
0.000737626930803636
0.000744696072442871
0.000751217693306992
0.000757156568147526
0.00076247449040612
0.000767145385924093
0.000771143687916622
0.000774471370265682
0.000777126464098661
0.000779171116156748
0.000780647309126493
0.00078176311815902
0.00078263217177637
0.000783824572369867
0.000785765444512818
0.000789653851938369
0.000795531037323859
0.000805626786979383
0.00081815906350601
0.000836006535895756
0.000849463436586011
0.000861436694032467
0.000802317332453922
0.000780872278643846
0.000868072215585404
0.00112837327484568
0.00145999881664633
0.00171322522502829
0.00186948758953991
0.00195582359191119
0.00214248483227016
0.00263665588724524
0.00353883957383455
0.00501293526177242
0.00673789120259322
0.0112358572557838
0.0233694606910279
0.0295338382866197
0.00606002349774547
0.0478295950102143
0.0510855160222287
0.00906963332807603
0.000435801663948424
0.000562638365801323
8.27847443859281e-05
4.7823092096914e-05
6.37861075940561e-05
7.82772277209796e-05
8.89040135400742e-05
0.000107576579603289
0.000150914061045983
0.000224086942821177
0.00028997278723636
0.000304046840719486
0.00031752146885916
0.000443189093920981
0.000602569871012967
0.000574537644407187
0.00044042705663131
0.000297733831978031
0.000190935986590885
0.000119962999058776
7.51854602908281e-05
4.81466861265048e-05
3.31527642909881e-05
2.65356458776606e-05
2.59786135135706e-05
2.99780958970001e-05
3.75375477193796e-05
4.79690459377775e-05
6.07856720457833e-05
7.56311397398445e-05
9.22339516028986e-05
0.000110373721378607
0.00012985283688001
0.000150481475311379
0.000172119832946198
0.000194644142796507
0.000217916881597743
0.000241782162990886
0.000266087077304696
0.000290687733797389
0.000315446373825228
0.00034023070784248
0.000364910286944008
0.000389359461443697
0.000413466445496597
0.000437133088493392
0.000460274562825757
0.000482816922896917
0.000504695646120926
0.000525855751424197
0.00054625161747106
0.000565847561309063
0.000584617523904322
0.000602544866443495
0.000619621348039126
0.000635847700111523
0.000651231632483432
0.000665788571691589
0.000679535602267418
0.000692489398412702
0.00070467630976564
0.000716132717304466
0.000726900314256967
0.000737020880219305
0.000746532658705505
0.000755467877323307
0.000763854200941854
0.000771708382086988
0.000779033239276753
0.000785834138042562
0.000792124561168002
0.000797927249017125
0.000803260378724613
0.000808133645418828
0.000812542669764411
0.00081647812260786
0.000819926588617922
0.000822886711123392
0.000825353527442149
0.000827327233294875
0.000828795145918896
0.000829739462692253
0.000830142191292113
0.000830000998923487
0.000829319400141925
0.000828134743540379
0.000826489493460407
0.000824500096619145
0.000822280287939318
0.000820126592342112
0.000818285917408307
0.000817452599408569
0.000818294579763172
0.000822320187082014
0.000830021883637599
0.000844116001088023
0.000863748247286922
0.000892627168222354
0.000922945233841486
0.000959460981967226
0.000930031555686518
0.000935995257720301
0.00104985303418458
0.0013607452249297
0.00175167668420892
0.00206111271278071
0.00224205541893976
0.00232775513276874
0.00249338869353403
0.00296118828872877
0.00384230051194417
0.00544754812067827
0.00793046507184532
0.0158330912593755
0.0326763771797357
0.0350381938383752
0.00428838467367797
0.0358062875572398
0.054417778420824
0.0172969595005036
9.35332990771258e-05
0.000675872508679506
0.000117444421823783
6.53710787932767e-05
7.75172133860484e-05
8.56335969122892e-05
9.10898548911072e-05
0.000114053165241985
0.000172563765665465
0.000268285131328639
0.000356913533234032
0.000392308935788144
0.0004250358178039
0.000522958250593342
0.00058545277099259
0.000472579107622061
0.000321588452194233
0.000203627411180242
0.000129024726391328
8.60113206582349e-05
6.39536090375858e-05
5.54841756948322e-05
5.6129866242939e-05
6.30876525154414e-05
7.46300047985748e-05
8.96324971250036e-05
0.00010734576394233
0.000127241977018267
0.000148943673407933
0.00017217261511368
0.000196714947683319
0.000222392027432765
0.000249031434340077
0.00027646252766431
0.000304561027354827
0.000333196920795898
0.000362229378289014
0.000391499729666553
0.000420851151690832
0.000450134125601838
0.000479204988289526
0.000507926035132519
0.000536158990434332
0.000563768579605017
0.00059063642847183
0.000616660973836982
0.000641756973203151
0.00066585221727465
0.000688885189867682
0.000710805321519057
0.000731572603191238
0.000751158444148552
0.000769545391603675
0.000786726994293935
0.000802706836941817
0.000817499711807313
0.000831129330059281
0.000843629317951912
0.000855033999388004
0.000865373934455638
0.000874690588094671
0.000883038037839901
0.000890477199518045
0.000897069706194915
0.000902873538686416
0.000907940263519478
0.000912317082021329
0.000916037981511889
0.000919116938767152
0.000921568518645493
0.000923417504552773
0.000924697992878911
0.000925442587691328
0.000925678613845645
0.000925423179931845
0.000924675116089243
0.000923429559729963
0.000921694836179438
0.000919479861523146
0.000916800107855694
0.000913658660703579
0.000910050999000595
0.000905974527208922
0.000901445413037047
0.000896490610797083
0.000891176600396062
0.000885583266837423
0.000879873035003836
0.000874221339207679
0.000868999775950912
0.000864570388266887
0.000861741360756331
0.000861375560278046
0.000865235548670722
0.000874181327235749
0.000891298903109368
0.000916459385414356
0.000953967829719819
0.000997581319397368
0.00105389800658565
0.00104990553658393
0.0010769431947488
0.00122652359603155
0.00159519488939562
0.00205383934616987
0.0024329665774107
0.00266070057944433
0.00278213264822331
0.00298537188204578
0.00352105225888752
0.00454358506505089
0.00658377619921177
0.0102808173897975
0.0218653503957268
0.0413639587380695
0.0409368999413952
0.00484707336961694
0.029619436257254
0.055805121135931
0.0258307053489018
5.77553653593057e-05
0.000751559019530749
0.000132868082759296
7.38714509315217e-05
7.82870931790445e-05
7.98110147571908e-05
8.38029780638883e-05
0.000114133432384106
0.000187793396303357
0.000303643110343147
0.000413012635131377
0.000468335929231451
0.000498495451099892
0.000544071149659187
0.00051907955502461
0.000371899135381453
0.000240254372802862
0.000155484944291068
0.000109946547783706
8.9724286408011e-05
8.5793956820485e-05
9.22263513558173e-05
0.000105614677088893
0.000123816352037294
0.000145531268634718
0.000169900196878946
0.000196342986783595
0.000224439071027044
0.000253885249111679
0.000284458139836197
0.000315986421377202
0.000348323375810936
0.000381311153921233
0.000414795632865297
0.000448645730616721
0.000482729195505823
0.000516899788568696
0.000550995282829777
0.000584853163811686
0.000618316228593579
0.000651233114179138
0.00068345914543121
0.000714846079425321
0.000745246412605752
0.000774533192481971
0.000802600056409815
0.000829360392306233
0.000854742991456069
0.000878688613170886
0.000901150377893563
0.000922093145150866
0.000941494678778526
0.000959345446578344
0.000975648549733971
0.000990418880723443
0.00100368504145047
0.00101548676816106
0.00102587634733262
0.00103490545667342
0.00104261749112809
0.00104906784506478
0.00105432749620773
0.00105847606351811
0.00106159474760803
0.00106376116703306
0.00106504636057306
0.0010655175859515
0.00106522652606487
0.00106419749540793
0.0010624524877236
0.00106002497581767
0.0010569558833579
0.00105329703532893
0.00104909611106487
0.00104438759849473
0.00103917567251246
0.00103346240798513
0.0010272642645381
0.00102060253496306
0.00101350691277061
0.00100599472570079
0.000998072831169831
0.000989751728131628
0.000981063697163943
0.000972056666178799
0.000962823675058558
0.000953479174170879
0.000944228237783735
0.000935303713572726
0.00092714651753986
0.000920224017531874
0.000915457376219072
0.000913872494476441
0.000917456657557735
0.00092738068442164
0.00094703098156658
0.000976852719863094
0.0010216075059903
0.00107627140259054
0.0011492602677909
0.00116719436885011
0.00121103045788802
0.00140115633397534
0.00183347666404183
0.00236646551838547
0.00282355514631683
0.0031133253832159
0.00329812539863074
0.00358445712905907
0.00425921131398761
0.00554483831386578
0.00823573204057366
0.0134522207073699
0.0285335902411589
0.0496894010681899
0.0444373100853604
0.00614078418205645
0.0280832361171079
0.0558965501565438
0.0335165471523087
0.000632440630663587
0.000797912554644857
0.000127363899509624
6.94884525461538e-05
6.75785680404641e-05
6.64378774416794e-05
7.30607716203815e-05
0.000111471947963896
0.000197995008009852
0.000330172777847177
0.000456751588808468
0.00052619585942687
0.000534077646510195
0.000519711169110209
0.000436627427382938
0.000292497337023024
0.000192241954701758
0.000137926646433578
0.000116313239732476
0.000114665106430686
0.000125805753877571
0.000144949771210288
0.000169477364590721
0.000197710363343769
0.000228648071160738
0.000261614337450817
0.000296145137479977
0.00033189246487851
0.000368605201481258
0.000406100867287115
0.000444242072095585
0.000482908686846961
0.000521949237843283
0.000561219250482988
0.000600575064555512
0.000639883482992311
0.00067899122370797
0.000717731521113339
0.00075593455509377
0.000793433794793008
0.000830068850097223
0.0008656870419466
0.000900128460335336
0.000933231069315282
0.000964857690983253
0.000994896169095041
0.00102325795858902
0.00104987250320562
0.00107468247383225
0.00109764431359423
0.00111872735851511
0.00113791532568697
0.00115520624907248
0.00117061245442632
0.00118415991427634
0.00119589107161709
0.00120586202530224
0.00121414461346746
0.00122080847252581
0.00122590916844137
0.00122951519008626
0.00123171400435085
0.00123260378346815
0.00123228536286768
0.00123085624516264
0.00122840745520004
0.00122502730397971
0.00122078619739744
0.00121571853811978
0.00120985238210298
0.00120322339363024
0.00119588684886262
0.00118791114351366
0.00117936835381953
0.00117030597952473
0.00116073309071435
0.00115065769807116
0.00114010376431907
0.00112910429989604
0.00111770317827108
0.00110593152355087
0.00109380675633644
0.00108135142755509
0.00106861298148792
0.0010556594543887
0.0010426097171612
0.00102961199095675
0.00101691310670903
0.00100480180086353
0.000993786216573438
0.000984433187938521
0.000977777262203905