/*--------------------------------*- C++ -*----------------------------------*\
  =========                 |
  \\      /  F ield         | OpenFOAM: The Open Source CFD Toolbox
   \\    /   O peration     | Website:  https://openfoam.org
    \\  /    A nd           | Version:  7
     \\/     M anipulation  |
\*---------------------------------------------------------------------------*/
FoamFile
{
    version     2.0;
    format      ascii;
    class       volSymmTensorField;
    location    "20000";
    object      tauij_B_bouss;
}
// * * * * * * * * * * * * * * * * * * * * * * * * * * * * * * * * * * * * * //

dimensions      [0 2 -2 0 0 0 0];

internalField   nonuniform List<symmTensor> 
15600
(
(4.05921259872918e-06 1.79982732044606e-08 3.47979487456297e-30 4.05634776160507e-06 4.21546846657321e-30 4.05689253879153e-06)
(8.90606924298996e-07 -1.78950189535691e-10 -3.48412584550154e-26 8.9067141323607e-07 -6.73394826932015e-26 8.90739566737644e-07)
(1.01314312565612e-07 -8.05013233920351e-11 -7.05734988770461e-32 1.00272842645706e-07 -1.7497680289796e-32 1.00783965012271e-07)
(2.21973505704411e-07 -1.8461602478873e-10 2.29988600646206e-30 2.21019611048017e-07 1.50347945977146e-30 2.21485378655159e-07)
(4.08993037517297e-08 -1.38858799232946e-11 -4.450541845463e-31 4.08445375764413e-08 -2.64675127536892e-31 4.08720038492094e-08)
(2.53271077908308e-09 -9.13602347827331e-13 3.85735520703697e-30 2.52933273911253e-09 -3.6525507979472e-31 2.53100776035304e-09)
(7.7089741713054e-09 -2.73926069860389e-12 2.04244402977762e-28 7.69821821574829e-09 1.24038896519312e-28 7.70358574867596e-09)
(1.22631660143262e-08 -4.9338850792475e-12 6.91362514434393e-27 1.22424623355544e-08 -1.37315242792215e-27 1.22527800039619e-08)
(1.89560952509919e-08 -8.587458389255e-12 -6.15122987585756e-26 1.89182649412882e-08 -8.65040578634355e-26 1.89371389916611e-08)
(2.95354598291859e-08 -1.44938291591405e-11 -1.37417023306664e-25 2.94684541358719e-08 -1.33730023406266e-25 2.95018168677796e-08)
(4.52314254043713e-08 -1.91852093545238e-11 -5.32755441786719e-26 4.51309572159489e-08 4.14367408517074e-27 4.5181006154247e-08)
(6.69255213674585e-08 -1.54625630776805e-11 -2.28212043498204e-26 6.68102642585128e-08 -1.74975881028286e-26 6.68678861431151e-08)
(8.96752685105655e-08 9.68895808154076e-13 1.44764149930859e-27 8.96310660910862e-08 -2.15399221626698e-28 8.96540016202217e-08)
(9.79089531933011e-08 -5.34797862768896e-12 -2.51759149180851e-27 9.80387708867337e-08 4.7402487036679e-28 9.79759712435391e-08)
(6.98553771199587e-08 -6.04980218129533e-11 4.92176810063049e-27 7.00341010334754e-08 1.08437262861912e-26 6.99462834087878e-08)
(3.21079914432065e-08 -5.14480199226777e-11 2.73476822534861e-28 3.21346197532366e-08 -7.12129419730987e-27 3.21218402162584e-08)
(3.69853877809287e-08 -3.57319786563725e-11 6.47669339621501e-28 3.69818835747579e-08 -1.17829090601331e-28 3.69837305588961e-08)
(7.09919808699596e-08 -3.02914586812187e-11 5.23717325506314e-30 7.09839930335522e-08 2.67321908586049e-29 7.09881730778726e-08)
(1.21761556836428e-07 6.33947932406341e-11 -3.99073488097741e-31 1.21738131869811e-07 -4.54173854489355e-29 1.21750261434454e-07)
(1.99322615868038e-07 3.76354888962255e-10 -1.87662422155664e-29 1.99271639669463e-07 7.35115226636074e-29 1.99297843562372e-07)
(3.06738291784224e-07 1.06312402162133e-09 3.57980835774801e-29 3.06648168559359e-07 3.42960569545987e-28 3.06694974433188e-07)
(4.43122531792848e-07 2.26560852958406e-09 -1.06171185605059e-29 4.42987002069585e-07 3.63092259395746e-28 4.43058046699564e-07)
(6.04371493599228e-07 4.04489721859241e-09 -5.0003580988054e-29 6.04190927469571e-07 -4.84098456039785e-28 6.04286934298042e-07)
(7.85453768116457e-07 6.39997865445434e-09 6.27399160504579e-29 7.85232315604723e-07 -2.12881472007004e-28 7.85351985827768e-07)
(9.8181114886946e-07 9.28527017696588e-09 -1.83225983029857e-28 9.81554118568757e-07 2.76488303811626e-28 9.81695691840714e-07)
(1.19002000711964e-06 1.26436260188909e-08 2.10597830326566e-24 1.18973230569277e-06 -2.97419956682098e-25 1.18989408636994e-06)
(1.40755831807803e-06 1.64152968438174e-08 1.16647102930547e-23 1.40724409988437e-06 -1.00822235448113e-23 1.40742471995123e-06)
(1.63261677860878e-06 2.05453086629983e-08 8.49468040340701e-24 1.63227961311717e-06 -9.05541255988369e-24 1.63247785374225e-06)
(1.86377367499208e-06 2.49814156808431e-08 -3.54315336961198e-24 1.8634168271715e-06 4.64695049565985e-25 1.86363151737588e-06)
(2.09986424985288e-06 2.96741383143422e-08 5.26435427767147e-28 2.09949092608555e-06 2.12076441255376e-27 2.09972079384835e-06)
(2.33984321535942e-06 3.45746010915368e-08 5.74461015459046e-24 2.33945676114988e-06 -6.85649332640123e-25 2.33970034996059e-06)
(2.58272545676521e-06 3.96336968703549e-08 2.94704434529361e-23 2.58232950153472e-06 -2.17904813295258e-23 2.58258508976816e-06)
(2.82753100386444e-06 4.48009423654161e-08 1.88352927001838e-23 2.82712954544775e-06 -1.91535375129535e-23 2.82739510658628e-06)
(3.07326881618931e-06 5.00243226308036e-08 -8.21187799461625e-24 3.07286623617625e-06 9.09857336549751e-25 3.07313942994131e-06)
(3.31893941049107e-06 5.52506060949261e-08 -1.36456299693206e-28 3.31854043077001e-06 3.66506482268089e-28 3.31881862088722e-06)
(3.56356092443451e-06 6.04265293650364e-08 5.92468543030504e-28 3.56317045825785e-06 2.64777294087871e-27 3.56345079714888e-06)
(3.80623285863211e-06 6.55008358213194e-08 -2.38031521548925e-28 3.8058558838652e-06 2.3512008606156e-29 3.80613539101144e-06)
(4.04619099340004e-06 7.04257034747785e-08 -1.5006094044134e-23 4.04583251689927e-06 1.35424190569285e-24 4.04610810653812e-06)
(4.28281487347949e-06 7.51571682254617e-08 -5.83361068806579e-23 4.2824798705047e-06 4.7157013114526e-23 4.28274840226904e-06)
(4.51595683482448e-06 7.96614329347689e-08 -2.72942270700668e-23 4.5156502065911e-06 4.2127640981759e-23 4.51590850071895e-06)
(4.74578458199816e-06 8.39126175288897e-08 1.89635987930194e-23 4.74551106324707e-06 -1.55471236760603e-24 4.74575594730274e-06)
(4.97198387843286e-06 8.78795902269262e-08 -4.45422384195699e-43 4.97174796776707e-06 3.75469805522881e-28 4.97197634128013e-06)
(5.1920144847693e-06 9.14943218384979e-08 -0 5.19182048774489e-06 -7.22218660972847e-27 5.19202927293958e-06)
(5.40253733953672e-06 9.46789394865945e-08 2.1404289587784e-39 5.40238915909563e-06 -1.40949915096795e-40 5.40257541684165e-06)
(5.6019439403805e-06 9.73915210621435e-08 4.07118801024335e-39 5.60184487151748e-06 -5.68362664186635e-39 5.60200594259487e-06)
(5.78939821189997e-06 9.96094035852351e-08 3.446052330894e-23 5.78935080503332e-06 -1.99054910685984e-24 5.78948441951057e-06)
(5.96423484131233e-06 1.01318786637059e-07 9.53625543221691e-23 5.96424088021895e-06 -9.81550632536171e-23 5.96434518707277e-06)
(6.1259582515423e-06 1.02514258001848e-07 2.235641102706e-23 6.12601879347621e-06 -9.25332226287866e-23 6.12609235475841e-06)
(6.27421052344032e-06 1.03197791775015e-07 -3.94703488228425e-23 6.27432592952666e-06 1.96544903319747e-24 6.27436772450223e-06)
(6.40876432293646e-06 1.03378048269369e-07 -1.64424389709955e-27 6.40893433060497e-06 -1.14026588625191e-26 6.40894372131171e-06)
(6.52947724536248e-06 1.03069065334391e-07 5.8801767735048e-28 6.52970098808052e-06 -5.74659055864777e-27 6.52967772499945e-06)
(6.63630377285214e-06 1.0229004132905e-07 4.90781526745942e-23 6.63657982898232e-06 -1.61010961198868e-24 6.63652402593288e-06)
(6.7292771845157e-06 1.01064491675213e-07 1.07466033921046e-22 6.72960360850505e-06 -1.40519113491029e-22 6.72951573506577e-06)
(6.80852033310858e-06 9.9419955773533e-08 4.47000582328959e-24 6.80889470664065e-06 -1.39634647774635e-22 6.80877556242647e-06)
(6.87424230007671e-06 9.73873173289269e-08 -5.30099746255977e-23 6.87466179409279e-06 1.31671464950651e-24 6.87451247767684e-06)
(6.92673344788926e-06 9.50001431957665e-08 -2.83185677494593e-28 6.92719488834145e-06 -4.347636107212e-27 6.92701676430981e-06)
(6.96636366536653e-06 9.22939914836913e-08 -0 6.9668636182888e-06 -0 6.96665826670466e-06)
(6.99355657383428e-06 8.93054632615457e-08 -0 6.99409141051952e-06 -0 6.99386059612216e-06)
(7.00878755732615e-06 8.60715746260987e-08 -0 7.00935355256533e-06 -0 7.00909915834057e-06)
(7.01252434826319e-06 8.26285833487043e-08 -8.90146681299291e-29 7.01311770636634e-06 -0 7.01284172535691e-06)
(7.00524230360673e-06 7.90119495080109e-08 5.72162594479323e-29 7.00585922159048e-06 -1.06604643431645e-27 7.00556370395517e-06)
(6.98738094881052e-06 7.52557159460934e-08 1.20460416504132e-28 6.98801757595562e-06 -1.70349337738107e-27 6.98770465057948e-06)
(6.95942114814889e-06 7.13935990156439e-08 -8.84797682879804e-29 6.96007359334047e-06 2.77435521129451e-27 6.95974546055903e-06)
(6.92194853253228e-06 6.74590504026209e-08 -0 6.92261297615885e-06 -0 6.92227183735063e-06)
(6.87561102964974e-06 6.34841743976017e-08 3.94896474388741e-28 6.87628379732369e-06 8.12638284298409e-30 6.87593181796899e-06)
(6.82111329300485e-06 5.94991705940833e-08 -2.95225808087755e-28 6.82179095169072e-06 4.68879592503775e-27 6.82143019672365e-06)
(6.75914758753763e-06 5.55313483091125e-08 -4.84498698850219e-28 6.75982697592937e-06 -4.67291841661317e-27 6.75945939454183e-06)
(6.69037823717855e-06 5.16049742097855e-08 -4.33940991018008e-28 6.69105649740173e-06 -1.25669331548501e-26 6.69068389372646e-06)
(6.61538443560392e-06 4.77409226685e-08 6.53095246555672e-28 6.6160589880105e-06 2.8126997565562e-27 6.61568303324162e-06)
(6.53464638587239e-06 4.39569933124183e-08 1.24526298289133e-28 6.53531490256813e-06 -3.28543335294355e-27 6.53493714166556e-06)
(6.44849644732548e-06 4.02680023903647e-08 -9.38853086946186e-28 6.44915677812728e-06 -1.00934608017339e-26 6.4487786590013e-06)
(6.35713658730978e-06 3.6686840221367e-08 -8.00448068669595e-23 6.35778664666235e-06 -3.92738283659085e-24 6.3574095871212e-06)
(6.26085126928541e-06 3.32259934121525e-08 -1.78056401157033e-22 6.26148908469909e-06 2.99206227448918e-22 6.26111443502612e-06)
(6.15997443683239e-06 2.98968966772133e-08 -3.48487570804886e-23 6.1605982000983e-06 6.48234492792446e-22 6.16022722253522e-06)
(6.05493396039433e-06 2.67097543562949e-08 1.39790487884333e-22 6.05554210220789e-06 3.50900289139667e-22 6.05517592256205e-06)
(5.94616119301354e-06 2.36728534224299e-08 7.67219600310627e-23 5.94675238685476e-06 4.70965759360818e-24 5.94639199718811e-06)
(5.83389438658608e-06 2.07919574224404e-08 1.69910427320011e-28 5.83446752126185e-06 4.61552511459984e-26 5.83411378652636e-06)
(5.71843055048586e-06 1.80717476524693e-08 -3.25529835574115e-27 5.71898463603404e-06 2.63086216215495e-29 5.71863834705432e-06)
(5.59977752467246e-06 1.55153968745246e-08 -7.87963112410457e-23 5.60031162163968e-06 -6.18091787009112e-24 5.59997353025166e-06)
(5.47781740329126e-06 1.31253423239405e-08 -8.43041376730935e-23 5.47833062929876e-06 3.3163678938142e-22 5.47800144963871e-06)
(5.3528794548391e-06 1.09045463042446e-08 6.93463035916607e-23 5.35337103755705e-06 3.7789933111887e-22 5.35305140941961e-06)
(5.22474189839368e-06 8.85414471996949e-09 7.34814855085048e-23 5.22521115118298e-06 6.37737322548238e-24 5.22490165497488e-06)
(5.09370629378873e-06 6.97554583989161e-09 -1.57220136260817e-27 5.09415262575918e-06 1.46669216544702e-28 5.09385378318229e-06)
(4.9588024567587e-06 5.26811108164188e-09 1.48156777872265e-27 4.95922530572013e-06 -4.38165489845889e-26 4.95893758673458e-06)
(4.82072424955875e-06 3.73334361798566e-09 1.53704922021295e-27 4.82112309029248e-06 1.80105581916337e-26 4.82084694390423e-06)
(4.67862935813984e-06 2.37094726339424e-09 4.8649553600221e-29 4.67900349996195e-06 1.11552219260402e-29 4.67873949830332e-06)
(4.53198932485249e-06 1.18152833200055e-09 -1.42394077011141e-27 4.53233802207403e-06 1.71978738008474e-26 4.53208677128922e-06)
(4.38038687025533e-06 1.65628816160005e-10 -2.85139291038203e-27 4.38070934157313e-06 7.05127669311742e-27 4.38047144995295e-06)
(4.22320734055654e-06 -6.75777187372294e-10 2.71564008843901e-27 4.22350270945184e-06 -8.64690072352515e-26 4.22327886234886e-06)
(4.05963114953747e-06 -1.34227510095291e-09 1.33615620758135e-27 4.05989846954025e-06 6.11992812703927e-26 4.05968936225232e-06)
(3.88861144264541e-06 -1.83232824569345e-09 -1.26915285765181e-27 3.88884961599718e-06 -1.56703683273141e-28 3.88865609393529e-06)
(3.70906857975826e-06 -2.14635239830626e-09 -0 3.70927647721795e-06 -0 3.70909933335729e-06)
(3.51945912911293e-06 -2.28264286804588e-09 -4.82545925813715e-41 3.51963547728499e-06 -4.06763178838205e-26 3.51947575934066e-06)
(3.31874518052404e-06 -2.24616461527196e-09 -9.1178798669498e-41 3.31888911913768e-06 3.84296872125861e-26 3.31874744979103e-06)
(3.11855262429502e-06 -2.04800620909619e-09 -0 3.11866359765422e-06 -0 3.11854061135878e-06)
(2.91083836965489e-06 -1.6983623477402e-09 -0 2.91091584072174e-06 -3.47371057809228e-26 2.91081181812902e-06)
(2.68956887417497e-06 -1.19707559384395e-09 -9.3790830755114e-23 2.68961246873037e-06 -1.42178883142849e-23 2.68952864877379e-06)
(2.45388245023303e-06 -5.86819960402356e-10 -8.33070032612183e-23 2.45389421715827e-06 4.00752787499955e-22 2.45382934779864e-06)
(2.20185652374457e-06 1.15868418752311e-10 7.66686649641332e-23 2.20183936479414e-06 4.55513754352374e-22 2.20179405397857e-06)
(1.93669118027879e-06 8.09115939766479e-10 6.6262977513993e-23 1.93665302871709e-06 1.06360304449123e-23 1.93662220519764e-06)
(1.65965777704603e-06 1.46762195998243e-09 -0 1.65960616072387e-06 -0 1.65958978770321e-06)
(1.38330251936466e-06 1.9256320552692e-09 -0 1.38325301967605e-06 -0 1.38323987004613e-06)
(1.10849302757455e-06 2.19600310027506e-09 -0 1.10846012649456e-06 -0 1.10845029800244e-06)
(8.43457872360612e-07 2.0555026767793e-09 -8.07447496035578e-26 8.4342661007381e-07 -1.46221416388808e-26 8.43415308101951e-07)
(8.27415733056239e-07 2.69460457279481e-09 -9.46368384060818e-26 8.28861939180001e-07 1.79197407018297e-24 8.28138325201081e-07)
(1.27540669036508e-06 2.57225058015087e-09 2.43677379518253e-24 1.28273388520285e-06 -4.33883473523855e-24 1.27909948884328e-06)
(1.69558598913228e-06 7.03095404201942e-10 -5.87041390413296e-24 1.70480594222907e-06 5.93234750454101e-24 1.70028979116528e-06)
(2.13420043069528e-06 -5.29812152402129e-10 4.52788021591516e-24 2.14126441363096e-06 -3.48369453773662e-24 2.13784928592494e-06)
(2.44246317120584e-06 -2.79780171457257e-10 1.83509457344542e-24 2.44339885626356e-06 -1.34394782156651e-24 2.44301937319082e-06)
(2.56976870160171e-06 1.01296642875319e-09 3.45155320777979e-24 2.5636179929718e-06 -2.48268140451702e-24 2.56671729972003e-06)
(2.56315115453599e-06 2.51656892626902e-09 -1.06057616362153e-24 2.55047025146929e-06 1.09120315555941e-24 2.55675884082309e-06)
(2.39024968512141e-06 3.49838280325993e-09 9.62382589071088e-25 2.37367964732274e-06 -7.84412238600993e-25 2.38187431927609e-06)
(2.21183443187528e-06 4.12160622679519e-09 -2.19466307568176e-25 2.19346865492987e-06 -2.58018661276489e-26 2.20253317717945e-06)
(2.05689539215777e-06 4.64782722979312e-09 -2.88316117923123e-25 2.03766167672524e-06 2.55768460424391e-25 2.04713659038685e-06)
(2.12808743337468e-06 5.77736493807547e-09 4.45638494537893e-26 2.10586045560389e-06 3.28455709397696e-27 2.11677727278015e-06)
(2.66929928256696e-06 8.86211388166063e-09 7.78614282838628e-25 2.63428432205805e-06 -4.62923050590555e-25 2.65139446066364e-06)
(5.24343531188374e-06 2.01165075373321e-08 1.09262562350223e-24 5.14189454653712e-06 -6.82985419342416e-25 5.19137808475992e-06)
(1.70731460210354e-05 4.25641534756958e-08 -2.48504121856809e-24 1.63958368469079e-05 2.20688898466974e-24 1.67238649388632e-05)
(1.25428917154106e-05 -2.68565131149e-07 4.2916651713177e-24 1.17848309344722e-05 -2.50822834155779e-24 1.21565432500498e-05)
(4.9052376555293e-06 -6.16323930715461e-08 -6.55178974605566e-26 4.88221260319377e-06 2.64092901906588e-25 4.89376994772191e-06)
(0.000127909173992835 -3.24204430718475e-06 -5.08502364918078e-24 0.000127590776183016 -2.4472450257687e-26 0.000127518598392706)
(2.96553672891974e-05 -1.25336642098302e-07 5.53987017920226e-24 2.97539283716387e-05 1.20649025550229e-23 2.97270343618729e-05)
(3.61009649049097e-06 -1.6920262505361e-08 5.38936595147005e-26 3.43823314792119e-06 2.99444285021378e-28 3.52566282054672e-06)
(7.30457512508437e-06 -2.89604149028618e-08 2.40442231006573e-28 7.14180075248853e-06 -3.39678360956226e-28 7.22409299610044e-06)
(1.50208412037043e-06 -2.64790125244782e-09 -4.26428668192425e-29 1.48986666517829e-06 4.74426820440954e-29 1.49605560919484e-06)
(1.14372921421291e-07 -2.29165352106638e-10 -2.62995302049497e-30 1.13517410344189e-07 2.61282007030123e-31 1.13946821707194e-07)
(2.4675534313544e-07 -4.97567558026759e-10 -4.16462037839982e-26 2.44797592232823e-07 -2.21633897948788e-26 2.45780501962227e-07)
(3.94235874025852e-07 -9.03703607971429e-10 -2.18340180163536e-24 3.90487660337667e-07 3.91106587450164e-25 3.92365075117647e-07)
(6.0897449408896e-07 -1.56020523192509e-09 -4.04488646803393e-23 6.02182653339711e-07 -1.63303635941176e-23 6.0559083453843e-07)
(9.49018868551644e-07 -2.56221148364041e-09 -6.25649010030771e-23 9.37128287293601e-07 -3.58210528926224e-23 9.43098081763071e-07)
(1.4541154878843e-06 -3.2438719062131e-09 1.40586188463162e-23 1.4360118573301e-06 -1.44472007712809e-24 1.44509883075502e-06)
(2.15553982057337e-06 -2.22186991445381e-09 6.65424982121373e-24 2.13313241658629e-06 5.30186790176568e-24 2.1443238585926e-06)
(2.90080974183616e-06 1.66396381671311e-09 4.18243908141681e-25 2.88580293709109e-06 -6.66117260961051e-26 2.89309907327257e-06)
(3.19432422471396e-06 2.89810265184192e-09 7.31320201653957e-25 3.20440485357306e-06 -1.37607233573209e-25 3.19899356199773e-06)
(2.30222562923889e-06 -5.95726099839912e-09 2.21461415356721e-24 2.32528894038678e-06 4.77108901974099e-24 2.31345201987128e-06)
(1.05167102038128e-06 -6.84793167899998e-09 -1.24260694668675e-25 1.05474150473296e-06 1.32420032387592e-24 1.05317951885567e-06)
(1.21141316577231e-06 -3.21158536350591e-09 2.13574438122584e-27 1.20930352246762e-06 -3.8688396802819e-28 1.21028766286421e-06)
(2.3216762397321e-06 4.66257968058374e-09 -1.67976045103131e-27 2.31625742283367e-06 -4.46404841711182e-27 2.31891688424111e-06)
(3.97822021109303e-06 3.42955126768352e-08 -1.17936044694523e-27 3.96399957151106e-06 7.0728539977318e-27 3.97107253408971e-06)
(6.50578641714279e-06 1.10426048537882e-07 9.51734303640306e-27 6.47686206892959e-06 -1.08206633113453e-26 6.49121890869306e-06)
(9.99964315817557e-06 2.57797175409625e-07 2.83218998071496e-27 9.95171504131647e-06 3.20771126372159e-27 9.97550678283714e-06)
(1.44274284370502e-05 4.94149229630328e-07 -3.72966804315626e-27 1.43594571475615e-05 1.88795932165294e-26 1.43930090919541e-05)
(1.96534986894424e-05 8.23111405220418e-07 -5.05602565718764e-27 1.95677860232374e-05 -1.89245620252844e-26 1.96097986739316e-05)
(2.55141379778994e-05 1.23888675504602e-06 -2.34635878511658e-26 2.54144402513119e-05 1.5494009550705e-26 2.54628253680241e-05)
(3.18619222184115e-05 1.73063747756049e-06 4.40997118963758e-26 3.17522023250764e-05 -1.60715736198944e-26 3.18048230516655e-05)
(3.85866419178948e-05 2.28705826704922e-06 -5.49326157215265e-22 3.84703733683572e-05 7.70481241197771e-23 3.85253428943416e-05)
(4.56071927231062e-05 2.89743459905372e-06 -2.34700768502914e-21 4.54873063645031e-05 -5.63446488539782e-21 4.55430496433047e-05)
(5.28654430649381e-05 3.55226701248266e-06 -1.28336045042571e-21 5.27444272748688e-05 -7.21377803530722e-21 5.27996084163777e-05)
(6.03156694593547e-05 4.24280548540123e-06 8.72395779291963e-22 6.01957266090402e-05 -1.14191852534965e-22 6.02491816608928e-05)
(6.79204155606994e-05 4.96091541115144e-06 2.25941210714067e-37 6.7803573735961e-05 -3.92129963656125e-25 6.7854246784775e-05)
(7.56460609088144e-05 5.69873826457594e-06 -1.43894163556825e-21 7.55342648190513e-05 1.7122603437004e-22 7.5581165692364e-05)
(8.34609468692933e-05 6.44855828083498e-06 -5.86091643747199e-21 8.33561127725391e-05 -1.43308258405673e-20 8.33982870116915e-05)
(9.13336164428011e-05 7.20266067189274e-06 -2.87686026413078e-21 9.12376587898628e-05 -1.74644819672641e-20 9.12741752591622e-05)
(9.92323142485144e-05 7.95332839749186e-06 1.96518180118339e-21 9.91471403874142e-05 -2.18413711150798e-22 9.91770935645215e-05)
(0.000107125082845759 8.69291247121961e-06 2.17251838829385e-25 0.00010705256295193 4.68626878713357e-25 0.000107075086935534)
(0.00011498060573084 9.41398740581799e-06 -5.05641773549721e-26 0.000114922519042398 -9.97725112797843e-25 0.000114936814387938)
(0.000122770241839591 1.01096011683627e-05 -6.91422118716702e-26 0.000122728245037537 5.51299848982492e-25 0.000122733592857553)
(0.000130469764342907 1.07734583484674e-05 3.64981575837401e-21 0.000130445395551843 -3.29872461254905e-22 0.000130441151383264)
(0.00013805956560084 1.13999431209121e-05 1.16773525660965e-20 0.000138054246870133 3.59833222662546e-20 0.000138039833114171)
(0.000145535283816766 1.19850238549596e-05 3.84774895785851e-21 0.000145550309899599 4.15842244067754e-20 0.000145525213246072)
(0.000152902716565509 1.25258131446033e-05 -4.47215871569651e-21 0.000152939163466473 3.69077076864555e-22 0.00015290299927202)
(0.000160152047307967 1.30189245857131e-05 -2.21407678155318e-25 0.000160210771588699 -9.09465660982326e-25 0.000160163287192345)
(0.000167151431964909 1.34516209895565e-05 -2.88982263787691e-25 0.000167233055588638 -4.76670173909357e-26 0.000167174129571652)
(0.000173817150069645 1.38158215169673e-05 1.23089333461537e-25 0.000173921988825882 -8.61218517403306e-27 0.000173851653474559)
(0.000180123807694267 1.41089177741445e-05 -7.82805666962167e-26 0.000180251872092895 -1.26782624804529e-24 0.000180170307690315)
(0.000186046261078082 1.43290670969872e-05 -8.29772376818317e-21 0.000186197243746159 4.79382403865942e-22 0.000186104785273672)
(0.000191564753357048 1.44755831164183e-05 -1.95485552864892e-20 0.000191738048873405 -8.07906546736675e-20 0.000191635171054474)
(0.000196664783375908 1.45488491352149e-05 -1.86869422934519e-21 0.000196859528679113 -8.86372905707924e-20 0.0001967468225561)
(0.00020133611729105 1.45501635429804e-05 9.34247640070632e-21 0.000201551226836791 -4.64017883595332e-22 0.000201429380998451)
(0.000205572473348398 1.44816385434827e-05 -2.62973030036311e-25 0.000205806678911953 1.77292431622123e-24 0.000205676456338522)
(0.000209370198480556 1.43460288446108e-05 1.05167624187217e-25 0.000209622071826717 1.99768336106531e-24 0.000209484299057733)
(0.000212728576748754 1.41466922220656e-05 -1.19012533754148e-20 0.000212996556655248 3.89818592945384e-22 0.000212852108105117)
(0.000215649316073075 1.38874813264978e-05 -2.27202490290169e-20 0.000215931730264194 -1.13760464563794e-19 0.000215781517799344)
(0.000218136850761686 1.35726963372253e-05 2.23189353936061e-21 0.000218431942093418 -1.20755060687027e-19 0.000218276901353997)
(0.000220198232812218 1.3206998243355e-05 1.2775022412487e-20 0.000220504187821872 -3.16055888323024e-22 0.000220345264330528)
(0.000221842979730359 1.27953213058636e-05 -1.44913655512483e-25 0.000222157957178852 -2.77769599304934e-26 0.000221996093042144)
(0.000223082985227501 1.23427881302006e-05 7.19272715374942e-26 0.000223405147447387 3.18746076563719e-25 0.000223241265877129)
(0.00022393176222429 1.18545915977609e-05 -0 0.000224259300164311 -6.55491191408231e-25 0.000224094295587096)
(0.000224404298934343 1.13359236148027e-05 -0 0.000224735459959119 3.35280458987363e-25 0.000224570183519685)
(0.000224515340363937 1.07918393638434e-05 -0 0.000224848434067733 -0 0.0002246836948104)
(0.000224279761775929 1.02272585573468e-05 -4.56756931612494e-26 0.000224613168084441 1.95492348349904e-25 0.000224449727597723)
(0.000223711403421488 9.64690444719099e-06 1.79638703220211e-26 0.000224043553587796 -2.13818172984083e-25 0.000223882138629557)
(0.000222825430130779 9.05540867950115e-06 7.31991614608029e-26 0.000223154811126017 1.90559069364388e-26 0.000222996112927765)
(0.000221640171975269 8.45731264358457e-06 -4.54578364616242e-26 0.000221965364249554 -8.01383473406522e-25 0.000221810019780639)
(0.000220175874209826 7.85693903589379e-06 -0 0.000220495576923058 1.62240543040034e-24 0.000220344159736677)
(0.000218454451450411 7.25832638721741e-06 -0 0.000218767508590696 -1.68447093793416e-24 0.000218620515717445)
(0.000216497429024343 6.66512308767081e-06 -2.09036159460444e-25 0.000216802834353338 8.513779740996e-25 0.000216660687002402)
(0.000214325410500301 6.08057377507877e-06 1.33211501781113e-25 0.000214622307751714 -7.77180527364677e-26 0.000214485351006346)
(0.000211956370691118 5.50749229426545e-06 6.38135308211059e-26 0.000212244035859684 9.55048329319809e-26 0.000212112549578454)
(0.000209405195762014 4.9483054035149e-06 -2.70777157829051e-25 0.000209683015231059 -9.27592236494103e-26 0.00020955722518584)
(0.000206682182883729 4.40508685326068e-06 6.51173629253269e-25 0.000206949614098365 1.83743604848082e-24 0.000206829710742788)
(0.000203793669266918 3.87967549276118e-06 2.10066734953345e-20 0.000204050200721932 1.03583628188222e-21 0.000203936361691477)
(0.00020074852822722 3.37381755253762e-06 4.58629230960197e-20 0.000200993697188176 1.84830413990528e-19 0.00020088607665422)
(0.000197557154974012 2.88909167172339e-06 7.19392696588207e-21 0.000197790569889567 3.64335082764708e-19 0.000197689289964916)
(0.000194232827612143 2.42687854939733e-06 -3.84014775468058e-20 0.00019445419182399 1.78864410717481e-19 0.000194359329745476)
(0.000190788998280259 1.98830046760167e-06 -2.07510385293133e-20 0.000190998107338073 -1.285092242804e-21 0.000190909698968427)
(0.000187232942340105 1.57419187712538e-06 4.98739205525643e-25 0.000187429666338752 3.92080752048309e-25 0.000187347712805275)
(0.000183574055342071 1.18523578666098e-06 -4.29032761617892e-25 0.000183758298276215 -7.79003236846455e-26 0.00018368278791852)
(0.000179812577764276 8.21979481105574e-07 2.13329778744279e-20 0.000179984248871541 1.66784804999636e-21 0.000179915170191535)
(0.000175944590893917 4.84893039771657e-07 2.2887067850038e-20 0.000176103618102398 1.80747558440691e-19 0.000176040951787865)
(0.000171980562210327 1.74398042017184e-07 -1.92783667043868e-20 0.000172126910213409 1.73425522086628e-19 0.000172070618023681)
(0.000167913228299451 -1.09192975846629e-07 -2.05744475336846e-20 0.000168046887470831 -1.78196484085249e-21 0.000167996917459912)
(0.000163752275582526 -3.65665614135551e-07 -8.65647061031283e-25 0.000163873252133631 3.76440345058104e-24 0.000163829553633949)
(0.000159466473193294 -5.94749642169986e-07 -1.94110796165284e-26 0.000159574730323488 3.21333135012808e-24 0.000159537281814138)
(0.000155078109340027 -7.9630148287224e-07 4.11924847141226e-25 0.000155173617698169 -3.25536769992447e-24 0.000155142398143686)
(0.00015056035276812 -9.70026744298628e-07 -0 0.000150643053171476 -0 0.000150618049303469)
(0.000145896270492052 -1.11558089657248e-06 4.13733616679802e-25 0.000145966071973384 -3.15794204252141e-24 0.000145947290550994)
(0.000141072447914483 -1.23264521031067e-06 -1.21100676826335e-24 0.000141129232106019 3.1237755749724e-24 0.000141116689669548)
(0.000136069347264377 -1.32079606157577e-06 4.10081881472298e-25 0.000136112965128904 2.62454250223148e-24 0.000136106696956933)
(0.000130860601568988 -1.37959081624085e-06 1.10533444193913e-24 0.000130890865952775 -2.4964903659976e-24 0.000130890913999273)
(0.000125412865134693 -1.40839613132776e-06 -7.16336313621454e-25 0.000125429550521869 -8.84468235083399e-26 0.000125435988196541)
(0.000119691100170463 -1.40675330506379e-06 -7.10245232158067e-25 0.000119693952351262 -9.35410677941398e-26 0.000119706838640095)
(0.000113646025040865 -1.37387319179203e-06 6.96085327967938e-25 0.000113634807356471 -1.82887144931088e-25 0.000113654225509956)
(0.000107240097168364 -1.3098094732779e-06 6.16472381972188e-25 0.000107214712836092 3.45923626150605e-25 0.000107240607831451)
(0.000100808483210127 -1.21896604081076e-06 -1.2157534946146e-24 0.000100768857050138 -5.89846380851483e-24 0.000100801294580361)
(9.41280887238267e-05 -1.10065153580029e-06 1.17474610804622e-24 9.40741808755446e-05 1.07898798867987e-23 9.41130265054498e-05)
(8.70101847833931e-05 -9.53404470844843e-07 2.61694944794066e-20 8.69425018150694e-05 3.98559883784876e-21 8.69875693714e-05)
(7.94259074683936e-05 -7.82267028014566e-07 2.47683859501485e-20 7.93457678694922e-05 2.03377479755809e-19 7.93960646987985e-05)
(7.13106512156428e-05 -5.90091190100833e-07 -2.14057285039463e-20 7.12207904746225e-05 1.72830002186972e-19 7.1275200613085e-05)
(6.27665936984007e-05 -3.91501725959487e-07 -1.96476749462961e-20 6.26712078930888e-05 -3.15771064308133e-21 6.27269679178065e-05)
(5.38295906971656e-05 -1.93609359506319e-07 -0 5.37348024736259e-05 -2.98261160038172e-26 5.37895296553155e-05)
(4.49055037204054e-05 -2.39578584737974e-08 -0 4.48189136211345e-05 3.00586518736444e-24 4.48676101418876e-05)
(3.60195575872968e-05 1.12479604909125e-07 -0 3.59493915452033e-05 -2.46011317680362e-24 3.59899794039629e-05)
(2.74617826775603e-05 1.91050302458303e-07 4.57083086580769e-23 2.74048396829318e-05 1.0156572274581e-23 2.74344302570635e-05)
(2.70208516752221e-05 3.19342958216712e-07 -7.95019309535851e-23 2.71549257786229e-05 -6.25965973276849e-23 2.7089828242259e-05)
(4.1799718057117e-05 2.74551675720523e-07 3.08417870030387e-22 4.26286849460742e-05 -4.79111375626073e-22 4.22052514880523e-05)
(5.55407963810912e-05 1.29416485919324e-08 1.00719467135883e-21 5.64419270030183e-05 -9.8349906631158e-22 5.59789516207517e-05)
(6.97538758022116e-05 -1.31894930698802e-07 -1.00278099133422e-21 7.01743764845926e-05 6.18550973380079e-22 6.99447128684594e-05)
(7.97617295675315e-05 -5.50972514659747e-08 -2.30200615214403e-22 7.92602589381077e-05 1.8486888189172e-22 7.94962846323393e-05)
(8.40292344466509e-05 1.67380232538473e-07 3.47793016745337e-22 8.25458040487206e-05 -1.57697501126428e-22 8.32844437451694e-05)
(8.40072823538082e-05 4.14723881291665e-07 6.15371589403954e-22 8.16437951261701e-05 -4.57849074353874e-22 8.28347775385638e-05)
(7.86907643894339e-05 5.82939004381619e-07 -1.39147819011674e-22 7.58089575034184e-05 1.28942419715847e-22 7.72686533361993e-05)