/*--------------------------------*- C++ -*----------------------------------*\
  =========                 |
  \\      /  F ield         | OpenFOAM: The Open Source CFD Toolbox
   \\    /   O peration     | Website:  https://openfoam.org
    \\  /    A nd           | Version:  7
     \\/     M anipulation  |
\*---------------------------------------------------------------------------*/
FoamFile
{
    version     2.0;
    format      ascii;
    class       volVectorField;
    location    "20000";
    object      U;
}
// * * * * * * * * * * * * * * * * * * * * * * * * * * * * * * * * * * * * * //

dimensions      [0 1 -1 0 0 0 0];

internalField   nonuniform List<vector> 
15600
(
(-0.0436141395033662 0.000562396940937661 4.40143526800386e-23)
(-0.000142926340650175 0.000526319161506751 -2.09572546994502e-23)
(-0.0275056660748167 0.0291750367458078 -1.50020065626986e-23)
(-0.0108461890690061 0.0146529634776219 0)
(-0.00273812868094623 0.00453483329648482 0)
(-0.00260823981691998 0.00423817658618624 0)
(-0.00240745021388842 0.0038732104472869 -6.98921553575061e-19)
(-0.00267789345073544 0.00417229816350332 7.67291744614764e-22)
(-0.00293799659646713 0.00448679498854243 -2.03450817879378e-16)
(-0.00315297531038247 0.00470297186078654 -2.39644214745908e-16)
(-0.00285996752701016 0.00411984936411709 2.27342497636504e-18)
(-0.00196848436898308 0.00267195894801151 2.58470476856287e-18)
(-0.000247176541063856 0.00046883823465364 0)
(0.00204518626329806 -0.00147684387782166 0)
(0.0042190524630002 -0.00198639901926187 3.80819523661934e-18)
(0.00453406776785698 -0.00052841996873376 2.02635785583153e-18)
(0.00294895901475294 3.46741389900587e-05 0)
(0.00195607823216035 1.10391948630808e-05 7.97446229225133e-21)
(-0.00012900277817241 1.10838436320486e-05 -7.97214193747115e-21)
(-0.00336755080924247 1.82689109045594e-05 7.85602453254316e-21)
(-0.00726147070868276 3.59183192028705e-05 -4.3157712486996e-23)
(-0.0114721441432065 5.77927382176439e-05 -7.73349475161356e-21)
(-0.0156131671560802 8.10098731491559e-05 7.7783860106264e-21)
(-0.0195017490792318 0.000103117513011625 -7.74302987539172e-21)
(-0.0230499288166918 0.000123451768947925 8.11619651410681e-21)
(-0.0262504392263717 0.000141622109871726 3.30587971478187e-22)
(-0.0291223934155181 0.000157658102601188 -2.0311300915514e-16)
(-0.031697361666013 0.000171592303949254 -2.18181337183448e-16)
(-0.034005640359405 0.000183535647200326 9.8017424859936e-21)
(-0.0360744577769297 0.000193587208024818 -9.77840354130555e-21)
(-0.0379260656200035 0.000201851265830147 0)
(-0.0395782860683516 0.000208412983598172 -2.8178728012018e-16)
(-0.0410448572972887 0.000213344493730862 -3.06659229870646e-16)
(-0.0423363241190874 0.000216706929506081 0)
(-0.043460773415948 0.000218550722677972 7.18512215504072e-21)
(-0.0444247642787308 0.000218936524988169 -7.17721956920316e-21)
(-0.0452341467164299 0.000217938743207863 0)
(-0.0458942051954112 0.000215631645655505 0)
(-0.0464096509900815 0.000212096860099231 4.25633864527941e-16)
(-0.0467848140789012 0.000207407633576967 4.58586589628364e-16)
(-0.0470238152631444 0.000201623035584647 0)
(-0.0471310428581702 0.000194807881520847 0)
(-0.0471108022444365 0.000187036067141402 0)
(-0.0469676047572626 0.000178414908857544 0)
(-0.0467063741093028 0.00016904366476404 -4.54680127103638e-32)
(-0.0463325083847078 0.000159020971548117 0)
(-0.0458519338255638 0.000148446350822981 -6.83105797932479e-16)
(-0.0452708889055015 0.000137415519697419 -7.21954135784265e-16)
(-0.0445958123211909 0.000126023032288279 -1.50877717510026e-20)
(-0.0438332113110788 0.000114354662712349 7.71239545593435e-21)
(-0.0429895811690844 0.000102494425390616 8.37077242907113e-21)
(-0.0420714197829798 9.05193728382086e-05 -8.37923154931173e-21)
(-0.0410851849183213 7.85032894265128e-05 -8.48684557027074e-16)
(-0.0400373183467988 6.65144558511138e-05 -8.84958685316865e-16)
(-0.0389341991443544 5.46155794241208e-05 -4.69170868786559e-21)
(-0.0377821268143701 4.28642226889329e-05 0)
(-0.0365872617507717 3.13101693152729e-05 0)
(-0.0353555938002941 1.99991462807914e-05 0)
(-0.0340928712243528 8.96643185615663e-06 0)
(-0.0328045808936664 -1.75463882755615e-06 0)
(-0.0314959573978255 -1.21410508119762e-05 1.45671144520883e-21)
(-0.0301720149803446 -2.21699903740506e-05 -1.45900443804901e-21)
(-0.0288377642790004 -3.18203753854923e-05 0)
(-0.0274981085333498 -4.10795997296395e-05 0)
(-0.0261577350893874 -4.99387897323257e-05 0)
(-0.0248210184729316 -5.83979636905387e-05 -6.59109676404017e-21)
(-0.0234919330659983 -6.64596969146238e-05 6.60175799147085e-21)
(-0.0221740431030736 -7.41326466169292e-05 0)
(-0.020870497489361 -8.14262855348957e-05 1.40450688565971e-20)
(-0.0195841151961975 -8.83527326833695e-05 -1.40673149074734e-20)
(-0.018317426097995 -9.49253516356956e-05 1.45960763313412e-20)
(-0.017072960290949 -0.000101151878311335 2.45596412127703e-22)
(-0.0158533271029996 -0.000107045570593373 1.44498519805348e-15)
(-0.0146610913376573 -0.000112620842303804 2.92739199203363e-15)
(-0.0134986477660743 -0.000117898373554376 1.4806850242907e-15)
(-0.012368130177545 -0.000122898729430304 -2.29555824824896e-31)
(-0.0112714123624535 -0.000127645387319579 -3.22628304013521e-20)
(-0.0102101989145993 -0.00013215671918778 -4.34674923844516e-22)
(-0.00918633709771888 -0.000136451403328182 3.27836633244245e-20)
(-0.00820176079140702 -0.000140547800869516 1.61482358019315e-15)
(-0.00725845239584658 -0.000144465483523766 1.61400843393154e-15)
(-0.00635849343568176 -0.000148228100744638 0)
(-0.00550393921704933 -0.000151859242305517 0)
(-0.00469703181970616 -0.000155397514416574 3.54215602009027e-20)
(-0.00394029099989259 -0.000158859234219545 -3.54568561938073e-20)
(-0.00323661373637528 -0.000162255377683017 0)
(-0.00258948541206245 -0.000165611689879953 -3.66501736317585e-20)
(-0.00200281663973359 -0.000168959211062577 3.66794359905549e-20)
(-0.00148153258222099 -0.000172309929308272 3.74319456257594e-20)
(-0.0010310440889278 -0.000175703266066991 -3.74559130439798e-20)
(-0.00065871976688374 -0.000179150520839834 0)
(-0.000372157800788105 -0.000182720684142837 0)
(-0.000182942726634902 -0.000186395254873778 0)
(-0.000101016162831202 -0.000190323982484607 0)
(-0.000143706486219556 -0.000194338097225033 0)
(-0.000322057635487235 -0.000198736650797337 0)
(-0.000667127738107916 -0.000203154958771871 0)
(-0.00118028074865145 -0.000208298925275093 4.00212086825469e-15)
(-0.00190891177252519 -0.000212891965422481 3.92673897007614e-15)
(-0.00280833615827404 -0.000218721787578677 0)
(-0.00395264078416435 -0.000221975956964787 0)
(-0.00515913834861377 -0.000227850761539687 0)
(-0.00655157238582967 -0.000229152169895029 0)
(-0.00737115461604134 -0.000226441767911366 0)
(-0.00945627871991476 -0.00137156319928055 1.10337319643305e-17)
(-0.00956787462065399 -0.00474329845830876 -2.09782438976883e-17)
(-0.0078030502115689 -0.00604064819191896 0)
(-0.00531439755011628 -0.00513822190469996 3.30754950017449e-17)
(-0.00161822916399987 -0.00141005345978138 -2.98459816085743e-17)
(0.00249516147724724 0.00389040729054948 2.73725183813524e-17)
(0.00689261299821511 0.00996084662111576 -1.26496425989083e-17)
(0.0108264626654854 0.0155451833279452 -2.32610837875213e-17)
(0.0142445849559746 0.0206903911062234 -3.09488302282007e-20)
(0.0177891933243096 0.0263466486163935 9.33621689138323e-18)
(0.022418961386842 0.0338238163297205 7.9834396960032e-21)
(0.032074442014185 0.0468523848361831 0)
(0.0526200891585937 0.0687668666048972 0)
(0.118276302948414 0.117575850762911 -5.58603778372464e-18)
(0.223538680073951 0.102983130524172 -4.73314536429133e-18)
(0.0467302675219055 0.00205930590246195 0)
(-0.0428137053867414 0.00074916492707088 -6.6647731602637e-23)
(0.00291673592120747 0.000390043013251086 1.86374726682093e-18)
(-0.0684734788308273 0.0807354451394107 3.27204228558301e-23)
(-0.0297148338227703 0.0428107050524501 -3.74414581215451e-22)
(-0.0088232625906997 0.0142169739200301 3.65046975960048e-22)
(-0.00752426449215719 0.0126316993938303 0)
(-0.00708162360648117 0.0115896461299617 2.15286780524439e-21)
(-0.00780717761287137 0.0123989587988462 1.23602776186943e-18)
(-0.0085233138941912 0.0132783721172906 3.2568013087618e-16)
(-0.00907362116976473 0.0138467563111014 3.54392804187757e-16)
(-0.0084142706967586 0.0122119368246874 -6.93756894263465e-21)
(-0.00635006654048767 0.00818044766089984 3.97292884026603e-18)
(-0.0022928998628904 0.00205555393955586 -8.84412204124925e-21)
(0.00347905658310032 -0.00352582361909507 2.88358206865131e-23)
(0.00962694440935369 -0.00529916968091154 -5.77591854796977e-18)
(0.0112202956921821 -0.00138731313558139 2.46461563786142e-20)
(0.00644159547943462 0.000220219559182448 1.42590551226501e-22)
(0.0021608400570817 0.0002803254531375 -1.21236155402565e-20)
(-0.00511182984691009 0.000482881399285056 1.19624191025188e-20)
(-0.0153496093389551 0.00063371735651439 -1.16886174903871e-20)
(-0.0269807542737148 0.000720454305359317 -1.12692682112271e-20)
(-0.0389585585540822 0.000736212856601736 -9.44308506544395e-24)
(-0.0503347135688706 0.00070480424525291 -1.09225536657216e-22)
(-0.0607329462180275 0.000649580051595677 1.07153749221287e-20)
(-0.0700316974350131 0.000587916408661327 -1.11005017170221e-20)
(-0.078284918971248 0.000528069287200256 2.23356189813642e-20)
(-0.0855908191026812 0.000473526760465 2.78770949679925e-16)
(-0.0920596845636426 0.00042479162376293 2.83316384777461e-16)
(-0.0977876821440431 0.000381415152243831 0)
(-0.102855863969352 0.000342540879770216 -2.40226857017086e-32)
(-0.107328696376207 0.00030731252584924 0)
(-0.111257007049814 0.000274941519906635 3.72562269642563e-16)
(-0.114680125519618 0.000244777748172133 3.87720640058188e-16)
(-0.117628732768001 0.000216317774819474 8.64805253011474e-21)
(-0.120127194024507 0.000189196861990331 -8.60450605561987e-21)
(-0.122195931241596 0.000163213700765737 0)
(-0.123853180433208 0.000138255770238557 3.65710767726463e-32)
(-0.125115351775235 0.000114217558933253 1.10155961696082e-20)
(-0.125997112258815 9.10200867291737e-05 -5.46984677398663e-16)
(-0.126511991753216 6.85621073605801e-05 -5.71079683231833e-16)
(-0.126672958676937 4.67885782078045e-05 -1.30851699140477e-20)
(-0.126493942484651 2.57259432565561e-05 -7.49319316066954e-22)
(-0.125988209634321 5.40509398070858e-06 1.38023341426902e-20)
(-0.125169834804915 -1.41186421554098e-05 0)
(-0.124053730381354 -3.27948390909507e-05 5.72053396059309e-32)
(-0.122655573852062 -5.0546408565578e-05 8.4652812447056e-21)
(-0.12099196711495 -6.73111832896659e-05 8.68194773243172e-16)
(-0.119079974610083 -8.30560340491817e-05 9.01571815492486e-16)
(-0.116936864342362 -9.77601466981038e-05 -9.72425294727133e-21)
(-0.114579859919635 -0.000111429538934239 9.74743095765216e-21)
(-0.112025999300751 -0.000124065278788909 0)
(-0.10929217035329 -0.000135677746702062 0)
(-0.106395039621681 -0.000146272937074771 1.08499541914729e-15)
(-0.103351091462903 -0.000155860529195684 1.12323602876205e-15)
(-0.100176536158421 -0.000164454535947225 -6.20760037114403e-21)
(-0.0968872621902535 -0.000172072544138566 6.23605084411393e-21)
(-0.0934987204564805 -0.000178743547060263 0)
(-0.090025843999179 -0.000184496727756095 0)
(-0.0864829266165076 -0.000189379624770529 0)
(-0.0828835951437288 -0.000193427161184783 0)
(-0.0792408702081842 -0.000196685184906627 0)
(-0.075567295873454 -0.000199170403439638 3.93228517378463e-21)
(-0.071875318216331 -0.000200887626230339 -3.95643164050327e-21)
(-0.0681770346958749 -0.000201865805226103 0)
(-0.0644839498237212 -0.000202141340814263 0)
(-0.0608067701245398 -0.000201774364756229 0)
(-0.0571552362938021 -0.000200824381404617 0)
(-0.0535381176704683 -0.000199359680146583 1.8613622580824e-20)
(-0.0499632360207505 -0.000197436819497983 -1.87374059510684e-20)
(-0.0464376689780442 -0.000195104750119835 1.95684784296965e-20)
(-0.0429679238375614 -0.000192392551648933 3.44095232882091e-22)
(-0.0395605523041602 -0.000189286414202439 -4.06923879788326e-20)
(-0.0362222485725758 -0.000185787945477966 -1.98613817489493e-15)
(-0.0329595595692095 -0.000181908507379203 -4.08046806437662e-15)
(-0.0297785918105512 -0.000177685934370043 -2.09586585758419e-15)
(-0.0266848480466678 -0.000173156676216445 4.47554171025338e-20)
(-0.0236832870330128 -0.000168360171308198 -4.5041657844453e-20)
(-0.0207785421714914 -0.000163295038352122 0)
(-0.0179756861886142 -0.000157943601260958 0)
(-0.0152800275869086 -0.000152292548511058 -2.28671244279974e-15)
(-0.0126969817563627 -0.000146335038269489 -2.36265951914615e-15)
(-0.0102323217349065 -0.000140076807987798 -5.01090530213936e-20)
(-0.0078917799383139 -0.000133493896618324 -5.75606321657855e-22)
(-0.00568173031014566 -0.000126612867525709 5.12456610288147e-20)
(-0.00360932023283344 -0.00011935680812426 0)
(-0.00168279426258672 -0.000111586393311953 0)
(8.80021545091168e-05 -0.000103203489956667 0)
(0.00169193663503215 -9.41183516579287e-05 -5.47329677207452e-20)
(0.00311514107901455 -8.41698216303166e-05 1.65092954271171e-19)
(0.00434211320869773 -7.32299178730601e-05 -1.10353222328938e-19)
(0.00535217320086913 -6.10054854091556e-05 0)
(0.00612319308456465 -4.73425029724563e-05 0)
(0.00662277303953753 -3.17261071134442e-05 1.14679190351929e-19)
(0.00682067176604649 -1.4280904070127e-05 -1.14898301500833e-19)
(0.00666881698762746 6.01762742068817e-06 0)
(0.00613089760806275 2.89470637416788e-05 1.18413294814283e-19)
(0.00512034214146699 5.62222753137171e-05 -2.38601876650209e-19)
(0.00361457467217459 8.50265758257867e-05 -5.82342866314793e-15)
(0.00148103357768018 0.000118861423951864 -6.07028831472383e-15)
(-0.00120317211571751 0.000148026354284465 0)
(-0.00464029918969539 0.000181424094374654 0)
(-0.00842307534953202 0.000189273299222705 0)
(-0.0128292635558013 0.000193668792860542 0)
(-0.0163933719555351 0.000186200233004447 0)
(-0.0225414826240199 -0.0028259868764184 -3.25104178716587e-17)
(-0.0219767471552511 -0.011667944477306 6.1925320419382e-17)
(-0.0163173741079397 -0.0144447513123734 -5.55102276405244e-17)
(-0.00910811720437949 -0.0112112302468617 0)
(0.000279487534741337 -0.000733113316467492 4.50404195258538e-17)
(0.010178961051595 0.0137230788815899 1.20551947647995e-19)
(0.0205893477685908 0.0301628834451013 -3.70305087822204e-20)
(0.030117888276659 0.0455332188882879 3.49730792125445e-17)
(0.0386544801151721 0.0600432944049724 0)
(0.0474002858463194 0.0761254551612638 -1.40717810114881e-17)
(0.0586835661316812 0.0973936876421009 1.19745256984916e-20)
(0.0814416301451025 0.133333281876914 9.83991665691456e-18)
(0.130163089354353 0.191856949420201 7.26828107148213e-18)
(0.27304764019767 0.308190855904767 0)
(0.516949193421842 0.271061583253793 1.25479360003164e-17)
(0.207169138978229 0.0212620050469096 -1.06927156000434e-18)
(0.0449659516900158 -0.000419989538558795 0)
(0.0139824013860573 -0.00143437858214723 -1.80522900942094e-18)
(-0.102144238440911 0.121349582021609 0)
(-0.0485934797145976 0.0679761104026233 0)
(-0.0157417430253506 0.0244181608501993 0)
(-0.012556915652181 0.0208991021514067 0)
(-0.0118125241237786 0.0192998382529226 2.23238240965681e-21)
(-0.0129239453286892 0.0205467988177844 -1.2849201970925e-18)
(-0.0140555974205167 0.0219189938898684 0)
(-0.0149205005009022 0.0227072683768773 -1.60299845952537e-18)
(-0.0140286626901793 0.0201397059894993 -7.14568089172752e-21)
(-0.0111374306764125 0.0139612322982743 -8.12448182487483e-18)
(-0.00546849246188992 0.00470711847616086 -9.04053118939353e-21)
(0.00275092541220172 -0.0038890539089324 2.78726185021281e-23)
(0.0120762097930562 -0.00713238012939731 8.1002851495878e-21)
(0.0152479982835946 -0.00169761715066282 3.82504979128921e-22)
(0.00715125419470884 0.000763436826415642 -2.22797058381813e-32)
(-0.00175637132169789 0.00100357384034861 1.22343363456243e-20)
(-0.0153104454129588 0.00155267116306571 -1.17728673645852e-20)
(-0.0329997310242383 0.00193153296644979 1.11119910584885e-20)
(-0.0521051754662524 0.00209871978253901 -5.7607820135374e-23)
(-0.0709120940159966 0.00207369286605396 -1.01544546382641e-20)
(-0.0881706018307861 0.00193370642918557 9.90862392798943e-21)
(-0.103513356536757 0.00174665563685202 -9.60065508406491e-21)
(-0.116931976593058 0.00155500034926394 9.82676370565771e-21)
(-0.128615492173853 0.00137688998170657 -9.57891241805143e-21)
(-0.138777758942881 0.00121803536124503 0)
(-0.147620995294513 0.00107774952418256 1.0564940066539e-20)
(-0.155311395679738 0.000953519771280271 -1.03601266905052e-20)
(-0.161983525707163 0.000842369538470669 0)
(-0.167742902996689 0.000741606137151261 1.20573544153099e-20)
(-0.172672444874845 0.000648936307341833 8.12144104986425e-22)
(-0.176837154089399 0.000562547604187525 -1.25064419714171e-20)
(-0.180288943405837 0.000481088713904471 0)
(-0.183070400659175 0.000403616741606974 0)
(-0.185218086109827 0.00032958563614541 7.86009014039235e-21)
(-0.186764701098025 0.00025864777953475 -7.78147875276917e-21)
(-0.187739607611459 0.000190467164555759 -8.75188069465149e-21)
(-0.188168985124595 0.000124730740234478 8.68008202037251e-21)
(-0.188076618080959 6.11838462408785e-05 6.86256219460156e-32)
(-0.187484473726125 1.1834259559469e-08 -1.02183962851116e-20)
(-0.186418953947174 -5.86067575692408e-05 1.01465954216018e-20)
(-0.184905716848229 -0.000114732208679152 0)
(-0.182969043362754 -0.000168283907077198 0)
(-0.180633244546963 -0.000219136591039384 1.2339450573605e-20)
(-0.177923153230813 -0.000267124184521833 -1.22957184891911e-20)
(-0.174864099039573 -0.000312123688536067 -6.74098352848185e-21)
(-0.171481392676051 -0.000354080678043846 6.72848426302091e-21)
(-0.167800065946586 -0.000392973990931779 7.33737227865618e-21)
(-0.163844643069886 -0.000428834476714459 -7.33536641634578e-21)
(-0.15963905825084 -0.000461684893045094 -7.95733544447979e-21)
(-0.155206719573203 -0.000491564629878948 7.96687595879726e-21)
(-0.150570473683975 -0.000518506314632427 0)
(-0.145752657494833 -0.000542551868003607 0)
(-0.140775016253365 -0.000563754993783567 0)
(-0.135658661739642 -0.000582180750221923 0)
(-0.130423959858014 -0.000597919135436172 -2.48695347209535e-21)
(-0.125090462154931 -0.000611065016677024 5.07373187171252e-21)
(-0.119676798670521 -0.000621745893798557 -2.58859163758817e-21)
(-0.114200707563501 -0.000630062575665848 0)
(-0.108679141269668 -0.000636125094668372 0)
(-0.10312848790488 -0.000639981158975198 0)
(-0.0975649271480852 -0.000641664087563237 0)
(-0.0920040863887023 -0.000641265621819127 6.24924235994664e-21)
(-0.0864607706454917 -0.000638901970985833 -1.27415439773511e-20)
(-0.0809487294375551 -0.000634739060028091 6.49614823299276e-21)
(-0.0754805082729169 -0.000628942813832203 0)
(-0.070067462205584 -0.000621691044931485 0)
(-0.0647198348163298 -0.000613130598288425 1.44609611558038e-20)
(-0.0594470273552609 -0.000603379019839221 -1.46011042047111e-20)
(-0.0542578838725515 -0.00059249418952803 0)
(-0.0491614166221009 -0.000580445667306745 1.56901436568145e-20)
(-0.0441667959318639 -0.000567243777163262 -3.19608478653141e-20)
(-0.0392830024940041 -0.000552932910064652 1.627794961661e-20)
(-0.0345184401050789 -0.000537616184829131 0)
(-0.0298808033267579 -0.00052138906814406 3.47780289195191e-20)
(-0.0253772449767208 -0.00050434136185325 -3.51580427516078e-20)
(-0.0210146012925222 -0.000486458680438983 0)
(-0.0168004844547517 -0.0004676821797395 3.74116873079821e-20)
(-0.0127428954266119 -0.000447989999814975 -3.78304788623587e-20)
(-0.00884999178579589 -0.000427384980445677 0)
(-0.0051306141663506 -0.000405876445399256 4.01185458909889e-20)
(-0.00159363465036351 -0.000383362787849767 -4.05706056189079e-20)
(0.00175102692096369 -0.000359648237537001 0)
(0.00489207332448464 -0.000334565550863798 0)
(0.0078165999547217 -0.000307938075277318 0)
(0.0105092275582382 -0.000279468511897461 0)
(0.012952439492115 -0.000248857519797177 0)
(0.0151246593593966 -0.000215657924099932 0)
(0.0170013325987635 -0.000179417305763974 0)
(0.0185503746136444 -0.000139340337915548 0)
(0.0197362177726583 -9.47784462807564e-05 0)
(0.0205086850430538 -4.44167590848375e-05 0)
(0.0208171972016035 1.20549285770555e-05 0)
(0.0205838815003661 7.67860339933029e-05 9.85197423703915e-20)
(0.0197462446157049 0.000150265446013021 -2.00062806682452e-19)
(0.0181707713431329 0.000236118540999214 -8.79247253100757e-22)
(0.0157942283508977 0.000329956330452545 2.09340234110579e-19)
(0.0124091846119401 0.000436951773136005 -1.07032633310881e-19)
(0.00806118006718574 0.000539141207655178 1.11217010331389e-19)
(0.00243392707026029 0.000646851839775022 9.63900476171113e-22)
(-0.00398592521418207 0.000700111672065572 -1.1648210613364e-19)
(-0.0116299569279782 0.00073591131382565 1.18873330077003e-19)
(-0.0187449112631555 0.000746689131997247 -1.19333805486785e-19)
(-0.0286552837170443 -0.00321608490687926 1.56210274281633e-17)
(-0.0268954384160867 -0.0146734623312128 -1.12880923927105e-19)
(-0.0182909927174636 -0.0171254783911034 5.19944720162339e-17)
(-0.007651840685497 -0.0111698931198984 0)
(0.00577734166920731 0.0046227028364386 -4.2795969812268e-17)
(0.0199587599430834 0.0259230202691007 3.92023685548039e-17)
(0.0350150949891197 0.0501017148095823 1.81377999946566e-17)
(0.0491369764674558 0.0732237646028072 -3.38339183510919e-17)
(0.062173673823382 0.095604768828019 -1.54687611118428e-17)
(0.0756631711272609 0.12051995212675 -1.37692605728164e-17)
(0.0931729173308063 0.153204508314287 0)
(0.127484181877869 0.206205748473584 -9.61862388653845e-18)
(0.199254762187927 0.28860802313046 -1.35623502580976e-17)
(0.387146298927195 0.427527575900411 5.67114651380046e-18)
(0.704706305149349 0.373959098205459 -1.07757900499195e-17)
(0.391540262395078 0.0489425935770853 8.74984383301905e-19)
(0.186674727567208 0.0014688944182748 -4.9393256093291e-23)
(0.0415839212515192 -0.00754526408820083 -1.60627704236916e-18)
(-0.127187932585361 0.152137599563645 -7.27717016331756e-19)
(-0.0666893785278185 0.0901340529019601 0)
(-0.0234478021394346 0.0349736724635118 -8.06752494372923e-19)
(-0.0176780215960733 0.0290473455118631 0)
(-0.0165644838039383 0.0269749278461847 -2.31178853399919e-21)
(-0.0179875678029026 0.0285976783084992 2.53022811852674e-21)
(-0.0194860596090644 0.0303844342726605 -1.4784259043826e-18)
(-0.0206287129645286 0.0312709608913174 3.29885040741865e-18)
(-0.019641759921348 0.0278855473428168 3.68019275397389e-18)
(-0.0163005901298297 0.0199890514103652 4.11857549119761e-18)
(-0.00979992323136217 0.00837507737713176 0)
(-0.000282784549375456 -0.00258503291208055 0)
(0.0112013151129081 -0.00743949453533555 2.92412114963849e-18)
(0.0161691489520202 -0.00143601306646865 -1.58329436801888e-18)
(0.00449944975779241 0.00174541421011111 -1.22511174524066e-20)
(-0.010305535391065 0.00232910691912101 1.17813329827203e-20)
(-0.0309104933984911 0.00335267746563465 0)
(-0.0558006171557096 0.00399098695515583 -9.99037928011403e-21)
(-0.0811115344102549 0.00417915536013417 9.2978481882397e-21)
(-0.104683695135176 0.00401266518196538 -8.67792950257041e-21)
(-0.125345419383082 0.00365836490537795 8.18859483661864e-21)
(-0.143010332208316 0.00324694818723701 -8.01328023278443e-21)
(-0.157951150895575 0.00284925110420917 1.55148980894193e-20)
(-0.170571763857025 0.00249126261447376 -1.53845668231254e-20)
(-0.181237045174544 0.00217754992650087 7.53391078890239e-21)
(-0.190252910018026 0.00190342277737624 0)
(-0.197858036146622 0.00166217908762874 8.23333606118608e-21)
(-0.204238845928077 0.00144723251085672 -7.96950515776316e-21)
(-0.209539247276036 0.00125300371802154 0)
(-0.213871530010397 0.00107497252000584 9.1187452312578e-21)
(-0.217324037005374 0.00090966752209923 -8.88045163786354e-21)
(-0.219967842374727 0.000754550378149281 9.8991086019878e-21)
(-0.22186167057843 0.000607858197981574 -9.67296724837844e-21)
(-0.223055788196523 0.000468503232887906 0)
(-0.223594398130436 0.000335720795779607 5.63947834353238e-21)
(-0.223516457593439 0.000208771375984666 3.57310360663122e-22)
(-0.222856122322237 8.70431069955032e-05 3.64039457813016e-22)
(-0.22164399070088 -2.95650685936504e-05 -6.04997992415485e-21)
(-0.219916539057505 -0.00014085812621284 -6.68878046966503e-21)
(-0.217703457843754 -0.000246902080109344 -3.77186167967875e-22)
(-0.215032880810766 -0.000347799606823952 -3.79895063250792e-22)
(-0.211932618760657 -0.000443498147994295 1.47030638993667e-20)
(-0.208430201143372 -0.00053387173681693 -7.45897171276013e-21)
(-0.204553164221888 -0.000618726359573445 0)
(-0.200328976256078 -0.000697943287464876 0)
(-0.195784615774896 -0.000771507477101052 -4.39178513429792e-21)
(-0.19094641906727 -0.000839452408452648 8.91923043256548e-21)
(-0.185839932848039 -0.000901879742600842 -4.53130865442389e-21)
(-0.180489927282178 -0.000958875192510422 0)
(-0.17492047795241 -0.00101054251376861 -6.42395002079032e-16)
(-0.169154974146164 -0.00105697366879859 -6.69427949726078e-16)
(-0.16321617389601 -0.00109827233433582 0)
(-0.157126143027601 -0.00113455901143976 0)
(-0.150906227741986 -0.00116597121715297 0)
(-0.144576957922145 -0.00119268158171982 0)
(-0.138158006244127 -0.00121487051223147 1.54259458880714e-21)
(-0.131668096990625 -0.00123275887898513 -7.51243390196518e-22)
(-0.125125084613526 -0.00124652455180188 -7.98592316740799e-22)
(-0.118546059701403 -0.00125634495498225 -8.45894927662977e-22)
(-0.111947604131205 -0.00126230256749539 8.50124441179139e-22)
(-0.105346082039474 -0.00126446719305466 0)
(-0.0987572599730845 -0.00126300257135552 0)
(-0.0921960624801954 -0.00125811591017788 3.80674669042923e-21)
(-0.0856763507466403 -0.00125008677835579 8.20205847600583e-23)
(-0.0792108169187751 -0.0012391950331286 -3.94894343292378e-21)
(-0.0728110080826425 -0.00122573089372651 1.06768394084284e-15)
(-0.0664874345355729 -0.00120993175651965 1.09134611347443e-15)
(-0.0602498472719967 -0.00119197774026245 -8.603931926262e-21)
(-0.0541075543149504 -0.00117194182135716 0)
(-0.0480701354439756 -0.00114976770588589 9.2493296487899e-21)
(-0.0421473459405546 -0.00112546726050549 -9.3501432367309e-21)
(-0.0363487901284145 -0.00109911765459364 0)
(-0.0306835135211993 -0.00107088612043353 0)
(-0.0251599178995103 -0.00104092233051194 -2.05781840918459e-20)
(-0.0197859874015525 -0.00100935597641921 4.19618008697779e-20)
(-0.0145694899337835 -0.000976139777992856 -2.1398223543801e-20)
(-0.00951915697138033 -0.000941154620358446 0)
(-0.00464418097211313 -0.000904368893811151 0)
(4.58828835360031e-05 -0.000865666489457303 0)
(0.00454074430281676 -0.000824917504059076 -2.38647772349665e-20)
(0.00882974398919292 -0.000782039685400562 -2.74413399431193e-22)
(0.0129012390788321 -0.000736748971203456 4.91955702934014e-20)
(0.0167416558542559 -0.000688705409205203 -7.53115906512911e-20)
(0.02033559539663 -0.00063755436772598 -5.32727724639178e-22)
(0.0236647481883476 -0.000582729910520538 5.18300810157396e-20)
(0.0267080842315965 -0.000523608408057356 0)
(0.0294399189566283 -0.000459311104637245 0)
(0.0318305974571346 -0.000388852602630237 0)
(0.0338419864102256 -0.000310731937963947 0)
(0.0354305937620128 -0.000223437658158544 -5.85477559072963e-20)
(0.0365367259763564 -0.000124524823236999 1.19749857180635e-19)
(0.0370963380997799 -1.23249631178471e-05 -1.2331383731704e-19)
(0.0370093088037156 0.00011677174055567 1.27020636164207e-19)
(0.036191145022015 0.000264940202857384 5.67821091870839e-22)
(0.0344816288217524 0.000438327899114939 -1.35775301839822e-19)
(0.0317714057145671 0.000633559288874833 -6.04515320166311e-22)
(0.0277988825385836 0.000856988508430022 7.35033155969523e-20)
(0.0225215040706044 0.0010868836984154 0)
(0.0155243924836645 0.00132849619477162 0)
(0.00717768953028602 0.00149858498805843 0)
(-0.00312471499839055 0.0016230111405304 0)
(-0.0136858850528421 0.00169163528725846 -9.90009495417364e-20)
(-0.0268407804223265 -0.00227789774308172 9.98816704870276e-20)
(-0.0238223532766292 -0.0136167135676909 0)
(-0.0136811786987263 -0.0144602948666679 7.93712759484353e-20)
(-0.00123095935164729 -0.00597096859845835 -1.42126603468826e-19)
(0.0143301030517197 0.0133432761026363 -5.78337988455155e-22)
(0.031048479025667 0.0390687857063396 -3.12095720302363e-17)
(0.0491076079408559 0.0683765606341655 -1.49686868726722e-17)
(0.0666063396776287 0.097263824420905 2.86266291937695e-17)
(0.0833336611082642 0.126070828849405 1.35167579711963e-17)
(0.100925590417291 0.158373861038451 1.23925054842036e-17)
(0.123806832533017 0.20014544660366 -9.97798374202153e-21)
(0.167100485298671 0.264556984631888 8.78691815727824e-21)
(0.254354729351298 0.358272709538782 1.13076815677946e-17)
(0.457336416509841 0.487071882508928 -4.17090111616962e-18)
(0.796277088186121 0.417870596971426 3.84936771871613e-18)
(0.554405351088992 0.0740529903469097 -2.90819363040294e-22)
(0.334319947394772 0.00707538975577424 -3.7505889127197e-23)
(0.0897932114650539 -0.0186901225580848 1.3373980368444e-18)
(-0.142557195269641 0.173482070798868 -7.973942941118e-20)
(-0.0834489280010647 0.109246086378181 0)
(-0.0318369295256855 0.045745492427351 8.15881923719827e-19)
(-0.0228927974141944 0.0370620659646991 9.61531889823943e-22)
(-0.0213080794970117 0.0345733762180656 -2.38811412188871e-21)
(-0.0229655892768415 0.036510831764773 2.60124660296711e-21)
(-0.0247707931265353 0.0386218128339034 1.51011056831435e-18)
(-0.0261430977194193 0.0394925566093035 -3.35167115950708e-18)
(-0.0251809083363648 0.0354063377208942 -3.70579158409517e-18)
(-0.0217448461889185 0.0262159674816016 4.04276177832615e-18)
(-0.0151478043602859 0.0129716896585329 1.71693040974527e-20)
(-0.00545678324543633 0.000278023821251802 4.85619783392922e-18)
(0.00691341319954914 -0.00622423279533645 -1.08503228834578e-20)
(0.0135444528636544 -0.000551656436033656 0)
(-0.00207354333873831 0.00326426159758302 0)
(-0.0235793933763642 0.00438872630153074 0)
(-0.0509415543141752 0.00591528253723707 0)
(-0.0812200401330842 0.00671169893488477 0)
(-0.109765199704822 0.00674391126465168 0)
(-0.134611578595077 0.00626132516606531 -6.79076947290348e-21)
(-0.155247915221692 0.00555740616034732 6.23101635463043e-21)
(-0.172173322270971 0.00482886664725266 0)
(-0.186039077106325 0.00416398833784613 0)
(-0.197451838196088 0.00358567869376884 0)
(-0.206877502145854 0.00308967549683862 0)