/*--------------------------------*- C++ -*----------------------------------*\
  =========                 |
  \\      /  F ield         | OpenFOAM: The Open Source CFD Toolbox
   \\    /   O peration     | Website:  https://openfoam.org
    \\  /    A nd           | Version:  7
     \\/     M anipulation  |
\*---------------------------------------------------------------------------*/
FoamFile
{
    version     2.0;
    format      ascii;
    class       volScalarField;
    location    "20000";
    object      walldist;
}
// * * * * * * * * * * * * * * * * * * * * * * * * * * * * * * * * * * * * * //

dimensions      [0 1 0 0 0 0 0];

internalField   nonuniform List<scalar> 
15600
(
0.00195717667924337
0.00177314602193253
0.00137461627663223
0.00129033894006501
0.00134980659668504
0.00148632003226311
0.00166201337446831
0.00183282501726805
0.00199315262951505
0.00214455206983337
0.00232165802628355
0.00255458748452922
0.00287278412339731
0.00328784694426391
0.0037347143920315
0.00396002424669166
0.00391090191792224
0.00391090191792225
0.00391090191792213
0.00391090191792213
0.00391090191792204
0.00391090191792229
0.00391090191792209
0.00391090191792214
0.00391090191792212
0.00391090191792232
0.00391090191792225
0.00391090191792218
0.00391090191792237
0.00391090191792218
0.00391090191792222
0.00391090191792217
0.00391090191792214
0.00391090191792222
0.00391090191792218
0.00391090191792229
0.00391090191792207
0.00391090191792219
0.00391090191792225
0.00391090191792217
0.00391090191792219
0.00391090191792228
0.00391090191792223
0.0039109019179223
0.00391090191792225
0.00391090191792222
0.00391090191792216
0.00391090191792214
0.0039109019179222
0.0039109019179221
0.00391090191792223
0.00391090191792225
0.00391090191792219
0.00391090191792225
0.00391090191792225
0.00391090191792225
0.00391090191792212
0.00391090191792221
0.00391090191792212
0.00391090191792214
0.00391090191792212
0.00391090191792209
0.00391090191792221
0.00391090191792212
0.00391090191792237
0.00391090191792224
0.00391090191792228
0.00391090191792228
0.00391090191792223
0.00391090191792226
0.00391090191792207
0.00391090191792227
0.00391090191792213
0.00391090191792226
0.00391090191792207
0.00391090191792213
0.00391090191792237
0.00391090191792224
0.00391090191792228
0.00391090191792222
0.00391090191792226
0.00391090191792224
0.00391090191792215
0.00391090191792214
0.0039109019179222
0.00391090191792223
0.00391090191792215
0.00391090191792219
0.00391090191792224
0.00391090191792217
0.00391090191792226
0.00391090191792234
0.00391090191792217
0.00391090191792233
0.00391090191792211
0.00391090191792208
0.00391090191792206
0.00391090191792223
0.00391090191792218
0.00391090191792219
0.00391090191792219
0.00391090191792218
0.00391090191792224
0.00391090191792224
0.00395990680533383
0.0037366451699541
0.00328997217184527
0.00287456916508601
0.00255589720204069
0.00232265900471891
0.00214534012331182
0.00199393318667936
0.00183365996721179
0.00166289219321016
0.00148716137641809
0.00135034491702537
0.00129044432000974
0.00137365659761773
0.00177114202284711
0.00195717456326431
0.00594872562902836
0.00594328744490002
0.00590950831618211
0.00621242028410211
0.00669053223504704
0.00724288851799531
0.00781036471708139
0.00835777070751063
0.00888794332182613
0.00940664405276988
0.00992717776483385
0.0104496972140351
0.0109635102131005
0.0114414844037702
0.0118301865385693
0.0120376924377116
0.0120652556008729
0.0120567374678498
0.0120484116171415
0.0120402784476379
0.0120323383500627
0.0120245917068852
0.0120170388922293
0.0120096802717869
0.0120025162027342
0.0119955470336465
0.0119887731044137
0.0119821947461611
0.0119758122811745
0.0119696260228163
0.0119636362754547
0.0119578433343906
0.0119522474857851
0.0119468490065887
0.0119416481644765
0.0119366452177836
0.0119318404154382
0.0119272339969029
0.0119228261921173
0.0119186172214375
0.0119146072955852
0.0119107966155939
0.0119071853727582
0.0119037737485872
0.0119005619147606
0.0118975500330828
0.0118947382554437
0.0118921267237814
0.0118897155700462
0.0118875049161663
0.0118854948740179
0.011883685545398
0.0118820770219962
0.0118806693853737
0.0118794627069414
0.0118784570479431
0.0118776524594384
0.0118770489822906
0.0118766466471568
0.0118764454744785
0.0118764454744785
0.0118766466471567
0.0118770489822906
0.0118776524594383
0.0118784570479431
0.0118794627069415
0.0118806693853737
0.0118820770219963
0.0118836855453982
0.011885494874018
0.011887504916166
0.011889715570046
0.0118921267237813
0.0118947382554434
0.0118975500330823
0.011900561914761
0.0119037737485876
0.011907185372758
0.0119107966155937
0.0119146072955852
0.0119186172214375
0.0119228261921171
0.0119272339969029
0.0119318404154381
0.0119366452177834
0.011941648164476
0.0119468490065885
0.011952247485785
0.0119578433343905
0.0119636362754554
0.011969626022817
0.0119758122811744
0.0119821947461612
0.0119887731044132
0.0119955470336463
0.0120025162027344
0.0120096802717871
0.0120170388922284
0.0120245917068849
0.0120323383500625
0.0120402784476366
0.0120484116171417
0.0120567374678501
0.0120652556008718
0.012038155848156
0.0118317063768216
0.0114435896239449
0.0109658954335892
0.0104521654654337
0.00992966331789082
0.00940910249614
0.00889042799594666
0.00836032330718382
0.00781301635354176
0.00724559816495602
0.00669302956076245
0.00621441076258603
0.00591023965611134
0.0059428442586932
0.00594892431889037
0.0100855166589429
0.0101725792230781
0.0103683876992636
0.0109798199662946
0.0117889711920631
0.0126799613752745
0.0135870354947474
0.0144726794466426
0.0153399424627623
0.0161952066974762
0.0170504887205546
0.0179009354041013
0.0187261680417776
0.0194820042303346
0.0200866593982832
0.0204058004518009
0.020453865106453
0.020439424571617
0.0204253100072085
0.0204115220894539
0.0203980614807349
0.0203849288294402
0.0203721247698119
0.0203596499217958
0.0203475048909024
0.0203356902680597
0.020324206629473
0.0203130545364907
0.0203022345354722
0.0202917471576531
0.0202815929190192
0.0202717723201845
0.020262285846269
0.0202531339667801
0.0202443171354989
0.020235835790372
0.020227690353401
0.0202198812305397
0.0202124088115966
0.0202052734701363
0.0201984755633879
0.0201920154321574
0.0201858934007417
0.0201801097768477
0.0201746648515173
0.0201695588990539
0.020164792176952
0.0201603649258348
0.020156277369393
0.0201525297143286
0.0201491221503019
0.0201460548498856
0.0201433279685189
0.0201409416444701
0.0201388959987999
0.0201371911353328
0.0201358271406289
0.0201348040839627
0.0201341220173053
0.0201337809753118
0.0201337809753118
0.0201341220173053
0.0201348040839627
0.0201358271406289
0.020137191135333
0.0201388959988
0.0201409416444701
0.020143327968519
0.0201460548498858
0.0201491221503019
0.0201525297143285
0.020156277369393
0.0201603649258348
0.0201647921769518
0.0201695588990539
0.020174664851518
0.0201801097768479
0.0201858934007415
0.0201920154321574
0.020198475563388
0.0202052734701361
0.0202124088115966
0.0202198812305397
0.0202276903534011
0.0202358357903718
0.0202443171354988
0.0202531339667801
0.0202622858462687
0.0202717723201843
0.0202815929190198
0.0202917471576534
0.0203022345354721
0.0203130545364907
0.0203242066294721
0.0203356902680595
0.0203475048909024
0.0203596499217954
0.0203721247698105
0.02038492882944
0.0203980614807346
0.0204115220894529
0.0204253100072092
0.0204394245716167
0.020453865106452
0.0204065549160709
0.020089003417334
0.0194853107299033
0.018729964627217
0.0179049248271482
0.0170545450708854
0.0161992520947124
0.0153440149075661
0.0144768206716481
0.0135912803625241
0.0126842650022843
0.011793041349763
0.0109833190909842
0.0103704470510254
0.0101728870463445
0.0100858871344975
0.0143738659109065
0.0145585595319225
0.0149953508740889
0.0159266984977518
0.0170782820406354
0.0183195014185284
0.0195779370897206
0.0208137156444712
0.022030053344244
0.0232339336694631
0.0244359861407922
0.0256261444663261
0.0267739696231856
0.0278175884046517
0.0286458286963208
0.0290804762123835
0.0291497732239532
0.0291291933328908
0.029109077997744
0.0290894281822353
0.0290702448303569
0.0290515288661576
0.0290332811935254
0.0290155026959761
0.0289981942364502
0.0289813566571079
0.0289649907791264
0.02894909740251
0.0289336773059009
0.0289187312463878
0.0289042599593283
0.0288902641581699
0.0288767445342801
0.0288637017567758
0.0288511364723636
0.0288390493051803
0.0288274408566405
0.0288163117052897
0.028805662406661
0.0287954934931398
0.0287858054738301
0.0287765988344307
0.0287678740371116
0.0287596315204018
0.0287518716990784
0.0287445949640636
0.0287378016823261
0.0287314921967888
0.0287256668262442
0.0287203258652726
0.0287154695841686
0.0287110982288729
0.0287072120209102
0.0287038111573323
0.0287008958106697
0.0286984661288865
0.0286965222353442
0.0286950642287687
0.0286940921832272
0.0286936061481076
0.0286936061481077
0.0286940921832272
0.0286950642287687
0.0286965222353441
0.0286984661288866
0.0287008958106698
0.0287038111573325
0.0287072120209103
0.0287110982288732
0.0287154695841687
0.0287203258652725
0.0287256668262442
0.0287314921967888
0.0287378016823262
0.028744594964064
0.028751871699079
0.0287596315204021
0.0287678740371116
0.0287765988344307
0.0287858054738302
0.0287954934931399
0.0288056624066612
0.0288163117052898
0.0288274408566405
0.02883904930518
0.0288511364723632
0.0288637017567759
0.0288767445342792
0.0288902641581691
0.0289042599593282
0.0289187312463878
0.0289336773059009
0.0289490974025101
0.0289649907791257
0.0289813566571081
0.028998194236451
0.0290155026959766
0.0290332811935243
0.0290515288661578
0.0290702448303567
0.0290894281822346
0.0291090779977438
0.0291291933328902
0.029149773223952
0.0290815319534746
0.0286490257976307
0.0278221389413167
0.0267792281086222
0.0256317097120824
0.0244416697103313
0.023239622968427
0.022035770241995
0.0208195017117096
0.0195838307882659
0.018325453818043
0.0170839787871089
0.0159317589402559
0.0149987921878583
0.0145596632110559
0.0143744151430261
0.0188193149521857
0.0191057984095731
0.0197933271733548
0.0210563124464254
0.022562645464764
0.0241666809259681
0.0257891446871657
0.0273877314703952
0.0289658168290658
0.0305309959144698
0.0320924451220284
0.0336346864329751
0.0351168453267544
0.0364587036708304
0.037518625724839
0.0380729367882679
0.0381642371468419
0.0381372929975024
0.0381109570663466
0.0380852306151247
0.0380601148797565
0.0380356110700479
0.0380117203694112
0.0379884439345874
0.0379657828953777
0.0379437383543757
0.0379223113867075
0.0379015030397752
0.0378813143330127
0.0378617462576359
0.0378427997764084
0.0378244758234103
0.037806775303811
0.0377896990936501
0.0377732480396247
0.0377574229588852
0.0377422246388303
0.037727653836919
0.0377137112804818
0.0377003976665414
0.0376877136616414
0.0376756599016798
0.0376642369917526
0.0376534455060012
0.0376432859874718
0.0376337589479774
0.0376248648679703
0.0376166041964218
0.0376089773507092
0.0376019847165111
0.0375956266477095
0.0375899034663018
0.0375848154623177
0.0375803628937475
0.0375765459864754
0.0375733649342234
0.0375708198985014
0.0375689110085667
0.037567638361391
0.0375670020216356
0.0375670020216355
0.037567638361391
0.0375689110085667
0.0375708198985015
0.0375733649342234
0.0375765459864755
0.0375803628937476
0.0375848154623179
0.037589903466302
0.0375956266477096
0.0376019847165108
0.0376089773507089
0.0376166041964214
0.0376248648679701
0.0376337589479775
0.0376432859874723
0.0376534455060016
0.0376642369917525
0.0376756599016795
0.0376877136616413
0.0377003976665415
0.0377137112804819
0.037727653836919
0.0377422246388302
0.0377574229588848
0.0377732480396242
0.0377896990936495
0.0378067753038105
0.0378244758234097
0.0378427997764085
0.037861746257636
0.0378813143330125
0.0379015030397757
0.0379223113867073
0.037943738354376
0.0379657828953775
0.0379884439345873
0.0380117203694104
0.038035611070047
0.0380601148797554
0.0380852306151247
0.0381109570663472
0.038137292997502
0.0381642371468408
0.0380743046934764
0.0375227067212452
0.0364645434004777
0.0351236188843203
0.033641884883059
0.0320998151625399
0.030538388957914
0.0289732379525472
0.0273952220193983
0.0257967467734535
0.0241743414240213
0.0225700272301255
0.0210629905670084
0.019798202536384
0.0191077327840619
0.0188200497198288
0.0234276158975047
0.023819885420781
0.0247677422554851
0.0263745039022335
0.0282484806660048
0.0302285198542339
0.0322282603698374
0.0342028803424129
0.0361559152381788
0.0380955897097015
0.040029567609301
0.0419367575831734
0.0437654640230641
0.0454164486411625
0.0467164961824867
0.0473948198141809
0.047508926448375
0.0474753848999289
0.0474426004946909
0.0474105748033557
0.0473793093644655
0.0473488056840518
0.0473190652352914
0.0472900894581588
0.0472618797590912
0.047234437510658
0.0472077640512341
0.0471818606846841
0.0471567286800543
0.0471323692712643
0.047108783656815
0.0470859729995003
0.0470639384261246
0.04704268102723
0.047022201856831
0.0470025019321603
0.0469835822334163
0.0469654437035244
0.0469480872479051
0.0469315137342507
0.0469157239923112
0.0469007188136871
0.0468864989516346
0.0468730651208773
0.0468604179974273
0.0468485582184183
0.0468374863819431
0.0468272030469059
0.0468177087328812
0.0468090039199823
0.0468010890487407
0.0467939645199966
0.0467876306947948
0.0467820878942956
0.0467773363996919
0.0467733764521398
0.0467702082526955
0.0467678319622653
0.046766247701565
0.0467654555510887
0.0467654555510887
0.046766247701565
0.0467678319622653
0.0467702082526954
0.04677337645214
0.0467773363996921
0.0467820878942957
0.0467876306947949
0.0467939645199967
0.0468010890487406
0.0468090039199818
0.0468177087328807
0.0468272030469058
0.046837486381943
0.0468485582184182
0.0468604179974278
0.0468730651208773
0.0468864989516347
0.0469007188136871
0.0469157239923111
0.0469315137342505
0.0469480872479048
0.0469654437035238
0.0469835822334162
0.04700250193216
0.0470222018568306
0.0470426810272298
0.0470639384261246
0.0470859729995005
0.0471087836568153
0.0471323692712648
0.0471567286800544
0.0471818606846845
0.0472077640512338
0.0472344375106578
0.0472618797590909
0.0472900894581585
0.0473190652352907
0.047348805684052
0.047379309364465
0.047410574803356
0.0474426004946914
0.0474753848999281
0.0475089264483738
0.0473965112497485
0.0467214932495401
0.0454236245995863
0.043773807983577
0.0419456489148799
0.040038685744452
0.0381047487448606
0.0361651028136622
0.0342121375476915
0.0322376330677973
0.0302379505745351
0.028257608682597
0.0263828585726103
0.0247741047741024
0.0238226835030085
0.0234285431043585
0.0282047333364728
0.028706810048815
0.0299247425024468
0.0318878604876487
0.0341428940098077
0.0365126591398429
0.038903454336222
0.0412678496084918
0.0436095439789856
0.0459374126396255
0.0482575486938744
0.0505430400563745
0.0527309715868378
0.0547023859777778
0.0562513315646804
0.0570581914938926
0.0571959381879504
0.057155557558981
0.0571160884537904
0.0570775327633349
0.0570398923398627
0.0570031689964854
0.0569673645067578
0.0569324806042635
0.0568985189822113
0.0568654812930345
0.0568333691480018
0.0568021841168337
0.0567719277273334
0.056742601465016
0.0567142067727547
0.0566867450504358
0.0566602176546176
0.0566346258982023
0.0566099710501172
0.0565862543350069
0.0565634769329312
0.0565416399790767
0.0565207445634789
0.0565007917307505
0.0564817824798265
0.0564637177637145
0.0564465984892578
0.0564304255169121
0.0564151996605276
0.0564009216871477
0.0563875923168169
0.0563752122223981
0.0563637820294072
0.056353302315852
0.0563437736120874
0.0563351964006847
0.0563275711163053
0.0563208981455932
0.0563151778270773
0.0563104104510837
0.0563065962596647
0.056303735446535
0.0563018281570243
0.056300874488039
0.0563008744880391
0.0563018281570242
0.0563037354465352
0.0563065962596648
0.0563104104510838
0.0563151778270775
0.0563208981455936
0.0563275711163054
0.0563351964006847
0.0563437736120874
0.0563533023158516
0.0563637820294071
0.0563752122223983
0.0563875923168168
0.056400921687148
0.0564151996605279
0.056430425516912
0.0564465984892578
0.0564637177637144
0.0564817824798263
0.0565007917307505
0.0565207445634785
0.0565416399790766
0.0565634769329315
0.0565862543350066
0.0566099710501169
0.0566346258982018
0.0566602176546177
0.0566867450504356
0.0567142067727556
0.0567426014650169
0.0567719277273333
0.0568021841168341
0.0568333691480016
0.0568654812930345
0.0568985189822113
0.0569324806042633
0.0569673645067578
0.0570031689964853
0.057039892339862
0.0570775327633341
0.0571160884537906
0.0571555575589807
0.0571959381879496
0.0570602182736253
0.056257278147233
0.0547109470109235
0.0527409433890924
0.050553686207387
0.0482684788816982
0.0459484022747165
0.0436205626122711
0.0412789380541343
0.0389146623305878
0.0365239247126718
0.034153831995927
0.0318979529019753
0.0299326469103428
0.0287105048747797
0.0282058600910281
0.0331568509492519
0.0337728462408564
0.0352708692468055
0.0376033828474341
0.0402533986218666
0.0430271382235046
0.045823291076961
0.0485917223656245
0.0513362997793071
0.0540665720217257
0.0567870026931185
0.0594646447254243
0.0620249509858151
0.064328521178515
0.0661354678943604
0.0670755608048588
0.0672378125708302
0.0671903423264702
0.0671439436418569
0.0670986187399411
0.0670543697981688
0.067011198947979
0.0669691082743094
0.0669280998151082
0.0668881755608601
0.066849337454117
0.0668115873890358
0.0667749272109336
0.0667393587158487
0.0667048836501083
0.0666715037099111
0.0666392205409198
0.066608035737863
0.0665779508441496
0.0665489673514924
0.0665210866995458
0.0664943102755524
0.0664686394140036
0.0664440753963115
0.066420619450492
0.0663982727508618
0.0663770364177485
0.0663569115172098
0.0663378990607702
0.0663200000051688
0.066303215252118
0.0662875456480796
0.0662729919840522
0.0662595549953719
0.066247235361528
0.0662360337059899
0.0662259505960532
0.0662169865426933
0.0662091420004367
0.0662024173672474
0.0661968129844247
0.0661923291365176
0.0661889660512514
0.0661867238994709
0.0661856027950967
0.0661856027950967
0.066186723899471
0.0661889660512515
0.0661923291365176
0.0661968129844248
0.0662024173672474
0.0662091420004367
0.0662169865426934
0.0662259505960534
0.06623603370599
0.0662472353615278
0.0662595549953717
0.0662729919840522
0.0662875456480796
0.066303215252118
0.0663200000051688
0.0663378990607703
0.0663569115172099
0.0663770364177484
0.0663982727508619
0.0664206194504916
0.066444075396311
0.0664686394140035
0.0664943102755527
0.0665210866995456
0.0665489673514917
0.0665779508441495
0.0666080357378629
0.0666392205409195
0.066671503709912
0.0667048836501093
0.0667393587158491
0.0667749272109339
0.0668115873890355
0.0668493374541169
0.0668881755608608
0.066928099815108
0.0669691082743088
0.0670111989479785
0.0670543697981674
0.0670986187399403
0.0671439436418582
0.0671903423264707
0.0672378125708295
0.0670779351900536
0.0661423987049819
0.064338517962565
0.0620366102109063
0.0594771099373585
0.056799811270716
0.0540794592696582
0.0513492164895575
0.0486047090630823
0.0458364015061504
0.0430403057533111
0.040266212740988
0.0376152765168725
0.035280372138247
0.0337774715031463
0.0331581845977209
0.03829037918608
0.0390245246446571
0.04081297248756
0.0435283975722583
0.0465878422197821
0.0497803393184811
0.0529966876370892
0.0561839462100854
0.0593461573943794
0.0618877673958342
0.0631556412266438
0.0657572626586095
0.0707136642703952
0.0743073075207186
0.0763816967959056
0.0774598952746459
0.0776475491814917
0.0775927296091011
0.0775391474949936
0.0774868054062778
0.0774357058575106
0.0773858513101192
0.0773372441718308
0.0772898867961081
0.0772437814816024
0.07719893047161
0.0771553359535419
0.0771130000584056
0.0770719248603017
0.0770321123759231
0.076993564564074
0.0769562833251971
0.0769202705009177
0.0768855278735937
0.0768520571658844
0.0768198600403319
0.0767889380989503
0.0767592928828372
0.0767309258717923
0.0767038384839521
0.0766780320754414
0.0766535079400356
0.0766302673088403
0.0766083113499834
0.0765876411683253
0.0765682578051822
0.0765501622380646
0.0765333553804329
0.0765178380814682
0.0765036111258576
0.0764906752335965
0.0764790310598079
0.0764686791945772
0.0764596201628008
0.0764518544240546
0.076445382372478
0.0764402043366736
0.0764363205796234
0.0764337312986223
0.0764324366252279
0.0764324366252279
0.0764337312986223
0.0764363205796234
0.0764402043366737
0.076445382372478
0.0764518544240545
0.0764596201628008
0.0764686791945774
0.0764790310598081
0.0764906752335962
0.0765036111258571
0.0765178380814682
0.0765333553804328
0.0765501622380644
0.076568257805182
0.0765876411683256
0.0766083113499837
0.0766302673088404
0.0766535079400355
0.0766780320754409
0.0767038384839517
0.0767309258717918
0.0767592928828371
0.0767889380989502
0.0768198600403312
0.0768520571658843
0.0768855278735937
0.0769202705009176
0.0769562833251971
0.076993564564074
0.0770321123759239
0.077071924860302
0.0771130000584055
0.0771553359535413
0.0771989304716103
0.0772437814816027
0.0772898867961081
0.0773372441718297
0.0773858513101186
0.07743570585751
0.0774868054062774
0.0775391474949946
0.0775927296091015
0.0776475491814907
0.0774626299836379
0.0763896478413753
0.0743187926100995
0.0707453262228044
0.0657750735120733
0.0631649820956187
0.0618934932480014
0.05936104168099
0.0561989006586329
0.0530117701441305
0.0497954784248536
0.046602601117725
0.0435421583731454
0.0408241324529694
0.0390301149758647
0.0382919273316591
0.0436119634457624
0.0444686279301975
0.0465581856383529
0.0496705322169499
0.0531543878533575
0.0567809744042093
0.0572697781188956
0.0586407595609875
0.0601257030354181
0.0616027789700062
0.0635591559530026
0.0669956267971543
0.0729842688607731
0.0827870476912998
0.0870032802526811
0.0882246376139524
0.0884386238116294
0.0883761856845892
0.0883151569917002
0.0882555406568353
0.0881973395440118
0.088140556456734
0.0880851941373434
0.0880312552663761
0.0879787424619379
0.0879276582790873
0.087878005209231
0.087829785679534
0.0877830020523446
0.0877376566246254
0.0876937516274061
0.0876512892252442
0.0876102715157037
0.0875707005288466
0.0875325782267391
0.087495906502975
0.0874606871822085
0.0874269220197106
0.087394612700937
0.0873637608411107
0.0873343679848228
0.0873064356056517
0.0872799651057955
0.0872549578157232
0.0872314149938436
0.0872093378261893
0.087188727426121
0.0871695848340467
0.0871519110171627
0.0871357068692082
0.0871209732102402
0.0871077107864277
0.087095920269862
0.087085602258388
0.0870767572754512
0.0870693857699667
0.0870634881162039
0.0870590646136934
0.0870561154871489
0.0870546408864116
0.0870546408864116
0.0870561154871489
0.0870590646136935
0.087063488116204
0.0870693857699667
0.0870767572754514
0.0870856022583881
0.0870959202698621
0.0871077107864277
0.0871209732102401
0.0871357068692081
0.0871519110171625
0.0871695848340464
0.0871887274261206
0.0872093378261894
0.0872314149938439
0.0872549578157237
0.0872799651057957
0.0873064356056512
0.0873343679848224
0.0873637608411104
0.0873946127009371
0.0874269220197108
0.087460687182208
0.0874959065029745
0.0875325782267392
0.0875707005288465
0.0876102715157032
0.0876512892252438
0.0876937516274062
0.087737656624626
0.0877830020523446
0.0878297856795342
0.0878780052092306
0.0879276582790878
0.0879787424619388
0.0880312552663764
0.0880851941373428
0.0881405564567339
0.0881973395440106
0.0882555406568348
0.0883151569917013
0.0883761856845893
0.088438623811628
0.0882277458355851
0.0870122888718609
0.0828448741169823
0.0730214903745302
0.0670180161170926
0.0635722543749127
0.061611742968942
0.0601342636770866
0.0586490272430612
0.0572764669438299
0.0567981572911498
0.0531711627248414
0.0496862284603729
0.0465710633678208
0.044475219060068
0.0436137339631015
0.0491284926268464
0.05011219397056
0.0525139203762742
0.0560377106855553
0.0556154306872291
0.0547879707732731
0.0559876776874129
0.0581272055851143
0.0603788808215431
0.0626062174779174
0.0653463565966673
0.0696627032440323
0.0766520266026272
0.0875895444198455
0.0980139670038365
0.0993837230524251
0.0996250059045798
0.0995546701337716
0.0994859220729434
0.0994187650158003
0.0993532021886239
0.0992892367495259
0.0992268717877196
0.0991661103227963
0.099106955304019
0.0990494096096295
0.0989934760461655
0.0989391573477986
0.0988864561756852
0.098835375117325
0.0987859166859436
0.0987380833198892
0.098691877382042
0.0986473011592407
0.0986043568617282
0.0985630466226144
0.0985233724973498
0.0984853364632259
0.098448940418886
0.098414186183859
0.0983810754981087
0.098349610021602
0.0983197913338976
0.0982916209337519
0.0982651002387466
0.0982402305849333
0.0982170132264984
0.0981954493354493
0.0981755400013198
0.0981572862308959
0.098140688947962
0.0981257489930684
0.098112467123317
0.0981008440121721
0.0980908802492898
0.0980825763403664
0.0980759327070128
0.0980709496866451
0.0980676275324014
0.0980659664130756
0.0980659664130758
0.0980676275324016
0.0980709496866452
0.0980759327070127
0.0980825763403668
0.0980908802492899
0.0981008440121723
0.0981124671233169
0.0981257489930682
0.0981406889479621
0.0981572862308958
0.0981755400013195
0.0981954493354492
0.0982170132264984
0.0982402305849336
0.0982651002387469
0.0982916209337519
0.0983197913338975
0.0983496100216015
0.0983810754981086
0.098414186183859
0.0984489404188861
0.0984853364632255
0.0985233724973498
0.0985630466226138
0.0986043568617277
0.0986473011592403
0.0986918773820415
0.0987380833198888
0.098785916685944
0.0988353751173257
0.0988864561756854
0.0989391573477992
0.0989934760461651
0.0990494096096296
0.0991069553040198
0.0991661103227963
0.0992268717877192
0.0992892367495254
0.099353202188623
0.0994187650158
0.0994859220729443
0.0995546701337719
0.0996250059045795
0.0993872184615547
0.098024071911434
0.0876531119852954
0.0766944255324858
0.0696896958154645
0.0653635427641283
0.0626189142672356
0.0603911879219489
0.0581393540038911
0.0559980945802896
0.0547916899211392
0.0556075494985757
0.0560554131973401
0.0525285787520513
0.0501198228306001
0.0491304936746567
0.0548471080207569
0.055962522285961
0.0586878694406829
0.0582519394650649
0.0540865042613824
0.0537550608850011
0.0557633818509005
0.0587975049941177
0.061916551206654
0.0649759901627675
0.0685534443976183
0.0737513388192169
0.0816748186781982
0.0936103999431776
0.10942800997404
0.110951597346329
0.111221176638755
0.111142653911272
0.111065903700344
0.110990929683056
0.110917735461221
0.110846324560554
0.110776700429844
0.110708866440158
0.110642825884046
0.110578581974775
0.110516137845557
0.110455496548816
0.110396661055463
0.110339634254177
0.110284418950721
0.110231017867259
0.110179433641708
0.110129668827091
0.110081725890918
0.110035607214591
0.109991315092809
0.109948851733017
0.109908219254859
0.109869419689652
0.109832454979888
0.109797326978752
0.10976403744966
0.109732588065822
0.109702980409823
0.109675215973228
0.109649296156209
0.109625222267192
0.109602995522532
0.109582617046203
0.109564087869516
0.109547408930858
0.109532581075459
0.109519605055172
0.109508481528288
0.109499211059365
0.109491794119089
0.109486231084152
0.109482522237155
0.10948066776654
0.10948066776654
0.109482522237155
0.109486231084152
0.109491794119089
0.109499211059365
0.109508481528288
0.109519605055172
0.109532581075459
0.109547408930858
0.109564087869516
0.109582617046203
0.109602995522532
0.109625222267192
0.109649296156209
0.109675215973228
0.109702980409823
0.109732588065823
0.10976403744966
0.109797326978752
0.109832454979888
0.109869419689652
0.109908219254859
0.109948851733017
0.109991315092809
0.11003560721459
0.110081725890918
0.110129668827091
0.110179433641708
0.110231017867259
0.110284418950721
0.110339634254178
0.110396661055463
0.110455496548816
0.110516137845556
0.110578581974775
0.110642825884047
0.110708866440158
0.110776700429843
0.110846324560554
0.110917735461221
0.110990929683055
0.111065903700344
0.111142653911273
0.111221176638754
0.110955494120643
0.109439251308115
0.0936789101414368
0.0817218830800825
0.0737827580359506
0.0685748319006662
0.0649927175704161
0.0619329965183357
0.058814036247433
0.0557781795472487
0.0537622518119899
0.0540800901883417
0.058219959462294
0.0587043736256687
0.0559712270900006
0.0548493480537518
0.0607752125434626
0.0620271821116927
0.0650880130911419
0.0575419865639113
0.0534472851281611
0.0537854488289779
0.0567308744435239
0.0607405520267391
0.0647818749768999
0.0687120929892477
0.0731407124970686
0.0791909342247964
0.0879678525839098
0.10077070728767
0.118861143889104
0.122943235462152
0.123242147673483
0.123155138078111
0.12307009257585
0.122987015241214
0.122905910065305
0.1228267809549
0.122749631731542
0.122674466130648
0.122601287800633
0.122530100302057
0.122460907106777
0.122393711597129
0.122328517065121
0.122265326711649
0.122204143645724
0.122144970883731
0.122087811348694
0.122032667869571
0.121979543180566
0.121928439920465
0.121879360631985
0.121832307761153
0.121787283656708
0.121744290569515
0.121703330652014
0.121664405957686
0.12162751844054
0.121592669954627
0.121559862253583
0.121529096990184
0.121500375715934
0.121473699880675
0.121449070832229
0.12142648981605
0.121405957974915
0.121387476348635
0.121371045873791
0.121356667383501
0.121344341607202
0.121334069170473
0.121325850594871
0.121319686297801
0.121315576592409
0.121313521687505
0.121313521687505
0.121315576592409
0.121319686297801
0.121325850594871
0.121334069170474
0.121344341607203
0.121356667383501
0.121371045873792
0.121387476348635
0.121405957974915
0.12142648981605
0.121449070832229
0.121473699880675
0.121500375715933
0.121529096990184
0.121559862253584
0.121592669954628
0.12162751844054
0.121664405957686
0.121703330652014
0.121744290569515
0.121787283656707
0.121832307761153
0.121879360631985
0.121928439920465
0.121979543180566
0.122032667869571
0.122087811348694
0.122144970883731
0.122204143645725
0.12226532671165
0.122328517065121
0.122393711597129
0.122460907106777
0.122530100302057
0.122601287800634
0.122674466130648
0.122749631731542
0.1228267809549
0.122905910065303
0.122987015241213
0.123070092575851
0.12315513807811
0.123242147673482
0.12294754829999
0.118961734322233
0.10084343279134
0.0880190521742452
0.0792264905103403
0.0731662384795832
0.068732947772573
0.0648026329415027
0.0607617355623767
0.0567504938369066
0.0537968068402102