/*--------------------------------*- C++ -*----------------------------------*\
  =========                 |
  \\      /  F ield         | OpenFOAM: The Open Source CFD Toolbox
   \\    /   O peration     | Website:  https://openfoam.org
    \\  /    A nd           | Version:  7
     \\/     M anipulation  |
\*---------------------------------------------------------------------------*/
FoamFile
{
    version     2.0;
    format      ascii;
    class       volVectorField;
    location    "20000";
    object      C;
}
// * * * * * * * * * * * * * * * * * * * * * * * * * * * * * * * * * * * * * //

dimensions      [0 1 0 0 0 0 0];

internalField   nonuniform List<vector> 
15600
(
(0.0473279108943568 1.00195551652101 -5.71993069776789e-18)
(0.141984855971558 1.00179412474911 9.63601997408321e-20)
(0.236617731419041 0.999549105227584 -3.90589923409125e-18)
(0.330985025021903 0.992415181931285 0)
(0.424513866315547 0.97826201975789 1.80843023897702e-18)
(0.516279535932282 0.955435656837957 0)
(0.60558789507108 0.924261969003174 0)
(0.692465025939928 0.886759576761121 9.47250109715604e-20)
(0.777354578623925 0.844938471061733 3.81187239475267e-18)
(0.860809004640445 0.800326193652692 7.42059184690866e-18)
(0.943381211859631 0.754104035529104 3.49389857254087e-18)
(1.02561043259854 0.707289914098137 -3.4523438778349e-18)
(1.10799897312358 0.660769450151954 9.47614436250626e-20)
(1.19080427810559 0.614994899582643 -1.54258138373091e-18)
(1.27401896615697 0.569962473434071 5.84154264857216e-18)
(1.35757341226565 0.525556296536336 2.86314257203794e-18)
(1.4413964565673 0.48165460540992 0)
(1.52541835677489 0.43812946256613 5.45839138663734e-18)
(1.60957220881767 0.394855837668961 -1.06003647478696e-17)
(1.69386347403442 0.351850166662829 0)
(1.77843216594831 0.30939672881599 0)
(1.86348387706221 0.267929142452462 -4.74915804114364e-18)
(1.94922640773013 0.22791643644154 0)
(2.0358588787185 0.189875658852726 0)
(2.12356082973358 0.154387809334284 -2.16195555095045e-18)
(2.21245556504744 0.122020398977996 -9.56747880326177e-20)
(2.3025477553019 0.0931552727581357 -2.05491319951386e-16)
(2.39375061616785 0.0680189654529763 -2.10981733844186e-16)
(2.48594641742551 0.0468148018439566 0)
(2.57899323379697 0.0297318042270312 -6.01074482847564e-18)
(2.67272662664817 0.0169378869966599 0)
(2.76695840790734 0.00857344872993203 -2.32350432661411e-16)
(2.86148206196939 0.00471272620968296 -2.34954795621026e-16)
(2.9561207225991 0.00391103304202603 0)
(3.05077654438781 0.00391103304202594 -2.0030170924234e-18)
(3.14543236617652 0.00391103304202591 0)
(3.24008818796523 0.00391103304202595 0)
(3.33474400975394 0.00391103304202601 0)
(3.42939983154266 0.00391103304202599 2.32073927811612e-16)
(3.52405565333137 0.00391103304202609 2.29463302446178e-16)
(3.61871147512009 0.00391103304202611 0)
(3.7133672969088 0.00391103304202609 -2.00301709242328e-18)
(3.80802311869751 0.00391103304202612 0)
(3.90267894048623 0.00391103304202611 0)
(3.99733476227495 0.00391103304202599 -3.90966065834441e-18)
(4.09199058406366 0.00391103304202603 -2.00301709242332e-18)
(4.18664640585237 0.00391103304202591 -2.47519823391989e-16)
(4.28130222764109 0.00391103304202595 -2.42070686706112e-16)
(4.3759580494298 0.003911033042026 -4.00603418484665e-18)
(4.47061387121852 0.00391103304202586 -2.00301709242323e-18)
(4.56526969300723 0.00391103304202598 -4.00603418484662e-18)
(4.65992551479594 0.00391103304202606 -7.91569484319123e-18)
(4.75458133658465 0.003911033042026 -2.35983588469971e-16)
(4.84923715837337 0.00391103304202599 -2.33792821489093e-16)
(4.94389298016208 0.00391103304202617 0)
(5.0385488019508 0.00391103304202617 5.91267775076789e-18)
(5.13320462373951 0.00391103304202593 2.00301709242322e-18)
(5.22786044552822 0.00391103304202595 1.90664356592137e-18)
(5.32251626731693 0.00391103304202594 0)
(5.41717208910565 0.00391103304202595 2.00301709242314e-18)
(5.51182791089437 0.00391103304202592 -2.00301709242337e-18)
(5.60648373268308 0.00391103304202598 0)
(5.70113955447179 0.00391103304202595 0)
(5.7957953762605 0.00391103304202594 -4.00603418484642e-18)
(5.89045119804922 0.00391103304202605 0)
(5.98510701983793 0.00391103304202618 0)
(6.07976284162665 0.00391103304202602 0)
(6.17441866341536 0.00391103304202602 -4.00603418484675e-18)
(6.26907448520407 0.00391103304202611 1.90664356592128e-18)
(6.36373030699278 0.00391103304202601 4.00603418484624e-18)
(6.4583861287815 0.00391103304202588 -2.00301709242346e-18)
(6.55304195057021 0.003911033042026 -1.90664356592133e-18)
(6.64769777235892 0.00391103304202593 2.33980571377537e-16)
(6.74235359414764 0.00391103304202601 4.73004065844812e-16)
(6.83700941593635 0.00391103304202595 2.35303901694487e-16)
(6.93166523772506 0.003911033042026 -2.00301709242332e-18)
(7.02632105951377 0.00391103304202605 3.90966065834436e-18)
(7.12097688130249 0.00391103304202611 2.00301709242327e-18)
(7.2156327030912 0.00391103304202609 0)
(7.31028852487992 0.00391103304202596 2.30167284245693e-16)
(7.40494434666863 0.00391103304202606 2.35090923315967e-16)
(7.49960016845734 0.00391103304202607 0)
(7.59425599024606 0.00391103304202588 4.00603418484651e-18)
(7.68891181203477 0.00391103304202595 0)
(7.78356763382348 0.003911033042026 0)
(7.8782234556122 0.00391103304202596 -4.00603418484644e-18)
(7.97287927740091 0.00391103304202604 0)
(8.06751768834753 0.00472144295040222 0)
(8.16204051496402 0.00860116498039606 9.65004558873788e-20)
(8.25627060274033 0.0169859386081647 2.01671519888143e-18)
(8.35000118783505 0.0297995967463653 -2.03634806512159e-18)
(8.44304436531316 0.0469016269640563 -9.67826305227162e-20)
(8.53523605579291 0.0681240478072268 0)
(8.62643419482916 0.093277719267592 -2.14481296331806e-18)
(8.71652113346184 0.122159253589393 0)
(8.80541029575546 0.154541793877245 -2.35660140304709e-18)
(8.89310692289766 0.190042529264271 -1.94528607381324e-19)
(8.97973513151498 0.228093569561173 -2.30096649834617e-18)
(9.06547422774219 0.268114056007203 -2.37493435167644e-18)
(9.15052310132589 0.309587054358449 -4.90076916060106e-18)
(9.23509007081081 0.352043930755322 -7.67745126888672e-18)
(9.31938053150198 0.395051271567252 -9.75884924777416e-20)
(9.40353381933676 0.438325851129788 0)
(9.48755499900299 0.48185241641289 0)
(9.57137698584187 0.525756106033112 0)
(9.65493008821728 0.570164868359428 7.61749388685427e-18)
(9.73814308711436 0.615200402079081 -6.26937976505527e-18)
(9.82094640779436 0.660978562784895 -3.11843560553616e-18)
(9.90333343583796 0.707501792407437 -1.58110058501934e-18)
(9.98556280439545 0.754315314886032 -1.0679840561187e-17)
(10.0681378323452 0.800532572715741 5.42436064609626e-18)
(10.1515978070749 0.845135220734698 9.81207760827218e-20)
(10.2364948835501 0.886940421511117 0)
(10.3233818632685 0.924418963229542 2.01087340492058e-18)
(10.4127019446818 0.955558766219486 -1.91272925604979e-18)
(10.5044775640194 0.978344903335267 -5.80922543395337e-18)
(10.5980122977647 0.992461668805222 1.99918520753512e-18)
(10.6923819015252 0.99956902009806 0)
(10.7870151703247 1.00179879835475 -5.91206293417764e-18)
(10.8816720891056 1.00195551652101 0)
(0.0473207661383768 1.00593828065304 0)
(0.141963427014147 1.00577753292918 -1.83933130103653e-18)
(0.236582220798793 1.00354147224793 -1.83780160131253e-18)
(0.330936553500874 0.996436017130337 0)
(0.424455838181996 0.982339334884527 -2.02888713632577e-18)
(0.516219007266968 0.959604069125559 5.72687295879941e-18)
(0.605534603237529 0.928554798717727 -2.03640905550052e-18)
(0.69242859460257 0.891202083584919 1.91091367641456e-19)
(0.777342881906013 0.849547886945826 -1.09449983046594e-17)
(0.860827730725767 0.805113650341744 1.93424227386053e-18)
(0.943433853034644 0.759075949233765 0)
(1.02569833543093 0.712448638821255 -1.80991040074846e-18)
(1.10812148628476 0.666113808305141 -1.74164213172846e-18)
(1.19095974010105 0.620521915317901 4.4627795129725e-18)
(1.27420574949341 0.575669187241446 0)
(1.35779016670207 0.531440210940998 0)
(1.44164211538225 0.487713708509694 -2.66959523414958e-18)
(1.52569213113014 0.44436225277099 5.17253614509223e-18)
(1.60987357619592 0.401261312111769 1.9152064017161e-19)
(1.69419188479293 0.358427255624453 -4.87299145191166e-18)
(1.77878650709393 0.316143227259639 -2.55462365136217e-18)
(1.86386221514572 0.274841115283736 2.6736805816053e-18)
(1.94962597998387 0.234988077244046 -2.21906912177522e-18)
(2.03627612726168 0.19709909839905 0)
(2.1239914795473 0.161752860320934 2.08548284603254e-18)
(2.212894850935 0.129514610005339 -2.21835916134447e-18)
(2.30299089789769 0.100764669010311 2.02458461283163e-16)
(2.39419318270471 0.0757286678914951 1.98813831816495e-16)
(2.48638444478051 0.0546091197996914 1.92343060382123e-19)
(2.57942332511637 0.0375942925015899 2.06369350908159e-18)
(2.67314604126003 0.0248514301283827 0)
(2.76736515615474 0.016520370860075 2.21655743298071e-16)
(2.8618749794002 0.0126750551303672 2.22634710900814e-16)
(2.95649939466603 0.0118765613060781 -1.92753636335608e-19)
(3.05114092694279 0.0118765613060782 1.92753636335603e-19)
(3.14578245921954 0.0118765613060781 0)
(3.24042399149629 0.0118765613060781 2.0322972102105e-18)
(3.33506552377304 0.0118765613060782 2.03229721021049e-18)
(3.4297070560498 0.0118765613060783 -2.25073801653853e-16)
(3.52434858832655 0.0118765613060781 -2.22863831544838e-16)
(3.6189901206033 0.0118765613060781 1.92753636335608e-19)
(3.71363165288006 0.0118765613060782 -1.92753636335607e-19)
(3.80827318515681 0.0118765613060781 -1.92753636335611e-19)
(3.90291471743357 0.0118765613060781 2.03229721021063e-18)
(3.99755624971033 0.0118765613060782 -7.93643520450639e-18)
(4.09219778198708 0.0118765613060782 0)
(4.18683931426384 0.0118765613060781 2.29138396074273e-16)
(4.28148084654059 0.011876561306078 2.32570069668955e-16)
(4.37612237881734 0.0118765613060781 0)
(4.47076391109409 0.011876561306078 0)
(4.56540544337085 0.0118765613060781 -1.92753636335608e-19)
(4.6600469756476 0.0118765613060782 1.92753636335605e-19)
(4.75468850792435 0.0118765613060782 2.2507380165385e-16)
(4.84933004020111 0.0118765613060782 2.22904663906676e-16)
(4.94397157247786 0.0118765613060782 0)
(5.03861310475462 0.0118765613060782 5.9041379942962e-18)
(5.13325463703137 0.0118765613060781 0)
(5.22789616930813 0.011876561306078 2.03229721021053e-18)
(5.32253770158488 0.0118765613060782 0)
(5.41717923386163 0.011876561306078 4.06459442042087e-18)
(5.51182076613838 0.0118765613060779 0)
(5.60646229841514 0.0118765613060781 4.25734805675649e-18)
(5.70110383069189 0.011876561306078 -2.03229721021064e-18)
(5.79574536296864 0.0118765613060781 0)
(5.89038689524539 0.0118765613060783 0)
(5.98502842752215 0.0118765613060781 0)
(6.07966995979891 0.0118765613060782 3.87184078408548e-18)
(6.17431149207566 0.0118765613060784 1.83954357387502e-18)
(6.26895302435241 0.0118765613060783 0)
(6.36359455662916 0.011876561306078 -3.87184078408534e-18)
(6.45823608890592 0.0118765613060781 0)
(6.55287762118267 0.0118765613060781 0)
(6.64751915345942 0.0118765613060781 -2.27298852500405e-16)
(6.74216068573618 0.0118765613060781 -4.51451357295508e-16)
(6.83680221801293 0.011876561306078 -2.26182081480235e-16)
(6.93144375028968 0.0118765613060781 0)
(7.02608528256644 0.0118765613060783 0)
(7.12072681484319 0.0118765613060781 -1.92753636335614e-19)
(7.21536834711994 0.0118765613060782 1.83954357387497e-18)
(7.3100098793967 0.0118765613060781 -2.21587468142447e-16)
(7.40465141167345 0.0118765613060782 -2.26933680389391e-16)
(7.49929294395021 0.0118765613060783 1.92753636335604e-19)
(7.59393447622696 0.0118765613060782 3.87184078408533e-18)
(7.68857600850371 0.0118765613060781 0)
(7.78321754078047 0.0118765613060781 0)
(7.87785907305722 0.0118765613060781 -3.67908714774994e-18)
(7.97250060533398 0.0118765613060781 -3.87184078408553e-18)
(8.06712477164837 0.0126837370849851 -2.0319652199628e-18)
(8.16163377070078 0.0165479765058342 2.03471964514157e-18)
(8.25585119887375 0.024899289986438 -2.04551770693248e-18)
(8.34957111847041 0.0376618144928846 0)
(8.44260637443697 0.0546955984421006 0)
(8.53479354214266 0.0758333309146441 -6.18493699287957e-18)
(8.62599112396581 0.100886626900369 0)
(8.71608194026606 0.129652910525621 1.93446005523086e-19)
(8.80497976088406 0.161906230402135 1.93543544002896e-19)
(8.89268981057596 0.197265302930058 0)
(8.97933571251804 0.235164503526341 -2.21938210795558e-18)
(9.06509605665411 0.275025290955631 2.67822657936005e-18)
(9.15016893852568 0.316332793318563 -1.93855340720531e-19)
(9.23476184529608 0.358620246504845 1.93909812271876e-19)
(9.31907935260229 0.401455966130301 1.93954155493633e-19)
(9.40326023569933 0.444557857647605 2.78063955619518e-18)
(9.48730953375956 0.487910730152857 2.67000195417332e-18)
(9.57116042917654 0.531639223109753 5.52335555949524e-18)
(9.65474350798714 0.575870774526403 0)
(9.73798783494306 0.620726597784016 8.92724617945138e-18)
(9.82082411234325 0.666322086509122 0)
(9.90324575678813 0.712659671658126 6.47682794841756e-18)
(9.98551038650661 0.75928638547411 2.07383700271308e-18)
(10.0681193183936 0.805319205800338 -3.48710613060884e-18)
(10.1516096939313 0.849743851405193 -7.75359216826878e-18)
(10.2365314752289 0.891382206576624 3.65491468547289e-18)
(10.3234352764332 0.928711166358661 0)
(10.4127625483053 0.959726687177109 0)
(10.5045356275136 0.982421887698387 2.03036787350622e-18)
(10.5980607809161 0.996482318495666 -1.93166867048531e-19)
(10.6924174142467 1.00356130764765 -2.0307419948655e-18)
(10.7870365994607 1.00578218788441 0)
(10.8816792338616 1.00593828065304 4.06459442041687e-18)
(0.04731335964931 1.01006694496041 5.51720532090367e-18)
(0.141941213052065 1.00990686487812 5.70931030098825e-18)
(0.23654540932166 1.00768009123206 0)
(0.33088630632737 1.00060414719235 1.92336795235797e-19)
(0.424395684308641 0.986566013957954 -5.31628270995389e-18)
(0.516156261259128 0.963925182579745 0)
(0.605479359167837 0.933004887373703 1.91295634748908e-19)
(0.69239082867897 0.89580733240216 -1.07645792551105e-17)
(0.777330756703356 0.854326159120953 -3.64775660979718e-18)
(0.860847142801833 0.810076485434789 -3.55298999699619e-18)
(0.94348842260842 0.764229998543367 -8.50360804554355e-18)
(1.0257894583996 0.717796342626657 -1.37002131355611e-18)
(1.10824848746073 0.67165394590136 1.49517718860668e-18)
(1.19112089712483 0.626251401830827 -1.81698317465581e-18)
(1.27439937525187 0.581584954730767 0)
(1.35801486149084 0.537539670431667 2.66290642173357e-18)
(1.44189677340267 0.493994774390515 2.57459081014604e-18)
(1.52597593464641 0.45082336843957 -1.01685450012759e-17)
(1.61018598354933 0.407901437960124 2.22920356323388e-18)
(1.69453232620569 0.365245282744105 -7.43278098095374e-18)
(1.77915382880043 0.323136869832113 -2.08742976922376e-18)
(1.86425441286836 0.282006294052423 2.40069228436748e-18)
(1.95004018974596 0.242318773074638 0)
(2.03670866084596 0.204587153776965 1.91852023337015e-19)
(2.12443790532732 0.169387714735989 0)
(2.21335022915016 0.137283355914123 3.90945059434649e-18)
(2.30345027410007 0.10865281965489 -2.09780258690446e-18)
(2.39465196174205 0.0837207991721352 -1.92246977235308e-19)
(2.48683851834961 0.062688966257824 -7.90145838383871e-18)
(2.57986917192749 0.0457448065125373 3.80320102953058e-18)
(2.67358082024327 0.033054869253706 3.76711372414894e-18)
(2.76778680476718 0.0247584117384098 3.55401719396088e-18)
(2.8622822905333 0.0209290671963978 0)
(2.95689193858657 0.0201338899208166 -1.96756875083421e-18)
(3.05151865788519 0.0201338899208166 0)
(3.14614537718381 0.0201338899208166 3.74238362309346e-18)
(3.24077209648243 0.0201338899208167 1.92753878574971e-19)
(3.33539881578105 0.0201338899208168 1.96756875083428e-18)
(3.43002553507968 0.0201338899208168 0)
(3.52465225437829 0.0201338899208167 0)
(3.61927897367691 0.0201338899208166 1.92753878574971e-19)
(3.71390569297553 0.0201338899208166 -3.93513750166845e-18)
(3.80853241227415 0.0201338899208166 3.93513750166842e-18)
(3.90315913157277 0.0201338899208166 0)
(3.99778585087139 0.0201338899208165 3.54962974451829e-18)
(4.09241257017002 0.0201338899208166 1.9275387857497e-19)
(4.18703928946864 0.0201338899208167 1.92753878574969e-19)
(4.28166600876726 0.0201338899208167 -1.92753878574964e-19)
(4.37629272806587 0.0201338899208166 0)
(4.47091944736449 0.0201338899208166 0)
(4.56554616666311 0.0201338899208166 1.77481487225923e-18)
(4.66017288596174 0.0201338899208167 0)
(4.75479960526036 0.0201338899208168 0)
(4.84942632455898 0.0201338899208167 1.92753878574969e-19)
(4.9440530438576 0.0201338899208166 1.77481487225934e-18)
(5.03867976315621 0.0201338899208166 0)
(5.13330648245483 0.0201338899208166 5.70995237392768e-18)
(5.22793320175346 0.0201338899208166 0)
(5.32255992105208 0.0201338899208166 0)
(5.4171866403507 0.0201338899208166 -5.70995237392768e-18)
(5.51181335964931 0.0201338899208166 -3.93513750166879e-18)
(5.60644007894793 0.0201338899208166 0)
(5.70106679824656 0.0201338899208167 0)
(5.79569351754517 0.0201338899208166 0)
(5.8903202368438 0.0201338899208166 0)
(5.98494695614242 0.0201338899208166 0)
(6.07957367544103 0.0201338899208166 -1.77481487225937e-18)
(6.17420039473965 0.0201338899208168 0)
(6.26882711403828 0.0201338899208167 0)
(6.3634538333369 0.0201338899208166 1.77481487225924e-18)
(6.45808055263552 0.0201338899208166 5.70995237392765e-18)
(6.55270727193413 0.0201338899208166 -3.93513750166862e-18)
(6.64733399123275 0.0201338899208166 3.74238362309344e-18)
(6.74196071053137 0.0201338899208166 5.70995237392767e-18)
(6.83658742982999 0.0201338899208166 -3.54962974451867e-18)
(6.93121414912861 0.0201338899208166 0)
(7.02584086842724 0.0201338899208166 1.92753878574975e-19)
(7.12046758772585 0.0201338899208166 0)
(7.21509430702447 0.0201338899208166 1.77481487225924e-18)
(7.30972102632309 0.0201338899208166 1.77481487225924e-18)
(7.40434774562171 0.0201338899208167 0)
(7.49897446492034 0.0201338899208168 0)
(7.59360118421896 0.0201338899208168 1.77481487225932e-18)
(7.68822790351758 0.0201338899208167 -3.74238362309351e-18)
(7.78285462281619 0.0201338899208166 -1.92753878574975e-19)
(7.87748134211481 0.0201338899208166 0)
(7.97210806141343 0.0201338899208166 3.74238362309345e-18)
(8.06671746127371 0.0209377130905648 0)
(8.16121212621846 0.0247859027277219 0)
(8.25541643102941 0.0331025303339262 1.98032852085652e-18)
(8.34912529441831 0.0458120480657686 1.99855830492369e-18)
(8.44215233868299 0.0627750857302781 0)
(8.5343348179293 0.0838250275031273 0)
(8.62553182212362 0.108774271026281 0)
(8.71562665813822 0.137421082045598 0)
(8.80453345425703 0.169540447846165 4.4110769492675e-18)
(8.89225741820335 0.204752668034471 -2.26823845438064e-18)
(8.97892166162696 0.242494466626159 -8.75644094413765e-18)
(9.06470403204444 0.282189704810726 -2.4031235356077e-18)
(9.1498018016979 0.3233256485854 0)
(9.23442159591313 0.36543747208735 2.54412112941898e-18)
(9.31876714063194 0.408095283529571 7.45713385948207e-18)
(9.40297662988742 0.45101816092033 2.68862411445845e-18)
(9.48705507640176 0.49419097775724 -5.34401047412047e-18)
(9.57093593940377 0.53773785606383 2.66334421648564e-18)
(9.65455009277539 0.581785704788954 1.12381608844864e-17)
(9.73782689542994 0.626455234226296 0)
(9.82069733685271 0.671861359108518 0)
(9.90315486579982 0.718006499018672 -3.31715087618914e-18)
(9.9854560483985 0.764439560781098 -6.69300295898527e-18)
(10.0681001262222 0.810281187117889 -1.94516719780194e-19)
(10.151622016238 0.854521309602376 -1.5340983138388e-18)
(10.2365694073679 0.895986707195817 5.09280558805764e-18)
(10.3234906462788 0.93316060547568 -4.14186140984363e-18)
(10.4128253720173 0.96404729130231 7.31302646137322e-18)
(10.5045958180429 0.986648223891142 -3.73765499141474e-18)
(10.598111040146 1.00065025625315 0)
(10.6924542279022 1.00769984424972 -1.77313939981245e-18)
(10.7870588136079 1.00991150049972 -3.9347645273103e-18)
(10.8816866403507 1.01006694496041 0)
(0.0473056818391256 1.01434685418343 0)
(0.141918185328253 1.01418746620055 7.23418327014803e-18)
(0.236507249333618 1.0119703198078 1.71073177434958e-18)
(0.33083421845412 1.00492496795162 0)
(0.424333326823456 0.990947528613469 1.92000277421112e-19)
(0.516091216681004 0.968404591092726 1.90844963644787e-18)
(0.60542209134585 0.937617995827965 3.43285244154467e-18)
(0.692351679279358 0.900581284925606 0)
(0.777318187319323 0.859279473279371 1.90980936158949e-19)
(0.860867265998442 0.815221123545041 3.43284050153624e-18)
(0.943544991223741 0.769572855607206 1.3753008083794e-18)
(1.02588391946741 0.723339948363393 2.81948518788983e-18)
(1.10838014106055 0.677397034911501 4.13425267125619e-18)
(1.19128795780251 0.632190776219348 1.91217352262282e-19)
(1.27460009409041 0.587717434153794 0)
(1.35824778751053 0.543862571061259 -1.91367445794139e-19)
(1.44216076029607 0.500505934205762 5.15731498148282e-18)
(1.5262701347216 0.457521173810079 -4.81103427812269e-18)
(1.61050983530496 0.414784811190927 -4.86075815415836e-18)
(1.69488523899125 0.372313074301617 6.7989931361115e-18)
(1.77953460658428 0.330386710156517 1.91622482428157e-19)
(1.86466097794983 0.289433954443237 2.13057723719142e-18)
(1.95046957323171 0.24991801388627 0)
(2.03715703940751 0.212349518645807 -4.19350085426673e-18)
(2.12490068499367 0.177302256272318 0)
(2.21382228920195 0.145336693719907 -1.88567060323324e-18)
(2.30392647859322 0.116829936275906 1.92149314308552e-19)
(2.39512754719068 0.0920057054803052 -3.59755871176407e-18)
(2.48730922595182 0.071064800949337 0)
(2.58033135139918 0.0541938974685049 0)
(2.67403152643875 0.0415588240918668 -5.36575414053373e-18)
(2.76822389958757 0.0332982358760569 -5.52874974295968e-18)
(2.86270452265112 0.0294854475945154 -5.32885056340407e-18)
(2.95729886252635 0.0286937083668617 0)
(3.0519102262046 0.0286937083668618 0)
(3.14652158988285 0.0286937083668617 -1.92754129768343e-19)
(3.2411329535611 0.0286937083668617 1.92754129768343e-19)
(3.33574431723935 0.0286937083668617 5.52262925958279e-18)
(3.4303556809176 0.0286937083668618 1.92754129768339e-19)
(3.52496704459585 0.0286937083668618 -1.92754129768339e-19)
(3.6195784082741 0.0286937083668617 -5.52262925958274e-18)
(3.71418977195235 0.0286937083668617 1.92754129768345e-19)
(3.80880113563061 0.0286937083668617 -5.52262925958282e-18)
(3.90341249930886 0.0286937083668617 -5.52262925958279e-18)
(3.99802386298711 0.0286937083668617 1.92754129768338e-19)
(4.09263522666536 0.0286937083668616 0)
(4.18724659034362 0.0286937083668617 -1.92754129768341e-19)
(4.28185795402187 0.0286937083668617 5.52262925958281e-18)
(4.37646931770012 0.0286937083668618 0)
(4.47108068137837 0.0286937083668617 0)
(4.56569204505662 0.0286937083668618 1.90512779645029e-18)
(4.66030340873487 0.0286937083668617 -2.78072450396725e-16)
(4.75491477241312 0.0286937083668617 -2.81424353039111e-16)
(4.84952613609138 0.0286937083668617 -7.42775705603322e-18)
(4.94413749976962 0.0286937083668618 0)
(5.03874886344787 0.0286937083668617 -1.90512779645039e-18)
(5.13336022712613 0.0286937083668617 5.52262925958279e-18)
(5.22797159080438 0.0286937083668617 0)
(5.32258295448263 0.0286937083668617 5.52262925958282e-18)
(5.41719431816088 0.0286937083668617 5.52262925958256e-18)
(5.51180568183913 0.0286937083668617 -7.23500292626529e-18)
(5.60641704551738 0.0286937083668617 0)
(5.70102840919563 0.0286937083668617 0)
(5.79563977287388 0.0286937083668617 -3.61750146313244e-18)
(5.89025113655214 0.0286937083668617 0)
(5.98486250023039 0.0286937083668617 -7.23500292626492e-18)
(6.07947386390864 0.0286937083668618 0)
(6.17408522758688 0.0286937083668617 2.8701982698967e-16)
(6.26869659126514 0.0286937083668618 2.79519225242661e-16)
(6.36330795494339 0.0286937083668618 1.92754129768338e-19)
(6.45791931862164 0.0286937083668617 3.61750146313246e-18)
(6.55253068229989 0.0286937083668617 0)
(6.64714204597814 0.0286937083668617 -7.42775705603323e-18)
(6.74175340965639 0.0286937083668617 -7.42775705603318e-18)
(6.83636477333464 0.0286937083668617 -1.92754129768342e-19)
(6.9309761370129 0.0286937083668617 1.92754129768344e-19)
(7.02558750069115 0.0286937083668617 5.32987512981449e-18)
(7.1201988643694 0.0286937083668618 5.32987512981452e-18)
(7.21481022804765 0.0286937083668617 -1.90512779645041e-18)
(7.3094215917259 0.0286937083668617 5.5226292595828e-18)
(7.40403295540415 0.0286937083668617 0)
(7.4986443190824 0.0286937083668617 0)
(7.59325568276066 0.0286937083668617 5.52262925958276e-18)
(7.68786704643891 0.0286937083668617 5.52262925958282e-18)
(7.78247841011716 0.0286937083668618 0)
(7.87708977379541 0.0286937083668618 0)
(7.97170113747366 0.0286937083668617 5.52262925958278e-18)
(8.06629522994212 0.0294940561071961 0)
(8.16077503567949 0.0333256080087555 -1.92881343874758e-19)
(8.25496573638088 0.041606279112551 0)
(8.34866313853935 0.0542608483106306 0)
(8.44168167028116 0.0711505480946384 -5.68656091439803e-18)
(8.533859289313 0.0921094831953813 -3.59788813651663e-18)
(8.62505569471465 0.116950862573676 0)
(8.71515469769369 0.145473824421341 0)
(8.80407079810855 0.177454329077633 4.26872912499558e-18)
(8.89180918602647 0.212514317343278 -2.00111629192723e-18)
(8.97849244283215 0.25009294786504 -8.25904331487765e-18)
(9.06429764641758 0.289616572266984 2.32468522588982e-18)
(9.14942121556542 0.330574672762868 2.39224625123065e-18)
(9.23406888219199 0.372504432745023 0)
(9.31844349141683 0.414977818695388 2.14098982375813e-18)
(9.40268263475909 0.457715124134492 1.93994881350127e-19)
(9.48679129752184 0.500701289320099 -3.88088204387409e-19)
(9.57070322591045 0.544059899878272 -5.33107388685988e-18)
(9.65434959219649 0.587917316314986 2.66259480436258e-18)
(9.73766006023097 0.632393727403378 5.53455827819487e-18)
(9.82056591720585 0.677603551434158 0)
(9.9030606452105 0.723549196203503 6.21665428264637e-18)
(9.98539971972822 0.769781511824964 0)
(10.0680802309862 0.815424940176537 0)
(10.1516347899463 0.859473779964667 0)
(10.2366087290717 0.900759884112822 0)
(10.3235480444843 0.937773040596695 -1.06871828011802e-17)
(10.4128904971461 0.968526171827892 -1.52293948652957e-18)
(10.5046582135268 0.991029383104918 -7.22530297064441e-18)
(10.5981631405173 1.004970877663 1.93167376819952e-19)
(10.6924923901483 1.01198998742545 -3.61441860485381e-18)
(10.7870818415236 1.01419208178025 3.42436188142569e-18)
(10.8816943181609 1.01434685418343 0)
(0.0472977227685564 1.01878354885512 3.40065911178911e-18)
(0.141894314032393 1.01862487832544 0)
(0.236467691434788 1.01641771186786 1.65054462517423e-18)
(0.330780222450963 1.00940407290704 1.04665900508067e-17)
(0.424268685001765 0.995489550928129 -3.49059417559421e-18)
(0.516023789329206 0.97304809347747 5.15989285935214e-18)
(0.605362725635592 0.942400095974518 3.31094606230036e-18)
(0.69231109572298 0.905530121262802 0)
(0.777305157482264 0.864414241712766 4.63059520732473e-18)
(0.860888126365977 0.820554224637284 6.25199042471778e-18)
(0.943603632111219 0.775111436994131 1.09536023316107e-17)
(1.02598184091858 0.729086632484123 -2.90287215252003e-18)
(1.10851661751602 0.683350510036512 5.56117675461481e-18)
(1.19146113840223 0.63834772729144 0)
(1.27480816584943 0.594074564306729 7.70168205646083e-18)
(1.35848924629542 0.550417098138628 0)
(1.44243441780671 0.507255616977248 4.7890725554406e-18)
(1.52657511221246 0.464464339527852 -6.95971197629167e-18)
(1.61084555070523 0.421920342677541 0)
(1.69525108001305 0.379639779909975 2.37729800250542e-18)
(1.77992933338157 0.337902133517415 -8.8630468817859e-18)
(1.86508243670912 0.297133711937105 -4.10984609500893e-18)
(1.95091468629957 0.257795637277313 -1.79947831921673e-18)
(2.03762184339467 0.220396241772524 -2.12179713548338e-18)
(2.1253804176373 0.185506730691639 0)
(2.21431164219484 0.153685048856094 -7.46827428712619e-18)
(2.3044201278464 0.125306604537185 5.70494159323733e-18)
(2.39562055471802 0.100594112011722 -1.7353797291145e-18)
(2.48779717693964 0.0797474667747243 1.89674623235738e-18)
(2.58081046184359 0.0629525030984732 -3.55350871309707e-18)
(2.67449874330577 0.0503743033920132 -1.85627934530801e-18)
(2.76867700645458 0.0421508984548155 -5.34784605257426e-18)
(2.86314222235192 0.038355272939555 -1.65182448809508e-18)
(2.95772069326651 0.0375670977102484 0)
(3.05231613880362 0.0375670977102484 0)
(3.14691158434073 0.0375670977102485 1.84489351427814e-18)
(3.24150702987785 0.0375670977102485 7.18681966686288e-18)
(3.33610247541496 0.0375670977102484 -3.49703263830657e-18)
(3.43069792095208 0.0375670977102483 5.34192615258448e-18)
(3.52529336648919 0.0375670977102483 1.6521391240285e-18)
(3.6198888120263 0.0375670977102484 0)
(3.71448425756341 0.0375670977102484 6.99406527661318e-18)
(3.80907970310053 0.0375670977102485 0)
(3.90367514863764 0.0375670977102485 0)
(3.99827059417475 0.0375670977102484 -1.92754390249754e-19)
(4.09286603971187 0.0375670977102484 1.84489351427815e-18)
(4.18746148524898 0.0375670977102484 3.49703263830656e-18)
(4.28205693078609 0.0375670977102484 0)
(4.37665237632321 0.0375670977102484 0)
(4.47124782186032 0.0375670977102485 0)
(4.56584326739744 0.0375670977102484 6.99406527661281e-18)
(4.66043871293455 0.0375670977102484 2.77008852826638e-16)
(4.75503415847166 0.0375670977102484 2.77766562401437e-16)
(4.84962960400877 0.0375670977102484 -1.92754390249748e-19)
(4.94422504954588 0.0375670977102484 5.34192615258471e-18)
(5.038820495083 0.0375670977102484 1.84489351427816e-18)
(5.13341594062011 0.0375670977102484 7.18681966686293e-18)
(5.22801138615722 0.0375670977102484 0)
(5.32260683169433 0.0375670977102484 7.18681966686291e-18)
(5.41720227723145 0.0375670977102482 0)
(5.51179772276856 0.0375670977102482 1.92754390249753e-19)
(5.60639316830567 0.0375670977102484 0)
(5.70098861384279 0.0375670977102484 -6.99406527661315e-18)
(5.7955840593799 0.0375670977102484 0)
(5.89017950491701 0.0375670977102484 -1.04910979149197e-17)
(5.98477495045413 0.0375670977102484 0)
(6.07937039599124 0.0375670977102484 0)
(6.17396584152835 0.0375670977102484 -2.77008852826628e-16)
(6.26856128706546 0.0375670977102485 -2.83301242944268e-16)
(6.36315673260258 0.0375670977102483 0)
(6.45775217813969 0.0375670977102484 0)
(6.5523476236768 0.0375670977102484 -1.84489351427815e-18)
(6.64694306921391 0.0375670977102484 0)
(6.74153851475103 0.0375670977102483 0)