/*--------------------------------*- C++ -*----------------------------------*\
  =========                 |
  \\      /  F ield         | OpenFOAM: The Open Source CFD Toolbox
   \\    /   O peration     | Website:  https://openfoam.org
    \\  /    A nd           | Version:  7
     \\/     M anipulation  |
\*---------------------------------------------------------------------------*/
FoamFile
{
    version     2.0;
    format      ascii;
    class       volScalarField;
    location    "20000";
    object      Dk;
}
// * * * * * * * * * * * * * * * * * * * * * * * * * * * * * * * * * * * * * //

dimensions      [0 2 -3 0 0 0 0];

internalField   nonuniform List<scalar> 
15600
(
0.000859608732336102
0.000917316094555429
0.000730418037385248
0.000495365769216676
0.000266858413733962
0.000114401572410883
5.14412813643807e-05
3.92386641195193e-05
3.17294277279892e-05
2.16729008829567e-05
1.48262337706485e-05
1.11261809961764e-05
9.29396095906141e-06
8.40404704691966e-06
8.00844646221322e-06
7.90782913708539e-06
8.13253618645436e-06
8.73305629247977e-06
9.77045841335354e-06
1.12469779189884e-05
1.31784467553345e-05
1.56433455772862e-05
1.86780420875799e-05
2.2278746574006e-05
2.64290764791667e-05
3.12323149831775e-05
3.6893196003984e-05
4.33388390906267e-05
5.04379115170131e-05
5.80449890866237e-05
6.61552880162647e-05
7.5134633796963e-05
8.66668013112663e-05
0.000106941370710923
0.000131053012434631
0.00015353417565073
0.00017467948871256
0.000194779564091045
0.00021403241526066
0.000232556323086153
0.000250444380178573
0.000267785749725138
0.000284663800391528
0.00030110574330409
0.000316744836838631
0.000331341824265153
0.000344842120491972
0.00035719476659761
0.000368357914767212
0.000378302008602972
0.000387011150432002
0.000394484146575503
0.000400733815318378
0.000405785603928136
0.000409676295717996
0.000412451517457046
0.000414164091646326
0.000414872498551824
0.000414638419370296
0.000413526214477482
0.00041160084653084
0.000408928763693852
0.000405574549601528
0.000401604797773821
0.000397078135984747
0.000392049391395352
0.000386547306662255
0.000380595669668334
0.000374234523961341
0.000367510173395189
0.000360481943765377
0.000353193294514321
0.000345675288119779
0.000337932159657983
0.000329960787157007
0.000321789415015578
0.000313370960433814
0.000304763655228631
0.00029588847307966
0.000286706309980586
0.000277163969256899
0.000267091870952279
0.0002563758679768
0.000244639806770972
0.00023160654922911
0.000216372988158381
0.000198794889976009
0.000186637713078574
0.000201746114353379
0.000221920918831635
0.000247317718948632
0.000275255713063837
0.000307264150257309
0.000343918454559884
0.000386704845057033
0.000439579481492153
0.000498291413830696
0.000557601958454695
0.000615431853596507
0.000668668259360115
0.000713976635648977
0.00074314687618415
0.000761461201031242
0.000783956668634605
0.000814401279395156
0.000856112170923063
0.00091799125878051
0.00101422616979199
0.0011687751748137
0.00133613124730778
0.00151519966643323
0.00170444753564464
0.00188005664443082
0.00195326805399103
0.00174344343450206
0.00143460199711835
0.00114044386946924
0.000920919526770286
0.000772142454838475
0.000790786916278247
0.00469340094624645
0.00499925896653711
0.00401712104864251
0.00273252865243183
0.00147466992399434
0.00063389654493637
0.000284307265279367
0.000215043086646654
0.00017417833899092
0.000119441725528883
8.17514049337272e-05
6.12496893692249e-05
5.10547231879425e-05
4.60901533975355e-05
4.38643530380891e-05
4.32656781901801e-05
4.44419055793031e-05
4.76674541085869e-05
5.32816319654082e-05
6.13070671974782e-05
7.18312365073889e-05
8.52853809563878e-05
0.000101882494361993
0.000121615633160773
0.000144403596575033
0.000170808341568689
0.000201945807250866
0.000237442111892133
0.000276578077294517
0.000318563571305638
0.000363363994358971
0.000413170061049608
0.000478008079192269
0.000589755649703419
0.000721466660069993
0.000844390710643156
0.000960003140392093
0.00106983691524778
0.0011749606097776
0.0012760034978497
0.00137346242364197
0.00146781667081037
0.00155952150096264
0.00164866078232541
0.00173248970066471
0.00181051371802715
0.00188246314494055
0.00194809159625375
0.00200720446725845
0.00205967431999566
0.0021054470702597
0.00214454601034103
0.00217706711877156
0.00220317113066487
0.00222307582254777
0.00223704280721944
0.00224536875538151
0.00224837692937003
0.00224640482746717
0.00223980112143734
0.0022289156472063
0.00221410310749341
0.00219570760842881
0.00217408006659308
0.0021495303451081
0.00212234340152874
0.0020926695039954
0.00206063425605677
0.00202644660461622
0.00199034750158584
0.00195264664896912
0.00191356795993215
0.00187327122346036
0.00183177722689801
0.00178906305603162
0.0017452804126796
0.00170016545854167
0.00165403460736705
0.00160645179710582
0.00155721951417941
0.00150603569311702
0.00145202188445712
0.00139452579686087
0.00133161741721272
0.0012617042908658
0.00118012871696247
0.00108558306909594
0.00102086333316269
0.0011012833209544
0.0012100417276573
0.00134632860289302
0.00149703504520931
0.00166971380496571
0.0018676233472643
0.00209877938614276
0.00238297802059843
0.00269845689015336
0.0030183106734504
0.00333127532262387
0.00362116045000427
0.00387005263712288
0.00403647559560868
0.00414625262945218
0.00427578744709808
0.00444728651811162
0.00467964084784536
0.00502012309438781
0.00554462980202911
0.00637454575528522
0.00728496984728429
0.00826178167263706
0.00929506487991891
0.0102596209893647
0.0107027757767692
0.00964807398699843
0.00798809713100967
0.00634904298650739
0.00510616664704084
0.00426456747208595
0.00433508396696919
0.0114943904772056
0.0121282041083347
0.0100017633770905
0.00689672169304442
0.0037150014445226
0.00158397125471597
0.000697117203936592
0.000518969984978832
0.000420587864881976
0.000289721963105333
0.000198662284953525
0.000148801738487017
0.000123888801184269
0.00011170351511078
0.000106176419422676
0.000104621347541976
0.000107356532433209
0.000115048042347243
0.000128521174370966
0.000147860718452762
0.000173299898750848
0.00020587940934512
0.000246130841005111
0.000294060359288791
0.000349546105232156
0.000413990394547433
0.000489912952468623
0.000576391997972669
0.000671703030457637
0.000774101682471843
0.000883925388900666
0.00100842583312374
0.00117492056858298
0.00144330060816703
0.00174836935221675
0.00203131690343337
0.00229554348967643
0.00254457402388143
0.00278108471266462
0.00300661746453069
0.00322241939459618
0.00342971662324209
0.00362979656985872
0.00381782805691134
0.00399223329898014
0.00415296626224163
0.00429975112404865
0.00443236362984597
0.00455067946134606
0.00465469659393463
0.00474454197579478
0.00482047288671798
0.00488286422471876
0.00493219171953809
0.0049690151649023
0.00499395471518792
0.00500767565560593
0.0050108726443149
0.00500425016233305
0.00498851711634312
0.00496437252208843
0.00493251025517324
0.00489359859652194
0.00484830322567616
0.00479721412813742
0.00474085423026121
0.00467949664678797
0.00461337098232959
0.00454285917665853
0.00446840069952869
0.00439057963561869
0.00430979756856791
0.00422634368289727
0.00414024137361049
0.00405139463450728
0.00396011855873496
0.00386576770414468
0.00376903261621738
0.00366890176795829
0.0035650084033255
0.00345662063558634
0.00334202827888202
0.00321961734544886
0.00308558172562782
0.00293604316899883
0.00276181105792224
0.00255447412677757
0.00241200215242108
0.00257255916407574
0.00280537712296529
0.00309770287731987
0.00342651663608906
0.00380473387811392
0.00423998179544223
0.00474884759156372
0.00536751533455181
0.00605886344935092
0.00677251069156082
0.00748353896985831
0.00816010238586408
0.00876572004309171
0.00922300959263199
0.00956774090221382
0.00993865403097812
0.0103939585489533
0.0109806860245772
0.0117980236146146
0.0130037390461262
0.0148370940025583
0.0169119303925637
0.0191590933683458
0.0215445507036314
0.0238133346851292
0.0251424462926404
0.023513620813458
0.0201684181276631
0.0164079302172436
0.013235040326594
0.0109516202022166
0.01086423412734
0.0205680733134747
0.0210102140205555
0.0179559932978418
0.0129948166041992
0.00714775390286533
0.00298802423688873
0.00124586248814509
0.000896482311941183
0.00072455049495145
0.0005017544631447
0.000345257245917107
0.000258926136571755
0.000215575130764709
0.000194216841876813
0.000184401739638345
0.000181551164169241
0.000186161009528981
0.000199392061065539
0.000222635044212985
0.000256062136320791
0.000300099322677762
0.000356409500298689
0.000425725589408401
0.000507877016054525
0.00060261988613188
0.000712009728773407
0.000839087190205416
0.00098173531162188
0.00113706738425754
0.00130314141452881
0.00148279320911048
0.00169127105221811
0.00196733102922421
0.00235461096040992
0.00276339478012935
0.00313626102983641
0.00347660372773131
0.00379113513836976
0.00408466863632343
0.0043601007828505
0.00461977021026562
0.00486602347695113
0.00509520039189848
0.00530526471519123
0.00549816186954256
0.00567420372398548
0.00583361600773499
0.0059766259254298
0.00610350634343227
0.00621459785141801
0.00631031761028236
0.00639116083990454
0.00645769203681653
0.00651053330439009
0.00655035122082687
0.00657784051334999
0.00659371418856723
0.00659869097067521
0.00659348297237997
0.00657879133444146
0.00655529834368133
0.006523668498173
0.00648453962630328
0.00643853153900264
0.00638620135090769
0.00632802278954389
0.00626424788176103
0.00619508793836511
0.00612088601367907
0.00604203109001208
0.0059590821602547
0.00587238565628189
0.00578220875611993
0.00568856105327044
0.00559125801954127
0.00549067396280328
0.0053858915964699
0.00527779065433719
0.00516530076825159
0.0050477135856255
0.00492403340576003
0.0047926197137389
0.0046513217206649
0.00449634707056502
0.0043224407135604
0.00412015922167295
0.00387050261318311
0.00369383586653614
0.00384820688047345
0.00411965741107438
0.0044724336707358
0.00488428322950183
0.00536532430149949
0.00592529058294699
0.00658282880572656
0.00737021966146102
0.00825928589570655
0.00920389424548892
0.0101746605252461
0.0111393194681218
0.012059753545523
0.0128690430475613
0.0135866858253989
0.0143312072261762
0.015180347827505
0.0162017592492924
0.0175099610633657
0.0192819181283877
0.0217423452612821
0.0245735885234388
0.0276327840078155
0.0308321620095309
0.0338454930939652
0.0359092427247228
0.0352096800727275
0.0324328641749248
0.0285587234128958
0.0244744045877654
0.0209010342019253
0.0202777505471036
0.0293649574388118
0.0286328911191486
0.0252888854305782
0.0200695053342015
0.012129992554553
0.00517009958951881
0.00197326409807415
0.00132043152398526
0.00105506898068965
0.000735530731887354
0.000509208642879217
0.000383135228381891
0.000319432368023357
0.000287637172140407
0.000272806059541128
0.000268368987889354
0.000274953640771462
0.000294201268722052
0.000327909426814644
0.000376157403402982
0.000439275459385696
0.000518839313366372
0.000614818769263116
0.000725894670645903
0.000850877360046761
0.00099099219156579
0.00114753397363541
0.00131725835612856
0.00149776717371862
0.00168990533302219
0.00190152869822949
0.00215193035522085
0.00246922741772999
0.0028372682557264
0.00320154325691539
0.00353830857005093
0.00384195590561536
0.00412147871192399
0.00438102320319215
0.00462357219103501
0.00485131673127715
0.00506404341498726
0.00525856240845982
0.00543747941361577
0.00560161774196119
0.00575133508338424
0.00588693179191052
0.00600869647511773
0.0061169368991982
0.00621199881268877
0.00629427495586012
0.00636420623324845
0.00642227742062768
0.00646901004310385
0.00650495290617968
0.006530672348327
0.00654674550700646
0.00655375033925076
0.00655225857923031
0.00654283063196344
0.00652601147995717
0.00650232713649853
0.00647228357178036
0.00643636289739312
0.00639500980097745
0.00634859662760677
0.00629735364749581
0.00624147952888617
0.00618125122857365
0.0061169650231966
0.0060490683101206
0.00597781334774027
0.00590342849039652
0.00582596016285621
0.00574522960708497
0.00566174109426985
0.00557488313618292
0.00548476070995411
0.00539085976391307
0.00529268860977504
0.00518943549255038
0.00508006868288428
0.00496284365247667
0.00483550768900547
0.00469384063342422
0.0045320535721767
0.00433441858616839
0.00419027730172816
0.00426703848475904
0.00447534965983312
0.00477042010238506
0.00513476626794586
0.00557114627813958
0.00608676717573237
0.00669571212273505
0.00741507207298749
0.00823152666506871
0.00911727604486284
0.0100485000580155
0.0110031341675361
0.0119542803485755
0.0128729567159835
0.0137732991508056
0.0147176851068501
0.0157700644663217
0.0169961860543419
0.0184796297852383
0.0203524688344114
0.0226862274829757
0.0253518504067723
0.0281947076277849
0.0310857466945941
0.0337339946384111
0.0356454317528517
0.0361057148957708
0.0357248455057078
0.0347273213615296
0.0328980160435022
0.0305456314020972
0.0298912680989628
0.0338822482217881
0.0319549248351273
0.028832058985349
0.0252799566994208
0.0178793688882982
0.00849674817620425
0.00305670893378183
0.00177946370059597
0.00137875540651297
0.000968214846154759
0.000676593242627398
0.000512008620970583
0.000427979739646414
0.00038517312248315
0.000364742610846027
0.000358263945704332
0.000366283467784539
0.000390621141260654
0.000432890903865743
0.000492484023597887
0.000568784880278763
0.000661870126219111
0.000769773763909875
0.000889623905691722
0.00101960004411563
0.00116014763293833
0.00131136448788149
0.00147203348007816
0.00164303059476905
0.0018293622043515
0.00204199847720315
0.00229726140700434
0.00260382646219107
0.0029041668975795
0.00320065229672708
0.00348444889471209
0.00374071927906688
0.00397890355267845
0.00420078644526722
0.00440881456532749
0.00460414982306458
0.00478398262237978
0.00494979768393787
0.00510273159771434
0.00524323488143112
0.00537157023269603
0.00548797171461513
0.00559267253739811
0.00568592443627635
0.00576801210512928
0.00583925987993387
0.00590003160427807
0.00595072769559752
0.00599177939608512
0.00602364092696047
0.00604678232760825
0.00606168379574395
0.00606882700212927
0.0060686900125897
0.00606174185493082
0.00604843941183247
0.00602922221989927
0.00600451350340679
0.00597471281513304
0.00594019641565474
0.00590128259111128
0.00585819572135369
0.0058111333909025
0.00576033936627331
0.00570605979701122
0.00564867579619982
0.00558839094773728
0.00552541871343506
0.0054598426881551
0.00539186966976183
0.00532144748244356
0.00524830195272
0.00517247713913174
0.00509367554770494
0.00501161326663782
0.00492572680333787
0.00483545262450603
0.00473959051305744
0.00463704396119994
0.00452504027988464
0.00440051429384093
0.00425640396430427
0.00415065787396387
0.00417103381835681
0.00431299129166053
0.00453835950147003
0.00483247953230208
0.00519318218253319
0.00562424610507698
0.00613501319840686
0.00673218340827033
0.00740901820273988
0.00814909433974112
0.0089338891628055
0.00974820501149289
0.0105728211879333
0.0114000660750037
0.0122460428446524
0.0131408705806452
0.0141281519257861
0.0152629926344391
0.0165959963148057
0.0182217331388669
0.0200979976357965
0.0222021508877359
0.0244258657623467
0.0266357927195526
0.0286356206156703
0.0300860903839297
0.0307979257798274
0.031701843479221
0.033035612767589
0.0339844180530726
0.0345007141130535
0.0346589824865963
0.0336670154120977
0.0314206498559185
0.0287724017408818
0.027070933643604
0.0227145230672285
0.0128061121792099
0.00478782966216964
0.00229567138226375
0.00166363998111415
0.00117131997108986
0.000827713315043714
0.000631148242372396
0.000528962854713293
0.000475691997798436
0.00044926888775407
0.0004400012855781
0.000447910368449618
0.000474420994218725
0.000520184838631872
0.00058342565887481
0.000662169453542021
0.000754697709336871
0.000857951953939868
0.000969284664087377
0.00108799179158622
0.00121483179045608
0.00135010045943172
0.00149541893868513
0.00165392622493886
0.00183232048080626
0.00204087955398356
0.00228977826142
0.00257286571197103
0.00282301901157943
0.00307776332506077
0.00332567115076796
0.00355038862916994
0.00376096443117208
0.00395760784775337
0.00414250411031287
0.00431490280650292
0.00447398260048379
0.00462114409356482
0.00475704946112927
0.00488199317290405
0.00499618217454143
0.00509980743824097
0.00519306523644343
0.00527617029720744
0.00534936777956435
0.00541293849915495
0.00546719831818181
0.00551249585699977
0.005549207425808
0.00557773026682718
0.00559847649743958
0.00561186815562859
0.00561832935696907
0.00561828198031973
0.00561214038507247
0.00560030841901162
0.00558317399329812
0.00556111024001838
0.00553446826163996
0.00550358311160004
0.00546874370714344
0.00543017030686863
0.00538805821588774
0.00534263166922427
0.00529410663481127
0.00524282452555695
0.00518896056514468
0.00513274426128269
0.00507446990336934
0.00501406135483039
0.00495151810210806
0.0048866967722019
0.00481964024850152
0.00475016883533821
0.00467812379134822
0.00460312048616661
0.00452485980631098
0.00444253345542401
0.00435566847830999
0.00426253757819098
0.00416145525588866
0.00405169969202039
0.00397270197684457
0.00396555339808764
0.00406247722246287
0.00423638550262434
0.00447483512997501
0.00477344910799846
0.00513356229999156
0.0055612482272996
0.00605775775364428
0.00661839664272436
0.00723235243482729
0.0078847347393588
0.00856396581217831
0.00925497906692056
0.00995795484738378
0.010689779728223
0.0114664607370673
0.0123161193434327
0.0132829416872203
0.0143962747825549
0.0157294538680778
0.0171992620013601
0.0188126476370186
0.0205119075210898
0.0221721638181928
0.0236859259616255
0.0247664939460192
0.0254147678681662
0.0263972283913766
0.0283722828476088
0.0303665532594674
0.0329221725654151
0.0339913057025022
0.0306986152252843
0.0287697137224855
0.0268146476548504
0.026061999576014
0.0255265588811797
0.017392803316041
0.00735634867689238
0.00296714185493597
0.00190858160785269
0.00132604557110569
0.000944407642394648
0.000725130688408562
0.000608634427342168
0.000546567339851336
0.000514379126395576
0.000501863591646901
0.000508037419413948
0.000533498335735044
0.000577678127325258
0.000637985815184384
0.00071172965209262
0.000796392982421915
0.000889301566017811
0.000989060925540594
0.00109612920131473
0.0012113579371521
0.00133534392172141
0.00147130687516997
0.00162302558445598
0.00179710294073003
0.00200158019598222
0.00224102282873386
0.00250127396311984
0.00272134398601488
0.00295223578315246
0.00317665314321832
0.00338100053726906
0.00357330739383398
0.00375306966851781
0.00392219379672009
0.00407901464555544
0.00422425578448533
0.00435879276685
0.00448307761725652
0.00459733499593915
0.00470174456907541
0.00479647467800607
0.00488170117697151
0.00495761744934273
0.00502444507276703
0.00508243834218141
0.0051318836527572
0.00517309761068839
0.00520642243651246
0.00523222000929076
0.00525086628476715
0.00526274694312948
0.00526825008193015
0.00526776220542798
0.00526166323436051
0.00525032336865594
0.00523409786891336
0.00521332779909245
0.00518833388274358
0.00515942487350593
0.00512687263264356
0.00509089409757774
0.00505168180135447
0.00500944741260319
0.00496438647272169
0.00491681491536248
0.00486690004408393
0.00481502250205867
0.00476126597078195
0.00470559401364862
0.00464803107603132
0.00458850268960137
0.00452705807798553
0.00446359129261732
0.00439801965779177
0.00433008235000211
0.0042596331699318
0.00418613388645011
0.00410945181855608
0.00402856731690507
0.00394252202594185
0.00385446773822472
0.00379329811041049
0.0037740951013093
0.00384175421448564
0.00397939789754867
0.00417679465619474
0.00442884945713395
0.00473537926565425
0.00510028354113208
0.00552201210883064
0.00599634043614544
0.00651530030412263
0.00706655437132555
0.00764065275339516
0.00822519756942642
0.00882292490510482
0.0094502784498034
0.0101173186619406
0.0108422221532847
0.0116604047051574
0.0125890962190231
0.013687968499992
0.0148694244453304
0.0161405125213201
0.0174794937273749
0.0187696038100009
0.019967231341686
0.0207973241822091
0.021357858549066
0.0220799174745669
0.0239412024445624
0.0257709030556247
0.0289681385746829
0.0304223508580834
0.0268822412532109
0.0254122244914404
0.0242124420728229
0.0235951160657576
0.0261558336177594
0.0214463599600342
0.0107101384043488
0.00394424241027942
0.00216165298307281
0.00144167890611034
0.0010240793894123
0.000788131597348623
0.000660811076872009
0.000592189594738648
0.00055541470673688
0.000540215515113262
0.000544313981655139
0.000567407392376449
0.000608001872405233
0.000663336870210369
0.000730666682552533
0.000807412205540939
0.000891701286885449
0.000983104804783847
0.00108256861860979
0.00119079802223214
0.00130865529702558
0.00143999890315718
0.00158852067026574
0.00176006418780357
0.00196029213360391
0.00218969354385527
0.00243096845207155
0.00263360473095543
0.0028497615026106
0.0030581272067589
0.0032487966155757
0.00342850201473742
0.00359654804194459
0.00375431364523535
0.00390044911710614
0.00403601616492739
0.00416164316563958
0.00427767362891983
0.00438429842712595
0.00448168280541946
0.004569982447556
0.00464936103477505
0.00471999875724238
0.00478210219770583
0.0048359085725718
0.00488168527745477
0.00491972824452149
0.00495035769098944
0.00497391275176043
0.00499074602871275
0.00500121978458179
0.0050056989294299
0.0050045471010733
0.0049981219738747
0.00498677188957898
0.00497083092891893
0.00495061913021983
0.00492643758518394
0.00489857795425344
0.00486730227853889
0.00483282535374866
0.0047953375217818
0.00475504246953083
0.00471212100085076
0.00466687238850374
0.00461957450272639
0.00457047769741477
0.00451964034386021
0.00446706229125281
0.00441278299556941
0.00435677102229012
0.00429908272465076
0.00423966267066269
0.0041784778838083
0.0041153564152463
0.00405024744475326
0.00398280506610223
0.00391309590483881
0.00384058780630961
0.00376476770748933
0.00369104752740092
0.00364194079398099
0.00361811301513328
0.00366640700408606
0.00377797953243706
0.00394477317641255
0.00416171750125618
0.00442773272171598
0.00474522554098371
0.00511118445868082
0.00552135596867402
0.00596928565774761
0.00644450170506664
0.00693897388782196
0.00744230076138544
0.00795792665341689
0.00850132965217711
0.00908006789254703
0.00970622581916489
0.0104085503755833
0.01119760225117
0.0121227935837735
0.013105315249946
0.0141449913228251
0.0152423075991117
0.0162865678022366
0.0172757958477993
0.0179356274735301
0.0184273754116907
0.0188898516172036
0.0204715103706547
0.0218144244726946
0.0248511959102637
0.0262567887529225
0.0232788006574651
0.0221757362071065
0.0215827471833696
0.0207935954973927
0.025011382403967
0.0243716234856217
0.0145200661703105
0.00538827261687712
0.00249272353215309
0.00155070664871576
0.00108204621625915
0.000828174486443623
0.00069123600563559
0.000617621640760654
0.000577688468628392
0.000560907096258638
0.000563597155550658
0.00058463649740772
0.000621964218971951
0.000672987374919839
0.000735158834362965
0.000806102315620175
0.000884622770741349
0.00097081654379248
0.00106574317844104
0.00116999942358433
0.00128469997867859
0.00141382523948435
0.00156072493229072
0.00173029838724363
0.00192615445076553
0.00214613481818842
0.00237260736479204
0.00256522601260934
0.00277156094738859
0.00296869748016608
0.00314996246891409
0.00332079565763224
0.00348060515173994
0.00363013971039116
0.00376874615798472
0.00389742337966394
0.00401665983270399
0.00412673726465853
0.00422782895871578
0.0043200916794349
0.00440367343578665
0.0044787300119215
0.00454543292021941
0.00460397875731396
0.00465459340405738
0.00469753178062456
0.00473307634095363
0.00476153306925547
0.00478322654283419
0.00479849438406288
0.00480768397272492
0.00481114552929097
0.00480922817213793
0.004802275492888
0.00479062192080999
0.00477458805808007
0.00475448038941619
0.0047305874809517
0.00470319018314176
0.00467254555939298
0.00463886760793342
0.0046023455061828
0.00456317837678313
0.00452153583682703
0.00447777386612014
0.00443214488151402
0.00438481551990175
0.00433586275957007
0.00428531034031739
0.00423320827918819
0.00417955499320241
0.00412441391659026
0.00406776651634357
0.00400961464190778
0.00394985268500197
0.00388849373871081
0.00382533383775778
0.00376056490556863
0.00369399836750474
0.00362543906866165
0.0035615675055582
0.00352070841825813
0.00349579291958048
0.00353098357166084
0.00362331482688663
0.00376675345162679
0.00395661799771082
0.00419132897760206
0.00447223130950399
0.00479555362101612
0.0051568764861553
0.00555057317846242
0.0059675736652043
0.00640088590167996
0.00684172398893698
0.00729361152352158
0.00777089454345715
0.00828008206634882
0.00882956237686976
0.0094430049434424
0.0101273651102205
0.0109237781915763
0.0117656371246229
0.0126454347524781
0.0135762771493679
0.0144522012649022
0.0152967126102231
0.0158361368455728
0.0162721133319268
0.0165407042074712
0.017849684114304
0.0187560971620894
0.021357118494036
0.0225542929868294
0.0202348183915876
0.0194044598936085
0.019160579532001
0.0183028914249775
0.0227020512332535
0.0258020091471995
0.0183338197953003
0.00737753489336283
0.00298585804588288
0.00169043568718315
0.00113951014705416
0.000859198075707751
0.000711304451720798
0.000632701365548961
0.00059027007392063
0.000572561006221303
0.000574457246192112
0.000594068260453395
0.000628970038908899
0.000676792307477917
0.000735228441271978
0.000802180333264838
0.000876941140391205
0.000959870295159989
0.00105202035806693
0.00115397522985222
0.00126705664845498
0.00139509876297435
0.00154103294515051
0.00170881953078001
0.00190044697924885
0.00211220073181994
0.00232755241612522
0.00251461946129308
0.00271417478472276
0.00290349516471414
0.00307832444174636
0.00324295616079714
0.00339700779332703
0.00354068317941081
0.00367401098985712
0.00379781991066377
0.00391251190165662
0.00401833100247265
0.00411544077438983
0.00420399257222548
0.00428412950662509
0.00435600196476963
0.0044197756140477
0.00447564036083453
0.00452381466060046
0.00456454548391121
0.00459810686421181
0.00462479606206222
0.0046449289443591
0.00465883415821225
0.00466685036310251
0.0046693192423039
0.00466658146688245
0.00465897249989987
0.0046468186736665
0.00463043273080486
0.00461011306800717
0.00458614082777952
0.00455879067531227
0.00452831826643092
0.00449493815714776
0.00445883953242941
0.00442021968934159
0.00437926984560558
0.00433638183984323
0.00429171639317266
0.0042454360546092
0.0041976306709329
0.00414834129099717
0.0040976263093914
0.00404550641927486
0.00399205208501066
0.00393727307812785
0.00388119714073991
0.00382376980401169
0.00376504967616599
0.00370494058582944
0.00364371825103594
0.00358144036954939
0.00351816486065946
0.00346123723580772
0.00342598967650541
0.00340161512170719
0.00342778262319911
0.00350559121125913
0.00363080604605506
0.00379930245602657
0.00400925485061327
0.00426123227913346
0.00455108641075822
0.00487421749162416
0.00522545188214241
0.00559679761956261
0.00598207526464635
0.00637385874608788
0.00677555235385622
0.00720035378194989
0.00765432732558056
0.00814362092780152
0.00868798202918574
0.00929247220377111
0.00999141858898259
0.0107302842754373
0.0114959433447984
0.0123078054836731
0.0130639480832182
0.0138021971674471
0.0142527892978354
0.0146390691946253
0.0147733233787259
0.0158478332998933
0.0164415690858228
0.0185723878426831
0.019557964834539
0.0177609624776349
0.0171608912221082
0.0170091119843362
0.0163495308210191
0.0198239314409352
0.0258145619214958
0.0214181835698267
0.00994169200385655
0.00373271533880975
0.00189467582029547
0.00121432530334251
0.000894071071070075
0.000730931972904327
0.000645759312403729
0.000600398899288211
0.000581628140606629
0.000582835731331053
0.000601338005907603
0.000634407464762397
0.000679825774255753
0.00073550232105809
0.000799623364727159
0.000871821596734987
0.000952587709813449
0.00104294525358495
0.00114353122246852
0.00125580881193595
0.00138333205548658
0.00152861049726493
0.0016947525848815
0.00188254329292579
0.00208747930043252
0.00229476163350027
0.00247911717251364
0.00267405617376805
0.00285813951018129
0.00302875080795249
0.00318922924952863
0.00333934691242494
0.0034791042448397
0.00360887483855821
0.00372937827844454
0.00384096115146249
0.00394384309080236
0.00403818201376908
0.0041241256713947
0.00420181401625403
0.00427139369219166
0.00433302652483671
0.00438689814736248
0.00443322252603603
0.00447224212218923
0.0045042264238069
0.00452946820770835
0.0045482791570721
0.00456098358943405
0.00456791624228405
0.00456941505660233
0.00456581699922581
0.00455745406497709
0.00454464904559287
0.00452771121210547
0.00450693514018509
0.00448259846186349
0.00445497327778414
0.00442431668100994
0.00439084509352204
0.00435474891215209
0.00431623019316887
0.00427555396411134
0.00423301738423834
0.00418877723788866
0.00414299515661026
0.00409577084972617
0.00404715883147438
0.00399722476393315
0.00394600692589171
0.00389358285404243
0.00383998491116121
0.0037852610667462
0.00372939730592739
0.00367248635341207
0.00361451571317618
0.00355582016667881
0.00349663580107215
0.00343723386273052
0.00338513823274821
0.00335369825383969
0.0033305508656157
0.00335042321538912
0.0034170721389165
0.00352779994226055
0.00367909832982869
0.00386905725250398
0.00409766824829685
0.00436062150578877
0.00465316217971956
0.00497035867756549
0.00530506754202164
0.00565178176337143
0.0060042464385172
0.00636570046283698
0.0067482357661074
0.00715770491033221
0.00759890139413131
0.00808849909062659
0.00863062583837432
0.00925402580903113
0.00991496755983135
0.0105965235989302
0.0113202623422362
0.0119879461863502
0.0126441297738351
0.0130265609721169
0.0133659005556363
0.0134089918021344
0.0142855943595478
0.0146724881813833
0.0163802831148021
0.0171977398022914
0.0157644062382124
0.0153780030527076
0.0151326666713318
0.014904574254869
0.0168790544357844
0.0247224555712635
0.0235760891026152
0.0129841231386715
0.00484258993654399
0.00220250683745132
0.00132152860443858
0.0009420234934777
0.000756798745563102
0.000662132947519804
0.000612467342190093
0.000591831347576522
0.000591973107116231
0.000609322021329033
0.000640814459768215
0.000684271458630628
0.00073777062883604
0.000799755188956664
0.000870088514277733
0.000949327324609372
0.00103847226999628
0.00113824434635712
0.00125018333263471
0.00137750530195533
0.0015223277078317