/*--------------------------------*- C++ -*----------------------------------*\
  =========                 |
  \\      /  F ield         | OpenFOAM: The Open Source CFD Toolbox
   \\    /   O peration     | Website:  https://openfoam.org
    \\  /    A nd           | Version:  7
     \\/     M anipulation  |
\*---------------------------------------------------------------------------*/
FoamFile
{
    version     2.0;
    format      ascii;
    class       volTensorField;
    location    "20000";
    object      gradU;
}
// * * * * * * * * * * * * * * * * * * * * * * * * * * * * * * * * * * * * * //

dimensions      [0 0 -1 0 0 0 0];

internalField   nonuniform List<tensor> 
15600
(
(0.0577958494394253 -0.0008850681021125 1.07040819965924e-20 19.4443089199893 -0.0454519349201645 -6.77995785743374e-23 -8.86368328726131e-22 2.84064965556925e-24 -2.26605922370217e-41)
(0.108550938465608 -0.00994849844676897 -1.07862124211012e-19 22.2908055205724 -0.13746351034481 -1.06298923044789e-19 -9.98400811967986e-19 6.19079944506951e-21 5.15575254762632e-39)
(0.872140251179374 -0.0516401413975102 4.58910030095887e-19 21.9205824546839 -0.860555666555256 -2.66663821760348e-18 1.57120800136115e-17 -6.16678434282257e-19 -1.91574671800197e-36)
(1.35013666198649 -0.143042801080674 -5.24199292288427e-19 14.4823256682731 -1.36698466434944 -5.91984758507802e-18 1.32850360196235e-21 -1.7790804484672e-22 4.90920774383645e-39)
(0.620372631516432 -0.0979139093238788 -1.77104481239852e-17 4.19754466794963 -0.663532058428049 -8.75613309009712e-17 -1.32966095079593e-21 1.78063032509444e-22 -4.91348448486128e-39)
(-1.36715336629596 0.43121688129117 9.80879179514305e-18 -4.16812897144707 1.30325400577059 -9.09265498479542e-19 2.49455265288662e-17 -7.79944133469393e-18 6.13582566958458e-36)
(-2.49212885253689 0.98043529539894 2.11305536757392e-16 -6.27596255758769 2.43795587292105 5.33741719203502e-16 -1.16119356724451e-21 2.73382560233177e-22 8.20262878922163e-38)
(-2.46182334371626 1.13383255569436 -2.30187662987512e-17 -5.31606725078579 2.42712044211566 -2.16200963204383e-19 -1.21885867509394e-21 4.92387032591383e-22 7.86564641250496e-38)
(-2.29041910573252 1.16495211566711 2.41479174474435e-16 -4.46067347277888 2.25756866430259 4.68074117479535e-16 -2.87803230347279e-17 1.45656733679232e-17 3.01893558899464e-33)
(-1.98019931089072 1.07222732316164 -2.19010076972096e-16 -3.62472220049596 1.9566192504048 -3.66184688980293e-16 5.27048872754138e-23 -2.69261221610578e-23 5.67607761238377e-39)
(-1.71819343152035 0.961041611868669 -7.78128597871871e-17 -3.04392260662978 1.70016258472352 -1.34498603280067e-16 -2.00548858128038e-17 1.12015676160838e-17 -8.8704072237174e-34)
(-1.49939401263155 0.843542036986539 -4.75964587161331e-18 -2.6424468871893 1.48672650027264 1.50926919743102e-19 -1.17644038104146e-21 6.49324989109289e-22 -3.90860844505539e-37)
(-1.33575573221251 0.738452742432842 -8.03539087161613e-17 -2.39609915270282 1.32596556240765 -1.40678771256926e-16 -1.57234105769737e-17 8.70099471563177e-18 -9.2372979147819e-34)
(-1.21944177909862 0.660741143063847 3.28611829567403e-17 -2.23496433901079 1.21235043906671 -1.00915937740077e-18 -1.88093594178887e-21 1.01842688129602e-21 -8.17291772294397e-37)
(-1.13974939953061 0.60641022712121 -3.90383305339204e-17 -2.12891983617548 1.13381835050236 1.22137226984872e-18 -3.46605846939979e-21 1.81633362789232e-21 -1.8128958835564e-36)
(-1.07842898772221 0.565704025247286 -8.07869476450017e-17 -2.0460961536186 1.07413754051444 -1.50209977591683e-16 -1.32461609515872e-17 6.95372079262326e-18 -9.7213178020714e-34)
(-1.04476030739982 0.542396893993259 3.80328584932355e-17 -2.00506664911929 1.04153000218036 -1.32593838715889e-18 1.29482347832859e-17 -6.72586567356556e-18 -9.36666794963584e-37)
(-1.03848138866277 0.53582753020579 1.03140243635037e-21 -2.00786188854293 1.03638259860251 -4.36102674422304e-23 0 0 0)
(-1.0596307911924 0.544719202282816 -2.25149679165096e-17 -2.05731174493134 1.0581254637599 1.09274347042483e-18 0 0 0)
(-1.09115868439483 0.555824957312626 2.11264502934017e-17 -2.1374053626805 1.09011423852329 1.37807794216763e-16 -1.37326984014505e-17 7.00369558426061e-18 8.69132857025741e-34)
(-1.12578659507791 0.56110401433019 1.54144678271874e-16 -2.25226101774471 1.12524541603238 2.69380429905407e-16 -1.44135579528384e-17 7.20057451315254e-18 1.72468325929189e-33)
(-1.16020684444196 0.557728632555294 4.5314924078012e-17 -2.40376662757219 1.15996545466903 -2.87850539882824e-18 -6.97255539921558e-22 1.74750094229518e-22 3.592960643218e-36)
(-1.18449975467178 0.540192740574493 5.30570096118836e-19 -2.58267615681517 1.18451137116183 1.16761444080504e-18 7.68297311794985e-21 -3.58404216990296e-21 -1.7838141499997e-39)
(-1.18691273779603 0.503546210979137 -2.19041984059079e-19 -2.77576456036106 1.18720544402028 -4.60988716667386e-19 1.72722500377075e-17 -7.38596634954827e-18 2.87601657783524e-36)
(-1.16044881151486 0.447288459344936 -2.02475500251886e-16 -2.97841410582344 1.16126400414255 -4.54710615892896e-16 0 0 0)
(-1.11222392823041 0.380116226456242 -2.17516642566083e-15 -3.20880653279635 1.11395966296434 2.65084036280649e-16 0 0 0)
(-1.0468280959357 0.310291290990415 1.0318731111152e-15 -3.46518909072334 1.04905749017486 1.14367830093486e-14 -1.68688962021518e-15 5.10619456507534e-16 5.64245906500162e-30)
(-0.955069932070445 0.23847927799685 4.8059142524837e-15 -3.72376314374422 0.957962762361955 1.05456525221592e-14 -1.81094820272556e-15 4.65761402838237e-16 5.05192403754828e-30)
(-0.83395292147074 0.168079288385337 2.23998644357944e-15 -3.97121080543208 0.83745906519212 -3.03115464810795e-16 -1.11125977308624e-20 2.56833787663155e-21 -1.58175782828181e-34)
(-0.684617396555387 0.103830419713502 -1.08915408880638e-17 -4.20523376093262 0.688966463200737 -6.55228685156003e-17 1.22112101878636e-17 -1.99900341499271e-18 1.90134841453837e-34)
(-0.507063810219162 0.0500670340508954 -2.81368447099183e-15 -4.42405701337234 0.513702015571426 2.11873102373584e-16 -1.27763804215623e-17 1.48215040742268e-18 -4.71921153035414e-36)
(-0.312290564031842 0.0119857507727728 -2.00381520407272e-15 -4.61162090384966 0.315500722995006 1.28344762451883e-14 -2.5186004412265e-15 1.72187761498881e-16 7.10483526199566e-30)
(-0.118965576058369 -0.0037271369565528 2.99114636419453e-15 -5.12195421179248 0.127886624911757 1.12948059689814e-14 -2.80672483973978e-15 6.99986663278569e-17 6.10067596256027e-30)
(-0.0396460193514037 -0.00178396960730872 2.8249252954613e-15 -6.01536176053916 0.0470564776029826 -1.3718218613721e-16 -1.58243519008873e-20 1.88036307644229e-22 -1.91187503673128e-34)
(-0.0305835700063184 -8.15456710917696e-05 2.87877363836846e-20 -6.7446298990694 0.035799042798457 -4.80659933903195e-19 0 0 0)
(-0.0221981805121161 -4.29902848064258e-05 -2.22486650490026e-31 -7.24903398973138 0.0276418594035692 9.61821958916686e-19 0 0 0)
(-0.017062838779057 -3.23099746796272e-05 -2.27951598700805e-33 -7.63270713105722 0.0222102725051069 -9.79318147531989e-19 -3.10628071441516e-31 9.03759023996628e-34 -3.98546635242712e-50)
(-0.0130863533188178 -2.72091605104889e-05 3.16624081384907e-15 -7.92057277750524 0.0181782006285897 -1.24973571676905e-16 0 0 0)
(-0.0100090499648628 -2.70433440091064e-05 3.28064940349458e-15 -8.13710277038154 0.0150012209706127 -1.17769052459855e-14 4.47394584325622e-15 -8.24464051131297e-18 6.55555519419236e-30)
(-0.00745088511596415 -2.83935472829061e-05 -3.16620710020171e-15 -8.29474445268335 0.0123610101936108 -1.11829196038837e-14 4.57591539479353e-15 -6.82303631320467e-18 6.09435285767753e-30)
(-0.0052515572766638 -3.10155233828173e-05 -3.28064940349481e-15 -8.40265435951965 0.0100625425221784 1.17585674984957e-16 2.53017819688968e-20 -5.10922870627703e-23 -2.22030375374815e-34)
(-0.00328997309264571 -3.41054068688199e-05 -1.51970634926667e-20 -8.46661118839263 0.00798555520867798 5.51200948791684e-22 0 0 0)
(-0.00150890559063481 -3.73370302865751e-05 5.95149401888894e-22 -8.49093095594593 0.00606696545050099 8.13782970891143e-19 1.29909881515895e-20 -2.20790638674587e-23 -6.46722825933621e-40)
(0.000128371651323509 -4.04624781171206e-05 -3.76273425880018e-20 -8.47907947604667 0.00426931241928181 -5.76771623520975e-19 -4.34397424455797e-24 1.36921166783781e-24 1.27327338558197e-39)
(0.00164522864086361 -4.31818908608087e-05 -5.9514940188922e-22 -8.43387441422331 0.00257233799219521 -2.3540955782163e-19 -1.29866441776889e-20 2.0709852199727e-23 -6.26550559657844e-40)
(0.00305393577891331 -4.54261795587664e-05 -4.22152645379861e-15 -8.35782871874872 0.000967539012473841 1.06344388767573e-16 0 0 0)
(0.0043614057336508 -4.72398538712494e-05 -4.36982064353319e-15 -8.25325340525445 -0.000551170972945453 1.50751307886096e-14 -4.71918765342301e-15 -3.23059618863546e-19 8.6907993000688e-30)
(0.00557075725354609 -4.85800491509868e-05 4.22154556455729e-15 -8.12234346709825 -0.00198470309453659 1.49207137011867e-14 -4.65426503366381e-15 -1.13087950392356e-18 8.48742759717663e-30)
(0.00668245100567344 -4.94363741471504e-05 4.36982064353357e-15 -7.96725791086581 -0.00333137942295064 -9.37265073243189e-17 0 0 0)
(0.00769614733565314 -4.98148485150624e-05 -6.77532585310613e-31 -7.79014054217414 -0.00458867818808494 1.21543853213463e-32 0 0 0)
(0.00861137900934351 -4.97376353549967e-05 -1.73137258638048e-44 -7.59312964355734 -0.00575381753635689 2.4247769793401e-30 -6.17962042785807e-31 -4.68431921232244e-34 1.97458020706316e-61)
(0.00942830491824055 -4.92449908896543e-05 -4.84139271113718e-15 -7.37835181099011 -0.00682478858913735 6.94805283546567e-17 0 0 0)
(0.0101479602318292 -4.8379977230532e-05 -4.98209640534239e-15 -7.14790413320342 -0.00780063646004043 1.79473543000303e-14 -3.93422531371112e-15 -4.29820489937098e-18 9.9231522697128e-30)
(0.0107722678920416 -4.71925717332177e-05 4.84139271113697e-15 -6.90383927404638 -0.00868130933789643 1.82445279174978e-14 -3.80433007247674e-15 -4.78065370632378e-18 1.00191538319142e-29)
(0.0113041163662007 -4.57361245632342e-05 4.98209640534225e-15 -6.64814739920771 -0.0094680721721913 -5.38307975740751e-17 0 0 0)
(0.0117470569991127 -4.40555398103627e-05 7.92595536086221e-31 -6.38273983998918 -0.0101629981755494 1.08470652540611e-19 0 0 0)
(0.0121051745095912 -4.22001287129146e-05 -1.0223924503862e-33 -6.10944220342585 -0.0107687768187826 -2.20486494977215e-19 4.97215816230702e-31 8.76524495954572e-34 1.79459863806432e-50)
(0.0123830401019269 -4.02124077677985e-05 -7.92856364774335e-31 -5.82998285829532 -0.0112890304434257 1.12056361585355e-19 0 0 0)
(0.0125854886295451 -3.8133612713253e-05 0 -5.54598829719623 -0.0117274985900766 2.93769779173336e-20 0 0 0)
(0.0127174399957765 -3.59945916144934e-05 -6.87608321009869e-35 -5.25898006337823 -0.0120886446656631 -2.95408021261228e-20 0 0 0)
(0.0127840276608282 -3.3836235128326e-05 3.82706304052388e-21 -4.97037574129234 -0.0123765790168215 6.86544084265173e-24 0 0 0)
(0.0127903417284303 -3.16748972606755e-05 -3.83254746743299e-21 -4.68148178641435 -0.0125967021209732 4.71320800683856e-20 9.19535363211343e-22 7.5320383616394e-25 2.31984719695308e-44)
(0.0127417979557551 -2.95567977760774e-05 -1.17701681595354e-20 -4.39350225655773 -0.0127529877229447 -4.72698723694526e-20 -9.19535363211346e-22 -7.53203836163943e-25 -2.31984719695309e-44)
(0.0126440158463422 -2.74923669524788e-05 1.17869575207645e-20 -4.10751836345608 -0.0128525055494341 3.47249149200274e-20 -1.6243127950085e-21 -1.98903000412105e-24 9.56370516191653e-44)
(0.0125027429413419 -2.55235678370596e-05 7.94310511901217e-21 -3.82450244164622 -0.0128989986717611 -3.06137981694475e-19 1.62431279467433e-21 1.98903000307516e-24 -9.5637048797984e-44)
(0.0123240612556382 -2.36756316372504e-05 -7.95441005333253e-21 -3.54530075489883 -0.0129007885041403 2.72445812052286e-19 0 0 0)
(0.0121095214536419 -2.18418200400891e-05 0 -3.27065590987023 -0.0128591985083436 0 0 0 0)
(0.0118576481433145 -2.00356171939771e-05 0 -3.00136452077948 -0.0127721579745473 0 0 0 0)
(0.011569769710842 -1.831251970388e-05 0 -2.73821936572102 -0.0126416277500409 0 0 0 0)
(0.0112494389401003 -1.67104650188411e-05 0 -2.48195114963428 -0.0124710680493802 0 0 0 0)
(0.0109016754996827 -1.526916422924e-05 0 -2.23319945943946 -0.0122661181474938 0 0 0 0)
(0.0105325465913583 -1.40039981236607e-05 7.13478491159507e-15 -1.99248840424794 -0.0120331391344202 1.54211638786653e-16 0 0 0)
(0.010144189194965 -1.28275176239006e-05 1.44223746230039e-14 -1.76022297727984 -0.0117762212102466 -3.52118760536371e-14 9.70660211100659e-16 6.49067747384416e-18 1.9309063121465e-29)
(0.00973537529233783 -1.17264703743054e-05 1.48102062853716e-16 -1.53685839936419 -0.0114922995410841 -7.38442738787096e-14 1.69297070074615e-15 1.26587667123016e-17 8.13669032475073e-29)
(0.00930383385596971 -1.0667622575669e-05 -1.4422374623005e-14 -1.32286156819602 -0.011182318078961 -3.87425991650195e-14 7.27565633734324e-16 6.15263405916779e-18 2.14460954515955e-29)
(0.00884903619955462 -9.72611874507418e-06 -7.28288697444878e-15 -1.11878276664034 -0.01084179162918 -1.95973632398542e-16 -9.10712111741774e-32 -8.82357578611163e-34 4.6786478318888e-61)
(0.00836846658065488 -8.83578211672168e-06 -7.70098889863991e-20 -0.92511774897806 -0.0104763180111491 -1.34749060738671e-18 0 0 0)
(0.00786398549210856 -8.17995120341985e-06 7.70801757736765e-20 -0.742525876762751 -0.0100777921734706 1.76995763496657e-18 -3.024687494511e-21 -3.06211426076404e-23 4.75687561486857e-42)
(0.00732351740403775 -7.44825030004557e-06 7.72617527052195e-15 -0.571450390802384 -0.00965386192836928 2.61537370956544e-16 3.02468749451101e-21 3.06211426076405e-23 -4.75687561486859e-42)
(0.00674581950315999 -6.93841091046594e-06 7.7553538683292e-15 -0.413077903909885 -0.00917576687564617 -4.15973019244975e-14 2.28214395205352e-16 5.06241419537056e-18 2.27656907328643e-29)
(0.00609722098759164 -5.85750888448272e-06 -7.7260181828585e-15 -0.267950741212109 -0.00865478771364954 -4.44454545514754e-14 1.47071590528061e-16 4.75702991606829e-18 2.46403592691256e-29)
(0.00537914908729437 -5.36606957159897e-06 -7.75551107707739e-15 -0.138680407039872 -0.00801261005979651 -2.89744749536717e-16 1.29580277510302e-21 3.2354394776038e-23 3.43788617875003e-42)
(0.00450030503687802 -3.189518576076e-06 -8.00777740169792e-20 -0.0258677293352174 -0.00729143924075357 -2.4275066253702e-18 -1.29580277510299e-21 -3.23543947760374e-23 -3.43788617874997e-42)
(0.00346639453034347 -2.50490747048567e-06 8.01285716392717e-20 0.0640404832921777 -0.00627234757263265 -1.45697508162135e-18 0 0 0)
(0.0020217225794177 2.72685586509969e-06 -8.28814605405147e-20 0.130347010910924 -0.0050767291530129 1.45677254967439e-18 0 0 0)
(0.000268315057487374 8.17610013059965e-06 8.28560357255664e-20 0.155879251422899 -0.00312674032671253 -1.01715737004051e-18 -6.01646366136285e-22 -3.20018914044932e-23 -1.72070297701179e-42)
(-0.00383724304284413 -4.01588067486005e-05 5.44618214923246e-18 0.141837396504494 4.31124990418874e-05 1.28435029002737e-18 6.0164636613631e-22 3.20018914044945e-23 1.72070297701186e-42)
(-0.00373078934248007 -0.000416577484605155 -2.28945147877122e-17 -0.00365835957121376 0.00303977412648499 6.49632634975051e-17 0 0 0)
(0.00368250360786728 0.000237598300373015 -5.64427002549194e-17 -0.0021473908493044 -0.00525226400444358 1.20087290823853e-16 -4.18545667651897e-21 -7.59385721122957e-21 1.71594581174823e-34)
(-0.0102341523186715 -0.000622528719150162 -4.84461297354446e-17 0.165973902741171 0.0134009262962402 2.40596160687027e-16 8.88721859124993e-22 6.70580708919373e-23 4.43010979090681e-36)
(-0.0497077706987283 -0.00644172996314754 -1.16726717024077e-16 0.382645582016115 0.054096826780626 1.00617187192288e-15 1.10811827689458e-18 1.56565020005577e-19 2.91193006240698e-33)
(-0.127817605916202 -0.0238626232636638 1.29145911217026e-16 0.690271586644389 0.134742744218722 8.79248139217347e-18 0 0 0)
(-0.249900799388421 -0.0591660734833586 -6.54230091872066e-16 1.0592916847932 0.258158358197128 2.5787796774329e-15 0 0 0)
(-0.428556893716585 -0.121745736935707 -3.17517722452985e-18 1.5091159577794 0.437489699309945 -1.31683262678172e-19 0 0 0)
(-0.673174628199476 -0.221724853100432 5.92966407415058e-17 2.03981223431604 0.681957085887423 -4.27607195293532e-16 -1.23494575696255e-17 -4.12781989277642e-18 2.55901633692466e-33)
(-1.00650629983923 -0.374829610100317 -1.58870622077123e-16 2.69071831253597 1.01273320642608 4.07740153450815e-16 1.6516514041447e-17 6.2150908684942e-18 2.5040924931625e-33)
(-1.44143534495483 -0.591755609237014 -4.31590045454712e-16 3.48905712333931 1.44272622257561 1.02560816192949e-15 -1.18763231580717e-20 -5.18443700423251e-21 -9.45778058158093e-38)
(-1.96694351204586 -0.869100299326616 1.01170847398268e-15 4.4168571715521 1.9610133532506 -2.40944340402418e-15 1.2255632515848e-20 5.3500190151237e-21 9.75984584459547e-38)
(-2.57230334073206 -1.19963593444447 1.55284897144273e-16 5.46497807604213 2.55663206046208 9.4999909712365e-18 -1.93109887123584e-20 -9.16883203212064e-21 -5.89217923984336e-36)
(-3.24117838764271 -1.57023319510991 1.03129296199943e-16 6.62258682140406 3.21430681737153 -3.6353220725755e-16 -4.22949455816345e-17 -2.05273048767892e-17 2.30503274025141e-33)
(-3.95299871067503 -1.96213557439812 3.47886408149756e-16 7.8774266428052 3.91347643064651 -9.75794376762051e-16 -5.24138555672401e-20 -2.56376376507951e-20 1.15297693176624e-35)
(-4.65920736616543 -2.34141237633011 -9.75836825159862e-17 9.16788124324337 4.60899947174567 3.43680346281397e-16 5.90353685888397e-17 2.96783999964163e-17 2.17489165595169e-33)
(-5.33272782314655 -2.69989340111576 7.08870920321821e-17 10.4131452202065 5.27443472838204 3.22530959341057e-18 0 0 0)
(-6.03118372157374 -3.08303531352754 -7.05686110758199e-16 11.6583208426218 5.96356923425461 1.24136386552611e-15 2.05214961975532e-20 1.03415041886919e-20 -2.7021138007134e-36)
(-6.81653554964112 -3.52920256106671 5.29108456221275e-16 13.0020001980444 6.73753464928206 -8.91486657453605e-16 -2.12265109397651e-20 -1.06967859303098e-20 2.79494475447515e-36)
(-7.72493817732938 -4.06382794209847 2.24154468385288e-16 14.4930292571747 7.6320033241694 -3.07465513848671e-16 -9.41832646766871e-17 -4.95957117212544e-17 2.00960746937463e-33)
(-8.83126594583965 -4.73285303690769 -5.77778670735905e-17 16.2486881762223 8.7174547774901 -1.96305039695716e-18 1.46650529010738e-20 7.74955140295314e-21 -7.54972230345153e-42)
(-10.2292317874703 -5.59839387131217 -5.93456676435724e-16 18.4148366895331 10.0868292154176 1.06354249400137e-15 -1.52860526706838e-20 -8.07771043983342e-21 7.86941946667959e-42)
(-12.1413528979929 -6.75833808753345 3.77572908337807e-17 21.4567838491233 11.9420634543709 3.8596295603559e-19 0 0 0)
(-14.3786988539017 -7.97248930481398 5.96213693925019e-16 25.5006081855788 14.1181940994253 -1.11000938442285e-15 -1.68012616906034e-16 -9.30189123135349e-17 7.30906312433623e-33)
(-16.6232227793015 -8.93945836554852 2.50485220510744e-16 30.401996336378 16.3004628832147 -5.66907080196742e-16 -5.83952866370472e-21 -3.08017005041931e-21 -6.90654830283533e-38)
(-18.6220151690917 -9.42168582820473 -4.21644688424932e-17 36.235409186774 18.242991376941 1.44950658466244e-16 -4.64082496709702e-22 -2.32028125249114e-22 2.52374999883755e-38)
(-19.9308220875005 -9.12113030769009 2.14223151415271e-16 42.9708397223866 19.5105355963726 -4.08144018608832e-16 9.80058844454235e-21 3.94273947710136e-21 -5.27792313844665e-40)
(-19.7150469613342 -7.69774867771357 7.48780664278199e-17 50.0471978531787 19.2884158575459 -1.8946766299241e-16 -3.08395812067132e-16 -1.18849046353668e-16 1.16736336122022e-33)
(-16.6152877031517 -5.0402828883838 4.14538600629882e-18 54.8622540153256 16.2686437389215 -7.0348569078924e-20 0 0 0)
(-10.3743809279719 -2.13671619809843 -1.62997272633426e-17 51.9824385584779 10.2119609473348 9.52882179811924e-17 1.51730084107816e-16 2.98032719244061e-17 2.78233853900325e-34)
(-4.72657063567366 -0.595978204959976 -1.78261516464862e-17 41.6502181865391 4.67586968066071 1.29199943919836e-16 0 0 0)
(-1.59932791879356 -0.114408977696208 -2.28985542235786e-18 31.2234438246504 1.57822085248303 3.05580734504077e-20 0 0 0)
(-0.210934214048646 -0.0151662543980515 4.4952859869548e-21 21.8362537424271 0.23388814895396 -1.360143944388e-18 0 0 0)
(-0.0118080265870759 -0.00135188569540366 1.04479952094258e-23 18.2995774123015 -0.0140716184439409 0 0 0 0)
(0.108167570344926 -0.00427293590522896 -1.55406637946794e-20 21.3619092919934 -0.0829288710225046 -3.16913132925956e-22 2.6969680041966e-21 -1.28594015043171e-23 -3.17373117453633e-41)
(0.149776110312006 -0.0251531890272104 -2.20129782387991e-21 22.7926335401051 -0.17608352698151 -2.67414143788308e-19 9.5389108929561e-19 -5.79276720190731e-21 -4.45710581304887e-39)
(0.757007249841273 -0.0704183066746096 -5.82806499210026e-19 22.4582543373121 -0.737720936289646 5.99106244845667e-18 1.61045543747315e-17 -5.28654763821988e-19 4.30059721589965e-36)
(1.30999122313975 -0.134291858289918 -1.39817513744837e-18 17.3273330846584 -1.29974411385976 2.2719892224213e-17 4.50991657227519e-17 -3.77217846277654e-18 2.45771060136099e-35)
(0.989230354059915 -0.100396830336095 3.21101190759233e-17 8.179971760365 -0.953075824337139 1.60444968034109e-16 3.57368525374944e-17 -4.65624858753521e-18 2.2181939773983e-34)
(-0.661713464840375 0.321739514110137 -1.34875224289052e-16 -0.96502674859601 0.714845594343915 -5.1207058997193e-16 5.74426785120278e-18 -4.27000992617488e-18 3.06702982224614e-33)
(-1.88476076935943 0.806436299240228 -3.24186494163358e-16 -4.61333324826454 1.92901744192165 -8.21580821541911e-16 6.5725688938735e-17 -2.63730589823291e-17 1.88955380188551e-33)
(-2.01109540224712 0.955100037651442 1.78123430890388e-16 -4.4234886319259 2.0502847434016 3.32779717572305e-16 -3.09057754275334e-21 1.31978175057563e-21 1.15215330716673e-37)
(-1.92327643841939 0.99499099234508 -2.47821113469415e-16 -3.82809484625275 1.95088032724864 -4.40921295034982e-16 8.01986901007415e-17 -4.06751207888017e-17 -2.97968547043443e-33)
(-1.70824315711022 0.933312597533385 -2.25411449432246e-17 -3.19536471992059 1.73027968402458 -1.28250213806926e-17 -4.375193669709e-17 2.36528901949834e-17 -2.39332575358662e-33)
(-1.51662600513995 0.852882077167117 3.08463121984547e-16 -2.73515125239719 1.53230923578061 5.06540681722296e-16 1.9339613427666e-17 -1.08020475974731e-17 8.55743733383105e-34)
(-1.34982698264239 0.761665011201757 3.62127223781938e-18 -2.41164874134951 1.36193813651983 -1.85459948044329e-19 -5.96082963572507e-21 3.34346489534061e-21 6.44310870153725e-37)
(-1.22068012109259 0.676181286060186 2.97015419268659e-16 -2.21122315595167 1.22926798136528 5.31563448317067e-16 1.51754626454169e-17 -8.39777645166963e-18 8.90348035239596e-34)
(-1.12736491096387 0.612225478573205 -2.51587662368736e-17 -2.08086502416739 1.13446047103004 7.06640582539714e-19 -5.23589881908538e-21 2.881919264848e-21 6.02360882491383e-37)
(-1.06342596733608 0.567115409217632 2.97515139026804e-17 -1.99690609806717 1.06865378431346 -9.02485250898882e-19 0 0 0)
(-1.01747833215743 0.535131933111324 2.9590794501324e-16 -1.93707549638297 1.02162402909423 5.61794464323285e-16 1.27684200229067e-17 -6.70293518591491e-18 9.40515678235348e-34)
(-0.997016612546587 0.519657012416598 -2.43693903867786e-16 -1.91451751425869 0.999810325081669 -4.14333551660678e-16 1.23694120200278e-17 -6.45938308112504e-18 2.68018966091589e-33)
(-1.00127381214974 0.519687725616999 9.25840225600505e-20 -1.93080142245143 1.00332405665468 2.03480827417382e-19 0 0 0)
(-1.02851475401287 0.532581838341616 3.39957496943837e-17 -1.98614215731468 1.03001903473635 -1.64995276207782e-18 0 0 0)
(-1.06509751325733 0.546452140958189 2.22686593909815e-16 -2.07035097772689 1.06612282656238 2.96965599813303e-16 1.32446280282941e-17 -6.75477900447738e-18 -8.38243225181339e-34)
(-1.1036388928151 0.553670764734422 6.13325801209369e-17 -2.18586073469452 1.1044429915466 1.88966588488851e-16 4.17711720966224e-17 -2.0946135517192e-17 -4.53247330524779e-33)
(-1.13947936598557 0.550657742239876 -6.83489874598866e-17 -2.3325624456351 1.14020591439106 3.65827792534036e-18 -2.2798231404812e-20 1.0745265249566e-20 2.71604828367919e-39)
(-1.16325408223875 0.531929572651648 -3.09213305379927e-19 -2.50271881605001 1.16414690268734 -6.76796933605114e-19 4.63306672425331e-20 -2.11683820606689e-20 -5.11640762546446e-39)
(-1.16586877793948 0.493760380347399 -2.19251904164208e-16 -2.68770139765656 1.16677711630521 -4.2669621298781e-16 1.67052649606143e-17 -7.24747001605378e-18 2.66782442531392e-33)
(-1.14303778104303 0.43719255818168 3.25486188346049e-17 -2.88698273133892 1.14350997369647 -1.79244989290545e-17 -3.53784044678421e-17 1.38965178644844e-17 -2.79832126771273e-33)
(-1.09784577784969 0.36978142770156 3.11666182391361e-15 -3.10906487214595 1.09833440723113 -7.28744212942486e-16 3.75852375516238e-17 -1.31548080351752e-17 2.45400367339053e-33)
(-1.03262895109094 0.2985529615168 1.16263199374848e-14 -3.34821117851151 1.03288602273334 2.77884420290489e-14 1.64425790794415e-15 -4.9731708341664e-16 -5.50532206851012e-30)
(-0.940998659320132 0.224963131308415 4.14167748762988e-15 -3.58800725595868 0.941133456744583 2.90853032810906e-14 1.73058245236314e-15 -4.44728619219937e-16 -4.81302356308926e-30)
(-0.822028424865017 0.153174432953391 -3.22132483890309e-15 -3.82030816277278 0.821593965331692 3.53159817415741e-16 0 0 0)
(-0.676829063010315 0.0878967264829546 -8.17513157265501e-18 -4.04340093722397 0.675931323353196 -1.80367859376723e-16 -1.1733598700914e-17 1.92198079518094e-18 -1.83436553891535e-34)
(-0.507491868088829 0.0338996226094418 4.02198751892979e-15 -4.2620752354821 0.507785349968057 -2.72083547050851e-17 1.22671416122532e-17 -1.42228643699778e-18 -1.80380127759437e-34)
(-0.338279882267553 -0.0024470331601456 6.13224544224071e-15 -4.53517675216651 0.330086887906743 3.46285111296411e-14 2.45212691455685e-15 -1.67137607201079e-16 -6.92107683513944e-30)
(-0.168906302922813 -0.0136667536110727 -3.37653964635495e-15 -4.9957289956467 0.166959616460306 3.53949995545246e-14 2.68586145068256e-15 -6.65292236250847e-17 -5.8194658411505e-30)
(-0.0952464125736086 -0.00587969304595788 -3.89189003286658e-15 -5.57447889928039 0.0917071791223828 1.89259760213819e-16 0 0 0)
(-0.0720445320222209 -0.00154244608878923 8.09559868482301e-20 -6.01312037506562 0.0666495652753876 -4.2350819759945e-19 -5.63245680516501e-20 2.86778460526872e-22 2.65142273745577e-39)
(-0.0516710947705468 -0.00109897473078549 -4.20847831410795e-20 -6.30920492580175 0.0472040301653958 4.4962497927734e-19 1.16022558878223e-19 -5.01808753100853e-22 -2.55527903459153e-39)
(-0.0387904428955455 -0.000762976846193864 -8.21365623026847e-20 -6.51976594086105 0.0342888890613895 -4.39514295249936e-19 -1.21928472287179e-19 3.8024852908579e-22 -5.55469265687778e-39)
(-0.0288555015688824 -0.000578537419965178 -4.26380821315326e-15 -6.66451907965748 0.0245884733965399 1.67849422882178e-16 -1.88387350039371e-21 -3.77706591533714e-23 -2.78368937179667e-34)
(-0.0210925965353018 -0.000461579812511811 -4.35296501664183e-15 -6.75899554925383 0.0169890617417969 -3.92498241789519e-14 -4.34453794389587e-15 8.00091812748535e-18 -6.37349256083761e-30)
(-0.0146074027501962 -0.000386243861049694 4.26384569304062e-15 -6.8117704676971 0.0107130759189542 -4.09726822152626e-14 -4.38672782380502e-15 6.53633576666613e-18 -5.8304539100049e-30)
(-0.00900595970744874 -0.000336122495008544 4.35296619721735e-15 -6.82895889108147 0.00532947884776455 -1.56596861090185e-16 -6.64450814754375e-20 7.20961724306365e-23 -2.84192680734178e-34)
(-0.00400686876077051 -0.000300944045980626 9.42462753860723e-20 -6.81467752737665 0.000560780289822851 4.64332830831939e-19 0 0 0)
(0.000524866714478195 -0.000274079543605192 -4.92573300918778e-20 -6.77208048660389 -0.00372784731808572 -6.62673977655316e-19 6.72603762699352e-20 -1.2610671558076e-23 -2.62462363141306e-42)
(0.00467713568775709 -0.000252181987921164 -4.92975317458635e-20 -6.70390052816023 -0.00761391736067462 -2.62213755608723e-20 -6.72603762699394e-20 1.26106715580768e-23 2.62462363141323e-42)
(0.00850581265092457 -0.000233125688042991 7.63056613059696e-20 -6.61256181485285 -0.0111561314011743 2.24966601212004e-19 3.31119920014835e-31 -1.00911865931802e-34 9.24247468091035e-51)
(0.0120407599574569 -0.000215790439340082 5.63755834809832e-15 -6.50012125405347 -0.0143919291818896 -1.4157517657994e-16 3.28068048448304e-20 1.65807706614282e-23 -1.8402899199623e-34)
(0.0153015411905699 -0.000199491163840192 5.79514287477849e-15 -6.36845671169679 -0.0173441071641655 5.23964786677097e-14 4.57113874725516e-15 3.14985240933286e-19 -8.42671582857238e-30)
(0.0182976986768377 -0.00018361867181222 -5.63752949983435e-15 -6.21933965172536 -0.0200245683887998 5.44912513251771e-14 4.47237203428742e-15 1.0877401275194e-18 -8.14658916618612e-30)
(0.0210330549417014 -0.000167894909959066 -5.79516992310968e-15 -6.05447433486369 -0.0224399591516249 1.24764875728967e-16 3.17100171582871e-20 2.90867128195017e-23 -1.89174001512988e-34)
(0.0235097049755911 -0.000152220770845423 -2.88482642644395e-20 -5.87550999001931 -0.0245951632418554 2.9190680282295e-19 0 0 0)
(0.0257295828952066 -0.000136616469448391 -5.69777183646834e-44 -5.68404619881529 -0.0264946608394763 -2.91755817790822e-19 5.96214271520623e-31 4.51946523148012e-34 -1.90508933915422e-61)
(0.0276959931450592 -0.000121194023089851 6.5253356685799e-15 -5.48163041102993 -0.0281442160541887 -9.36473855690141e-17 0 0 0)
(0.0294140861788752 -0.000106073459215107 6.70662555917505e-15 -5.26975202671044 -0.0295512443204553 6.01857615898171e-14 3.80378563054551e-15 4.15662961669694e-18 -9.59998370391475e-30)
(0.030890867360376 -9.13897452823395e-05 -6.52535300202302e-15 -5.04983742868198 -0.0307246112739274 6.21001875991264e-14 3.66244213779085e-15 4.60274636917741e-18 -9.64060766800898e-30)
(0.0321352354818115 -7.7266352622224e-05 -6.7066164292642e-15 -4.82324432980953 -0.0316749780606555 7.21835172691612e-17 -1.32717329497876e-20 -2.71989629837019e-23 1.09462674594412e-34)