/*--------------------------------*- C++ -*----------------------------------*\
  =========                 |
  \\      /  F ield         | OpenFOAM: The Open Source CFD Toolbox
   \\    /   O peration     | Website:  https://openfoam.org
    \\  /    A nd           | Version:  7
     \\/     M anipulation  |
\*---------------------------------------------------------------------------*/
FoamFile
{
    version     2.0;
    format      ascii;
    class       volScalarField;
    location    "20000";
    object      k;
}
// * * * * * * * * * * * * * * * * * * * * * * * * * * * * * * * * * * * * * //

dimensions      [0 2 -2 0 0 0 0];

internalField   nonuniform List<scalar> 
15600
(
2.5562883833334e-06
2.72864778221679e-06
2.17664313637833e-06
1.4804448895013e-06
7.96437710623506e-07
3.38301560531024e-07
1.5201116639202e-07
1.1815876564974e-07
9.93091432004727e-08
7.16785135980227e-08
5.25143078347366e-08
4.26705574699064e-08
3.88587309426855e-08
3.81778152501781e-08
3.9301846138958e-08
4.170983877163e-08
4.58918795870277e-08
5.25080534172356e-08
6.23721121321992e-08
7.61943913568148e-08
9.49247784940443e-08
1.19962538094525e-07
1.52581371725621e-07
1.93817174261308e-07
2.44518489082468e-07
3.06124977817266e-07
3.80546645058796e-07
4.6706293793543e-07
5.63660799535049e-07
6.67362158429839e-07
7.76102217604646e-07
8.91727397714894e-07
1.03151311702321e-06
1.27208099854235e-06
1.55889199672282e-06
1.82630824884502e-06
2.07783439607284e-06
2.31692731014593e-06
2.54594238614334e-06
2.76628658976547e-06
2.97906726928025e-06
3.18534503196697e-06
3.38611155854528e-06
3.58169052877118e-06
3.76771950509195e-06
3.94135249873892e-06
4.10194021320935e-06
4.24887648575053e-06
4.38166353136324e-06
4.49994977299338e-06
4.60354610583164e-06
4.69243833091852e-06
4.76677892335838e-06
4.82687058158571e-06
4.87315084771828e-06
4.9061624578886e-06
4.92653374236213e-06
4.93496033122791e-06
4.93217593004622e-06
4.91894611354748e-06
4.89604362067823e-06
4.8642588606658e-06
4.82436006393697e-06
4.77713936875242e-06
4.72329415982719e-06
4.66347661310855e-06
4.59802862609609e-06
4.52723315863704e-06
4.45156653374707e-06
4.37157954156717e-06
4.28797786986544e-06
4.20127847415317e-06
4.11185084649273e-06
4.01974536364709e-06
3.92492488936853e-06
3.82772539431796e-06
3.72758682269359e-06
3.62520184925096e-06
3.51963044601141e-06
3.41040746592219e-06
3.29690012787793e-06
3.17709125705852e-06
3.0496230595327e-06
2.91002114159948e-06
2.75498891078099e-06
2.57378379390815e-06
2.36469011444951e-06
2.22137954024367e-06
2.39432126102721e-06
2.60327730242044e-06
2.8431713951758e-06
3.07561412716446e-06
3.31077207639734e-06
3.54667602509771e-06
3.78934719566773e-06
4.06579673392601e-06
4.33370077365066e-06
4.55372314948416e-06
4.71811086133036e-06
4.81504079030269e-06
4.83557545170275e-06
4.74274836909567e-06
4.57701005288724e-06
4.42250720047248e-06
4.29415390800425e-06
4.19994387050937e-06
4.16867814510147e-06
4.23884618488273e-06
4.48065308637106e-06
4.73089515303041e-06
5.00971304648645e-06
5.33348607085862e-06
5.66056189291452e-06
5.77169307413201e-06
5.15577028822388e-06
4.28164408043099e-06
3.40827883807917e-06
2.74429240129209e-06
2.29679684225064e-06
2.35162735292425e-06
8.24074149615468e-05
8.78285456891134e-05
7.0356895325515e-05
4.79239373117297e-05
2.58883761615206e-05
1.10742952604953e-05
4.97993915089552e-06
3.84108729636902e-06
3.23304120471879e-06
2.34177537604455e-06
1.71572981369244e-06
1.39116646033187e-06
1.26383497363629e-06
1.23953044543244e-06
1.27441530177781e-06
1.35099227079036e-06
1.48459640505165e-06
1.69644030823851e-06
2.01296628094648e-06
2.45731884643415e-06
3.06004389697927e-06
3.86648682533726e-06
4.9184668426533e-06
6.25028425109522e-06
7.88963042133145e-06
9.88252193355571e-06
1.22918914902661e-05
1.50962346431885e-05
1.82307392986429e-05
2.15983435244847e-05
2.51309933255686e-05
2.88870245552561e-05
3.34010297079382e-05
4.11504367248687e-05
5.03983115282598e-05
5.90267130355352e-05
6.71404954713904e-05
7.48517670678624e-05
8.2236790351815e-05
8.93411931972931e-05
9.6200905887771e-05
0.000102850343242601
0.000109321709337396
0.000115620782866852
0.000121554840885512
0.000127088500841654
0.00013220192650455
0.000136876704879173
0.000141097907528946
0.000144855236177292
0.000148143511087792
0.000150963017126903
0.000153319220868784
0.000155222246815856
0.000156686370133355
0.000157729097294465
0.000158370557419014
0.000158632916443043
0.000158539490839416
0.000158114537255158
0.000157382519802131
0.000156368388891719
0.000155096431087108
0.000153591562757773
0.000151875819019953
0.000149969610426591
0.000147883729730314
0.000145627209267559
0.000143215097952353
0.000140664769665813
0.000137998519923371
0.000135232588013779
0.000132378624354444
0.000129438325484315
0.000126410361502093
0.000123305677988988
0.000120105950261183
0.000116833721297128
0.000113458474507158
0.000109966132888381
0.000106335754191616
0.000102504655208745
9.84274908937974e-05
9.39660328404785e-05
8.90095491604253e-05
8.32247177889274e-05
7.65003038995939e-05
7.19197518773236e-05
7.74461034688879e-05
8.41500994508925e-05
9.18076857711684e-05
9.92564369045808e-05
0.000106788190735216
0.000114347013140866
0.000122128136172454
0.000130932271350395
0.000139445153867297
0.000146451088849743
0.0001516925061418
0.000154802814290646
0.000155487803937276
0.0001526433661011
0.000147502664448764
0.0001426429933505
0.000138586444823619
0.000135612092890272
0.000134625075544687
0.000136848467688992
0.00014436114712425
0.00015226887323063
0.000161066517573689
0.000171229443456249
0.000181435083355217
0.000185031703618603
0.000165784098805142
0.000137643516836219
0.000109755169808654
8.85474796382984e-05
7.4230630541319e-05
7.59875999898608e-05
0.000591024471151522
0.000626712980567161
0.000508750473953488
0.000348851846955858
0.000190018006553651
8.2360875499105e-05
3.69221645467358e-05
2.81754303909267e-05
2.37418939317454e-05
1.72685298065553e-05
1.26658464923059e-05
1.02589813810261e-05
9.30377646118521e-06
9.10973847562633e-06
9.35242851703604e-06
9.90105460956185e-06
1.08635716699622e-05
1.23937666021983e-05
1.46852580853391e-05
1.79078976293563e-05
2.22817066824005e-05
2.81348895510055e-05
3.57725508013009e-05
4.5443878319043e-05
5.73433389272775e-05
7.17897616521469e-05
8.92327576057409e-05
0.000109517258810371
0.00013216618413861
0.000156467521842552
0.000181889399408158
0.000208786703260826
0.000240835995455842
0.000295375008039335
0.000360163146168575
0.000420359537155256
0.000476722123784616
0.000530076518806538
0.000580995035684966
0.000629823027057322
0.000676830913789384
0.000722275972692299
0.000766405947973484
0.000808183161380487
0.000847248600446018
0.000883556672793347
0.000917011088473772
0.00094752398077475
0.000975028160367237
0.000999483429802169
0.00102087916060578
0.00103923582528462
0.00105460298416276
0.00106705608949586
0.00107669328513526
0.0010836301306301
0.00108799623319547
0.00108993177927314
0.00108958271379693
0.00108709952952275
0.00108263344258255
0.00107633771768592
0.00106836188345756
0.00105885811041839
0.00104796223917436
0.00103579807055964
0.00102243158892812
0.00100791896822239
0.000992353154175771
0.0009758412474247
0.000958523472082834
0.000940499963820247
0.000921844281354334
0.000902568548823344
0.000882660364386579
0.000862195864586425
0.000841043645031163
0.000819360542894336
0.000796934434233173
0.000773683528258465
0.000749457211805454
0.000723870565077444
0.000696585733936764
0.000666731667228568
0.000633493894945444
0.000594775778778927
0.000548387599681386
0.000516974122375002
0.000552838240433461
0.000597486431388619
0.000648212824188862
0.000698087087068057
0.000748525851892232
0.000799230112199061
0.000851391092404942
0.000909530464804918
0.000965973982736658
0.0010132399595311
0.00104930552390124
0.00107182244275621
0.00107883569924058
0.00106385539281997
0.00103346358827553
0.00100304471159202
0.000976972010459872
0.000957513991124306
0.000950487375531149
0.000963633184773779
0.00100948289735173
0.00105997739517507
0.00111603429272313
0.00118007838375954
0.00124383507550992
0.0012701133128169
0.00115577059221665
0.00096575081988956
0.000778503070946903
0.000635022366844804
0.000537076525171252
0.000550536916943129
0.00204452724239483
0.00214376106626384
0.00178703632926591
0.00126112916108112
0.000709678894411221
0.000318277415117832
0.000141727767378538
0.000106302473355273
8.95457549948217e-05
6.54404622340062e-05
4.8097146911012e-05
3.89452029872527e-05
3.52732818430442e-05
3.44709092875318e-05
3.53214236115717e-05
3.73215696910759e-05
4.08569091421915e-05
4.64939871536107e-05
5.49458597998673e-05
6.6829694910071e-05
8.29229989158828e-05
0.000104380308394686
0.000132244521320876
0.000167305967845384
0.000210093344529475
0.000261512209749811
0.00032287726872279
0.000393356557801178
0.000471037732353875
0.000553312590437486
0.000638165145282938
0.000726641005157511
0.000830784052681353
0.00100263210305972
0.00120064459148268
0.00138060883113742
0.00154624977039312
0.00170058181655848
0.00184588173235949
0.00198350856981687
0.00211451406197542
0.0022398582287357
0.00235773123175116
0.00246712984685932
0.00256879508884336
0.00266271845754144
0.00274885360135727
0.00282715631752727
0.00289761292266276
0.00296025438238847
0.00301516247723595
0.0030624731442821
0.00310237246266874
0.0031350906059978
0.00316089557616248
0.00318008313647467
0.00319297111582768
0.00319989270690228
0.0032011877548413
0.00319720092346074
0.00318827506782247
0.00317475385823518
0.003156972016972
0.00313526683270515
0.0031099424336395
0.00308127190872876
0.00304940014782432
0.00301445007146946
0.00297662657603186
0.00293616444903812
0.00289338804904216
0.00284851886203327
0.00280172773729423
0.00275304378551925
0.00270241385765604
0.00265004208454238
0.00259553931984669
0.00253933207855591
0.00248094956817435
0.00242002753741944
0.00235611580619818
0.00228833189294202
0.00221567528727536
0.00213602011758616
0.00204689271552307
0.00194306516522811
0.001812768977577
0.00172359188730527
0.00181223800413689
0.00193089383740165
0.00206687741373518
0.00220367886269859
0.00234339213747325
0.00248544182345034
0.00263249577791924
0.00279401531819024
0.0029532439174955
0.00309215601339948
0.00320409186541205
0.00328254637340094
0.00332206315147446
0.00330734810167709
0.0032502822918678
0.00318600519134048
0.00312856834851168
0.00308557815444772
0.00307279738782534
0.00310988072977213
0.00322881605750992
0.00336443287175521
0.00351142587659319
0.00367338190398079
0.00382704593208479
0.0038927748264143
0.00362319902157241
0.00308055736751066
0.00254733414959291
0.00214644397181065
0.00187150297020846
0.00192955060101365
0.00438329718196804
0.00453801515753137
0.00393248487693281
0.00294082677637029
0.00178241681436025
0.000867080213901431
0.000389987080131501
0.000284293518506891
0.000238452924791982
0.000175227041419005
0.000129214193692144
0.000104669795766895
9.4704266275023e-05
9.23012907096667e-05
9.43133177494313e-05
9.93436594328055e-05
0.000108335592358645
0.000122712315738974
0.000144228603253027
0.000174312983712614
0.000214662793803603
0.000267739148990855
0.000335472349751564
0.000418882577827444
0.00051812780234912
0.000634085912504019
0.000768347425041514
0.000917866927628281
0.00107797889291885
0.00124349920583813
0.00141124185610432
0.00158519724898051
0.00178987406595262
0.00210732590883001
0.00245420518878963
0.00276183672756922
0.00304008466143728
0.00329525932113968
0.0035323902861208
0.00375435171140687
0.00396331325038894
0.00415915322753715
0.00433960956619504
0.0045068178535092
0.00466135472943259
0.00480343762190243
0.00493321819768016
0.00505082644298074
0.00515641182328587
0.00525016435288327
0.00533232489081422
0.00540319046604317
0.00546311016822059
0.0055124784546684
0.00555172766414641
0.00558131617314119
0.00560172239448962
0.005613436343115
0.00561694980023921
0.00561275416060792
0.00560133317881784
0.00558316537785411
0.00555871439632989
0.00552844070611082
0.00549276403645146
0.00545205778841019
0.00540652924434827
0.00535635375409206
0.00530180913588095
0.00524320416119313
0.00518098650422404
0.00511544514889729
0.00504682007567878
0.00497516413378849
0.00490037865304725
0.00482285716769462
0.00474219549301554
0.00465843244405809
0.00457119912887672
0.00447998290385477
0.00438409896569532
0.00428238578570215
0.0041733238270242
0.00405413147420231
0.00392101289772286
0.00376713492039228
0.00357037059403797
0.00343211920286592
0.00354282708106654
0.00371411040034731
0.003917885635172
0.00413113924386218
0.00435402813478909
0.00458552512019253
0.00482864025268526
0.00509399680464405
0.00536075218687073
0.00560405697783639
0.00581209702239354
0.00597441733300811
0.00608229602047232
0.00611560450302916
0.00608579662484726
0.00603723747679673
0.00599296352887148
0.00596618824173711
0.00598089510612517
0.00606471494066166
0.00626394790093824
0.0064937463828722
0.0067338225268734
0.00698485219597409
0.00720654398022825
0.00729995218689444
0.00694440988522181
0.00604556145534078
0.0051214171046821
0.00445590843199063
0.00402638926203377
0.00417498178358273
0.00679742498758496
0.00697647116799932
0.00627577158470415
0.0050166106664652
0.0033360026391097
0.00183474782380468
0.000881509880520029
0.000615200888471851
0.000511157102823906
0.000378214184353889
0.000280387829620727
0.000227422898949045
0.000205520995797705
0.000199512114711973
0.000202956283945097
0.000212653885862998
0.000230351605502813
0.000258737283820239
0.000300954855424168
0.000359176895874226
0.000435695856911242
0.000533747467217922
0.000654988754985502
0.000799097472472389
0.000964438628781141
0.00115102021976161
0.00135997719120155
0.00158594467907248
0.00182270183310227
0.0020647817084612
0.00231092816133999
0.00257099368860504
0.00287890229456479
0.00331859478832612
0.00377537466948076
0.00417621474746242
0.00453573948841544
0.00486297577424255
0.00516508331572739
0.00544609874926788
0.00570866850266146
0.00595019802915216
0.00617329314629964
0.00637944994607945
0.00656935154332498
0.00674341568107267
0.00690196912106238
0.00704529696280383
0.00717369109232966
0.00728747608421685
0.00738702283939832
0.00747275545921328
0.00754514784564344
0.00760471719185015
0.00765201607514208
0.00768762003507747
0.00771212185058532
0.0077261218758528
0.00773021800164236
0.00772500295691662
0.00771105695109422
0.00768894892507791
0.00765922818743195
0.00762243422690931
0.00757906434750141
0.00752956034684921
0.00747418288253822
0.00741315315602626
0.00734679939057265
0.00727547249674173
0.00719970131040995
0.00711981017947439
0.00703609156767645
0.00694863184349806
0.00685769841211745
0.00676313790780417
0.00666474382015076
0.00656247567295185
0.00645599807064744
0.00634476914384956
0.00622801072349282
0.00610451690621643
0.00597257062950812
0.0058293420293066
0.00567056670859585
0.00548945025400225
0.00526044760877464
0.00509454467311159
0.00519550397645134
0.00538674780255869
0.00562671277635794
0.00588851394246145
0.0061687728999097
0.0064654243727765
0.00678076386830445
0.00712398531406043
0.00747357372962173
0.00780177197362378
0.00809295043094302
0.00833412313792598
0.00851461793225705
0.00861390156852423
0.00864154176840034
0.00864219482499968
0.00864378472843282
0.00866349438424702
0.00872928331108133
0.00887188251149149
0.00914121873005649
0.00945451136572813
0.00977738303273401
0.0101054321958751
0.0103847354773116
0.0105151325213282
0.0101468060712712
0.00906786666136063
0.00781380833787612
0.00689570725589134
0.00632851948532677
0.00651985922095329
0.0087978892889679
0.00898337396475804
0.0083064056071809
0.00702175053932632
0.00506914746054902
0.00314818336447013
0.00170965010619093
0.00114004650854052
0.000934991523499312
0.000697946864860981
0.000521748651342974
0.000424262186069248
0.000382559637796284
0.000369405758030696
0.000373275349246448
0.000387952377726765
0.000415961794036194
0.00046128729030873
0.000528202346642142
0.00061882495780711
0.0007350022470921
0.00087953885188808
0.0010525751866556
0.00125182443739413
0.00147425673148494
0.00171974437717749
0.0019892594789346
0.00227649558188626
0.00257551778703465
0.0028824467661255
0.00319927837711325
0.00354056474521106
0.00394227301080054
0.00447244939105427
0.00500381707864142
0.00546990899073896
0.00588707452030273
0.0062660804032204
0.00661516018229733
0.00693911375340075
0.00723877012405469
0.00751429831748299
0.00776875497774279
0.00800349576224265
0.00821931730473932
0.00841677624862702
0.00859632255575004
0.00875835200021111
0.00890325879648605
0.00903146481944096
0.00914343568205361
0.00923968865303486
0.00932078988077505
0.00938734800778717
0.00944000593074805
0.00947942780018935
0.00950629363487538
0.00952128842138988
0.00952509188547463
0.00951837514294648
0.00950179309879791
0.00947598437074046
0.00944156404149036
0.00939913153568641
0.00934924492707551
0.0092924017315244
0.0092289110847003
0.00915903612844978
0.00908314667366951
0.00900162284714684
0.00891505851970639
0.00882380064161251
0.00872822619201652
0.00862874247050672
0.00852518190021309
0.00841744808573711
0.00830542199181701
0.00818904699969211
0.00806801170630592
0.0079417886217266
0.00780957810208003
0.007670215003161
0.00752194801842415
0.00736210779322039
0.00718639981415298
0.00698860169750624
0.00674386984603277
0.00656175583308845
0.0066428878538035
0.00683802676347084
0.00709689284969565
0.0073897788198496
0.00770968766970352
0.00805317307395303
0.00842140611356174
0.00882139706445919
0.00923179950225402
0.00962367264583971
0.00997876542704988
0.0102825279417658
0.0105232036323686
0.0106816080198046
0.0107662257986438
0.0108193546893421
0.010870944311632
0.0109408078772915
0.0110584052892789
0.0112560103829754
0.0115812801653762
0.0119616674190847
0.0123547331915926
0.012751336272733
0.0130881571459396
0.0132683940557529
0.0129341413427307
0.0118306760150351
0.0103609729194586
0.00918277520163364
0.00840762056073731
0.00852274031205206
0.0104025094630358
0.0105661329978657
0.00994795510211562
0.00875794245818532
0.00674354968929233
0.00461891611524311
0.00286190162232873
0.00186985969507148
0.00150399299493753
0.00113370204558965
0.00085723440347791
0.00069984941077948
0.000629065293641062
0.000603531845796851
0.000604679511881855
0.000622120621910797
0.000658782616119753
0.000719580600842918
0.000809275347038372
0.00092915564424079
0.00108003193250281
0.00126377760294821
0.00147900214181801
0.00172217204011653
0.0019899439601802
0.00228254616247416
0.00260078635186762
0.00293830231577282
0.00329019782849887
0.00365454983028923
0.00403598882813824
0.00445101105015597
0.00493268558660781
0.00553004695615044
0.00611610236606189
0.00663220276750673
0.00709452555854989
0.00751480059330747
0.00790163913991532
0.00826006962291537
0.0085895232622124
0.00889310700022886
0.00917333479743374
0.00943155480714015
0.00966866066163976
0.00988531449261455
0.0100820611017604
0.0102593824849438
0.0104177533368407
0.0105576727915534
0.0106796824671067
0.0107843751988937
0.0108723927464395
0.0109444194372723
0.0110011736395565
0.0110433939824051
0.0110718344360532
0.011087252108929
0.0110903967354452
0.0110820067239821
0.0110628011279606
0.0110334783232458
0.0109947095310539
0.010947145158632
0.010891395907662
0.0108280095210366
0.0107573404476962
0.010679691099042
0.0105954689884373
0.010505076622276
0.0104091663031851
0.010308122638683
0.0102026717866427
0.0100928423307418
0.00997850624960595
0.00985960743083845
0.00973607714983886
0.00960786447203558
0.00947468295532303
0.00933603457366573
0.00919113263538588
0.00903888028701886
0.00887756848207754
0.00870474564880263
0.00851628633540324
0.00830665706140027
0.00805336554194831
0.00786084786219177
0.00792114436743965
0.00811299060453321
0.00838164609296418
0.00869531855658781
0.00904381213185351
0.0094221877746554
0.00983035040166733
0.0102730126259899
0.0107290165854972
0.011168919937134
0.0115726412583984
0.0119246158214931
0.0122124879160276
0.0124188535958021
0.0125518773771357
0.0126512308803156
0.0127473901368367
0.0128619133244995
0.0130246065034063
0.0132688395365195
0.0136379717873812
0.014069986824506
0.0145191787873774
0.014972367617892
0.0153602299558494
0.015588039116825
0.015299331565694
0.0142471825656323
0.0126979385323034
0.0113181400249131
0.0102895697429268
0.0102091128792669
0.0117733177300052
0.0118739802660367
0.0112995048941294
0.0102155733472221
0.00826631650281475
0.00608747626884977
0.00422388678548503
0.00278939860220515
0.00218372706733415
0.00165729967459429
0.00126881894506582
0.00104104478224387
0.000932410216517891
0.000888750529028663
0.000882676118944755
0.000899057819872344
0.00094065076448234
0.0010128342859988
0.00112034112932463
0.00126342432094984
0.00144190044262836
0.00165671951512703
0.00190534935945425
0.00218367373943471
0.00248853672946335
0.00282047955150845
0.00318007884402847
0.00356135855204832
0.00396056748137574
0.00437741503814197
0.00481804952189262
0.00529878689899401
0.00584802253531974
0.00649864788579517
0.00712939853498761
0.00768760119133162
0.00818862902305928
0.00864467117588941
0.00906441691182106
0.00945226213835562
0.00980836461230224
0.0101367348902488
0.0104396775920282
0.0107185797688253
0.0109744226742702
0.0112079585569423
0.0114198136572395
0.0116105442654082
0.0117806947399616
0.0119308313728941
0.0120615622465924
0.012173546739285
0.0122674936332137
0.0123441547561074
0.012404316245353
0.0124487837470107
0.0124783781929564
0.0124939221948388
0.0124962291659852
0.0124860988727747
0.0124643088168296
0.0124316117852825
0.0123887298430926
0.0123363594892697
0.0122751595354677
0.0122057252877497
0.0121284542781841
0.0120436864066481
0.0119518652388872
0.011853410957369
0.0117490314562655
0.0116394137988123
0.0115250451599205
0.0114059040546135
0.0112819195700802
0.0111530683896248
0.0110193178829815
0.0108806319057173
0.010736751763431
0.0105872152471803
0.010431267691372
0.0102678907882019
0.0100954585984276
0.0099117509465178
0.00971291066875892
0.00949410366197898
0.00923578477357419
0.00903617480747287
0.00907718473265436
0.00926233726267533
0.00953545401326567
0.00986333415993236
0.0102330906878743
0.010638299218196
0.0110775496811895
0.0115533275303204
0.0120445097007422
0.0125214323054714
0.0129627139396476
0.013352125212191
0.0136770328029463
0.0139218288724172
0.0140947863043741
0.0142332366239728
0.0143674162385725
0.014520015336912
0.0147206519255527
0.0150034792385846
0.0154073530166423
0.0158788984248883
0.0163719186210458
0.0168696063232947
0.0172989885385095
0.017564754559794
0.017316088449129
0.0163290890317015
0.014788880111526
0.0133020783908549
0.0120606155026072
0.0117334576226503
0.0130463172725
0.0130386377921162
0.0124761830604784
0.01145264159828
0.00963273912611992
0.0074781465013316
0.00565607757581998
0.00388622296112066
0.00293707419319054
0.00223445835487854
0.00172811389465592
0.00142435379617883
0.00127150960488442
0.00120516393227838
0.00118795321377622
0.00119999452699298
0.00124319541236359
0.0013229460954007
0.00144364109286496
0.00160462195254258
0.00180492247147774
0.00204467447797169
0.00232055863903058
0.00262825210658629
0.00296491746949215
0.00333127949327648
0.0037277054853669
0.00414876511562819
0.00459167947926631
0.0050572865277486
0.00555229524003126
0.0060916663503912
0.00669907075535595
0.00739502710977132
0.00806528360821897
0.00866125205112313
0.00919742715670645
0.00968612330707212
0.0101360908826277
0.010550512201644
0.0109313134943684
0.0112825097882901
0.0116063348581711
0.0119042341702378
0.0121772724221534
0.0124262848231483
0.0126519726234283
0.0128549603788967
0.013035856562296
0.013195289296386
0.0133339280230352
0.0134524938072464
0.0135517577891643
0.0136325348205542
0.0136956746224611
0.0137420456730696
0.0137725320040271
0.0137880180399352
0.0137893772883356
0.0137774675251206
0.0137531214423927
0.0137171431768771
0.0136703025321863
0.0136133391619479
0.0135469573042649
0.0134717985499145
0.0133883018451245
0.0132968434428119
0.0131979026495978
0.0130919132336836
0.012979820277099
0.0128622866121258
0.0127396201933355
0.0126118579436483
0.0124789735442195
0.012340972663125
0.0121978529569986
0.012049597813679
0.0118959791045015
0.0117365738587892
0.0115706713401539
0.0113973365217981
0.0112150508010101
0.0110218262962336
0.0108141266352419
0.0105878026220729
0.0103264309418073
0.0101217643942626
0.010145544854852
0.010322360974671
0.0105965517741576
0.0109341187374195
0.0113199678633083
0.0117462543510817
0.0122102422321418
0.0127123083058314
0.0132312041271184
0.0137371652144379
0.0142078881699672
0.0146267365363509
0.0149810471526391
0.0152569194802953
0.0154629324300491
0.0156344095638462
0.0158009456955253
0.0159859168373788
0.0162184947108494
0.0165332692202676
0.0169650377683522
0.0174671130644953
0.0179942778087357
0.0185262968883278
0.0189880852166343
0.0192813991517801
0.0190630489268453
0.0181310822094131
0.0166366250814255
0.015113721092618
0.0137417930251087
0.0131861701657262
0.0142765122374162
0.0141335333841957
0.0135592094538522
0.0125372936510177
0.0108703143340156
0.00875825446619019
0.00709276096561972
0.00511596386396077
0.00376058237609196
0.00284719109664619
0.0022140475072578
0.00182903717945044
0.0016285636700195
0.00153654205284842
0.00150572358809798
0.00151155633359727
0.00155437397653225
0.0016391389093671
0.00176972370431012
0.00194477663477521
0.00216276927787348
0.00242316973317874
0.00272216250314401
0.00305541373016602
0.00342039888952877
0.0038179378066648
0.00424824118520799
0.00470641836092715
0.00519040998330232
0.00570171396790765
0.00624694261012956
0.0068392011213791
0.00749803818960356
0.00823472899323743
0.00894159819583861
0.00957282335858729
0.0101420808007691
0.0106615704525554
0.0111400705993244
0.0115795111564158
0.0119837772974999
0.012356575026253
0.0127001334575773
0.0130159665392567
0.0133052210047417
0.0135688118321023
0.0138075123530697
0.0140220123771278
0.0142129817255766
0.0143811075936867
0.0145271181107103
0.014651793492753
0.0147559647815642
0.0148405074818199
0.0149063327395537
0.0149543695560126
0.0149855630267632
0.0150008574108434
0.0150011843350045
0.0149874577637881
0.0149605637698371
0.0149213561257404
0.0148706505672619
0.0148092280625336
0.0147378366789593
0.0146571638364786
0.0145676885631368
0.0144698228065351
0.0143640822234519
0.0142510041350737
0.0141317202147976
0.0140066462779387
0.013876114388176
0.0137402099445026
0.0135989445252151
0.0134523508492936
0.0133004545509913
0.0131432616084213
0.0129805769436869
0.0128120191158906
0.0126369293304925
0.0124544586247075
0.0122632109726909
0.012061427951444
0.0118459214301802
0.0116132055747727
0.0113499964553794
0.0111415622987138
0.0111500620583507
0.0113177924653474
0.011590773953162
0.0119347380330802
0.0123328182360389
0.0127758413608559
0.0132597540265965
0.0137829491685848
0.0143239234770506
0.0148528691421419
0.0153468486235589
0.0157890295869252
0.0161669249231808
0.016468236301105
0.0167019074093508
0.0169015156330181
0.0170957934846925
0.0173084667429408
0.0175681259184706
0.0179094356703683
0.0183637402687736
0.0188895285363912
0.0194433144820789
0.0200015479750171
0.0204879990593416
0.0207998106968504
0.0206021653889792
0.0197105149778256
0.0182701656764009
0.0167485828797093
0.0153181456281979
0.0145847979124688
0.0154714294819093
0.0151906062801468
0.0145915250830205
0.0135261832320611
0.0120084643527951
0.00992441065024015
0.00842262406879127
0.00644282098142509
0.00467478489789365
0.00349450873405867
0.00271864495582074
0.00224579192674442
0.00199422783687138
0.00187421146619358
0.00182823302507886
0.00182691696898187
0.00186829839586383
0.00195648506409595
0.0020947048696712
0.00228112088308343
0.0025138446611431
0.00279185951349737
0.00311107743850369
0.00346724777815837
0.00385811556550247
0.00428455038137185
0.00474665091405332
0.00523998252301075
0.00576296018325947
0.00631737062024612
0.00690933269590753
0.00754998361951729
0.00825548695602405
0.00903016661711525
0.00977195073026099
0.0104369594123516
0.0110380944888797
0.011587263038876
0.0120929769162846
0.0125568513728862
0.0129838206222597
0.013377461218907
0.0137400348981209
0.0140731303640862
0.0143779765296764
0.0146555671443023
0.0149067467203387
0.0151322690786037
0.0153328643327028
0.015509277594838
0.0156622945562703
0.0157927535468595
0.0159015444916093
0.0159896025527033
0.016057899494139
0.0161074237535809
0.0161391806769513
0.0161541735204671
0.0161533911245688
0.0161378028456693
0.0161083472958568
0.0160659270678379
0.0160114028900235
0.0159455958849093
0.0158692970686064
0.0157832398003937
0.0156879420329462
0.0155838511052959
0.0154715349616627
0.0153518157238951
0.0152255672384367
0.0150932161684785
0.0149551213390023
0.0148114105998906
0.0146621295838326
0.0145073371879635
0.0143470863274224
0.0141814079100111
0.014010142034376
0.0138329505737345
0.0136492323259835
0.0134582263963497
0.0132586691283428
0.013049027671196
0.0128264746989697
0.012588161175536
0.0123234889297556
0.0121124087758569
0.0121074121547079
0.0122657878542445
0.012535950473638
0.0128838037240634
0.0132910902265416
0.0137474118558713
0.0142474183989424
0.014787637471634
0.0153462160710311
0.015893337787461
0.016405664915405
0.0168663555701121
0.0172632748503509
0.0175856247360381
0.0178426866556431
0.0180664698454915
0.0182847134208259
0.0185212330428482
0.018803955920524
0.0191672774850279
0.0196396806637243
0.0201837818132744
0.0207582044324038
0.0213361849690312
0.0218409431074416
0.0221639150471201
0.0219785168584433
0.0211140043881226
0.0197243103191466
0.0182202476556808
0.0167768597729623
0.0159183608398177
0.0166218024225192
0.0162165951950383
0.0155883230621826
0.0144590271563275
0.0130660866759073
0.0109865465418625
0.0096221001349798
0.0078299382720126
0.00571083988165644
0.00419147706478534
0.00324444090192031
0.00267404652566889
0.00236641542960424
0.00221569310574508
0.0021530688491777
0.00214384685359494
0.00218305678801788
0.00227352332312197
0.00241771400121687
0.00261345824583185
0.00285867629755985
0.00315203813439254
0.00348934537036056
0.00386647252038979
0.00428138875039282
0.00473499306888112
0.0052272978098471
0.00575421447622221
0.00631442450009063
0.00690973249318964
0.00754555487106299
0.0082311443456427
0.00897994621912049