/*--------------------------------*- C++ -*----------------------------------*\
  =========                 |
  \\      /  F ield         | OpenFOAM: The Open Source CFD Toolbox
   \\    /   O peration     | Website:  https://openfoam.org
    \\  /    A nd           | Version:  7
     \\/     M anipulation  |
\*---------------------------------------------------------------------------*/
FoamFile
{
    version     2.0;
    format      ascii;
    class       volScalarField;
    location    "20000";
    object      k_conv;
}
// * * * * * * * * * * * * * * * * * * * * * * * * * * * * * * * * * * * * * //

dimensions      [0 2 -3 0 0 0 0];

internalField   nonuniform List<scalar> 
15600
(
-3.18733456188921e-06
-4.50566572978663e-06
-2.56823646703434e-07
-2.48209788011107e-07
-8.53767410107449e-08
2.77443654286015e-08
5.27458705176205e-09
-5.31455847290261e-08
-4.7536527662279e-08
-2.70775693783801e-08
-1.30304468865219e-08
-4.96484614343077e-09
-1.57899820434558e-09
-8.7118332529127e-11
-1.82589448325048e-10
-3.15147537969578e-10
-5.04878784864595e-10
-7.81556220891745e-10
-1.15858491197706e-09
-1.67992570214117e-09
-2.4284737589492e-09
-3.44179663746661e-09
-4.73001240483196e-09
-6.28217357867851e-09
-8.20947962848201e-09
-1.06937637808813e-08
-1.33694380293888e-08
-1.59382750995828e-08
-1.81002444868212e-08
-1.99336141405605e-08
-2.20889716683222e-08
-2.792355554518e-08
-5.61591879477363e-08
-7.86328250970974e-08
-8.13533923592348e-08
-8.21132164452331e-08
-8.21154824162064e-08
-8.16472826430763e-08
-8.07563271876527e-08
-7.95671988195804e-08
-7.82169611619621e-08
-7.67863777443425e-08
-7.50963666441937e-08
-8.63018087750469e-08
-2.60654852980711e-07
-4.37445918827273e-07
-6.14253198386061e-07
-7.88366139384406e-07
-9.56998566893722e-07
-1.11748810800078e-06
-1.26739461151582e-06
-1.40465954178835e-06
-1.527664701086e-06
-1.63522750744141e-06
-1.72665092413003e-06
-1.80163765389423e-06
-1.86024202704916e-06
-1.90287590099248e-06
-1.93016386469082e-06
-1.94298566785976e-06
-1.94230291099385e-06
-1.92933940769362e-06
-1.90519880176181e-06
-1.8714245731771e-06
-1.82909940136283e-06
-1.77983876312519e-06
-1.72419099736908e-06
-1.66230276954579e-06
-1.59495084743804e-06
-1.5231402426811e-06
-1.44812670398492e-06
-1.37112903175594e-06
-1.29293400927849e-06
-1.21337285240907e-06
-1.13279983522104e-06
-1.05098501121371e-06
-9.68610683434404e-07
-8.85204115980473e-07
-8.01435677639475e-07
-7.14611492960237e-07
-6.26468486357593e-07
-5.3013561099463e-07
-4.30381779773913e-07
-3.09573490591104e-07
-1.81108486865949e-07
-5.4882621643604e-09
1.73663836154947e-09
-3.01613388248123e-09
-3.65418972739685e-07
-6.33327491713197e-07
-1.0660296076436e-06
-1.43257230979663e-06
-1.86467174246608e-06
-2.3534995226103e-06
-2.94369949084023e-06
-3.83346758859295e-06
-4.70418192116496e-06
-5.35439402179045e-06
-5.82310656429153e-06
-5.98867376282563e-06
-5.7658389589969e-06
-4.77200608960569e-06
-3.68859225817973e-06
-3.28761342144549e-06
-3.18173141979991e-06
-3.33214675055787e-06
-4.10221093351194e-06
-5.9267787372362e-06
-9.80437964009037e-06
-1.19612547495831e-05
-1.42415953769861e-05
-1.6787313396951e-05
-1.82396885451734e-05
-1.24607942321731e-05
-8.30725015738894e-07
-1.1152324349151e-06
-8.88663140012366e-07
-4.87717935583719e-07
-2.31182510028882e-07
-9.45535819502388e-07
-5.41109483448444e-05
-7.72030239920701e-05
-1.75870337892457e-05
-1.70785440776468e-05
-9.06096844092795e-06
2.68623306650999e-06
5.01671349464194e-07
-8.10574363386658e-07
-8.08526207453681e-07
-4.78069881288959e-07
-2.27098885113407e-07
-8.51553647012555e-08
-2.13338122426466e-08
-6.97972194233319e-09
-1.5453947190922e-08
-2.67652175019485e-08
-4.29597600415682e-08
-6.59425604806794e-08
-9.76817165201588e-08
-1.41935475077082e-07
-2.04621636227875e-07
-2.89346576111321e-07
-3.97835898431313e-07
-5.31072039712119e-07
-6.96153883936972e-07
-9.01349187381338e-07
-1.12485775265003e-06
-1.34408165949034e-06
-1.53589058238504e-06
-1.70082386300034e-06
-1.92322007148151e-06
-2.48414385840715e-06
-4.32697649976337e-06
-5.75842317549532e-06
-6.0309858754705e-06
-6.19509152474546e-06
-6.28599398057792e-06
-6.33933114399226e-06
-6.35999725417e-06
-6.36089993994498e-06
-6.35644071533706e-06
-6.35522838104077e-06
-6.33627958920971e-06
-9.42163848590611e-06
-1.29624681365649e-05
-1.64850023702616e-05
-1.99458004461379e-05
-2.3297851740512e-05
-2.6494418621488e-05
-2.94921846593708e-05
-3.22528658879424e-05
-3.47452737665044e-05
-3.69459733311055e-05
-3.88391087592936e-05
-4.04166750806782e-05
-4.16772209650451e-05
-4.26249950045179e-05
-4.32697096585744e-05
-4.36246203252458e-05
-4.37067565573678e-05
-4.35348861627009e-05
-4.3131380285219e-05
-4.2517867325191e-05
-4.17212545454475e-05
-4.07624028235296e-05
-3.96664043713254e-05
-3.84421932598826e-05
-3.70943382820035e-05
-3.56380718810709e-05
-3.40940036726364e-05
-3.24848920780059e-05
-3.0833020183001e-05
-2.91504046796256e-05
-2.74339071586258e-05
-2.5689907222377e-05
-2.39134258869214e-05
-2.21170326472536e-05
-2.02929244757231e-05
-1.8444842129524e-05
-1.65303077172004e-05
-1.45587463045388e-05
-1.23977463378618e-05
-1.00936919387344e-05
-7.41030536245685e-06
-4.41412011337469e-06
-4.74808843952324e-07
-6.76548903171748e-09
2.39430778063141e-07
-8.14272807734762e-06
-1.51500362271567e-05
-2.40130523236151e-05
-3.19125601889813e-05
-4.08015357684553e-05
-5.07653108854847e-05
-6.27743612528005e-05
-7.99194579176212e-05
-9.69745759740692e-05
-0.000110391891833415
-0.000120394336984156
-0.000125181597284277
-0.000122769930626658
-0.000107232555708976
-8.83210427886715e-05
-7.87079807363137e-05
-7.4934168811823e-05
-7.66367815178922e-05
-8.90118153360804e-05
-0.000121341132725517
-0.000187114568360226
-0.000235432461881342
-0.000283642089651314
-0.000334618592846216
-0.000369504476777565
-0.000290508350867421
-5.80942147416641e-05
-6.45770794074823e-05
-5.36238695119887e-05
-3.08258359177907e-05
-1.34979362507846e-05
2.24767796848402e-06
-0.000182994152592432
-0.000318355892008819
-0.000135443858289628
-0.000119660870849621
-7.68867063746197e-05
2.13845836876553e-05
7.84023447670134e-06
-2.18011112612544e-06
-3.34227515299217e-06
-2.07189994848673e-06
-9.68030993437915e-07
-3.42741021687441e-07
-4.35919672889709e-08
-6.01819859564745e-08
-1.50661117879109e-07
-2.69967736708497e-07
-4.37325743376833e-07
-6.70816368222631e-07
-9.95855301390282e-07
-1.45028113566677e-06
-2.0858461682113e-06
-2.94234017678705e-06
-4.04572619176241e-06
-5.4108225242754e-06
-7.07995803642737e-06
-9.1020926625048e-06
-1.1316672055178e-05
-1.35274118754178e-05
-1.54974212075386e-05
-1.72172652631835e-05
-1.9415240741777e-05
-2.39940126866624e-05
-3.82378680788625e-05
-4.88579168888369e-05
-5.19167927661148e-05
-5.48311055443353e-05
-5.67992162206117e-05
-5.84631403396635e-05
-5.98338328258664e-05
-6.10910476823677e-05
-6.24015224030354e-05
-6.387891723082e-05
-7.51479777911641e-05
-9.02802420017362e-05
-0.000104435336559867
-0.000118022505637103
-0.00013093796633003
-0.000143073317470158
-0.000154326001432507
-0.000164607004877736
-0.000173844122062049
-0.000181985056133962
-0.000188997605381434
-0.000194868208132991
-0.000199601089821308
-0.000203215138285588
-0.000205741303080477
-0.000207221779470728
-0.000207706279004561
-0.000207252311072339
-0.000205921907678533
-0.000203785428241648
-0.000200913418622647
-0.000197387160768988
-0.000193270135804145
-0.000188624585576147
-0.000183467602773797
-0.000177813044528643
-0.000171711105860512
-0.000165238171842671
-0.000158465920858818
-0.000151470406565585
-0.000144281120888216
-0.000136876090545719
-0.000129275741929276
-0.000121448953018668
-0.000113439217867027
-0.000105216387163036
-9.63056134323073e-05
-8.72021209683963e-05
-7.79009216755334e-05
-6.77306905489738e-05
-5.66172650479042e-05
-4.3454063123068e-05
-2.81056496274595e-05
-7.80436515583691e-06
-1.44059034125933e-06
2.6666012285245e-06
-4.10335847228681e-05
-7.86935879858891e-05
-0.000119613253820499
-0.00015652460734342
-0.000196392506753362
-0.00024053682510413
-0.000293358716842134
-0.000365112252242046
-0.00043875488637859
-0.000501606196799716
-0.000552667281041825
-0.000585954679195583
-0.000592167215993093
-0.000550551932838946
-0.000486908688427613
-0.000444574455586518
-0.000423889918236107
-0.00042739967732868
-0.000472653243589743
-0.000602274139531376
-0.000856657987870856
-0.00108681850715179
-0.00130663426675858
-0.0015190206188497
-0.00167215432182376
-0.00144711142489931
-0.000480347938716579
-0.000411220979753932
-0.00028810536433227
-0.000138493453602825
-3.81830103198594e-05
4.97342100476357e-05
-5.94711452143339e-05
-0.000483981779165519
-0.000389761280744843
-0.000277434555473384
-0.000253434222655767
5.12495723356881e-05
5.42741277568187e-05
5.17046498353726e-06
-5.69636562668328e-06
-4.02001349686593e-06
-1.7781448253858e-06
-4.68358849593684e-07
2.26865521242435e-07
-1.81887303603475e-07
-6.02268871468171e-07
-1.15618133516163e-06
-1.91744196963761e-06
-2.97246047859933e-06
-4.43811441598053e-06
-6.46926350117945e-06
-9.2626193755144e-06
-1.29727220386956e-05
-1.7690064469328e-05
-2.34024400455419e-05
-3.01395810093993e-05
-3.80096543615401e-05
-4.63718220397364e-05
-5.45091293776547e-05
-6.14766977776927e-05
-6.70969268828319e-05
-7.29185737032717e-05
-8.40912314347982e-05
-0.000125436142989328
-0.000150365613214888
-0.000159437766119462
-0.000171837632146593
-0.000180081930446003
-0.000187730721439075
-0.000194518834474223
-0.000201209087020198
-0.000208397014985828
-0.000227366564363509
-0.000254642782497774
-0.000274073469977211
-0.000291989514928625
-0.000308377646368136
-0.000323236383591669
-0.000336559815424423
-0.000348345210587772
-0.000358599567983972
-0.000367341176524822
-0.000374599027586357
-0.000380411866637475
-0.00038482620117178
-0.00038789420482317
-0.000389673111440484
-0.000390222159340039
-0.000389602832644961
-0.000387878231130195
-0.000385113313657624
-0.000381375376347918
-0.000376736872043777
-0.000371272234129665
-0.000365060527904883
-0.000358156694874862
-0.000350592728536564
-0.000342358579442173
-0.000333457213086198
-0.000323936364234953
-0.000313892700656148
-0.000303389643725192
-0.00029251454116667
-0.000281276143216856
-0.000269613331325231
-0.00025752839013909
-0.000244606873899032
-0.000229503371849785
-0.000215925912900101
-0.000201764271618776
-0.000186716621398412
-0.000170603656433356
-0.00015274328596375
-0.00013270163377309
-0.000108672617743657
-7.953756959075e-05
-4.00144785738208e-05
-1.09770018159647e-05
5.970644260565e-06
-7.55927152005767e-05
-0.000148960147021997
-0.000220725541484966
-0.000285727442763587
-0.000352923157821602
-0.000426140254832403
-0.000512595413158444
-0.000624544030697176
-0.000745121668850746
-0.000859406612751411
-0.000963429548686534
-0.00105017292182378
-0.00110400775545647
-0.00109867714714933
-0.00104935862856509
-0.000999966220041632
-0.000970907267188148
-0.000977886538055847
-0.0010431348132293
-0.00124693794899008
-0.00162934866255579
-0.00206782626192913
-0.00249448085635717
-0.00287701060239109
-0.00319004615004511
-0.00301827843971353
-0.00150661314301806
-0.0010605211250538
-0.000346291042582379
0.000216894945222533
0.000357224344284118
0.00048326892147723
0.000678749520415771
-0.000212510774976196
-0.000506034586355494
-1.27936810950943e-05
-0.000223513813285462
5.38211720922359e-05
0.000240146453617156
4.05824903871295e-05
2.40440822553187e-06
-1.26305920202966e-06
2.68401582824671e-09
9.81488689619767e-07
1.54343297641892e-06
-1.23394843979811e-07
-1.3989775816111e-06
-3.06550233190061e-06
-5.31157083868932e-06
-8.39042556810298e-06
-1.25830153988604e-05
-1.82164910747385e-05
-2.56673609270986e-05
-3.51094051260354e-05
-4.64608977473923e-05
-5.9258056381725e-05
-7.32042187202376e-05
-8.83939936104058e-05
-0.000103430038685439
-0.000117404563751544
-0.000128898177860349
-0.000137762144937263
-0.000146150070292468
-0.000164183784535314
-0.000226089098155017
-0.000250853724915416
-0.000272301221732682
-0.000301008437661242
-0.00031883957169278
-0.000335035827264622
-0.000348799596051508
-0.000361823693628514
-0.000377750780942302
-0.000413916645870184
-0.000428835072068415
-0.000442319036995428
-0.000454042790212897
-0.00046409582055418
-0.000472563356724934
-0.000479528550973795
-0.000485073231700917
-0.000489281331776249
-0.000492237487295998
-0.000494023693377235
-0.000494718212934489
-0.000494393950849333
-0.000493116687233457
-0.000490947845687063
-0.000487941138607711
-0.000484144857535736
-0.000479603847844003
-0.000474360079247604
-0.000468455633409416
-0.000461935351941307
-0.0004548469597522
-0.000447240066877546
-0.000439138851106174
-0.000430534835690343
-0.00042138855998137
-0.000411681918592617
-0.000401438049864493
-0.000390739981262352
-0.000379618298022813
-0.000368144627141383
-0.000356304864787534
-0.000344018535906309
-0.000327678737631826
-0.000313725315326787
-0.000299753429454051
-0.000285144969144548
-0.000269816453361204
-0.000253448679037449
-0.000235766016644244
-0.000216071030863669
-0.000193697029559483
-0.000166792755420195
-0.000133582454121075
-8.80649575212347e-05
-3.11967039250706e-05
-1.50895835018214e-06
-8.40195811561317e-05
-0.000163145978083664
-0.000238689526572439
-0.000308184249068981
-0.000377373651277959
-0.000451030763104609
-0.000536277707205054
-0.000642628446873763
-0.00076201760682979
-0.000884959454134021
-0.00100662361897993
-0.00112229339251825
-0.00121658436399258
-0.00126970439698311
-0.00127917071969927
-0.00126082203413978
-0.00124211819957046
-0.00125044279497822
-0.00129891757823309
-0.00148282644981973
-0.00181131722723906
-0.0023030873060517
-0.0028442605316402
-0.00334142957028007
-0.00386256255194785
-0.00400282310891172
-0.00341831413855433
-0.00208902390220841
-0.000461324603618645
0.00129244454350575
0.00171175020154256
0.00179069343979626
0.00150187928485975
0.000285053712323757
-0.000490204882658283
0.000759065788879402
0.000527667465327876
0.000337659333962431
0.000632666634530396
0.000114808144128807
4.53029494746305e-05
1.86118925674651e-05
1.0941317237265e-05
7.47766302272976e-06
4.81549487699349e-06
1.17973471217298e-06
-1.74861567684346e-06
-5.47519319721219e-06
-1.03561598697256e-05
-1.686222303011e-05
-2.53167319106304e-05
-3.60073773512057e-05
-4.91960025663404e-05
-6.46094866124479e-05
-8.16460306182835e-05
-9.93848133988921e-05
-0.00011777952399106
-0.00013747687020421
-0.000157166514715849
-0.000176914605705107
-0.000195437573757726
-0.000213285075621814
-0.00023423852501474
-0.000271061779675429
-0.00034196774042201
-0.0003606036709948
-0.000397225303552228
-0.000435275353149102
-0.000456486059836779
-0.000474556698309002
-0.000488667629153963
-0.000500512558439816
-0.000534369629262539
-0.000542444358945888
-0.000550083764322617
-0.000556311883030247
-0.000561057993069249
-0.00056442901120341
-0.000566527705803694
-0.000567460269453207
-0.000567332362818735
-0.000566249790704178
-0.000564314087630614
-0.000561617821758173
-0.000558243118578469
-0.000554260096509629
-0.000549725535427641
-0.000544687770318499
-0.000539182514603047
-0.00053323697958339
-0.000526872767124677
-0.000520106916114075
-0.000512955617904641
-0.000505437782027415
-0.000497575726388427
-0.000489395871423704
-0.000480899354052538
-0.000472055140305182
-0.000462804250972483
-0.000453108878584514
-0.000442970652772045
-0.000432454981635923
-0.000421571608609021
-0.000410378798806681
-0.000398340918319142
-0.000381644332914752
-0.000369010748463317
-0.00035583528145487
-0.000342138314480716
-0.000327804078932809
-0.000312721810693587
-0.000296596223610005
-0.000279117865774093
-0.000259638701794593
-0.000237416667495662
-0.000210739343565731
-0.000177632975971917
-0.000132295699586373
-6.44836706237855e-05
-2.73871458765852e-05
-8.94630438305248e-05
-0.000155540568549258
-0.000221861759478464
-0.000284338011879837
-0.000345112387186051
-0.000408188190996069
-0.000479625051678353
-0.000566705917079831
-0.00066729126205234
-0.000777266752965847
-0.000892845881239766
-0.00101104905903405
-0.00111861869517903
-0.00120064114857653
-0.00124670362338157
-0.00125287490766648
-0.00124017153801642
-0.00123896538686208
-0.00125322382021527
-0.00137726446526613
-0.00160159131698066
-0.002027429209402
-0.00257891791078029
-0.00311828464822622
-0.00380750740090623
-0.00424354282492382
-0.0044048899375554
-0.00330155842537011
-0.00179973028733603
0.00116154938352093
0.0024224201250097
0.00312022521595275
0.00183886627492508
0.000737489420784075
-0.000609109032729079
0.00130587944516684
0.00150573588620972
0.00139027004754174
0.0011332148976624
0.000324299553731287
0.00015691820062021
7.38590168632015e-05
4.1478078788434e-05
2.48408757079329e-05
1.36241649231587e-05
6.24568181992939e-06
7.77426630752552e-07
-5.85098416738338e-06
-1.41806755524434e-05
-2.48105676328058e-05
-3.77784053331753e-05
-5.31010292552876e-05
-7.08096686394934e-05
-9.02880375347479e-05
-0.000111094210520805
-0.000132864611037952
-0.000156383208490355
-0.00018238829303827
-0.00020966850111138
-0.000239049872936289
-0.000269474758130244
-0.0003026676486429
-0.000343625588704622
-0.00040197639944742
-0.000471140867808018
-0.000484260571799474
-0.000526859907518703
-0.000562346270213228
-0.00057973477715747
-0.00059355013794641
-0.000603332451795073
-0.000615346170166383
-0.000632668636620763
-0.000635215265581688
-0.000637038481001996
-0.000637704203700552
-0.000637213620017298
-0.000635664581989456
-0.000633154388466452
-0.00062978929067508
-0.000625677835635024
-0.000620929415392542
-0.000615647197757284
-0.000609922611366662
-0.00060383324528848
-0.00059744117669184
-0.000590791722638271
-0.000583919956768161
-0.000576845372205671
-0.000569577531100361
-0.000562119266306118
-0.000554468090755572
-0.000546620148267201
-0.000538574829098593
-0.000530335393879038
-0.000521912796060719
-0.000513293414198849
-0.000504434780905444
-0.000495264420969077
-0.000485727314574675
-0.000475808642491486
-0.000465557038254039
-0.000454972611793557
-0.000443702761728553
-0.000426812266045632
-0.000414954591496662
-0.000402625666652411
-0.0003897887385507
-0.00037643126446078
-0.000362442072564115
-0.000347696425332984
-0.000331919308915697
-0.000314789970128845
-0.00029569853644096
-0.000273881066387287
-0.00024773659721841
-0.000215243661110688
-0.000170935620646273
-0.000101572932493527
-5.97161433467281e-05
-0.000100695256069381
-0.000149198366562394
-0.000203303075640757
-0.000256080695589395
-0.000306918660764341
-0.000358510083835863
-0.000415816449904943
-0.000485025477183472
-0.000566946028769589
-0.00066119047323272
-0.00076553000989208
-0.000877764088740117
-0.000986424361722843
-0.00107804237910767
-0.00113895149631229
-0.001156276449712
-0.00114295308053925
-0.00112700749792648
-0.00110746997314082
-0.00116957258167446
-0.00130571286126024
-0.00163223260535063
-0.00212967371473029
-0.00264227340904863
-0.00340094117960485
-0.00400425161828466
-0.0047391348998151
-0.00415416467388953
-0.00349964093812782
-0.000415029064328372
0.0013425541280648
0.00331659452594075
0.00177141071204253
0.000932555443657053
-0.000799397172448045
0.00139204957428616
0.00210757031264911
0.00274182100875652
0.00192343570271882
0.000757643325211244
0.000357548910536764
0.000175083549447058
9.99143728731389e-05
5.87450729377292e-05
3.15078335674702e-05
1.84451493329091e-05
9.50252890063755e-06
-6.40503237377471e-07
-1.28239752119651e-05
-2.7728546130023e-05
-4.50125582194041e-05
-6.46374520718465e-05
-8.66326995862333e-05
-0.000110384200108394
-0.000136007253666493
-0.000163738002862096
-0.000194527905996666
-0.000228483858413192
-0.000264731058287475
-0.000304805554049511
-0.000348232190582892
-0.000397634246903609
-0.000457501279820778
-0.00053142198915762
-0.000593320074638061
-0.00060282475021453
-0.000643470888678402
-0.000671257986018165
-0.000682531082235972
-0.000690490343016883
-0.000694573532889996
-0.000712064869700288
-0.000709577078653953
-0.000707805555956381
-0.000705348583632061
-0.000701989352649221
-0.000697751223036708
-0.000692717879819658
-0.000686975844776234
-0.000680624975664623
-0.000673770270799316
-0.000666519045790895
-0.00065897166007758
-0.000651215423682276
-0.000643321877486263
-0.000635345021241149
-0.000627319783888842
-0.000619270184556481
-0.000611202541737118
-0.000603112461992661
-0.000594988201441348
-0.000586812242160621
-0.000578565424772493
-0.000570232431791028
-0.000561802368117064
-0.000553275763959356
-0.00054462970242423
-0.000535816292163998
-0.000526753072950502
-0.000517369732064355
-0.000507638935993957
-0.000497592687832308
-0.000487229737316432
-0.000470507065986365
-0.000458576797468928
-0.000446894266134242
-0.000434768016223153
-0.00042214737364402
-0.000408999211406593
-0.000395215161517874
-0.000380662139910046
-0.000365077268806335
-0.00034813392716787
-0.000329242580629039
-0.000307628383894961
-0.00028175571595399
-0.000249580536165722
-0.000205927354893495
-0.000136480825300751
-9.10811348755406e-05
-0.000116624026781119
-0.000148246391860533
-0.000190114834324211
-0.000233095199874109
-0.000274570214245301
-0.000315922873950381
-0.000361167390336404
-0.00041611323408224
-0.000482945809692996
-0.000563719460719455
-0.000657705663502392
-0.000762948616985142
-0.00086920016306059
-0.000962579179819627
-0.00102760401599216
-0.00104816261138505
-0.00103117679556664
-0.00100029472218715
-0.000952734903376852
-0.00096172404918708
-0.00103279028929993
-0.00126934370780095
-0.00169454953208709
-0.00215369800467904
-0.00292071735189826
-0.0036111289671822
-0.00474541280044161
-0.00466879195238217
-0.00468393923098887
-0.00206510327435475
-0.000589048086627121
0.00226061780083464
0.000999102885045083
0.000704049205149338
-0.00101347171660242
0.00110308314138575
0.00237521935839042
0.00383970444157598
0.00287835606141722
0.00149574956567409
0.000516578035880633
0.000314308421149737
0.000184235602312277
0.00010756397335422
6.02171997366307e-05
3.92118848095403e-05
2.5511151950391e-05
1.11054264617241e-05
-5.4618056903873e-06
-2.50352145888003e-05
-4.70361568937239e-05
-7.15591496648337e-05
-9.8563152062762e-05
-0.000127454791328507
-0.00015884377847303
-0.000193343989422269
-0.000231712798607949
-0.00027349823697908
-0.000318532288201114
-0.000368909510845697
-0.000424696670130205
-0.000488627673005899
-0.000563410359323986
-0.000646799664727666
-0.000700364711709297
-0.000707205056732932
-0.000742396089988785
-0.000762047083325566
-0.000767488022567621
-0.000770089519165263
-0.000767673465029191
-0.000778594557620005
-0.000773225783014166
-0.000768193856889361
-0.000762605233490874
-0.000756339216447712
-0.000749424527677245
-0.000741929350281578
-0.000733927414363574
-0.000725509451096115
-0.000716773859285819
-0.000707823217103621
-0.000698753115027156
-0.000689645566472946
-0.00068056574765623
-0.000671560170491713
-0.000662654501277932
-0.0006538636191417
-0.000645183037571009
-0.00063659713085447
-0.000628082648714845
-0.000619610257643233
-0.0006111489052671
-0.000602671946065508
-0.000594157800107346
-0.000585599848620914
-0.000576969472072911
-0.000568217006591965
-0.000559252383674031
-0.000549991429240698
-0.000540397574103318
-0.000530485152405611
-0.000515477231379388
-0.000502153257975356
-0.00049094431580343
-0.0004793404623524
-0.000467301218121483
-0.000454766849469064
-0.000441690018677412
-0.000427962728959781
-0.0004134453753784
-0.000397880923258068
-0.000380936743732145
-0.000362030311602762
-0.000340373838959653
-0.000314463204468919
-0.000282222323467824
-0.000238699376148674
-0.00016857651527105
-0.000120348815466227
-0.000135535307565588
-0.000152246551843055
-0.000182600569630172
-0.00021625876572072
-0.000249184271904636
-0.000281616975239695
-0.000316793485260431
-0.000360525726388278
-0.000415598417555199
-0.000485657006921825
-0.000571238992915825
-0.000670352707696976
-0.000773489796646678
-0.000865586128782541
-0.000929874204668952
-0.00094962763806168
-0.000927968666001206
-0.0008837602537879
-0.000814078749393223
-0.000780173243575962
-0.000803667792687913
-0.000969093327653377
-0.00132525107426174
-0.00173041855036689
-0.0024810925448695
-0.0032289844423855
-0.00464723073084242
-0.00503471685232031
-0.00546944972109127
-0.00329233887844529
-0.00228931671819255
0.000631061223131207
-0.000114937566972452
-1.61649259783293e-05
-0.00127029071562547
0.000512030280867122
0.0025769325431824
0.00455446437701371
0.00437218181577996
0.00190622627217455
0.000780890065350902
0.000479027707266105
0.000285351717195062
0.00015715821929166
9.78709326717326e-05
6.6573495194109e-05
4.65661364582912e-05
2.71170568264166e-05
5.73324140852432e-06
-1.87356268228072e-05
-4.56896906472053e-05
-7.53825961304133e-05
-0.000107583107832056
-0.000141783536081358
-0.000179018076699837
-0.000220154104629753
-0.000265680130193796
-0.000314813158066261
-0.000368159732222062
-0.000428123281640799
-0.000495070813536906
-0.000571190199663468
-0.000656962600045701
-0.000745715675969881
-0.000791824098506523
-0.000796563860361208
-0.000825574302362781
-0.000838220009288078
-0.000838746978901621
-0.000837108017356574
-0.000833279601006517
-0.000835610011117309
-0.000827918715477743
-0.000820458149351594
-0.00081259244559292
-0.000804245884313979
-0.000795444923612374
-0.000786241424957282
-0.000776694776944394
-0.000766884822741213
-0.000756901250932502
-0.000746840119440345
-0.000736790971672437
-0.000726829753785125
-0.000717015114443922
-0.000707386582715001
-0.000697961343519981
-0.000688746585279535
-0.000679728743443107
-0.000670882933159349
-0.000662176656917267
-0.000653571122617159
-0.000645025905938232
-0.000636505517703838
-0.000627980226480454
-0.000619438504921958
-0.000610848494011385
-0.000602161310714787
-0.000593281067044296
-0.000584110768917439
-0.000574607705433464
-0.000561916711650054
-0.000546611107844951
-0.000535703015207389
-0.000524479611218053
-0.000512866460895203
-0.000500813349373555
-0.000488253757746913
-0.000475129572476001
-0.000461331304546503
-0.000446713058694219
-0.00043101922212901
-0.000413909276080814
-0.000394798489738701
-0.000372880583115845
-0.000346660217478913
-0.000314013276878644
-0.000270148224317012
-0.000198489258570946
-0.000147953037384453
-0.000156365477249177
-0.000160194308481348
-0.000179900960716651
-0.000204786285908066
-0.000229857202128986
-0.000254419235159019
-0.00028109090806251
-0.000315874480393255
-0.000361760748623901
-0.000423426560628857
-0.000502400150137136
-0.000596485661585821
-0.000696532457390023
-0.000786048529717193
-0.000847317941354181
-0.000864179041456117
-0.000837607377716806
-0.000781941296969346
-0.00069485943986511
-0.000627011155917286
-0.000614851638890135
-0.000725857454093577
-0.00102165906165227
-0.00138078098996988
-0.00210779219143989
-0.00290699432970429
-0.00453803412551332
-0.0053294618808284
-0.00603630130127806
-0.00424307246269568
-0.00347882413111158
-0.0009692023209365
-0.0012506178037216
-0.000900289208489309
-0.00155365635246858
-0.000301460735529225
0.00286368192986471
0.00472172492935805
0.00626631069390599
0.00225303263274218
0.00115234676128884
0.000609212500471639
0.000384304605364928
0.000222949315796311
0.000141136754411995
9.75140570663806e-05
6.9831104142277e-05
4.48769261857418e-05
1.87148983803475e-05
-1.03295347811965e-05
-4.19146716040152e-05
-7.64703389148959e-05
-0.000113558452488635
-0.000152830024697757
-0.000195635904888661
-0.000243004300168413
-0.000295178483793676
-0.000351207247976779
-0.000412357808369231
-0.000481120763608318
-0.000557908493252899
-0.00064399958654615
-0.000737735986333881
-0.000829521019257697
-0.000869706902202612
-0.000872795275641746
-0.000896056717540621
-0.000903048148246725
-0.000899553274740417
-0.000894520671723951
-0.000896536952175107
-0.000885575154429165
-0.000876101826139209
-0.00086687369563242
-0.000857394569857397
-0.000847608758909161
-0.000837536004893034
-0.000827211021617342
-0.000816677267356747
-0.000806002281226543
-0.000795265257952757
-0.000784554275553993
-0.000773951775618841
-0.000763526948576742
-0.000753331701543084
-0.000743398924304283
-0.000733737786282262
-0.000724348880544566
-0.000715210836090922
-0.000706290980625852
-0.000697549297158724
-0.000688939345931379
-0.000680413285562682
-0.000671928716520323
-0.000663449695261944
-0.000654961393323387
-0.000646430461676461
-0.000637810844674551
-0.000629002252819394
-0.000619895541225779
-0.000609921670049764
-0.00059239056155146
-0.000581679022635269
-0.000570700651637361
-0.000559400357544597
-0.000547702359009024
-0.000535550060113691
-0.000522871479370273
-0.000509599659655957
-0.000495622254290313
-0.000480786659475243
-0.000464835525782978
-0.000447418114879134
-0.000427940960895032
-0.00040557330953007
-0.000378813070188951
-0.000345473863614993
-0.000300869568869048
-0.00023857715423547
-0.000177658883908269
-0.000178556433249964
-0.00017125181175326
-0.000181162414871895
-0.000197787476268465
-0.000215551116851226
-0.000233035481768688
-0.000252387075926858
-0.000279882208023888
-0.000318510889012237
-0.000373602049380335
-0.00044740354140185
-0.000537394931796438
-0.000634482767062692
-0.000720749081168614
-0.000777857692879928
-0.000790731147362974
-0.00075930849586787
-0.000693889406977448
-0.000593006743838095
-0.000498542845271515
-0.000458857847110264
-0.000527920963928827
-0.000771832662094285
-0.00109373291166332
-0.00179670625014964
-0.00264936035030432
-0.00445057525021221
-0.00558856069135174
-0.00646411915690389
-0.0050327985275299
-0.0043000980554878
-0.00230279697775019
-0.00224294365430346
-0.00187833306410171
-0.00185544321047019
-0.00122783236334861
0.00319105816332567
0.00436026908559937
0.00750089258811046
0.00271684154638945
0.00166441333375874
0.000770479598258751
0.000474811265899403
0.000294668357087324
0.000188050349357127
0.000130402391236487
9.39404923563069e-05
6.32644583055125e-05
3.26715526708244e-05
-3.11869723820266e-07
-3.58947211358216e-05
-7.47322946379866e-05
-0.000116220153994501
-0.000160192990329227
-0.000208199528215156
-0.000261363871356658
-0.000319733329149229
-0.000382269465927401
-0.000450723770960442
-0.000527508903530719
-0.000612887584820268
-0.000707111820046999
-0.00080670365258898
-0.000900347692055844
-0.000936203636592055