/*--------------------------------*- C++ -*----------------------------------*\
  =========                 |
  \\      /  F ield         | OpenFOAM: The Open Source CFD Toolbox
   \\    /   O peration     | Website:  https://openfoam.org
    \\  /    A nd           | Version:  7
     \\/     M anipulation  |
\*---------------------------------------------------------------------------*/
FoamFile
{
    version     2.0;
    format      ascii;
    class       volScalarField;
    location    "20000";
    object      k_diff;
}
// * * * * * * * * * * * * * * * * * * * * * * * * * * * * * * * * * * * * * //

dimensions      [0 2 -3 0 0 0 0];

internalField   nonuniform List<scalar> 
15600
(
0.000856162914729467
0.000912447739848182
0.000729880268988026
0.000495032742953201
0.000266769088228833
0.000114427416887935
5.14444393374183e-05
3.91841929130688e-05
3.16810087088361e-05
2.16453536857209e-05
1.48129351356099e-05
1.11210371951598e-05
9.29223821429853e-06
8.40382896590539e-06
8.00813392884131e-06
7.90737887685178e-06
8.13188002097019e-06
8.73209086780021e-06
9.76905714831515e-06
1.12449607713424e-05
1.3175530496601e-05
1.56391759591552e-05
1.86722145541756e-05
2.2270825607289e-05
2.6418465161371e-05
3.12181222088078e-05
3.68747585258481e-05
4.33157400812368e-05
5.04100278025741e-05
5.80121364277812e-05
6.6116668026475e-05
7.50861831937108e-05
8.65815452198143e-05
0.00010681342094223
0.000130895732217408
0.000153349315088228
0.00017446777651718
0.000194542303729372
0.000213771188534126
0.000232272995619338
0.00025014098371848
0.000267464512861119
0.000284327351302616
0.000300743764361082
0.000316197270238152
0.000330609632263857
0.000343928740085695
0.000356106309087642
0.000367103150957314
0.00037689216177178
0.000385459602614833
0.000392806000212837
0.000398945413842975
0.000403904074599855
0.000407719058970137
0.000410435897137018
0.000412106984868505
0.000412790048968379
0.000412545842006431
0.000411437581619751
0.000409529048855633
0.000406885290681209
0.000403569651169813
0.000399647083034055
0.000395175070633426
0.000390206796529891
0.000384770455167788
0.00037888970343552
0.000372603837411347
0.000365958200529975
0.000359010920262754
0.000351804306758869
0.000344368712574164
0.000336708620235556
0.000328820632149606
0.000320733299024448
0.000312398932761757
0.000303876309876733
0.00029508580566473
0.000285991074394412
0.000276537246432111
0.000266561669171497
0.000255945483419907
0.000244330220071579
0.000231425390341594
0.000216367432772098
0.000198796575500702
0.000186634696635612
0.000201380694989636
0.000221287514443516
0.000246251241049178
0.000273821553631838
0.00030539543795239
0.000341556149637262
0.000383743961678556
0.000435714061315274
0.000493530539031259
0.000552153797187858
0.000609463885688697
0.000662469884501674
0.000707925263561037
0.00073801391915576
0.000757346710756101
0.000780180886872713
0.000810662316675429
0.000852140991894249
0.000913138424535149
0.00100737939343634
0.00115774011635926
0.00132248251316913
0.00149865542619518
0.00168453890582439
0.00185767321198933
0.00193571927994287
0.00173772265786508
0.00143014183653698
0.00113792906651533
0.000919712089133846
0.000771618367780328
0.000789630648289311
0.00457988509974361
0.00485005682644341
0.00394370025604916
0.00269257406305998
0.00146278448559101
0.00063654255894569
0.000284580969291669
0.000214056374330292
0.000173245397068213
0.000118893655096448
8.14826983439967e-05
6.11358798171248e-05
5.10098541495366e-05
4.60613541550152e-05
4.38269387182604e-05
4.32156645446997e-05
4.43724647706547e-05
4.75688568855124e-05
5.31404854774198e-05
6.11042826037398e-05
7.15381571296959e-05
8.48639543314789e-05
0.000101285901459165
0.000120788097421038
0.000143271781950263
0.000169272652614913
0.00019990742277291
0.000234815046820727
0.00027329560621625
0.000314559563793664
0.000358482957148844
0.000406862090657836
0.000468386351615699
0.000575941018039507
0.000703967039058749
0.00082340441711918
0.000935746686818069
0.00104255790427657
0.00114493111908447
0.0012435168076599
0.00133882218389518
0.00143133752943267
0.00152155199074589
0.00160643926073504
0.00168596194742039
0.00176010275481223
0.0018286252322558
0.00189131085575314
0.00194798416221129
0.00199852620222634
0.00204288069632225
0.00208105773890252
0.0021131303224248
0.00213922834197523
0.00215953215617045
0.00217426201418728
0.00218367110455824
0.0021880380397779
0.00218765689031208
0.00218283404941332
0.00217388028789018
0.00216111239350017
0.00214484182632025
0.0021253856823668
0.00210302983522002
0.00207803422349695
0.002050543005398
0.00202068178868821
0.00198865043293162
0.00195467696902711
0.00191905726129914
0.00188200281959212
0.00184367178858876
0.00180409853136412
0.00176326413577377
0.00172133548603025
0.00167804617768924
0.00163373007738604
0.00158795662253457
0.00154057973929818
0.00149129634677914
0.00143936929300317
0.00138410760544087
0.00132382799588637
0.00125687828202766
0.00117924599676643
0.00108521159872921
0.00102082642568731
0.00109282236605051
0.00119441388921337
0.00132156033942464
0.00146390303212744
0.001626968315425
0.00181380096545696
0.00203127788342422
0.00229575692847134
0.00259035005260403
0.00289149597001659
0.00318756769755037
0.00346424327098432
0.00370590638830357
0.0038781753009686
0.00399802361542603
0.00412848875350802
0.0042943864527387
0.00451414414862136
0.00482792517767325
0.0052991855445969
0.00602765499440036
0.0068391299830052
0.00769927261047815
0.00859146813515817
0.00940986896750755
0.0098259028380832
0.00900172575207889
0.0074580486811525
0.00600880210255779
0.00492105603772845
0.00417355556487078
0.0042799983923222
0.00987461142932178
0.0102783329786203
0.00868919135354513
0.00617512204469829
0.00351097757754741
0.00160285580184835
0.000702834742873328
0.000514343131273064
0.000415343938243129
0.000286496598204036
0.000196971466969509
0.000147940881817155
0.000123407711708187
0.000111229247878659
0.000105602018512455
0.000103894030298881
0.00010638912441761
0.000113714686656708
0.000126637269954566
0.000145161012113883
0.000169395208525665
0.000200231274271669
0.000238041471808397
0.000282658497383936
0.000333712223983905
0.000392279018970886
0.000460733127169711
0.00053820352230882
0.000623144005491998
0.000713817343291811
0.000809455372138631
0.000913264300499135
0.00104458425374219
0.00127075688562684
0.00153660116053613
0.00178386276304939
0.00201738649905056
0.0022400238614925
0.00245440641788168
0.00266188014143975
0.00286347083819687
0.00306018743050032
0.00324350238618367
0.00341475728505249
0.00357710048927853
0.00372978127267436
0.00387230371195193
0.00400418697456934
0.00412501193459363
0.00423444750669075
0.00433226656708787
0.00441835611716257
0.00449271555330175
0.00455545076446869
0.00460676557203973
0.00464694668030328
0.0046763543728117
0.00469540927055016
0.00470457684410658
0.0047043605666474
0.00469528904541978
0.00467791417845536
0.00465279587707861
0.00462051085928589
0.00458160452914931
0.00453657888170917
0.00448574952915554
0.00442940599678566
0.00436796664538377
0.00430189204223282
0.00423180003689877
0.00415812642168285
0.00408124337892375
0.00400130968914591
0.00391832247381498
0.00383274064209328
0.00374398685036111
0.00365288986408438
0.00355902061406327
0.00346162667912963
0.00336008764081544
0.00325348861195839
0.00314040714381213
0.00301831288458272
0.00288361212816753
0.0027301623092146
0.00253096496665185
0.00239452337136664
0.00250870158346084
0.00269856109956726
0.00294171665759456
0.0032223142849417
0.0035451268205881
0.00391520336851913
0.00434271825805594
0.00485009618537474
0.00541482241478586
0.00599762292916305
0.00657333336450578
0.00711659880853799
0.00760266151117818
0.00798343397030352
0.0082739184171858
0.00856501473565256
0.00890977725570157
0.00934371709720415
0.00992942047713272
0.0107510342021807
0.0119424551556877
0.0132703841784594
0.0146122434290211
0.0159070064399709
0.0169739438883898
0.0175120712747115
0.0165905346631763
0.0139414158443974
0.0116102238869423
0.0100497383421522
0.00901034523153168
0.0093906597181534
0.0109323487873259
0.0112261275603266
0.0103645077722489
0.00828618961343843
0.00546951579991931
0.00292875323100489
0.00129669807862018
0.00089123248135518
0.000709161546287445
0.000491163218414744
0.000339046859307928
0.000255111811497131
0.000212878944711367
0.000191202477681016
0.000180847754230613
0.000177148773817654
0.000180425215399718
0.000191605835598138
0.000211738423595939
0.00024053583019839
0.000277775436305237
0.000324329972964737
0.000380112831259527
0.000444147393192358
0.000515281066694233
0.000594710081849758
0.000685408065246142
0.000785998652466527
0.000894852514625255
0.00101038951508104
0.00113232704437334
0.00126788038044327
0.0014498107388858
0.00175583103295021
0.0020998829386934
0.00241854978232134
0.00272302147359099
0.00301360705564899
0.00329392212313989
0.00356477729304696
0.0038267784187123
0.00406981397579098
0.00429307758947539
0.0045099674406537
0.00471502773540315
0.00490769048461949
0.00508734646756839
0.00525345124576644
0.00540556598050787
0.00554337697432951
0.0056667057755607
0.00577551209128554
0.00586988539956558
0.00595003332831625
0.00601626761666441
0.00606898474325501
0.00610865496164724
0.00613580510819638
0.00615100248977297
0.00615484588690038
0.00614795283539065
0.00613095378158915
0.00610448224392505
0.0060691770495012
0.00602566269399805
0.00597452432670749
0.00591618709323607
0.00585103988437295
0.00577957208346659
0.0057022804794834
0.00561987122997896
0.00553282030125954
0.0054416085117014
0.00534653875441236
0.0052476628512928
0.00514600879617112
0.00504225803435266
0.00493381543298619
0.00482199385874093
0.00470665855752549
0.00458731564049141
0.00446332346698878
0.00433341808922672
0.00419603564225078
0.00404780889218421
0.00388522471031383
0.0036710804802719
0.00351267572257268
0.00356643947648824
0.00373825070881844
0.00398035168933724
0.00427897028580904
0.00463057842554831
0.00503884177511517
0.00550967549377363
0.00605731516237091
0.00666865033518652
0.00730793845008599
0.00794486652932547
0.00855185674508818
0.00910631562632826
0.00956992737640465
0.00993855976452949
0.0102803537319505
0.0106545202571869
0.0110950677379425
0.0116541189731164
0.0123682698718763
0.0133399196409509
0.0144086932975915
0.0153835809806064
0.0161869083689758
0.0166411637929421
0.016717539995219
0.0162850757446771
0.0134722344391665
0.010915890495116
0.00981724888930956
0.00957825092464381
0.0103252849955321
0.00503417104252325
0.00538881657128845
0.00631113304868352
0.00648821684163975
0.00553986518707839
0.00410760510028855
0.00219777125643722
0.00134400376616898
0.00103344461931102
0.00071460053888343
0.000494373609007318
0.000372094525196297
0.000310015905990086
0.000276613334119079
0.000259839963710318
0.000252389672155606
0.00025433708522242
0.000266556183914247
0.0002898114922347
0.000322892280882196
0.000364613539956022
0.000415049439005607
0.000473109522856973
0.000537118061329601
0.000606185927998441
0.000682923819221652
0.000771315104345352
0.000870685178307835
0.000981126834806815
0.0011037154741393
0.00124374665113832
0.00141933365870591
0.00167479895547364
0.00205809242460627
0.00243929966407094
0.00278035243103935
0.00310030504263355
0.00339755023500334
0.00367726051714654
0.00394038686375537
0.00418514479514389
0.00439357199335644
0.0046038795715046
0.00479860232728752
0.00497861942701529
0.00514398886752759
0.00529476031435424
0.00543101569159403
0.00555289519322692
0.00566060778628676
0.00575443667581851
0.00583473876051063
0.00590193706212286
0.00595651149248418
0.00599898814419907
0.00602992458567618
0.00604990475763058
0.00605952544933215
0.00605938654198058
0.00605008470921981
0.00603220601015582
0.00600631934909167
0.0059729754476492
0.00593270360132919
0.00588602702102673
0.00583343486833708
0.0057753157244637
0.00571201105139626
0.00564389924432625
0.00557131917893917
0.00549481288890113
0.00541469493235185
0.00533135221312076
0.00524506949878463
0.00515944901358059
0.00506871182999623
0.00497483688295186
0.00487871675441817
0.00478015208954885
0.00467914522827397
0.00457548809293325
0.004468975409054
0.00435905668459633
0.00424526702337729
0.00412610536674469
0.00400098382511567
0.00385665934944568
0.00372061981818888
0.00367882312472721
0.0037725402101609
0.00394060655367755
0.00417346375995773
0.00446153880372711
0.0048061738431291
0.00520881887782054
0.00567676019085231
0.00620847821266907
0.00678009025257081
0.00736556364832072
0.00794152297922238
0.00848982183844903
0.00898013481872551
0.00938729968509112
0.0097421553964953
0.0100907846899555
0.0104584264631981
0.0108893520936707
0.0114008387801615
0.0121184849221801
0.0129842644002361
0.0138230131367087
0.0145969894377949
0.0151357196285209
0.0154755469011008
0.0149351600561471
0.0124094509613919
0.00837464174660306
0.00594463752905482
0.00490382379858898
0.00463095343561328
-0.000172184345959389
0.000190116474409666
0.00169921766172756
0.00321406399801991
0.00366365581015556
0.00406846825851664
0.00337215461903637
0.00188918015952575
0.00139572785215312
0.000952579966804596
0.000656242955885908
0.000491293300272149
0.000405595610338634
0.000358491891294224
0.000332947695472322
0.000318987072243668
0.000316049092919719
0.000324516997807453
0.000344428037187028
0.000373598546985374
0.000410457826798368
0.000455195292754009
0.000507221727510929
0.000566157149735631
0.000633229939588353
0.00071281633273079
0.000808247318955835
0.000917837311653851
0.00104226370612684
0.00118493351101968
0.00135578154880477
0.00157502901913849
0.00188044847998976
0.00226923903240698
0.00260416328935439
0.00289676789124866
0.0031668429078977
0.00341364976078482
0.00364261785636096
0.00385577269725347
0.0040307928371137
0.00421318715980939
0.00437949193400841
0.00453202722140435
0.00467149878165333
0.00479822489170374
0.00491248425328671
0.00501454182571907
0.00510467367666793
0.00518318071298263
0.0052503993383309
0.00530670525482603
0.00535251169625142
0.00538826535066665
0.00541444019854728
0.0054315263582716
0.00544002946369432
0.00544045889013493
0.00543332103644551
0.00541911377516659
0.00539832090158902
0.00537140414207926
0.00533880516095104
0.00530093782503155
0.00525822082230609
0.00521104930035841
0.00515976100835038
0.00510464720432923
0.00504599993561601
0.00498404662284139
0.00491920356113804
0.00485167001322911
0.00478226409119162
0.00471496729014212
0.00464134672298086
0.0045660311886793
0.00448882102554193
0.00440993123350885
0.00432931657609224
0.00424701625065736
0.00416299268969772
0.00407719927224579
0.00398952988852743
0.00389994716804978
0.0038081659814801
0.00371437771174012
0.00362312575573994
0.00351158321474323
0.00342501233250384
0.00346744042967395
0.00358165744499406
0.00375982767375619
0.00399150495816823
0.00427628593833054
0.00461371602198526
0.00500705939169678
0.00546020108564346
0.00595851790113626
0.00648272712147511
0.00701664699652634
0.00754896170100081
0.00806218509538836
0.00853176471383808
0.00896730824306823
0.00939856290616557
0.00984204536292275
0.0103350410713111
0.0108959256981213
0.0116571923206843
0.0126326395562174
0.0136902969666997
0.0148307346881107
0.0158507262747762
0.0168171204951986
0.0168985672400906
0.0152898056207293
0.0103356157020556
0.00582475405455271
0.00244628887713454
0.000569880644576419
-0.000693907993432482
-0.001003629326359
-0.000109377296120172
0.00129961226050113
0.00179670306297817
0.00286967722872839
0.00402413945371357
0.00256055010385216
0.00181353180987567
0.00121450618569316
0.000828109303635154
0.000611772880419909
0.000496216682164039
0.000432587955956365
0.000396014549516597
0.000373371358115865
0.000363253275152117
0.000365604862198632
0.000380159158673717
0.000404775781984097
0.000438812517123728
0.000483314427567974
0.000537985737612959
0.000602423435672216
0.000677515959297293
0.000766309914700862
0.000869444661138046
0.000984196947044662
0.0011124209574087
0.00125934704341355
0.00143509785689004
0.00165316480143093
0.00193983411902426
0.00225784794050916
0.00251367012352747
0.00274677589926456
0.00296489757161756
0.00316631694721696
0.00335386953311344
0.00352455186154922
0.00367517852515135
0.00382539419298862
0.00396281751023356
0.00408877576059041
0.00420375517884222
0.00430803513435165
0.00440186470788286
0.00448547752378363
0.00455911186767965
0.00462302285075629
0.004677493830827
0.00472284068558274
0.00475941155149989
0.00478758415670262
0.00480776116602298
0.00482035913062518
0.00482581028515209
0.00482455061326614
0.00481701404458734
0.00480362710210954
0.00478480365366712
0.00476093599272195
0.00473239741269921
0.00469953150202855
0.00466269319634407
0.00462222117786486
0.00457842559955698
0.00453157706714845
0.00448192604439516
0.0044296447339816
0.00437507705305307
0.00431876167583863
0.00426589969554775
0.00420616774596968
0.00414504717878904
0.0040825926192357
0.00401872460522351
0.00395359305110919
0.00388723072050586
0.00381970621167412
0.00375109879793918
0.00368145539826521
0.00361094631059228
0.00353975228128528
0.003468330692068
0.00339694480767365
0.00333843694694184
0.00325030178779997
0.00314952110582345
0.00316186925429471
0.00323932916146895
0.00337596868040552
0.00356230485552618
0.00379676071896872
0.00407775418099964
0.00440528633451565
0.00478505694420461
0.00520807987306116
0.00566011354487798
0.00613070856293864
0.00661390901166529
0.00710349796546648
0.00758275076261717
0.0080537930218439
0.00853783888553065
0.00904724818958767
0.00961070927383416
0.0102431353952113
0.0110392843313378
0.0120433520627343
0.013147281099604
0.0143690801621321
0.0154793889478999
0.0165873566800553
0.016990667677633
0.0168990070054261
0.0134820196046629
0.00895511779956919
0.00406198229756759
0.000945728299495724
0.00129181649752112
0.000279622955183475
0.000214649143475689
0.000839083307857807
0.000932984879234273
0.00146426970749362
0.00355936802158671
0.00321709090806923
0.00225053302302327
0.00149437154128764
0.00101555123205328
0.000740017140487909
0.000587131773607416
0.000505028428043088
0.000456709647646323
0.000425713954879258
0.000409593293219504
0.000407974201333146
0.000420521600453352
0.000445172059204652
0.000481469410561757
0.000529695227988971
0.000588005421550345
0.000654643297581083
0.000729570896720498
0.00081486730477562
0.00091033643658384
0.00101450580437801
0.00113067780048253
0.00126426979828297
0.00142282569668187
0.00161307240138733
0.00185585369899038
0.00210219431708356
0.00230294912880375
0.00249761418536287
0.002682931100613
0.0028565450445464
0.00301947656190687
0.00315697920571808
0.0033010529103933
0.00343189005531169
0.00355194449704812
0.00366206397163379
0.00376260198321777
0.00385379739349338
0.00393586832705244
0.00400901995148278
0.00407346101549708
0.00412941358572286
0.00417712455883736
0.00421686980249496
0.00424895438642678
0.00427371058057596
0.00429149432300562
0.00430267335093032
0.00430763140550726
0.00430675587238977
0.00430043248828476
0.0042890405308126
0.00427294757527151
0.00425250028526577
0.00422802686040735
0.00419982406787491
0.00416820318667024
0.00413346277283217
0.00409589437248108
0.00405576091763539
0.00401329035694678
0.00396862481556665
0.00392205708081842
0.00387978544805402
0.00383104365343444
0.00378048021590434
0.003728775541756
0.00367600051124871
0.00362213844513762
0.00356730983797983
0.00351159636296455
0.00345509179218924
0.00339795924367863
0.00334030863924633
0.00328249420237783
0.0032248136043022
0.00316821222722938
0.00311275832348102
0.00307604914956185
0.00300732332735667
0.00290312530363099
0.00289689120355391
0.00294766932309917
0.00305166341132972
0.00320075173340706
0.0033926244097388
0.00362487112904034
0.00389495948065576
0.00420921477825313
0.00456219735997563
0.00494320038292165
0.00534587123811262
0.00576775332170597
0.00620968556939382
0.00666001446162255
0.00711643582510971
0.00759497140449812
0.00810553205619873
0.00866802181110449
0.00929218072885666
0.0100300471179245
0.0109358030331845
0.0119141280864401
0.0129859806001983
0.013922364959744
0.0148447910203822
0.0151738780713505
0.0157530235623788
0.0143150537774337
0.0116512524376364
0.00702317823718261
0.00364199907892626
0.00392310141384492
0.00234838686124631
0.00152609083128304
0.00119175571959524
0.000973205242068414
0.000694143497816935
0.00204273808568183
0.00370786444831902
0.00251034058329613
0.00174959551347682
0.00120287598694063
0.000872021917698055
0.00068260172240483
0.000582426148704198
0.000523294286388965
0.000485656433578759
0.000465438420267894
0.000461513333613884
0.000472954198094446
0.000497082622948795
0.000532688837694792
0.00057875164630667
0.000632382659103118
0.000691612712201352
0.000756605602948042
0.000829445442617753
0.000910131330281482
0.000998565620237955
0.00109822913883758
0.00121343446612339
0.00134906394251212
0.00150808334563438
0.00171025343291154
0.00190491501225865
0.00207219870190634
0.00224264107375756
0.0024069629985679
0.00256260789213619
0.0027110552190895
0.00283562992295991
0.00296458508217915
0.00308240440950311
0.0031907021732752
0.00329007822986666
0.0033808170286563
0.00346313971951915
0.00353725253792212
0.00360334960528418
0.00366162765398485
0.00371229307761516
0.00375557360988906
0.00379172237794625
0.00382101831047508
0.0038437646476628
0.0038602866523483
0.00387091840734858
0.0038760097478813
0.00387591339899646
0.00387098004492113
0.00386155437444344
0.00384796974252955
0.00383053904641433
0.00380955684458631
0.00378528429769924
0.00375799834937138
0.0037279636536714
0.00369545536483886
0.00366073433284213
0.00362401412238984
0.0035854196296504
0.00354998604516194
0.00351117349528024
0.00346878794831565
0.00342539615279584
0.00338105330352947
0.00333584048159521
0.00328977867985965
0.00324297212302119
0.00319553415886869
0.00314757786887998
0.00309932610401509
0.00305092995744253
0.003002867632152
0.00295548858769458
0.00291006839288926
0.00286636436640895
0.00284536633970786
0.00279183543063702
0.00268784576388767
0.00266952626141963
0.00270011570027412
0.00277777166017676
0.00289574986902467
0.00305129302875526
0.00324136915664683
0.00346154993448208
0.00371847566960458
0.00400926324789778
0.00432599283236152
0.00466552593038583
0.00502791352460067
0.00541824313216161
0.00582697600486804
0.00624757841027327
0.00669176056827626
0.00716716884137381
0.00768527835534786
0.00825028093001752
0.00888067043292986
0.0096350752912446
0.0104319623169198
0.0112891671996907
0.0120016538179155
0.0126775170435654
0.0128357575046412
0.0134545945761632
0.0131113808668361
0.0122797168778924
0.0091270227069973
0.00625552203863374
0.00580285256135024
0.00407147898440317
0.00301730203533211
0.00188246440972323
0.00157313768292006
0.000433258916587371
0.0013747602156757
0.00332280862318936
0.00273742803465769
0.00195592984045323
0.0013638006154016
0.000981854500562278
0.000773979225572245
0.000658576710456431
0.000590297634107439
0.000547338660877962
0.000523431307542832
0.000516277734980721
0.000524097164131389
0.000543680242311302
0.000573319216533284
0.000611396052147012
0.000655081157640861
0.000702906360261799
0.000755428787368955
0.00081471730952014
0.00088088495987466
0.000954525478067212
0.00103851664684233
0.00113594490293256
0.00124998428231437
0.00138207496602592
0.00155207578846136
0.00171052172648167
0.00185564329483121
0.00200887521949518
0.00215814986336192
0.0023005218216465
0.00243465579146873
0.00255300584537195
0.00267085326615996
0.00277889581544174
0.0028782772947289
0.00296945926694111
0.00305269008470825
0.00312818674033461
0.00319615575650108
0.00325679127668955
0.00331028941834511
0.00335685209379074
0.00339669887212003
0.00343007099070183
0.00345723168823463
0.0034784651269566
0.00349407556801082
0.00350437231712382
0.00350967978202581
0.00351032402294241
0.00350662807534004
0.00349890909893888
0.00348747289187335
0.00347260507858054
0.00345457289846454
0.00343360799704105
0.00340995797143612
0.00338385579856302
0.00335556003567668
0.00332533252014507
0.00329337621794768
0.00326265941581055
0.00323290802223527
0.00319729961476078
0.00316067467360687
0.00312317102016362
0.00308487071062842
0.00304586221388409
0.00300619063249578
0.00296594916889149
0.00292527141619739
0.00288428457191326
0.00284325398255952
0.00280235649765718
0.00276215407451717
0.00272300551644411
0.00268641467721669
0.00265179278888968
0.00264289319462802
0.00260113837704138
0.00249851287878042
0.00247194138943241
0.00248663487599198
0.00254239152470975
0.00263374869909849
0.00275767128279823
0.00291065480603591
0.00308687425720362
0.00329324302360709
0.00352895694278488
0.0037885386993529
0.00407158581800034
0.00438012393345773
0.00472178455619876
0.00508725049642906
0.00546574632923049
0.00586500529171241
0.00629029824060324
0.0067453690611849
0.00722856355126023
0.00773441343280369
0.0083251836162647
0.00893769223130878
0.00958548212278665
0.0101032442645731
0.0105694584743881
0.0105950161891473
0.0110727802751289
0.0111687381793116
0.0113239692434704
0.00975457821170557
0.00772138882065196
0.00669967148510976
0.00517935269365262
0.00423304143077526
0.00259396335886133
0.00244615577255307
0.000523135672750257
0.000281265656679313
0.00217169910613916
0.00296001702220035
0.00208031282282374
0.00148256568640838
0.00107905397363324
0.000851121063988775
0.000723432334276006
0.000647505222914015
0.000600014755628557
0.000572269835253068
0.000560703482584962
0.000562824577641381
0.000575374747823151
0.000596651298612057
0.000624997005557679
0.000658055831253288
0.000694818904024047
0.000735996928736262
0.00078344475050402
0.000837200716355885
0.000898105833507567
0.000968299945467279
0.00104998487578587
0.00114544273059781
0.00125564344017258
0.00140039193083853
0.00153222114783754
0.00166075274750344
0.00180030407590746
0.00193767615501352
0.00206939080650355
0.00218507970380374
0.00230483082703061
0.00241377549027522
0.00251383845405634
0.00260587183359745
0.00269025516717519
0.0027672178360556
0.0028369799398025
0.00289975561497249
0.00295574573769232
0.00300515323463322
0.00304818290786144
0.00308505342769022
0.00311600133538287
0.00314128105357214
0.0031611641112804
0.00317594008345893
0.00318589909901332
0.00319134548254774
0.00319258362096712
0.00318991343575906
0.00318362885033221
0.00317401212794965
0.00316132552308478
0.00314581284245969
0.00312767994690774
0.0031071481498019
0.00308441909739771
0.00305973354252985
0.00303335650773623
0.00300600598411971
0.00298449782177664
0.00295476800118594
0.00292397630593486
0.0028922757618498
0.00285981001642569
0.00282667963277131
0.00279297861756106
0.00275876788686596
0.00272413157743298
0.0026892154678428
0.0026541565940937
0.00261925031803357
0.00258468797646145
0.00255108729546667
0.00251878763133505
0.00248945245512173
0.00246215327107469
0.00245140364403996
0.00242729715759811
0.00232946404786473
0.00229706544757739
0.00229879159278212
0.00233581536696461
0.00240382904441987
0.00249962255785155
0.00261932824700108
0.00275611820959413
0.00291721479297473
0.00310363783416245
0.00331217959675231
0.00354485294272665
0.00380528113031245
0.00410249636459584
0.00442624968709866
0.00476169840378726
0.00511284960622576
0.00548243766631873
0.00586728334288207
0.00625955308737648
0.00663733092625474
0.00706679774286293
0.00750761349316016
0.00797065136162779
0.00833938348894747
0.00865220657094234
0.00860528298361014
0.00894112350989482
0.00920540223995673
0.00971195297406466
0.00926977095646614
0.00801782319830776
0.00678604663278212
0.00555670042074028
0.00497557275396718
0.00313720872821471
0.00334563639185436
0.000704162327513437
-0.000175936297546855
0.00104047236149394
0.00318362337099986
0.00221727224975108
0.00157041782221973
0.00116079567416672
0.000914174334522866
0.000775124433361278
0.000692027021523897
0.000640198734169233
0.000608504199103095
0.000592096846500763
0.000587924267845485
0.000592984491228585
0.000605836473307027
0.000624983819734046
0.000648550060825121
0.000675792573438282
0.000707395540029021
0.000744903110364793
0.000788194588529666
0.000838173105584078
0.000896367267378268
0.000964440484349562
0.00104423579811055
0.00113662343014569
0.00126097564928881
0.0013721172644134
0.00148693897133384
0.00161473943698772
0.00174200246835904
0.00186514388936422
0.00197396493603076
0.00208491157619839
0.00218625384040047
0.00227939640917051
0.00236499998501172
0.00244339371217362
0.0025147974288141
0.00257943829728485
0.00263754278730339
0.00268932276315594
0.00273499315950997
0.00277476688420721
0.00280886685446184
0.00283753003647049
0.00286100688862403
0.0028795607524798
0.00289347095340317
0.00290301219117686
0.00290847228994967
0.00291013727682133
0.00290828689569044
0.00290319459146794
0.0028951216580961
0.00288430946395936
0.00287098095577936
0.00285531872741416
0.00283751993232432
0.00281775413227736
0.00279624256322226
0.00277325540886411
0.00275532049636723
0.00273266950445261
0.00270706376065233
0.00268051991755733
0.00265316879471585
0.00262515673019147
0.0025965976822619
0.00256758984716428
0.00253820442403261
0.00250851682037809
0.002478678962646
0.00244883417498043
0.00241929851999958
0.00239026912716743
0.0023623992043656
0.00233598822203643
0.00231281064625398
0.00229162312013433
0.00228728818170818
0.00226311674754696
0.0021760111213448
0.00213936561838233
0.00213020951584477
0.00215083722332623
0.00219796387959464
0.00226827445813947
0.002357623789498
0.002458504284235
0.00257850679879342
0.00272031967672494
0.00288289095271739
0.00307036827555784
0.0032876184340531
0.00354421514892028
0.00382827250386771
0.00412124273117067
0.00442367287859723
0.00473562119239775
0.00504778765308324
0.00534585686307479
0.00559703700105531
0.00587203555404836
0.00615709902885017
0.00646367158419809
0.00672808776404107
0.00694107529463859
0.00687044715269221
0.00710622746198143
0.00745088885865765
0.00800947392527035
0.00822588908553123
0.00753586828517912
0.00635676886581762
0.00541025805806142
0.00523610292839773
0.00346077599233808
0.00403486256876052
0.000967140443642177
-0.000494660753521761
0.000226309909559286
0.00306869725098068
0.00241543381460728
0.00168298756757183
0.00123818815692633
0.000969990309398239
0.000818279485404043
0.000727229141247649
0.000670533075132767
0.000634640338588674
0.000613346658164488