/*--------------------------------*- C++ -*----------------------------------*\
  =========                 |
  \\      /  F ield         | OpenFOAM: The Open Source CFD Toolbox
   \\    /   O peration     | Website:  https://openfoam.org
    \\  /    A nd           | Version:  7
     \\/     M anipulation  |
\*---------------------------------------------------------------------------*/
FoamFile
{
    version     2.0;
    format      ascii;
    class       volScalarField;
    location    "20000";
    object      nut;
}
// * * * * * * * * * * * * * * * * * * * * * * * * * * * * * * * * * * * * * //

dimensions      [0 2 -1 0 0 0 0];

internalField   nonuniform List<scalar> 
15600
(
6.84165835880462e-10
7.30497032291201e-10
5.83774987826541e-10
3.98199772036056e-10
2.13926822176953e-10
9.0036482105341e-11
4.04279494707074e-11
3.20228651811634e-11
2.79742685780022e-11
2.13355305108048e-11
1.67404434128032e-11
1.47283135864541e-11
1.46224078131448e-11
1.56090394571253e-11
1.73588174122988e-11
1.97998661601953e-11
2.33070976552716e-11
2.84137193577616e-11
3.58350876337923e-11
4.64571619545055e-11
6.15371626526953e-11
8.27950097214381e-11
1.12179678146447e-10
1.5175264560988e-10
2.03602885614535e-10
2.70044829801082e-10
3.53274284355523e-10
4.53018616357103e-10
5.66919086534324e-10
6.90559222701431e-10
8.19437422478585e-10
9.52503446793623e-10
1.10494141360142e-09
1.3618406520186e-09
1.66888939908402e-09
1.95517488213716e-09
2.22444903428072e-09
2.48041264852188e-09
2.72558731961259e-09
2.96147929054298e-09
3.18927404548346e-09
3.41010702951225e-09
3.62503989760185e-09
3.83441916876363e-09
4.03357458630154e-09
4.21945934485952e-09
4.39137833274694e-09
4.5486826155969e-09
4.69083928406708e-09
4.8174719533788e-09
4.92837817524771e-09
5.02354274881693e-09
5.10312890802816e-09
5.1674607101028e-09
5.21700657068716e-09
5.25234752206531e-09
5.27415623028532e-09
5.28317740998102e-09
5.28019653790987e-09
5.26603320872932e-09
5.24151468682879e-09
5.20748715371653e-09
5.16477304713501e-09
5.11422039962858e-09
5.05657580426518e-09
4.99253745535629e-09
4.9224713751232e-09
4.84668048942104e-09
4.76567473122324e-09
4.68004375512314e-09
4.59054304311583e-09
4.49772602775175e-09
4.4019882729222e-09
4.30338371003942e-09
4.20187258247414e-09
4.09781456740508e-09
3.99061009078033e-09
3.88100070336739e-09
3.76798004761743e-09
3.65105015510989e-09
3.52953359490029e-09
3.40127085774656e-09
3.26480834205023e-09
3.11535593519962e-09
2.94938443295757e-09
2.75539325252641e-09
2.5315456570564e-09
2.37951605941623e-09
2.5574206905759e-09
2.74843285350448e-09
2.94166598941599e-09
3.09292836778208e-09
3.21062205252578e-09
3.29177442914199e-09
3.34188648463337e-09
3.38451483743984e-09
3.39216484306699e-09
3.34696727422802e-09
3.25535848896088e-09
3.12055428666807e-09
2.94750694958955e-09
2.72413119560596e-09
2.47604459639884e-09
2.24536809860499e-09
2.03778928483398e-09
1.85438032574273e-09
1.70372970113885e-09
1.59442102391243e-09
1.54594547024375e-09
1.50757884711231e-09
1.49072777850418e-09
1.50203897543587e-09
1.53387744643699e-09
1.53492485511785e-09
1.37221375038598e-09
1.15009099816411e-09
9.16724483700726e-10
7.36006405378487e-10
6.14879823193821e-10
6.29390292614316e-10
1.302229216421e-07
1.38869943336565e-07
1.10902394872228e-07
7.56454425051744e-08
4.09032020276468e-08
1.74123072363559e-08
7.85059591425772e-09
6.17483531489355e-09
5.40095854787027e-09
4.13215791952894e-09
3.24074664696162e-09
2.84378537467692e-09
2.81570610271591e-09
3.00018995535063e-09
3.33236631575444e-09
3.79668636405334e-09
4.46340860376348e-09
5.43372579029378e-09
6.84444111203721e-09
8.86451525112257e-09
1.17323356746465e-08
1.57761484823949e-08
2.13698973610662e-08
2.89103028810942e-08
3.87951842581493e-08
5.14599082124695e-08
6.73356573324178e-08
8.63817579482962e-08
1.0815169183458e-07
1.31791465352038e-07
1.5642995778367e-07
1.81768777481726e-07
2.10052078762386e-07
2.58415938728029e-07
3.16853286635282e-07
3.71360973904254e-07
4.22609192431641e-07
4.71334299461473e-07
5.1802593788941e-07
5.62981522686279e-07
6.06434709890265e-07
6.48607825754739e-07
6.89705945866448e-07
7.29764971463652e-07
7.67567126276707e-07
8.02884739111556e-07
8.35586846767186e-07
8.65550117722795e-07
8.92672263858369e-07
9.16879689174395e-07
9.38130916168821e-07
9.56419176233486e-07
9.71770918618598e-07
9.8424271333668e-07
9.93918268684477e-07
1.00090267596733e-06
1.00531861670325e-06
1.00730271981792e-06
1.0069998454181e-06
1.00456178840703e-06
1.00014246000212e-06
9.93899772131459e-07
9.859879593829e-07
9.7656621122553e-07
9.65775524403654e-07
9.53747429929236e-07
9.40551660425824e-07
9.26246645422447e-07
9.10929891333e-07
8.94714097333954e-07
8.77743669597638e-07
8.60124538006872e-07
8.41933083146582e-07
8.23181545896824e-07
8.038633125364e-07
7.84049434261523e-07
7.63625404462915e-07
7.42735764669238e-07
7.21188330369742e-07
6.98892817941449e-07
6.75718603752848e-07
6.5126318044806e-07
6.25242923932344e-07
5.96767036258335e-07
5.65142712851913e-07
5.2822359089667e-07
4.8518321600608e-07
4.56006743298745e-07
4.90165332167583e-07
5.26685581841403e-07
5.63442389450194e-07
5.92281140556334e-07
6.14676951339066e-07
6.30090402866891e-07
6.39598119225504e-07
6.47464373548922e-07
6.48535683754136e-07
6.39534208739395e-07
6.21670464670879e-07
5.95596922004614e-07
5.62235542927639e-07
5.19512554863962e-07
4.72265782322176e-07
4.28279502275542e-07
3.88677058461815e-07
3.53693291909198e-07
3.24922707315816e-07
3.03983374900419e-07
2.94234717878926e-07
2.86442212073288e-07
2.82604669308956e-07
2.83887960079878e-07
2.88771101345897e-07
2.87897820642786e-07
2.56382058308253e-07
2.13457143480967e-07
1.70759240294857e-07
1.38197419376331e-07
1.16287710112836e-07
1.19875505447946e-07
2.73506397379995e-06
2.91462974116103e-06
2.32903270643934e-06
1.58811468530802e-06
8.74728018775695e-07
3.85422551924774e-07
1.75999330443465e-07
1.37670657383336e-07
1.2061921350536e-07
9.26342989793724e-08
7.26767542534649e-08
6.36565338830908e-08
6.28823832751927e-08
6.68632509109536e-08
7.41418176254961e-08
8.43305847384302e-08
9.89371285363049e-08
1.20162762190714e-07
1.51018791634667e-07
1.95199591056608e-07
2.57834546144125e-07
3.46034997530187e-07
4.67925046306804e-07
6.3205781068337e-07
8.46650162338443e-07
1.1204107513981e-06
1.46275710630275e-06
1.87279265110752e-06
2.34048522843107e-06
2.84638017863964e-06
3.36853976922032e-06
3.8904892580095e-06
4.44300495134274e-06
5.44042976165131e-06
6.67740729521599e-06
7.82900620581871e-06
8.91020300399422e-06
9.9381272400679e-06
1.09237847721093e-05
1.18741191748585e-05
1.2794426385537e-05
1.3689595212444e-05
1.45639090016771e-05
1.5397341403076e-05
1.61826006517956e-05
1.69181522378812e-05
1.76014467096144e-05
1.82300368879479e-05
1.88018499089172e-05
1.93153387263897e-05
1.97695549810395e-05
2.0164204080013e-05
2.04996219988517e-05
2.07767233430486e-05
2.09969491459648e-05
2.11621629406124e-05
2.12745851842488e-05
2.1336725776409e-05
2.13512795428762e-05
2.13211025155188e-05
2.12491236144092e-05
2.1138376613986e-05
2.09918607413487e-05
2.08126926314143e-05
2.06036741921622e-05
2.0367423923607e-05
2.01053615302848e-05
1.98187092552125e-05
1.95094822418476e-05
1.91800060869262e-05
1.88332883242155e-05
1.84715442218746e-05
1.8096426806322e-05
1.77083150626364e-05
1.73071361896203e-05
1.68945330321793e-05
1.64681124238278e-05
1.60310772246191e-05
1.55794316493238e-05
1.51115374989323e-05
1.4624616189874e-05
1.41108840540614e-05
1.35639881822948e-05
1.29660478980003e-05
1.23016945817931e-05
1.15280298920736e-05
1.05953730632343e-05
9.9724628621671e-06
1.06923530435435e-05
1.14526859684573e-05
1.22078163682953e-05
1.27999677106091e-05
1.32535381451137e-05
1.35588293241997e-05
1.37376510916623e-05
1.38708704747388e-05
1.38606055213486e-05
1.36432371407387e-05
1.32415676357393e-05
1.26704661905639e-05
1.19499346797627e-05
1.1044219968747e-05
1.00467006714174e-05
9.11077919892472e-06
8.26467485178023e-06
7.51455543881364e-06
6.89169349459932e-06
6.42684400504402e-06
6.18146752917341e-06
5.97919248117619e-06
5.85089944878431e-06
5.81737122242994e-06
5.84719924350381e-06
5.774573515069e-06
5.11288799452554e-06
4.1619881945738e-06
3.32437011313676e-06
2.74217574558202e-06
2.37048098553017e-06
2.51082408597089e-06
1.82908842411628e-05
1.96863313922418e-05
1.60066274821457e-05
1.10151772697869e-05
6.34156863841874e-06
3.05119552081046e-06
1.45104971162669e-06
1.1344556520342e-06
9.96010362854964e-07
7.68146368545375e-07
6.03029193884433e-07
5.2719898045835e-07
5.19440237289311e-07
5.50631561127239e-07
6.08911104393833e-07
6.90499349602984e-07
8.07020936333115e-07
9.7572679017377e-07
1.22044701805015e-06
1.56977027816411e-06
2.06218438584358e-06
2.75125211148835e-06
3.69715903131903e-06
4.96028711531768e-06
6.59209776979196e-06
8.64451281718287e-06
1.11817649807204e-05
1.41847239026793e-05
1.75617464308293e-05
2.11442394041791e-05
2.47188397638045e-05
2.80975917322922e-05
3.15748554129012e-05
3.84243527227895e-05
4.69492343576844e-05
5.46980195153799e-05
6.18937240397216e-05
6.86543889450389e-05
7.50746683734133e-05
8.12108664049815e-05
8.71050412317208e-05
9.27917511647645e-05
9.8190581728881e-05
0.000103256991068734
0.000108014960791129
0.000112457411402858
0.000116575662513752
0.000120361080802352
0.000123806614746215
0.000126907574651923
0.000129662004245019
0.000132070961675724
0.000134138378820602
0.000135870801721715
0.000137277139132214
0.000138368144696262
0.000139156139157022
0.00013965469883453
0.000139878161151028
0.000139841559076618
0.000139560209736402
0.000139049920407233
0.000138326320776351
0.000137405684004855
0.000136302745062355
0.000135031323403068
0.000133598754285617
0.000132011335293526
0.000130279753258011
0.000128416345249231
0.000126437675458799
0.000124355826814805
0.000122180135316874
0.000119913015130001
0.000117553805767409
0.00011511247594884
0.000112574525799167
0.000109958636951537
0.000107246410855512
0.000104421137694729
0.000101464655319983
9.8334874213364e-05
9.49901027303455e-05
9.13257736561583e-05
8.72375831123719e-05
8.24713762229542e-05
7.6411735762316e-05
7.23825365065104e-05
7.68094340320549e-05
8.14513338212028e-05
8.59662613718591e-05
8.94825355441128e-05
9.21162964481576e-05
9.38296421779098e-05
9.47469667335209e-05
9.53278160105852e-05
9.50382971569272e-05
9.34961408786287e-05
9.08097542013695e-05
8.70573795098273e-05
8.23606650554917e-05
7.6499055001342e-05
6.99795491066145e-05
6.37459638057385e-05
5.80299346251938e-05
5.28875485719781e-05
4.85316636468307e-05
4.51418903457146e-05
4.31541662463566e-05
4.14569800579808e-05
4.01591837977267e-05
3.93886135765959e-05
3.89465518291072e-05
3.79799885193867e-05
3.35555847441011e-05
2.6333937943338e-05
2.04491638448969e-05
1.69421876509424e-05
1.50818902083745e-05
1.65247568358293e-05
5.88863947885352e-05
6.47305343210383e-05
5.50360102456146e-05
3.87832972768411e-05
2.35722216418797e-05
1.30876644809156e-05
6.9367770151059e-06
5.50884486451696e-06
4.85028169193409e-06
3.75702377099914e-06
2.95098625612372e-06
2.57355335684949e-06
2.52698506903696e-06
2.66571089645553e-06
2.9345028947965e-06
3.309714163476e-06
3.84171691085494e-06
4.60653390431952e-06
5.70941225403379e-06
7.26996582130751e-06
9.44102445358723e-06
1.2434644995098e-05
1.64743714354148e-05
2.17547199328676e-05
2.83954878758483e-05
3.65147629892728e-05
4.63011990248875e-05
5.75613526095864e-05
6.98262495381115e-05
8.23514323692455e-05
9.42632746193952e-05
0.000105094724876714
0.000116768679712112
0.000140865786284292
0.000169318680486503
0.000194018349809339
0.000216501789145426
0.000237120249242776
0.000256332881596016
0.000274368833696302
0.00029140679761216
0.000307436148099426
0.000322312235774616
0.000336190081059682
0.000349102813206184
0.000361058978266622
0.000372061005317375
0.000382108882957884
0.000391204372327705
0.000399352992604966
0.000406565014184071
0.000412856207484879
0.000418247510654537
0.000422764482658664
0.000426436785188888
0.000429297011192007
0.000431380208321973
0.000432723240165813
0.000433363735713588
0.000433340092928113
0.00043269062778753
0.000431454177618156
0.000429668676558296
0.000427373213962592
0.000424603119137844
0.000421391407969049
0.000417754887141445
0.000413707565098535
0.000409274128594468
0.000404482791621849
0.000399373222498372
0.000393973511620966
0.000388305772246379
0.000382375294708511
0.000376178870593177
0.000369744143814205
0.000363049337361304
0.000356093813114248
0.000348854842304561
0.000341286319085296
0.000333336668154793
0.000324896103697057
0.000315846512328968
0.000305911700703931
0.000294788617899963
0.000281818710970372
0.000264690438470915
0.000253002301209053
0.00026473774244252
0.000277411943267785
0.000289593888352755
0.000299131051063497
0.000306253041059606
0.000310909486411365
0.000313397434600213
0.000314952071554744
0.00031420535534303
0.000310014844463101
0.000302556843732044
0.000291955871235608
0.000278518584320765
0.000261482714005628
0.00024201339227539
0.000222884322350715
0.000204970948226471
0.000188488533955969
0.00017421342319932
0.000162647052058702
0.000155659811670326
0.000149700583064426
0.000144743225501187
0.000141252338607261
0.000138557111382968
0.00013454843826941
0.000120209074695967
9.2075785111559e-05
6.79753603750957e-05
5.43181933379419e-05
4.77666650540313e-05
5.24816329370356e-05
0.000122732374615327
0.000137080700981592
0.000122942236290007
8.95956610618804e-05
5.60199988596216e-05
3.56568131293475e-05
2.28793031217315e-05
1.91419987800155e-05
1.70554852789536e-05
1.3296777345764e-05
1.04576275732102e-05
9.09145970657849e-06
8.88242788635726e-06
9.30090222656342e-06
1.01639147089321e-05
1.13602019246889e-05
1.30379010089647e-05
1.54242762284604e-05
1.88307127211722e-05
2.35758385477418e-05
3.00373300487394e-05
3.87383736972761e-05
5.01587947451685e-05
6.4600455291692e-05
8.21035352683634e-05
0.000102776815451508
0.000126935278476143
0.000153780365949984
0.00018198186842499
0.000209744748421571
0.00023537481167811
0.00025896085112577
0.000286473414714763
0.000341294580571653
0.000400796691305052
0.000450478486829042
0.000494975379192655
0.000534913193069372
0.00057156623897451
0.000605468704400287
0.000637034145131896
0.00066606368464739
0.000692929198994017
0.000717804625849544
0.000740778214368421
0.000761905509376946
0.000781225964760561
0.00079876996312512
0.000814566919037084
0.000828649039549094
0.000841053434795394
0.000851823686867036
0.000861009493834876
0.000868666013392054
0.000874853193472157
0.000879633972939633
0.000883073794314907
0.000885239656652414
0.000886198556954701
0.000886017664580117
0.000884763088938733
0.00088250092755911
0.000879295196096754
0.000875211157543114
0.000870307833743778
0.000864640022357428
0.000858234705306958
0.00085111375726914
0.000843316896244163
0.000834888727782241
0.000825894966296215
0.000816380380671916
0.00080638098947175
0.000795904543936803
0.000784982341056324
0.000773587093733319
0.000761711683694102
0.000749340735970513
0.000736441095002308
0.000722930601629946
0.000708713804246949
0.000693598233647882
0.000677367376856078
0.000659538833383462
0.000639547768129697
0.000616306546714495
0.000585120170666586
0.000562776976397453
0.000582443980805703
0.000605504276116431
0.000627845964861028
0.000645778975304636
0.000659487419809489
0.000668917049240117
0.000674503565610561
0.000678473049669768
0.000678482256181975
0.000672232754361752
0.000659805163638496
0.000641265212996669
0.00061713752194684
0.000585780553986661
0.000548819080368118
0.000511524543533142
0.000475954062085145
0.000442577173881825
0.00041323429525848
0.000388762522357644
0.000374194948404778
0.00036234780609771
0.00035223929382493
0.000345053683389793
0.000338943091693456
0.000330754875349767
0.00030087060656494
0.000233436220382262
0.000166335769381784
0.00012592741954923
0.000104476512777185
0.000109786238396808
0.000205482766880684
0.000231156603522452
0.00021582048401498
0.000163919291285178
0.000101814289961816
6.96538693544707e-05
5.49437495202512e-05
5.09539582411145e-05
4.72931789958e-05
3.74292980887553e-05
2.95995588336587e-05
2.56672761483898e-05
2.49009335249323e-05
2.58180825466923e-05
2.79122461264659e-05
3.07854424714907e-05
3.47662844303066e-05
4.03665457713791e-05
4.82709084253296e-05
5.90734895392094e-05
7.34261404398261e-05
9.22527952806822e-05
0.000116221318295016
0.000145505033980842
0.000179789005250118
0.000219105943017093
0.000263790588485327
0.000311898478764348
0.000360957012119409
0.000408097246192561
0.000451366368135616
0.00049271316064167
0.00054364923817972
0.000637704639116666
0.00073216698104648
0.000809698635538635
0.000878548379480654
0.000939583128326684
0.000995154429867635
0.00104613462196659
0.001092951932705
0.00113586072682133
0.00117542750050629
0.00121189301153339
0.00124542286535441
0.00127613261386648
0.00130410973629206
0.0013294240230058
0.0013521401216948
0.00137232331242512
0.00139004303256748
0.00140537542801395
0.00141840309053689
0.00142921441336872
0.00143790281958049
0.00144456436164534
0.00144929735606226
0.00145220108503889
0.00145337379238153
0.00145291302837968
0.00145091410693177
0.00144747149044743
0.00144267628102877
0.00143662051174292
0.00142938774686609
0.00142105501935521
0.00141165958886063
0.00140123112069204
0.00138982439260379
0.00137749950132329
0.0013643493353654
0.00135043446769142
0.0013358105473965
0.0013205256556079
0.001304548332372
0.00128784925619726
0.00127042936998049
0.00125226030522951
0.00123329367091032
0.00121340965722089
0.00119246409656661
0.00117017942304853
0.00114623181352784
0.00111993298585534
0.00109042811253521
0.00105627708613586
0.0010102378152759
0.000975431227351776
0.00100150367798707
0.00103588886070447
0.00106999939641883
0.00109831863025404
0.00112068557467813
0.00113699286172555
0.00114772925479672
0.00115612648111972
0.00115894398576363
0.00115250975980467
0.00113660365840748
0.00111113641591793
0.00107686935322942
0.00103120647234966
0.000975889670366351
0.000918789107818071
0.000863581167396351
0.000811048876399663
0.000764499819919547
0.000724932942515567
0.000701852470370514
0.000684504069735081
0.000669735317744829
0.000660002876878498
0.000650892314612928
0.000639756491501024
0.000592422530976376
0.000477203150299689
0.000340525238567898
0.000249916491064733
0.000193241424203067
0.000191970960895493
0.000317248781747915
0.000349252171380475
0.000332152899373364
0.000264873768758439
0.000160334639546479
0.000110395932862523
0.000100205049136048
0.000106052824744216
0.000106665359634765
8.72332233945938e-05
7.00296895711846e-05
6.07904595734307e-05
5.8516379175692e-05
5.99789991277244e-05
6.3974909554872e-05
6.9407438033697e-05
7.68831323924925e-05
8.73510910500669e-05
0.00010203500889342
0.000121789101200864
0.000147502928199846
0.000180491350183779
0.000221376266182423
0.000269881138083
0.000325134050248568
0.000387087510770499
0.000455888598003058
0.000528119495675617
0.000600290079768432
0.000668863243358639
0.000732435566069182
0.000795634439914354
0.000875483801837601
0.00101138546045444
0.00114035733626207
0.00124620159676246
0.00133981237540457
0.00142235188747432
0.00149723602146425
0.00156560023141178
0.00162789116134289
0.00168499779694188
0.00173752385640393
0.00178580007546407
0.00183007544947807
0.00187052905711976
0.00190729997748466
0.00194050050670864
0.00197023322445906
0.00199659878540397
0.00201970095704782
0.0020396501688269
0.00205656339075709
0.00207056354822529
0.00208177865436644
0.00209033880569339
0.00209637604075697
0.00210002261991561
0.00210140863345259
0.00210066248644624
0.00209790910355534
0.00209327151044136
0.00208686808306897
0.00207881741709941
0.00206922781033049
0.00205819841314225
0.00204577691385157
0.00203200094167331
0.00201694036196973
0.00200066960744596
0.00198330973390805
0.00196493974058421
0.00194568271253779
0.00192551561379875
0.00190440416270842
0.00188231686471261
0.00185925745743138
0.001835186390599
0.00181003703289611
0.00178365249608731
0.00175583790477086
0.00172623365030115
0.00169440590918912
0.00165947528138376
0.00162028866634566
0.00157514646648814
0.0015143732121079
0.00146610244126724
0.00149625469854346
0.00154196628901859
0.00158885323188917
0.00162918491143831
0.0016620904548937
0.00168729590033672
0.00170524264810384
0.00172004891877151
0.00172773074354136
0.00172317913319909
0.00170568875285418
0.00167494611221949
0.00163194104282858
0.00157323261462033
0.00150042841462026
0.00142377919804213
0.00134885964983058
0.00127685047556189
0.00121276646437105
0.00115762899645337
0.00112576547694576
0.00110385637433912
0.00108541986600399
0.00107490075400138
0.0010634573929316
0.0010515211728246
0.000986346974989913
0.000827376235273701
0.000606126108365538
0.000447366023659859
0.000328939744262259
0.000308337076385163
0.000464060671725388
0.000499335533042958
0.000474594546975457
0.000398057566953575
0.000235124563686168
0.000154833692754291
0.000149017937900387
0.000177541575222035
0.000198542390834914
0.00017146522570263
0.000141484281277612
0.000123760653430826
0.000118407508297836
0.000120044282925571
0.000126248982850939
0.000134663749332288
0.000146301859126894
0.000162713770424882
0.000185796766872099
0.000216574259295312
0.000256090669314478
0.000305946278700044
0.000366414247850601
0.000436534119188918
0.00051484344296408
0.000601243391134375
0.000695493406820005
0.000792705274816236
0.000888719017720822
0.00097982711619498
0.00106577181623737
0.00115401666190991
0.00126613863664163
0.00144323791123378
0.00160523928341753
0.00173927659881875
0.00185755797885999
0.00196171113437362
0.00205606286065888
0.00214182247881773
0.00221983705290112
0.00229132022847912
0.00235695799709132
0.0024171820013467
0.00247232617787923
0.00252263505520759
0.00256830153980647
0.00260948253787251
0.00264632043618414
0.00267895285853677
0.00270751924856903
0.0027321654021445
0.00275304352811909
0.00277031175399865
0.00278413318195504
0.00279467226541737
0.00280209501141775
0.0028065667674028
0.00280824950177402
0.00280730240854567
0.00280387990365792
0.0027981332781364
0.00279020786651559
0.00278024813133873
0.00276838684053837
0.0027547448082526
0.00273938024177745
0.00272233901039371
0.00270370612341455
0.00268356895268641
0.00266207763577004
0.00263938503751857
0.00261556903367024
0.0025905862782157
0.00256440431760929
0.00253698949542017
0.00250834458332705
0.00247842022182996
0.00244712994041973
0.00241428139208366
0.00237962891188109
0.00234273644780677
0.00230306164522074
0.00225955428370364
0.00221077018871619
0.00215482627915078
0.00207989053989409
0.00201780352271345
0.00204956987505622
0.00210592556485792
0.00216603595156076
0.0022195655050328
0.00226455857455935
0.00230041142119364
0.00232741089525547
0.00235036399667677
0.00236469434825265
0.00236389491763236
0.00234663228181204
0.00231232060399331
0.00226213786651966
0.00219197279435448
0.00210316160159235
0.00200798633305655
0.00191403319782995
0.00182299891914688
0.00174169281447351
0.00167118205004786
0.00163023834380766
0.00160428146253402
0.00158267208447356
0.00157261651971557
0.00155899911287874
0.00154813955007158
0.00146446371895722
0.00127039237050522
0.000961530800091549
0.000730025038084964
0.000526785922674608
0.000471903194904157
0.000658048312674279
0.000689967929351398
0.000649081547369727
0.000567707011688237
0.000333890767874741
0.000206512330274318
0.000187788155543224
0.00025225999090345
0.000311457096406088
0.000289772648452835
0.000248394184021512
0.000220473510462875
0.000210501622588956
0.000211647067885819
0.000219860638264902
0.000231052198657549
0.000246804182081197
0.000269426856035616
0.000301575169003749
0.000344334906698575
0.000398821380930752
0.000466767589656053
0.000547859869512512
0.000640382393764258
0.000742361030392227
0.000853648348432033
0.000973473151290511
0.00109568186743065
0.00121579196972482
0.00133032154980167
0.00144044441390457
0.00155617246172032
0.00170233788725843
0.00191865290297611
0.00211230858076803
0.00227424851588445
0.00241696212015108
0.00254273056680732
0.00265661574673521
0.00275972786002057
0.00285358176785384
0.00293951960693717
0.00301833645380875
0.00309057019825625
0.00315664064422185
0.0032168599503792
0.00327147714830147
0.00332069594087671
0.00336470042272886
0.00340366673944454
0.00343777122898965
0.00346719592919809
0.00349212886824586
0.0035127636968489
0.00352929871742736
0.00354193260946891
0.00355086513569232
0.00355629436442834
0.00355841368458056
0.00355741253324974
0.00355347421028581
0.00354677750585978
0.00353749390919247
0.00352579258910241
0.00351183006749869
0.00349574805587876
0.00347761517036298
0.0034574857705623
0.00343546006684815
0.00341163663129826
0.00338623980390042
0.00335942481989357
0.00333122635924877
0.0033016050703109
0.00327052865522957
0.00323796129566025
0.00320390221691764
0.00316829322582412
0.00313102746820744
0.00309187940538709
0.00305055406732498
0.0030065459704395
0.00295920912588026
0.00290734483141118
0.0028492378968169
0.00278287418480381
0.002694646619685
0.0026189360791566
0.00265001029788543
0.00271584448174488
0.00278910951381491
0.00285655694457837
0.0029148000956985
0.00296271284873752
0.0030003147096992
0.00303286159868737
0.00305530463665602
0.00305984142277235
0.00304441449436291
0.00300813485025414
0.00295230554078549
0.00287232507722375
0.00276920565836044
0.00265687325809422
0.00254489279077166
0.00243560799550516
0.00233758347843462
0.00225209710124445
0.00220159140631117
0.00217145586768588
0.00214649883223496
0.00213739971574572
0.0021213227341271
0.00211285821275775
0.00200994083729038
0.00178869366240411
0.00139554046500075
0.00109608148732793
0.000795768343177439
0.000693826117125111
0.000906540982719409
0.000926493653086283
0.000863580063618308
0.000772912626742731
0.000468448243974087
0.000267561796336234
0.000240222985145442
0.000319290629893313
0.000426268818914086
0.000431595681637352
0.000387166866338167
0.00035042435365683
0.000335580307251274
0.000335840168498898
0.000345686366551857
0.000359144662722528
0.000378526100496158
0.000407040552197748
0.00044815008923592
0.000502952014324113
0.000572585827487694
0.00065877660933249
0.000760501647943646
0.000875326364260276
0.0010008566494367
0.0011368514545745
0.00128193146460608
0.00142895520649469
0.00157338104234494
0.00171221053058157
0.0018480843275464
0.00199304943638257
0.00217389385832658
0.00242699487426522
0.00265115426137126
0.00284054381600332
0.00300733806407611
0.00315459633096537
0.00328792462241448
0.00340828491690926
0.00351794882599123
0.00361829825989458
0.00371025199424393
0.00379445711072884
0.00387142044123182
0.00394152430658985
0.00400507634927505
0.00406232938885394
0.00411351119275291
0.00415883795507573
0.00419852400666353
0.00423278830235902
0.00426185499289994
0.00428595322747639
0.00430531623978707
0.00432017635959919
0.00433076643948406
0.00433731643190203
0.00434005020044811
0.00433918640222804
0.00433493612784519
0.00432750443462813
0.00431708768371441
0.00430387813282406
0.00428805490097919
0.00426977953360223
0.00424913065292285
0.00422617125996008
0.00420101681275347
0.00417380096263107
0.00414481406953047
0.00411414711001524
0.00408183972702241
0.0040478557002097
0.00401216176068005
0.0039747199167957
0.00393552415040352
0.00389450813330872
0.00385154488913393
0.00380637842104532
0.0037586672833362
0.0037078444556741
0.00365316813830506
0.00359331404857835
0.00352632617174895
0.00345009100360883
0.00334967439919952
0.00326098383123171
0.00328936377312459
0.00336319995555072
0.00344910257538383
0.00353073596056477
0.00360299204033414
0.00366402026569877
0.00371345561085999
0.00375674517190564
0.00378845026337201
0.00379961301063264
0.0037874013108152
0.00375060660124246
0.00369058249790942
0.0036024004160076
0.00348675006259882
0.00335882039907849
0.00323000716408762
0.00310342169201756
0.00298924911871986
0.0028892103244105
0.00282848294791064
0.00279344504285269
0.00276441020046556
0.00275610196062967
0.00273711707148361
0.0027318786827324
0.00260948487751953
0.00236679284449628
0.00189564751707003
0.00153551965942433
0.00113706987344231
0.000978857967853128
0.00121293323750668
0.0012101881222523
0.00112658052930712
0.00100713513645829
0.000654677882072987
0.000343389650960242
0.000285827596331368
0.000347410101132539
0.000526915413370062
0.000580069268074427
0.000547787922883493
0.000507702730497091
0.000489683080163456
0.000489563479346905
0.000501032296720793
0.000516457654071813
0.000539000071120256
0.000572897503830286
0.000622472127341825
0.000688876681682501
0.000773277434956278
0.000877291972476168
0.000999163427259985
0.00113581419623277
0.00128449217243635
0.0014447908766144
0.00161470641208792
0.00178638780611645
0.00195540584864047
0.00211938041685922
0.0022822843242924
0.00245760651992343
0.00267294683236509
0.00296030857408667
0.00321391599063087
0.00343010231825071
0.00362048857446355
0.00378894675811565
0.00394137192330332
0.00407883911415298
0.00420412579940094
0.00431870434618928
0.00442362461897659
0.00451964478089427
0.00460736013247402
0.00468722582412635
0.00475961066416238
0.00482481891325721
0.00488312394507061
0.00493478341849639
0.00498005057030254
0.00501918169901718
0.00505243706874813
0.00508008093361786
0.00510238080234446
0.00511960162541728
0.00513200823300854
0.00513986116400334
0.00514341333392878
0.00514291113580979
0.00513859189127064
0.00513068524938351
0.00511941070992455
0.00510498156948952
0.00508759798036869
0.00506743998908052
0.00504459547053842
0.00501913607774029
0.00499119706367631
0.00496100442653342
0.0049287798518333
0.00489461829154038
0.00485856442570757
0.00482058452014953
0.00478064359706152
0.00473870148023305
0.00469474587746689
0.00464870285452361
0.00460042619770684
0.00454963254531552
0.00449593794990182
0.00443872233345161
0.00437715834994552
0.00430981893525881
0.00423454475406273
0.00414913931663212
0.00403769453605632
0.00393712826032982
0.00396122117628075
0.00404141769000587
0.00413907120189161
0.00423474009312567
0.00432137869705876
0.00439621820926465
0.00445839015901304
0.00451327407187171
0.00455508973774194
0.00457388253386684
0.00456603530994041
0.0045300148858363
0.00446714829994756
0.00437231973521164
0.00424592931120415
0.00410407530193383
0.00395975226926808
0.00381693145570752
0.00368721676034157