/*--------------------------------*- C++ -*----------------------------------*\
  =========                 |
  \\      /  F ield         | OpenFOAM: The Open Source CFD Toolbox
   \\    /   O peration     | Website:  https://openfoam.org
    \\  /    A nd           | Version:  7
     \\/     M anipulation  |
\*---------------------------------------------------------------------------*/
FoamFile
{
    version     2.0;
    format      ascii;
    class       volScalarField;
    location    "20000";
    object      omega;
}
// * * * * * * * * * * * * * * * * * * * * * * * * * * * * * * * * * * * * * //

dimensions      [0 0 -1 0 0 0 0];

internalField   nonuniform List<scalar> 
15600
(
3736.35783792635
3735.33041422276
3728.5652550518
3717.84464348525
3722.94461498017
3757.38314759142
3760.05136006618
3689.82491045942
3550.01750710885
3359.58431226835
3136.97233339551
2897.17877199133
2657.47826481447
2445.87857920691
2264.08546189976
2106.57175327182
1969.00876573312
1847.98240441874
1740.53187115364
1640.10000075834
1542.56020918258
1448.9102483125
1360.15162680741
1277.19140237968
1200.9578761344
1133.60799406069
1077.19882796741
1031.00164335687
994.252641908401
966.408291267406
947.115906980595
936.193355222685
933.545529496554
934.089459480299
934.089459480319
934.089459480332
934.089459480339
934.089459480311
934.089459480319
934.089459480325
934.089459480315
934.089459480272
934.08945948026
934.089459480262
934.089459480318
934.0894594803
934.089459480359
934.089459480341
934.089459480313
934.089459480356
934.0894594803
934.089459480287
934.089459480313
934.089459480319
934.089459480288
934.089459480285
934.089459480348
934.089459480339
934.089459480345
934.089459480336
934.089459480353
934.089459480324
934.08945948034
934.089459480346
934.089459480293
934.089459480228
934.089459480303
934.089459480306
934.089459480264
934.08945948031
934.089459480371
934.089459480313
934.089459480348
934.08945948031
934.08945948034
934.089459480313
934.08945948029
934.089459480261
934.089459480272
934.089459480335
934.089459480287
934.089459480283
934.089459480371
934.089459480339
934.089459480313
934.089459480332
934.089459480298
933.542571168293
936.225029323601
947.186066088914
966.517410680013
994.401991071642
1031.19333955635
1077.4359244361
1133.8946469582
1201.2938129122
1277.56196238753
1360.55203902001
1449.33680186983
1543.00817994866
1640.56456334263
1741.01319963801
1848.51680763103
1969.61344699789
2107.2610107252
2264.87728121639
2446.79548775544
2658.54885335201
2898.32544071856
3138.07477605049
3360.5820718745
3550.83067622192
3690.36125152197
3760.24471483907
3757.26470221832
3722.87417888303
3717.88786999588
3728.62570384949
3735.35893619109
3736.35783792635
632.818047102585
632.451800432096
634.403751213612
633.533703083984
632.918081670537
636.003897138501
634.338998629556
622.055018553194
598.605076499551
566.719719248173
529.424234782757
489.195307325158
448.851878545579
413.150655084965
382.435537099495
355.834572900576
332.61494450673
312.205726551172
294.102359563925
277.2084853848
260.821372814282
245.084332823818
230.158655399733
216.195737443573
203.366231458848
192.043131766819
182.546543350492
174.761836315306
168.566381065283
163.882717798089
160.65332805576
158.921817902199
159.01308811003
159.241093747617
159.058825185144
158.947000851936
158.87135602771
158.80823261406
158.750333403906
158.692940349089
158.633574758903
158.570925540285
158.504809176408
158.435643512675
158.363792200361
158.289844918818
158.214465696807
158.138393232834
158.062385537872
157.987179656828
157.913472986038
157.841897024082
157.773007949993
157.707285725934
157.645125429418
157.586847434518
157.532701362242
157.482863216846
157.437453005359
157.396527600245
157.360102281627
157.328126312355
157.300532538124
157.277162564354
157.257887761997
157.242479214563
157.230842230783
157.22292759413
157.218573366585
157.217562666066
157.219612858763
157.224427438318
157.231764619228
157.241529683828
157.25355235237
157.267734151389
157.283858760118
157.301865420682
157.32156182975
157.34334373657
157.366918123968
157.393597989408
157.422798605631
157.458484016871
157.499242467891
157.555851770368
157.673022016976
157.71642181661
157.999961209843
159.772931616404
162.940679455719
167.583314929374
173.730592146947
181.47715410454
190.94511459843
202.223128714744
215.01539138155
228.996489708372
244.007902518111
259.912045498192
276.55278271386
293.820360397393
312.329772704427
333.060519106348
356.559364146867
383.417203527532
414.329539036602
450.184052775325
490.632608432201
531.586710382167
569.935797478292
603.158525666497
628.300693904582
642.699216011728
646.629096821652
644.829751731838
642.748056381229
640.73178817595
638.335989841845
633.887629552956
216.091644222268
215.023188611777
218.438527096201
219.664140243246
217.230959195303
213.689819362672
209.78582392162
204.658210590756
196.833433428833
186.416154672911
174.276446745722
161.161482651056
147.955213791262
136.244324819898
126.142422947828
117.407636153267
109.802779105074
103.141492224753
97.2412633314177
91.7414710370113
86.4186239416706
81.3064856208687
76.4493182907033
71.8982940340692
67.7296733386261
64.074502643396
61.0031270545556
58.4780481414241
56.4695655982443
54.9707038493122
53.9965123969006
53.6659246214314
54.2056554276534
54.292587346938
53.9375734091603
53.692579377806
53.5029475277851
53.3376667456429
53.1862397333539
53.0416629463235
52.900450039283
52.7609444606324
52.6236429989523
52.4884874747943
52.3555279325271
52.2253648253021
52.0986202783477
51.9759771523651
51.858097213339
51.745581268871
51.6389550288249
51.538648446567
51.4449966063686
51.3582470092847
51.2785585015419
51.2060196148711
51.1406555649787
51.0824289862799
51.0312607546024
50.9870223048499
50.9495573666111
50.9186555496306
50.89410112907
50.8755944831554
50.8628815132892
50.8556248666816
50.8536783776819
50.8569430654169
50.8651711959421
50.878046805724
50.8951732475939
50.9161525708542
50.9406796833663
50.9686294619705
50.999793074717
51.0340157342134
51.0710410146491
51.1107601450534
51.1529850492181
51.1982006009071
51.2462824374411
51.2987394910315
51.3555249809213
51.4213484689807
51.4964739803439
51.5938789495921
51.7572714437282
51.8401652149807
51.7040765659426
52.169982922277
53.0981794477448
54.5381912557058
56.4774359643879
58.9453626923822
61.9750120835192
65.5712607555038
69.6920478148539
74.2668289848575
79.2433005491843
84.5921867937609
90.2796314918441
96.3268927846848
102.865967851088
110.094283890713
118.210580329053
127.421242536667
137.917824737272
149.938785509262
163.307967337445
177.277683986946
190.745765243841
202.854234092804
212.723224181529
219.949284480055
226.05044222642
232.040739843678
234.180625036462
231.576100790732
226.568586058974
219.265427641557
111.778480222061
108.895914812684
111.643525861974
114.490137579558
111.909045675516
104.312363120306
97.6725788530395
93.703507197184
89.9044410925081
85.1926988315126
79.7592345425146
73.871923943012
67.9063332234659
62.6024945191369
58.0075208954088
54.0501156337579
50.6268267683788
47.6506206674211
45.0210939002102
42.5729139095627
40.2112437108583
37.9392015580205
35.7692271824443
33.7290894570865
31.8704837012915
30.2518158374406
28.8753402776301
27.7309985375801
26.8218046655644
26.1684792657108
25.8169538449533
25.8613269094658
26.3115710845631
26.0936627948729
25.5732517879956
25.2405634311718
24.9823353560173
24.7701835627709
24.5872778708562
24.4241769312684
24.2754498714982
24.1385489617339
24.0117859598918
23.8931022618804
23.7818453113241
23.6775720188217
23.5799955332272
23.4889575490752
23.4043465981396
23.3260653708633
23.2540172025899
23.1880884747508
23.1281493778741
23.0740568707246
23.0256515844067
22.9827692165375
22.9452407573969
22.9128896743652
22.8855435937918
22.8630240149784
22.8451581854485
22.8317560264497
22.8226414123764
22.8175919752663
22.816432876805
22.8189417912403
22.8250642315503
22.8347820644859
22.8479598831971
22.8644137421883
22.8839073365044
22.9061953508248
22.9311232143258
22.9586736897125
22.9887398371687
23.0213281635967
23.0561870140775
23.0935208816302
23.1331710626364
23.1756480617391
23.2210497218746
23.2708071398644
23.3253278351023
23.3890174927867
23.4634276019137
23.5604794562322
23.7236984540666
23.8122614997092
23.5939507558484
23.7061045757733
24.0428905567338
24.6269157361129
25.4394958094315
26.4888767105997
27.7844860756675
29.3095492492977
31.0742511791758
33.0725523464497
35.2835650045591
37.7055499704123
40.3355551978141
43.2338425830106
46.4461736801985
49.9797163793714
53.9130083243865
58.3422419409051
63.3153112200392
68.8912384030758
74.8204944819789
81.1547987106101
87.4376803642102
93.2599949687859
98.2640504062442
102.495418723659
107.976035858214
116.980505313676
124.569110449403
126.692255807429
124.089417463686
116.767261399572
74.4365009559295
70.1062520977284
71.4529425258649
75.8271468095717
75.6151389308809
66.251714747563
56.2202128282693
51.6067388896817
49.1626960942339
46.6398543367228
43.7867826134418
40.6713136482355
37.4771768283994
34.62539423626
32.1394529603869
30.0157821872058
28.1997853752674
26.6387523217635
25.2615500222685
23.9771393699983
22.7372352289628
21.5317083114479
20.3632867613025
19.2547906440562
18.2468357161003
17.3651931601007
16.5945470359961
15.9458887954523
15.438017938089
15.0999098626792
14.9712797672525
15.0835091945871
15.3283746152262
14.9598136241334
14.4945919832234
14.2349253577472
14.0418454435738
13.8969966996189
13.7804805381461
13.6835939447939
13.600620448339
13.5285107273464
13.4639926274149
13.4055646118516
13.3523837479921
13.3037478944932
13.2591648336596
13.2182910899181
13.1808644995574
13.1466758734838
13.1155527524068
13.0873421982908
13.0619071938314
13.0391238639579
13.0188760842649
13.0010599366714
12.9855804379153
12.9723477319222
12.961282491693
12.952307557517
12.9453536062453
12.9403437664597
12.9372111573409
12.935861503465
12.9362310093353
12.9382272284266
12.9418695286686
12.9471979871006
12.9541761021848
12.9627372778197
12.9727938989329
12.984236244336
12.9970256339033
13.0112070592351
13.0267248804275
13.0437689098819
13.0621240834166
13.0820370152387
13.1034418174592
13.1267579546167
13.1521653167165
13.1807852940433
13.2131388637197
13.2526198405402
13.3011000412963
13.3672278445285
13.4888536762551
13.5655651607295
13.3824027068439
13.3884300603529
13.5288961291877
13.8104661123437
14.2170935502373
14.7487462448328
15.4074019745724
16.1738793445549
17.0613011386079
18.0767375431386
19.2099340761928
20.4634258859852
21.8380257651584
23.3881789329199
25.1465283289867
27.0868646709792
29.2381119408683
31.6527913742001
34.3308511840809
37.2875798478831
40.2412660899573
43.3782303979239
46.5225401987341
49.4494623228491
52.0113612957011
54.2551982080798
57.7694313244291
65.6585382141025
75.3422574947972
82.0334432750385
84.292869461984
79.5512934704534
55.3841234547098
50.8931681705959
51.0465058558093
55.9916697640125
59.5502089792838
51.4557433147209
38.5287032489526
32.1388009445559
29.9702467835771
28.4440488487519
26.8118010187138
25.0150037825591
23.1379301275691
21.4508345375533
19.9683182865296
18.7191994713441
17.6678443366326
16.7746790830176
15.9821277017195
15.2349573970352
14.5051459701734
13.7782621281144
13.0583033008103
12.3698427335257
11.7466151199066
11.1992205119907
10.7139418412916
10.3130504942893
10.01584305556
9.84425938670536
9.8180775796024
9.92811723250162
10.0494571108152
9.72354961736463
9.419675240301
9.27061972894457
9.16356586425288
9.09114943742262
9.0367186924729
8.99484764396239
8.96132263283862
8.93337704232014
8.90898111273406
8.88744613275399
8.86817594781176
8.85072439834061
8.83479227828503
8.82018264086909
8.80675476093459
8.79440599868709
8.78306006941805
8.77265515672345
8.76314128899773
8.75447764112986
8.74662872838403
8.73956699215056
8.73326997158649
8.72771776297234
8.72289617374935
8.71879113220332
8.71539177831614
8.71268084255118
8.7106448681077
8.7092516602587
8.70848687515402
8.70831808863066
8.70878657821813
8.70994399128489
8.71178962889598
8.71430198377209
8.71745391874409
8.72119216487599
8.72551766415737
8.7304839461374
8.7361180671775
8.74256817699139
8.74969356886913
8.75766571592083
8.7664826344695
8.77645672979455
8.78776550727759
8.80122902578714
8.81732843000073
8.83851220617569
8.86652567826002
8.90701272486278
8.99037133309176
9.05251082893207
8.92017798735652
8.89630018322593
8.9619318929658
9.118466484115
9.35389017987896
9.66550991654519
10.0529696417046
10.5000269613183
11.0151351218494
11.605759944011
12.2656670134475
12.9963749303976
13.7969538870309
14.7049974771276
15.7457021403193
16.8949758799594
18.1609642967739
19.5751044010243
21.1242953724863
22.8208276293921
24.4290276205658
26.0923654197002
27.7577862667234
29.286550708863
30.6385813188478
31.7913152760293
33.7248167480297
38.8451571333343
46.9761156419782
54.7593787006452
60.5736094850664
59.0656626709064
42.5190561891228
38.8627182951557
38.4875682449325
42.8366331032401
49.7881727844898
45.1975373894726
31.1163712181816
22.3740519459903
19.7701136475166
18.6470732955225
17.626906342593
16.5293030556288
15.3632648917858
14.3080245158649
13.3731748980429
12.6018126290059
11.9645167970147
11.4274650330818
10.942457141846
10.4755104639006
10.0100896314228
9.53400760607908
9.0566447025127
8.6033067251746
8.19992707248143
7.84891707407191
7.54105554090019
7.29883515592983
7.13524796737466
7.0631370170173
7.08798573169724
7.18585381523019
7.25150103033402
7.01335558300062
6.83425667665251
6.75548747479389
6.70091102300232
6.66900055387303
6.64737048216447
6.63309827214799
6.62313676150339
6.61551028224343
6.60930170035715
6.60412733308525
6.5996197222542
6.5955341609251
6.59171718186211
6.58808013744831
6.58456816245237
6.58114945484739
6.57780764180028
6.57453408452731
6.57132654529607
6.56818733422986
6.56512095407267
6.56213599883664
6.55924306707078
6.556453179578
6.55377985718772
6.55123531624023
6.54883225230419
6.54657755491358
6.54447859554299
6.54252912224073
6.54073392441875
6.53908652723436
6.53763212995924
6.53642071832253
6.53546356072548
6.53475579374038
6.53429315250756
6.5340457850553
6.5340300007571
6.53432398974065
6.53496822514206
6.53605074136705
6.53749211728671
6.53941274469386
6.54184149047872
6.54501847291697
6.54910963320882
6.55473413058206
6.56232703511634
6.57370386103741
6.59043886666202
6.61625797741423
6.6755270333956
6.72703072148216
6.63291408690089
6.60112008427291
6.63261388132384
6.72826501917788
6.87943866139064
7.08287038999629
7.33745008098909
7.63013148519495
7.96569947784939
8.35018754849482
8.77945918371525
9.25406439250866
9.77203372053498
10.3583601404925
11.0322161670203
11.7756671223887
12.5882137337562
13.4897022801621
14.4648893317498
15.526967699821
16.5010178838045
17.4749398111163
18.4471878132307
19.3201222592254
20.1080222520723
20.7397568168821
21.8326290214078
24.7916972207859
30.426446400955
36.743374406834
43.5083760917752
44.3145233391853
32.7897538509749
30.2535928584247
29.9499270392742
33.0645895938924
42.0592188211298
41.8395496598148
28.5604532606249
17.6313992539219
14.1001071021313
12.9962186592765
12.2410139003478
11.5124875793069
10.7502429662015
10.0623860780277
9.4518228488188
8.96331343636052
8.56862351492955
8.23779751566557
7.93134979665357
7.62921833792299
7.32210502993896
7.00187350618973
6.68094266527766
6.38122416538382
6.1203800668028
5.89671869787465
5.70487255715524
5.56370734243371
5.4810131624499
5.46382218873058
5.51036707542547
5.59429158274633
5.63423969267544
5.46779360825064
5.3633209272013
5.32193409536364
5.295163478698
5.2833624783608
5.2774839949334
5.27597624041409
5.27647269435793
5.27781520923592
5.27954465984677
5.28141696079233
5.28320330421197
5.28476927689964
5.28603849461404
5.286977483116
5.28757367783247
5.28782891622228
5.28775432315341
5.28736513923676
5.28668009714838
5.2857201348169
5.28450688860796
5.28306413884989
5.28141622533299
5.27958699291275
5.27760120468517
5.27548180418543
5.27325092837074
5.27092556708968
5.26852158037941
5.26604456388798
5.2635074075882
5.26091627118958
5.25831549611315
5.25575105799289
5.2532386124148
5.25078033033487
5.24838159427278
5.24602481479569
5.24374900434573
5.24163099920556
5.23969987306405
5.23801683748067
5.23654059362469
5.23536166203782
5.23452436780437
5.23422280637377
5.2346134061762
5.23618589258874
5.23933989720681
5.24548075313551
5.25603030638396
5.27357756127931
5.31795298382135
5.36173165048217
5.29398128216444
5.26145782972781
5.27528026172581
5.33722016177478
5.44122740445672
5.58419407809566
5.7647809903173
5.97251189421233
6.2098892582682
6.48157798684506
6.78473211424622
7.11940266883671
7.48341244905525
7.89384448325786
8.36552897481111
8.88566913866457
9.4504940810097
10.0731554482442
10.739583329558
11.4620829101303
12.1143986617722
12.7462115104692
13.3765552318757
13.9290697882167
14.4436721752494
14.8242750785058
15.5111050711647
17.2197145122488
20.9493343993123
25.2995073973665
31.2810170324783
33.1102344192756
25.3702122315855
23.7795619984753
23.8087541589763
25.6635577245879
35.1571795529122
39.1447749314759
28.17346767793
15.7112417117889
10.9987950590858
9.66551478763703
8.96791455282739
8.41175893456107
7.87458692376629
7.40352232833694
6.99155033975142
6.67631656128841
6.42952024052183
6.22463780019393
6.02992801320306
5.83367721104421
5.6304294353564
5.41506673055928
5.19998709283577
5.00229797270369
4.83357953465666
4.69107784484253
4.57240688818129
4.49266412775405
4.45649007436892
4.46753816646864
4.52071395442074
4.5916034611012
4.61878530998102
4.50282509571807
4.4413307153867
4.4199992091843
4.40827641249978
4.40669934753145
4.40862829890147
4.41318654175914
4.41850657438285
4.42397128269457
4.42930150003167
4.43432880223898
4.43890566401077
4.44295679385141
4.44644582430924
4.44936653029846
4.45172647230459
4.45354285905972
4.45483896484473
4.45564047100878
4.4559751808919
4.45587206504465
4.455360226928
4.45446999315734
4.4532316506437
4.45167467239723
4.44982867729207
4.44772135512224
4.44537899093638
4.44282332168328
4.44007415783097
4.43714334350782
4.43404778397248
4.43080072287787
4.42744460707453
4.42402153466785
4.4205489403534
4.41703237977284
4.41348189789626
4.40989610585772
4.40632421150367
4.40282732543053
4.39943089028879
4.39618232939418
4.39306383828875
4.39014813141073
4.38748739332962
4.38524493536479
4.38356906797121
4.38286210035043
4.38349473596481
4.38659562994497
4.39345107796994
4.40597172674199
4.44051482346013
4.47822332836521
4.42882423435569
4.39822632729199
4.40226027014685
4.44381305150379
4.51880150190663
4.62452025763112
4.75960205555951
4.91554820728017
5.09347421988903
5.29694962837548
5.52396472174923
5.77433993760737
6.04606509858243
6.35127813094827
6.70171340790103
7.08831349579307
7.50635686719629
7.96490616884567
8.45192206296298
8.97776471339849
9.45098186112845
9.89782578414079
10.3444793028567
10.7270946933368
11.0962144850528
11.3457178708353
11.8241839828296
12.8535792648122
15.3805578668077
18.2214002217644
22.8947186769396
24.8641199071206
19.8257742193431
18.8974548489133
19.2212875424292
20.1735073946371
28.8499714665176
36.2116222861759
28.5240197639291
15.4056255500623
9.43010843895202
7.71107406723458
6.95714314513198
6.46043052151009
6.04037911559135
5.69421511158636
5.40321006593684
5.19360791182748
5.0371732029832
4.91022355702291
4.78700251626822
4.6600618215778
4.52564119623049
4.38049796790379
4.23567917302544
4.1041917019877
3.99390235762462
3.90240255181811
3.82928433149406
3.78646871774645
3.77669831155865
3.80155198455784
3.85457098270165
3.91451879546627
3.93521803485477
3.85428083333914
3.81823171181099
3.80840176024246
3.80536669566486
3.80933923299396
3.81541474151249
3.82302630432747
3.8307342784117
3.83821552394606
3.84527538125361
3.85179219580723
3.85766826022581
3.86286161499928
3.86735778667969
3.87116454134094
3.87429932074712
3.87678650893401
3.87865484200761
3.87993470284147
3.88065798842397
3.88085735251227
3.88056543778317
3.87981567925148
3.87864125437754
3.87707445644803
3.87514732985887
3.87289002789192
3.87033101368323
3.86749469179119
3.86440312919348
3.86107203356892
3.85752073531103
3.85376701483366
3.84985146120324
3.84581291874684
3.8416696433052
3.83742896695936
3.83310723066578
3.82871690890625
3.82430337042856
3.81991718423811
3.81558300193016
3.81134038867767
3.80718640306499
3.80318264593225
3.79938509811672
3.79593519667685
3.79297369749626
3.79084059710288
3.78988112158989
3.79102821830866
3.7954453179649
3.80462856707241
3.83220228818517
3.86483827338092
3.82849261489573
3.8007923664462
3.79925984321201
3.82772650766584
3.88361722644845
3.96469551751768
4.06965382420365
4.19152272274255
4.33056788130944
4.48950233570973
4.66687049226534
4.86239389670816
5.07435526088985
5.3116966464819
5.5838873445045
5.88451463245966
6.20888461503093
6.5634194282825
6.93814567927657
7.34127725271338
7.70580668134854
8.0439641092545
8.38308297144514
8.66768005621455
8.95105912512066
9.1257421039217
9.48438310878064
10.1364937946075
11.9212774539049
13.788866309076
17.2685846866423
19.0050069322318
15.7483362689132
15.2548626071154
15.701160813093
16.2208420683375
23.2049420055396
32.7335762658135
28.7207069044193
16.0229063586056
8.82209115288329
6.59689431053793
5.71858725463342
5.21949219671419
4.85297746866914
4.57521820488682
4.35575056985102
4.208767358921
4.10638519905189
4.02696709336906
3.94895314497748
3.86672402016061
3.77719666475671
3.67828744805319
3.57943011761326
3.49059945515076
3.41747131465214
3.35834360003857
3.3139378371631
3.29360804281072
3.29888936221491
3.33003089635888
3.38022595452843
3.43152608085447
3.44912800635786
3.39297337648087
3.37271894213116
3.37006713455889
3.37244452890763
3.37969405083684
3.38817700484377
3.39745984819733
3.40646720297966
3.41502389761893
3.42298406611739
3.43025791554054
3.43678017066732
3.44252902599549
3.44750290604797
3.45171723779977
3.45519461588354
3.45796295720901
3.46005360161193
3.46149924024956
3.46233384433467
3.46259202892844
3.46230843667153
3.46151830648877
3.46025657032396
3.45855730066371
3.45645410586625
3.45397878185009
3.4511612924903
3.44802792259243
3.44460239326602
3.44090320531829
3.43695148949559
3.43276830129751
3.42839271207537
3.42386096456293
3.41919179657777
3.41439475975638
3.40949436518354
3.40450788544767
3.39947555909998
3.394441640741
3.38943076983768
3.38447768167234
3.37958910749603
3.37481940171349
3.37022605664238
3.36593415017631
3.36207713476463
3.35894851404797
3.35687012160918
3.35663061685799
3.35928126135451
3.36605775402017
3.3883879752885
3.41662604763837
3.38973212675689
3.36518572042326
3.36051877258886
3.38024088076276
3.42293796321992
3.48683698080459
3.57073179704058
3.66885389822523
3.78094536848985
3.90904786897465
4.05207881713904
4.20972692302486
4.38058895373258
4.57146191409674
4.79010743801412
5.03197957165411
5.29280358098571
5.57722039111236
5.87710331950993
6.19873033093306
6.49243449826652
6.76209062523782
7.03344043470989
7.2571872378943
7.48524762524547
7.61373879020374
7.89510817497543
8.32794260962057
9.63795511131725
10.9074363046504
13.4715957092632
14.8998101782394
12.7553842235477
12.5522685281982
12.9520479925165
13.4303558106686
18.3425539209775
28.9013097001843
28.2548307390705
17.1451674360913
8.8719835846033
6.02429559086778
4.96295161366483
4.42343874051173
4.07248671162113
3.82833186146533
3.64893248807404
3.5373993483846
3.4662303327359
3.41506997502215
3.36513841770929
3.31136318551538
3.2508961822806
3.18236072036236
3.11368226020365
3.05265402533128
3.00361158152066
2.96551594471021
2.93963712444517
2.93328386203123
2.94719389699395
2.98076294845078
3.02737595941282
3.07208804920998
3.08853391921731
3.05041396567967
3.04051218474532
3.04275454315727
3.0487858922508
3.05817520767661
3.06821511686959
3.07853558854914
3.08835207169819
3.09756356225471
3.10605805908089
3.11376912264809
3.1206539355012
3.12670387436131
3.13192564941908
3.13633928042866
3.13997033562519
3.14284868849697
3.14500713098559
3.14647974388971
3.14730184171286
3.14750941208255
3.14713858416068
3.1462260019632
3.1448080252767
3.14292020835149
3.14059751294187
3.13787316551179
3.13477848342489
3.13134138754046
3.12758709884004
3.12353642571599
3.11921207804559
3.11463773313623
3.10985134973999
3.10488714868875
3.09976439805543
3.09449748558729
3.08911489174616
3.08363497814832
3.07809468572074
3.07253415804256
3.06697817692264
3.06145834433319
3.05598784298066
3.05061612966105
3.04540088945663
3.04045446219111
3.03590318151112
3.03200456918071
3.02905859654537
3.02774382571884
3.02900912469131
3.03392106528587
3.05211026235584
3.07645775676158
3.05648475960024
3.03502107306971
3.02868683870645
3.04240719400417
3.07565968138544
3.12709952087905
3.19564190005666
3.27647672978596
3.36902606854866
3.47480235222056
3.59297810940913
3.72324506545156
3.86449557776123
4.02203539563121
4.20230421843336
4.40208049715332
4.61764074554231
4.85238817038569
5.09976959390423
5.36448168340823
5.60937359963454
5.83335433312055
6.05932430722031
6.24288748264477
6.43242968626765
6.53041513871267
6.75705313193983
7.05639702743007
8.04737015636578
8.94760870108067
10.8484631917435
12.0041252818733
10.5379708446158
10.5365336268565
10.7863264138069
11.4534939881611
14.3535745581965
25.0027567575615
27.2244667910186
18.4251816377404
9.42182865664273
5.83858573377567
4.52578783350246
3.91426536705063
3.55342297278184
3.32042047300864
3.16069441699464
3.06733843928005
3.01296741525913
2.97786462649386
2.94499707596002
2.90917837280655
2.8675689648768
2.81918187131885
2.77062002539534
2.72808906022826
2.69505561172826
2.67099850411323
2.65738177227935
2.6598964166902
2.678748048852
2.71280445258253
2.75592037605903
2.7957510838275
2.81219466538076
2.78758417062531
2.78487750157967
2.7907530444266
2.79946300169619
2.8104176247408
2.82159877560023
2.83267954551018
2.84309586803513
2.8527866692162
2.8616665816482
2.86968731396513
2.87682255965724
2.88307307639977
2.88845144137888
2.89298079419943
2.89668872039018
2.89960644569943
2.90176785038556
2.90320816072515
2.90396388670996
2.90407230819387
2.90357098720192
2.90249797503567
2.90089108909146
2.89878739596907
2.89622328282762
2.89323346064579
2.88985068067376
2.88610449942474
2.88202167738388
2.87762512722378
2.87293909698953
2.86798954748868
2.86281371947198
2.85744430349849
2.85190246537656
2.84620746590722
2.8403875421267
2.83446241357557
2.82846696247365
2.82243850135485
2.81640192893526
2.81038673947903
2.80441050987769
2.79851929330487
2.79277020292726
2.78726534068755
2.78212412210852
2.77757539001892
2.77389855922068
2.77168573643855
2.77179257723179
2.77517104416716
2.78995980333208
2.81082231335209
2.79594207011305
2.7773381563873
2.77024482869647
2.77977593725133
2.80608659307701
2.84821314449275
2.90520012144177
2.97301344764224
3.05088535410088
3.13990963642231
3.23943697057966
3.34918376303578
3.46830672112002
3.60104124500104
3.75278040352047
3.92124783525992
4.10328867177717
4.30143123120728
4.51043875611544
4.73380322926465
4.94356979797782
5.13570009744458
5.32971717761985
5.48527990992284
5.64623213013814
5.72281603766915
5.9079320000761
6.12253235745305
6.88905978812415
7.55518840905981
8.98098398272699
9.92174028970811
8.87037496999093
9.01007889897984
9.07808431241769
10.0057304226424
11.2571330577921
21.2840970352257
25.7935877961312
19.4580751010893
10.3433074958612
5.97028755512938
4.31937181839597
3.6008403092769
3.20926596810313
2.971285624783
2.81720280929368
2.7305516211743
2.68355096377059
2.65657901735495
2.63359580949854
2.60893600069107
2.57960466662708
2.5447599346163
2.50985502501311
2.47990935403928
2.45778933655316
2.44334675491221
2.43803903318896
2.44628273060739
2.46793263453023
2.50155578248234
2.54160362261633
2.57791885091036
2.59506186024379
2.58086125049501
2.58347201423698
2.59225920593218
2.60309855574412
2.61533668424178
2.6274687941829
2.63920716177092
2.65015256601199
2.66026800122274
2.6694905955205
2.67778687596545
2.68514338967702
2.69156817046073
2.69707839731135
2.70169967254574
2.70546125571879
2.70839559692711
2.71053767912573
2.71192395098085
2.71259224471632
2.71258128950332
2.71193024173879
2.71067874712393
2.70886627409978
2.70653158354048
2.70371268731726
2.70044595692996
2.69676576008815
2.69270340417676
2.6882873174913
2.68354246058963
2.67849466403207
2.67317201053644
2.66761138427156
2.66184484612408
2.65589664468136
2.64978840839138
2.64354747599588
2.6371952255364
2.63076534538247
2.62429313143681
2.61780353928532
2.6113246169771
2.60487699254789
2.59850430501896
2.59226266112763
2.58624572268156
2.58056622150339
2.57542958279089
2.57109587127912
2.56808761996518
2.56717590026375
2.56923050761506
2.58113977144092
2.5988520754602
2.58771245471701
2.5716789642403
2.56439277442038
2.57097274384284
2.59207865150674
2.6270769903688
2.67514235912198
2.73287665056865
2.79940715379488
2.87549659279184
2.96062409332546
3.05454543487993
3.1566481832418
3.27037606892124
3.40027720298198
3.54475279131621
3.70118543346938
3.87148155078256
4.05150226781165
4.243884443722
4.42753401506765
4.59664144277608
4.7671684561944
4.90222728132984
5.04077453780273
5.10146264798477
5.25356827947828
5.41232972967917
6.01488786699839
6.52715142060027
7.61051101972777
8.38676759363217
7.59529383145641
7.8288532913621
7.73529773912415
8.88033215080679
8.98479627773538
17.911313028446
24.0699380661482
20.1460422742356
11.4870337119032
6.39671575158778
4.30341265821809
3.43296543931212
2.98951341228345
2.73299839246281
2.57385334605914
2.48561617232407
2.43935828676902
2.4150465959545
2.39705670494159
2.3790121028144
2.357608306862
2.33194442423479
2.30645665541109
2.28524469716466
2.27073114713362
2.26302144969218
2.26346094212906
2.27546408447848
2.29866199281257
2.33147890485292
2.36900075427768
2.40287890714966
2.42115671101607
2.41520236399574
2.42199397632467
2.43327096877397
2.44593391941462
2.45933281137181
2.47234699076723
2.48472957279005
2.49620441628627
2.50675150373966
2.51632770591082
2.52491218280436
2.5325020398259
2.53911143222922
2.54476151318091
2.54948012678878
2.5532981849864
2.55624947810649
2.55837029552125
2.55969854505865
2.56027364315077
2.56013604159013
2.55932675864215