/*--------------------------------*- C++ -*----------------------------------*\
  =========                 |
  \\      /  F ield         | OpenFOAM: The Open Source CFD Toolbox
   \\    /   O peration     | Website:  https://openfoam.org
    \\  /    A nd           | Version:  7
     \\/     M anipulation  |
\*---------------------------------------------------------------------------*/
FoamFile
{
    version     2.0;
    format      ascii;
    class       volScalarField;
    location    "20000";
    object      p;
}
// * * * * * * * * * * * * * * * * * * * * * * * * * * * * * * * * * * * * * //

dimensions      [0 2 -2 0 0 0 0];

internalField   nonuniform List<scalar> 
15600
(
-6.04345263025223e-09
0.00892172413929032
0.00558529675782438
0.0151664311248899
0.0326337744051797
0.0500776324446068
0.0611282909623113
0.0667202525569107
0.0713731260822706
0.0746510705253669
0.0771837087523002
0.0790797538796258
0.0806611801349182
0.0819598747758952
0.0831461223779754
0.0841792244689078
0.0851139248378571
0.0859443763025934
0.0867242085201123
0.087473524951632
0.0881956951729834
0.088915334132299
0.0896509567897963
0.090418227161103
0.0912022383243196
0.0919791944004589
0.0927923137903556
0.0936464442650477
0.0945437896350126
0.0954575748985847
0.096392084933062
0.0973545536901754
0.0977533096674286
0.098698039488932
0.100404229506295
0.102573103856965
0.105144803200594
0.108037957714086
0.111205204405808
0.114605851840423
0.118208690826197
0.121986755158303
0.125915997060092
0.12997430602685
0.134140958077872
0.138396279981541
0.142721542728
0.147098820265408
0.151511027037454
0.155941979929163
0.160376473976066
0.164800376155272
0.169200695606572
0.173565628651832
0.177884596874435
0.182148241505385
0.186348405933271
0.190478112897365
0.194531501526856
0.198503787933613
0.202391175092344
0.206190827068701
0.209900725334235
0.213519707991327
0.217047220865553
0.220483436990561
0.223828908099957
0.227084571109761
0.230251868497516
0.233332698848145
0.236329413616036
0.23924471626882
0.242081562998285
0.244842945487117
0.247532127686329
0.250152370041553
0.252707380352662
0.255200652302902
0.257636465558548
0.260018186306867
0.26235119736691
0.264638329577717
0.266887913781615
0.269100980685845
0.271294002167874
0.273462602156292
0.275646177625272
0.277805657619537
0.280225584168843
0.282509574259497
0.284846223754381
0.287087752237581
0.289247323599795
0.29125981927426
0.293056967509284
0.294566304129203
0.295589948391028
0.295945539756731
0.295492365515342
0.294063386843823
0.291558670795418
0.287889604623803
0.283244876819582
0.277790939379804
0.271267960872803
0.263393276362769
0.253845058620768
0.241780727958467
0.226143588580143
0.203787670230203
0.174637078295666
0.138024680914888
0.0935234699975219
0.0420312829883713
-0.0118714333220753
-0.0529210271864896
-0.0602236050850887
-0.0476040057980512
-0.0332029884108226
-0.00819119977850195
-5.83958691744553e-06
0.00891581549407197
0.00561487862255717
0.0151589943101239
0.0325360892278128
0.0499220402509044
0.0609941254630775
0.0666169794917677
0.0712839346007355
0.0745833028408989
0.0771328275585474
0.0790422393225106
0.0806330611796466
0.0819383933671969
0.0831291062578464
0.084166511857424
0.0851048829848674
0.0859383804692617
0.0867199975168533
0.0874706052889512
0.0881936792820185
0.0889135070519217
0.0896486890572596
0.0904154609588129
0.0911996927256896
0.0919769355797346
0.0927897438032482
0.0936435323766875
0.0945409006078139
0.0954549968963487
0.0963908107538458
0.0973555919714886
0.0977606454056805
0.098711610953103
0.100418453052833
0.102587143980213
0.105158746196217
0.108051711515957
0.111218681468207
0.114618950812033
0.118221315029774
0.121998811431223
0.125927400923453
0.129984985657166
0.13415085198041
0.138405335647826
0.142729717642658
0.147106082349902
0.151517354517754
0.15594736096743
0.16038090611118
0.164803865558136
0.169203256234265
0.173567281315648
0.177885368273697
0.182148163291532
0.186347513771167
0.190476445575283
0.194529100138525
0.198500695112356
0.2023874342992
0.206186481937247
0.209895819064234
0.213514282755172
0.21704131748559
0.220477094716086
0.223822165580388
0.227077466105865
0.230244436803787
0.23332497368887
0.236321425182565
0.239236491801492
0.242073127762906
0.244834323552942
0.24752334126088
0.25014343948101
0.252698322771172
0.255191483569747
0.257627201805725
0.260008844259169
0.262341795076563
0.264628889911108
0.266878464122889
0.269091562206641
0.271284672044329
0.273453469959974
0.275637465308219
0.27779872556594
0.280223697997
0.282513822899762
0.284856158691679
0.287102137983729
0.289264558768704
0.291277213172975
0.293071053841141
0.29457130471132
0.295578290384208
0.295910623029459
0.295428420084668
0.293966348577761
0.291427027399922
0.287727446977526
0.283058338039251
0.277577273216327
0.271018492550415
0.263098370074562
0.253486532913549
0.241329793332948
0.225545448611784
0.203024112366571
0.173736570583305
0.13702744163867
0.0925135142017402
0.0411677216359355
-0.0123477236299978
-0.0529083918608471
-0.0600466179064397
-0.0474818332132757
-0.0331431604002635
-0.00818031812265764
-6.12033923308193e-06
0.00892409483337857
0.00567598819746013
0.0151857851098521
0.0324580425767265
0.0497792923823518
0.0608704812310273
0.0665183610476875
0.0711970719294229
0.0745164448540116
0.0770822175724783
0.0790045006895194
0.0806046811969274
0.0819166537500383
0.083111945998199
0.084153719650616
0.0850958748630335
0.0859325175239118
0.0867159425494494
0.0874676898796989
0.088191353428867
0.0889108696238564
0.0896448589119773
0.0904100714354192
0.0911932029596343
0.0919693371607747
0.0927803207672584
0.0936320975317547
0.0945277794504572
0.0954405709958374
0.0963763927117764
0.0973416016165669
0.0977573236812586
0.0987208204214446
0.100430135957179
0.102599272605265
0.105171107702178
0.108063993111739
0.111230679165886
0.114630483779567
0.118232232983042
0.12200898710999
0.125936736777864
0.129993407975271
0.134158297580886
0.138411752113214
0.142735067182952
0.1471103411911
0.151520512029311
0.155949418769145
0.160381876942828
0.1648037720638
0.169202129756349
0.173565160537942
0.177882297989584
0.182144193219893
0.18634269730722
0.190470838787278
0.194522760692088
0.198493681485784
0.202379804722537
0.206178293947653
0.209887128264177
0.213505142856287
0.217031779255666
0.220467207118676
0.223811977127184
0.227067023726241
0.230233784286541
0.233314150784411
0.236310467232126
0.239225430254693
0.242061992209997
0.244823142164113
0.247512140090934
0.250132241613072
0.252687150064159
0.255180355017995
0.257616144503251
0.259997884763874
0.262330963225271
0.264618210981878
0.266867989203751
0.269081336860209
0.271274817550568
0.273444113245051
0.275628915331518
0.277791387114766
0.280221021175125
0.282516039043444
0.284863286544565
0.287112634156957
0.289276712825055
0.291288080550453
0.293076831278769
0.294565989171273
0.295554421860881
0.295862146729372
0.295350336931774
0.293855526889199
0.291283204187997
0.287555430505702
0.282862991116106
0.27735390525619
0.270757825133133
0.26279022149742
0.253112356688922
0.240860858227475
0.22493513327257
0.20227164612204
0.172886218328966
0.136138759720195
0.0917022200809752
0.0406303252939191
-0.0123732565733695
-0.0524482624629496
-0.0596080911404837
-0.0472515724065647
-0.0330459017751392
-0.00815704877175737
1.11453734993262e-05
0.00895466009726462
0.00579562942125064
0.0152745774230573
0.032412171543041
0.0496459116582685
0.0607601353052134
0.0664294888320911
0.0711165653212447
0.0744536644735586
0.0770340267013406
0.0789678774436718
0.0805768482196936
0.0818952103292139
0.0830950435240697
0.0841411746444655
0.0850871226848295
0.0859269350302344
0.0867120646564448
0.0874645495586614
0.088188109258676
0.0889062819779935
0.0896376271846428
0.0903992591384393
0.0911787619253738
0.0919511896798493
0.0927575708290701
0.0936043825369548
0.0944954309814617
0.0954043546885856
0.0963379006524382
0.0973003146389812
0.0977361916694609
0.0987218520545314
0.100436136032671
0.102606983822398
0.105179527605975
0.108072324921137
0.111238455884234
0.114637358486647
0.118237950336772
0.122013379679362
0.125939704099895
0.129994860323271
0.134158164284161
0.138409992788297
0.142731666818157
0.147105307588657
0.15151387328178
0.1559412210461
0.160372181986195
0.164792654691829
0.169189675577507
0.173551463476195
0.177867458176387
0.182128315069212
0.18632588749018
0.190453204757244
0.194504409069881
0.198474717030009
0.202360328716518
0.206158403816909
0.209866915547887
0.21348469376734
0.217011173106968
0.220446519110359
0.223791281570423
0.227046392112413
0.230213282139675
0.233293836055573
0.236290389715446
0.239205632821772
0.242042514912774
0.244804023206092
0.247493416312654
0.250113947772783
0.25266933351947
0.255163054465424
0.257599386778356
0.259981696367945
0.262315396269294
0.264603316966958
0.266853871771653
0.269068085386432
0.271262664431665
0.273433272321621
0.275620028284863
0.277783499206016
0.280215696490329
0.282512217468814
0.284861574794526
0.287111131123987
0.289273584150178
0.291280046966847
0.29305970259518
0.294533417996774
0.295499468714871
0.295780055473848
0.295237613106775
0.293710765676623
0.291108122386459
0.28735624292376
0.28264316205789
0.277106039023072
0.270471742570293
0.262455025451858
0.252709194745811
0.240362104779154
0.224305273931641
0.201534152320718
0.172105470254507
0.135398705644258
0.0911576144859671
0.0405224201942254
-0.011799140851488
-0.0513439328765473
-0.0587332586629157
-0.0468080225091362
-0.0328577438508372
-0.00810868543487903
6.19171529863822e-05
0.00901565906131854
0.00599715197888364
0.0154587822474642
0.0324230369362065
0.0495192397063345
0.0606549105005215
0.0663453801482012
0.0710384815887333
0.0743921533296276
0.0769861520702244
0.0789306727345018
0.0805481822849392
0.081872951336736
0.08307750046765
0.0841282317710461
0.08507822443311
0.085921466817518
0.0867083028361019
0.0874610736282844
0.0881836514415561
0.0888990824619629
0.0896257632624788
0.0903810264720545
0.0911535828949176
0.0919190657200784
0.0927174739468667
0.093555910086476
0.0944391956869835
0.0953419340340398
0.0962714703244504
0.0972298584451792
0.0976994385917144
0.0987171588625899
0.100438276950428
0.102611827446242
0.105184982322248
0.108076976567737
0.111241519961808
0.114638299816425
0.118236422388838
0.122009191006741
0.125932719640738
0.129984970222449
0.134145321520732
0.138394198588394
0.142712963566624
0.147083774535854
0.151489621801711
0.155914390290912
0.160342934133722
0.164761170222022
0.169156148987084
0.173516098861192
0.177830465493256
0.182089906866387
0.186286275619529
0.190412597997397
0.194463010695297
0.198432723280146
0.202317926484801
0.206115770096546
0.209824214563926
0.213442077720095
0.216968780276483
0.220404478243578
0.223749718728686
0.227005428992039
0.230173030073126
0.233254392948244
0.236251838502744
0.239168043320356
0.24200595116287
0.244768546956167
0.247459101301617
0.250080859597049
0.252637509143933
0.255132531976062
0.25757023343656
0.259953982999536
0.262289228760912
0.264578800820149
0.266831205263271
0.269047451382411
0.271244491562105
0.273417870865398
0.275608944324465
0.277773960861084
0.280204666658584
0.282496723304709
0.284843108501341
0.287087274449116
0.289242381464398
0.291237655625905
0.293001264981732
0.29445169164681
0.295387824822243
0.295635207416096
0.295057805935266
0.293496692235046
0.290863994696451
0.2870907300212
0.28235938383998
0.276793725981731
0.270118803770925
0.262048759876636
0.252228854727935
0.239778967393522
0.223590204490731
0.200731960124533
0.171300362303312
0.134697746538604
0.0907531785125012
0.0407020530116502
-0.0107599909816825
-0.0496509636127963
-0.0573631025679735
-0.0460558447660327
-0.0325061907520885
-0.00800909653066605
0.000165146585560372
0.00912113668162917
0.0062909477281837
0.0157543980926663
0.0325160594763008
0.0494159011994148
0.0605556251754467
0.0662660926254072
0.0709616340958589
0.0743310507765831
0.0769380738242605
0.0788924212224107
0.0805182679525812
0.0818495123441103
0.083059038459851
0.0841147473528318
0.0850692099778922
0.0859163283917906
0.0867049767833383
0.0874575625040954
0.088178163995261
0.0888892370763646
0.0896089472417107
0.0903547850181619
0.0911170041055118
0.0918725216505207
0.0926600711133392
0.0934875111595248
0.0943609977029519
0.0952566139350336
0.0961821823665858
0.0971379733637319
0.0976543460721817
0.0987112054594128
0.100439980892223
0.102616239647355
0.105188902227196
0.108078541493613
0.111239746318824
0.114632578015018
0.118226408137704
0.1219946981458
0.125913628663955
0.129961239955941
0.134116982937192
0.138361338801772
0.142675720801314
0.147042332573267
0.151444203541176
0.155865251651164
0.160290357465089
0.164705457811686
0.169097617210934
0.173455072307567
0.177767272058829
0.182024873572655
0.18621972451564
0.190344843251424
0.194394355699762
0.198363458903077
0.202248328368945
0.206046098091567
0.209754709284331
0.213372961503326
0.216900254999644
0.220336731093742
0.223682932356526
0.226939780940027
0.230108684238829
0.233191495026911
0.236190513232138
0.239108396591523
0.241948081281342
0.24471255838672
0.247405082063424
0.250028886571271
0.252587678842364
0.2550849385535
0.257524985099927
0.259911195982225
0.262249073438484
0.26454145391882
0.266796978786687
0.269016644431818
0.271217759338862
0.273395590016769
0.275593615738352
0.277760895983192
0.2801853611363
0.282465917349921
0.28480314271334
0.287035211724389
0.289176168172341
0.291152830037919
0.292892235863982
0.294310246167376
0.295207396940378
0.295413669337765
0.29479494582897
0.293195184587592
0.290530437579486
0.286736302454066
0.281987680919521
0.276392437403961
0.269673780370197
0.261545052749545
0.251643052194722
0.239080248261494
0.222752323571416
0.199814898997266
0.170404092889909
0.133947131184653
0.0903699725528793
0.0410091745650484
-0.00945319416134895
-0.0475575071429223
-0.0555785702676257
-0.0449813012481243
-0.0319509514182257
-0.0078354774560242
0.000329786543730251
0.00928412083487887
0.00667681736685421
0.0161533702875384
0.0326967317376554
0.049356456737479
0.0604711278760217
0.0661985664180463
0.0708871114200326
0.0742703642445403
0.076889918039596
0.0788532128683781
0.0804871510873795
0.0818249167790063
0.0830397318209277
0.0841009160639184
0.0850604453432646
0.0859120656567863
0.086702762720363
0.0874547612539247
0.0881724411781613
0.0888776219502112
0.0895882670691975
0.0903220733363799
0.0910712945310536
0.0918147501738716
0.0925896684256354
0.0934047531993635
0.0942676762696636
0.0951563289957407
0.0960789834958881
0.0970343995246177
0.0976061450885955
0.0987051552463325
0.100441627709102
0.102620014093072
0.105190802141513
0.108076543793011
0.111232817259942
0.114620141814342
0.118208163202404
0.121970505157437
0.125883448224272
0.129925119068379
0.134075037651084
0.138313742063104
0.142622698491879
0.146984157459585
0.151381188155401
0.155797741472145
0.160218723523772
0.164630089500974
0.169018915842266
0.173373444678623
0.177683125191752
0.181938610249309
0.18613173895937
0.190255518157308
0.194304059238882
0.198272543048382
0.202157126106754
0.205954923039873
0.209663851969274
0.213282690706053
0.216810815164012
0.220248349121091
0.223595829004394
0.226854171523884
0.23002476919537
0.233109454623204
0.236110503855933
0.239030553558616
0.241872533218652
0.244639424239025
0.247334484471052
0.249960954644302
0.252522540207563
0.255022716176952
0.257465821046868
0.259855244265801
0.262196553621426
0.264492598105406
0.266752174146134
0.268976263458582
0.271182584436926
0.273365962444785
0.275572368481612
0.277742422036783
0.280157822756093
0.282421606149687
0.284744551663068
0.286958850187732
0.289079795359812
0.291031401313136
0.292739536088849
0.294117384260369
0.294967613201035
0.295125295894623
0.2944586477769
0.292814931832468
0.29011437706341
0.286297046736108
0.281529209464103
0.275901431269127
0.269134605421604
0.260940795478029
0.250947809716259
0.238261411147586
0.221785249049118
0.198768686272808
0.169389797689211
0.133102288269607
0.0899380531898602
0.0413352200997945
-0.00803491865450102
-0.0452496932828699
-0.0535176312327595
-0.0436426612316509
-0.0312015409407964
-0.00758272109507281
0.000553539241210079
0.00950657293720429
0.00714936991962353
0.0166362203975906
0.0329511380410679
0.0493481366237362
0.0604109109092825
0.0661565712640157
0.0708193125893667
0.0742106411249239
0.0768419821181527
0.078813355975136
0.0804551228614873
0.0817994425607595
0.0830199249972693
0.0840872273507239
0.0850526059136895
0.0859095332670493
0.0867026794962731
0.0874538677089084
0.0881679052893296
0.0888659870908697
0.0895659720832553
0.0902858412182836
0.0910201920109648
0.091750176291563
0.0925113408145998
0.0933132934016621
0.09416528554037
0.0950471528422998
0.0959677444309502
0.0969244392073732
0.0975556114350555
0.098697100829104
0.100441417800716
0.102621722680236
0.105189798190481
0.108070727764069
0.111221110347879
0.114601978045934
0.118183258672638
0.121938758268637
0.125844878926308
0.129879829475744
0.134023197648032
0.138255578451641
0.142558491342078
0.146914233597389
0.151305913717241
0.155717514812325
0.160133967442904
0.164541243834604
0.168926430816307
0.173277774259925
0.177584721757304
0.181837920009601
0.186029197567185
0.190151547778533
0.194199065495738
0.198166913435104
0.202051227167254
0.205849100173134
0.209558425526822
0.213177957768513
0.216707046380238
0.220145796299
0.223494736019769
0.226754776125849
0.229927293941908
0.233014101546722
0.23601745022663
0.238939956425293
0.241784534862466
0.244554167401292
0.247252120249621
0.249881628651425
0.252446396697222
0.254949896499102
0.257396489301688
0.259789578614391
0.262134798703475
0.264435013795672
0.266699170545759
0.26892822744359
0.271140299872715
0.273329635824208
0.27554453616468
0.277717564186101
0.280123219182501
0.282367261461797
0.284672411393706
0.286864775190297
0.288961237512472
0.290882793277607
0.292554178370535
0.293886020258456
0.294683252831299
0.294786310356969
0.294066087572937
0.292373488326444
0.28963301153014
0.285788767885566
0.280997803537848
0.275333012870791
0.268512582181313
0.260246723216607
0.250153857104061
0.237333958625129
0.22070173693136
0.197604118190061
0.168263200069425
0.132160699214829
0.0894418907887505
0.0416418660874609
-0.00657981954869959
-0.0428411465811706
-0.0512920564596938
-0.0421140729349949
-0.0302912264252363
-0.00725522531164498
0.000830881427188424
0.00978266035607127
0.00770180861262278
0.0171842639361173
0.0332616373507007
0.0493863410408044
0.0603696689420079
0.0661555459630299
0.0707675378305884
0.07415382184656
0.0767950183347296
0.078773524468794
0.080422836325906
0.0817737169622098
0.0830002888900455
0.0840744552746451
0.0850465867412284
0.0859097256862275
0.0867058330603856
0.0874561509411074
0.0881660307438222
0.088856083298946
0.0895441766677302
0.0902486375915062
0.0909666228711831
0.0916819092237127
0.0924283023265927
0.0932163711030894
0.0940569527267113
0.0949318635271887
0.0958508599822697
0.0968099310292526
0.0975020805695944
0.0986853800615913
0.100438072656611
0.102620603741364
0.105185669489727
0.108061388136384
0.111205381181383
0.114579253432566
0.118153233710682
0.121901350929932
0.125800131782932
0.129827869858727
0.133964222998
0.138189844572556
0.142486308707658
0.146835960048906
0.151221946628288
0.155628283772728
0.160039926156355
0.164442862591177
0.168824189725584
0.173172156443439
0.177476208007825
0.18172698410335
0.185916301797679
0.19003714006184
0.194083576217513
0.198050753911964
0.2019347867794
0.205732746313881
0.20944249953698
0.213062777150023
0.216592900929301
0.220032956487383
0.223383462419428
0.22664532210906
0.229819897614401
0.232908981019763
0.235914799994291
0.238839945895218
0.241687323466438
0.24445991531008
0.247160988062391
0.249793772659694
0.252361974646937
0.254869064301073
0.257319424539414
0.259716473593527
0.262065907393596
0.264370605698348
0.26663964697127
0.268873955311777
0.271091989735395
0.273287331578777
0.27551015657623
0.277686016244074
0.280082234460997
0.282304952509445
0.284589872349514
0.286757150537324
0.288825589490186
0.290713079616107
0.292343305528364
0.29362456006663
0.294364077404303
0.294407721935894
0.293629326696142
0.291883694038707
0.289099595179033
0.285224619021377
0.280406091169521
0.274699369782183
0.267819765019748
0.259475090597737
0.249274219463141
0.236312388098781
0.219518720520677
0.196339788044987
0.167043089430981
0.131139927157921
0.0888949565950993
0.041932664157165
-0.00510531990226517
-0.040380121894451
-0.0489671075036278
-0.0404535735591663
-0.0292529615823554
-0.00685799997855605
0.00115730902011824
0.0101055249743842
0.00832645986051006
0.0177810340427589
0.0336172792871752
0.0494650546720324
0.0603498957280992
0.0661984588510759
0.0707440775051672
0.0741040592094432
0.0767505786861027
0.0787348415570232
0.0803912782251742
0.0817486314099254
0.0829816646567519
0.0840634117849452
0.0850431695482507
0.0859133755894117
0.0867129443856213
0.0874623901216416
0.0881676905000207
0.0888489238809403
0.0895240770068763
0.090211870860114
0.0909121531802641
0.0916115403396275
0.0923421288983634
0.0931155087380588
0.0939440914006171
0.0948116842367281
0.0957294466888465
0.0966917800631741
0.0974453056615631
0.0986693676056962
0.100431145030574
0.102616472952352
0.105178521886026
0.108048911575142
0.111186256273438
0.114552815909884
0.118119142431563
0.121859526313181
0.125750620257578
0.129770809244989
0.133899824887867
0.138118380955294
0.14240810808846
0.146751399104299
0.15113144192345
0.155532284268731
0.159938904808513
0.164337308795854
0.168714602508851
0.173059037557944
0.177360056657851
0.181608292177207
0.18579554935157
0.18991479248849
0.193960080998802
0.197926539117412
0.20181025816462
0.205608287398952
0.209318467387226
0.212939505063359
0.216470693743182
0.219912099863968
0.223264230107402
0.226527979338435
0.229704694529773
0.232796149713962
0.235804546614263
0.238732453940368
0.241582767127169
0.244358463352029
0.247062809993814
0.249699035403496
0.252270847094865
0.254781714005465
0.257236037540003
0.259637250480929
0.261991102795025
0.264300489012041
0.266574593959712
0.26881429743091
0.271038324699398
0.273239555608901
0.27546944570738
0.277647685814058
0.28003506766972
0.282235580348414
0.28449848829613
0.28663816031783
0.288675612560439
0.290525629477924
0.292110944522034
0.293337795678702
0.294015734012896
0.293996021396169
0.293155618565854
0.291353420835639
0.288522423609681
0.284613087093285
0.279762548853549
0.274008994143363
0.26706485319352
0.258635054196797
0.248318991969474
0.235208292018767
0.218250001042081
0.194991819881278
0.165747266406326
0.130058951644644
0.08831532043519
0.042221472947774
-0.00360954363862201
-0.037882624851333
-0.0465755122752145
-0.0386995742142533
-0.0281130817905396
-0.0063964576398899
0.00152966664256659
0.0104687310617813
0.00901450515515509
0.0184118384037756
0.0340136005954004
0.0495814565438432
0.0603730747678332
0.0662507191547461
0.0707589717454622
0.0740673034679429
0.0767109349639516
0.0786987259755397
0.080361541410478
0.0817250740015068
0.082964763176456
0.0840546300566833
0.0850427164506578
0.0859206887124557
0.0867241354537166
0.0874727178438489
0.0881730790984939
0.0888448132644601
0.0895061232857184
0.0901761651350021
0.0908575534216541
0.0915399035737083
0.0922536879998401
0.093011584812019
0.0938275754668409
0.0946874675253362
0.0956044088243803
0.096570823759812
0.0973854317034826
0.0986489151350007
0.100420507842265
0.102609296406668
0.105168477852911
0.108033591896235
0.111164180889747
0.114523257265774
0.11808172553162
0.121814160124865
0.125697346768854
0.129709768956265
0.133831235889754
0.138042523668777
0.142325321134472
0.146662069768155
0.151035997425193
0.155431184195215
0.159832632479918
0.164226363809882
0.168599493993458
0.172940277260549
0.177238153838566
0.181483748819689
0.18566885564295
0.189786424102964
0.193830495778305
0.197796175616724
0.201679532739848
0.205477594413545
0.209188174850849
0.212809957850311
0.216342207959322
0.219784973193387
0.223138746300027
0.226404412172067
0.229583303917378
0.232677177384064
0.235688209506495
0.238618948866475
0.241472278065205
0.244251166758932
0.246958884113866
0.24959865615978
0.252174191862141
0.254688959347715
0.257147374459425
0.259552883824658
0.261911281825056
0.264225476556392
0.266504728637105
0.268749866877514
0.270979786086979
0.273186682868195
0.27542262375942
0.277602544437793
0.279981764038304
0.282159611955558
0.284399189504152
0.286509209016147
0.288513146839818
0.290322741773135
0.291859886777102
0.293029078198214
0.293642193959435
0.293555797496556
0.292650110901473
0.290788260486745
0.287907376285256
0.283960186157469
0.279073223716224
0.273267997684803
0.266254157004209
0.257733325436184
0.247295682084389
0.23403045216335
0.216906062621005
0.193572622981359
0.164389682600038
0.12893310189274
0.087717922422645
0.0425207301860228
-0.0020885201936823
-0.0353544375731891
-0.0441336056160459
-0.0368753264168639
-0.0268915004764161
-0.0058764329068746
0.00194497504845527
0.0108674798441205
0.00975629149661713
0.0190670010435597
0.0344473016120553
0.0497301676871995
0.0604267649112249
0.0662629030097616
0.0708203450904594
0.0740497049147176
0.0766785968579292
0.0786665727313827
0.0803345799154093
0.0817037145731712
0.0829499956049388
0.0840482670724591
0.0850451588109101
0.0859314239541604
0.0867390904811274
0.0874868514276638
0.0881820080792882
0.0888437016032585
0.0894904317260637
0.0901418233416976
0.0908032915185659
0.0914675642285723
0.0921636100759268
0.0929052765763344
0.0937081274724025
0.0945599777091224
0.0954765747990367
0.0964478286984517
0.0973226867273675
0.0986240046174897
0.100406119282449
0.102599058104956
0.105155630962935
0.108015650461619
0.111139500452091
0.114491044597698
0.118041572767281
0.121765957361606
0.125641126324438
0.129645668275502
0.133759473773744
0.137963382888822
0.142239144041797
0.146569247455233
0.150936960560704
0.155326395500699
0.159722577934635
0.164111545418456
0.168480423212688
0.172817468167034
0.177112118292542
0.181354991714468
0.185537870425541
0.189653690225426
0.193696475331174
0.197661311930855
0.201544247490149
0.205342287951385
0.209053221710538
0.212675710565103
0.216208990377756
0.219653092057221
0.223008492376044
0.22627606506203
0.22945713087218
0.232553425564305
0.235567106793897
0.238500701949279
0.241357078961367
0.244139198801907
0.246850332565287
0.249493703783671
0.252073022217872
0.254591755848404
0.257054330144951
0.259464204458005
0.261827206256639
0.264146255854605
0.266430654618149
0.268681178021101
0.270916776120396
0.27312902596295
0.275369908517556
0.277550620915592
0.27992234152651
0.282077346390882
0.284292632973375
0.286371347857541
0.288339610908801
0.290106225056908
0.291592359309667
0.292701100053326
0.293246656303617
0.293090754871575
0.292116965763774
0.290192731822206
0.287259189840476
0.283270749349238
0.278342986998257
0.272481322064596
0.26539278444527
0.256775352698436
0.24621040762919
0.232786089520338
0.215495511469881
0.192092396017632
0.162981831309649
0.127775041686154
0.0871150342795257
0.0428407374468552
-0.000538806991827892
-0.0327986197103885
-0.0416505527098881
-0.0349942634039412
-0.0256022060999796
-0.00530372181483154
0.00240072174945398
0.0112989375679943
0.0105418651002826
0.0197449023476584
0.0349103166286065
0.0498955235677147
0.0604879611962757
0.0662463767154179
0.0709282589311187
0.0740556638800862
0.0766560344766145
0.0786395679948407
0.0803111104989079
0.0816849749000783
0.0829375155675866
0.0840442236067901
0.0850501843910245
0.0859451274714463
0.0867573154735952
0.0875043604983115
0.0881941681750612
0.0888454349819151
0.0894770203043669
0.0901090458169818
0.090749727744638
0.0913949829293916
0.0920724258796538
0.0927971698947853
0.0935863910552312
0.0944299109737463
0.0953466724482645
0.0963234401830457
0.0972572852411456
0.0985946796182563
0.100387986866467
0.102585757795093
0.105140066578619
0.107995272115761
0.111112505255443
0.114456575721957
0.117999184147279
0.121715518359754
0.12558265555376
0.129579295482831
0.133685413743404
0.137881915663036
0.142150610308738
0.146474036303801
0.150835499885168
0.155219144647035
0.159610018805255
0.1639941755831
0.168358749612531
0.172692000438456
0.17698336429729
0.181223452884923
0.185404037364944
0.189518040376666
0.193559469587034
0.197523393300139
0.201405838241275
0.205203790066926
0.208915012268786
0.212538146227745
0.216072399544105
0.219517787840496
0.222874770014197
0.226144207886682
0.229327409173598
0.232426092250577
0.235442396940632
0.238378830069578
0.241238244324746
0.244023590028266
0.246738140070666
0.249385115329123
0.25196822563618
0.254490939573929
0.256957686637317
0.259371937431305
0.261739539739308
0.264063424823442
0.266352895843827
0.268608677598759
0.270849645532359
0.273066857905809
0.275311517995417
0.277491998223329
0.279856813874337
0.281988971458675
0.284179279246336
0.286225368093206
0.288156111916374
0.289877527535017
0.29131017795198
0.292356078593979
0.292831768462222
0.292603972400008
0.291559655169173
0.289570613841889
0.286581831204408
0.282548839562119
0.277575971445728
0.271653204855663
0.264485149441225
0.255765884125654
0.245068531007388
0.231481584178759
0.214026000694282
0.190560315615192
0.161534060893874
0.126596098232733
0.086517417056693
0.0431904793353732
0.00104289859211059
-0.0302170793055513
-0.039132195955759
-0.0330643280076776
-0.0242543334541665
-0.00468270889715956
0.00289521554564752
0.0117618962923981
0.011361623972908
0.0204501858074178
0.0353838392469747
0.0500596137559815
0.060559277716433
0.0662552188499376
0.0710382900281731
0.0740872131376084
0.0766456968240616
0.0786187590624914
0.0802916743592147
0.0816691235897082
0.0829273518669085
0.0840423084115531
0.0850574176759293
0.0859613105060473
0.0867783014078511
0.0875248088478322
0.0882092469443308
0.0888498520254256
0.0894658892172456
0.0900779990524826
0.0906971743183708
0.0913225674142417
0.0919806132220341
0.0926877992867193
0.0934629591334529
0.0942979085207165
0.0952153401785262
0.0961981999024358
0.0971894284937516
0.0985610378822866
0.100366161359686
0.102569415585211
0.105121872183681