/*--------------------------------*- C++ -*----------------------------------*\
  =========                 |
  \\      /  F ield         | OpenFOAM: The Open Source CFD Toolbox
   \\    /   O peration     | Website:  https://openfoam.org
    \\  /    A nd           | Version:  7
     \\/     M anipulation  |
\*---------------------------------------------------------------------------*/
FoamFile
{
    version     2.0;
    format      ascii;
    class       surfaceScalarField;
    location    "20000";
    object      phi;
}
// * * * * * * * * * * * * * * * * * * * * * * * * * * * * * * * * * * * * * //

dimensions      [0 3 -1 0 0 0 0];

internalField   nonuniform List<scalar> 
30950
(
3.04986431081123e-05
-3.02590180728391e-06
3.44810772476003e-05
-3.98243422795588e-06
2.64566051548409e-05
8.02447209908779e-06
1.14767331873361e-05
1.49798719428025e-05
-3.31797225580509e-06
1.47947054221821e-05
-1.09919244745264e-05
7.67395219498171e-06
-1.14982011338068e-05
5.06276635602106e-07
-1.03820311414301e-05
-1.11617000659363e-06
-9.14917628275497e-06
-1.23285486240063e-06
-8.14895295632413e-06
-1.00022333475437e-06
-7.47162160685185e-06
-6.77331369582232e-07
-7.14183713398375e-06
-3.29784500780356e-07
-7.02475816721926e-06
-1.17078999827108e-07
-7.09303657118778e-06
6.82783671615121e-08
-7.21274833054859e-06
1.1971172137653e-07
-7.43124713019804e-06
2.18498762639338e-07
-7.78360101017406e-06
3.52353845094688e-07
-8.34224930570527e-06
5.58648262737528e-07
-9.0935650704203e-06
7.51315733147163e-07
-1.00239892810923e-05
9.30424178166146e-07
-1.11775456867344e-05
1.1535563694474e-06
-1.25461130120056e-05
1.36856728316072e-06
-1.40772524855179e-05
1.53113942450327e-06
-1.56919466681996e-05
1.61469412706993e-06
-1.74028931868415e-05
1.71094645758638e-06
-1.93145307358255e-05
1.91163748400875e-06
-2.13081599869699e-05
1.9936291837488e-06
-2.32549917502734e-05
1.94683169471184e-06
-2.50504867174282e-05
1.79549489846584e-06
-2.66855543850849e-05
1.63506759987839e-06
-2.80924100708758e-05
1.40685561934705e-06
-2.95450514169813e-05
1.45264128205963e-06
-3.45763915257943e-05
5.03134004667223e-06
-4.05992127119642e-05
6.02282112680405e-06
-4.50502704985743e-05
4.45105773158383e-06
-4.83436524355303e-05
3.29338188650208e-06
-5.08590070036323e-05
2.51535452192995e-06
-5.27943194021564e-05
1.93531235599618e-06
-5.42730791093856e-05
1.47875966743738e-06
-5.53747030258842e-05
1.10162387845254e-06
-5.6151072918941e-05
7.76369855743138e-07
-5.66372825318458e-05
4.86209575536149e-07
-5.68599275099597e-05
2.22644940322327e-07
-5.68402377521096e-05
-1.96897958795028e-08
-5.6595966513804e-05
-2.44271275776446e-07
-5.61431501371387e-05
-4.52816412383471e-07
-5.54967263570365e-05
-6.46423812630175e-07
-5.46712197091247e-05
-8.25506676010572e-07
-5.36810894144005e-05
-9.90130317587979e-07
-5.2540843078158e-05
-1.14024635376743e-06
-5.12650701568343e-05
-1.27577293416165e-06
-4.9868336565526e-05
-1.39673360087211e-06
-4.83650486456405e-05
-1.50328792801294e-06
-4.67693392707365e-05
-1.59570938358896e-06
-4.50949031209188e-05
-1.67443616085447e-06
-4.33549066146071e-05
-1.73999652105463e-06
-4.15619222203473e-05
-1.7929844135091e-06
-3.97278249780308e-05
-1.83409726632449e-06
-3.78637976457295e-05
-1.8640273610743e-06
-3.59802574792912e-05
-1.88354019978663e-06
-3.40869200693407e-05
-1.89333744765149e-06
-3.21926505267255e-05
-1.89426958442161e-06
-3.03056637160042e-05
-1.88698685633373e-06
-2.84331307744528e-05
-1.87253299047899e-06
-2.65816418537143e-05
-1.85148897239667e-06
-2.47566207840129e-05
-1.82502112335466e-06
-2.29633391603664e-05
-1.79328167858303e-06
-2.12073791227705e-05
-1.75596009320762e-06
-1.94940562995176e-05
-1.71332287902899e-06
-1.78282072097178e-05
-1.66584914539022e-06
-1.62138931118071e-05
-1.61431415300089e-06
-1.46543160917941e-05
-1.55957707447825e-06
-1.31521746415934e-05
-1.50214150384944e-06
-1.17106650315072e-05
-1.44150966290677e-06
-1.03329141449071e-05
-1.37775093857442e-06
-9.02273030273464e-06
-1.31018389340191e-06
-7.7833839335451e-06
-1.23934641987516e-06
-6.61930376783983e-06
-1.1640802160241e-06
-5.53429463527049e-06
-1.08500918272684e-06
-4.53634007868208e-06
-9.97954606957977e-07
-3.63177478062084e-06
-9.04565348938081e-07
-2.83776985600356e-06
-7.94004976357394e-07
-2.1663846743295e-06
-6.71385234559606e-07
-1.66009858335662e-06
-5.06286145111065e-07
-1.34633761966173e-06
-3.13761018979261e-07
-1.33280519237752e-06
-1.3532483464344e-08
-1.79448947970984e-06
4.6168423074545e-07
-2.58313783352724e-06
7.88648297830062e-07
-1.86822754323984e-06
-7.1491034550876e-07
-7.28355202441156e-07
-1.13987239527623e-06
1.01588372234683e-06
-1.74423897855699e-06
3.15586802004454e-06
-2.13998435062373e-06
5.70260423348333e-06
-2.54673626528031e-06
8.64331934413314e-06
-2.94071516091745e-06
1.2004258867565e-05
-3.36093957148622e-06
1.59760438951463e-05
-3.97178507263502e-06
2.04164610729599e-05
-4.44041721912947e-06
2.50783715438116e-05
-4.66191050807322e-06
2.98166335735021e-05
-4.73826206328847e-06
3.44365568417608e-05
-4.61992329963869e-06
3.87180940076906e-05
-4.28153719756233e-06
4.2193701394069e-05
-3.47560742150678e-06
4.4861625268186e-05
-2.66792391589077e-06
4.72372090734234e-05
-2.37558385553136e-06
4.9528083250674e-05
-2.29087423619234e-06
5.19041125419781e-05
-2.37602935708324e-06
5.47688819331279e-05
-2.86476945971885e-06
5.87211550678384e-05
-3.95227319959073e-06
6.47153888386202e-05
-5.99423382308578e-06
7.13755003507561e-05
-6.66011154550496e-06
7.86282331720886e-05
-7.25273283468845e-06
8.64668659964398e-05
-7.83863282193391e-06
9.43585419452229e-05
-7.89167593839936e-06
9.95466317998868e-05
-5.18808984685079e-06
9.45943934064943e-05
4.95223839238019e-06
7.55073173092849e-05
1.90870760829293e-05
5.44370140706285e-05
2.10703032224575e-05
3.82555485337237e-05
1.61814655191049e-05
2.65015398590816e-05
1.17540086574683e-05
-9.70486015346056e-07
0.000100611723929174
-9.35461719508951e-06
0.000108637258350485
-1.20079687917852e-05
8.95708943559885e-05
2.70908360691229e-05
4.84489470851449e-05
5.61018191696189e-05
2.36139093965425e-06
6.08822615223408e-05
-2.59460687418403e-05
3.59814118300105e-05
-3.15574814447833e-05
6.11768928942314e-06
-2.93664454545774e-05
-3.30720604841136e-06
-2.63490840582217e-05
-4.2502163035785e-06
-2.37592181523466e-05
-3.59008928056796e-06
-2.20450731531985e-05
-2.39147641335111e-06
-2.12325906532095e-05
-1.14226705605111e-06
-2.1044458003674e-05
-3.05211718318312e-07
-2.13387683437287e-05
3.62588623721993e-07
-2.18363341705289e-05
6.17277452638848e-07
-2.26258662838938e-05
1.00803077261736e-06
-2.38405947518128e-05
1.56708220628299e-06
-2.56451799005583e-05
2.36323330508595e-06
-2.80263508911754e-05
3.13248662005585e-06
-3.09645737164773e-05
3.86864690265869e-06
-3.45588581062081e-05
4.74784065913235e-06
-3.87816289988126e-05
5.59133807283023e-06
-4.34864975442727e-05
6.23600786010742e-06
-4.8498674076972e-05
6.62687053980608e-06
-5.38562066823232e-05
7.06847893125195e-06
-5.97251048587337e-05
7.7805355171471e-06
-6.58002223538189e-05
8.06874652612442e-06
-7.17311863832014e-05
7.87779556568705e-06
-7.7266534317473e-05
7.33084267318528e-06
-8.23326277111635e-05
6.70116083704492e-06
-8.71638999665769e-05
6.23812772415196e-06
-9.33715358380368e-05
7.66027701189705e-06
-0.000106733859504723
1.8393663578092e-05
-0.00012154337843463
2.08323399278716e-05
-0.000132476379974719
1.53840591510339e-05
-0.000140408377665086
1.1225379464204e-05
-0.000146340088857453
8.44706560881361e-06
-0.000150761419701154
6.35664310039122e-06
-0.000153991069843438
4.70840971557537e-06
-0.000156228484354266
3.339038299422e-06
-0.00015760727903685
2.15516445217325e-06
-0.000158219622883472
1.09855333954376e-06
-0.000158137013490914
1.40035469024691e-07
-0.00015741746905179
-7.39234309055694e-07
-0.000156110541101683
-1.55119929412267e-06
-0.000154261324939045
-2.30203263633275e-06
-0.000151911799398206
-2.99594940704728e-06
-0.000149102551864939
-3.63475425481553e-06
-0.000145873589333001
-4.21909288748718e-06
-0.000142264595667199
-4.74924005118888e-06
-0.00013831497677867
-5.22539184993983e-06
-0.000134063632159437
-5.64807824543865e-06
-0.000129548662557189
-6.01825755639115e-06
-0.000124807110802873
-6.33726116743579e-06
-0.000119874640010517
-6.60690698834242e-06
-0.000114785350894294
-6.82928567959836e-06
-0.000109571648619352
-7.0066867389491e-06
-0.000104264065736668
-7.14168020816336e-06
-9.88912693545324e-05
-7.23682381111629e-06
-9.34799584229155e-05
-7.29485120795248e-06
-8.80549591582991e-05
-7.31833679732129e-06
-8.26390074991474e-05
-7.31022133685164e-06
-7.72530203200852e-05
-7.27297413643426e-06
-7.19155001914389e-05
-7.21005322735338e-06
-6.66432378085168e-05
-7.12375146990339e-06
-6.1450625844937e-05
-7.01763320687691e-06
-5.63517746919931e-05
-6.89213295583547e-06
-5.13613483760038e-05
-6.74638653694967e-06
-4.64932672554359e-05
-6.58140412999013e-06
-4.17601126284297e-05
-6.39900390475161e-06
-3.71725494906109e-05
-6.2018774246271e-06
-3.27392405393064e-05
-5.9928861607605e-06
-2.84680018425382e-05
-5.77338033664645e-06
-2.43677450274023e-05
-5.54176661522025e-06
-2.04476101521401e-05
-5.29788595243402e-06
-1.6717977967638e-05
-5.03981621836248e-06
-1.3188794312437e-05
-4.76853021794839e-06
-9.87190505066106e-06
-4.48096962377768e-06
-6.78016908671576e-06
-4.17674529643619e-06
-3.93393704873564e-06
-3.84418679922567e-06
-1.35586459159739e-06
-3.48263796557956e-06
9.12546998462406e-07
-3.06241673159874e-06
2.82496030430245e-06
-2.58379871137754e-06
4.28243564995199e-06
-1.96376166731193e-06
5.17399856941267e-06
-1.20532412001595e-06
5.24441806542717e-06
-8.39521653667162e-08
3.97569880288115e-06
1.73040330412776e-06
2.34536021575875e-06
2.41898669415799e-06
4.28341558718404e-06
-2.6529659068102e-06
7.69751365615131e-06
-4.55397065038388e-06
1.25706377200454e-05
-6.61736322200486e-06
1.85141682323173e-05
-8.08351503385947e-06
2.54724433407096e-05
-9.50501153478973e-06
3.34062850930742e-05
-1.08745570640417e-05
4.23944715396664e-05
-1.23491261585781e-05
5.27968112784945e-05
-1.43741249422612e-05
6.43023677759398e-05
-1.5945973838917e-05
7.63622711753597e-05
-1.67218140233046e-05
8.86024026273141e-05
-1.69783936266082e-05
0.000100591471987516
-1.66089927684401e-05
0.000111790179444325
-1.54802447613065e-05
0.000121201554417473
-1.28869824999423e-05
0.000128711954423109
-1.01783240236194e-05
0.000135282916798663
-8.94654632694714e-06
0.000141475283296914
-8.48324082018944e-06
0.000147782746977177
-8.68349310932926e-06
0.000155090937693854
-1.0172960231694e-05
0.000164915580528049
-1.37769160710367e-05
0.000179210659766224
-2.02893130817235e-05
0.000195844312699319
-2.3293764487573e-05
0.000214444731036882
-2.58531511770919e-05
0.000234888294716592
-2.82821965100032e-05
0.000256120888720548
-2.91242699605142e-05
0.000272265592994131
-2.13327941511856e-05
0.000266822583758434
1.03952475882083e-05
0.000228242988904514
5.76666708957038e-05
0.000177120240361439
7.21930517336321e-05
0.000131418562337418
6.18831435176602e-05
9.81767959930769e-05
4.49957749812954e-05
2.92330086613413e-06
0.000183103012379837
-1.49584920011359e-05
0.000192096510295606
-2.10014668420387e-05
0.00016524502960928
5.39423167210769e-05
0.000101475148213688
0.000119871700515537
2.2060691422259e-05
0.000140296718260199
-3.31478468252607e-05
9.11899500201064e-05
-4.87648741854264e-05
2.17347165883384e-05
-4.71604108306293e-05
-4.91166946900306e-06
-4.30291241288294e-05
-8.38150306747571e-06
-3.92563674224531e-05
-7.36284604379099e-06
-3.67751731644337e-05
-4.87267073131818e-06
-3.56498555551279e-05
-2.26758473651318e-06
-3.55310984300125e-05
-4.23968930608896e-07
-3.61616918809417e-05
9.93181969783028e-07
-3.71763145133883e-05
1.63189996460499e-06
-3.86933749429239e-05
2.52509107046388e-06
-4.0947240321546e-05
3.82094744739883e-06
-4.41698733909486e-05
5.58586623606245e-06
-4.83605634886311e-05
7.3231765820297e-06
-5.35066208209754e-05
9.01470410338337e-06
-5.9740150735472e-05
1.09813704447614e-05
-6.70059629981147e-05
1.28571502058634e-05
-7.50766682450383e-05
1.43067129721984e-05
-8.37203860294794e-05
1.52705881800719e-05
-9.29805413806102e-05
1.63286341262256e-05
-0.000102986631426153
1.77866253938204e-05
-0.000113264338435873
1.83464533561212e-05
-0.000123286474591121
1.78999315344256e-05
-0.000132702163021778
1.67465309159282e-05
-0.000141468509321708
1.54675069527705e-05
-0.000150385717642336
1.51553358687673e-05
-0.000161951413435359
1.92259726416234e-05
-0.000181516015253893
3.7958265243182e-05
-0.000201712793349276
4.10291178796922e-05
-0.000216367818498146
3.0039084166768e-05
-0.000226725565139582
2.15831259816838e-05
-0.000234199988022056
1.59214883751684e-05
-0.000239485381794488
1.16420367631903e-05
-0.000243035848819963
8.25887663677771e-06
-0.00024513516849365
5.43835787345645e-06
-0.000245976689798432
2.99668566163131e-06
-0.000245696346502369
8.18209952758808e-07
-0.000244402307936547
-1.15400318209616e-06
-0.000242187274520522
-2.9542678038357e-06
-0.000239131234229965
-4.60723965579334e-06
-0.00023530482789027
-6.12843903869909e-06
-0.000230773634800021
-7.52714255120617e-06
-0.000225600446613733
-8.80794248662505e-06
-0.000219846315954888
-9.9732235845311e-06
-0.000213570910826028
-1.10246452126551e-05
-0.000206832591783269
-1.19637109220014e-05
-0.000199688183396303
-1.27924866609919e-05
-0.000192192681694688
-1.35137592885476e-05
-0.000184398994908593
-1.41309479884608e-05
-0.000176357642193773
-1.46482597445371e-05
-0.00016811660466446
-1.50703232583273e-05
-0.000159721225040399
-1.54020664214866e-05
-0.000151214078010068
-1.56488273065624e-05
-0.000142635020151343
-1.58158817477255e-05
-0.000134021139390178
-1.59087320567554e-05
-0.00012540686520028
-1.5932611084478e-05
-0.000116823799660477
-1.58932869832263e-05
-0.000108300939427238
-1.57958344850867e-05
-9.98641653429562e-05
-1.56468274351961e-05
-9.153693413145e-05
-1.54509828122574e-05
-8.33399607317542e-05
-1.5214606743674e-05
-7.52938078594011e-05
-1.49382859704848e-05
-6.74196296297343e-05
-1.46205649130651e-05
-5.97374570404077e-05
-1.42635768689449e-05
-5.2265361723299e-05
-1.38710993739394e-05
-4.50188765364873e-05
-1.34483627653745e-05
-3.80110469767431e-05
-1.30007158760089e-05
-3.12542679946532e-05
-1.25301594757376e-05
-2.47625061743071e-05
-1.20335285943229e-05
-1.85504251668097e-05
-1.15099671208481e-05
-1.26341523543578e-05
-1.09560891945487e-05
-7.03002911281979e-06
-1.03726536269324e-05
-1.75641114383104e-06
-9.7545877647567e-06
3.16454308030716e-06
-9.0976996980088e-06
7.70187728625875e-06
-8.38152118850572e-06
1.18164893339183e-05
-7.59725020284157e-06
1.54480774196599e-05
-6.69400501360418e-06
1.85159479631511e-05
-5.65166945790741e-06
2.08808538354621e-05
-4.32866774947719e-06
2.23478967240003e-05
-2.67236722496791e-06
2.25430235687648e-05
-2.79079232293445e-07
2.07644666182126e-05
3.50896002795624e-06
1.8944924441611e-05
4.23852864117525e-06
2.20082197526684e-05
-5.71626144587723e-06
2.75139503450882e-05
-1.0059701464265e-05
3.50654913732297e-05
-1.41689044615952e-05
4.4172635892048e-05
-1.71906597522508e-05
5.47102465802455e-05
-2.00426224098241e-05
6.66136308263198e-05
-2.27779414844071e-05
8.00027933404748e-05
-2.57382888354003e-05
9.52854234055144e-05
-2.96567551598361e-05
0.000112093349628374
-3.27539002062684e-05
0.000129743951282956
-3.43724158167194e-05
0.00014771475974808
-3.49492022267569e-05
0.000165441784631506
-3.43360177839281e-05
0.000182192198847854
-3.22306591062129e-05
0.000196707193483285
-2.74019772583253e-05
0.000208691475358607
-2.21626060125322e-05
0.000219167629903055
-1.94227009706477e-05
0.000228914010382876
-1.82296213802326e-05
0.000238675639529979
-1.84451223143033e-05
0.000249624646709657
-2.11219674458851e-05
0.000263866842922759
-2.80191122976155e-05
0.000283929284714636
-4.03517548724235e-05
0.00030783804642005
-4.72025261869689e-05
0.000334991457300969
-5.30065620562142e-05
0.000365070285354672
-5.83610245730215e-05
0.00039680800989829
-6.08619945280305e-05
0.0004232207072452
-4.77454915356458e-05
0.000423713808060047
9.90214672653744e-06
0.00038050045307972
0.000100880025829672
0.000312543952651001
0.000140149552124624
0.000243640771582259
0.000130786324557174
0.000190834225508042
9.78023210365333e-05
1.62583886565381e-05
0.000276341496350893
-1.56477597655564e-05
0.000283460541851626
-2.81205124587336e-05
0.000251530450024004
8.58724085111844e-05
0.000170159393956386
0.000201242756537223
5.78021099724392e-05
0.000252654002193199
-3.0160127496921e-05
0.000179152187431302
-6.17074246504291e-05
5.32820136765608e-05
-6.30923769060604e-05
-3.52671728115248e-06
-5.87268783628497e-05
-1.27470016758154e-05
-5.43196594529455e-05
-1.17700650169278e-05
-5.14156320024655e-05
-7.77669825035263e-06
-5.02097554382379e-05
-3.47346138110979e-06
-5.0328018181384e-05
-3.05706283612129e-07
-5.14390385250564e-05
2.10420220029503e-06
-5.31236353087892e-05
3.3164966200552e-06
-5.55406284487705e-05
4.94208407097709e-06
-5.9009657570038e-05
7.28997642303626e-06
-6.38163645650843e-05
1.03925730841341e-05
-6.99750972781049e-05
1.34819091504998e-05
-7.74837813724404e-05
1.6523388057355e-05
-8.6484145221841e-05
1.99817341572871e-05
-9.68785754452106e-05
2.3251580293201e-05
-0.000108368402085967
2.57965394739882e-05
-0.000120673848099038
2.75760340474879e-05
-0.00013379177127759
2.94465571496904e-05
-0.000147734970753428
3.17298247039655e-05
-0.000161868209028235
3.24796914559095e-05
-0.000175546992100605
3.15787144259729e-05
-0.0001883960970543
2.95956356879709e-05
-0.000200516517361457
2.75879270825597e-05
-0.000213100761069558
2.77395794088464e-05
-0.00022857439747384
3.46996088914003e-05
-0.000250686030092604
6.0069897719979e-05
-0.00027175625437991
6.20993420378307e-05
-0.000286368837171909
4.465166684125e-05
-0.000296174289760763
3.1388578462541e-05
-0.000302731923289989
2.247912180415e-05
-0.000306820548858328
1.57306622375655e-05
-0.000308949435616453
1.03877633061656e-05
-0.00030943845936599
5.92738153887233e-06
-0.000308508775969351
2.06700218531325e-06
-0.000306323551360025
-1.36701473141437e-06
-0.000303018710872076
-4.45884373933182e-06
-0.000298705922516842
-7.26705622201019e-06
-0.000293478243113139
-9.83491911548383e-06
-0.000287419247559373
-1.21874346412015e-05
-0.000280606047531595
-1.4340342620612e-05
-0.000273111632809224
-1.63023572441236e-05
-0.000265006022043702
-1.80788343798008e-05
-0.000256356731016793
-1.96739362654432e-05
-0.000247228958124145
-2.10914838383692e-05
-0.00023768547949663
-2.23359653119871e-05
-0.000227786486503996
-2.34127523063133e-05
-0.000217589437033849
-2.43279974871347e-05
-0.000207148875088997
-2.50888217228552e-05
-0.00019651637982002
-2.57028185669283e-05
-0.000185740539824097
-2.6177906464037e-05
-0.000174866910253673
-2.65224569311416e-05
-0.000163938104460262
-2.67446876030586e-05
-0.000152993809900655
-2.68530266861051e-05
-0.000142070890332147
-2.68555307303992e-05
-0.000131203300766471
-2.67608766337746e-05
-0.000120422214074799
-2.65769212687096e-05
-0.000109755695213925
-2.63133463946112e-05
-9.92292678353617e-05
-2.59774102952873e-05
-8.8865979923069e-05
-2.55778947655903e-05
-7.86890112533267e-05
-2.51152547541958e-05
-6.87221756632422e-05
-2.45874006206205e-05
-5.89880877925557e-05
-2.39976648598488e-05
-4.95072429659916e-05
-2.3351944322822e-05
-4.0297587716636e-05
-2.26580181387689e-05
-3.13746772737479e-05
-2.19236264444015e-05
-2.27538600748514e-05
-2.11509768016167e-05
-1.44523736803899e-05
-2.03350151174821e-05
-6.48872081176782e-06
-1.94736201203157e-05
1.11725936020817e-06
-1.85620695001818e-05
8.34440293112252e-06
-1.75997973348516e-05
1.51694334345988e-05
-1.65796184089865e-05
2.15637702948992e-05
-1.54920367030051e-05
2.74898481269785e-05
-1.43075991696833e-05
3.28971526378723e-05
-1.30045548679534e-05
3.77149433844209e-05
-1.15117959201437e-05
4.18404304349386e-05
-9.77715667471087e-06
4.51159358326982e-05
-7.60417332007438e-06
4.7295693917977e-05
-4.85212548964233e-06
4.79415688050993e-05
-9.24954304954061e-07
4.63081331261034e-05
5.14239551623969e-06
4.48607833241388e-05
5.6858782497567e-06
4.86356111221182e-05
-9.49108943518119e-06
5.54891109709661e-05
-1.6913201496783e-05
6.47248339280731e-05
-2.34046275923624e-05
7.58183682747157e-05
-2.82841942617248e-05
8.85932873018621e-05
-3.28175415890316e-05
0.000102968327350001
-3.71529816746107e-05
0.000119068778470363
-4.18387400890005e-05
0.000137276997951869
-4.78649747673123e-05
0.000157270654244948
-5.27475566198718e-05
0.000178380429206443
-5.54821908951322e-05
0.000200034610613932
-5.66033837487193e-05
0.000221633530679557
-5.59349379616495e-05
0.000242397901495407
-5.29950300306131e-05
0.000261033948507098
-4.6038024372471e-05
0.000277048926958396
-3.8177584556259e-05
0.000291255363079441
-3.36291371694366e-05
0.000304445816800831
-3.14200751606636e-05
0.000317455114011506
-3.14544195629523e-05
0.000331535980938532
-3.52028343900149e-05
0.000348989255096957
-4.54723864558734e-05
0.000372650227683038
-6.40127274484111e-05
0.000401146147533061
-7.56984460258027e-05
0.000433847260296597
-8.57076748145902e-05
0.00047028533242771
-9.47990967093768e-05
0.000509211128565989
-9.97877906829125e-05
0.000544147021137884
-8.26813841334423e-05
0.000554540310824962
-4.91142992543891e-07
0.000518574833777448
0.000136845502841453
0.000448439366625686
0.000210285019240532
0.000367556178893654
0.00021166951225767
0.000300120756951084
0.000165237742960497
4.07269170476894e-05
0.000372752702285846
-8.73686661805747e-06
0.000375730676611439
-3.10984868780049e-05
0.000341975469632541
0.000119627615446629
0.000250484096946646
0.000292734129180201
0.000109938277271945
0.000393199821820566
-1.44609941088937e-05
0.000303551458757172
-6.86037876975149e-05
0.000107424807196826
-7.62556744288069e-05
4.1251693801381e-06
-7.28800495067425e-05
-1.61226266655669e-05
-6.85494147221593e-05
-1.61006998695841e-05
-6.56662647277256e-05
-1.06598483209076e-05
-6.46674779536936e-05
-4.47224824478845e-06
-6.52199998947018e-05
2.46815551506352e-07
-6.69697973938579e-05
3.85399957706796e-06
-6.94796369930132e-05
5.82633608250766e-06
-7.29547328799217e-05
8.41717981058113e-06
-7.7779571810864e-05
1.21148152009637e-05
-8.4273958598298e-05
1.68869597175597e-05
-9.24601721765542e-05
2.16681225776026e-05
-0.000102333149652019
2.63963653865185e-05
-0.000114003331577504
3.16519159411487e-05
-0.000127298684573022
3.65469331498083e-05
-0.000141833940363736
4.03317951253784e-05
-0.000157254255827764
4.29963493684849e-05
-0.000173443349823182
4.56356509958532e-05
-0.000190238792629625
4.85252673539608e-05
-0.000206892976025681
4.91338746896186e-05
-0.000222750076608274
4.74358148434862e-05
-0.000237527032198728
4.43725911149533e-05
-0.000251492639772855
4.15535344992705e-05
-0.000265855931184807
4.21028706736599e-05
-0.000282469958280178
5.13136358524063e-05
-0.000303219435409791
8.08193747294078e-05
-0.000321353034679841
8.0232941202185e-05
-0.000333219465340615
5.65180974083931e-05
-0.000340688895759694
3.88580087973514e-05
-0.000345130550757726
2.69207767252475e-05
-0.000347241391625219
1.78415030340208e-05
-0.000347481913023504
1.06282846383557e-05
-0.000346143894366606
4.58936282029869e-06
-0.000343435634893069
-6.41257345630422e-07
-0.000339515785555054
-5.28686412237507e-06
-0.0003345110147216
-9.46361462096341e-06
-0.000328523082815316
-1.32549881714141e-05
-0.000321641836943738
-1.6716165024973e-05
-0.000313948754603006
-1.98805170146992e-05
-0.00030551949519175
-2.27696020598462e-05
-0.00029642595704481
-2.53958954148599e-05
-0.000286737276591866
-2.77675148531952e-05
-0.000276520217456147
-2.98909954192612e-05
-0.000265839310829312
-3.17723904820505e-05
-0.000254756741725804
-3.34185344321885e-05
-0.000243332192479088
-3.48373015706737e-05
-0.000231622694035355
-3.60374959505006e-05
-0.000219682460020461
-3.70290557603041e-05
-0.00020756283782914
-3.78224407845047e-05
-0.000195312278469352
-3.84284658543971e-05
-0.000182976305878057
-3.88584295577353e-05
-0.00017059758933994
-3.91234041814033e-05
-0.000158215975865023
-3.92346402062318e-05
-0.000145868553041575
-3.92029536039751e-05
-0.000133589615673763
-3.90398140565016e-05
-0.000121410699377572
-3.87558376243809e-05
-0.000109360389963299
-3.83636558725995e-05
-9.74647345596053e-05
-3.78730657665633e-05
-8.57474982684008e-05
-3.7295131127791e-05
-7.42326493476347e-05
-3.66301037488608e-05
-6.29448062910077e-05
-3.58752437535455e-05
-5.19074505125495e-05
-3.50350207165557e-05
-4.11419812883304e-05
-3.41174136268701e-05
-3.06673798643934e-05
-3.31326196438902e-05
-2.05003645363347e-05
-3.20906418548843e-05
-1.06576655389855e-05
-3.0993675882718e-05
-1.15786023860711e-06
-2.98348205030959e-05
7.97858895312593e-06
-2.86100693990613e-05
1.67300693989728e-05
-2.73135500349147e-05
2.50735726804478e-05
-2.5943300707167e-05
3.29839209358397e-05
-2.44899667575738e-05
4.04297749005833e-05
-2.29378907638786e-05
4.73715639518901e-05
-2.12493883206367e-05
5.37547839800558e-05
-1.93877749998312e-05
5.95074699462623e-05
-1.72644819946613e-05
6.4520994807182e-05
-1.47906816489256e-05
6.86415377104507e-05
-1.17247163419245e-05
7.16149907437011e-05
-7.82557864691748e-06
7.30299081329713e-05
-2.33987182374204e-06
7.2132383841908e-05
6.03991967295618e-06
7.13196565897666e-05
6.49860536569171e-06
7.52832142567592e-05
-1.34546472356784e-05
8.2631281507302e-05
-2.42612688740351e-05
9.25464052666916e-05
-3.33197514706205e-05
0.000104540829535664
-4.02786186415752e-05
0.000118393014968688
-4.66697271254441e-05
0.000134010296308642
-5.27702631112461e-05
0.000151495495595976
-5.93239394672972e-05
0.000171175885106565
-6.75453643642831e-05
0.000192796369346259
-7.43680409427227e-05
0.000215746388112381
-7.84322097424883e-05
0.000239451694258154
-8.03086899745612e-05
0.000263322466102234
-7.98057098846455e-05
0.000286607851101744
-7.62804151069547e-05
0.000308113769243277
-6.75439425867501e-05
0.000327248210920901
-5.73120262993916e-05
0.00034458053085425
-5.09614571574248e-05
0.000360817296253805
-4.76568406007893e-05
0.000376758063962419
-4.7395187296161e-05
0.00039357581529839
-5.20205857348657e-05
0.000413481645297204
-6.5378216451089e-05
0.000439317839001274
-8.98489211425282e-05
0.000470416492720795
-0.00010679709973552
0.000506209935121738
-0.000121501117210892
0.000546175703173136
-0.000134764864763787
0.000589160829250835
-0.000142772916770968
0.000629759763207669
-0.000123280318105771
0.000650342878982761
-2.10742587866313e-05
0.000628476527040229
0.000158711854759537
0.000568438229445025
0.000270323316804969
0.000488421142026628
0.00029168659964491
0.000414299936112054
0.000239358948856618
7.53632577162431e-05
0.000464331834772871
6.13569987860892e-06
0.000462078159580884
-2.88448117624532e-05
0.000429069445841924
0.00015263632913949
0.000335624217986164
0.000386179356996388
0.000175784713899338
0.000553039325864586
1.55004133197612e-05
0.000463835759285538
-6.72600078363505e-05
0.00019018522828552
-8.54394389314944e-05
2.23046004039068e-05
-8.47236405925871e-05
-1.68384250746296e-05
-8.13783004381399e-05
-1.94460400958199e-05
-7.90794445373168e-05
-1.29587043032702e-05
-7.86342159333926e-05
-4.91747694537764e-06
-7.98383545350439e-05
1.45095403969518e-06
-8.23780731647857e-05
6.39371807721189e-06
-8.58372626983845e-05
9.28552547275748e-06
-9.04649895559995e-05
1.30449065148462e-05
-9.66830143183047e-05
1.83328398048998e-05
-0.000104814713806631
2.50186590475497e-05
-0.00011486749305082
3.17209016676863e-05
-0.000126799751699115
3.83286238874399e-05
-0.00014063773901511
4.54899031169379e-05
-0.000156101533552528
5.20107275527613e-05
-0.000172711882524664
5.69421439660838e-05
-0.000190040646303004
6.03251130154227e-05
-0.000207867481732901
6.34624862921661e-05
-0.000225904025452638
6.65618109373344e-05
-0.000243418238857297
6.66480879563848e-05
-0.000259870029129883
6.3887604979232e-05
-0.000275125096732067
5.96276585844505e-05
-0.000289534154300403
5.59625919420819e-05
-0.000304076008980945
5.66447252384759e-05
-0.000320019831168608
6.7257457935334e-05
-0.000337957198820847
9.87567422900397e-05
-0.000352589642841805
9.4865385144836e-05
-0.00036181214743374
6.57406019327028e-05
-0.000367313749324047
4.43596106279245e-05
-0.000370128937327148
2.97359646745963e-05
-0.000370817032641312
1.85295982991462e-05
-0.000369760258967894
9.57151091980394e-06
-0.000367207931487467
2.03703529821581e-06
-0.000363344843892537
-4.50434497890808e-06
-0.000358310404069754
-1.03213039801633e-05
-0.000352215969063542
-1.55580496587441e-05
-0.000345156659282312
-2.03142979807017e-05
-0.000337217570846186
-2.46552534856411e-05
-0.000328476771779661
-2.8621316102379e-05
-0.000319007542811843
-3.22388310457481e-05
-0.000308880104623605
-3.55233336185634e-05
-0.000298162422753684
-3.8485196736535e-05
-0.000286920463445034
-4.11329547399068e-05
-0.000275218241777592
-4.34746121607102e-05
-0.000263117649839932
-4.55191263809231e-05
-0.000250678258529429
-4.72766928927293e-05
-0.000237957133259668
-4.87586212328925e-05
-0.000225008645329988
-4.99775437042497e-05
-0.000211884398992123
-5.09466871387776e-05
-0.000198633181326265
-5.16796835392119e-05
-0.000185300923285028
-5.21906876207831e-05
-0.000171930749055632
-5.24935784356276e-05
-0.00015856301176121
-5.26023775285559e-05
-0.000145235330054904
-5.25306353412026e-05
-0.000131982583941413
-5.22925602038236e-05
-0.000118836897888556
-5.19015237138375e-05
-0.000105827520274501
-5.13730335258282e-05
-9.29811335915709e-05
-5.07194524909784e-05
-8.03221665095916e-05
-4.99540982532827e-05
-6.78751841469498e-05
-4.90770861567335e-05
-5.56653886161543e-05
-4.80850393309793e-05
-4.37168975857402e-05
-4.69835117947241e-05
-3.20517935602618e-05
-4.57825177010005e-05
-2.06898239565545e-05
-4.44945892970228e-05
-9.64852964693692e-06
-4.31319362146496e-05
1.0544933452039e-06
-4.1696698925786e-05
1.13996503533069e-05
-4.01799775629382e-05
2.13654895595916e-05
-3.85759086579092e-05
3.09296998223579e-05
-3.6877760351217e-05
4.00683558970223e-05
-3.50819568366534e-05
4.87554290099827e-05
-3.31770399269936e-05
5.69585398582049e-05
-3.1141001670537e-05
6.4637656978447e-05
-2.8928505501667e-05
7.17375085884901e-05
-2.64876266733659e-05
7.81874048196964e-05
-2.37143782924015e-05
8.38798312347767e-05