/*--------------------------------*- C++ -*----------------------------------*\
  =========                 |
  \\      /  F ield         | OpenFOAM: The Open Source CFD Toolbox
   \\    /   O peration     | Website:  https://openfoam.org
    \\  /    A nd           | Version:  7
     \\/     M anipulation  |
\*---------------------------------------------------------------------------*/
FoamFile
{
    version     2.0;
    format      ascii;
    class       volScalarField;
    location    "20000";
    object      Pk_bouss;
}
// * * * * * * * * * * * * * * * * * * * * * * * * * * * * * * * * * * * * * //

dimensions      [0 2 -3 0 0 0 0];

internalField   nonuniform List<scalar> 
15600
(
2.58637518543636e-07
3.62689873127658e-07
2.80943416094238e-07
8.48157060221009e-08
3.94823454756347e-09
1.89949510270137e-09
2.11637580230521e-09
1.32553079353744e-09
8.824855599167e-10
4.69679431221441e-10
2.68243173212009e-10
1.78993614882296e-10
1.4377606024081e-10
1.30988085308062e-10
1.29968211300466e-10
1.35136268055749e-10
1.51310004174808e-10
1.83892101946592e-10
2.42704915312504e-10
3.37248744025614e-10
4.87814783272815e-10
7.27855578417951e-10
1.09756065165981e-09
1.63883961077726e-09
2.40189266085566e-09
3.49907444905354e-09
5.06811475504237e-09
7.16082034688535e-09
9.78356746066145e-09
1.29191536057353e-08
1.65311389636631e-08
2.05271818933729e-08
2.90970543675579e-08
4.93171235135337e-08
7.59270384678996e-08
1.02747590198549e-07
1.29596985273778e-07
1.55613376581876e-07
1.8047071848906e-07
2.03760606142991e-07
2.25179854576426e-07
2.44450852894219e-07
2.61353076966828e-07
2.75677478308431e-07
2.86912084848258e-07
2.94746408929401e-07
2.99127520737506e-07
3.00091666745757e-07
2.97765520508455e-07
2.92358980317412e-07
2.84153441618864e-07
2.73487035431507e-07
2.60736967699644e-07
2.46301993419601e-07
2.3058597581238e-07
2.13982797845509e-07
1.96864862016652e-07
1.79573773029868e-07
1.62413568788996e-07
1.45647238267983e-07
1.29494789559074e-07
1.14133605032062e-07
9.96996011834232e-08
8.62901094543048e-08
7.39658699843875e-08
6.27560058340801e-08
5.26603861731546e-08
4.36633393242222e-08
3.57355663409269e-08
2.88324759119187e-08
2.28966445919816e-08
1.78585631852939e-08
1.36413729900861e-08
1.01664068401688e-08
7.35500831486378e-09
5.13081588031608e-09
3.41682428088972e-09
2.14107271130582e-09
1.23158053481699e-09
6.23945354234871e-10
2.5419967391132e-10
6.60377558238366e-11
2.64831092731749e-12
1.3080002252086e-11
5.02716254798012e-11
6.69984236291215e-11
5.09512807833229e-11
1.49528937615746e-13
2.16183374795656e-13
7.66902656229118e-11
4.48049241762772e-10
1.58684259344755e-09
4.04024142268232e-09
8.80503473302568e-09
1.71834779150552e-08
3.19521278538806e-08
5.66923854929742e-08
9.37667473228194e-08
1.44860861723175e-07
2.09700646955452e-07
2.85532722304363e-07
3.60950586545688e-07
4.25897706592663e-07
4.88168049108559e-07
5.57231024909252e-07
6.39032018777418e-07
7.50623058883994e-07
9.19997356512118e-07
1.23067847761974e-06
1.68747895648263e-06
2.30264422373885e-06
3.12131562909265e-06
4.14374293038142e-06
5.08797908388643e-06
4.89005084626087e-06
3.34492730809934e-06
1.62613847412794e-06
7.19717858221479e-07
2.92902862743259e-07
2.10735785207327e-07
5.94057909065358e-05
7.19991465016967e-05
5.58337595288458e-05
2.2876045713538e-05
2.82446918860049e-06
4.02167633106573e-08
2.27965775153571e-07
1.76137426451598e-07
1.24415521415953e-07
7.00007435067577e-08
4.1608028927464e-08
2.865445200026e-08
2.35354287689104e-08
2.18197010966933e-08
2.19605434094162e-08
2.32485919338226e-08
2.64812089263643e-08
3.26548232600019e-08
4.34649381217233e-08
6.08492975977642e-08
8.84579401044863e-08
1.32080276183482e-07
1.98757269268645e-07
2.96464010027749e-07
4.3566110236925e-07
6.34340185677013e-07
9.13527207463388e-07
1.28298395588631e-06
1.74658109677126e-06
2.30318430179135e-06
2.9578178407281e-06
3.8238272797172e-06
5.29475188117861e-06
8.05620938437981e-06
1.14686361056651e-05
1.47912029918659e-05
1.7970460571745e-05
2.09396807678541e-05
2.36694943301059e-05
2.61257910871169e-05
2.82837997974171e-05
3.01239136090974e-05
3.16332307347228e-05
3.27998832667687e-05
3.35652851277578e-05
3.39259606995724e-05
3.38921119148535e-05
3.34828882432013e-05
3.27258857275339e-05
3.1655932254733e-05
3.03135070774051e-05
2.87429966279012e-05
2.69908219448697e-05
2.51036788705823e-05
2.31269902743119e-05
2.11035710950995e-05
1.90726548967832e-05
1.70691790515376e-05
1.51233159656377e-05
1.32603145940033e-05
1.15004722265131e-05
9.85933270750126e-06
8.34791374488846e-06
6.97312865184114e-06
5.73810596208292e-06
4.64277242313383e-06
3.68430394014183e-06
2.85812756452255e-06
2.15809825471677e-06
1.57652735910345e-06
1.10449407930212e-06
7.32118647743112e-07
4.49028706462849e-07
2.447869495963e-07
1.09011706946786e-07
3.14995408334749e-08
2.24706677865364e-09
1.16044516248668e-08
5.03315050702013e-08
1.09466357316998e-07
1.80599356818135e-07
2.54844593200681e-07
3.24499004777797e-07
3.79115568981461e-07
4.11888437199836e-07
4.0791123108269e-07
3.64703742108815e-07
2.76337168660207e-07
3.18226099053123e-07
4.77801066718893e-07
7.55209623453208e-07
1.2194509884653e-06
1.94395146341939e-06
3.05706815526347e-06
4.72713818033929e-06
7.30163024456627e-06
1.11322570330683e-05
1.64228066608065e-05
2.33132828324176e-05
3.17355762201753e-05
4.13763124393908e-05
5.10677331336974e-05
5.99079652986707e-05
6.85907064591184e-05
7.79658895798e-05
8.88599100055123e-05
0.000103186092647359
0.000124103114302933
0.000159776179090737
0.000210407385433765
0.000278866951122509
0.000368978127097689
0.000480247518063474
0.000586364564561835
0.000588254003485694
0.000465471359899289
0.000286617005423088
0.000154284763718258
7.75139626415899e-05
5.73332473391556e-05
0.00143678742446326
0.00153151543928251
0.00117712822600554
0.00060193882909513
0.000127137181836432
2.50003296308622e-06
2.122689899353e-06
2.44674089442121e-06
1.90165075875551e-06
1.15346529412908e-06
7.22787858468883e-07
5.18116471840557e-07
4.37498158967551e-07
4.14085916873164e-07
4.23740424987068e-07
4.57350112867222e-07
5.30082865988976e-07
6.62539918475963e-07
8.88049735067592e-07
1.24942586980838e-06
1.81884479558664e-06
2.70579573525292e-06
4.04364396635558e-06
5.99104047863756e-06
8.75392445010465e-06
1.26092842866162e-05
1.78631547309025e-05
2.46610653409654e-05
3.30616053036689e-05
4.30670753621614e-05
5.50547772367329e-05
7.11675207412194e-05
9.20984471470014e-05
0.000123685805450117
0.000159851397793914
0.000192623032523993
0.000221357770786836
0.000246087017158755
0.000266844455937807
0.000283646268427723
0.000296547025979728
0.000305650265601549
0.000311146195914496
0.000312790519026982
0.000310697461796644
0.000305162472128536
0.000296509433618016
0.000285103325426168
0.000271341512903632
0.000255642070131062
0.000238431274831811
0.000220131702253152
0.000201151055702036
0.000181872737569913
0.000162648494706453
0.000143792889292626
0.000125579973366044
0.000108241588783982
9.19670343815842e-05
7.69042342717912e-05
6.31615649018638e-05
5.08106445311192e-05
3.98892970927799e-05
3.04052022579862e-05
2.23394598587425e-05
1.56507593171394e-05
1.02795105178457e-05
6.15193593447472e-06
3.18141990768844e-06
1.27047975602798e-06
3.13672039005402e-07
2.00734363981071e-07
8.19177002874129e-07
2.05558777075222e-06
3.79641270165977e-06
5.92895773844138e-06
8.3416301555556e-06
1.09263593167238e-05
1.35755353817501e-05
1.61795979677322e-05
1.86320680264349e-05
2.08089714775841e-05
2.25929319107897e-05
2.38147735769252e-05
2.43253874378378e-05
2.38443807755129e-05
2.20685632594746e-05
2.01453762398359e-05
2.28239914116581e-05
2.81224284232236e-05
3.63729566729784e-05
4.76777322000369e-05
6.32145365602138e-05
8.42415845293347e-05
0.000112770595653197
0.000152306871152632
0.000205286117340771
0.000273281529729548
0.000357538283323157
0.000457548852024863
0.000570891264884381
0.000689023634579455
0.00080691373803855
0.000929064776772919
0.00106029130704709
0.00120956917605206
0.0013959498119325
0.00165043061060065
0.00203798074719132
0.00255472757501504
0.00324021551764498
0.00411852347110761
0.00516723628799833
0.00618326341548146
0.00644273805687243
0.00581578119663648
0.00450960089635097
0.00304680849139405
0.0019030919478556
0.00152330872527724
0.00957625689571197
0.00930010501409099
0.00720172425989341
0.00443119262255193
0.0014248040072986
0.000110520590928437
3.43852144336493e-06
1.04202912848016e-05
9.6925814887279e-06
6.57123171061276e-06
4.4322434674206e-06
3.34596806747548e-06
2.92305296907238e-06
2.83247869608219e-06
2.95171824493669e-06
3.2462106701468e-06
3.81835380081913e-06
4.81376666116977e-06
6.45850796362694e-06
9.05704452888947e-06
1.30612691030129e-05
1.91068076459063e-05
2.79226962941958e-05
4.03271856800316e-05
5.71992414894828e-05
7.92899957315941e-05
0.000107307306060549
0.000141227532659317
0.000180738174159818
0.00022565497386462
0.000277547590769127
0.000339299438044827
0.000392084143676407
0.00044841430983472
0.00050407406999958
0.00054587360877922
0.000573500315996872
0.000589797352839705
0.000596227670064184
0.000594114394369593
0.000584594767040582
0.000568842930067471
0.000547480013094108
0.000521223798436791
0.00049114461380595
0.000458135588217069
0.000423033152396201
0.000386614860632765
0.000349595149371751
0.000312621306866406
0.000276270656792167
0.000241049720541143
0.00020739477107537
0.00017567377628803
0.000146189401545564
0.000119182661496654
9.48370707986858e-05
7.32830331224128e-05
5.46022544833812e-05
3.88321362823065e-05
2.59701333987644e-05
1.59778448535304e-05
8.7851474448948e-06
4.29395996789801e-06
2.38195934084307e-06
2.90572998573785e-06
5.70220231688252e-06
1.0590831354404e-05
1.73775540657931e-05
2.58578961161629e-05
3.58212713198213e-05
4.70507972547162e-05
5.93240831857844e-05
7.24089481255604e-05
8.60667575662114e-05
0.000100058272254421
0.000114130168023847
0.000128049285173263
0.000141542613594282
0.000154338381403192
0.00016611408264732
0.000176552933813694
0.000185201970156462
0.000191638782927299
0.000195094224660693
0.000194920007231483
0.000188445102610063
0.000187130760279453
0.000206174660977607
0.00023244652148112
0.000271356400351706
0.000319585455129999
0.00038182266544301
0.0004603084922887
0.000560557828532162
0.000688360386661271
0.000845513797468017
0.00103654907539872
0.00126636432636645
0.00153728966635155
0.00184943001497184
0.00220043836221388
0.00259876725712312
0.00305088708445479
0.00355492009786925
0.00412880475053547
0.00481270703345459
0.00566671003680252
0.00677307665358072
0.00809706862641257
0.00975472179965158
0.0117682426458271
0.0140142827514908
0.0161734239115422
0.0174179908917683
0.0179001082820952
0.0172965416052644
0.0148740504445286
0.0116800075119365
0.0104357349508734
0.0250095372984565
0.0230315629090249
0.0184717169197846
0.0135684948320104
0.00636661384138887
0.00111631575122863
1.56392585666786e-05
1.70102317033398e-05
2.40287676495243e-05
1.9667135119774e-05
1.48377209527274e-05
1.20221955059248e-05
1.09598999089139e-05
1.09004471263251e-05
1.15671220259172e-05
1.29138170924321e-05
1.53049884192284e-05
1.92546630619238e-05
2.55149232315818e-05
3.50486358099476e-05
4.8994563238505e-05
6.86804743681172e-05
9.52483541524067e-05
0.000129518558700347
0.000171487219253562
0.000219674384684267
0.000272788836408793
0.000329168619413213
0.000387742165523029
0.000448427717013694
0.000511631978017613
0.000568412911869174
0.000568339365719968
0.000528322113289154
0.0004899423835881
0.000456947717827423
0.000422811311496144
0.000388892673403804
0.000354963117239971
0.000321361664014725
0.000288421192387416
0.000256554813045376
0.000225847804845858
0.000196558090912451
0.000168955567313268
0.000143250438171981
0.000119608163441458
9.81522744014543e-05
7.89685150146401e-05
6.21097339763481e-05
4.76008304854679e-05
3.54438152914037e-05
2.56221795057039e-05
1.81046315101195e-05
1.28481040675687e-05
9.79994360914304e-06
8.89963445636221e-06
1.00800528219297e-05
1.32682062980308e-05
1.83858566052691e-05
2.5349845541096e-05
3.40724406194429e-05
4.44611656483791e-05
5.64192270513412e-05
6.9843923440738e-05
8.46269145639567e-05
0.000100649349524895
0.000117786540496879
0.000135913911606715
0.000154905836553759
0.000174637093726355
0.000194973756019826
0.00021577137756164
0.00023687209064147
0.000258101817500294
0.000279303907192207
0.000300292779836841
0.000320898940213147
0.000340891172615152
0.000360094651914995
0.00037818133037792
0.000395022188436752
0.000410089882106329
0.000423447852741472
0.00043415275449741
0.000443004732003208
0.00044656247543669
0.000468148466235845
0.00050419571628883
0.0005396634024232
0.000591123946298803
0.000653118175627319
0.00073223373152096
0.000829562468165366
0.000950615424920437
0.00109568330923445
0.00126103070538584
0.00145222618322365
0.00167631262052066
0.00193931760994852
0.00224787394458629
0.00262311728300274
0.00310682851132022
0.00371470742202686
0.00443716130146388
0.00528731649746317
0.00629135978861958
0.00746880324964034
0.00875642494938786
0.0100644982944458
0.0115274335387041
0.0131473272726872
0.0147357120704584
0.016167061400519
0.0177522404003347
0.0212263702617609
0.0258913545884018
0.0282458225768444
0.0273535573169483
0.0270510086692761
0.0355563068362481
0.0320498588540165
0.026642633970144
0.0228249576815299
0.014743380760165
0.00476593944397415
0.000317220921028122
5.09165259676388e-06
2.83305016211872e-05
3.42467770802465e-05
3.1291610103864e-05
2.81929904323986e-05
2.71996321358622e-05
2.78609733512808e-05
3.00463068148705e-05
3.38016872105927e-05
3.9878221971335e-05
4.92419275778444e-05
6.31461422557037e-05
8.28781071573565e-05
0.00010913105924785
0.000142065355635286
0.000180906014990177
0.000224081952205405
0.000268590590732116
0.00030985444093001
0.000345950666043405
0.000377281575425374
0.000405329328349924
0.000431143631800231
0.000451978418413469
0.000451170626068054
0.000381410267329444
0.000274324232520573
0.000199263753087875
0.000152405707718544
0.000117390375895475
9.06971643839199e-05
6.95010359506411e-05
5.25293893212243e-05
3.89874424309785e-05
2.8351193257705e-05
2.02220778151157e-05
1.43925867012059e-05
1.06782002002594e-05
8.91642221316432e-06
8.95984599349158e-06
1.06705299603956e-05
1.3918481189697e-05
1.85816819985648e-05
2.45465302649078e-05
3.17085993535877e-05
3.99729474686363e-05
4.92540103525399e-05
5.94752488900741e-05
7.05682491163195e-05
8.24718614813481e-05
9.51311701556921e-05
0.000108496240269966
0.000122521188277171
0.000137162910294141
0.000152380307171928
0.000168132621018944
0.0001843791176457
0.000201076232612321
0.000218178138189897
0.000235630443635843
0.00025337728316962
0.000271368747033286
0.000289558156338901
0.00030790058564853
0.000326342090794287
0.000344813656687728
0.000363231013210898
0.000381512142988203
0.000399580953702977
0.000417342550897762
0.000434741761803419
0.00045163709311951
0.000468000721794845
0.00048361617464825
0.000498614574730477
0.000512643879011335
0.00052635736967957
0.000539241241218726
0.000553840801026508
0.000568794457636719
0.000611687430170584
0.000656558353119506
0.000690010197794824
0.000734840194143724
0.000788313735377717
0.000856564716255701
0.000939771843555169
0.00104167197934829
0.00115841793890793
0.00128152567816344
0.00141330949190778
0.00155831594926067
0.00172050872805218
0.00190524054735113
0.00213723957103976
0.00246757423131003
0.0029206871361506
0.00348941716859845
0.00418198155020491
0.00500773106465032
0.00594854258877889
0.00683921358275905
0.00754208168552049
0.00815665043407696
0.00868677294008749
0.00897738652297981
0.00902542668840354
0.00949446827637345
0.0131104791023603
0.0209002663892282
0.0293212127522297
0.0344768444292688
0.0372093273443485
0.0361997883810438
0.0331617637963732
0.0282726662939042
0.0270771989442296
0.0224235556577741
0.0113267052352555
0.00189690508433819
5.94207583231115e-05
7.02636476884887e-06
3.06728157764876e-05
4.10821031039077e-05
4.42162494927523e-05
4.63703511406545e-05
4.9349736163719e-05
5.40317766117429e-05
6.07789545645431e-05
7.04764288720529e-05
8.40055755865966e-05
0.000102247286107646
0.000125548859519611
0.000152547280207704
0.000181095257445557
0.000208872020081608
0.000233996633100923
0.000254092641496738
0.000266133602999998
0.000270987320600474
0.000272172145470134
0.000272030539646867
0.000270305822672314
0.000262156146808412
0.000234637105929888
0.000161890782842396
8.09105744247213e-05
3.72333834804047e-05
1.65490817988078e-05
5.75639061798861e-06
1.09746463905216e-06
4.05988484643546e-07
2.60621868796413e-06
7.05578222820161e-06
1.3373283193321e-05
2.12882461542421e-05
3.05696415436268e-05
4.10245181045155e-05
5.24826001439631e-05
6.47884805449456e-05
7.77985563237666e-05
9.13807230934417e-05
0.000105415636768571
0.000119797587476981
0.000134435131166615
0.00014925116271777
0.000164182187091153
0.000179177464665879
0.00019419748806118
0.000209212567542231
0.000224201272926034
0.000239148720644401
0.000254045234246334
0.00026888464993921
0.000283663195307622
0.000298377448399503
0.000313023970004655
0.000327596499363288
0.000342087738881258
0.000356480268769741
0.000370753808275664
0.000384896948412235
0.000398904821274074
0.00041277481283372
0.000426496075270358
0.000440032241059225
0.000453347502207491
0.000466388440746392
0.000479136670872466
0.000491540824452333
0.000503605042429641
0.000515241603096764
0.000526498180596859
0.000537231624388651
0.000547705774571765
0.000557705978393966
0.000568179497226008
0.00057896312051867
0.000593574722261449
0.000611689708299392
0.00066268393836234
0.000715336921915345
0.000751409479274048
0.000793753133969686
0.000842785611414284
0.000904225436331503
0.000978291326807075
0.00106767740847556
0.0011674457336323
0.00126639343917136
0.00136308183476243
0.00145909090731273
0.00155549286004153
0.0016546453709477
0.00177641416036365
0.0019680771081337
0.00225639088485217
0.00263532697552022
0.00310868557393955
0.00367809508151345
0.00431674540219807
0.00485426427685182
0.00513706239637851
0.0052349520966786
0.00516080961722025
0.0048055952003117
0.00417488502423739
0.00368496471862171
0.00534405625135146
0.0113906219096598
0.0209964057824876
0.0302027432636564
0.0363621713300157
0.0311782048371203
0.029422641375632
0.0258005971796461
0.0266149631633862
0.0267011434396391
0.0186703547226001
0.00572041632714799
0.000507694128914529
1.55974758075274e-05
6.75760106629367e-06
2.87708078009913e-05
4.38586404728304e-05
5.30105091318612e-05
5.99840805824843e-05
6.71720254783179e-05
7.55091502458617e-05
8.56201671554217e-05
9.77956043085362e-05
0.000112143984994657
0.000128176320932163
0.000143627560148909
0.000156313574368871
0.000165288913337025
0.000170679650796088
0.00017203042820472
0.00016800680830525
0.000160276466687076
0.000151995562423662
0.00014411564520713
0.000135198953886299
0.000121253285393224
9.65285142505948e-05
5.21002812725064e-05
1.63250315676433e-05
5.81589594453288e-06
7.78111602978271e-06
1.5538510827249e-05
2.62721732393548e-05
3.9019749366463e-05
5.31499052412835e-05
6.83848461612781e-05
8.45603669392023e-05
0.000101499882525907
0.0001190244900062
0.000136981985536548
0.000155229488653287
0.000173630694651831
0.00019205643261702
0.000210386339119563
0.000228512609711721
0.000246342283351532
0.000263798577629233
0.000280821488219577
0.0002973669660423
0.000313406023226936
0.000328922859241512
0.000343913094690838
0.000358381834983906
0.000372341591618294
0.000385810525717037
0.000398810421360672
0.000411365193168474
0.000423498600614536
0.000435234070022044
0.000446591992920728
0.00045759356597816
0.000468246640085088
0.00047855112893252
0.000488518086490307
0.000498168926404828
0.000507528045461729
0.000516607472047681
0.000525401984566263
0.000533891415123954
0.000542050375123154
0.000549883103815534
0.000557364939256369
0.000564532978622709
0.000571332684254349
0.000577850486039557
0.000583989063457559
0.000590081829790271
0.000596011175793472
0.000602882370438214
0.000610774422924999
0.000623836215489902
0.000641937631741665
0.000694893513455364
0.000754345627997827
0.000796616466085451
0.00084161357498642
0.000892035865149188
0.000953527312338303
0.00102683176448527
0.00111424478045144
0.00121093912486224
0.00130417954806352
0.00138938315080093
0.00146564795917317
0.00153183249987689
0.00158824365498336
0.00165065969835515
0.00176265948922095
0.00195271971645783
0.00221607341580351
0.00255457735674876
0.00296833889477443
0.00343406306159585
0.00380658631053741
0.00393536498117831
0.00387081523605041
0.00362992426834498
0.0031241480416156
0.00234140317263481
0.00143856670620161
0.00165810118557829
0.00494220888344621
0.0120545467619925
0.0213559111783775
0.0290409677884812
0.0239582399906615
0.0237678826100531
0.0216728755692489
0.0235064404948162
0.0275578462683106
0.024591920699511
0.0115457562690509
0.00173212730518684
0.000167890349347069
6.39183808188887e-06
5.43904454701594e-06
2.36737029185381e-05
3.842658763473e-05
4.89753602243433e-05
5.76315988314524e-05
6.5664532548598e-05
7.34137792337595e-05
8.08588674631862e-05
8.80115413088459e-05
9.46951228418401e-05
9.94147202619901e-05
0.000101205798589241
0.000100474884061952
9.81481427446648e-05
9.42502622627304e-05
8.78543943903816e-05
7.99917377594001e-05
7.25238392330346e-05
6.55949368523766e-05
5.80021331831438e-05
4.78179264301778e-05
3.4810640954218e-05
2.03504335391483e-05
2.14848123552764e-05
3.51668815018255e-05
5.34392371501517e-05
7.43457964632463e-05
9.5804817982075e-05
0.000117819582366591
0.000140089399414136
0.000162638492731277
0.000185418143851573
0.000208336006949368
0.000231256431188339
0.000254057117720186
0.000276613978823764
0.000298802733031693
0.000320502209223285
0.000341597466633999
0.000361986116426831
0.00038158205097868
0.000400317525466629
0.000418144367266587
0.000435033041586075
0.000450971754278523
0.000465964145356788
0.000480027128929144
0.000493188515800039
0.00050548450990505
0.000516957430413373
0.000527653316542525
0.00053761999744554
0.000546904532941944
0.00055555347301247
0.000563610153998006
0.000571121626911659
0.000578117601026776
0.00058461174225833
0.000590630742523165
0.000596216175997352
0.000601409059521844
0.000606247685614645
0.000610745359970223
0.000614903646103457
0.000618707677802435
0.000622175563692978
0.000625302214324918
0.00062814775514309
0.000630683011320211
0.000633018959465885
0.000635093428638562
0.00063728703072358
0.000639563444502177
0.000643143957502336
0.000648296931023371
0.000659703803636337
0.00067710451079761
0.000729756382906469
0.00079473176918586
0.000844634003874121
0.000895263060042741
0.0009507425290697
0.00101678311637812
0.00109482244721448
0.00118706259737747
0.00128910845938862
0.00138728150211436
0.00147436498014145
0.00154726941256612
0.00160309473845156
0.0016408968864913
0.00167409680076981
0.00174447881621073
0.00188286118228556
0.00208649588388447
0.00235762053415118
0.00269824434437969
0.00309233853659251
0.00342097605426306
0.0035408216261215
0.00348509301485789
0.0032669807444854
0.0027930480754476
0.00202912450505285
0.000944385752640457
0.000400539017933894
0.00189067896415772
0.00624236808059809
0.013434855580212
0.0206323266454901
0.0173610086775152
0.0180880891969821
0.0172951510222018
0.0194231584761396
0.026015175389133
0.0284928283979899
0.0175174876124879
0.00397169003199674
0.000536185435044201
7.38045397212971e-05
3.59737420177285e-06
3.4782593075388e-06
1.51277622049398e-05
2.56184690746296e-05
3.39570102911585e-05
4.06855285717996e-05
4.58991242618446e-05
4.96231701089251e-05
5.21773996289266e-05
5.39245739166787e-05
5.42565505590897e-05
5.29227722713184e-05
5.05235865474245e-05
4.77561351128679e-05
4.46343239728953e-05
4.04690269842717e-05
3.56553665333812e-05
3.11765693325078e-05
2.71375717106479e-05
2.31633954428731e-05
1.92076915917139e-05
1.8344314578903e-05
2.87076375091001e-05
5.81406125981759e-05
9.03435600975228e-05
0.000121602480480783
0.00015306587235818
0.000183166078492643
0.00021267004539211
0.000241524136487058
0.000269974465670107
0.000298069709078601
0.000325790389423131
0.000353032410740465
0.000379694245582307
0.000405663804849215
0.00043082318660424
0.000455054188620821
0.000478242517537282
0.000500286799950854
0.000521103804399095
0.000540631267673008
0.000558829756472936
0.000575681563810407
0.000591189821023888
0.000605375656424006
0.000618275606697966
0.000629938717028846
0.000640423567905918
0.000649795383414801
0.000658123219074409
0.000665477541924219
0.000671927328786212
0.000677541027810111
0.000682383751319271
0.000686528468919037
0.000690026508771932
0.000692902204889865
0.000695194425487583
0.000696959668108718
0.000698254680163025
0.000699142183196691
0.00069966115499259
0.000699825186838031
0.000699626177119799
0.000699092193050739
0.000698234662898482
0.000697133307598347
0.000695781896280643
0.000694310693628299
0.000692689263628012
0.000691338580762617
0.000690299002535926
0.000690898988012228
0.000693570224836342
0.000703497863481093
0.000720184859020168
0.000771616806624624
0.000840914355548484
0.000898847650831346
0.000956778748177742
0.00101957537556674
0.00109301180302844
0.00117923813301333
0.00128048522972071
0.00139280447166989
0.00150187225052374
0.00159818915667747
0.00167663424078933
0.00173281379083581
0.0017650669123636
0.00178577770238884
0.00183632532487777
0.00195015586812827
0.00212694882824673
0.00237076446663681
0.00268713559594104
0.00306820237656122
0.00341637081849446
0.00359439230406229
0.00361692432307256
0.00348593645723932
0.00308567431445263
0.00235968209955139
0.00113906114900353
0.000138460472890006
0.000644643501440578
0.00318905466576634
0.00812371535691864
0.013863700846778
0.012284528026145
0.0133248157422992
0.0133738789658664
0.0154074647677461
0.0231195753137092
0.03000059750128
0.0243188646009438
0.00745886815217418
0.00117818758257416
0.00021933535272408
4.12491466535663e-05
3.09349362190307e-06
1.32021190270429e-06
6.7831504075252e-06
1.25960115297106e-05
1.74232291924871e-05
2.09023596120482e-05
2.30352927835321e-05
2.42308403706614e-05
2.49472737600574e-05
2.50187467885644e-05
2.43533645629759e-05
2.32494717737918e-05
2.20471653179509e-05
2.08450275922756e-05
1.93233222527708e-05
1.74982246803479e-05
1.58722776957442e-05
1.4824630003469e-05
1.48352047416767e-05
1.72684129838964e-05
2.70364404900514e-05
5.74537749434264e-05
0.000109603259228824
0.000157365566469123
0.000200143208701307
0.000241095298477677
0.00027904498454643
0.000315391453563106
0.000350277524583881
0.000384134007392982
0.000417108100038739
0.000449245840043662
0.000480467418203079
0.000510687272518601
0.00053980194457817
0.000567696950587266
0.000594254262797901
0.000619357427520535
0.000642903471286761
0.000664809737874139
0.000685017466314579
0.000703494360447458
0.000720233262136641
0.000735251294013063
0.000748586381299916
0.000760294229961586
0.000770444808748577
0.000779118884298252
0.00078640443609983
0.000792393374641703
0.000797178587716129
0.000800850608924207
0.000803499548615663
0.000805212107633378
0.000806088351253006
0.000806202371243716
0.000805587474751451
0.000804292009600971
0.000802381418827084
0.00079993475678381
0.00079703936173509
0.000793759847472865
0.000790118193976588
0.000786111482851277
0.000781776083699362
0.000777138731045069
0.000772298099309832
0.0007672707852254
0.000762204844298229
0.00075710118421873
0.000752420542409522
0.000748279775830494
0.000746117337045734
0.000746513832141529
0.000755141797506644
0.000771256219082096
0.000821033413067772
0.000893594398223054
0.000959465104137249
0.00102563692126594
0.00109720289254105
0.00117992195091133
0.00127659642728421
0.00138951652549141
0.00151508550695024
0.00163849126106922
0.00174821138339323
0.00183721379738743
0.00189982663725352
0.00193409402889173
0.00195230602673201
0.00199624546327564
0.00210189677672283
0.00227146176269641
0.0025116538170579
0.00283218088526747
0.00323332130670461
0.00363409399721278
0.0039012229569622
0.00402835745724962
0.00399956173769603
0.00366610517625587
0.00295121999973257
0.00158320867238451
0.000243637200743846
0.000178310436844126
0.00169681656395987
0.00500251802532347
0.00923734388325564
0.00873197161973813
0.009725856135401
0.0101780937991401
0.011984487554267
0.0196693511084609
0.0294706675117282
0.0290950120934389
0.0116180608951425
0.00221350503127593
0.000447883133762379
0.00011871882023294
2.79438507980606e-05
4.80808013144144e-06
1.03735393448614e-06
2.31244683858786e-06
4.69393648218061e-06
7.00315381691308e-06
8.92935754889163e-06
1.05885444287838e-05
1.21090592759316e-05
1.3445768285833e-05
1.44466343038678e-05
1.50720935816875e-05
1.54313580975214e-05
1.58164856580201e-05
1.63587568583079e-05
1.68905739798787e-05
1.76501797690103e-05
1.9355791401199e-05
2.32004410034424e-05
3.1604018879744e-05
5.0508374371847e-05
9.75825697236177e-05
0.000168972688639665
0.000230748968003894
0.000284493853046043
0.000334608697037661
0.000380241082722269
0.000423320185226106
0.000464160387645714
0.000503361647018617
0.00054117366844603
0.000577704395139933
0.000612893864808212
0.000646670203941054
0.000678937331178604
0.000709582914799261
0.000738487738715586
0.000765531649286174
0.000790608597839356
0.000813635272737236
0.000834555432739988
0.000853343246752076
0.000870001692030349
0.000884561756571227
0.000897078212051868
0.00090762619088429
0.000916296929201292
0.000923193808366205
0.0009284280069634
0.000932114691127633
0.000934369485190848
0.000935304610330794
0.000935032045188481
0.000933660307815556
0.000931318296972741
0.000928104759026779
0.000924060861009067
0.00091923751603954
0.000913716736305553
0.000907595823724098
0.000900992416079795
0.00089399347109712
0.000886629149174123
0.000878900785910724
0.000870852436324989
0.000862525859227099
0.000854039436110662
0.000845433576318982
0.000836874371391438
0.000828395016606677
0.000820498193573609
0.000813378813821271
0.000808592166170498
0.000806858809572726
0.000814318124483278
0.000829990177804147
0.000877896125428884
0.000952795781948833
0.00102624483673827
0.00110114000314807
0.00118241510416504
0.00127570014413263
0.00138434078577204
0.00151066600218406
0.00165129483780532
0.00179100686960419
0.00191647052696757
0.002018880695864
0.00209152711178562
0.00213255552487244
0.00215484913060699