/*--------------------------------*- C++ -*----------------------------------*\
  =========                 |
  \\      /  F ield         | OpenFOAM: The Open Source CFD Toolbox
   \\    /   O peration     | Website:  https://openfoam.org
    \\  /    A nd           | Version:  7
     \\/     M anipulation  |
\*---------------------------------------------------------------------------*/
FoamFile
{
    version     2.0;
    format      ascii;
    class       volSymmTensorField;
    location    "20000";
    object      tauij_B;
}
// * * * * * * * * * * * * * * * * * * * * * * * * * * * * * * * * * * * * * //

dimensions      [0 2 -2 0 0 0 0];

internalField   nonuniform List<symmTensor> 
15600
(
(1.70411317166431e-06 -1.33025263320045e-08 -6.71694427801075e-30 1.70425444887769e-06 4.44426799016085e-32 1.7041922555556e-06)
(1.81893992920106e-06 -1.62760999315674e-08 8.08121791812508e-28 1.81929935485057e-06 7.31286871978361e-29 1.81909852147786e-06)
(1.45007715692319e-06 -1.27665415327181e-08 -9.44021951590839e-27 1.45210016599975e-06 1.91671813848527e-27 1.45109542425222e-06)
(9.8588801144549e-07 -5.70989916887653e-09 2.08207028859263e-28 9.88051925630973e-07 2.35735280180916e-27 9.86963259667531e-07)
(5.30693045057752e-07 -8.77020980291697e-10 3.7890243366357e-27 5.31242368358348e-07 1.87316791727707e-26 5.30958473749004e-07)
(2.25780561046549e-07 3.36458418534554e-10 -3.12915655986298e-27 2.25299692875411e-07 7.84101326945684e-28 2.25534373687349e-07)
(1.0154228091333e-07 2.1408730857652e-10 -8.54260261823371e-27 1.01143654480996e-07 -2.1578094306664e-26 1.0134077759468e-07)
(7.89301797072315e-08 1.33927137796897e-10 7.37165881168644e-28 7.86170637317675e-08 6.90760665316999e-30 7.87725104331601e-08)
(6.63342410654217e-08 9.21953944021024e-11 -5.95009479640696e-27 6.60797878026848e-08 -1.35014951355976e-26 6.62060954669818e-08)
(4.78701729376451e-08 5.44588323340395e-11 4.67269505492515e-27 4.7702184712585e-08 7.81274517881172e-27 4.77856757320151e-08)
(3.50670651963163e-08 3.48683514284016e-11 1.63834945715526e-27 3.49526156054068e-08 2.06404704849929e-27 3.50095385564911e-08)
(2.84912054036863e-08 2.64948347459795e-11 7.01188839404403e-29 2.84032443650444e-08 -2.23246246467312e-30 2.8447038313271e-08)
(2.59448845585673e-08 2.42387818209631e-11 1.40488174429794e-27 2.58670430100576e-08 1.92983287085889e-27 2.5905820628457e-08)
(2.54899454631433e-08 2.45721119798577e-11 -5.1290214177624e-28 2.54140295817736e-08 1.57361118750022e-29 2.54518768334521e-08)
(2.62408001627498e-08 2.64289663120435e-11 6.77719418495404e-28 2.61618672678552e-08 -2.12331076285553e-29 2.62012307593053e-08)
(2.7849264680327e-08 2.93115660063585e-11 1.86184296483957e-27 2.7764023622007e-08 2.83645471123195e-27 2.78065591810867e-08)
(3.06432870523736e-08 3.40905868201346e-11 -1.1882213195684e-27 3.05460363084084e-08 1.87664183544417e-28 3.05945863913518e-08)
(3.50643831822952e-08 4.18259711427741e-11 -2.93059793713711e-32 3.49464739762158e-08 1.23912990022046e-33 3.50053689448237e-08)
(4.16573520126565e-08 5.42038863200305e-11 8.06825848360144e-28 4.150557205069e-08 -3.91585580239281e-29 4.15814080881328e-08)
(5.08976451759812e-08 7.34757370362479e-11 -3.43492729095809e-28 5.06949736770872e-08 -6.72753083455937e-27 5.07962609045432e-08)
(6.34217410883232e-08 1.04069003590364e-10 -8.59865667871581e-27 6.3144696842315e-08 -1.70200102555507e-26 6.32831856626962e-08)
(8.01671440702788e-08 1.52842733743568e-10 -3.75179185028603e-27 7.97829466941582e-08 2.38311414043445e-28 7.99750253963499e-08)
(1.01986668086235e-07 2.29125132253335e-10 -6.03810560683197e-29 1.01455158274992e-07 -1.3058055547157e-28 1.01720914483748e-07)
(1.29571683803676e-07 3.44815145922021e-10 -2.58786943827685e-27 1.28851126373514e-07 1.19079619128007e-27 1.29211449507539e-07)
(1.63484867508244e-07 5.15344485475981e-10 4.12245961175305e-26 1.62539452650571e-07 9.25803935153563e-26 1.63012326054979e-07)
(2.04684019187643e-07 7.63873192335586e-10 5.87392447206607e-25 2.03481680449663e-07 -7.15845734603919e-26 2.04083318544844e-07)
(2.544373982654e-07 1.11454426241546e-09 2.31400488493346e-25 2.52956553304352e-07 -4.22071005603275e-24 2.53697763372531e-07)
(3.12240620875255e-07 1.57889847447261e-09 -1.35677537589793e-24 3.105073420267e-07 -4.98837550043769e-24 3.11375291956954e-07)
(3.76719434013605e-07 2.15606784561403e-09 -1.26988476849957e-24 3.74824323300202e-07 1.718404863852e-25 3.75773866356699e-07)
(4.45853643334319e-07 2.83226190329733e-09 -9.11309805892686e-28 4.43956561329302e-07 4.66278513957359e-26 4.44908105619892e-07)
(5.18232492526454e-07 3.58421107460232e-09 2.31610779481882e-24 5.16559585091973e-07 -1.74831278411135e-25 5.17401478403097e-07)
(5.95079847487212e-07 4.38116833729885e-09 4.30761648998091e-24 5.93883900757692e-07 -1.23888922976561e-23 5.94484931809929e-07)
(6.87938311332364e-07 5.66357759515717e-09 -2.03774979929562e-25 6.87392796892583e-07 -1.25574432990425e-23 6.87675411348804e-07)
(8.48161982149923e-07 8.19439366443362e-09 -3.84707655602916e-24 8.47925832179955e-07 1.86820021738948e-25 8.48053999028236e-07)
(1.03936341234009e-06 1.1256177430008e-08 -4.80435480743565e-29 1.0391418418625e-06 8.02168268255466e-28 1.03926133114855e-06)
(1.21762563521328e-06 1.41732132300063e-08 4.35000310648927e-40 1.21743074322494e-06 -1.88053013516186e-27 1.21753883256335e-06)
(1.38529884154571e-06 1.69786398785198e-08 6.96046980674489e-40 1.38512411947677e-06 2.17844330753111e-27 1.38522293071523e-06)
(1.54468312587654e-06 1.9646356390808e-08 -7.85358376293745e-24 1.54452802788642e-06 3.09986027918351e-25 1.54461820676395e-06)
(1.69734948517489e-06 2.21784578383319e-08 -2.11358264732721e-23 1.69721314982024e-06 3.21214550903694e-23 1.69729492409556e-06)
(1.84423519112758e-06 2.45647980038703e-08 -4.17482192014033e-24 1.84411784609225e-06 3.31381910954488e-23 1.84419105984365e-06)
(1.98607834349747e-06 2.67984663789882e-08 1.04628093005803e-23 1.98598066177544e-06 -3.75012778402872e-25 1.98604484618683e-06)
(2.12358579296539e-06 2.88721666327725e-08 5.18236130442866e-29 2.12350889144874e-06 -1.87965423014834e-30 2.12356335464465e-06)
(2.25741864538279e-06 3.0780098831311e-08 -4.92502906856657e-29 2.25736371971323e-06 -2.94991569998194e-27 2.25740770569686e-06)
(2.38779270138601e-06 3.25125000265254e-08 1.44295660307182e-28 2.3877609451807e-06 2.21157891909629e-27 2.38779368584745e-06)
(2.51179973108976e-06 3.40188356786475e-08 5.47831774189798e-29 2.51179225196033e-06 9.49458475068289e-28 2.51181300339463e-06)
(2.62754256057689e-06 3.52657101639774e-08 1.78125592450522e-23 2.62756016750956e-06 -4.48715824958708e-25 2.62756833249262e-06)
(2.73458850364095e-06 3.6243365626575e-08 3.99132741014106e-23 2.73463164960677e-06 -6.6199184031416e-23 2.73462680880623e-06)
(2.83253364462034e-06 3.69461835019219e-08 1.96830352655515e-24 2.83260237940261e-06 -6.78644470129466e-23 2.83258432383369e-06)
(2.92104632830144e-06 3.73733582926695e-08 -2.04981263390146e-23 2.92114027483976e-06 4.39655982515316e-25 2.92110902090883e-06)
(2.99989236338104e-06 3.75290235564386e-08 3.26399422723411e-39 3.00001072698587e-06 -5.85534103961447e-41 2.99996651532892e-06)
(3.06894585695636e-06 3.7422059543011e-08 3.04555064479715e-39 3.06908745119863e-06 -1.19479093351656e-38 3.06903073722109e-06)
(3.12819749362674e-06 3.70657131226365e-08 2.43209432482083e-23 3.12836078984681e-06 -3.49038404400005e-25 3.12829222061235e-06)
(3.17774904287382e-06 3.64769231032247e-08 4.55011391177813e-23 3.17793223087909e-06 -9.15657282574335e-23 3.17785261557225e-06)
(3.21780239051496e-06 3.56755620632595e-08 -5.35898043919228e-24 3.21800344170697e-06 -9.42531773478475e-23 3.21791372105714e-06)
(3.24864928451347e-06 3.46836672702257e-08 -2.59916296824674e-23 3.24886602180165e-06 2.8083562464928e-25 3.24876723181218e-06)
(3.27065157267429e-06 3.35245991775601e-08 -4.16298719996249e-39 3.2708817311223e-06 -5.69725563088483e-28 3.27077497192573e-06)
(3.2842281390783e-06 3.22223752308383e-08 -2.61700163745756e-39 3.28446942066412e-06 1.16288022117785e-27 3.28435582824142e-06)
(3.28984271055648e-06 3.08010461868068e-08 4.18880083573544e-39 3.29009283805318e-06 -5.92013638172413e-28 3.28997355415194e-06)
(3.2879843789905e-06 2.9284109559114e-08 0 3.28824113369239e-06 -1.55116217093359e-28 3.28811728669748e-06)
(3.27916346810896e-06 2.769415320651e-08 3.62096825303658e-43 3.27942472744017e-06 1.55562845008665e-28 3.27929740903165e-06)
(3.26389506511467e-06 2.60524748001647e-08 -2.00596071343256e-29 3.26415882449353e-06 -3.59853090083132e-32 3.26402908045215e-06)
(3.24270602936338e-06 2.43789212097312e-08 1.5169473111355e-29 3.24297043477282e-06 -2.45443623783358e-28 3.24283924044387e-06)
(3.21610842563534e-06 2.26915946913487e-08 6.55394387304163e-29 3.21637177519917e-06 2.44142052882132e-28 3.21624004262464e-06)
(3.18463025060073e-06 2.100689480826e-08 -5.19740049706393e-29 3.18489104026042e-06 -1.77580695921549e-28 3.18475957916828e-06)
(3.14873633108324e-06 1.9339015571637e-08 -4.83783739316404e-29 3.14899322274729e-06 1.54799985332187e-27 3.14886277321813e-06)
(3.10886135206419e-06 1.7700165010813e-08 3.97126901265253e-29 3.10911322407865e-06 -1.360195921226e-27 3.10898440873903e-06)
(3.06523319985195e-06 1.60998176099477e-08 0 3.06547901547052e-06 0 3.0653524173974e-06)
(3.01804049862755e-06 1.45467519707374e-08 0 3.01827924422909e-06 0 3.01815543909136e-06)
(2.96760074697973e-06 1.30495501112752e-08 0 2.96783151426991e-06 0 2.96771102249805e-06)
(2.91428106531186e-06 1.16157181840741e-08 0 2.91450309133307e-06 0 2.91438636104478e-06)
(2.85855182402238e-06 1.02516683361755e-08 0 2.85876452953029e-06 0 2.85865191324363e-06)
(2.80075757108423e-06 8.96172994192639e-09 -3.20903077992916e-23 2.80096055962827e-06 -6.9360170155298e-25 2.80085231610211e-06)
(2.74114458845807e-06 7.7485373702962e-09 -6.77599588244113e-23 2.74133757523715e-06 1.54973693569577e-22 2.74123389766182e-06)
(2.67974645232051e-06 6.61374186396272e-09 -7.92284253987292e-24 2.67992915398067e-06 3.1772576975887e-22 2.67983024243139e-06)
(2.61653840586357e-06 5.55854057780244e-09 5.7543842414237e-23 2.61671056626384e-06 1.62765612620918e-22 2.61661659291236e-06)
(2.55174440612642e-06 4.58460417473161e-09 2.98439203366609e-23 2.55190578484866e-06 8.03063605670032e-25 2.55181692954531e-06)
(2.48499109122137e-06 3.69181948439311e-09 3.07316440078998e-28 2.48514149559647e-06 5.37730961506913e-27 2.48505788179573e-06)
(2.41674019256752e-06 2.8817751963811e-09 -2.87409402099657e-28 2.416879456671e-06 -6.86908798555973e-27 2.41680123283397e-06)
(2.34636510760603e-06 2.15324173560509e-09 -2.9112085660684e-23 2.3464930484592e-06 -9.85467710850432e-25 2.34642029734094e-06)
(2.27355571863077e-06 1.50819347762888e-09 -2.91484081469082e-23 2.27367197965161e-06 1.51855352515456e-22 2.27360497728146e-06)
(2.19789037789266e-06 9.45761817160965e-10 2.67501466115854e-23 2.19799451331327e-06 1.56854934883146e-22 2.19793341858528e-06)
(2.11802424615295e-06 4.71707878461203e-10 2.63785894060177e-23 2.1181153441532e-06 9.85500262738249e-25 2.11806083803901e-06)
(2.03305265442162e-06 8.44635916903696e-11 2.65669132333255e-28 2.03312964999179e-06 7.92544951178879e-27 2.03308203968847e-06)
(1.93999249629411e-06 -1.99501096038983e-10 -2.49629021235473e-28 1.94005317559013e-06 4.53899596796704e-27 1.94001409439966e-06)
(1.83664734817978e-06 -3.84451487409468e-10 2.44449289498981e-28 1.83668922030586e-06 -4.29658228036957e-27 1.83665927385399e-06)
(1.71585438397843e-06 -4.29531165950656e-10 -2.26643189431654e-28 1.71587309340383e-06 2.80275673196279e-27 1.71585586260543e-06)
(1.57647950461159e-06 -3.58966181276322e-10 -1.37887818626728e-26 1.57645985801715e-06 -3.25147241310712e-27 1.57646007629967e-06)
(1.48093744844209e-06 9.6963781654314e-12 5.44778656099036e-26 1.48090522711308e-06 -1.54581128764401e-25 1.48091969349578e-06)
(1.5961953385963e-06 4.88414297934483e-12 1.44358433437409e-25 1.59624103851542e-06 -3.07094301540575e-25 1.59621417401814e-06)
(1.73557445737454e-06 -4.5445714873423e-10 1.33148491997681e-25 1.73544453852142e-06 -6.61262576763873e-25 1.73551820161362e-06)
(1.89574004410082e-06 -1.1066660766715e-09 3.40111299678522e-25 1.89512932719292e-06 -2.96028213713705e-24 1.89544759678387e-06)
(2.05120007950812e-06 -2.0611551873845e-09 -3.99439052386205e-25 2.04957591879775e-06 -2.71945151210494e-26 2.05040941810964e-06)
(2.20878605829981e-06 -3.2110253429672e-09 2.10048556039042e-24 2.20552368642915e-06 -8.27948690097141e-24 2.20718138426489e-06)
(2.36727210864681e-06 -4.56690981672634e-09 1.04519671957014e-26 2.36157044858807e-06 4.33471596829994e-28 2.36445068339847e-06)
(2.53073081016204e-06 -6.07584164716693e-09 -1.56892156933714e-25 2.52167341744163e-06 1.44280941219411e-24 2.52623146377849e-06)
(2.71734422696224e-06 -7.83815967525278e-09 4.81799590817259e-25 2.70367593482364e-06 -1.40103766643474e-24 2.71053115595067e-06)
(2.89891302170186e-06 -9.82812433590255e-09 1.46406486525504e-24 2.87934591875966e-06 -3.47901436319483e-24 2.88913384910044e-06)
(3.04898202411958e-06 -1.18742261482563e-08 -3.38619617268016e-24 3.02268853795413e-06 8.06431031603491e-24 3.03581543298944e-06)
(3.16215477991978e-06 -1.38852177489725e-08 -5.05445143934989e-25 3.12876173312456e-06 -3.08960284180768e-26 3.14540724088691e-06)
(3.23025573975795e-06 -1.57661437662952e-08 -1.89836893598631e-25 3.18996635569989e-06 1.19847855692646e-24 3.21002719353512e-06)
(3.2470199501447e-06 -1.74353615329749e-08 -1.02524311548561e-24 3.20064696984906e-06 2.8762362739917e-24 3.22371696780184e-06)
(3.18721683032972e-06 -1.85961967961913e-08 1.05010664506952e-25 3.13672120758075e-06 -1.01707820788772e-24 3.16183224606378e-06)
(3.0777481790793e-06 -1.90983554873233e-08 -1.75519601180712e-25 3.02522056404162e-06 -7.98601039047758e-27 3.05134003525816e-06)
(2.97542258869882e-06 -1.92546725634572e-08 1.58447900241219e-24 2.92155731742349e-06 -2.7873420428969e-24 2.94833813364832e-06)
(2.89055059820833e-06 -1.93035655220339e-08 -1.07816828744622e-24 2.83530992017382e-06 1.81668375592717e-24 2.86276927200283e-06)
(2.82861252708682e-06 -1.93397057318877e-08 -2.4101604307033e-25 2.77165730671889e-06 6.62127311782459e-25 2.79996258033958e-06)
(2.80921094358215e-06 -1.96198703602687e-08 9.84128829155323e-26 2.74941439015549e-06 3.33130412523262e-27 2.77911876340098e-06)
(2.85851686102932e-06 -2.0434805881143e-08 9.46244174094067e-25 2.79373215145713e-06 -1.6957216329887e-24 2.82589745658848e-06)
(3.02464179661127e-06 -2.27229956447532e-08 -5.8370712733159e-26 2.95017849977541e-06 -5.96677683565106e-28 2.98710205758071e-06)
(3.19728414650255e-06 -2.64250212543109e-08 -6.45546886024529e-25 3.11136152045283e-06 1.81366001263732e-24 3.15393010202027e-06)
(3.38937009758837e-06 -3.19948015503163e-08 -3.73396571172519e-25 3.29120959201267e-06 8.45108723975039e-25 3.33980869765764e-06)
(3.61159936574268e-06 -4.02752575611261e-08 6.33333726499738e-26 3.500854012419e-06 -2.17721190016104e-25 3.55565738057241e-06)
(3.83485080558761e-06 -5.19213058396487e-08 -3.28607093362117e-25 3.71385438757132e-06 6.26036857363085e-25 3.77370792860968e-06)
(3.90831761395621e-06 -6.50032221399715e-08 3.58432191892867e-25 3.78858284492348e-06 4.73242980423441e-25 3.84779538275468e-06)
(3.48277964465502e-06 -6.8366393851723e-08 -5.68835567850088e-27 3.3925320788719e-06 9.65332738100777e-29 3.43718019214925e-06)
(2.87829235118757e-06 -5.73271165836601e-08 -1.55757234284983e-25 2.83094001823573e-06 -1.43866596487366e-25 2.85442938695399e-06)
(2.2808518181041e-06 -3.76354269508388e-08 1.63416696644959e-26 2.26361292361507e-06 -1.18440751884075e-25 2.27218589205278e-06)
(1.83188249871313e-06 -2.28964489125008e-08 1.68534825824604e-27 1.827205106215e-06 -2.24909377955264e-29 1.82952826752806e-06)
(1.53145729321824e-06 -1.34173464165362e-08 -2.76406065286443e-30 1.53091026862641e-06 8.36325068043438e-28 1.53119789483376e-06)
(1.56776643233079e-06 -1.15167255185133e-08 -6.5758667620935e-33 1.56776928169627e-06 0 1.56775156861617e-06)
(5.49101048469567e-05 -2.78125380565934e-06 1.67254359051901e-27 5.49598751207773e-05 4.29439429108303e-29 5.49382766410312e-05)
(5.85107649928379e-05 -3.16171870627053e-06 -1.32161107415666e-25 5.86012692115711e-05 3.7940228248369e-26 5.85523637927423e-05)
(4.67366890497906e-05 -2.48286463180446e-06 -1.72139901199825e-24 4.70682269208404e-05 -6.0579409399445e-25 4.69045968836766e-05)
(3.17511018096485e-05 -1.30057521157835e-06 -3.30578077073974e-24 3.2145930978426e-05 -1.43330819194524e-24 3.19492915411531e-05)
(1.71779920629658e-05 -3.30480485660483e-07 -2.77515838686765e-24 1.73368851469948e-05 -6.37225746515161e-24 1.72589174410138e-05)
(7.40590742330133e-06 1.12011149680938e-08 2.24846788722032e-24 7.35796928476632e-06 8.99068116403013e-24 7.38286350699686e-06)
(3.34955242432092e-06 2.98864096340104e-08 2.02907134149218e-24 3.28967156103418e-06 6.65694326992258e-24 3.31995943393035e-06)
(2.58556123006885e-06 2.14167283776999e-08 -1.09986376766461e-24 2.53540452296773e-06 -2.05486810158073e-24 2.56072486424601e-06)
(2.17613587578586e-06 1.53014764767668e-08 9.05321760307766e-25 2.13428755558721e-06 2.60108227866715e-24 2.15536080314586e-06)
(1.57530104500997e-06 9.34715659190952e-09 2.73933482310004e-25 1.54688400623102e-06 -4.47424638725922e-26 1.5611835840297e-06)
(1.15364987707666e-06 6.09995751830605e-09 -1.06232561565197e-24 1.13388822375903e-06 -1.60656331630935e-24 1.14381987579496e-06)
(9.35121543351076e-07 4.69219960024905e-09 -1.02811697074953e-26 9.1969818738021e-07 5.17900191266688e-28 9.2744430688791e-07)
(8.49430802023708e-07 4.3222267609779e-09 -8.79037771417728e-25 8.35634134376852e-07 -1.47308077500287e-24 8.42556649090859e-07)
(8.33118248052073e-07 4.40619761272238e-09 7.5496786443927e-26 8.19546436468443e-07 -2.1287022830093e-27 8.26353630288296e-07)
(8.56697650930907e-07 4.76458633010153e-09 -9.91429427719921e-26 8.42487909437109e-07 3.00741145056063e-27 8.49610201185208e-07)
(9.08387606079084e-07 5.32274000984579e-09 -1.17194734603829e-24 8.92903941819338e-07 -2.10750843947737e-24 9.0066151386024e-07)
(9.98631121754172e-07 6.22583236497183e-09 1.0324957271745e-24 9.80805812686899e-07 1.87817080532945e-24 9.89730936701101e-07)
(1.14184150016479e-06 7.66760488752607e-09 -5.03076191153688e-28 1.12005662988701e-06 -1.10565901976815e-27 1.13096020549234e-06)
(1.35605673796439e-06 9.94880800600513e-09 -2.32681906842766e-25 1.32787771137593e-06 1.12930045176848e-26 1.34197752063099e-06)
(1.65709571058984e-06 1.35086244797041e-08 -2.09141591508635e-24 1.61931124017817e-06 -2.57257824710064e-24 1.63821256428943e-06)
(2.06592578856105e-06 1.9149400612363e-08 -1.20964783033198e-24 2.01411387283218e-06 -1.97127235446966e-24 2.04002926465285e-06)
(2.613611074899e-06 2.81115931822409e-08 1.0786434430723e-24 2.54168176794629e-06 -5.78830546400971e-26 2.57765788355817e-06)
(3.32869513578676e-06 4.21155638517164e-08 5.61777499500241e-27 3.22922249545493e-06 1.49154471573619e-26 3.2789778951022e-06)
(4.23426740637649e-06 6.34274993136639e-08 5.85568468692361e-24 4.09939240774258e-06 1.25454433089792e-23 4.16685616739681e-06)
(5.34844233688014e-06 9.50400611614386e-08 1.09782055052499e-25 5.17102825395979e-06 1.56266267588335e-25 5.25975361422096e-06)
(6.70133804162299e-06 1.40963274619046e-07 -1.62317264262453e-22 6.47530758013838e-06 3.81780555224315e-23 6.5883479557038e-06)
(8.33365982524843e-06 2.05350740680548e-07 -8.93583082402979e-22 8.05549420826361e-06 -1.8376658375553e-21 8.19459432684405e-06)
(1.02267266656305e-05 2.90505663544979e-07 -5.07256136745953e-22 9.90156290387725e-06 -2.47402318794182e-21 1.00641564287924e-05)
(1.23316337288658e-05 3.96606717063622e-07 3.48391731276126e-22 1.19761126443918e-05 -3.81948317415039e-23 1.21538261990952e-05)
(1.45772962710037e-05 5.21301696139715e-07 2.62380073605214e-24 1.42207317238257e-05 2.35176438242933e-23 1.43988956829898e-05)
(1.69127694133804e-05 6.61413332623613e-07 -6.31078286237165e-22 1.65951298686617e-05 4.47868998517543e-24 1.6753995550379e-05)
(1.93809938114636e-05 8.24798328130825e-07 -1.56037086874301e-21 1.91380173900156e-05 -6.26400173551503e-21 1.92580163701707e-05)
(2.23383113787155e-05 1.05223399047505e-06 1.45078390756839e-22 2.21972127096117e-05 -7.42081863250072e-21 2.22673531386254e-05)
(2.74828508654771e-05 1.44205360407504e-06 1.00572641626948e-21 2.73862272896837e-05 -4.89077385990957e-23 2.74336244832458e-05)
(3.36445294456839e-05 1.90576568288581e-06 -7.80454600018643e-27 3.35566380845525e-05 1.34099097628616e-25 3.35988743521732e-05)
(3.93895192798435e-05 2.34340060213357e-06 -2.745760440606e-26 3.93160825544612e-05 -1.66786818008848e-25 3.93511420236901e-05)
(4.47931167097525e-05 2.75563546013942e-06 8.6239759471557e-26 4.4731348714829e-05 1.85582084853937e-25 4.47603303142602e-05)
(4.99283792204768e-05 3.14148911618753e-06 2.00967994511886e-21 4.98779992634752e-05 -7.91131723465765e-23 4.99011780452416e-05)
(5.48463799254154e-05 3.50157411890785e-06 4.50553212842846e-21 5.48069253519247e-05 2.0328282299179e-20 5.482452690121e-05)
(5.95772428605476e-05 3.83511835825056e-06 6.91803690886734e-23 5.9548732937275e-05 2.30631831858268e-20 5.9560795464862e-05)
(6.41448603116389e-05 4.14152154031329e-06 -2.63974949836792e-21 6.41274732965962e-05 9.49657283033312e-23 6.4133937258514e-05)
(6.85720932679372e-05 4.42024836891479e-06 -6.11288717636427e-26 6.85661680420982e-05 -3.01169907832447e-25 6.85668954950672e-05)
(7.28804155508762e-05 4.67093321178771e-06 -1.24168079927144e-26 7.28862817951848e-05 4.57058880214996e-25 7.28811395582637e-05)
(7.70736954916515e-05 4.89245581120923e-06 8.50598784170154e-26 7.70916346516058e-05 1.9126238561548e-26 7.70805219112349e-05)
(8.10235030259953e-05 5.07576400916812e-06 -5.85697171675209e-26 8.10536867497815e-05 -1.72676967600536e-25 8.10365605903416e-05)
(8.47063325429351e-05 5.21902141210479e-06 -4.52633590362205e-21 8.47487773483825e-05 1.1366853540061e-22 8.47256672277694e-05)
(8.81090461365921e-05 5.32156535469259e-06 -8.66192857325573e-21 8.81636026853309e-05 -4.37820715891799e-20 8.81346176697003e-05)
(9.12194614356277e-05 5.38330909887193e-06 1.00850218146974e-21 9.12858011211678e-05 -4.71658504929648e-20 9.12511365861153e-05)
(9.40277204364228e-05 5.40481118610452e-06 5.17315914805345e-21 9.41053347442377e-05 -1.11374170031887e-22 9.40652716859642e-05)
(9.65270463095466e-05 5.38727534152302e-06 2.64503875720001e-26 9.66152590627845e-05 -2.67643418640198e-25 9.65701574515278e-05)
(9.87140652908466e-05 5.33250763217414e-06 -5.59327040774515e-37 9.88120516460887e-05 2.73705152641687e-25 9.87623407251949e-05)
(0.000100589033460038 5.2428523544214e-06 -6.24095616479017e-21 0.000100695846753804 8.95661553623361e-23 0.000100642011417935)
(0.00010215564640543 5.12109484699153e-06 -1.02137119368939e-20 0.000102270247992202 -5.84908121196775e-20 0.000102212813912523)
(0.000103420689655021 4.97035564240595e-06 2.81779915705294e-21 0.00010354197882677 -6.11261873608562e-20 0.000103481497877237)
(0.000104393700493675 4.79398745016593e-06 6.66584178112298e-21 0.000104520544767612 -7.17444894781745e-23 0.000104457580088903)
(0.000105086356958315 4.59546659315906e-06 -4.88265446892703e-27 0.000105217617906518 3.38890149044139e-25 0.000105152731529643)
(0.000105512073509908 4.37830655922265e-06 1.16888757246292e-26 0.000105646629511187 -1.67293504500115e-25 0.000105580371612676)
(0.000105685611881466 4.14598041505029e-06 -2.70528046666748e-26 0.000105822378727107 -3.88905670686539e-27 0.000105755277628695)
(0.000105622492597832 3.90184812295001e-06 1.06778889526555e-26 0.000105760438081616 -4.84895616028161e-26 0.000105692993892944)
(0.000105338856488409 3.64911392470014e-06 3.80440377146147e-27 0.000105477013306337 4.86862851065209e-26 0.000105409691503439)
(0.000104850977200659 3.3907793292583e-06 -2.48678610423866e-27 0.000104988451242035 4.96931863573908e-26 0.000104921679868087)
(0.00010417544876631 3.12962686344548e-06 -5.30222674353205e-41 0.000104311428432768 -4.58789128799664e-27 0.000104245592594479)
(0.000103328418890519 2.86818195681089e-06 -1.09960806165842e-26 0.000103462177416637 -4.49661892482398e-26 0.000103397620724739)
(0.000102326452343781 2.60872298246746e-06 2.94888644369636e-26 0.000102457358801679 -3.06365779682654e-25 0.000102394375171849)
(0.000101184193102415 2.35322231353098e-06 -8.45183974572844e-28 0.000101311703340519 5.272275437655e-25 0.000101250546013302)
(9.99152039850619e-05 2.10337983054138e-06 -3.92053219472414e-26 0.000100038865462435 -2.21627918822819e-25 9.99797402843939e-05)
(9.85266599815384e-05 1.86056752524581e-06 2.15740058306253e-26 9.86460583941304e-05 2.32212105070717e-28 9.85891531535424e-05)
(9.70245722446441e-05 1.62604949010903e-06 0 9.71393122226287e-05 0 9.70848061783725e-05)
(9.54189467558594e-05 1.40102199389462e-06 0 9.55286859704956e-05 0 9.54767319682353e-05)
(9.37213294978432e-05 1.18651168418889e-06 0 9.38257958027507e-05 4.44301000590252e-25 9.37765131105421e-05)
(9.19465414596497e-05 9.83366270607265e-07 -4.58737912169269e-26 9.20455455770729e-05 -4.41189787890441e-25 9.19990132822473e-05)
(9.01053682041269e-05 7.92166586973286e-07 8.93672872960291e-21 9.01987982386081e-05 1.92809091743388e-22 9.01550586758524e-05)
(8.82055565442339e-05 6.13288333999431e-07 1.86103286156445e-20 8.82933413224114e-05 7.54742320427509e-20 8.82524162362961e-05)
(8.62482339655511e-05 4.47009300610267e-07 1.66741724931747e-21 8.63303027943713e-05 1.48427571327149e-19 8.62922169895431e-05)
(8.42325131983264e-05 2.93551671340303e-07 -1.64518699125819e-20 8.43088029640056e-05 7.27842991699236e-20 8.42735743347283e-05)
(8.21656796024352e-05 1.53144343574622e-07 -8.4535277110746e-21 8.22361407323581e-05 -2.27473991860806e-22 8.22037853259919e-05)
(8.0035520752169e-05 2.58869469890713e-08 -1.70295433476074e-25 8.01001143472542e-05 3.09883392361662e-26 8.00706335074554e-05)
(7.78570418782274e-05 -8.80614663563106e-08 8.08274463464627e-26 7.79157492871663e-05 -7.48045529131931e-25 7.78891475314188e-05)
(7.56099399043841e-05 -1.88681047020544e-07 8.31961183144941e-21 7.56626855813038e-05 2.84299829684336e-22 7.56389830047717e-05)
(7.32848245232984e-05 -2.75605869221156e-07 8.37133150825018e-21 7.33314872286685e-05 6.78475911773086e-20 7.33107552589208e-05)
(7.08678321342863e-05 -3.48747790633577e-07 -7.69837896988074e-21 7.09081907792061e-05 6.5331790722959e-20 7.08905027944108e-05)
(6.83171578635249e-05 -4.07043792932945e-07 -7.65821035493325e-21 6.83508774274277e-05 -2.88717180919957e-22 6.83364368058299e-05)
(6.56028198885802e-05 -4.5023710660113e-07 1.52220620709328e-25 6.56293156967091e-05 2.13981008556269e-25 6.56183272625316e-05)
(6.26326098503052e-05 -4.75559889749649e-07 -1.46639861113293e-25 6.26510277652254e-05 -7.26800850611135e-25 6.26440218936524e-05)
(5.93333193188199e-05 -4.82446526471226e-07 -6.84315371734539e-26 5.93422229757086e-05 6.8340595044516e-25 5.93396994402835e-05)
(5.54823931117201e-05 -4.6418264863765e-07 6.49337597272621e-26 5.54799618122874e-05 -5.17359530130692e-25 5.54831451926182e-05)
(5.10093528030505e-05 -4.20529034687157e-07 5.51620736226157e-40 5.09890452426406e-05 -1.6144708056155e-25 5.10002025997293e-05)
(4.79660804348337e-05 -3.54317921040471e-07 -1.54531382028167e-23 4.79227695118438e-05 2.8301400974808e-23 4.79465012515491e-05)
(5.16712726786518e-05 -3.92915075587448e-07 -1.25189017828625e-23 5.15912471337364e-05 -3.0093090736803e-22 5.16307356459253e-05)
(5.61869499915582e-05 -4.94039705555521e-07 -5.65319910133096e-23 5.60128734783361e-05 6.68642299122684e-23 5.6100066300595e-05)
(6.13733586118382e-05 -6.30688208210505e-07 3.22266532608496e-23 6.10402007282944e-05 5.50307429816205e-23 6.12051238474456e-05)
(6.64615141463915e-05 -7.99372748834273e-07 2.32730865494151e-24 6.58844192125676e-05 -4.5446634918544e-27 6.61709579363872e-05)
(7.1655376612443e-05 -9.91372171075169e-07 -5.3870813647283e-22 7.07343318790364e-05 2.18181977710779e-21 7.11921271568106e-05)
(7.69252574405945e-05 -1.20356356693449e-06 1.57579569591603e-22 7.55429963796452e-05 9.96361197773525e-24 7.62313420939109e-05)
(8.24083613737493e-05 -1.43110014345406e-06 -3.18193458912603e-22 8.04330945846562e-05 6.73714867501298e-22 8.14187574483026e-05)
(8.86591950116157e-05 -1.68791766863109e-06 -1.08044384043324e-22 8.59180424966374e-05 1.03597100658565e-22 8.72881809002633e-05)
(9.47944572743949e-05 -1.96374361493498e-06 -1.19005500992844e-22 9.11265564984452e-05 6.50308019550536e-22 9.29634359115312e-05)
(9.99707902123274e-05 -2.23749676096927e-06 2.33866975652337e-22 9.52818522123448e-05 -6.08428364922037e-22 9.76340592331618e-05)
(0.000103986079125922 -2.50013726638082e-06 -6.57553064808915e-24 9.8244150987447e-05 1.00451522986153e-25 0.000101128337427867)
(0.000106557176575331 -2.74117543492312e-06 1.25149033323427e-23 9.9808118730481e-05 -9.08224211327974e-23 0.000103201876193764)
(0.000107449092430289 -2.95108976502924e-06 1.50605438233832e-22 9.98191242178906e-05 -5.31137550046464e-22 0.000103658535958184)
(0.000105852283397161 -3.09336153249399e-06 2.87458278178019e-22 9.76154940026841e-05 -4.88057690066759e-22 0.0001017622440674)
(0.00010258748998735 -3.15515168400965e-06 -2.58394308886751e-22 9.4023097754386e-05 5.14778171276254e-22 9.83351096325092e-05)
(9.94598917168227e-05 -3.17210630398193e-06 -1.68826934994731e-22 9.06704816498671e-05 4.71358623627267e-22 9.50953289003334e-05)
(9.68606417265098e-05 -3.16893431069763e-06 2.42348525005841e-22 8.785818071104e-05 -3.32592814657231e-22 9.23909632157463e-05)
(9.5003253588619e-05 -3.16246177743913e-06 -1.97987796305906e-22 8.57452605773855e-05 2.92527775721349e-22 9.04080619268479e-05)
(9.45460839226055e-05 -3.18861733377312e-06 -4.8471613776161e-23 8.48796960214577e-05 -1.34917968339471e-24 8.97500503631247e-05)
(9.63740128597148e-05 -3.29129400275661e-06 -2.42990237561082e-22 8.60025095012395e-05 5.94107061024842e-22 9.12323117926612e-05)
(0.000102029628835504 -3.58616563849966e-06 5.14848217018589e-23 9.03420099753842e-05 8.38193777377505e-25 9.62407647495003e-05)
(0.000108049976714645 -4.07201692742479e-06 5.46826114202464e-24 9.48308241960713e-05 -3.17995978230129e-22 0.000101512582153753)