/*--------------------------------*- C++ -*----------------------------------*\
  =========                 |
  \\      /  F ield         | OpenFOAM: The Open Source CFD Toolbox
   \\    /   O peration     | Website:  https://openfoam.org
    \\  /    A nd           | Version:  7
     \\/     M anipulation  |
\*---------------------------------------------------------------------------*/
FoamFile
{
    version     2.0;
    format      ascii;
    class       volVectorField;
    location    "20000";
    object      U;
}
// * * * * * * * * * * * * * * * * * * * * * * * * * * * * * * * * * * * * * //

dimensions      [0 1 -1 0 0 0 0];

internalField   nonuniform List<vector> 
15600
(
(0.0362073806609928 -2.89647417651003e-05 1.97792714156294e-24)
(0.0431328834173881 -0.000225307409024779 2.02641899187881e-21)
(0.0423689714977758 -0.00182285651013083 -2.03390971635309e-20)
(0.0255496285027816 -0.00282226261290234 1.10611363765821e-19)
(0.00435153183413398 -0.00117604000355276 4.28222689616292e-23)
(-0.0117233359212605 0.00306040011327624 -2.03317675939628e-21)
(-0.0149169266943639 0.00550735414383487 1.78426569529024e-18)
(-0.0125469880905074 0.00557988411655639 -1.14980810061062e-22)
(-0.0108308742920828 0.00536041342551266 -2.14322037148195e-18)
(-0.00907094962564148 0.00480714657654896 8.60412713408706e-24)
(-0.00787554386507826 0.00432809380812399 -4.93497470760172e-18)
(-0.00706856478155514 0.00392040405660835 -3.17326116385247e-22)
(-0.00662507502822237 0.00361942885533602 -5.60262475935808e-18)
(-0.00637914043751204 0.00342110364172082 -7.18540383287085e-22)
(-0.00626457447812743 0.0033033928272441 -1.53633404791301e-21)
(-0.00619053306634691 0.00322321667958701 -6.55995954016789e-18)
(-0.00623031543877679 0.00321368262163134 -1.788833586571e-22)
(-0.00640414498255303 0.00328461947402007 0)
(-0.00673953491611522 0.0034445006844201 0)
(-0.00718489193615792 0.00364131399567591 -3.85338446993605e-18)
(-0.00776225175767863 0.00385208486853375 -8.00792586436707e-18)
(-0.00848755476680038 0.00406546749020251 -3.32142180264267e-23)
(-0.00932974885317821 0.00424445733643228 4.2020455026731e-21)
(-0.0102320091206644 0.00433950082127813 -6.74486394954282e-23)
(-0.0111626814219131 0.00431524121037696 0)
(-0.0122042791946106 0.00419820933576965 -4.83149133838981e-18)
(-0.0133591207812442 0.00400504245003303 -4.05410832508405e-16)
(-0.0145186548972929 0.00369842155552963 -4.23855455959213e-16)
(-0.0156140803679448 0.00326203683481387 -2.64176112324245e-18)
(-0.0166297199724541 0.00270169834074185 2.70114687403085e-18)
(-0.0175530902124477 0.00202336225048703 -2.75680395824239e-18)
(-0.0180881108012845 0.00121503018967487 -5.30472778170437e-16)
(-0.0200881878976107 0.000426526917136842 -5.34913677876627e-16)
(-0.0241753343479007 9.95299833380373e-05 -5.44985367968776e-21)
(-0.0275945764223874 8.87258572273874e-05 0)
(-0.0299651602416567 8.40924383452959e-05 0)
(-0.0317969504518689 8.0587295767729e-05 -4.21193134011647e-32)
(-0.0331953542890992 7.79757839459477e-05 0)
(-0.0342743495025552 7.54362848805674e-05 5.99406251333913e-16)
(-0.035090183985124 7.28561640531278e-05 6.21065129439448e-16)
(-0.0356848888073845 7.00610557872963e-05 6.38238598204009e-21)
(-0.0360843649226874 6.69845643558622e-05 0)
(-0.0363077190197389 6.36045051699078e-05 3.50540491996206e-21)
(-0.0363700183195305 5.99162297989556e-05 1.12668711239366e-22)
(-0.0362834167714826 5.59444869483687e-05 -3.61788913577773e-21)
(-0.0360585573820367 5.17413950822884e-05 0)
(-0.0357052711708563 4.73447822504039e-05 -7.99187727799696e-16)
(-0.035232892495801 4.27983407199479e-05 -8.27257926650816e-16)
(-0.0346506619611497 3.81480133173984e-05 0)
(-0.0339678267151082 3.34394594947825e-05 0)
(-0.033193691662489 2.87174824877258e-05 -1.28264807067507e-31)
(-0.0323375924043708 2.40235460153106e-05 0)
(-0.0314088037655353 1.93948323415283e-05 -9.16532009670584e-16)
(-0.0304164653774433 1.48646530263342e-05 -9.43168857229175e-16)
(-0.0293694880295728 1.04607290384249e-05 0)
(-0.0282764645328883 6.20627213026435e-06 0)
(-0.0271456333659443 2.12050240350863e-06 1.50047563353811e-31)
(-0.0259848140548807 -1.78270358091548e-06 0)
(-0.0248013796960579 -5.49217458928156e-06 0)
(-0.0236022345215601 -9.00184046598485e-06 0)
(-0.0223938202327684 -1.23063698752351e-05 0)
(-0.0211820692379823 -1.54074337388715e-05 7.24507592949085e-22)
(-0.0199724596226774 -1.83027967248198e-05 -7.25545858819429e-22)
(-0.0187698985292637 -2.10028796944939e-05 -1.50372228243436e-21)
(-0.0175788002057726 -2.35074218889043e-05 1.50586243812722e-21)
(-0.0164029837181471 -2.58347882628382e-05 0)
(-0.0152457119181918 -2.79894946186773e-05 0)
(-0.0141105103130203 -2.9969699105775e-05 0)
(-0.0130009210633296 -3.17824702328125e-05 0)
(-0.0119202181972599 -3.34364723026113e-05 0)
(-0.0108712712921548 -3.49459558246714e-05 0)
(-0.00985640409444733 -3.63271028736118e-05 0)
(-0.00887733758954077 -3.75970757212614e-05 1.35069785571175e-15)
(-0.00793599096870521 -3.87555013135634e-05 2.73032343916987e-15)
(-0.00703431769548063 -3.98170330971174e-05 1.37873530059649e-15)
(-0.00617466689308589 -4.07750064727256e-05 -2.0655098164713e-31)
(-0.00535909211153518 -4.16583006190094e-05 0)
(-0.00459041873338078 -4.24477229044708e-05 -1.45788686292369e-20)
(-0.00387034809568163 -4.32068606228758e-05 1.45921747362268e-20)
(-0.00320399161939366 -4.38577634079652e-05 1.46264035748241e-15)
(-0.00259328592060058 -4.45203825937453e-05 1.46819337682386e-15)
(-0.00204971669509187 -4.49666580401264e-05 1.51596549854114e-20)
(-0.00157495036770197 -4.5536242042034e-05 -1.51692715667601e-20)
(-0.00119775655352111 -4.55704710428776e-05 0)
(-0.000918721523076594 -4.60104501914127e-05 0)
(-0.000815020929854912 -4.50542454782022e-05 -1.56904254882865e-20)
(-0.000867926358640057 -4.44626192404694e-05 1.56856122747896e-20)
(-0.00154161113401055 -5.26586659917496e-05 1.0155659376632e-18)
(-0.00158788351477452 -0.000113565383251558 -4.10780343892721e-18)
(-0.000881725875641256 -7.27584748737408e-05 -8.19096605727642e-18)
(3.3550091759702e-07 5.29807744616389e-05 -8.19322730833599e-18)
(0.00128592103485931 0.000343882187525701 0)
(0.00280781098600433 0.000804248988805614 1.60656632392397e-17)
(0.00464888556944185 0.00148479081857942 0)
(0.00677993714316364 0.00241135695210878 1.5477413308124e-17)
(0.00935321218560376 0.00365885442384523 -1.50796176844368e-17)
(0.0124503332353363 0.00525707296940966 1.4637927111924e-17)
(0.0159271898615344 0.00712774022962024 -1.41681430807512e-17)
(0.0196913128193881 0.00919711769871379 1.33107052359093e-20)
(0.0236464109711641 0.0113773972762413 1.31241330246248e-17)
(0.0276965158628466 0.0135671908869523 -1.26009524805007e-17)
(0.0315505448849131 0.0155799968100603 -1.20974279822939e-17)
(0.0348880982342809 0.0173226179521282 0)
(0.0379473139164619 0.019006130595758 -5.28734936721484e-21)
(0.0410988510382523 0.0208265110178095 -1.03387120916868e-17)
(0.0444400290587208 0.0228559419693872 9.68158192075785e-18)
(0.0483038336851072 0.0252706670462342 -2.13993394232126e-21)
(0.0530424511146712 0.0282800858918557 2.05175643926872e-21)
(0.0599864063561781 0.0323912224485281 0)
(0.0690500694070902 0.0369522294652339 6.33258649962401e-18)
(0.0793652723876317 0.0410437654238903 -5.24420666640696e-18)
(0.0910709447716001 0.0441696539976211 -4.02445837877715e-18)
(0.104012271763145 0.0454666746802639 -1.18364547112452e-22)
(0.11675566478771 0.0432943590110402 -1.18509929146338e-20)
(0.122865392766662 0.0349997237009825 0)
(0.109979798387748 0.0206955980363854 7.51980013350312e-19)
(0.0821316629838232 0.00877131240537802 4.31215377444755e-19)
(0.058429117221509 0.00266577285761668 0)
(0.0384428128915859 0.000226964569056445 0)
(0.0321914163688786 -5.77525833411512e-05 0)
(0.117347994447336 -0.00033200388331591 -2.89659331338686e-24)
(0.13286771796739 -0.000861051228857972 -2.94160159818253e-21)
(0.131046080079723 -0.00497793001868574 -2.4806339570673e-22)
(0.0898444660537773 -0.00805326737985433 -1.62227198952722e-19)
(0.0296457145897634 -0.0041803099195298 -7.12019818605115e-19)
(-0.0224287059862687 0.00763968051106185 -6.62294120328538e-21)
(-0.0381499011468017 0.0151160628378117 2.7098900299829e-18)
(-0.034043058767044 0.0156959987753855 -1.74811398219341e-22)
(-0.0298367696858503 0.0152258623610836 6.52962001445752e-18)
(-0.0253737727394246 0.0137893550741565 -3.51480414530102e-18)
(-0.0222820680838447 0.0125188962525313 3.7692047487841e-18)
(-0.0201968903981766 0.0114220337848342 -9.9122534935413e-22)
(-0.0190686126209521 0.0106005806569231 4.28355866907927e-18)
(-0.0184698456307365 0.0100593504280882 -1.0970313321341e-21)
(-0.0182283316817485 0.00974199090317232 0)
(-0.0181268281945915 0.00954342508737933 4.99676354109281e-18)
(-0.0183511999496431 0.00955583559739298 1.98021161501736e-21)
(-0.0189577302790357 0.00980687648348035 0)
(-0.0200070821412471 0.0103125579848397 0)
(-0.0213831403544775 0.0109292667248125 5.81956619655839e-18)
(-0.0231397131098043 0.0115867368040332 1.20434759087456e-17)
(-0.0253077156334959 0.0122423059993878 -6.10812363241025e-21)
(-0.0278013474785153 0.0127840481095569 1.25808427324968e-20)
(-0.03048357023429 0.0130726278947341 -6.77212374930672e-21)
(-0.033299071357402 0.0130170077613615 -6.87213231033295e-18)
(-0.0364196258338169 0.0126780634511345 7.07282766524717e-18)
(-0.039814166522332 0.0120883057056021 5.95255488170768e-16)
(-0.0432119655885161 0.0111481241500982 6.06288360754219e-16)
(-0.0464491993781158 0.00982034017360338 0)
(-0.0494761221398328 0.008122462745565 -3.83972699335461e-18)
(-0.0522481416351972 0.00607481092599455 3.89055493392807e-18)
(-0.0547986252805261 0.00376466737961315 7.52370321829015e-16)
(-0.0608336175426332 0.00159142838611634 7.36829040792986e-16)
(-0.0707988957409272 0.000645120527035053 0)
(-0.0788644198711378 0.000478286556654601 -7.6364070909132e-21)
(-0.084435705519569 0.000353161605015229 1.53235972544188e-20)
(-0.0886448830188867 0.000270269252154181 -1.56023437992449e-20)
(-0.0917780794117711 0.000208743009668606 -2.23462939517343e-22)
(-0.0941067407743239 0.000160761916559885 -8.07082286009018e-16)
(-0.0957705507155022 0.000121373768392337 -8.23942780085022e-16)
(-0.0968716747266041 8.76524950193467e-05 -8.50803592722858e-21)
(-0.0974752263648175 5.77514725970017e-05 0)
(-0.0976301071234142 3.06888838491437e-05 9.3311878654817e-21)
(-0.0973758779848145 5.87285675411507e-06 -9.32357837315968e-21)
(-0.0967448045488447 -1.7044895555797e-05 7.1086083393147e-32)
(-0.0957658717028985 -3.82538878179375e-05 5.11979101318217e-21)
(-0.0944656926090333 -5.78903711350311e-05 1.06709431862649e-15)
(-0.0928695490996536 -7.60141865866054e-05 1.09692752049498e-15)
(-0.091002248136025 -9.26462759764722e-05 5.46048785644431e-21)
(-0.0888883480112038 -0.000107793849604028 0)
(-0.0865522591402553 -0.000121459089914064 1.71607363726792e-31)
(-0.0840181737207063 -0.0001336530335588 0)
(-0.0813098766922261 -0.000144399065964925 1.23513553015748e-15)
(-0.0784505853586886 -0.0001537309429473 1.2694506361544e-15)
(-0.0754627586630494 -0.000161697596986668 -3.28092719826226e-21)
(-0.0723679295185176 -0.000168356154929714 1.72813749784673e-21)
(-0.0691866328485927 -0.000173769418044851 -3.51275640766651e-21)
(-0.0659382892259656 -0.000178009503504549 1.7852644544146e-21)
(-0.0626411595541682 -0.000181147585276087 4.68029424764024e-22)
(-0.0593123194066929 -0.000183261076279877 -4.70639446476158e-22)
(-0.0559676682612846 -0.000184420993993288 0)
(-0.0526218637607244 -0.000184711647209481 0)
(-0.0492884038618299 -0.000184198658490615 0)
(-0.0459794219826762 -0.000182983853418518 2.1109505580469e-21)
(-0.0427058286730077 -0.000181127124186583 -6.43942596153302e-21)
(-0.0394771437757994 -0.000178741994248311 4.34170083589894e-21)
(-0.0363018122085213 -0.000175844875333278 0)
(-0.0331888665949701 -0.000172404681745038 0)
(-0.0301472616899748 -0.000168445308884957 0)
(-0.027185242075176 -0.000164012882757963 0)
(-0.0243100208689437 -0.000159182449285233 0)
(-0.0215275382896411 -0.000154038554679959 9.89255983026769e-21)
(-0.0188424610370931 -0.00014862858564572 -1.96666000843385e-15)
(-0.0162600495321214 -0.000142904095592173 -4.00735156189851e-15)
(-0.0137857140809396 -0.000136864939558681 -2.04084890698469e-15)
(-0.0114257838082773 -0.000130446529332114 3.05686861974663e-31)
(-0.00918602444247559 -0.000123708131634338 -2.14305933412074e-20)
(-0.00707401010247667 -0.000116540412597089 4.32734106374849e-20)
(-0.00509502956739794 -0.000108999444338778 -4.388515931153e-20)
(-0.00326268454215198 -0.000100707660992229 -2.18352041926108e-15)
(-0.0015835833419715 -9.17208961777425e-05 -2.22580444624392e-15)
(-8.74189866804434e-05 -8.10271957167786e-05 2.2891387233915e-20)
(0.00121803156826053 -6.89483190518305e-05 -2.28978408350351e-20)
(0.00225989527035042 -5.26771158896279e-05 -2.32649720031837e-20)
(0.00302787226159457 -3.31762309807168e-05 2.32682924840524e-20)
(0.00332834126905246 -3.1047020694155e-06 0)
(0.00316262218507606 4.68204611111009e-05 0)
(0.00154309889535217 0.00010334205864205 0)
(0.00160927430606982 3.40719049173259e-05 6.21389459861079e-18)
(0.00354975722442064 0.000288059988566002 1.23414029681293e-17)
(0.00605950643696777 0.000801272130081026 2.44171636396508e-17)
(0.00953891801965137 0.00176477411147198 2.34723397220483e-20)
(0.0136431192651374 0.00319902709829958 2.36856669624581e-17)
(0.0185256290407098 0.00522620850486249 0)
(0.0241336035093212 0.00791553413370027 -2.25050713538704e-17)
(0.0308009892357898 0.0114458874330203 2.17743136749102e-17)
(0.038695848156404 0.0158843520678728 0)
(0.0475211405065667 0.0210369004489944 -2.01923955176876e-17)
(0.0570696503799271 0.0267109945818254 0)
(0.0671281861744141 0.0326820884280711 -1.8581530584659e-17)
(0.0774883993556915 0.0386941414021318 0)
(0.0875298653431161 0.0442953438301875 1.69979077498706e-17)
(0.0965350821372422 0.0492574348820415 0)
(0.104875654800422 0.0540656156509813 1.53893141627182e-17)
(0.113323807747934 0.0592098160683823 1.89894773793389e-22)
(0.122196057551901 0.0649125485000468 -1.36276013656178e-17)
(0.132243250726688 0.0716149088702325 0)
(0.14430162189587 0.0798429627834615 1.15064698535671e-17)
(0.161269277082612 0.0907874511402207 -1.40200545697734e-21)
(0.18343481489375 0.102880804125467 -1.76592989615122e-17)
(0.209360989125017 0.113815905119942 4.79909569169916e-22)
(0.239109240926462 0.122121171332135 5.50480544881209e-18)
(0.272419213482276 0.125506752856844 -3.60975604595622e-18)
(0.306454192035945 0.11986369142396 -1.60594620718808e-18)
(0.327918093909734 0.0987126123619394 -6.92571411652586e-23)
(0.308636631993351 0.0615634834631889 -4.49223550923423e-21)
(0.249317044439008 0.0284487180238314 5.90147369725934e-19)
(0.188619993432805 0.0098295431420413 4.99619563000476e-23)
(0.134102441754551 0.00162727909979438 -1.08363084438947e-20)
(0.112393338311298 -5.22537427689193e-05 0)
(0.209625259589476 -0.000702554567985423 0)
(0.228077148603195 -0.00165484177967023 0)
(0.224959875814262 -0.0078084324870561 2.8570021568017e-20)
(0.167508391570327 -0.0134525029218359 3.10200595229405e-19)
(0.0724525080766229 -0.0091107057128874 1.37854895154899e-18)
(-0.0195870640189631 0.00902972924610376 -4.410007694263e-18)
(-0.0549119576483181 0.0222328219035359 -5.52529923240439e-18)
(-0.0523455091466333 0.0240190448298967 3.05212034473707e-18)
(-0.0466665453561672 0.0236160064063397 -6.66837725443364e-18)
(-0.0402521141080414 0.021686243520055 3.12996641755836e-21)
(-0.0357039145266251 0.0199142490699977 0)
(-0.0326241227357524 0.0183491228772488 0)
(-0.0309775548869238 0.0171545845255681 0)
(-0.0301417922979198 0.0163737288895574 0)
(-0.0298624300217787 0.0159298205316472 0)
(-0.0298388013116978 0.015693866939742 2.50836073105975e-21)
(-0.0303426952467726 0.0158048295118717 -5.32777288552048e-18)
(-0.0314611185258291 0.0163049504491635 2.68181325625041e-21)
(-0.0332708615000864 0.0172036680194203 0)
(-0.0356196612614352 0.0182832016623074 -5.76810069190595e-21)
(-0.0385822617070383 0.0194227647697663 -6.05372870821954e-18)
(-0.0421899716136093 0.0205365763157623 0)
(-0.0463084902805026 0.0214395359965122 -6.2846653082605e-21)
(-0.0507485377378364 0.0219198449393858 -6.5796056511272e-18)
(-0.055454420029226 0.0218473637769403 7.32193001010992e-21)
(-0.0606230444695976 0.0212893257180587 -1.37550784180434e-17)
(-0.0661602167903233 0.0202780810095885 6.9921587085196e-18)
(-0.0716819067087911 0.0186750933640682 7.08804361770984e-18)
(-0.0769655135127977 0.0164375103384007 7.03360932458213e-21)
(-0.0819412246614203 0.0135998395873897 -7.02354250916979e-21)
(-0.0866505364343034 0.0102355951531227 -7.12494224868866e-21)
(-0.0917501192867832 0.00655809723976777 -1.80218102014497e-18)
(-0.101202360970904 0.003128812880199 0)
(-0.114602680133561 0.00158939839788546 6.78579759984464e-21)
(-0.125075302440682 0.00117399627943216 -6.65512845350044e-21)
(-0.132201269067066 0.000853004373733963 6.83647642091283e-21)
(-0.137412715947417 0.000639383920412532 -6.74639460153143e-21)
(-0.141130262670561 0.000478875803784089 -7.04076367872946e-21)
(-0.143717861959015 0.000352589708869325 1.41552576407938e-20)
(-0.145369575130443 0.000247770478040096 -7.12325883883568e-21)
(-0.146225875991876 0.000157239298926536 0)
(-0.1463789799468 7.64201767550409e-05 7.72028319473206e-21)
(-0.145898866694378 3.10424023731697e-06 -7.67637229655437e-21)
(-0.14484475180894 -6.39693709384459e-05 0)
(-0.143268026923567 -0.00012573026465184 0)
(-0.141212590379244 -0.000182735039206149 0)
(-0.138718636522049 -0.000235315540900934 0)
(-0.135824142462929 -0.000283620537830882 0)
(-0.132565898795218 -0.000327711262168102 0)
(-0.128979804154517 -0.000367620725578012 4.81158608556455e-21)
(-0.125101002844923 -0.000403376391232932 -4.81849420516457e-21)
(-0.12096381792142 -0.000435030085498638 0)
(-0.116601565650766 -0.000462664881202588 0)
(-0.112046402488344 -0.000486391422007964 2.70150917267139e-21)
(-0.107329141902515 -0.000506355226797706 6.62467491129009e-23)
(-0.102479111791905 -0.000522721415963817 -5.65498871532428e-21)
(-0.0975241073395282 -0.000535669472183514 2.87707536373298e-21)
(-0.092490297319217 -0.000545398337503278 0)
(-0.0874022126139589 -0.000552106050202011 7.77443659876088e-22)
(-0.0822827475957948 -0.000556002269153128 -7.83218304514857e-22)
(-0.0771531946221588 -0.000557285873065976 -8.20591087572005e-22)
(-0.0720331885528372 -0.000556180247598001 8.27361758389187e-22)
(-0.066940810103201 -0.000552877668547687 0)
(-0.0618923465938206 -0.000547637203139228 3.54878091438946e-21)
(-0.0569025112299467 -0.00054063828125589 -7.22054311194825e-21)
(-0.0519842650012978 -0.00053214028985442 3.67342216858744e-21)
(-0.0471494861404784 -0.000522174261687827 0)
(-0.0424108387106639 -0.00051068234339152 0)
(-0.0377807517212681 -0.000497745653869976 0)
(-0.0332706631582196 -0.000483506958474168 -8.2013401983191e-21)
(-0.0288905886292718 -0.000468170643623377 8.28433326278739e-21)
(-0.0246489947878012 -0.000451949589532329 -8.57631220605815e-21)
(-0.0205528662419823 -0.000434936431311519 8.66352539074485e-21)
(-0.0166102298065247 -0.000417012085851021 0)
(-0.0128293943900868 -0.000398168860999976 0)
(-0.00921993184031077 -0.000378285542537486 0)
(-0.00579081303184112 -0.000357482005428576 0)
(-0.00255351427987336 -0.000335524816309625 0)
(0.000483111182831554 -0.000312234882256896 0)
(0.00329878072345101 -0.000286780043255304 0)
(0.00588160851159473 -0.000259009047491824 0)
(0.00818908875226514 -0.000226819766746694 2.03288587420483e-20)
(0.0102045236277879 -0.000189903484444169 -2.03776871471844e-20)
(0.0118265559558328 -0.000142384818655689 2.07959227737017e-20)
(0.0130267213193902 -8.35462907398784e-05 -2.09106813444144e-20)
(0.0135384657666162 2.84969365286087e-06 0)
(0.0132969182339686 0.000141638413685661 2.17575021559136e-20)
(0.0111982136933485 0.00037161597680753 1.81967506529891e-22)
(0.0115638839718545 0.000546052776582053 5.60697628427241e-18)
(0.0145033114957 0.00127662918365084 -1.11202758246369e-17)
(0.018409855187373 0.00242499279425626 -1.09225193169297e-17)
(0.0236129482952343 0.00423415809062912 0)
(0.0297348482450837 0.00673733527994131 -4.17066892074508e-17)
(0.0369307049515483 0.0100897848628867 -1.97431016729195e-20)
(0.0451591822218078 0.0143887081396963 0)
(0.0548373387293809 0.0198511697507624 -1.8944553540332e-17)
(0.0661805315598327 0.0265433509709735 0)
(0.0788605808884758 0.0342144999288398 3.84902552367026e-21)
(0.0926226870756003 0.042606680682205 0)
(0.107199026377833 0.0514231974141493 1.61857185965123e-17)
(0.122326246391522 0.0603256849304392 0)
(0.137248131840928 0.06875332000235 0)
(0.151039766035718 0.0764314568708682 -1.43879126877746e-17)
(0.163995251238068 0.0839351525483139 -1.37779682954321e-17)
(0.177019119940258 0.091883105991267 0)
(0.190602361586859 0.100618439362579 5.91184630698288e-21)
(0.205736951361985 0.110717392446603 -2.97886751416571e-21)
(0.223564121544066 0.122865859810436 -2.09933400367525e-17)
(0.247756765170065 0.138441124059837 0)
(0.279182556075327 0.155430740267085 1.60625385313276e-17)
(0.31644770948358 0.170814553790597 0)
(0.359408173020519 0.182329095240807 -2.99157793100603e-20)
(0.407675870737326 0.186676090041789 3.27527683598089e-18)
(0.457924958146275 0.178367722360907 0)
(0.494680071909984 0.149273957801755 1.39225655935522e-22)
(0.482450342013921 0.0979620876906523 -9.23566902277515e-19)
(0.413565450840761 0.049330528000415 -5.35639818476714e-19)
(0.329896815423472 0.019084443096828 0)
(0.248426546802061 0.00426283947812096 2.01724627083108e-20)
(0.209915884771853 0.000338930930471925 -2.57519422595976e-23)
(0.310239929780033 -0.000922280398682136 0)
(0.325926056046851 -0.00244900226187388 -2.55288540683102e-21)
(0.320912116565006 -0.0103050414874266 0)
(0.254917708684278 -0.0186531047284924 -1.4057853892526e-19)
(0.132207821102631 -0.0154157543091771 -6.34988213147503e-19)
(-0.0012038501054814 0.00735047896352009 2.12359860451823e-18)
(-0.0639075090434689 0.0268888454042397 2.78104060613092e-18)
(-0.0668419300850401 0.0305388043335642 -3.10871500718589e-18)
(-0.0609606094055699 0.0305323165251058 3.5744664186064e-21)
(-0.0534441364883749 0.0284903648247444 3.05376809559555e-21)
(-0.0479460429740428 0.0265055926700252 0)
(-0.0441960388646195 0.0246897515593426 1.03784574243091e-21)
(-0.0422232664850496 0.0232687502269814 -4.48485486539441e-18)
(-0.041282499136834 0.0223499656449137 0)
(-0.0410657599793764 0.0218535555837024 -4.96964452728822e-18)
(-0.0412294928835846 0.0216574122542264 -5.18898978380007e-18)
(-0.042105947896726 0.021937522971413 5.39509706130413e-18)
(-0.0438053723224899 0.022745581163768 -5.57292729248475e-18)
(-0.0464065930871858 0.0240748063916246 0)
(-0.0497428298347199 0.0256460437420087 -5.86981517482899e-18)
(-0.0538962284872905 0.0272831605902386 -5.88480659474791e-21)
(-0.0588823191871452 0.0288474028099257 6.13198329499988e-18)
(-0.0645236655481095 0.0300845539723051 -6.05362064745021e-21)
(-0.0705985322674786 0.0307261897776683 -6.3189291494924e-18)
(-0.0770487094956846 0.0306098530402539 6.37233862121496e-18)
(-0.0840333469199137 0.0297883957341784 6.40821961060537e-18)
(-0.0913742647044129 0.0282922800025221 -6.39665286544893e-18)
(-0.0986211237699389 0.0259723749314668 -6.38823425772136e-18)
(-0.105531198372382 0.0228025785752611 0)
(-0.112063126203558 0.0188560176262815 3.13619898280632e-18)
(-0.118419626194131 0.0142893436788624 1.2106977667679e-20)
(-0.125582299107553 0.00940858287535974 3.05773088103596e-18)
(-0.136750190198758 0.0048598217276913 0)
(-0.150634258189263 0.00274258500351695 5.53452852668185e-21)
(-0.160880903061027 0.00199740246527673 -5.32065655187042e-21)
(-0.167574466677191 0.00142339876466084 0)
(-0.172172316514184 0.00103889562841383 0)
(-0.175148667171476 0.000747732294425268 0)
(-0.176892024738125 0.000517198323660364 0)
(-0.177614610409831 0.000324628328924494 0)
(-0.177469896385864 0.000157652318632818 0)
(-0.176560868846103 8.66287596414968e-06 0)
(-0.174972595429115 -0.000125907780245841 0)
(-0.17277669459068 -0.000248508586155379 0)
(-0.170029963468926 -0.000360959949393404 0)
(-0.166782659769504 -0.000464298728670577 3.01599900850931e-21)
(-0.163080585531669 -0.000559161610582232 -2.98708536189876e-21)
(-0.158966622227919 -0.000645876338069793 3.14742178804026e-21)
(-0.154481766913854 -0.000724625843301938 9.25275217856682e-23)
(-0.149665478716019 -0.000795544969764087 -3.20348053713801e-21)
(-0.144555880499052 -0.000858758344731539 0)
(-0.139189756012804 -0.000914426351671832 -9.088436496531e-16)
(-0.133602446587426 -0.000962754828693912 -9.34638224256432e-16)
(-0.127827774737319 -0.00100398978747944 0)
(-0.121897929449924 -0.00103842629171098 -1.86565489849772e-21)
(-0.1158433964634 -0.00106638509007474 1.87028925617895e-21)
(-0.109692960533468 -0.0010882052788687 0)
(-0.103473657856609 -0.00110425041113759 0)
(-0.0972108091025444 -0.00111487937257804 0)
(-0.0909280422653902 -0.0011204637925236 0)
(-0.0846473560204143 -0.00112135891722602 0)
(-0.0783890661689249 -0.00111795181465193 0)
(-0.0721719370905862 -0.00111058938238406 0)
(-0.066012914505298 -0.00109970859914044 0)
(-0.0599274301460944 -0.00108563153248944 0)
(-0.0539292018763975 -0.00106876432202491 0)
(-0.0480311120351476 -0.00104913633621812 0)
(-0.0422469558095089 -0.00102665553592021 1.38425775806796e-15)
(-0.036590236817243 -0.00100147177537285 1.41656221507599e-15)
(-0.0310734448115194 -0.000973847244498871 0)
(-0.0257075907948486 -0.000944134917513864 0)
(-0.0205022692123318 -0.0009126889217371 -5.77760801563514e-21)
(-0.0154656940004111 -0.000879627160398502 5.8555831781827e-21)
(-0.0106074652352527 -0.00084473768440668 0)
(-0.00593758433720507 -0.000807993556894168 0)
(-0.00146763660949361 -0.000769180006259612 -1.27521507499996e-20)
(0.00279156395077756 -0.000728226028633887 1.28660634864491e-20)
(0.00682593493195278 -0.000684814508012532 0)
(0.010624036598171 -0.000638605461321411 -1.33896951481506e-20)
(0.0141623204212947 -0.000588263084602907 -1.22814536602281e-22)
(0.0174243564276474 -0.000533041174969154 1.37054568140085e-20)
(0.0203628885710693 -0.000469692584871025 0)
(0.0229528991033992 -0.00039637028795237 0)
(0.0250850618699774 -0.000304013622756325 1.4634767212583e-20)
(0.0267135204615787 -0.000187698326879481 -1.4861748819188e-20)
(0.0275542817690567 -2.05908569417127e-05 0)
(0.0274722195333436 0.00024010335903048 0)
(0.0254849020816673 0.000704864860765427 0)
(0.0261320670249106 0.00128117741403579 -4.10044997572112e-18)
(0.0296025929871897 0.00259753511540613 8.00392064508694e-18)
(0.0343409709448029 0.00444954552635814 0)
(0.0405259256714614 0.00708255472061411 2.96571380815662e-20)
(0.0478204518255939 0.0105370325800578 1.4690013928479e-17)
(0.0563534468972993 0.0149767065176287 1.80921377943214e-22)
(0.0661080159019223 0.0205122645935321 1.49591830667286e-22)
(0.0774952646786662 0.0273510019151505 1.32770084080237e-17)
(0.0907628100124842 0.0355425074794636 1.25209170300013e-20)
(0.105643729019285 0.0448338221649994 2.48176452077045e-17)
(0.121898293757165 0.0549566442877803 2.34728715373289e-20)
(0.139265376411974 0.0656016468454171 -1.16901220544277e-17)
(0.157482755422285 0.0764130843011753 -1.13418189582377e-17)
(0.175833355165962 0.086848840683478 -1.09048958700877e-20)
(0.193354999936798 0.0966632476909921 9.6452510565299e-21)
(0.210157778593782 0.106408045146315 1.05595176768958e-17)
(0.227067632641052 0.116696540502751 -1.35027242344052e-22)
(0.244629993248103 0.127921551925974 -4.83648990686136e-21)
(0.26389977343172 0.140686967466651 0)
(0.286114917987086 0.155690615569961 8.5025619645674e-18)
(0.315059811301586 0.174139775081763 1.92164251871389e-21)
(0.35222536456191 0.193861976291192 -6.57703098051209e-18)
(0.396573029730746 0.21157126774804 5.38810215789104e-18)
(0.447834972371082 0.224509808551122 -4.11480328249428e-18)
(0.505487073770584 0.228728132048489 0)
(0.566307381861921 0.218157166499352 -1.18206184712102e-18)
(0.616027130668186 0.184718085331641 -1.1537432326182e-22)
(0.618803552176392 0.126441914224946 -7.60054454534906e-19)
(0.558446630610191 0.0686061922888782 0)
(0.469397999423861 0.029371587441061 0)
(0.372988178666467 0.00800690946764793 -8.91837119616058e-21)
(0.319854522989572 0.00133974932066443 0)
(0.409148461896896 -0.000756623120864183 0)
(0.417810681274027 -0.00303826608291637 2.14906835984582e-21)
(0.410800210295284 -0.0123266958670767 2.35412607929244e-20)
(0.344041406734507 -0.0231656733228349 0)
(0.204849535636185 -0.0223252283718528 0)
(0.0338404431542215 0.00275302588884449 -1.9379167345745e-18)
(-0.0633948196374751 0.0288969168102827 -2.70694725731509e-18)
(-0.0767279247810058 0.0351254887766201 -1.96059761087613e-22)
(-0.0722901406294745 0.0358845712723041 6.74816702124752e-18)
(-0.0646475216298778 0.0341273880309118 7.33118300600551e-18)
(-0.0587861129134398 0.0322316062141274 7.27730877330521e-22)
(-0.0547321491233635 0.0303873869958484 -5.12577974394799e-22)
(-0.0526469545821539 0.0288885337255792 4.53377135699695e-18)
(-0.0517417464834459 0.0279330491719314 0)
(-0.0516901513318728 0.0274575105841568 9.99031597562497e-18)
(-0.0521394826297919 0.027370891287869 5.19333534661309e-18)
(-0.0534586988408926 0.0278765127252325 -1.07352027831934e-17)
(-0.0557699779128372 0.0290287849090647 5.50899497443393e-18)
(-0.0591414968613344 0.0307973500326837 -5.62276509162903e-18)
(-0.0634009989085301 0.0328484644742985 1.80674008451077e-22)
(-0.0686168926130407 0.0349431316180714 5.59239496936266e-21)
(-0.0747663341845311 0.0368810161088015 -5.77736638469332e-18)
(-0.0816251570810077 0.0383451398508522 5.76098773151279e-18)
(-0.0889405524844659 0.0390253182340982 5.72754123517897e-18)
(-0.0966273664604916 0.038733540915413 -5.64599911219146e-18)
(-0.104759976296521 0.0375074608409041 1.08573356703806e-20)
(-0.113079050684796 0.035394624557411 5.38465227913794e-18)
(-0.121131802634575 0.0322779584086759 0)
(-0.12871798862766 0.0281818966429862 2.53541666143652e-18)
(-0.135879508889019 0.023240679135461 -2.4635329077228e-18)
(-0.142932783069121 0.0176877781280586 0)
(-0.150792605090166 0.0118649347529603 -2.31214285643271e-18)