/*--------------------------------*- C++ -*----------------------------------*\
  =========                 |
  \\      /  F ield         | OpenFOAM: The Open Source CFD Toolbox
   \\    /   O peration     | Website:  https://openfoam.org
    \\  /    A nd           | Version:  7
     \\/     M anipulation  |
\*---------------------------------------------------------------------------*/
FoamFile
{
    version     2.0;
    format      ascii;
    class       volScalarField;
    location    "20000";
    object      walldist;
}
// * * * * * * * * * * * * * * * * * * * * * * * * * * * * * * * * * * * * * //

dimensions      [0 1 0 0 0 0 0];

internalField   nonuniform List<scalar> 
15600
(
0.00195551652101167
0.00195578544044664
0.0019575589381094
0.00196037927139909
0.00195903607323908
0.0019500375722471
0.00194934555537471
0.00196780854228598
0.00200618266464567
0.00206225776941979
0.00213417671174797
0.00222074183272278
0.00231873362619963
0.00241695338281801
0.00251211382017419
0.00260433946757702
0.00269377858471368
0.0027805890289861
0.00286513262994492
0.002951552797919
0.00304343939947999
0.00314025545458223
0.00324109721846552
0.00334470429291785
0.00344922744789832
0.00355021186298446
0.00364198191315323
0.00372268287975697
0.00379085649209195
0.00384508015085503
0.003884044127747
0.0039066359621814
0.00391217225714209
0.00391103304202603
0.00391103304202599
0.00391103304202596
0.00391103304202595
0.00391103304202601
0.00391103304202599
0.00391103304202598
0.003911033042026
0.00391103304202609
0.00391103304202612
0.00391103304202611
0.00391103304202599
0.00391103304202603
0.00391103304202591
0.00391103304202595
0.003911033042026
0.00391103304202591
0.00391103304202603
0.00391103304202606
0.003911033042026
0.00391103304202599
0.00391103304202606
0.00391103304202606
0.00391103304202593
0.00391103304202595
0.00391103304202594
0.00391103304202595
0.00391103304202592
0.00391103304202598
0.00391103304202595
0.00391103304202594
0.00391103304202605
0.00391103304202618
0.00391103304202602
0.00391103304202602
0.00391103304202611
0.00391103304202601
0.00391103304202588
0.003911033042026
0.00391103304202593
0.00391103304202601
0.00391103304202595
0.003911033042026
0.00391103304202605
0.00391103304202611
0.00391103304202609
0.00391103304202596
0.00391103304202606
0.00391103304202607
0.00391103304202588
0.00391103304202595
0.003911033042026
0.00391103304202596
0.00391103304202604
0.00391217845583133
0.0039065698775199
0.00388390027738395
0.00384486309075558
0.00379057180717093
0.00372233684507034
0.00364158117073275
0.00354976308105997
0.00344874513317999
0.00334421918786137
0.00324062025383296
0.00313979331710536
0.00304299757717926
0.00295113486920409
0.00286473654872171
0.00278018706804223
0.00269336505116431
0.00260391351009258
0.00251167465418711
0.0024165004776028
0.00231826670613467
0.00222030249159682
0.00213380179810079
0.00206195160367126
0.00200595293541658
0.00196766554072018
0.00194929543628125
0.00195006830885016
0.00195905460545315
0.00196036787506269
0.00195754306998892
0.00195577797356624
0.00195551652101167
0.00593829020815518
0.00593930584030288
0.0059512438856859
0.00598687833475232
0.00605291306331216
0.00615547212746904
0.00630472666942709
0.00649912441684126
0.00672948950673514
0.00698615461953064
0.00726101596680467
0.00754686863878593
0.00783621954750945
0.00812079507998438
0.00839927351390452
0.00867256892875796
0.0089415887367753
0.00920725274895293
0.00947051046885688
0.00973264179788586
0.00999301147379019
0.0102487960515554
0.0104969012401642
0.0107339467824358
0.0109561236222216
0.0111592061401972
0.0113399154383699
0.0114968274265982
0.011628745909384
0.0117345547560712
0.0118132599548091
0.0118640308723774
0.0118864341729317
0.0118899739047907
0.0118889812513962
0.0118880266988117
0.0118871102562165
0.0118862319324259
0.0118853917358901
0.0118845896746952
0.0118838257565637
0.0118830999888514
0.0118824123785486
0.01188176293228
0.0118811516563042
0.0118805785565128
0.0118800436384305
0.0118795469072152
0.011879088367658
0.0118786680241808
0.0118782858808392
0.01187794194132
0.0118776362089419
0.0118773686866553
0.0118771393770421
0.0118769482823159
0.0118767954043212
0.0118766807445337
0.0118766043040606
0.0118765660836392
0.0118765660836392
0.0118766043040605
0.0118766807445336
0.0118767954043212
0.0118769482823161
0.0118771393770421
0.0118773686866552
0.011877636208942
0.0118779419413201
0.0118782858808391
0.0118786680241809
0.011879088367658
0.0118795469072154
0.0118800436384304
0.0118805785565124
0.011881151656304
0.0118817629322801
0.0118824123785486
0.0118830999888514
0.011883825756564
0.0118845896746957
0.01188539173589
0.0118862319324258
0.0118871102562168
0.0118880266988116
0.0118889812513959
0.0118899739047907
0.011886383344208
0.0118638598592232
0.0118129605184734
0.011734130400158
0.0116282007442894
0.0114961661656158
0.0113391433721712
0.0111583289120386
0.0109551506118482
0.0107328973555807
0.0104957925619028
0.0102476453558681
0.0099918336563876
0.00973144983526006
0.0094693151548855
0.00920604937296524
0.00894037217558827
0.00867133543448372
0.00839801825578236
0.00811951484893387
0.00783490944440762
0.00754555380931021
0.00725973646952677
0.00698494006656963
0.00672837465561324
0.00649815287496966
0.00630393971534152
0.00615490893475077
0.00605253609060451
0.00598665323748087
0.00595114005887802
0.00593927886435669
0.00593829020815513
0.0100669611588422
0.0100686973314839
0.0100899921845924
0.0101551132579545
0.0102794007370128
0.0104757123958585
0.0107531713280493
0.0111021444673699
0.0115052516754944
0.0119465434000464
0.0124130329268039
0.0128932665729607
0.013376001845716
0.0138509723776208
0.0143168249443306
0.0147749381325139
0.0152267155729306
0.0156736047030477
0.0161170754454987
0.016558340845179
0.0169955597909693
0.0174240580194168
0.0178387397130969
0.0182340261038614
0.0186036516009572
0.0189410047850615
0.0192412215559513
0.0195019675587463
0.0197212435353426
0.0198971958907961
0.0200281839874222
0.0201128459575807
0.0201504892890565
0.020156627797469
0.0201549449893174
0.0201533267720439
0.0201517731612089
0.0201502841717563
0.0201488598180121
0.0201475001136846
0.0201462050718644
0.0201449747050224
0.0201438090250087
0.020142708043054
0.020141671769768
0.0201407002151391
0.0201397933885329
0.0201389512986934
0.0201381739537416
0.0201374613611757
0.0201368135278697
0.020136230460074
0.020135712163415
0.020135258642894
0.0201348699028883
0.0201345459471505
0.0201342867788074
0.0201340924003608
0.0201339628136871
0.0201338980200375
0.0201338980200375
0.020133962813687
0.0201340924003608
0.0201342867788074
0.0201345459471506
0.0201348699028885
0.0201352586428939
0.020135712163415
0.020136230460074
0.0201368135278697
0.0201374613611757
0.0201381739537417
0.0201389512986934
0.0201397933885328
0.020140700215139
0.0201416717697681
0.0201427080430539
0.0201438090250087
0.0201449747050224
0.0201462050718647
0.0201475001136849
0.0201488598180118
0.0201502841717561
0.0201517731612089
0.0201533267720438
0.0201549449893173
0.020156627797469
0.0201504023923164
0.0201125601631731
0.0200276853518286
0.0198964901158496
0.019720337440212
0.019500868925539
0.0192399392013685
0.0189395481720047
0.0186020353462873
0.018232278994969
0.0178368900830731
0.0174221336777311
0.01699358564885
0.0165563383737441
0.0161150630218963
0.0156715806054484
0.0152246727499102
0.0147728704776356
0.0143147252332386
0.0138488353438748
0.0133738206117895
0.0128910702781418
0.012410876102455
0.0119444736989223
0.0115033235085531
0.0111004273412063
0.0107517388579585
0.0104746444868091
0.0102786840795581
0.0101546972433311
0.0100898063442533
0.0100686510350415
0.0100669611588422
0.0143468772685444
0.0143493605036799
0.0143803757112008
0.014476163085404
0.0146610940162361
0.0149550262700181
0.0153657902873799
0.0158752461611643
0.016457511554777
0.0170901683557224
0.0177552055902361
0.0184367936547757
0.0191198304319108
0.019792025877449
0.0204519991741084
0.0211016046597913
0.0217427560837713
0.0223774444852775
0.0230076762728055
0.0236345868117032
0.0242550794550396
0.0248625625197926
0.0254498664581815
0.0260091341715228
0.0265315543272304
0.0270080451569327
0.0274321028972817
0.0278004493415961
0.0281102523187305
0.0283588935000771
0.0285440618171445
0.0286638446917261
0.0287172810322575
0.0287261131333579
0.0287237148880845
0.0287214086941644
0.0287191945737737
0.0287170725482096
0.0287150426378889
0.0287131048623481
0.0287112592402425
0.0287095057893449
0.028707844526544
0.0287062754678451
0.0287047986283684
0.0287034140223483
0.0287021216631331
0.0287009215631839
0.0286998137340745
0.02869879818649
0.0286978749302278
0.0286970439741952
0.0286963053264107
0.0286956589940022
0.0286951049832078
0.028694643299375
0.0286942739469605
0.0286939969295295
0.0286938122497564
0.0286937199094242
0.0286937199094242
0.0286938122497564
0.0286939969295295
0.0286942739469605
0.0286946432993751
0.0286951049832078
0.0286956589940022
0.0286963053264107
0.0286970439741953
0.0286978749302278
0.02869879818649
0.0286998137340744
0.028700921563184
0.0287021216631332
0.0287034140223483
0.0287047986283683
0.028706275467845
0.0287078445265441
0.0287095057893448
0.0287112592402426
0.0287131048623482
0.0287150426378887
0.0287170725482096
0.0287191945737739
0.0287214086941646
0.0287237148880844
0.0287261131333578
0.0287171567547003
0.0286634399499567
0.0285433567522944
0.028357896092254
0.0281089721960199
0.027798897467914
0.0274302917459857
0.0270059881527474
0.0265292715112731
0.0260066640756766
0.0254472489935926
0.0248598364451316
0.0242522800655927
0.0236317443812055
0.0230048170349205
0.0223745698667049
0.0217398570554675
0.0210986726786449
0.0204490245598639
0.0197890012411841
0.0191167468891987
0.0184336843434117
0.0177521398717322
0.0170872125021199
0.0164547401800877
0.0158727553820029
0.0153636871708557
0.0149534330542288
0.0146600236206142
0.014475548412501
0.0143801046426843
0.0143492941717589
0.0143468772685444
0.0187835790791924
0.0187868367870017
0.0188279354971134
0.0189555463523992
0.0192034292024508
0.0195987040953641
0.0201477914504058
0.0208236899793698
0.021591705388975
0.0224227289720798
0.0232935539326318
0.024183823791169
0.0250744442707338
0.0259510413944326
0.0268122074699223
0.0276602881426378
0.0284977245735384
0.0293270702189314
0.0301508866377827
0.0309702258722939
0.0317806878936884
0.0325736937533524
0.0333399245749511
0.0340691617042865
0.03474995507021
0.035370663025491
0.0359230833118365
0.0364029592254056
0.0368065950337561
0.0371305795824013
0.0373719067790418
0.0375280931609296
0.0375978992522087
0.0376095234927116
0.0376063836017862
0.0376033642286463
0.0376004654023254
0.0375976871507068
0.0375950295005212
0.0375924924773469
0.0375900761056084
0.0375877804085742
0.0375856054083558
0.0375835511259081
0.0375816175810272
0.0375798047923497
0.0375781127773513
0.0375765415523469
0.0375750911324894
0.0375737615317686
0.0375725527630108
0.0375714648378785
0.0375704977668697
0.0375696515593167
0.0375689262233867
0.0375683217660809
0.0375678381932339
0.0375674755095137
0.0375672337184216
0.0375671128222918
0.0375671128222918
0.0375672337184216
0.0375674755095137
0.0375678381932339
0.037568321766081
0.0375689262233869
0.0375696515593167
0.0375704977668697
0.0375714648378786
0.0375725527630106
0.0375737615317685
0.0375750911324894
0.037576541552347
0.0375781127773513
0.0375798047923497
0.0375816175810273
0.0375835511259083
0.0375856054083555
0.0375877804085739
0.0375900761056085
0.0375924924773471
0.0375950295005211
0.0375976871507068
0.0376004654023256
0.0376033642286464
0.0376063836017858
0.0376095234927116
0.0375977362273195
0.0375275651275688
0.0373709877457509
0.0371292798908734
0.0368049272241194
0.0364009375601297
0.0359207240553476
0.0353679837101798
0.0347469813584924
0.0340659422219255
0.0333365112355798
0.0325701366613844
0.0317770331094287
0.0309665127935152
0.0301471496409835
0.0293233140114912
0.0284939380834275
0.0276564603034535
0.0268083260639257
0.0259470968356693
0.0250704256087294
0.0241797682616918
0.0232895462139383
0.0224188546109327
0.021588059886577
0.0208203969571269
0.0201449926268267
0.0195965656248991
0.0192019915663328
0.0189547254903011
0.0188275760068149
0.0187867496831925
0.0187835790791924
0.0233828100981599
0.0233868706698878
0.0234384255427765
0.0235990413063163
0.0239122223639223
0.0244126195978803
0.0251051593378167
0.0259536347364543
0.0269142177298385
0.0279508708536929
0.0290350068782375
0.0301415808642798
0.0312473641352184
0.0323358287493558
0.0334055399548424
0.0344593518590762
0.0355002517255278
0.0365313755328004
0.0375558598776128
0.0385746691430569
0.0395820513184693
0.0405673675681245
0.0415190711170177
0.0424244953514489
0.0432694549158889
0.0440396549568203
0.0447251330773769
0.0453206182048865
0.0458215193524601
0.0462236034641406
0.0465231439509513
0.0467170655554132
0.0468038402363856
0.0468183588444322
0.0468144501392312
0.0468106914610556
0.0468070828460477
0.0468036243289181
0.0468003159429425
0.0467971577199623
0.0467941496903821
0.0467912918831681
0.0467885843258463
0.0467860270445018
0.0467836200637782
0.0467813634068749
0.0467792570955471
0.0467773011501044
0.0467754955894096
0.0467738404308784
0.0467723356904775
0.0467709813827248
0.0467697775206888
0.0467687241159873
0.0467678211787868
0.046767068717803
0.0467664667402989
0.0467660152520857
0.046765714257522
0.0467655637595137
0.0467655637595137
0.046765714257522
0.0467660152520857
0.0467664667402989
0.0467670687178031
0.046767821178787
0.0467687241159873
0.0467697775206888
0.0467709813827248
0.0467723356904775
0.0467738404308782
0.0467754955894096
0.0467773011501044
0.0467792570955471
0.0467813634068749
0.0467836200637781
0.0467860270445015
0.0467885843258462
0.0467912918831681
0.0467941496903823
0.0467971577199624
0.0468003159429422
0.0468036243289179
0.0468070828460478
0.0468106914610555
0.0468144501392312
0.0468183588444322
0.0468036370460331
0.0467164097200396
0.0465220031216072
0.0462219904305674
0.0458194496735465
0.0453181095625872
0.044722205666251
0.0440363305677111
0.0432657650376444
0.0424204990699353
0.0415148327881653
0.0405629490556625
0.0395775098423132
0.0385700535588225
0.0375512130022458
0.0365267054822647
0.0354955453131924
0.0344545954040453
0.033400718612698
0.0323309306580604
0.0312423762090641
0.0301365445656906
0.0290300227376387
0.0279460443866285
0.0269096660642209
0.0259495099693285
0.0251016390959738
0.0244099155746917
0.0239104037831069
0.0235980065844055
0.023437974358463
0.0233867620321161
0.0233828100981599
0.0281505242334047
0.0281554170913801
0.0282178129629482
0.0284126512810797
0.0287935446254388
0.0294029518889853
0.0302442327900891
0.0312716270829216
0.0324318389681193
0.0336816522253883
0.0349869052160389
0.0363176950907784
0.037646509472475
0.0389545909525497
0.0402404771655144
0.041507548854326
0.042759359051688
0.043999647329874
0.0452321461458149
0.0464577283130984
0.0476692398449253
0.0488539066532008
0.0499978725376696
0.0510859333056542
0.0521010681795559
0.0530262321522717
0.0538496385313329
0.0545649647054778
0.0551666916089213
0.0556497341609413
0.0560096188777753
0.0562426570319739
0.0563470214564594
0.0563645404331477
0.0563598347497837
0.0563553096836933
0.0563509652783887
0.0563468015756571
0.0563428186155604
0.056339016436431
0.056335395074874
0.0563319545657608
0.0563286949422301
0.0563256162356866
0.0563227184757978
0.056320001690494
0.0563174659059655
0.0563151111466635
0.0563129374352969
0.0563109447928323
0.0563091332384918
0.0563075027897543
0.0563060534623521
0.0563047852702719
0.0563036982257534
0.0563027923392891
0.0563020676196235
0.0563015240737525
0.0563011617069229
0.0563009805226335
0.0563009805226336
0.056301161706923
0.0563015240737524
0.0563020676196236
0.0563027923392891
0.0563036982257537
0.056304785270272
0.0563060534623522
0.0563075027897541
0.0563091332384917
0.0563109447928321
0.056312937435297
0.0563151111466634
0.0563174659059656
0.0563200016904937
0.0563227184757977
0.0563256162356862
0.0563286949422301
0.0563319545657605
0.0563353950748741
0.0563390164364313
0.05634281861556
0.0563468015756572
0.056350965278389
0.0563553096836934
0.0563598347497835
0.0563645404331479
0.0563467766299533
0.0562418687161938
0.0560082481332557
0.0556477963151452
0.0551642053500498
0.0545619512602959
0.0538461221685986
0.0530222390774352
0.0520966359208702
0.0510811317903197
0.0499927790197468
0.0488485951854492
0.0476637792158082
0.0464521771822738
0.0452265560795567
0.0439940299818014
0.0427536990448613
0.0415018297982056
0.040234681494855
0.0389487044465862
0.0376405168355623
0.0363116421551709
0.0349809089312392
0.033675838800875
0.0324263479366928
0.0312666400404289
0.030239964579848
0.0293996614184229
0.028791331007343
0.0284113948007107
0.0282172667074419
0.0281552861301682
0.0281505242334047
0.0330928935009885
0.0330986491411476
0.0331722842483366
0.0334026040419782
0.0338537036257248
0.0345761366852989
0.0355716280492169
0.0367845076736259
0.0381516656310298
0.0396224463205329
0.0411569113955292
0.0427201235302694
0.0442801310136499
0.0458158673418461
0.0473258417893518
0.0488139807559932
0.050284423566664
0.0517415353378414
0.0531896660686154
0.054629593223938
0.05605270919665
0.0574440264808991
0.0587872949012207
0.0600646797597345
0.0612562210247431
0.0623420229421989
0.0633084078966922
0.0641479632145189
0.064854207738144
0.0654211731435253
0.0658436116907547
0.0661171987136759
0.0662397969686056
0.0662604262116375
0.0662548943544996
0.066249574825493
0.0662444676757688
0.0662395729544514
0.0662348907086355
0.0662304209833847
0.0662261638217295
0.0662221192646645
0.0662182873511463
0.0662146681180932
0.0662112616003817
0.0662080678308453
0.0662050868402734
0.0662023186574089
0.0661997633089489
0.0661974208195399
0.0661952912117798
0.0661933745062154
0.0661916707213422
0.0661901798736017
0.0661889019773827
0.06618783704502
0.0661869850867931
0.0661863461109261
0.0661859201235877
0.0661857071288902
0.0661857071288902
0.0661859201235877
0.0661863461109262
0.066186985086793
0.06618783704502
0.0661889019773828
0.0661901798736018
0.0661916707213421
0.0661933745062155
0.0661952912117797
0.06619742081954
0.0661997633089486
0.0662023186574091
0.0662050868402733
0.0662080678308453
0.0662112616003815
0.066214668118093
0.0662182873511462
0.0662221192646642
0.0662261638217297
0.0662304209833849
0.0662348907086352
0.0662395729544515
0.0662444676757689
0.0662495748254929
0.0662548943544995
0.0662604262116376
0.0662395089810915
0.0661162730664181
0.0658420026122681
0.0654188985919732
0.0648512896456018
0.0641444264824677
0.0633042810173806
0.0623373366974827
0.0612510192032244
0.0600590435258778
0.0587813148797188
0.0574377893594526
0.0560462957561168
0.0546230722870458
0.0531830982712719
0.0517349360034866
0.0502777750488641
0.0488072638556973
0.047319036122042
0.0458089562420531
0.0442730968969528
0.042713016751824
0.0411498659171566
0.0396156097997312
0.0381452008179737
0.0367786267311658
0.0355665843959568
0.0345722381765169
0.0338510804150256
0.0334011176401412
0.0331716394277957
0.0330984950383315
0.0330928935009889
0.0382163160149617
0.0382229660481376
0.0383082528437361
0.0385753573694676
0.0390992439283139
0.0399388580012152
0.0410942224371017
0.0424993901631219
0.0440810779308762
0.0457809198028812
0.0475529903668289
0.0493571343034656
0.0511567987738088
0.0529285249078355
0.0546707927539523
0.0563880941835653
0.0580851761607571
0.0597670521578971
0.0614387122440663
0.063100834764409
0.0647433050521117
0.0663488411336617
0.0678987111912807
0.0693723536787472
0.0707467616605367
0.0719990843068748
0.0731136839474677
0.0740820179153055
0.0748966077099109
0.0755505694063107
0.076037852646917
0.0763534735354603
0.0764949733981941
0.076518826838584
0.0765124385425432
0.0765062954471516
0.0765003976114791
0.0764947450922558
0.0764893379438673
0.0764841762183543
0.0764792599654089
0.0764745892323728
0.0764701640642337
0.0764659845036256
0.0764620505908243
0.0764583623637468
0.0764549198579492
0.0764517231066248
0.0764487721406029
0.076446066988347
0.0764436076759526
0.0764413942271484
0.0764394266632924
0.0764377050033723
0.0764362292640044
0.076434999459433
0.0764340156015292
0.0764332776997903
0.07643278576134
0.0764325397909273
0.0764325397909273
0.07643278576134
0.0764332776997903
0.076434015601529
0.0764349994594332
0.0764362292640046
0.0764377050033721
0.0764394266632924
0.0764413942271484
0.0764436076759526
0.0764460669883469
0.0764487721406029
0.0764517231066248
0.0764549198579492
0.0764583623637468
0.076462050590824
0.0764659845036256
0.0764701640642337
0.0764745892323724
0.0764792599654091
0.0764841762183544
0.0764893379438673
0.0764947450922555
0.0765003976114793
0.0765062954471514
0.0765124385425431
0.0765188268385842
0.0764946406688001
0.0763524055272548
0.0760359965060712
0.0755479458180882
0.0748932419689953
0.0740779387325485
0.0731089241933493
0.0719936795073416
0.070740762093661
0.0693658521570754
0.0678918121999416
0.06634164445779
0.0647359039043096
0.0630933085026852
0.0614311309061069
0.0597594348730849
0.0580775029306956
0.0563803428980687
0.0546629401067509
0.0529205516994765
0.0511486850486016
0.0493489351006179
0.0475448572783276
0.0457730227176196
0.0440736036611732
0.0424925825504955
0.0410883748855005
0.0399343291092733
0.0390961960651125
0.0385736325974836
0.0383075058401018
0.0382227879557171
0.0382163160149617
0.0435274242698917
0.0435350014636011
0.0436323672918419
0.0439376065063489
0.0445369526404261
0.0454980506884768
0.046819154128869
0.0484236594720775
0.0502277377314071
0.0521650312938128
0.0541834092403622
0.0562373077376183
0.058285404829745
0.0603017625346113
0.0622848307224497
0.0642396873331924
0.0661717091412091
0.0680865816555189
0.0699899583983367
0.0718824147712689
0.0737522737073261
0.0755798747338812
0.0773439135004537
0.079021001732424
0.0805849739889549
0.082009916184507
0.0832781588925766
0.0843799880618751
0.0853068913111249
0.0860510355743034
0.0866055384770615
0.086964732748783
0.0871258265153935
0.0871530222623562
0.0871457461535858
0.0871387493221974
0.0871320318354704
0.0871255937580187
0.0871194351517861
0.0871135560760456
0.0871079565873958
0.0871026367397568
0.0870975965843694
0.0870928361697917
0.0870883555418979
0.0870841547438738
0.087080233816217
0.0870765927967339
0.0870732317205382
0.0870701506200492
0.0870673495249894
0.0870648284623844
0.087062587456561
0.0870606265291455
0.0870589456990638
0.0870575449825393
0.087056424393093
0.0870555839415422
0.0870550236360006
0.0870547434818774
0.0870547434818774
0.0870550236360006
0.0870555839415422
0.087056424393093
0.0870575449825395
0.0870589456990639
0.0870606265291456
0.0870625874565611
0.0870648284623844
0.0870673495249895
0.0870701506200491
0.0870732317205383
0.0870765927967339
0.0870802338162169
0.0870841547438737
0.0870883555418978
0.0870928361697917
0.0870975965843693
0.0871026367397566
0.0871079565873958
0.0871135560760457
0.0871194351517858
0.0871255937580185
0.0871320318354707
0.0871387493221974
0.0871457461535857
0.0871530222623563
0.0871254474052434
0.0869635171655115
0.0866034262250236
0.0860480501658041
0.0853030615265175
0.0843753465609699
0.0832727430844721
0.0820037665130541
0.0805781474592441
0.0790136032312032
0.0773360618809973
0.0755716833583515
0.0737438486754948
0.0718738463623078
0.0699813263960704
0.0680779091358387
0.0661629736681085
0.0642308637788572
0.062275892752355
0.0602926883226768
0.058276171963103
0.0562279761079729
0.0541741487122093
0.0521560348000029
0.050219217024117
0.0484158912262288
0.0468124731961859
0.0454928682714256
0.0445334645298339
0.0439356346138465
0.0436315143567186
0.0435347985025846
0.0435274242698915
0.0490330937268318
0.0490416320481474
0.0491515197720656
0.0494962924341098
0.0501738669778907
0.0512609067998566
0.0527538274941562
0.0545649766771699
0.0565995935228063
0.0587830368130001
0.0610567434445707
0.0633695433948331
0.0656751712803108
0.0679451198165783
0.0701778076746607
0.0723789202497035
0.0745544871361048
0.0767108904485978
0.078854471421234
0.0809856986016745
0.0830912751901106
0.085149075097082
0.0871351272118963
0.0890231129877142
0.0907835927833297
0.0923874770962918
0.093814990393248
0.0950552043333417
0.0960985347812763
0.0969361647631664
0.0975603494128966
0.0979647130572133
0.0981461184197783
0.0981767789122927
0.0981685824676535
0.0981607006254585
0.0981531334614967
0.0981458810485543
0.0981389434564113
0.0981323207518372
0.0981260129985895
0.0981200202574093
0.0981143425860185
0.0981089800391168
0.0981039326683801
0.0980992005224585
0.0980947836469711
0.0980906820845063
0.0980868958746193
0.0980834250538299
0.0980802696556205
0.0980774297104351
0.098074905245677
0.0980726962857081
0.0980708028518481
0.0980692249623732
0.0980679626325141
0.0980670158744562
0.0980663846973398
0.0980660691072582
0.0980660691072584
0.09806638469734
0.0980670158744563
0.0980679626325142
0.0980692249623734
0.0980708028518483
0.098072696285708
0.0980749052456768
0.0980774297104349
0.0980802696556205
0.0980834250538301
0.0980868958746194
0.0980906820845064
0.0980947836469711
0.0980992005224587
0.0981039326683801
0.0981089800391164
0.0981143425860181
0.0981200202574092
0.0981260129985898
0.0981323207518373
0.098138943456411
0.0981458810485544
0.0981531334614967
0.0981607006254583
0.0981685824676537
0.0981767789122928
0.0981456912298984
0.0979633444934985
0.0975579716689195
0.0969328042818829
0.0960942239562646
0.0950499799180669
0.0938088945016861
0.0923805552703508
0.0907759090014146
0.0890147846526202
0.0871262880713643
0.0851398525875591
0.0830817887706152
0.0809760498725983
0.0788447502695406
0.0767011240421175
0.0745446505122204
0.0723689851525743
0.0701677446309573
0.0679349042774919
0.0656647782864104
0.063359037865939
0.0610463141844609
0.0587729006416109
0.0565899880428574
0.0545562125955357
0.0527462826270144
0.0512550468814307
0.0501699224641835
0.0494940643550517
0.0491505570211265
0.0490414033073934
0.0490330937268318
0.054740451713806
0.0547499863735873
0.0548728549902031
0.0552586106715017
0.0560172827918127
0.0572348836522324
0.0589059208229427
0.0609312867029072
0.0632048883559291
0.0656434981497105
0.0681818856618123
0.0707630696488126
0.073335660491935
0.075868487933642
0.0783599383645333
0.0808163268285326
0.0832443596101453
0.0856511409128493
0.0880437248423089
0.0904224690738675
0.0927723976649964
0.0950688285948938
0.0972850263081754
0.0993916346455002
0.101355819828447
0.103145200655865
0.104737818398769
0.106121485951223
0.107285508165574
0.108220048121149
0.108916466869533
0.109367654390129
0.109570115355154
0.10960436751974
0.109595217024679
0.109586417751182
0.109577969783861
0.109569873203974
0.109562128089422
0.109554734514749
0.109547692551131
0.109541002266381
0.109534663724939
0.109528676987872
0.10952304211287
0.109517759154247
0.109512828162932
0.109508249186469
0.109504022269019
0.109500147451352
0.109496624770849
0.109493454261495
0.109490635953885
0.109488169875216
0.10948605604929
0.109484294496508
0.109482885233877
0.109481828274998
0.109481123630077
0.109480771305916
0.109480771305916
0.109481123630077
0.109481828274998
0.109482885233877
0.109484294496509
0.10948605604929
0.109488169875216
0.109490635953885
0.109493454261495
0.109496624770849
0.109500147451353
0.109504022269019
0.109508249186469
0.109512828162932
0.109517759154247
0.109523042112871
0.109528676987872
0.109534663724939
0.109541002266381
0.109547692551131
0.109554734514749
0.109562128089422
0.109569873203974
0.109577969783861
0.109586417751182
0.109595217024679
0.109604367519741
0.10956963832429
0.109366127242417
0.108913813908948
0.10821629882871
0.107280698680299
0.10611565727023
0.104731017513248
0.103137478392531
0.101347247394342
0.0993823424176076
0.0972751634742759
0.0950585371812649
0.0927618109792886
0.0904117004523895
0.088032874645275
0.0856402405505452
0.0832333815010635
0.0808052394742746
0.0783487090382686
0.0758570892641734
0.0733240648804764
0.0707513472258411
0.0681702448624704
0.0656321805551573
0.0631941583643627
0.0609214902965611
0.0588974803547907
0.0572283213867364
0.0560128651343007
0.0552561170109375
0.0548717783977285
0.054749730908605
0.0547404517138059
0.0606568866523359
0.0606674541509644
0.0608037794105944
0.0612320204923583
0.0620747637104782
0.0634277128330653
0.0652833953011086
0.0675308274528594
0.0700521692925046
0.0727552927458611
0.0755680562180038
0.0784274546234594
0.0812767865998369
0.0840821216911781
0.0868418128712005
0.089562827855326
0.0922525743748719
0.0949189051481385
0.0975696132426049
0.100204941319842
0.102808172724085
0.105351975876301
0.107806749509735
0.110139988577665
0.112315340831407
0.114297012821632
0.11606078270144
0.117593158496358
0.118882293351683
0.119917293042045
0.12068859178972
0.121188318332099
0.121412606177289
0.121450581591915
0.121440442096818
0.12143069178387
0.121421330746827
0.12141235907573
0.1214037768569
0.121395584172936
0.12138778110271
0.121380367721361
0.121373344100295
0.12136671030718
0.121360466405941
0.121354612456762
0.121349148516076
0.121344074636567
0.121339390867167
0.121335097253054
0.121331193835648
0.121327680652609
0.121324557737838
0.121321825121471
0.121319482829882
0.121317530885679
0.121315969307704
0.121314798111032
0.121314017306969
0.121313626903053
0.121313626903053
0.121314017306969
0.121314798111032
0.121315969307705
0.121317530885679
0.121319482829882
0.121321825121471
0.121324557737838
0.121327680652609
0.121331193835648
0.121335097253054
0.121339390867167
0.121344074636566
0.121349148516075
0.121354612456762
0.121360466405941
0.12136671030718
0.121373344100295
0.121380367721361
0.12138778110271
0.121395584172936
0.1214037768569
0.121412359075729
0.121421330746827
0.12143069178387
0.121440442096818
0.121450581591915
0.121412077479638
0.121186626791448
0.12068565353143
0.119913140696552
0.11887696694048
0.117586703415718
0.116053250998407
0.114288460801307
0.112305847194165
0.110129697149643
0.107795825484332
0.105340576404098
0.102796445468647
0.10019301178332
0.0975575926421333
0.0949068292923804
0.092240412967647
0.0895505460369811
0.0868293745424035
0.0840694965550103
0.0812639443218191
0.0784144707344509
0.0755551595023828
0.0727427504524207