# Probe 0 (0.0005 0.0001 0.0001)
# Probe 1 (0.0005 0.0001 0.0009)
# Probe 2 (0.0005 0.0009 0.0009)
# Probe 3 (0.0005 0.0009 0.0001)
# Probe 4 (0.0005 0.0005 0.0005)
#       Probe             0             1             2             3             4
#        Time
            1     0.0200004     0.0200001          0.02     0.0200001     0.0200001
            2     0.0200032     0.0200506     0.0200003     0.0200506     0.0200014
            3     0.0200065      0.019913     0.0200021      0.019913     0.0200042
            4       0.02001     0.0198119      0.020015     0.0198119     0.0200071
            5     0.0200166     0.0197083     0.0200922     0.0197083     0.0200125
            6     0.0200234     0.0196104      0.020248     0.0196104     0.0200182
            7     0.0200331     0.0195814     0.0205181     0.0195814     0.0200261
            8     0.0200438     0.0196857     0.0208342     0.0196857     0.0200352
            9     0.0200568     0.0199828     0.0211724     0.0199828     0.0200467
           10     0.0200711     0.0203857     0.0214526     0.0203857     0.0200612
           11     0.0200869     0.0208866     0.0216483     0.0208866     0.0200816
           12     0.0201034     0.0214933     0.0217443     0.0214933     0.0201132
           13     0.0201217     0.0222111     0.0217292     0.0222111     0.0201665
           14     0.0201442     0.0230411     0.0215481     0.0230411      0.020279
           15       0.02017     0.0239697     0.0212096     0.0239697     0.0205086
           16     0.0201991     0.0249935     0.0207669     0.0249935     0.0209736
           17     0.0202327      0.026121     0.0202648      0.026121     0.0218796
           18     0.0202707     0.0273586     0.0197389     0.0273586     0.0235309
           19     0.0203184     0.0287047      0.019214     0.0287047     0.0262666
           20     0.0203824     0.0301726     0.0187087     0.0301726     0.0300261
           21     0.0204694     0.0317713     0.0182342     0.0317713     0.0341899
           22     0.0205896     0.0335036     0.0177956     0.0335036     0.0387746
           23     0.0207586     0.0353835     0.0173956     0.0353835     0.0438111
           24     0.0210137     0.0374233     0.0170352     0.0374233     0.0492694
           25     0.0213739     0.0396393     0.0167131     0.0396393     0.0551478
           26     0.0218802      0.042055     0.0164279      0.042055     0.0614376
           27     0.0225755     0.0446961     0.0161777     0.0446961     0.0681411
           28      0.023506     0.0475979     0.0159604     0.0475979     0.0753154
           29     0.0247053     0.0508076      0.015774     0.0508076     0.0831842
           30     0.0262275     0.0543879     0.0156165     0.0543879      0.092306
           31     0.0281326     0.0584214     0.0154864     0.0584214      0.103682
           32     0.0301376     0.0630173     0.0153834     0.0630173      0.118791
           33     0.0320759     0.0681881     0.0153045     0.0681881      0.138812
           34      0.034058     0.0741994     0.0152505     0.0741994      0.164059
           35     0.0360841     0.0812609     0.0152205     0.0812609       0.19445
           36     0.0381536     0.0896368      0.015214     0.0896368      0.231491
           37     0.0402689     0.0996616     0.0152311     0.0996616      0.276395
           38     0.0424409      0.111757     0.0152724      0.111757      0.330725
           39     0.0446948      0.126458     0.0153388      0.126458       0.39608
           40     0.0470896       0.14445     0.0154319       0.14445      0.474249
           41      0.049733      0.166614      0.015554      0.166614      0.567231
           42     0.0527855      0.194081     0.0157078      0.194081      0.677127
           43     0.0565379      0.228299     0.0158965      0.228299      0.805947
           44     0.0614685      0.271101     0.0161249      0.271101      0.955461
           45     0.0681481      0.324729     0.0163986      0.324729       1.12707
           46     0.0770926      0.391905     0.0167244      0.391905       1.32177
           47      0.089287      0.475848     0.0171106      0.475848       1.53999
           48      0.106239      0.580222     0.0175681      0.580222       1.78157
           49       0.12986      0.709062       0.01811      0.709062       2.04576
           50      0.162644      0.866491     0.0187523      0.866491       2.33148
           51      0.207681       1.05606     0.0195148       1.05606        2.6373
           52      0.268449       1.28011     0.0204224       1.28011       2.95919
           53      0.348399       1.53919      0.021505       1.53919       3.28682
           54       0.45023       1.83186     0.0228014       1.83186       3.60616
           55      0.575618       2.15448     0.0243597       2.15448       3.91798
           56      0.724588       2.50227     0.0262392       2.50227       4.22563
           57      0.895558       2.86929     0.0285116       2.86929       4.53089
           58       1.08547       3.24996     0.0312643       3.24996       4.83455
           59       1.29005       3.63934     0.0346052       3.63934       5.13691
           60       1.50555       4.03249     0.0386631       4.03249       5.43819
           61       1.72863       4.42636     0.0435902       4.42636       5.73831
           62       1.95576        4.8178     0.0495622        4.8178         6.037
           63       2.18414       5.20465     0.0567788       5.20465       6.33397
           64       2.41171       5.58642     0.0654618       5.58642       6.62893
           65       2.63763       5.96316     0.0758369       5.96316       6.92152
           66       2.86186       6.33503       0.08816       6.33503        7.2114
           67       3.08436        6.7022      0.102695        6.7022       7.49824
           68       3.30508       7.06391      0.119708       7.06391       7.78172
           69         3.524       7.41922      0.139459       7.41922       8.06152
           70       3.74064       7.76846      0.162196       7.76846       8.33738
           71       3.95506       8.11193      0.188144       8.11193       8.60904
           72       4.16713        8.4498      0.217503        8.4498       8.87628
           73       4.37673       8.78212      0.250424       8.78212       9.13893
           74       4.58365       9.10885      0.287036       9.10885       9.39681
           75       4.78769       9.42985      0.327427       9.42985       9.64982
           76       4.98839       9.74456      0.371648       9.74456       9.89783
           77       5.18552       10.0523        0.4197       10.0523       10.1408
           78         5.379       10.3533      0.471548       10.3533       10.3786
           79       5.56876       10.6475      0.527123       10.6475       10.6112
           80       5.75474       10.9352      0.586326       10.9352       10.8387
           81       5.93663       11.2162      0.649028       11.2162        11.061
           82       6.10639       11.4908      0.715314       11.4908       11.2788
           83       6.27249        11.759      0.784763        11.759       11.4913
           84       6.43501       12.0205      0.857198       12.0205       11.6986
           85       6.59378       12.2753      0.932425       12.2753       11.9008
           86       6.74871       12.5231       1.01024       12.5231       12.0979
           87       6.89977       12.7639       1.09043       12.7639       12.2898
           88       7.04687       12.9973       1.17279       12.9973       12.4766
           89          7.19       13.2236       1.25709       13.2236       12.6584
           90        7.3292       13.4429       1.34315       13.4429       12.8352
           91       7.46446       13.6552       1.43076       13.6552       13.0072
           92       7.59564       13.8606       1.51974       13.8606       13.1742
           93       7.72268       14.0591       1.60992       14.0591       13.3364
           94        7.8456       14.2509       1.70111       14.2509       13.4938
           95       7.96446        14.436       1.79318        14.436       13.6465
           96       8.07938       14.6145       1.88597       14.6145       13.7945
           97       8.19039       14.7866       1.97934       14.7866       13.9378
           98       8.29749       14.9523       2.07317       14.9523       14.0765
           99       8.40068       15.1118       2.16735       15.1118       14.2107
          100       8.50004       15.2651       2.26174       15.2651       14.3404
          101       8.59564       15.4124       2.35625       15.4124       14.4657
          102       8.68757       15.5538       2.45076       15.5538       14.5865
          103       8.77591       15.6894       2.54517       15.6894       14.7029
          104       8.86071       15.8194       2.63938       15.8194       14.8151
          105       8.94203       15.9439        2.7333       15.9439        14.923
          106       9.01965       16.0629       2.82682       16.0629       15.0272
          107       9.09381       16.1767       2.91988       16.1767       15.1273
          108        9.1647       16.2854        3.0124       16.2854       15.2234
          109       9.23243       16.3892        3.1043       16.3892       15.3156
          110       9.29708        16.488       3.19554        16.488        15.404
          111       9.35876       16.5822       3.28605       16.5822       15.4886
          112       9.41754       16.6717       3.37578       16.6717       15.5694
          113       9.47351       16.7567       3.46469       16.7567       15.6464
          114       9.52673       16.8373       3.55275       16.8373       15.7199
          115       9.57728       16.9136       3.63989       16.9136       15.7899
          116       9.62522       16.9858        3.7261       16.9858       15.8565
          117       9.67061       17.0538       3.81133       17.0538       15.9199
          118       9.71353        17.118       3.89556        17.118         15.98
          119       9.75403       17.1782       3.97875       17.1782        16.037
          120       9.79217       17.2347       4.06088       17.2347        16.091
          121         9.828       17.2876       4.14191       17.2876        16.142
          122       9.86158       17.3369       4.22183       17.3369       16.1902
          123       9.89295       17.3828       4.30061       17.3828       16.2357
          124       9.92218       17.4253       4.37824       17.4253       16.2785
          125       9.94932       17.4645       4.45469       17.4645       16.3188
          126       9.97441       17.5005       4.52996       17.5005       16.3565
          127       9.99751       17.5335       4.60403       17.5335       16.3917
          128       10.0187       17.5635       4.67687       17.5635       16.4246
          129       10.0379       17.5905       4.74849       17.5905       16.4551
          130       10.0553       17.6148       4.81887       17.6148       16.4833
          131       10.0709       17.6363       4.88801       17.6363       16.5093
          132       10.0848       17.6551        4.9559       17.6551       16.5332
          133        10.097       17.6714       5.02254       17.6714       16.5549
          134       10.1075       17.6852       5.08794       17.6852       16.5747
          135       10.1165       17.6966       5.15209       17.6966       16.5924
          136       10.1239       17.7057         5.215       17.7057       16.6082
          137       10.1298       17.7125       5.27666       17.7125        16.622
          138       10.1342       17.7171       5.33708       17.7171        16.634
          139       10.1373       17.7197       5.39627       17.7197       16.6441
          140        10.139       17.7203       5.45424       17.7203       16.6525
          141       10.1393       17.7189         5.511       17.7189       16.6593
          142       10.1384       17.7158       5.56656       17.7158       16.6644
          143       10.1361       17.7109       5.62091       17.7109       16.6679
          144       10.1327       17.7043       5.67408       17.7043       16.6699
          145        10.128       17.6961       5.72605       17.6961       16.6704
          146       10.1221       17.6864       5.77685       17.6864       16.6694
          147       10.1151       17.6754       5.82647       17.6754        16.667
          148        10.107       17.6629       5.87492       17.6629       16.6631
          149       10.0979       17.6493       5.92222       17.6493        16.658
          150       10.0877       17.6344       5.96837       17.6344       16.6515
          151       10.0765       17.6184       6.01338       17.6184       16.6439
          152       10.0644       17.6014       6.05726       17.6014        16.635
          153       10.0514       17.5835       6.10003       17.5835        16.625
          154       10.0375       17.5646        6.1417       17.5646        16.614
          155       10.0229        17.545       6.18229        17.545       16.6019
          156       10.0074       17.5246        6.2218       17.5246       16.5889
          157       9.99126       17.5036       6.26025       17.5036        16.575
          158       9.97442       17.4819       6.29766       17.4819       16.5601
          159       9.95694       17.4597       6.33404       17.4597       16.5445
          160       9.93886        17.437        6.3694        17.437        16.528
          161       9.92022       17.4139       6.40376       17.4139       16.5109
          162       9.90106       17.3904       6.43713       17.3904        16.493
          163       9.88141       17.3666       6.46952       17.3666       16.4745
          164       9.86132       17.3425       6.50096       17.3425       16.4554
          165        9.8408       17.3182       6.53144       17.3182       16.4358
          166        9.8199       17.2937       6.56099       17.2937       16.4156
          167       9.79866        17.269       6.58962        17.269        16.395
          168       9.77709       17.2443       6.61734       17.2443       16.3739
          169       9.75524       17.2195       6.64416       17.2195       16.3524
          170       9.73313       17.1947       6.67011       17.1947       16.3306
          171       9.71079       17.1699       6.69518       17.1699       16.3084
          172       9.68824       17.1452       6.71941       17.1452       16.2859
          173       9.66552       17.1205        6.7428       17.1205       16.2631
          174       9.64265       17.0959       6.76537       17.0959       16.2401
          175       9.61965       17.0714       6.78712       17.0714       16.2169
          176       9.59655        17.047       6.80809        17.047       16.1936
          177       9.57337       17.0228       6.82827       17.0228         16.17
          178       9.55014       16.9987       6.84769       16.9987       16.1464
          179       9.52687       16.9749       6.86636       16.9749       16.1226
          180       9.50358       16.9513       6.88429       16.9513       16.0988
          181        9.4803       16.9279       6.90151       16.9279       16.0749
          182       9.45705       16.9047       6.91802       16.9047        16.051
          183       9.43383       16.8818       6.93384       16.8818       16.0271
          184       9.41068       16.8592       6.94899       16.8592       16.0032
          185       9.38761       16.8369       6.96348       16.8369       15.9794
          186       9.36463       16.8148       6.97732       16.8148       15.9556
          187       9.34176        16.793       6.99053        16.793       15.9319
          188       9.31901       16.7716       7.00313       16.7716       15.9083
          189       9.29641       16.7504       7.01512       16.7504       15.8848
          190       9.27395       16.7296       7.02654       16.7296       15.8614
          191       9.25166       16.7091       7.03738       16.7091       15.8382
          192       9.22955        16.689       7.04766        16.689       15.8151
          193       9.20763       16.6691        7.0574       16.6691       15.7922
          194        9.1859       16.6496       7.06662       16.6496       15.7695
          195       9.16439       16.6305       7.07532       16.6305       15.7469
          196       9.14309       16.6117       7.08353       16.6117       15.7246
          197       9.12203       16.5933       7.09124       16.5933       15.7025
          198        9.1012       16.5752       7.09849       16.5752       15.6807
          199       9.08061       16.5574       7.10528       16.5574       15.6591
          200       9.06027       16.5401       7.11163       16.5401       15.6377
          201       9.04019        16.523       7.11754        16.523       15.6166
          202       9.02038       16.5064       7.12304       16.5064       15.5957
          203       9.00084         16.49       7.12813         16.49       15.5752
          204       8.98157        16.474       7.13283        16.474       15.5549
          205       8.96258       16.4584       7.13715       16.4584       15.5349
          206       8.94388       16.4431       7.14111       16.4431       15.5151
          207       8.92546       16.4281       7.14471       16.4281       15.4957
          208       8.90734       16.4135       7.14796       16.4135       15.4766
          209       8.88951       16.3992       7.15089       16.3992       15.4578
          210       8.87198       16.3853       7.15349       16.3853       15.4393
          211       8.85475       16.3717       7.15579       16.3717       15.4211
          212       8.83783       16.3585       7.15779       16.3585       15.4032
          213       8.82121       16.3456        7.1595       16.3456       15.3857
          214        8.8049        16.333       7.16094        16.333       15.3685
          215       8.78889       16.3207       7.16212       16.3207       15.3515
          216        8.7732       16.3088       7.16304       16.3088       15.3349
          217       8.75782       16.2972       7.16372       16.2972       15.3187
          218       8.74275       16.2859       7.16416       16.2859       15.3027
          219       8.72799       16.2749       7.16438       16.2749       15.2871
          220       8.71355       16.2642       7.16438       16.2642       15.2718
          221       8.69942       16.2539       7.16418       16.2539       15.2569
          222        8.6856       16.2438       7.16378       16.2438       15.2422
          223       8.67209       16.2341        7.1632       16.2341       15.2279
          224       8.65889       16.2246       7.16244       16.2246       15.2139
          225       8.64601       16.2154        7.1615       16.2154       15.2002
          226       8.63343       16.2065       7.16041       16.2065       15.1869
          227       8.62116       16.1979       7.15916       16.1979       15.1739
          228        8.6092       16.1896       7.15776       16.1896       15.1611
          229       8.59755       16.1815       7.15623       16.1815       15.1487
          230       8.58619       16.1737       7.15456       16.1737       15.1367
          231       8.57514       16.1662       7.15277       16.1662       15.1249
          232       8.56439       16.1589       7.15086       16.1589       15.1134
          233       8.55394       16.1518       7.14884       16.1518       15.1023
          234       8.54377       16.1451       7.14672       16.1451       15.0914
          235        8.5339       16.1385        7.1445       16.1385       15.0808
          236       8.52432       16.1322       7.14219       16.1322       15.0706
          237       8.51501       16.1261        7.1398       16.1261       15.0606
          238       8.50599       16.1202       7.13733       16.1202       15.0509
          239       8.49725       16.1146       7.13478       16.1146       15.0415
          240       8.48878       16.1092       7.13216       16.1092       15.0324
          241       8.48058        16.104       7.12948        16.104       15.0235
          242       8.47264        16.099       7.12675        16.099       15.0149
          243       8.46496       16.0941       7.12396       16.0941       15.0066
          244       8.45754       16.0895       7.12112       16.0895       14.9985
          245       8.45037       16.0851       7.11824       16.0851       14.9907
          246       8.44345       16.0809       7.11532       16.0809       14.9832
          247       8.43677       16.0769       7.11237       16.0769       14.9759
          248       8.43033        16.073       7.10939        16.073       14.9688
          249       8.42412       16.0693       7.10638       16.0693        14.962
          250       8.41814       16.0659       7.10334       16.0659       14.9554
          251       8.41238       16.0625       7.10029       16.0625       14.9491
          252       8.40684       16.0594       7.09723       16.0594        14.943
          253       8.40152       16.0564       7.09415       16.0564       14.9371
          254        8.3964       16.0535       7.09106       16.0535       14.9314
          255       8.39149       16.0508       7.08797       16.0508       14.9259
          256       8.38678       16.0483       7.08488       16.0483       14.9207
          257       8.38226       16.0459       7.08178       16.0459       14.9156
          258       8.37794       16.0436       7.07869       16.0436       14.9108
          259        8.3738       16.0415        7.0756       16.0415       14.9061
          260       8.36984       16.0395       7.07253       16.0395       14.9016
          261       8.36606       16.0377       7.06946       16.0377       14.8973
          262       8.36245        16.036       7.06641        16.036       14.8932
          263         8.359       16.0344       7.06337       16.0344       14.8893
          264       8.35573       16.0329       7.06035       16.0329       14.8856
          265       8.35261       16.0315       7.05734       16.0315        14.882
          266       8.34965       16.0302       7.05436       16.0302       14.8786
          267       8.34683       16.0291        7.0514       16.0291       14.8753
          268       8.34417        16.028       7.04847        16.028       14.8722
          269       8.34165        16.027       7.04556        16.027       14.8693
          270       8.33926       16.0262       7.04268       16.0262       14.8665
          271       8.33702       16.0254       7.03983       16.0254       14.8638
          272        8.3349       16.0247         7.037       16.0247       14.8613
          273       8.33291       16.0241       7.03421       16.0241       14.8589
          274       8.33104       16.0236       7.03146       16.0236       14.8566
          275       8.32929       16.0232       7.02873       16.0232       14.8545
          276       8.32766       16.0228       7.02604       16.0228       14.8525
          277       8.32614       16.0225       7.02339       16.0225       14.8506
          278       8.32472       16.0223       7.02077       16.0223       14.8488
          279       8.32342       16.0221       7.01818       16.0221       14.8471
          280       8.32221       16.0221       7.01564       16.0221       14.8456
          281        8.3211        16.022       7.01313        16.022       14.8441
          282       8.32008       16.0221       7.01067       16.0221       14.8428
          283       8.31916       16.0221       7.00824       16.0221       14.8415
          284       8.31832       16.0223       7.00585       16.0223       14.8404
          285       8.31757       16.0225        7.0035       16.0225       14.8393
          286       8.31689       16.0227        7.0012       16.0227       14.8383
          287       8.31629        16.023       6.99893        16.023       14.8374
          288       8.31577       16.0233        6.9967       16.0233       14.8366
          289       8.31532       16.0237       6.99452       16.0237       14.8359
          290       8.31494       16.0241       6.99237       16.0241       14.8352
          291       8.31462       16.0245       6.99027       16.0245       14.8347
          292       8.31436        16.025       6.98821        16.025       14.8341
          293       8.31416       16.0255       6.98619       16.0255       14.8337
          294       8.31402       16.0261       6.98421       16.0261       14.8333
          295       8.31394       16.0266       6.98227       16.0266        14.833
          296       8.31391       16.0272       6.98037       16.0272       14.8327
          297       8.31393       16.0279       6.97851       16.0279       14.8325
          298         8.314       16.0285       6.97669       16.0285       14.8324
          299       8.31411       16.0292       6.97491       16.0292       14.8323
          300       8.31428       16.0299       6.97318       16.0299       14.8322
          301       8.31449       16.0306       6.97148       16.0306       14.8322
          302       8.31474       16.0313       6.96982       16.0313       14.8323
          303       8.31502       16.0321        6.9682       16.0321       14.8324
          304       8.31535       16.0328       6.96662       16.0328       14.8325
          305       8.31572       16.0336       6.96508       16.0336       14.8326
          306       8.31611       16.0344       6.96358       16.0344       14.8329
          307       8.31654       16.0352       6.96212       16.0352       14.8331
          308         8.317        16.036       6.96069        16.036       14.8334
          309       8.31749       16.0368        6.9593       16.0368       14.8337
          310         8.318       16.0376       6.95795       16.0376        14.834
          311       8.31854       16.0385       6.95663       16.0385       14.8344
          312        8.3191       16.0393       6.95535       16.0393       14.8348
          313       8.31968       16.0401       6.95411       16.0401       14.8352
          314       8.32028        16.041        6.9529        16.041       14.8356
          315        8.3209       16.0418       6.95172       16.0418       14.8361
          316       8.32153       16.0427       6.95058       16.0427       14.8365
          317       8.32218       16.0435       6.94947       16.0435        14.837
          318       8.32285       16.0444       6.94839       16.0444       14.8376
          319       8.32352       16.0452       6.94735       16.0452       14.8381
          320       8.32421       16.0461       6.94634       16.0461       14.8386
          321       8.32491       16.0469       6.94536       16.0469       14.8392
          322       8.32562       16.0477       6.94441       16.0477       14.8398
          323       8.32633       16.0486       6.94349       16.0486       14.8403
          324       8.32705       16.0494       6.94261       16.0494       14.8409
          325       8.32778       16.0502       6.94175       16.0502       14.8415
          326       8.32851        16.051       6.94092        16.051       14.8421
          327       8.32925       16.0518       6.94012       16.0518       14.8428
          328       8.32998       16.0527       6.93934       16.0527       14.8434
          329       8.33072       16.0535        6.9386       16.0535        14.844
          330       8.33146       16.0542       6.93788       16.0542       14.8446
          331        8.3322        16.055       6.93719        16.055       14.8453
          332       8.33294       16.0558       6.93652       16.0558       14.8459
          333       8.33368       16.0566       6.93588       16.0566       14.8466
          334       8.33442       16.0573       6.93526       16.0573       14.8472
