# Probe 0 (0.0005 0.0001 0.0001)
# Probe 1 (0.0005 0.0001 0.0009)
# Probe 2 (0.0005 0.0009 0.0009)
# Probe 3 (0.0005 0.0009 0.0001)
# Probe 4 (0.0005 0.0005 0.0005)
#       Probe             0             1             2             3             4
#        Time
            1       10.0075       812.052       22.1461       812.052       10.0013
            2       10.1665        1997.6       59.4733        1997.6       10.1323
            3       10.5485       5418.69       170.239       5418.69       10.3522
            4       10.9532       10990.8       709.758       10990.8       10.6429
            5       11.3578       19493.7       2127.26       19493.7       11.0054
            6       11.7545       30554.5       4848.47       30554.5       11.4457
            7       12.1772       43610.2       9390.54       43610.2       11.9753
            8       12.6327       58288.5       16143.4       58288.5       12.6056
            9       13.1675       74383.7       25326.9       74383.7       13.3609
           10       14.3343       98196.2       44112.6       98196.2       15.0811
           11       15.5897        122231       66889.3        122231        17.377
           12       16.8136        146171       92392.6        146171       20.6694
           13       18.3257        169746        119304        169746        25.897
           14       20.8042        192973        148032        192973       39.6659
           15       23.9159        215116        175241        215116       72.7862
           16       27.6528        236002        200265        236002        153.07
           17       32.0324        255558        222765        255558       336.098
           18       36.1719        273753        242654        273753       714.025
           19        42.056        290534        260006        290534       1417.85
           20       49.4691        305952        275012        305952       2595.59
           21       59.3044        320072        287905        320072        4218.9
           22       73.1867        332913        298915        332913       6065.01
           23        93.173        344565        308275        344565       8153.71
           24       124.032        355358        316236        355358       10714.7
           25       171.953        365055        322951        365055         13490
           26       243.318        373804        328575        373804       16439.5
           27       348.833        381705        333242        381705       19519.8
           28       497.401        388846        337069        388846       22692.2
           29       700.787        395313        340157        395313       25919.8
           30       969.884        401186        342597        401186       29152.9
           31       1316.87        406541        344467        406541       32319.3
           32        1767.9        411439        345852        411439       35366.3
           33       2225.85        415931        346807        415931       38257.6
           34       2689.01        420092        347380        420092       41008.8
           35       3154.53        423997        347616        423997       43644.7
           36       3619.44        427720        347556        427720       46256.1
           37       4080.97        431336        347238        431336       48668.7
           38       4536.96        434917        346696        434917       50988.5
           39       4986.05        438540        345964        438540       53241.9
           40       5430.72        442288        345070        442288       55404.8
           41       5877.92        446247        344043        446247       57447.6
           42       6333.28        450507        342909        450507       59369.4
           43       6802.74        455154        341693        455154       61170.7
           44       7316.24        460272        340419        460272       62848.6
           45       7921.26        465912        339108        465912       64393.5
           46       8647.13        472129        337778        472129       65799.3
           47       9519.92        478917        336451        478917       67065.4
           48       10577.9        486210        335148        486210       68194.5
           49       11863.4        493895        333891        493895         69192
           50       13421.1        501773        332697        501773       70079.5
           51       15285.8        509545        331584        509545       70902.9
           52       17430.1        516838        330566        516838       71686.9
           53       19800.1        523264        329652        523264       72442.1
           54       22268.3        528522        328861        528522       73190.5
           55       24673.1        532405        328211        532405       73935.1
           56       26901.1        534900        327717        534900       74665.9
           57       28867.9        536055        327396        536055       75373.4
           58       30530.4        536046        327264        536046       76050.3
           59       31883.8        535094        327333        535094       76692.5
           60       32838.9        533368        327610        533368       77281.5
           61       33604.3        531077        328112        531077       77836.4
           62       34209.7        528365        328842        528365       78356.4
           63       34687.4        525371        329798        525371       78841.7
           64       35067.3        522248        330977        522248       79292.7
           65       35376.7        519100        332367        519100       79710.2
           66       35641.7        515981        333957        515981       80095.5
           67       35876.5        512916        335728        512916       80450.1
           68       36088.5        509906        337658        509906       80775.5
           69       36283.2        506958        339726        506958       81073.1
           70         36456        504092        341906        504092       81344.5
           71       36609.5        501308        344171        501308         81591
           72       36745.4        498600        346497        498600       81813.9
           73       36866.1        495956        348858        495956       82014.5
           74       36971.3        493365        351232        493365         82194
           75       37060.5        490819        353595        490819       82353.4
           76       37132.4        488325        355927        488325       82493.8
           77       37186.6        485895        358212        485895         82616
           78       37223.8        483518        360435        483518       82720.8
           79       37244.5        481183        362583        481183       82809.2
           80       37249.3        478881        364647        478881       82881.7
           81       37238.3        476610        366620        476610       82939.1
           82         37212        474365        368499        474365         82982
           83       37171.5        472155        370279        472155       83011.2
           84         37118        469975        371961        469975       83027.1
           85       37052.4        467823        373544        467823       83030.1
           86       36975.9        465699        375031        465699       83020.4
           87       36889.9        463602        376424        463602       82998.4
           88       36795.6        461540        377725        461540       82964.4
           89       36694.2        459511        378937        459511       82918.7
           90         36587        457515        380066        457515       82861.7
           91       36475.3        455552        381116        455552       82793.9
           92       36359.6        453623        382093        453623       82715.5
           93       36240.6        451728        383001        451728       82626.8
           94       36119.1        449868        383847        449868       82528.1
           95       35996.2        448043        384634        448043       82419.7
           96       35872.7        446256        385368        446256       82301.9
           97       35749.2        444505        386052        444505         82175
           98       35626.2        442792        386692        442792       82039.1
           99       35503.8        441118        387291        441118       81894.7
          100       35382.5        439482        387852        439482       81742.2
          101       35262.5        437886        388377        437886       81581.8
          102       35144.3        436329        388869        436329       81413.8
          103       35027.9        434811        389331        434811       81238.3
          104       34913.5        433331        389763        433331       81056.1
          105         34801        431889        390169        431889       80867.7
          106       34689.6        430484        390548        430484       80675.3
          107       34579.8        429117        390902        429117       80478.5
          108         34472        427788        391234        427788       80277.1
          109       34366.2        426497        391545        426497       80071.6
          110       34262.3        425242        391839        425242       79862.3
          111       34160.3        424024        392116        424024       79649.8
          112       34060.2        422840        392378        422840       79434.2
          113       33961.8        421690        392627        421690       79215.8
          114       33865.2        420574        392863        420574       78995.5
          115       33770.2        419489        393088        419489       78773.7
          116       33676.6        418437        393303        418437         78551
          117       33584.5        417414        393508        417414       78328.1
          118       33493.7        416422        393704        416422       78105.3
          119       33404.1        415459        393892        415459       77883.6
          120       33315.6        414524        394072        414524       77663.1
          121       33228.2        413617        394244        413617       77444.3
          122       33141.7        412737        394410        412737       77227.2
          123       33056.1        411884        394568        411884       77012.1
          124       32971.3        411056        394721        411056       76799.3
          125       32887.3        410253        394868        410253         76589
          126         32804        409475        395010        409475       76382.3
          127       32721.3        408720        395147        408720         76179
          128       32639.2        407988        395280        407988       75978.9
          129       32557.6        407279        395407        407279       75781.7
          130       32476.6        406592        395531        406592       75587.4
          131         32396        405926        395651        405926       75395.9
          132       32315.9        405281        395767        405281       75207.2
          133       32236.3        404656        395880        404656       75021.2
          134         32157        404050        395991        404050       74838.2
          135       32078.1        403464        396098        403464       74658.1
          136       31999.7        402896        396203        402896       74480.9
          137       31921.6        402346        396305        402346       74306.6
          138       31843.8        401814        396404        401814       74135.1
          139       31766.5        401300        396501        401300       73966.3
          140       31689.5        400802        396596        400802       73800.3
          141       31612.9        400321        396689        400321       73636.8
          142       31536.6        399856        396780        399856       73475.9
          143       31460.7        399407        396869        399407       73317.5
          144       31385.3        398974        396956        398974       73161.7
          145       31310.1        398557        397042        398557       73008.3
          146       31235.4        398155        397126        398155       72857.3
          147       31161.1        397769        397208        397769       72708.7
          148       31087.3        397397        397288        397397       72562.3
          149       31013.8        397041        397367        397041       72418.4
          150       30940.8        396699        397444        396699       72276.8
          151       30868.3        396371        397519        396371       72137.7
          152       30796.3        396059        397592        396059       72000.9
          153       30724.7        395761        397664        395761       71866.6
          154       30653.7        395477        397735        395477       71734.7
          155       30583.2        395208        397803        395208       71605.2
          156       30513.2        394953        397870        394953       71478.2
          157       30443.9        394711        397936        394711       71353.4
          158       30375.1        394483        397999        394483         71231
          159         30307        394268        398061        394268         71111
          160       30239.5        394066        398121        394066       70993.4
          161       30172.7        393877        398180        393877       70878.2
          162       30106.6        393701        398237        393701       70765.3
          163       30041.2        393537        398292        393537       70654.7
          164       29976.5        393385        398346        393385       70546.5
          165       29912.5        393245        398398        393245       70440.6
          166       29849.3        393117        398449        393117         70337
          167       29786.9        393000        398498        393000       70235.6
          168       29725.3        392894        398546        392894       70136.6
          169       29664.5        392799        398592        392799       70039.7
          170       29604.5        392714        398636        392714       69945.2
          171       29545.3        392638        398679        392638       69852.8
          172         29487        392572        398720        392572       69762.7
          173       29429.5        392516        398759        392516       69674.7
          174       29372.9        392468        398797        392468       69588.9
          175       29317.2        392428        398833        392428       69505.2
          176       29262.3        392397        398868        392397       69423.7
          177       29208.3        392373        398901        392373       69344.2
          178       29155.3        392357        398932        392357       69266.9
          179       29103.1        392348        398962        392348       69191.5
          180       29051.8        392346        398990        392346       69118.2
          181       29001.4        392350        399017        392350       69046.9
          182       28951.9        392360        399042        392360       68977.5
          183       28903.3        392376        399066        392376       68910.1
          184       28855.6        392398        399088        392398       68844.6
          185       28808.8        392424        399108        392424       68781.1
          186       28762.9        392456        399128        392456       68719.4
          187         28718        392492        399145        392492       68659.6
          188       28673.9        392532        399162        392532       68601.7
          189       28630.7        392577        399177        392577       68545.5
          190       28588.4        392625        399191        392625       68491.1
          191       28547.1        392677        399203        392677       68438.4
          192       28506.6        392732        399214        392732       68387.4
          193         28467        392790        399225        392790       68338.1
          194       28428.3        392851        399233        392851       68290.6
          195       28390.5        392915        399241        392915       68244.6
          196       28353.6        392981        399248        392981       68200.4
          197       28317.6        393049        399254        393049       68157.7
          198       28282.5        393120        399259        393120       68116.5
          199       28248.2        393192        399262        393192       68076.9
          200       28214.8        393266        399265        393266       68038.8
          201       28182.3        393341        399267        393341       68002.2
          202       28150.6        393417        399269        393417       67967.1
          203       28119.8        393495        399269        393495       67933.3
          204       28089.9        393573        399269        393573       67900.9
          205       28060.8        393653        399268        393653       67869.9
          206       28032.5        393733        399266        393733       67840.2
          207       28005.1        393813        399264        393813       67811.7
          208       27978.5        393894        399261        393894       67784.6
          209       27952.7        393975        399257        393975       67758.6
          210       27927.7        394057        399253        394057       67733.9
          211       27903.4        394138        399248        394138       67710.3
          212         27880        394220        399243        394220       67687.9
          213       27857.3        394302        399238        394302       67666.6
          214       27835.3        394384        399232        394384       67646.4
          215       27814.1        394465        399225        394465       67627.3
          216       27793.6        394547        399219        394547       67609.1
          217       27773.8        394628        399212        394628         67592
          218       27754.7        394708        399204        394708       67575.8
          219       27736.3        394788        399197        394788       67560.6
          220       27718.5        394868        399189        394868       67546.2
          221       27701.4        394947        399180        394947       67532.8
          222       27684.9        395025        399172        395025       67520.2
          223         27669        395102        399163        395102       67508.5
          224       27653.7        395179        399154        395179       67497.5
          225         27639        395255        399145        395255       67487.3
          226       27624.9        395330        399136        395330       67477.9
          227       27611.3        395403        399127        395403       67469.2
          228       27598.3        395476        399117        395476       67461.2
          229       27585.8        395548        399107        395548       67453.8
          230       27573.8        395619        399097        395619       67447.2
          231       27562.3        395689        399087        395689       67441.1
          232       27551.4        395757        399077        395757       67435.7
          233       27540.9        395825        399067        395825       67430.9
          234       27530.9        395892        399057        395892       67426.6
          235       27521.3        395957        399047        395957       67422.9
          236       27512.3        396021        399036        396021       67419.7
          237       27503.6        396084        399026        396084         67417
          238       27495.4        396145        399015        396145       67414.7
          239       27487.6        396206        399005        396206         67413
          240       27480.3        396265        398994        396265       67411.7
          241       27473.3        396323        398984        396323       67410.9
          242       27466.8        396379        398973        396379       67410.5
          243       27460.6        396435        398963        396435       67410.5
          244       27454.8        396489        398952        396489       67410.9
          245       27449.4        396542        398942        396542       67411.7
          246       27444.3        396594        398931        396594       67412.8
          247       27439.6        396645        398921        396645       67414.2
          248       27435.2        396695        398911        396695       67415.9
          249       27431.2        396743        398900        396743         67418
          250       27427.4        396791        398890        396791       67420.3
          251         27424        396837        398880        396837         67423
          252       27420.9        396883        398870        396883       67425.9
          253         27418        396927        398860        396927         67429
          254       27415.5        396970        398850        396970       67432.4
          255       27413.2        397012        398841        397012         67436
          256       27411.1        397053        398831        397053       67439.8
          257       27409.3        397093        398822        397093       67443.9
          258       27407.8        397131        398812        397131       67448.1
          259       27406.5        397169        398803        397169       67452.4
          260       27405.4        397206        398794        397206         67457
          261       27404.6        397242        398785        397242       67461.6
          262       27403.9        397276        398776        397276       67466.4
          263       27403.4        397310        398767        397310       67471.3
          264       27403.2        397343        398759        397343       67476.4
          265       27403.1        397375        398750        397375       67481.5
          266       27403.2        397406        398742        397406       67486.7
          267       27403.5        397435        398734        397435         67492
          268       27403.9        397464        398726        397464       67497.3
          269       27404.5        397492        398718        397492       67502.7
          270       27405.2        397519        398710        397519       67508.2
          271         27406        397545        398703        397545       67513.7
          272         27407        397571        398695        397571       67519.2
          273       27408.1        397595        398688        397595       67524.7
          274       27409.4        397619        398681        397619       67530.3
          275       27410.7        397641        398674        397641       67535.9
          276       27412.2        397663        398667        397663       67541.5
          277       27413.7        397684        398661        397684       67547.1
          278       27415.4        397704        398654        397704       67552.7
          279       27417.1        397724        398648        397724       67558.2
          280       27418.9        397743        398642        397743       67563.8
          281       27420.8        397761        398636        397761       67569.4
          282       27422.7        397778        398630        397778       67574.9
          283       27424.7        397794        398624        397794       67580.4
          284       27426.8        397810        398619        397810       67585.9
          285       27428.9        397825        398613        397825       67591.3
          286       27431.1        397840        398608        397840       67596.7
          287       27433.3        397854        398603        397854       67602.1
          288       27435.6        397867        398598        397867       67607.4
          289       27437.9        397879        398594        397879       67612.7
          290       27440.3        397891        398589        397891       67617.9
          291       27442.6        397903        398584        397903         67623
          292         27445        397914        398580        397914       67628.1
          293       27447.4        397924        398576        397924       67633.1
          294       27449.9        397934        398572        397934       67638.1
          295       27452.3        397943        398568        397943         67643
          296       27454.8        397951        398564        397951       67647.8
          297       27457.3        397960        398561        397960       67652.6
          298       27459.7        397967        398557        397967       67657.3
          299       27462.2        397975        398554        397975       67661.9
          300       27464.7        397981        398551        397981       67666.4
          301       27467.2        397988        398548        397988       67670.8
          302       27469.7        397994        398545        397994       67675.2
          303       27472.1        397999        398542        397999       67679.5
          304       27474.6        398004        398539        398004       67683.7
          305       27477.1        398009        398536        398009       67687.9
          306       27479.5        398013        398534        398013       67691.9
          307       27481.9        398017        398532        398017       67695.9
          308       27484.4        398021        398529        398021       67699.8
          309       27486.8        398024        398527        398024       67703.6
          310       27489.2        398027        398525        398027       67707.3
          311       27491.5        398030        398523        398030       67710.9
          312       27493.9        398032        398521        398032       67714.5
          313       27496.2        398035        398519        398035         67718
          314       27498.5        398036        398518        398036       67721.4
          315       27500.8        398038        398516        398038       67724.7
          316         27503        398039        398515        398039       67727.9
          317       27505.2        398040        398513        398040       67731.1
          318       27507.4        398041        398512        398041       67734.1
          319       27509.6        398042        398511        398042       67737.1
          320       27511.7        398042        398510        398042       67740.1
          321       27513.8        398042        398509        398042       67742.9
          322       27515.9        398042        398508        398042       67745.6
          323       27517.9        398042        398507        398042       67748.3
          324       27519.9        398042        398506        398042       67750.9
          325       27521.9        398041        398505        398041       67753.5
          326       27523.8        398040        398504        398040       67755.9
          327       27525.7        398039        398504        398039       67758.3
          328       27527.6        398038        398503        398038       67760.6
          329       27529.4        398037        398503        398037       67762.9
          330       27531.2        398036        398502        398036         67765
          331       27532.9        398034        398502        398034       67767.1
          332       27534.7        398033        398502        398033       67769.2
          333       27536.4        398031        398501        398031       67771.1
          334         27538        398029        398501        398029         67773
