# Probe 0 (0.0005 0.0001 0.0001)
# Probe 1 (0.0005 0.0001 0.0009)
# Probe 2 (0.0005 0.0009 0.0009)
# Probe 3 (0.0005 0.0009 0.0001)
# Probe 4 (0.0005 0.0005 0.0005)
#       Probe             0             1             2             3             4
#        Time
            1  -1.78301e-15   1.65289e-13   -3.2872e-14  -1.29505e-13  -4.11598e-16
            2  -2.63805e-15  -1.83408e-13   1.43958e-14   1.37982e-13   -4.6314e-15
            3  -2.12294e-15   1.60247e-13  -6.25922e-15  -1.22057e-13  -1.66321e-15
            4  -5.35885e-16  -5.47794e-14   7.11241e-16    3.1972e-14  -1.19572e-15
            5  -2.28353e-15  -5.70478e-14  -9.55889e-15   4.49125e-14  -1.43564e-15
            6  -4.34509e-15   6.85602e-14  -3.34035e-15  -6.53297e-14  -6.75582e-15
            7  -2.64831e-15  -2.80143e-14   4.26561e-15   1.62261e-14   -7.6044e-16
            8  -4.03306e-17  -2.34131e-14  -2.41647e-16   2.75336e-14   3.42815e-15
            9  -8.38425e-16   2.98028e-14  -9.75709e-15  -3.42977e-14  -6.48347e-15
           10    1.0063e-16  -6.86019e-15   8.79595e-15   1.43321e-14   5.83386e-15
           11  -2.04761e-15  -1.76683e-14  -1.66123e-15    4.8163e-15  -4.94711e-15
           12  -1.69075e-15   1.76591e-14  -7.36236e-15  -1.74564e-14  -3.20273e-15
           13  -2.93606e-15  -1.30337e-14   -2.4114e-16   7.31856e-15  -1.12786e-15
           14   5.85333e-16   6.66935e-16   5.18259e-15   5.02202e-15   4.47131e-15
           15   1.57034e-16   7.88952e-15  -3.44265e-15   -1.0074e-14  -3.54857e-15
           16   -8.9016e-16  -1.33227e-14  -3.77327e-15   2.60933e-15  -3.58713e-15
           17   2.34372e-16   9.74449e-15   3.37451e-15   2.82996e-15   4.35896e-15
           18  -3.27419e-15  -4.94672e-15  -5.13115e-15  -7.82364e-15  -5.24668e-15
           19   8.40195e-16  -3.44927e-15   4.13877e-15   6.26857e-15    2.3509e-15
           20   4.52055e-15   1.35477e-14   6.61016e-15   5.09856e-15   7.19511e-15
           21   5.21333e-15   1.76499e-15   1.09694e-15   1.79147e-15   2.91506e-15
           22    3.2261e-15   -2.0714e-16   4.60632e-15   4.41459e-15    2.4868e-15
           23   7.59756e-16   2.85634e-15   6.29812e-16  -7.84539e-16   4.61335e-17
           24   6.82296e-15   8.35604e-15   6.72955e-15   9.68083e-15   1.00419e-14
           25   3.96342e-15   4.22484e-16   3.60492e-15   2.01588e-15   1.26283e-15
           26   2.38343e-15   2.72923e-15   7.22638e-16  -1.79555e-15   1.84805e-16
           27  -1.17711e-15  -1.29918e-15  -9.48089e-16    8.9446e-16  -1.70651e-16
           28  -1.34489e-15   -1.4222e-15  -8.18279e-16   2.98842e-16  -1.72324e-16
           29  -4.98876e-16   1.29763e-15   -2.0278e-16  -1.58024e-15   -1.4374e-15
           30  -8.94898e-16  -8.71939e-16  -2.37473e-16   7.42966e-16   1.33961e-16
           31  -3.05546e-15  -5.16349e-15  -3.85136e-15  -4.40996e-15   -3.7778e-15
           32  -2.27286e-15  -2.59056e-15  -1.93154e-15  -1.56376e-15  -2.71258e-15
           33   2.90623e-15   8.83887e-15   6.53147e-15   5.57186e-15   7.53034e-15
           34   2.57145e-15  -2.52272e-16   9.87613e-16   3.02442e-16   6.49541e-16
           35   3.02758e-15   6.21178e-16   1.77806e-15   2.69787e-15   1.56467e-15
           36   1.54148e-15   3.20766e-15  -7.37431e-16   4.57675e-17   1.46899e-16
           37  -4.42208e-15  -7.13491e-15  -6.18657e-15  -5.67362e-15  -6.05301e-15
           38  -2.06413e-15   2.77885e-16   4.25011e-15   2.77786e-15   2.96201e-15
           39  -4.91804e-15  -6.02662e-15  -9.20518e-15  -9.91876e-15  -8.39291e-15
           40   7.95396e-16   3.69882e-15   2.97479e-15   4.37031e-15   3.43048e-15
           41  -3.80252e-16  -1.78137e-15  -4.81429e-16  -4.66726e-16  -1.10179e-15
           42   2.24797e-15   2.60604e-15    2.8487e-15   1.88273e-15   2.29219e-15
           43   2.61814e-15   4.52567e-15   2.61024e-15   1.76078e-15   2.97263e-15
           44  -5.31514e-15  -1.46028e-14  -1.30527e-14  -9.35277e-15  -1.19301e-14
           45   5.04827e-15   1.76374e-14   1.64518e-14   1.33192e-14   1.55507e-14
           46    1.4742e-15  -2.59573e-15  -1.60288e-15  -2.07983e-15  -2.19514e-15
           47   4.65522e-15   4.59796e-16   1.71391e-15    2.2023e-15   2.21077e-15
           48   6.93709e-15    1.2823e-14   8.71556e-15   8.13781e-15   9.79952e-15
           49   2.82673e-15  -1.61026e-15   8.40257e-16   1.83225e-15   -9.6303e-17
           50    1.9399e-15  -2.52103e-16   1.61566e-15   3.27076e-16   1.31554e-15
           51   8.55061e-15   1.63466e-14    1.2848e-14   1.39697e-14   1.30607e-14
           52   6.93046e-15   7.17299e-15   6.53711e-15   4.19224e-15   6.49961e-15
           53   2.39215e-15  -4.57373e-15  -3.13704e-15  -4.09456e-15  -3.04538e-15
           54  -4.75834e-15  -1.04708e-14  -8.54934e-15   -4.9002e-15  -8.86168e-15
           55  -9.37269e-15  -6.00451e-15  -8.06221e-15  -8.39692e-15  -8.03701e-15
           56  -7.83279e-15  -1.86717e-15  -2.75155e-15  -2.29249e-15  -2.27014e-15
           57  -3.09978e-15  -5.80146e-16   1.74773e-16  -2.18627e-15   -9.5574e-16
           58  -6.13002e-15  -1.48765e-14  -1.35603e-14  -1.44549e-14  -1.34297e-14
           59  -2.62782e-15   1.47611e-15   1.60395e-15   5.15795e-15    2.5572e-15
           60  -5.35893e-15  -3.12464e-18  -1.93072e-15  -4.16047e-15  -2.49162e-15
           61  -1.63347e-14  -2.52624e-14  -2.63681e-14  -2.98519e-14  -2.53627e-14
           62  -5.57651e-15   4.11648e-15    6.8234e-15   1.08218e-14   4.74611e-15
           63  -7.32052e-15  -6.69977e-15  -1.18408e-14  -1.60999e-14  -9.84856e-15
           64   3.42804e-17   5.23606e-16   2.49739e-15    4.8043e-15   2.44285e-15
           65  -3.08931e-15  -6.79832e-15  -3.27239e-15  -2.20325e-15  -3.72502e-15
           66   5.66947e-15   1.30669e-14   8.36289e-15   5.56867e-15    8.9058e-15
           67   3.16002e-15  -3.29288e-15  -1.36252e-15   1.19751e-15   -1.5806e-15
           68   8.24682e-15   2.88995e-15   6.61171e-15   7.83137e-15   6.30038e-15
           69   1.75469e-14   2.24074e-14   2.39461e-14   2.38246e-14   2.44859e-14
           70   2.42454e-14   3.66846e-14   3.26737e-14   2.58851e-14   3.00157e-14
           71   1.67602e-14   3.43616e-15    3.2114e-15   1.01057e-14   4.33607e-15
           72   1.22091e-14   3.24692e-16  -3.17144e-15  -5.33203e-16   1.58633e-15
           73   1.44319e-14   3.46704e-14   3.36707e-14   2.29885e-14   2.90348e-14
           74   6.07749e-15  -2.03812e-15   3.57275e-15    2.7251e-15   1.64076e-15
           75  -9.30226e-15  -2.12923e-14  -2.69973e-14  -1.86085e-14  -2.22664e-14
           76  -1.35054e-16   1.31885e-14   1.10426e-14   1.15736e-14   1.06886e-14
           77   -1.0788e-14  -1.16582e-14  -3.51471e-15  -1.10466e-14  -7.56713e-15
           78  -1.99214e-14    -3.152e-14  -3.05856e-14  -2.41176e-14  -2.82253e-14
           79  -2.73794e-14  -3.32451e-14  -4.07848e-14  -4.13348e-14  -3.62387e-14
           80   -1.3453e-14   5.66935e-15   7.45171e-15   4.10108e-15   2.31457e-15
           81  -1.42352e-14  -1.45688e-14  -7.03778e-15  -7.28559e-15  -9.64892e-15
           82  -7.19162e-15  -6.92961e-15  -1.29693e-14  -1.41556e-14  -8.83175e-15
           83  -6.82687e-15  -5.22226e-15  -1.09466e-14  -9.87941e-15  -1.03323e-14
           84  -3.28857e-16   2.73745e-16   2.44884e-15  -4.54809e-17   2.65146e-16
           85   1.24098e-14   1.95691e-14   2.19947e-14   2.36256e-14   2.11302e-14
           86   8.68633e-15   3.17662e-15   5.16257e-15   5.50067e-15    5.6682e-15
           87   1.02883e-14   4.97215e-15   6.54446e-15   3.77245e-15   7.27195e-15
           88   8.68283e-15   6.72448e-15   3.37886e-15   5.36904e-15   4.61903e-15
           89   8.16727e-15   8.63774e-15   6.40207e-15   1.15607e-14   7.27945e-15
           90  -2.92134e-16  -5.95208e-15   -7.5022e-15  -6.81746e-15  -6.93196e-15
           91   7.35939e-15   1.42821e-14   1.72217e-14   9.74881e-15   1.64729e-14
           92   4.02907e-15   9.54329e-15   1.09352e-14   9.78219e-15   8.05299e-15
           93  -4.35005e-15  -1.46937e-14  -1.27632e-14  -1.01468e-14  -1.12301e-14
           94   -9.8004e-15  -2.14809e-14  -2.17423e-14  -1.51601e-14  -2.05582e-14
           95   9.05616e-15   3.53603e-14   2.98515e-14   1.99307e-14   2.77599e-14
           96   2.29994e-15   7.41028e-15   7.98395e-16  -3.87805e-15   7.48072e-16
           97  -1.25874e-14  -4.42875e-14   -2.7642e-14  -1.68456e-14  -2.68105e-14
           98   8.19987e-15   3.06073e-14   2.65569e-14   2.08125e-14   2.49906e-14
           99  -1.50503e-14  -1.89703e-14  -2.31455e-14     -2.61e-14  -2.55577e-14
          100  -2.17534e-14  -3.66242e-14  -3.96889e-14  -3.05179e-14  -3.38784e-14
          101  -7.05782e-15   1.47207e-14   1.49091e-14   9.71287e-15    1.4089e-14
          102  -1.21652e-14  -1.30313e-14  -2.98128e-15  -1.03813e-14  -9.40005e-15
          103  -7.99265e-15  -8.71304e-15  -1.09929e-14  -7.09715e-15  -1.08452e-14
          104  -3.98988e-15  -2.73536e-15  -1.47409e-14  -9.22821e-15  -5.94555e-15
          105   4.33546e-15   7.60572e-15   1.06588e-14   1.33627e-14   1.00253e-14
          106   3.40204e-15  -1.29182e-15   5.35108e-15  -2.74705e-16   3.64113e-16
          107   2.46349e-14   3.63624e-14   3.98938e-14   3.26022e-14   3.84969e-14
          108   1.33147e-14   2.44252e-15  -9.62124e-15   2.72278e-15  -4.52592e-15
          109    3.6426e-14   5.06737e-14    4.6422e-14   4.05931e-14   4.71877e-14
          110   3.69643e-14   4.27826e-14   5.02751e-14   4.24573e-14    4.0888e-14
          111   2.60023e-14   3.02898e-15   3.77157e-16    8.1809e-15   7.63391e-15
          112   3.24471e-14   3.30247e-14   2.41175e-14   2.96375e-14   3.11294e-14
          113   3.54139e-14    4.9241e-14   5.46575e-14   4.97594e-14   4.73142e-14
          114   1.72759e-14   2.45269e-15   1.35796e-14   6.57375e-15   9.87224e-15
          115   1.56249e-15  -1.42742e-14  -2.02272e-14  -1.03017e-14  -1.50288e-14
          116   2.27879e-14   4.78086e-14   4.59774e-14   4.64918e-14   4.60568e-14
          117   2.93799e-14   3.23089e-14   4.21143e-14   3.23074e-14   3.87433e-14
          118   2.84252e-14   2.29141e-14   1.04184e-14   1.02531e-14   1.14953e-14
          119   3.26124e-14   2.44555e-14   1.99171e-14    2.6452e-14   2.50921e-14
          120   5.67338e-14   6.97117e-14   8.27752e-14   8.11953e-14   7.96767e-14
          121   3.65071e-14   2.64993e-14   2.26583e-14   1.72541e-14   2.05585e-14
          122   3.19268e-14   1.85471e-14     1.563e-14   1.37523e-14   1.59297e-14
          123   6.12184e-14   8.33599e-14   8.54887e-14   1.01863e-13   8.90967e-14
          124   3.04144e-14   1.59368e-14   6.47373e-15   2.96803e-15   1.26115e-14
          125   5.07202e-14   6.02852e-14   6.83109e-14   5.38649e-14   5.79109e-14
          126   5.89511e-14   6.84786e-14   7.60568e-14   6.48638e-14   6.76724e-14
          127   3.85622e-14   2.00477e-14  -2.87908e-15    1.9569e-14   1.24312e-14
          128   4.97167e-14   4.44839e-14   6.19064e-14   6.68289e-14   6.00563e-14
          129   3.57041e-14   3.82587e-14   4.36615e-14   3.05093e-14   3.67611e-14
          130   6.37573e-15  -4.90573e-15  -2.12143e-14  -3.19548e-14  -1.50307e-14
          131  -1.18831e-14   -3.0934e-14  -1.92833e-14  -1.15945e-15   -2.0051e-14
          132  -2.56801e-14  -1.21258e-14  -2.24154e-14  -2.15048e-14  -1.95477e-14
          133  -3.49812e-14  -3.48973e-14  -2.96308e-14   -4.1512e-14  -3.50612e-14
          134   -2.8194e-14   -1.6446e-14  -4.81392e-15  -5.43889e-15  -1.02037e-14
          135  -3.09348e-14  -2.99745e-14  -4.19727e-14  -3.87437e-14  -3.47285e-14
          136  -2.80462e-14  -3.16872e-14  -3.47362e-14  -3.00132e-14  -3.02397e-14
          137  -1.97874e-14  -2.89121e-15  -8.93421e-15  -2.38373e-14  -1.43775e-14
          138  -2.74247e-14  -4.27541e-14  -3.07284e-14  -2.77083e-14  -3.42755e-14
          139  -1.94278e-14  -1.87835e-14  -2.38398e-14  -9.11672e-15  -1.63083e-14
          140  -1.02046e-14   7.55985e-15  -2.65124e-15  -1.02769e-14  -3.29971e-15
          141   1.10966e-14    1.6418e-14    3.0624e-14    2.4688e-14   2.42885e-14
          142   2.26186e-14   1.48391e-14   1.96485e-14   2.48308e-14   2.17177e-14
          143   2.73736e-14   3.45117e-14   2.00437e-14   1.64892e-14   2.44906e-14
          144   2.69308e-14   2.51323e-14      2.28e-14   2.64115e-14   2.03124e-14
          145   3.15055e-14   2.58737e-14   3.77813e-14    3.7684e-14   3.44944e-14
          146   1.69261e-14   1.04249e-14   9.02019e-15   9.57963e-15   9.53912e-15
          147  -1.37862e-14  -3.45643e-14  -3.83429e-14   -4.5722e-14  -3.54792e-14
          148  -5.17051e-15   1.89591e-14   2.10252e-14   2.01029e-14   1.50348e-14
          149   -4.3619e-14  -5.33476e-14  -6.22744e-14  -5.32668e-14  -6.01276e-14
          150  -5.35635e-14  -6.13879e-14  -6.12873e-14   -5.9825e-14  -5.38294e-14
          151  -4.43437e-14  -2.62327e-14  -1.49058e-14  -2.17153e-14  -2.41011e-14
          152  -5.83255e-14  -6.14473e-14  -7.04837e-14  -7.18094e-14  -6.92562e-14
          153  -5.88773e-14  -6.54067e-14  -7.17678e-14  -6.56493e-14  -6.56898e-14
          154  -3.23494e-14  -1.30672e-14   5.56434e-16   4.76652e-15  -7.15035e-15
          155  -3.66516e-14  -3.02375e-14  -3.62303e-14  -4.77822e-14  -3.50557e-14
          156  -4.78114e-14  -5.69858e-14  -6.55221e-14  -7.02424e-14  -6.48373e-14
          157  -4.09752e-14  -5.47117e-14  -4.23806e-14  -3.09978e-14   -4.2276e-14
          158  -4.12605e-14  -3.36469e-14  -4.02985e-14  -3.68959e-14  -3.62327e-14
          159  -4.16191e-14  -2.47484e-14  -3.00052e-14  -3.63516e-14  -3.52575e-14
          160  -3.17361e-14  -2.09807e-14  -2.04834e-14  -3.09163e-14  -2.22176e-14
          161  -4.32143e-14  -6.44186e-14  -5.60386e-14  -4.81058e-14  -5.31093e-14
          162  -2.87396e-14   -2.4193e-14  -2.78084e-14  -1.74507e-14  -2.63133e-14
          163  -4.04325e-14  -4.25297e-14   -4.5202e-14   -5.0668e-14  -4.56946e-14
          164  -1.23995e-14   1.36158e-14   1.84128e-14    5.9916e-15   1.01164e-14
          165  -2.10724e-14  -3.00323e-14  -2.74102e-14  -2.21939e-14  -2.43614e-14
          166  -1.92078e-14  -2.61215e-14  -3.25236e-14   -2.7824e-14  -2.50104e-14
          167   1.03914e-14   3.01818e-14   3.48271e-14   2.62497e-14   2.85651e-14
          168  -7.00642e-15  -2.60644e-14  -2.55748e-14  -2.01881e-14  -2.88092e-14
          169  -2.74832e-15  -5.53835e-15  -1.43096e-14  -1.34984e-14  -5.97082e-15
          170   5.00123e-15   1.55985e-14   9.57796e-15   6.43048e-15   1.09994e-14
          171  -1.06072e-14  -1.62251e-14  -1.14292e-14  -1.41828e-14  -1.94679e-14
          172  -1.80704e-14  -3.50475e-14  -3.12318e-14    -2.834e-14  -2.80062e-14
          173  -2.26376e-14  -1.48312e-14  -1.84872e-14  -1.40913e-14  -1.81495e-14
          174    -1.557e-14   6.80771e-15   5.14848e-15  -3.86668e-15   -2.5125e-16
          175  -6.31726e-14  -1.04007e-13  -9.54364e-14  -8.91498e-14  -9.30643e-14
          176  -6.22406e-14  -7.09065e-14  -7.18029e-14   -6.2644e-14  -6.67903e-14
          177  -4.30674e-14   2.22768e-15  -1.23783e-15  -1.15903e-14  -1.05737e-14
          178  -5.61987e-14  -5.02186e-14  -6.11428e-14  -6.99536e-14  -5.80591e-14
          179  -6.87018e-14  -9.96649e-14   -8.6195e-14  -7.20864e-14  -8.12438e-14
          180  -4.83836e-14  -2.19723e-14  -3.14933e-14  -4.02611e-14  -3.15054e-14
          181  -5.37512e-14  -5.22265e-14  -4.55559e-14  -5.35352e-14  -5.37356e-14
          182  -7.91943e-14  -1.06389e-13  -1.11309e-13  -1.07364e-13  -1.04722e-13
          183  -4.71206e-14  -2.09189e-14  -1.81493e-14  -8.67141e-15  -1.82482e-14
          184  -5.58479e-14  -4.91105e-14  -4.80028e-14  -4.24551e-14  -5.14623e-14
          185  -6.33358e-14  -6.56084e-14  -7.25338e-14   -8.6855e-14  -7.20992e-14
          186  -3.66525e-14  -2.78095e-14  -1.57539e-14  -2.17935e-14  -1.84438e-14
          187  -4.48908e-14  -4.67336e-14  -5.20439e-14  -3.91836e-14  -4.67986e-14
          188  -3.72829e-14  -3.09164e-14  -4.43142e-14  -3.81211e-14    -3.919e-14
          189  -2.02648e-15   1.88122e-14   3.33847e-14   1.90622e-14   2.25155e-14
          190  -2.29851e-15  -1.71299e-14  -9.91816e-15  -7.13501e-15  -9.66576e-15
          191  -1.61429e-14  -3.01795e-14   -4.9419e-14  -4.48695e-14  -3.66652e-14
          192  -4.45579e-15   1.85405e-15   6.64548e-15   6.01236e-15   3.68357e-15
          193   9.49725e-15   1.97032e-14   3.21946e-14   2.34131e-14   2.42085e-14
          194  -2.71446e-15  -2.82642e-15  -9.98881e-15    -1.451e-14  -1.12667e-14
          195   4.73814e-15  -2.31077e-15  -7.24151e-15   1.74132e-14   1.95082e-15
          196   6.08965e-15   1.71124e-14   1.59024e-14   -3.6687e-15   1.41959e-14
          197   1.43502e-14   2.46137e-14   2.61649e-14   1.61878e-14   1.99632e-14
          198   7.61101e-15  -8.12435e-15  -5.68999e-15   2.67212e-15  -3.57283e-15
          199   2.79378e-14   3.52186e-14   2.98218e-14   3.99818e-14   3.58955e-14
          200   2.53672e-14   3.16162e-14   3.36277e-14   3.14055e-14   3.00559e-14
          201   2.48245e-14   1.61406e-14   2.33369e-14   2.06516e-14   2.16541e-14
          202   1.49426e-14   1.15033e-14   6.53358e-15  -6.87852e-16   1.13703e-14
          203   1.72658e-14   2.30257e-14   2.11668e-14   2.34164e-14    1.9909e-14
          204   2.63399e-14   2.95453e-14   3.17846e-14   2.97751e-14   2.95442e-14
          205   3.15102e-14   3.58118e-14   3.77934e-14    3.5228e-14   3.43734e-14
          206   4.20302e-14   4.75011e-14   4.23514e-14   4.75092e-14   4.53278e-14
          207   3.44655e-14   2.92396e-14   1.57913e-14   1.85732e-14   2.30759e-14
          208   4.67635e-14    5.0747e-14   5.72597e-14   5.18193e-14   5.49531e-14
          209    4.5833e-14   4.04712e-14   5.48003e-14   5.32679e-14    4.7855e-14
          210    2.8621e-14   1.41257e-14   7.22365e-15   1.20765e-14    9.9426e-15
          211   3.09012e-14   3.26731e-14   2.39367e-14   3.00897e-14   2.71392e-14
          212   8.89481e-15  -5.27499e-15   1.47873e-15  -2.92176e-15  -1.39896e-15
          213   -2.1096e-14  -2.42762e-14  -2.69924e-14  -4.37902e-14  -2.85392e-14
          214   -2.3179e-14  -1.21352e-14  -3.48225e-15  -1.83501e-15  -7.04061e-15
          215  -2.52349e-14  -2.14622e-14  -1.39522e-14    2.8931e-15  -1.56907e-14
          216  -1.17924e-14   9.27039e-15  -1.81865e-14  -3.35144e-14  -6.97372e-15
          217  -5.31914e-15  -1.57462e-14  -5.00762e-15  -4.22408e-15   -1.3486e-14
          218  -4.01545e-15  -2.32717e-14  -6.50556e-15    8.7235e-15  -8.47489e-15
          219   9.98469e-16   1.73808e-14  -7.96861e-15  -1.38679e-14   3.93081e-15
          220   2.90246e-14   5.11561e-14   6.62261e-14   5.81816e-14   5.08778e-14
          221  -6.30458e-15  -4.26626e-14  -4.56143e-14  -4.22071e-14  -3.87348e-14
          222   -3.2417e-15   -7.4708e-15  -1.64595e-14  -8.04755e-16  -6.40383e-15
          223   1.15141e-14   4.83903e-14   4.67117e-14   2.93437e-14   3.47634e-14
          224  -5.41074e-15  -1.68271e-14  -6.24937e-15  -1.44475e-14  -1.11503e-14
          225  -7.69419e-15  -2.40869e-14  -2.25239e-14  -1.27644e-14  -1.49455e-14
          226   4.93259e-15   1.87928e-14   9.99646e-15   1.67823e-14   1.32195e-14
          227  -1.47203e-14   -2.5142e-14  -1.92501e-14  -3.19293e-14   -2.2491e-14
          228    3.0177e-15   1.46104e-14   1.55142e-14   1.20843e-14   1.15871e-14
          229    1.9452e-15    4.8403e-15  -4.37802e-16   8.04695e-15   5.79169e-15
          230   8.05793e-15   4.47623e-15   4.35637e-15   1.29056e-14     7.506e-15
          231   1.18595e-14    7.8924e-15   1.86773e-14   1.02424e-14   1.10668e-14
          232   1.72656e-14   2.56284e-14   1.93391e-14   8.44656e-15   1.84567e-14
          233   1.56988e-14   1.81543e-14   5.29325e-15   9.63406e-15   1.26872e-14
          234   2.61791e-14   3.21376e-14   3.44602e-14   4.29852e-14   3.51386e-14
          235   3.20612e-14   3.22026e-14   3.39346e-14   3.15869e-14   3.09325e-14
          236   4.74209e-14   4.88633e-14   5.74077e-14   5.31668e-14   5.52792e-14
          237   6.87071e-14    7.1278e-14   7.73076e-14   7.60936e-14   7.65934e-14
          238   6.21761e-14   5.65998e-14   4.53044e-14   4.67265e-14   4.93008e-14
          239   5.73778e-14   5.04418e-14   4.23901e-14   4.32664e-14   4.50796e-14
          240   6.11107e-14   5.58129e-14   7.72625e-14   7.08936e-14   6.99781e-14
          241   5.49981e-14    5.3382e-14   5.12615e-14   6.13465e-14   5.05162e-14
          242   4.91543e-14   5.17251e-14    3.3291e-14   2.97866e-14   4.17931e-14
          243    4.8387e-14   4.54924e-14   4.34328e-14   4.24135e-14   4.60838e-14
          244   6.03363e-14    7.0985e-14   8.03464e-14   8.05989e-14   7.40916e-14
          245   4.79755e-14    3.5508e-14   4.68002e-14   4.58768e-14   4.38767e-14
          246   3.91472e-14   2.83693e-14   1.70011e-14   2.07444e-14   2.43612e-14
          247   3.48024e-14   3.06954e-14   2.65827e-14   2.38963e-14   2.91488e-14
          248   2.05763e-14    1.8005e-14   2.62154e-14   2.34147e-14   1.94896e-14
          249    2.3904e-14   3.00036e-14   3.01469e-14   3.15861e-14    2.8963e-14
          250  -3.64267e-15  -8.11703e-15  -2.57156e-14  -2.98017e-14  -1.76938e-14
          251   3.95652e-15   7.13258e-15   1.98721e-14    2.2076e-14    1.7298e-14
          252  -9.64336e-15  -1.51654e-14  -6.16761e-15  -2.93581e-15  -9.35002e-15
          253  -2.47349e-14  -2.53516e-14  -4.00455e-14  -4.12531e-14  -3.41061e-14
          254   -1.5059e-14   -1.6607e-14  -9.95581e-15  -8.46967e-15  -1.39228e-14
          255   6.28562e-16   2.12186e-14    1.9959e-14   1.51978e-14   1.74314e-14
          256  -2.21321e-14  -3.55996e-14  -4.72035e-14  -5.07966e-14  -3.99933e-14
          257  -1.84197e-14  -2.31469e-14  -1.50775e-14     -1.49e-14  -2.12816e-14
          258  -2.40677e-14  -2.37561e-14  -2.48757e-14  -2.30443e-14  -2.40971e-14
          259  -2.95617e-14  -3.45197e-14  -3.61623e-14   -2.5562e-14  -3.11392e-14
          260  -2.16485e-14  -1.40204e-14  -1.50609e-14  -1.88608e-14  -1.63611e-14
          261  -1.91526e-14  -9.85979e-15   2.15183e-15  -1.27816e-14  -9.61879e-15
          262  -1.08284e-14  -6.95269e-15  -6.69027e-15   -7.1236e-15  -5.20567e-15
          263  -4.64782e-15  -3.56569e-15  -2.17676e-14  -7.47881e-15  -8.41903e-15
          264  -1.48771e-14  -3.06756e-14  -2.63035e-14  -2.04907e-14  -2.69885e-14
          265  -1.73508e-14  -2.18534e-14  -1.70978e-14  -2.29671e-14  -2.17477e-14
          266     6.006e-15   3.10657e-14   2.82871e-14   1.79073e-14   2.39509e-14
          267  -3.42496e-15  -1.25237e-14  -4.28917e-15  -9.00717e-15  -7.03575e-15
          268  -1.89544e-14  -3.15092e-14  -4.68526e-14  -3.11329e-14  -4.00327e-14
          269   -4.3148e-14  -6.13137e-14  -6.08113e-14  -5.97679e-14  -5.52743e-14
          270  -2.70238e-14   3.07404e-15    1.8426e-14    1.6587e-16    3.6601e-15
          271  -4.81701e-14  -5.02376e-14  -5.68424e-14  -4.92374e-14  -5.39494e-14
          272  -3.83045e-14   -3.1317e-14  -4.08262e-14  -3.30127e-14  -3.31871e-14
          273  -3.00063e-14  -2.62366e-14  -1.63361e-14  -3.28048e-14  -2.05847e-14
          274  -2.82507e-14  -2.70847e-14  -2.73308e-14   -3.0117e-14  -3.46793e-14
          275  -2.07009e-14  -2.87123e-14  -3.55489e-14  -1.29827e-14   -2.5258e-14
          276  -2.37269e-14   -2.1803e-14  -3.46903e-14  -4.00239e-14  -2.87279e-14
          277  -1.42155e-14  -4.50366e-15   1.50072e-14  -6.12262e-16  -3.59235e-16
          278  -2.76963e-14  -3.53614e-14  -3.18535e-14  -2.84975e-14  -3.12158e-14
          279   -2.4851e-14  -2.13172e-14   -3.5716e-14  -2.61231e-14  -2.56764e-14
          280  -7.33885e-15   6.11824e-15   1.25406e-14   5.92105e-15   5.58015e-15
          281  -3.03941e-14  -5.28077e-14  -5.09431e-14  -4.55894e-14  -5.17813e-14
          282  -1.93348e-14  -1.60664e-14  -1.76774e-14  -1.75933e-14  -1.10641e-14
          283    1.0655e-14   4.14881e-14   4.03959e-14    3.1803e-14   3.32609e-14
          284  -1.42333e-14  -3.86302e-14  -3.88358e-14   -3.1097e-14  -3.78325e-14
          285  -2.91401e-15  -1.57805e-14  -2.07315e-14   -1.1337e-14  -1.26383e-14
          286    1.2955e-14   4.78644e-14    4.3594e-14    3.0639e-14   3.73046e-14
          287   -2.1852e-14  -5.03452e-14     -3.24e-14  -4.25099e-14  -3.96389e-14
          288  -1.43701e-14  -4.12026e-15  -1.50305e-14   -1.3109e-14  -1.13828e-14
          289  -2.67696e-14  -3.29322e-14  -4.14707e-14  -2.64573e-14  -3.43678e-14
          290  -3.26284e-14  -3.60631e-14  -2.75436e-14  -2.77658e-14  -2.80349e-14
          291  -2.08803e-14  -9.36278e-15  -3.40037e-15  -1.02442e-14  -1.10303e-14
          292  -2.61927e-14  -2.51128e-14  -2.71061e-14  -3.06104e-14  -2.61946e-14
          293  -1.22019e-14   1.76902e-15  -7.66829e-15  -5.71696e-15  -3.25838e-15
          294  -8.87157e-15  -1.44107e-14  -1.09524e-14  -8.95002e-15  -1.06824e-14
          295  -8.16887e-16  -2.17851e-15  -1.40824e-15  -3.37726e-15  -8.28192e-16
          296  -5.16903e-15  -1.03869e-14  -1.15633e-14  -8.71321e-15  -1.27646e-14
          297  -2.04697e-15   4.45924e-15  -1.99451e-15  -4.19768e-15  -1.20175e-16
          298   1.46305e-14   2.87343e-14   3.10559e-14   2.75638e-14   2.75871e-14
          299    2.8949e-15  -1.05343e-14  -7.50282e-15  -7.03962e-15  -9.19883e-15
          300   2.25808e-14   2.02336e-14   2.55355e-14   2.76659e-14   2.73532e-14
          301   4.90675e-14   7.53912e-14   7.29058e-14   7.12102e-14   7.08482e-14
          302     3.932e-14   2.88381e-14   2.67793e-14   2.85802e-14   2.59812e-14
          303   2.57993e-14  -1.65722e-15  -2.22117e-15  -6.10196e-15   4.12545e-15
          304   1.89152e-14   2.55684e-14   2.23673e-14   2.49029e-14   2.07616e-14
          305   3.76262e-14   5.38863e-14    6.0977e-14   5.73813e-14   5.80487e-14
          306   1.20583e-14   2.43122e-15  -2.92856e-15  -4.19575e-15  -2.65903e-15
          307     2.435e-14     2.793e-14   2.29821e-14   2.78884e-14     2.617e-14
          308  -4.29235e-15  -2.42876e-14  -2.30912e-14  -2.46509e-14  -2.03251e-14
          309   1.23185e-14   3.11175e-14   3.74294e-14   3.04614e-14   2.89883e-14
          310   -4.9431e-15  -6.55028e-15  -9.12152e-15  -7.20176e-15  -1.01637e-14
          311  -4.96604e-16   5.38237e-16  -8.92903e-15  -7.10501e-15  -2.37746e-15
          312   5.62043e-15   7.53058e-15   8.38602e-15   1.00928e-14   9.22447e-15
          313   3.81467e-15  -7.38992e-15   1.03016e-14   1.03107e-14   3.59833e-15
          314   6.19622e-15   1.67433e-14   6.18232e-15   5.85823e-15   8.22977e-15
          315  -4.65316e-15  -6.90743e-15  -1.32058e-14  -1.38625e-14  -8.74694e-15
          316  -4.52131e-15  -7.63367e-15   2.67279e-15   1.93569e-15  -2.06715e-15
          317  -1.11996e-14  -1.31358e-14  -1.56052e-14  -1.43463e-14  -1.67147e-14
          318  -8.95617e-16   8.09391e-15   7.42072e-15   7.58151e-16   8.91514e-15
          319  -2.45659e-14   -3.8081e-14  -4.24425e-14   -3.5819e-14  -4.04789e-14
          320   -4.1195e-14  -5.31024e-14  -5.09178e-14  -4.94034e-14  -5.00608e-14
          321  -4.04511e-14  -2.93275e-14  -3.13983e-14  -3.33669e-14  -3.24331e-14
          322  -3.84057e-14  -2.49895e-14  -2.43848e-14  -3.19327e-14  -2.99428e-14
          323  -1.86141e-14  -8.79539e-15  -3.45675e-15  -2.09679e-15  -4.82315e-15
          324  -4.10741e-14  -6.56207e-14  -6.75972e-14  -6.50484e-14  -6.03981e-14
          325  -3.36922e-14  -2.42587e-14   -3.6711e-14  -3.40279e-14  -3.53309e-14
          326  -1.69888e-14  -1.95911e-16   7.05055e-15   6.67318e-15  -3.22963e-19
          327  -2.09886e-14  -2.23128e-14  -1.54685e-14  -2.12191e-14  -1.73923e-14
          328  -5.12202e-14  -6.37807e-14  -8.18703e-14  -7.84375e-14  -7.51692e-14
          329  -2.69793e-14  -2.76993e-14  -1.36267e-14  -4.35191e-15  -1.14891e-14
          330  -4.04511e-14  -2.95694e-14  -3.35034e-14  -5.04723e-14  -3.86331e-14
          331  -3.00081e-14  -1.83511e-14  -1.74108e-14  -2.61209e-14  -2.30227e-14
          332  -4.84653e-14   -7.2045e-14  -7.38251e-14  -5.58275e-14  -6.33888e-14
          333  -3.11887e-14  -1.15022e-14   -2.3886e-14  -1.26863e-14  -1.99187e-14
          334  -4.29581e-14  -4.79474e-14  -3.83911e-14   -5.2033e-14   -4.5016e-14
